FOO
135168
    1MOL0     O    1   7.328   4.543   5.128 -0.1527  0.1806  0.3138
    1MOL0     C    2   7.383   4.598   5.222 -0.0113 -0.2134 -0.0094
    1MOL0     O    3   7.339   4.706   5.279 -0.1132  0.3411  0.0472
    1MOL0     C    4   7.212   4.754   5.241  0.4155  1.1828 -0.4148
    1MOL0     C    5   7.186   4.805   5.111  0.5274  0.0176 -0.4583
    1MOL0     C    6   7.062   4.843   5.072  0.4525  0.2755  0.6969
    1MOL0     C    7   6.952   4.839   5.156 -0.2741 -0.4130 -0.5218
    1MOL0     O    8   6.825   4.875   5.110 -0.0607  0.6351  0.4823
    1MOL0     C    9   6.712   4.872   5.198 -0.2759 -0.4855  0.4107
    1MOL0     C   10   6.587   4.911   5.125  0.1330 -0.7088 -0.1082
    1MOL0     C   11   6.516   4.802   5.048 -0.0220  0.1182 -0.6587
    1MOL0     C   12   6.408   4.854   4.957  0.4187  0.9773  0.6439
    1MOL0     C   13   6.333   4.739   4.888 -0.1057  1.0391 -0.2818
    1MOL0     C   14   6.243   4.655   4.972 -0.6223 -0.2442 -0.1083
    1MOL0     C   15   6.143   4.577   4.886 -0.5350  0.4150 -0.2744
    1MOL0     C   16   6.000   4.622   4.895 -0.5276  0.4504  0.5499
    1MOL0     N   17   5.899   4.558   4.802  0.0800 -0.3139 -0.1474
    1MOL0     C   18   5.802   4.475   4.848 -0.6141 -0.4234  0.0771
    1MOL0     C   19   5.728   4.439   4.740 -0.5679  0.3327 -0.6174
    1MOL0     C   20   5.603   4.346   4.735  0.4374  0.9582 -0.5951
    1MOL0     C   21   5.660   4.208   4.713  0.6265  0.2181  0.0074
    1MOL0     C   22   5.568   4.109   4.631 -0.5281 -0.1480  0.0259
    1MOL0     C   23   5.435   4.094   4.696 -0.1627  0.0705  0.1489
    1MOL0     O   24   5.347   4.204   4.652  0.7105 -0.4809  0.4043
    1MOL0     C   25   5.212   4.186   4.661 -0.6317  0.5191 -0.6358
    1MOL0     C   26   5.137   4.068   4.621  0.8334  0.3066 -0.2353
    1MOL0     C   27   5.000   4.052   4.641  0.0713  0.3094  0.5020
    1MOL0     C   28   4.925   4.156   4.705  0.4217 -0.3468 -0.7620
    1MOL0     C   29   4.783   4.143   4.708  0.6204  0.6680  0.5799
    1MOL0     O   30   4.717   4.228   4.791  0.2032 -0.7800 -0.3080
    1MOL0     C   31   4.577   4.217   4.802 -0.7611  0.1128 -1.0110
    1MOL0     C   32   4.505   4.331   4.842 -0.4472  0.2714 -0.7778
    1MOL0     C   33   4.374   4.336   4.869  0.1147  0.3934  0.2833
    1MOL0     C   34   4.293   4.217   4.863 -0.2297 -0.5866  0.8506
    1MOL0     O   35   4.160   4.222   4.893  0.5000 -0.3039  0.1205
    1MOL0     C   36   4.064   4.122   4.874 -0.8727 -0.0323  0.0009
    1MOL0     C   37   3.933   4.200   4.900 -0.4085  0.0175  0.2138
    1MOL0     C   38   3.826   4.101   4.888  0.5241  1.5641 -1.0497
    1MOL0     C   39   3.685   4.170   4.915 -0.3979 -0.4463 -0.1680
    1MOL0     C   40   3.569   4.064   4.916  0.0941  0.0458 -0.0707
    1MOL0     C   41   3.427   4.137   4.899  0.1252 -0.1864  0.2071
    1MOL0     C   42   3.319   4.036   4.900  0.1710  0.5572 -0.0947
    1MOL0     C   43   3.174   4.098   4.882  0.3920  0.1634  0.0377
    1MOL0    Cl   44   3.131   4.188   5.037 -0.1417  0.2893 -0.3864
    1MOL0     C   45   4.361   4.105   4.837  0.2062 -0.0635  0.8058
    1MOL0     C   46   4.501   4.098   4.802  0.2347  0.0141  0.4040
    1MOL0     O   47   4.736   4.062   4.624  0.4953 -0.2353 -0.2085
    1MOL0     C   48   5.000   4.257   4.762  0.1429 -0.4000  0.0435
    1MOL0     C   49   5.137   4.282   4.734 -0.1208 -0.3891  0.2024
    1MOL0     N   50   5.782   4.505   4.628  0.0222 -0.2602 -0.0308
    1MOL0     N   51   5.878   4.581   4.670  0.0950 -0.1893 -0.5091
    1MOL0     C   52   6.982   4.803   5.293 -0.3635 -0.2762 -0.4063
    1MOL0     C   53   7.107   4.761   5.330 -0.1330  0.9574  0.0199
    1MOL0     C   54   7.506   4.535   5.264  0.3817  0.3314 -0.4139
    1MOL0     C   55   7.526   4.399   5.256  0.4980 -0.0370  0.0598
    1MOL0     C   56   7.637   4.338   5.304  0.1843  1.3994  0.1740
    1MOL0     C   57   7.738   4.408   5.365  0.5317  0.2219 -0.7595
    1MOL0     O   58   7.835   4.332   5.424 -0.4913 -0.4431  0.4371
    1MOL0     C   59   7.935   4.398   5.507 -0.5633 -0.6964 -0.1281
    1MOL0     C   60   7.882   4.445   5.645  1.2124  0.0966  0.3255
    1MOL0     C   61   7.867   4.333   5.748  0.3234  0.2905  0.2162
    1MOL0     C   62   7.731   4.261   5.728 -0.3091 -0.5129 -0.0672
    1MOL0     C   63   7.702   4.161   5.825  0.2947  0.1703 -0.6765
    1MOL0     C   64   7.665   4.067   5.899 -0.2235 -0.4187  0.2828
    1MOL0     C   65   7.725   4.548   5.366  0.1507 -0.2160  0.1234
    1MOL0     C   66   7.610   4.602   5.322  0.3537 -0.4464  0.7244
    1MOL0     H   67   7.266   4.809   5.037 -2.1949 -1.1440 -3.7329
    1MOL0     H   68   7.056   4.859   4.965 -1.1941  1.0951  0.8916
    1MOL0     H   69   6.727   4.950   5.273 -0.9390  0.2637 -0.2180
    1MOL0     H   70   6.706   4.771   5.242  2.7291 -1.1218 -0.4215
    1MOL0     H   71   6.611   4.989   5.052 -0.5472 -1.7449 -1.4869
    1MOL0     H   72   6.515   4.959   5.192 -2.0370  0.4431 -3.0783
    1MOL0     H   73   6.478   4.719   5.108  1.1257  0.6673  0.8970
    1MOL0     H   74   6.583   4.740   4.987  0.9356 -3.4818  3.5245
    1MOL0     H   75   6.346   4.921   5.018 -0.5017 -0.0072  0.8196
    1MOL0     H   76   6.442   4.919   4.875  0.5844 -0.5461 -0.5502
    1MOL0     H   77   6.402   4.673   4.835 -1.2885 -1.0353  0.5993
    1MOL0     H   78   6.258   4.790   4.827 -0.0216  0.6074 -0.7494
    1MOL0     H   79   6.190   4.703   5.054 -0.0050 -2.2476  1.5519
    1MOL0     H   80   6.301   4.583   5.031 -0.7814  0.5919  1.0999
    1MOL0     H   81   6.169   4.594   4.781  1.2007  1.0239  0.2322
    1MOL0     H   82   6.141   4.471   4.915 -0.5545  0.4712 -0.0719
    1MOL0     H   83   5.994   4.729   4.876  0.8848  0.5387  0.4891
    1MOL0     H   84   5.968   4.600   4.997  1.0201 -2.8890  0.4632
    1MOL0     H   85   5.802   4.441   4.952  1.4465 -1.2787 -0.1513
    1MOL0     H   86   5.545   4.379   4.649  0.5041  1.8302 -0.3103
    1MOL0     H   87   5.547   4.367   4.827 -1.6009 -1.6145 -1.1234
    1MOL0     H   88   5.678   4.168   4.814  1.4650 -0.2927 -0.3359
    1MOL0     H   89   5.760   4.218   4.672  0.8511 -2.8314 -0.4722
    1MOL0     H   90   5.569   4.133   4.524  0.6505 -0.1218  0.0224
    1MOL0     H   91   5.613   4.010   4.639  2.7081  0.8358 -2.9829
    1MOL0     H   92   5.450   4.098   4.804 -0.8209  0.7124  0.2300
    1MOL0     H   93   5.385   3.999   4.671 -2.2483  1.1624 -0.1122
    1MOL0     H   94   5.188   3.987   4.570 -0.8403 -1.4452  0.7498
    1MOL0     H   95   4.956   3.959   4.605 -1.0428  0.9259  0.2252
    1MOL0     H   96   4.563   4.421   4.860  1.3866 -1.0368  0.1149
    1MOL0     H   97   4.323   4.423   4.908 -0.0309  1.4891 -2.2141
    1MOL0     H   98   4.068   4.042   4.948 -0.4410 -1.3020 -1.3309
    1MOL0     H   99   4.062   4.076   4.774  1.5090 -0.3792  0.0525
    1MOL0     H  100   3.936   4.275   4.821  5.0910 -2.0310 -2.0046
    1MOL0     H  101   3.935   4.253   4.996  0.4574 -0.4820  0.4881
    1MOL0     H  102   3.835   4.028   4.968  0.0549  1.3085 -1.2309
    1MOL0     H  103   3.828   4.042   4.796  0.5167 -0.6284  0.3025
    1MOL0     H  104   3.691   4.218   5.013  1.2135 -3.4267  1.3587
    1MOL0     H  105   3.668   4.247   4.839  6.0279  2.2355  0.4181
    1MOL0     H  106   3.567   4.006   5.009 -1.2491 -0.4237 -0.3677
    1MOL0     H  107   3.573   3.994   4.832 -3.0983 -0.6421  0.2392
    1MOL0     H  108   3.420   4.202   4.811  1.8034 -2.4293 -1.6937
    1MOL0     H  109   3.420   4.205   4.984  3.6305  1.1806 -0.4155
    1MOL0     H  110   3.324   3.962   4.819 -0.6290 -0.3161  0.6245
    1MOL0     H  111   3.320   3.976   4.992 -0.6267  1.5985  0.6069
    1MOL0     H  112   3.102   4.016   4.869  0.3961  0.3712 -1.5350
    1MOL0     H  113   3.173   4.171   4.801  0.1659 -0.0770 -0.1796
    1MOL0     H  114   4.310   4.011   4.852  1.8970 -1.1258  0.2492
    1MOL0     H  115   4.553   4.004   4.790 -0.3772 -0.2909  0.1134
    1MOL0     H  116   4.944   4.322   4.828  0.5972  0.2185 -0.1604
    1MOL0     H  117   5.185   4.369   4.778 -1.0461  0.8430 -1.1099
    1MOL0     H  118   6.903   4.809   5.367 -0.7061  1.7232 -0.8831
    1MOL0     H  119   7.135   4.735   5.432  1.2545 -1.1233 -0.8295
    1MOL0     H  120   7.438   4.349   5.217 -0.2580  0.4352  1.0923
    1MOL0     H  121   7.640   4.231   5.285  2.0057  1.0515  2.1471
    1MOL0     H  122   7.973   4.483   5.450 -3.2999 -0.5885 -1.9693
    1MOL0     H  123   8.018   4.328   5.516 -1.0436 -1.2038  0.4181
    1MOL0     H  124   7.953   4.515   5.689 -0.3222  2.9875 -1.4554
    1MOL0     H  125   7.788   4.499   5.631  0.5792 -1.1346 -0.3612
    1MOL0     H  126   7.864   4.369   5.851 -0.9581 -1.7197  0.9457
    1MOL0     H  127   7.954   4.266   5.746 -0.9247 -1.4528 -2.7945
    1MOL0     H  128   7.653   4.337   5.723 -0.9137 -1.1592 -0.7008
    1MOL0     H  129   7.732   4.218   5.627  2.3808 -0.1428 -0.2540
    1MOL0     H  130   7.653   3.984   5.966  0.7618 -1.1710 -0.4367
    1MOL0     H  131   7.807   4.603   5.412 -1.1420  0.0340  2.2295
    1MOL0     H  132   7.601   4.709   5.339  0.5984  0.0577 -1.8666
    2MOL0     O  133   7.818   7.178   8.012  0.5941  0.3277  0.0622
    2MOL0     C  134   7.875   7.248   7.933 -1.2163  0.0704  0.2971
    2MOL0     O  135   7.821   7.352   7.849 -0.1001  0.4744 -0.6304
    2MOL0     C  136   7.684   7.360   7.844 -0.0887  0.1309  0.9239
    2MOL0     C  137   7.647   7.496   7.822 -0.7760 -0.6779 -0.1870
    2MOL0     C  138   7.513   7.528   7.815  0.5539 -0.2362  0.5287
    2MOL0     C  139   7.418   7.426   7.820 -0.4577 -0.1458  0.5128
    2MOL0     O  140   7.294   7.442   7.776  0.6106 -0.4885  0.1557
    2MOL0     C  141   7.218   7.515   7.875  0.0894  0.1355  0.3378
    2MOL0     C  142   7.083   7.541   7.816  0.7553  0.9116 -0.1986
    2MOL0     C  143   6.993   7.607   7.915  0.2713 -1.2119  0.1355
    2MOL0     C  144   6.856   7.646   7.845  0.0445 -0.0634  0.1578
    2MOL0     C  145   6.767   7.720   7.938 -0.9819  0.1471  0.4785
    2MOL0     C  146   6.637   7.756   7.872 -0.2262  0.2192 -0.1479
    2MOL0     C  147   6.557   7.848   7.970 -0.0018  0.9353 -1.2469
    2MOL0     C  148   6.433   7.917   7.901 -1.2185  0.7073 -0.6928
    2MOL0     N  149   6.346   7.976   8.003 -0.1880  0.1619 -1.2610
    2MOL0     C  150   6.381   8.080   8.090 -0.1698  0.4215 -0.7769
    2MOL0     C  151   6.274   8.093   8.171 -0.2836 -0.1969  0.2059
    2MOL0     C  152   6.251   8.201   8.272 -0.9933 -0.3825  0.1037
    2MOL0     C  153   6.127   8.288   8.221 -0.7876 -0.5338  0.3512
    2MOL0     C  154   6.103   8.387   8.329  0.2895  0.3204 -0.5322
    2MOL0     C  155   5.963   8.447   8.325  0.2751 -0.7847 -0.3616
    2MOL0     O  156   5.859   8.374   8.387 -0.2439  0.2062  1.0256
    2MOL0     C  157   5.733   8.432   8.389  0.0535 -0.7305 -0.9176
    2MOL0     C  158   5.690   8.558   8.339  0.3538 -0.1676 -0.2165
    2MOL0     C  159   5.551   8.595   8.347 -0.7511 -0.1524  0.4080
    2MOL0     C  160   5.455   8.505   8.399  0.3728 -0.7302  0.4078
    2MOL0     C  161   5.310   8.538   8.398  0.1614 -0.6506 -0.3223
    2MOL0     O  162   5.228   8.450   8.465 -0.8884  0.3726  0.0888
    2MOL0     C  163   5.104   8.502   8.493  0.2296 -0.4580  1.2877
    2MOL0     C  164   5.010   8.551   8.398 -0.5713  0.5312  0.1640
    2MOL0     C  165   4.882   8.588   8.433  0.1532 -0.6691 -0.1949
    2MOL0     C  166   4.849   8.579   8.566  0.9597 -0.4533 -0.3013
    2MOL0     O  167   4.720   8.610   8.602 -0.9623  0.5304 -0.0597
    2MOL0     C  168   4.704   8.696   8.718  0.4613  0.8371 -0.3833
    2MOL0     C  169   4.635   8.610   8.836  0.6085 -0.2912 -0.4742
    2MOL0     C  170   4.590   8.705   8.952 -0.4612  0.2807 -0.9590
    2MOL0     C  171   4.461   8.648   9.017 -0.7777  0.0248  0.5127
    2MOL0     C  172   4.393   8.747   9.110 -0.8814  0.1221 -0.5951
    2MOL0     C  173   4.264   8.692   9.169  1.1424 -0.1365  1.2482
    2MOL0     C  174   4.195   8.772   9.282  0.3254 -0.7216  0.2392
    2MOL0     C  175   4.125   8.893   9.215 -0.0603 -0.0324 -0.0352
    2MOL0    Cl  176   4.006   8.832   9.092 -0.0554  0.2099  0.0531
    2MOL0     C  177   4.944   8.526   8.664  1.6168 -0.0118  0.8130
    2MOL0     C  178   5.065   8.489   8.627 -0.8027 -0.8509  0.4338
    2MOL0     O  179   5.275   8.649   8.359  0.6385 -0.1538 -0.3079
    2MOL0     C  180   5.502   8.382   8.447 -0.0550  0.1915  0.5861
    2MOL0     C  181   5.637   8.353   8.443 -0.0704 -1.0452 -0.3574
    2MOL0     N  182   6.174   7.996   8.134 -0.3561 -0.2285 -0.5395
    2MOL0     N  183   6.222   7.923   8.043 -0.2510  0.3690 -0.2787
    2MOL0     C  184   7.452   7.295   7.848  0.2771  0.2632 -0.0663
    2MOL0     C  185   7.590   7.262   7.863  0.2919  0.1854  0.0872
    2MOL0     C  186   8.021   7.226   7.924 -0.6620 -1.0502  0.3589
    2MOL0     C  187   8.084   7.147   8.014 -0.6938 -0.5275  0.6847
    2MOL0     C  188   8.226   7.135   8.010  0.4444 -1.4254 -0.2152
    2MOL0     C  189   8.303   7.218   7.931 -0.2977 -0.0319 -0.5349
    2MOL0     O  190   8.440   7.225   7.929  0.2387  0.2235  0.0096
    2MOL0     C  191   8.511   7.201   8.050 -1.0717  0.2274 -0.1272
    2MOL0     C  192   8.644   7.278   8.053 -0.0982  0.1647 -0.3812
    2MOL0     C  193   8.631   7.432   8.065  1.0953 -0.4185  0.3254
    2MOL0     C  194   8.596   7.504   7.934  0.5367  0.6862  0.0071
    2MOL0     C  195   8.690   7.473   7.829  0.8038 -0.4505 -0.2855
    2MOL0     C  196   8.767   7.447   7.732  0.0179 -1.1532 -0.5815
    2MOL0     C  197   8.234   7.288   7.848 -0.2849 -0.4481 -0.5725
    2MOL0     C  198   8.097   7.300   7.839 -0.5509 -0.1179  0.5054
    2MOL0     H  199   7.729   7.567   7.816 -0.9344 -0.5123 -0.3767
    2MOL0     H  200   7.483   7.632   7.803  0.4426 -0.0814  1.9923
    2MOL0     H  201   7.263   7.610   7.904 -0.6371  0.1726  1.4082
    2MOL0     H  202   7.218   7.454   7.967  0.2402 -0.5107 -0.0826
    2MOL0     H  203   7.033   7.450   7.784  3.9184 -1.3790  0.8193
    2MOL0     H  204   7.091   7.600   7.725 -1.8742 -1.9976 -2.5325
    2MOL0     H  205   7.037   7.705   7.938 -1.4273 -1.3950  5.4543
    2MOL0     H  206   6.977   7.548   8.006 -1.8976  0.5434  0.9859
    2MOL0     H  207   6.870   7.708   7.756 -3.2610  0.2923 -0.2079
    2MOL0     H  208   6.803   7.554   7.819 -1.2904  0.4904  0.8116
    2MOL0     H  209   6.821   7.814   7.953  1.9473 -1.1330 -1.1803
    2MOL0     H  210   6.761   7.674   8.037 -0.9194 -0.3584  0.2525
    2MOL0     H  211   6.579   7.667   7.846  0.5742 -0.0702 -1.0506
    2MOL0     H  212   6.653   7.812   7.779 -4.3032  2.7385  0.4184
    2MOL0     H  213   6.539   7.798   8.065 -0.7008  2.2105 -0.6712
    2MOL0     H  214   6.632   7.920   8.003  1.7660 -0.9518 -0.9809
    2MOL0     H  215   6.377   7.834   7.856 -0.2085 -0.5750  0.3097
    2MOL0     H  216   6.470   7.984   7.823  4.6756 -2.4064 -1.1155
    2MOL0     H  217   6.466   8.147   8.094  0.4458 -0.4117  0.7516
    2MOL0     H  218   6.347   8.251   8.290  1.1432 -4.1949  0.3965
    2MOL0     H  219   6.222   8.155   8.367 -2.4292  2.1053  0.9477
    2MOL0     H  220   6.035   8.233   8.200 -1.8549  1.3209 -0.0620
    2MOL0     H  221   6.147   8.349   8.132  1.0015 -0.5007  0.7291
    2MOL0     H  222   6.102   8.326   8.419  2.4870 -1.5647 -1.7002
    2MOL0     H  223   6.187   8.456   8.343  0.0475  0.5445 -0.1477
    2MOL0     H  224   5.932   8.469   8.222  2.1894 -1.7529 -1.2062
    2MOL0     H  225   5.965   8.544   8.375  1.6973  0.1925 -2.1663
    2MOL0     H  226   5.762   8.632   8.307  1.3191 -0.5713  0.9630
    2MOL0     H  227   5.523   8.697   8.324 -0.5552  0.1082  1.2782
    2MOL0     H  228   5.041   8.535   8.296  1.3296 -2.4935  1.0808
    2MOL0     H  229   4.810   8.615   8.357  0.2563  2.4451  0.6577
    2MOL0     H  230   4.630   8.772   8.692 -0.4271  0.5513  1.1542
    2MOL0     H  231   4.797   8.746   8.747  1.1431  0.0360 -1.1225
    2MOL0     H  232   4.707   8.534   8.868  2.8340  0.4420 -3.3471
    2MOL0     H  233   4.551   8.550   8.798  0.0744 -0.1547  0.4489
    2MOL0     H  234   4.563   8.804   8.915 -1.6285 -0.6759 -2.7973
    2MOL0     H  235   4.664   8.716   9.031 -2.8823  0.0156  1.5200
    2MOL0     H  236   4.388   8.614   8.942  1.0962 -2.0578 -0.4979
    2MOL0     H  237   4.486   8.565   9.083 -2.3851 -0.2929  0.7556
    2MOL0     H  238   4.379   8.823   9.033  5.9150 -1.3710 -3.9912
    2MOL0     H  239   4.459   8.788   9.187 -3.1840  2.7026  0.1669
    2MOL0     H  240   4.282   8.595   9.215  0.6896 -1.6715 -1.5997
    2MOL0     H  241   4.199   8.676   9.083  0.8506  1.1774  1.2075
    2MOL0     H  242   4.133   8.694   9.327  1.3750 -2.5100 -1.2760
    2MOL0     H  243   4.275   8.804   9.350  1.4323  0.3664 -1.4749
    2MOL0     H  244   4.207   8.944   9.165  0.1630 -0.5318 -0.1826
    2MOL0     H  245   4.084   8.970   9.281  3.1711 -0.4138  2.7043
    2MOL0     H  246   4.907   8.502   8.763 -1.8271  0.8645 -0.1271
    2MOL0     H  247   5.133   8.449   8.702 -0.3538 -0.6627  0.1323
    2MOL0     H  248   5.433   8.312   8.494 -0.2019  0.8524  1.3760
    2MOL0     H  249   5.672   8.255   8.476  0.7451 -0.1342  1.6454
    2MOL0     H  250   7.376   7.220   7.863 -0.5674  0.3320 -3.1973
    2MOL0     H  251   7.609   7.159   7.891 -1.4177 -0.2994 -0.4037
    2MOL0     H  252   8.041   7.087   8.094  0.2103 -1.8566  0.2184
    2MOL0     H  253   8.276   7.083   8.090 -2.6362 -2.3584  1.2401
    2MOL0     H  254   8.542   7.096   8.057  0.9940  0.7457 -0.6699
    2MOL0     H  255   8.443   7.225   8.132 -1.1184  0.7633 -0.3225
    2MOL0     H  256   8.697   7.244   8.142 -1.3871 -0.7123  0.0778
    2MOL0     H  257   8.696   7.253   7.960 -2.7125 -0.7035 -1.7416
    2MOL0     H  258   8.725   7.483   8.086  0.4956  1.5740 -1.5070
    2MOL0     H  259   8.557   7.456   8.141  0.5948 -0.1832 -0.2300
    2MOL0     H  260   8.499   7.469   7.897 -0.1570  3.2149 -0.7974
    2MOL0     H  261   8.590   7.611   7.955 -0.4404  1.0051 -1.7020
    2MOL0     H  262   8.836   7.420   7.654 -1.7282 -1.2869 -2.1248
    2MOL0     H  263   8.288   7.346   7.774  2.0690  0.5829  1.7951
    2MOL0     H  264   8.058   7.359   7.757  0.1855  0.2376  0.4087
    3MOL0     O  265   4.642   3.290   6.718  0.1842  0.1590  0.0761
    3MOL0     C  266   4.613   3.215   6.814  0.5884  0.5062 -0.1923
    3MOL0     O  267   4.483   3.200   6.874 -0.7236  0.8326 -0.5119
    3MOL0     C  268   4.390   3.292   6.838 -1.1303  0.5496 -0.3034
    3MOL0     C  269   4.268   3.254   6.789 -0.8736 -0.3060 -0.7066
    3MOL0     C  270   4.165   3.341   6.771  0.1442 -0.1448 -0.2492
    3MOL0     C  271   4.191   3.474   6.786  0.7435 -0.3243  0.2019
    3MOL0     O  272   4.076   3.552   6.760 -0.7755  0.5422  0.0564
    3MOL0     C  273   4.096   3.696   6.763 -0.3202  0.0392 -0.6519
    3MOL0     C  274   3.968   3.768   6.717 -0.1848  0.2116 -0.0676
    3MOL0     C  275   3.833   3.716   6.770  0.8478 -0.5467 -0.6815
    3MOL0     C  276   3.731   3.754   6.682 -0.0289 -0.4652  0.6299
    3MOL0     C  277   3.601   3.674   6.720 -0.0320  0.4703 -0.6706
    3MOL0     C  278   3.495   3.708   6.615  0.5736  0.1140 -0.4005
    3MOL0     C  279   3.365   3.629   6.639 -0.3887 -0.8966  0.7156
    3MOL0     C  280   3.264   3.680   6.540  0.2684  0.5529  0.3553
    3MOL0     N  281   3.133   3.613   6.568 -0.4951  0.0599  0.2185
    3MOL0     C  282   3.036   3.652   6.652  0.5054 -0.1143 -0.1308
    3MOL0     C  283   2.931   3.570   6.620 -0.4977  0.5192 -1.1511
    3MOL0     C  284   2.808   3.563   6.709  0.7131  0.3403  0.3571
    3MOL0     C  285   2.814   3.436   6.785  0.0753 -0.1512 -0.8170
    3MOL0     C  286   2.738   3.424   6.927 -0.2742 -0.0512 -1.0960
    3MOL0     C  287   2.594   3.443   6.912  0.4274  0.4041 -0.3606
    3MOL0     O  288   2.536   3.369   6.806 -0.5132 -0.0235  0.4127
    3MOL0     C  289   2.402   3.365   6.794  0.1714  0.1761  0.1821
    3MOL0     C  290   2.350   3.279   6.696  1.4128  0.2512  0.0732
    3MOL0     C  291   2.215   3.284   6.661  0.1951 -0.0191 -0.2689
    3MOL0     C  292   2.125   3.373   6.723 -0.4302  0.4221  0.1390
    3MOL0     C  293   1.980   3.384   6.686  1.6130 -0.5902  0.1971
    3MOL0     O  294   1.923   3.283   6.606  0.0950  0.5956 -0.3635
    3MOL0     C  295   1.806   3.292   6.534 -0.5708 -0.6626  0.3015
    3MOL0     C  296   1.786   3.187   6.445 -0.3426 -0.7655  0.5125
    3MOL0     C  297   1.663   3.165   6.380 -0.9002  0.0391  0.2424
    3MOL0     C  298   1.561   3.255   6.399 -0.3371  0.7368 -0.1413
    3MOL0     O  299   1.443   3.238   6.347  0.1078 -0.2461 -0.4710
    3MOL0     C  300   1.360   3.343   6.292 -0.3988 -0.7445 -0.9642
    3MOL0     C  301   1.344   3.351   6.145 -0.4787  0.0882  0.6711
    3MOL0     C  302   1.268   3.240   6.074 -0.5185 -0.2227  0.3319
    3MOL0     C  303   1.135   3.231   6.130  0.0569  0.1527 -0.2476
    3MOL0     C  304   1.028   3.148   6.050 -0.5629  0.0735  0.1952
    3MOL0     C  305   0.879   3.155   6.104  0.1315  0.5088  0.0664
    3MOL0     C  306   0.805   3.036   6.051 -0.2837 -0.3926 -0.4352
    3MOL0     C  307   0.654   3.048   6.044 -0.4066 -0.1941  0.7671
    3MOL0    Cl  308   0.594   2.912   5.955 -0.0874  0.8632  0.3315
    3MOL0     C  309   1.580   3.357   6.488 -0.5052 -0.9703  0.1130
    3MOL0     C  310   1.698   3.372   6.564 -0.2855 -0.2830  0.3681
    3MOL0     O  311   1.934   3.497   6.700  0.0852 -0.1209  0.5911
    3MOL0     C  312   2.181   3.454   6.822 -0.6122  0.2381  0.0555
    3MOL0     C  313   2.320   3.458   6.856  0.2315  1.0138 -0.1484
    3MOL0     N  314   2.968   3.481   6.521  0.1051 -0.1664 -0.6112
    3MOL0     N  315   3.095   3.501   6.491  0.2293 -0.6906 -0.7917
    3MOL0     C  316   4.313   3.524   6.834  0.0490  0.9842 -1.0077
    3MOL0     C  317   4.412   3.426   6.871 -0.4134  0.4241 -0.4718
    3MOL0     C  318   4.725   3.147   6.885  0.6102 -0.0262 -0.7695
    3MOL0     C  319   4.725   3.132   7.024  0.0192  0.3253  0.2893
    3MOL0     C  320   4.831   3.067   7.099  0.6264  0.1234  0.2925
    3MOL0     C  321   4.936   3.013   7.034 -0.7924 -0.2156 -0.5287
    3MOL0     O  322   5.048   2.954   7.099 -0.0506  0.5018  0.5562
    3MOL0     C  323   5.062   2.965   7.242  0.0323 -0.2723  0.1994
    3MOL0     C  324   5.171   2.884   7.308 -1.3365 -0.0835 -0.9621
    3MOL0     C  325   5.299   2.964   7.274  0.2297  0.3033 -0.2860
    3MOL0     C  326   5.415   2.911   7.356  0.7788 -0.0393  0.6247
    3MOL0     C  327   5.525   3.005   7.344 -1.0470  0.2962 -0.1705
    3MOL0     C  328   5.615   3.088   7.365 -0.9078  0.6348  0.0320
    3MOL0     C  329   4.935   3.026   6.894 -0.4566 -0.2734  0.0247
    3MOL0     C  330   4.834   3.089   6.818 -0.2015  0.0858 -0.4875
    3MOL0     H  331   4.248   3.152   6.761  0.1373  0.1810 -3.5001
    3MOL0     H  332   4.073   3.302   6.729 -0.6508  3.2828 -2.0286
    3MOL0     H  333   4.178   3.719   6.695  1.3821 -3.5625 -0.0390
    3MOL0     H  334   4.126   3.730   6.863 -1.5488  3.2424 -1.2305
    3MOL0     H  335   3.979   3.774   6.608 -0.1845  3.5846  0.0137
    3MOL0     H  336   3.978   3.869   6.758  2.6714 -0.4297  1.0824
    3MOL0     H  337   3.810   3.753   6.870 -0.4772 -2.7656 -0.1043
    3MOL0     H  338   3.832   3.607   6.779  0.7999 -0.4223  0.9910
    3MOL0     H  339   3.704   3.860   6.682  1.4538  0.0502 -2.7398
    3MOL0     H  340   3.764   3.746   6.578  0.6843  1.9791  0.6219
    3MOL0     H  341   3.562   3.708   6.816 -0.4253  0.2528 -0.7507
    3MOL0     H  342   3.615   3.565   6.721  0.2156  0.5003  0.2074
    3MOL0     H  343   3.523   3.695   6.510  2.2811  2.6379 -0.3429
    3MOL0     H  344   3.480   3.816   6.624 -2.6071 -0.1308 -1.3866
    3MOL0     H  345   3.387   3.523   6.621 -3.0199 -1.1403 -1.8942
    3MOL0     H  346   3.320   3.643   6.737  1.2749 -0.4885  1.4459
    3MOL0     H  347   3.299   3.649   6.441 -3.3699  0.1768 -0.9449
    3MOL0     H  348   3.253   3.788   6.533  0.1495  0.6282  1.4277
    3MOL0     H  349   3.045   3.724   6.733  0.0341  0.4288 -0.5519
    3MOL0     H  350   2.714   3.565   6.655  1.3923 -0.0260 -0.8606
    3MOL0     H  351   2.811   3.636   6.792  1.9577  1.8466 -0.9268
    3MOL0     H  352   2.916   3.401   6.804 -0.9424 -1.5242  3.0967
    3MOL0     H  353   2.768   3.367   6.714  0.2110  0.1636 -1.2164
    3MOL0     H  354   2.759   3.325   6.967  0.7127  0.2086 -0.9441
    3MOL0     H  355   2.774   3.488   7.008  1.3147 -2.3552  0.1316
    3MOL0     H  356   2.575   3.550   6.893 -0.1925  0.1989 -0.9484
    3MOL0     H  357   2.545   3.414   7.005  1.7177  0.4208  0.3392
    3MOL0     H  358   2.418   3.216   6.640  2.2881  1.0732  0.1851
    3MOL0     H  359   2.179   3.232   6.572 -0.4857 -0.3226  0.1761
    3MOL0     H  360   1.865   3.115   6.423 -1.9092 -2.3224 -0.3126
    3MOL0     H  361   1.655   3.093   6.298  2.2253  2.3317 -2.3812
    3MOL0     H  362   1.394   3.444   6.319 -1.8393 -0.9050  1.7187
    3MOL0     H  363   1.262   3.342   6.340  1.0125 -1.5010  2.1918
    3MOL0     H  364   1.443   3.359   6.100 -1.0932  0.6296 -0.6303
    3MOL0     H  365   1.303   3.447   6.111  1.2198  0.0078 -1.8066
    3MOL0     H  366   1.328   3.150   6.089 -0.0829 -0.3531 -1.8056
    3MOL0     H  367   1.269   3.269   5.968 -0.3912 -2.6699 -0.3859
    3MOL0     H  368   1.141   3.183   6.228  0.5480  1.1938  0.2455
    3MOL0     H  369   1.085   3.329   6.126  0.7552  0.5323  0.0997
    3MOL0     H  370   1.058   3.043   6.062  1.8552  0.4136 -2.0480
    3MOL0     H  371   1.019   3.169   5.943 -1.4411 -1.7903 -0.1457
    3MOL0     H  372   0.831   3.250   6.078  1.6103  1.0970 -0.6386
    3MOL0     H  373   0.882   3.156   6.213  1.9985  2.9299  0.0860
    3MOL0     H  374   0.843   3.009   5.952 -0.4766  0.9444 -0.8934
    3MOL0     H  375   0.831   2.950   6.114  0.6058  1.1309  1.3436
    3MOL0     H  376   0.619   3.136   5.989 -0.7356  0.0098  1.2917
    3MOL0     H  377   0.609   3.052   6.144 -1.5617  1.6762  0.2278
    3MOL0     H  378   1.505   3.431   6.512  1.4605  0.8601  1.0016
    3MOL0     H  379   1.706   3.462   6.623 -2.6582  1.4534 -1.7069
    3MOL0     H  380   2.118   3.523   6.878 -0.2636 -0.9577  2.0161
    3MOL0     H  381   2.349   3.536   6.926 -1.0917  1.4427 -0.0412
    3MOL0     H  382   4.344   3.625   6.859 -0.1325  0.8367 -0.1442
    3MOL0     H  383   4.498   3.470   6.920 -2.1950  3.1142  0.4585
    3MOL0     H  384   4.640   3.172   7.079 -1.0331  0.9127 -1.6581
    3MOL0     H  385   4.821   3.059   7.206  2.2544  0.4439  0.4922
    3MOL0     H  386   4.965   2.934   7.281 -0.6345 -1.1657 -2.0260
    3MOL0     H  387   5.058   3.073   7.263 -1.2453 -0.3030  0.2100
    3MOL0     H  388   5.167   2.885   7.418  3.0424  2.5743 -0.6101
    3MOL0     H  389   5.187   2.782   7.271  3.1204 -0.0360  0.2217
    3MOL0     H  390   5.285   3.071   7.294  0.5208  0.6484 -1.8029
    3MOL0     H  391   5.324   2.949   7.169 -2.6071 -1.5581 -0.7990
    3MOL0     H  392   5.401   2.904   7.465  3.8468 -4.1536  0.9959
    3MOL0     H  393   5.433   2.809   7.321 -1.0714 -0.3532  0.4640
    3MOL0     H  394   5.685   3.169   7.369 -1.4903  1.1474 -0.2280
    3MOL0     H  395   5.016   2.979   6.839  1.1778  0.5433  1.6328
    3MOL0     H  396   4.844   3.106   6.711  3.1979 -2.5669 -0.7377
    4MOL0     O  397   5.029   4.371   3.695 -0.6384  0.4882  0.3703
    4MOL0     C  398   5.008   4.328   3.806  0.2374 -0.6020  0.2303
    4MOL0     O  399   4.887   4.292   3.862  0.2458  1.0618  0.3536
    4MOL0     C  400   4.780   4.310   3.782  0.1586  0.2468  0.0986
    4MOL0     C  401   4.762   4.431   3.715  0.7357  0.0829  0.6786
    4MOL0     C  402   4.660   4.451   3.622  0.2216  0.0985 -0.0389
    4MOL0     C  403   4.566   4.354   3.602 -0.3356  0.6108  0.2605
    4MOL0     O  404   4.464   4.373   3.512 -0.6108 -0.4154  0.7610
    4MOL0     C  405   4.372   4.272   3.477 -0.0381  0.5768  0.7442
    4MOL0     C  406   4.249   4.324   3.397  0.4014  0.6547  0.1540
    4MOL0     C  407   4.151   4.219   3.349  0.0165  0.4950  0.6672
    4MOL0     C  408   4.020   4.266   3.296 -0.4832 -0.2232 -0.2646
    4MOL0     C  409   3.920   4.149   3.300  0.6102  0.6725 -0.5950
    4MOL0     C  410   3.794   4.204   3.228 -0.1866  0.6899  0.8845
    4MOL0     C  411   3.714   4.295   3.323 -0.0053  0.4347  0.3517
    4MOL0     C  412   3.594   4.360   3.254 -1.1618  0.5167  0.1955
    4MOL0     N  413   3.509   4.255   3.191  0.5845  0.3794  0.7613
    4MOL0     C  414   3.392   4.197   3.246  0.4790  0.1510  0.0126
    4MOL0     C  415   3.340   4.121   3.149  0.0621  0.5299 -0.1038
    4MOL0     C  416   3.209   4.039   3.129  0.5677  0.3371  0.1442
    4MOL0     C  417   3.096   4.092   3.218 -0.7249 -0.4495  0.2835
    4MOL0     C  418   2.974   3.996   3.204 -0.8639  0.3978  0.4620
    4MOL0     C  419   2.847   4.075   3.219 -0.0569 -0.1320 -0.1053
    4MOL0     O  420   2.746   3.981   3.207  0.1519 -0.2783  0.8060
    4MOL0     C  421   2.618   4.009   3.225  0.1996 -0.2466 -0.2134
    4MOL0     C  422   2.568   4.131   3.276 -0.5491  0.0627  0.3928
    4MOL0     C  423   2.437   4.141   3.330  0.1084 -0.3633 -0.4152
    4MOL0     C  424   2.344   4.032   3.321  0.2980  0.4618  0.0688
    4MOL0     C  425   2.204   4.050   3.359 -0.5268 -1.1267  0.4646
    4MOL0     O  426   2.118   3.947   3.352  0.1328 -0.2101  0.5004
    4MOL0     C  427   1.985   3.950   3.390 -0.8593 -0.2193  0.1039
    4MOL0     C  428   1.911   3.850   3.335 -0.6915  0.9653 -0.0570
    4MOL0     C  429   1.770   3.838   3.352 -0.7252  0.4740 -0.1510
    4MOL0     C  430   1.706   3.925   3.434 -0.1251  0.0592 -0.6899
    4MOL0     O  431   1.572   3.911   3.448 -0.0070 -0.0179 -0.0725
    4MOL0     C  432   1.504   3.934   3.572  0.4144  0.6550 -1.0230
    4MOL0     C  433   1.367   3.854   3.575 -0.1971  0.7040  0.2000
    4MOL0     C  434   1.263   3.889   3.473  0.0154  0.1334  0.8550
    4MOL0     C  435   1.132   3.811   3.495 -0.4190  0.6381 -0.2768
    4MOL0     C  436   1.014   3.859   3.410  0.7205  0.1295  0.2385
    4MOL0     C  437   0.889   3.775   3.449 -0.6346 -0.3501 -0.2646
    4MOL0     C  438   0.764   3.829   3.379  0.2745  0.0278  0.0268
    4MOL0     C  439   0.639   3.761   3.442 -0.3611  0.5379 -0.6876
    4MOL0    Cl  440   0.501   3.790   3.336 -0.0433  0.0667 -0.1622
    4MOL0     C  441   1.779   4.040   3.483  0.4972  0.5363  0.2034
    4MOL0     C  442   1.915   4.046   3.462  0.3469  0.4010  0.0034
    4MOL0     O  443   2.175   4.169   3.377  0.1773  0.4000 -0.5301
    4MOL0     C  444   2.391   3.909   3.272 -0.0384  0.4791  0.7330
    4MOL0     C  445   2.524   3.900   3.230  0.0940  0.3889  0.0830
    4MOL0     N  446   3.417   4.138   3.040  0.6995  0.2856  0.5903
    4MOL0     N  447   3.523   4.213   3.062  1.0289 -0.9306  0.6116
    4MOL0     C  448   4.574   4.243   3.680  0.4306 -1.2950 -0.3193
    4MOL0     C  449   4.671   4.222   3.780  0.0999 -0.8768  0.5079
    4MOL0     C  450   5.124   4.319   3.898 -1.3845 -0.3754  0.9891
    4MOL0     C  451   5.113   4.270   4.032  0.6228  0.0794 -0.1549
    4MOL0     C  452   5.225   4.266   4.116  0.2936  0.0919 -0.4641
    4MOL0     C  453   5.343   4.311   4.070  0.1938  0.0336 -0.0971
    4MOL0     O  454   5.453   4.308   4.149 -0.7467  0.5280 -0.1217
    4MOL0     C  455   5.440   4.363   4.281  0.4964  0.3273 -0.8039
    4MOL0     C  456   5.577   4.412   4.323  0.3764 -0.1546  0.2801
    4MOL0     C  457   5.634   4.517   4.222 -0.4737  0.7533  0.0159
    4MOL0     C  458   5.784   4.511   4.213 -0.1845  0.0690  0.1804
    4MOL0     C  459   5.837   4.597   4.104 -0.4116  1.4894  0.0527
    4MOL0     C  460   5.863   4.667   4.009  0.0923  0.0208  0.1520
    4MOL0     C  461   5.360   4.358   3.942 -0.4578  0.0445 -0.5508
    4MOL0     C  462   5.253   4.364   3.858 -0.1067  0.0421 -0.1498
    4MOL0     H  463   4.834   4.510   3.731  0.1702  0.3374  2.0586
    4MOL0     H  464   4.643   4.548   3.577 -0.5171 -0.7300 -1.6633
    4MOL0     H  465   4.336   4.201   3.552 -0.4229 -1.2466 -1.0518
    4MOL0     H  466   4.434   4.220   3.403  1.2905  0.2510  2.0540
    4MOL0     H  467   4.288   4.385   3.315 -1.2284  0.9250 -0.4639
    4MOL0     H  468   4.188   4.391   3.458  0.1180  1.2079 -0.7269
    4MOL0     H  469   4.132   4.152   3.434 -0.3610 -0.0569  0.1550
    4MOL0     H  470   4.202   4.164   3.269  1.4363 -0.1468  1.9509
    4MOL0     H  471   3.994   4.354   3.355 -0.3608  0.5277 -1.3094
    4MOL0     H  472   4.040   4.295   3.193  2.2241 -0.5889  0.0779
    4MOL0     H  473   3.892   4.128   3.403  1.6234  0.5635 -0.3287
    4MOL0     H  474   3.959   4.060   3.250 -0.4784  0.9056 -1.9337
    4MOL0     H  475   3.732   4.118   3.199  0.3958  0.0217  1.5692
    4MOL0     H  476   3.832   4.262   3.143  2.7875  1.1314  2.3559
    4MOL0     H  477   3.683   4.243   3.414 -1.2759  2.4140  1.1281
    4MOL0     H  478   3.769   4.382   3.361 -1.8935  0.6035  3.0018
    4MOL0     H  479   3.627   4.423   3.171 -0.4135 -2.3129 -1.8322
    4MOL0     H  480   3.546   4.424   3.328 -0.2896  1.1197  0.2543
    4MOL0     H  481   3.333   4.222   3.334 -1.4546  0.6366 -1.3446
    4MOL0     H  482   3.227   3.935   3.158 -2.1892  0.1066  1.4366
    4MOL0     H  483   3.183   4.050   3.024 -2.5088 -0.6658  0.6940
    4MOL0     H  484   3.069   4.196   3.200 -2.5457 -1.0406 -0.7611
    4MOL0     H  485   3.130   4.100   3.321  0.3229  0.8281 -0.1360
    4MOL0     H  486   2.984   3.955   3.103  6.0278  4.1275 -1.0027
    4MOL0     H  487   2.982   3.929   3.290  0.3972  0.7757  0.6549
    4MOL0     H  488   2.836   4.142   3.134  0.7468  0.7295  0.4481
    4MOL0     H  489   2.834   4.120   3.318 -0.2382  1.0526 -0.6613
    4MOL0     H  490   2.635   4.216   3.276  1.1207 -1.2079  0.4703
    4MOL0     H  491   2.405   4.237   3.370 -0.6057 -1.3209  1.4017
    4MOL0     H  492   1.942   3.775   3.263 -3.8367  0.7242 -1.3245
    4MOL0     H  493   1.715   3.752   3.313 -3.2860  1.8417  0.2187
    4MOL0     H  494   1.480   4.039   3.588 -1.7970 -0.2545  3.0237
    4MOL0     H  495   1.565   3.902   3.657 -3.1643 -0.0087  1.5023
    4MOL0     H  496   1.338   3.851   3.681  1.5128 -3.2528  0.7261
    4MOL0     H  497   1.393   3.750   3.552  0.9135  1.0860 -0.3262
    4MOL0     H  498   1.296   3.863   3.372  0.5060  2.8748  0.2281
    4MOL0     H  499   1.245   3.996   3.471 -0.3900  0.0593 -0.5840
    4MOL0     H  500   1.149   3.704   3.485 -2.6796  0.0217  1.6384
    4MOL0     H  501   1.102   3.823   3.600 -3.5933 -1.5090 -0.7923
    4MOL0     H  502   1.030   3.854   3.302  0.5946 -0.4084  0.2395
    4MOL0     H  503   0.986   3.958   3.444 -3.1280 -1.2669  1.6673
    4MOL0     H  504   0.872   3.789   3.556 -0.3911  1.1336 -0.4012
    4MOL0     H  505   0.911   3.670   3.429 -0.2802 -0.6128  1.3455
    4MOL0     H  506   0.745   3.936   3.386 -2.0763  0.0279 -3.5525
    4MOL0     H  507   0.768   3.800   3.273  0.7262 -4.8220  1.1246
    4MOL0     H  508   0.621   3.790   3.546  3.9249 -2.9190  1.3623
    4MOL0     H  509   0.655   3.654   3.430 -2.5817  0.2778 -1.6763
    4MOL0     H  510   1.725   4.120   3.532 -2.0252 -2.0662  2.0198
    4MOL0     H  511   1.957   4.137   3.502 -0.6813  0.6739  0.5157
    4MOL0     H  512   2.329   3.821   3.253  2.6133 -1.0605 -1.6197
    4MOL0     H  513   2.570   3.814   3.181 -0.3679  1.4425 -2.3583
    4MOL0     H  514   4.505   4.159   3.676  0.3826 -1.5524  2.9808
    4MOL0     H  515   4.683   4.136   3.844  1.7933  0.3347  1.9226
    4MOL0     H  516   5.020   4.231   4.072  1.4626 -2.2628 -0.3441
    4MOL0     H  517   5.217   4.246   4.222  2.6389  0.3360 -0.1983
    4MOL0     H  518   5.417   4.290   4.358  1.1052  1.0228  0.0477
    4MOL0     H  519   5.369   4.447   4.281  1.2028  0.9326 -1.1506
    4MOL0     H  520   5.561   4.471   4.414  1.8557  0.8720 -0.0899
    4MOL0     H  521   5.647   4.330   4.340  1.0172  0.2079 -0.5594
    4MOL0     H  522   5.605   4.616   4.256 -1.4612  1.6267 -3.0513
    4MOL0     H  523   5.605   4.503   4.117  0.1326 -2.9739  0.1872
    4MOL0     H  524   5.831   4.542   4.307  0.4839 -1.3657  0.3512
    4MOL0     H  525   5.815   4.409   4.187 -0.2896 -0.4404  1.9306
    4MOL0     H  526   5.898   4.731   3.931 -0.0077  0.2734  0.3137
    4MOL0     H  527   5.458   4.386   3.905 -1.0717  0.7828 -1.6762
    4MOL0     H  528   5.255   4.414   3.762  0.2461 -1.8296 -1.1662
    5MOL0     O  529   3.118   0.460   9.032 -0.7396  0.0048  0.4731
    5MOL0     C  530   3.189   0.557   8.992 -0.7268  0.1255  0.0567
    5MOL0     O  531   3.155   0.663   8.917  0.7341 -0.6246 -0.0148
    5MOL0     C  532   3.031   0.679   8.856 -0.2282 -0.6251 -0.2589
    5MOL0     C  533   2.985   0.815   8.868  0.2791  0.1721  0.2150
    5MOL0     C  534   2.854   0.840   8.829 -1.0615  0.4259 -0.5969
    5MOL0     C  535   2.786   0.747   8.753 -0.1900 -0.0675 -1.0897
    5MOL0     O  536   2.667   0.783   8.700 -1.1415 -0.4379 -0.1276
    5MOL0     C  537   2.553   0.731   8.772 -0.0622  0.0800  1.1705
    5MOL0     C  538   2.474   0.677   8.666  0.1152  1.1987 -0.2535
    5MOL0     C  539   2.326   0.691   8.686 -0.2254  0.4256  0.6951
    5MOL0     C  540   2.250   0.653   8.563 -0.2805  0.1232 -0.7297
    5MOL0     C  541   2.094   0.651   8.574 -0.3888  0.6777  0.7027
    5MOL0     C  542   2.027   0.536   8.654 -0.8702  1.0535  0.6706
    5MOL0     C  543   1.868   0.538   8.648  0.1589 -0.3041  0.1574
    5MOL0     C  544   1.804   0.472   8.528  0.0956 -0.1000  0.5027
    5MOL0     N  545   1.657   0.500   8.521  0.1141  0.7618  0.8425
    5MOL0     C  546   1.595   0.616   8.552  0.8400  0.4412 -0.0500
    5MOL0     C  547   1.466   0.579   8.553  0.2453 -0.0441 -0.4027
    5MOL0     C  548   1.356   0.672   8.558  0.3491 -0.0562 -0.9132
    5MOL0     C  549   1.240   0.637   8.453  0.4081  0.3480  0.4171
    5MOL0     C  550   1.266   0.668   8.309  0.2023  0.2023 -0.6307
    5MOL0     C  551   1.155   0.619   8.209  0.0890  0.3968 -1.0105
    5MOL0     O  552   1.050   0.712   8.210  0.2952 -0.2242 -0.3397
    5MOL0     C  553   0.938   0.674   8.141  0.6977 -0.8943 -0.3833
    5MOL0     C  554   0.823   0.715   8.200  0.2514 -1.0430  0.5281
    5MOL0     C  555   0.700   0.683   8.129  0.0024  0.7214 -0.9637
    5MOL0     C  556   0.701   0.606   8.007  0.6039 -0.5941 -0.4168
    5MOL0     C  557   0.576   0.563   7.945  0.3994  0.1312  0.5953
    5MOL0     O  558   0.576   0.520   7.816  0.2003  0.0440  0.0527
    5MOL0     C  559   0.458   0.468   7.772 -0.6368 -0.0016 -0.8539
    5MOL0     C  560   0.409   0.348   7.827 -0.8523 -0.9854 -1.1164
    5MOL0     C  561   0.304   0.284   7.767  0.4795 -1.0998  0.1625
    5MOL0     C  562   0.238   0.346   7.659 -0.5363 -0.3047  1.0998
    5MOL0     O  563   0.136   0.279   7.600 -0.3320 -0.0853 -0.1595
    5MOL0     C  564   0.110   0.283   7.456 -0.5046 -0.9817  0.1853
    5MOL0     C  565  -0.011   0.217   7.409  0.4294  0.0964 -0.8134
    5MOL0     C  566  -0.083   0.287   7.298  0.2586 -0.4207 -0.3939
    5MOL0     C  567  -0.203   0.196   7.263  0.0391 -0.2284  0.3684
    5MOL0     C  568  -0.278   0.262   7.142  0.0342  0.0773 -0.1910
    5MOL0     C  569  -0.428   0.227   7.131 -0.2721 -0.0535  0.0450
    5MOL0     C  570  -0.501   0.272   7.006 -0.8422 -0.2519  0.0054
    5MOL0     C  571  -0.466   0.413   6.952  0.6818  0.6175 -0.1671
    5MOL0    Cl  572  -0.474   0.535   7.081  0.3350  0.3740 -0.1736
    5MOL0     C  573   0.284   0.464   7.612 -0.5017  0.4119 -0.2452
    5MOL0     C  574   0.384   0.533   7.671 -0.8256 -0.2352 -0.7206
    5MOL0     O  575   0.484   0.547   8.030  0.2277  0.1824 -0.6880
    5MOL0     C  576   0.827   0.575   7.953  0.5610 -0.4220  0.1356
    5MOL0     C  577   0.942   0.609   8.021  0.4909  0.0834  0.7185
    5MOL0     N  578   1.455   0.441   8.525  0.0722 -0.6396  0.2441
    5MOL0     N  579   1.568   0.398   8.497  0.0527  1.0134  0.4178
    5MOL0     C  580   2.833   0.611   8.742 -0.9697 -0.4139 -0.3027
    5MOL0     C  581   2.955   0.583   8.790 -0.3125  0.0498  0.3796
    5MOL0     C  582   3.337   0.540   9.016  0.3365  0.6183 -0.0576
    5MOL0     C  583   3.395   0.442   9.104 -0.1633  0.5359 -0.2964
    5MOL0     C  584   3.529   0.421   9.122 -0.5164 -0.4298  0.1593
    5MOL0     C  585   3.622   0.494   9.042  0.0843  0.6745 -1.1460
    5MOL0     O  586   3.759   0.467   9.068 -0.4742 -0.7141 -0.1053
    5MOL0     C  587   3.800   0.394   9.178  0.5505 -0.4440 -0.1826
    5MOL0     C  588   3.945   0.430   9.209 -0.3437  0.1817  0.3263
    5MOL0     C  589   4.039   0.415   9.091 -0.1682 -0.5256  0.9178
    5MOL0     C  590   4.194   0.423   9.110 -0.1393 -0.5560 -0.4595
    5MOL0     C  591   4.242   0.559   9.133 -0.3877 -0.4015 -0.6578
    5MOL0     C  592   4.288   0.672   9.138 -0.8581 -0.1406  0.2233
    5MOL0     C  593   3.574   0.576   8.945  0.8460  0.3832  1.1737
    5MOL0     C  594   3.429   0.597   8.933  0.0276  0.4875 -0.2204
    5MOL0     H  595   3.044   0.891   8.919  0.1715 -0.1440  0.8200
    5MOL0     H  596   2.815   0.942   8.832 -2.8318 -0.2430  1.0930
    5MOL0     H  597   2.502   0.809   8.830  0.3105  1.3848 -0.1991
    5MOL0     H  598   2.592   0.649   8.833  2.2961 -1.9772 -2.7391
    5MOL0     H  599   2.501   0.573   8.646 -0.5818  0.9175  0.2275
    5MOL0     H  600   2.482   0.745   8.580 -2.0484  1.6342 -0.1665
    5MOL0     H  601   2.297   0.795   8.708 -0.3502  1.1923 -2.5051
    5MOL0     H  602   2.301   0.623   8.767 -1.9217  1.8901  1.4590
    5MOL0     H  603   2.279   0.725   8.486  0.9977 -0.3917 -0.7539
    5MOL0     H  604   2.286   0.553   8.536 -0.5906 -0.2943  0.3420
    5MOL0     H  605   2.051   0.655   8.474 -2.2502  1.9584  1.4872
    5MOL0     H  606   2.061   0.748   8.613  0.1082  1.1416  0.0144
    5MOL0     H  607   2.055   0.546   8.759 -3.6673  3.5269  1.3315
    5MOL0     H  608   2.058   0.439   8.614 -3.5125 -0.0070  0.9755
    5MOL0     H  609   1.834   0.488   8.740  2.8637 -0.7687  0.9959
    5MOL0     H  610   1.840   0.643   8.656  2.3695  0.3244  0.4806
    5MOL0     H  611   1.822   0.364   8.523  0.5131 -0.0159  0.2017
    5MOL0     H  612   1.848   0.510   8.436  4.2199 -1.6088  1.6201
    5MOL0     H  613   1.629   0.719   8.552 -0.7299  0.9914 -0.4734
    5MOL0     H  614   1.387   0.775   8.538 -1.1788  0.0079 -3.4448
    5MOL0     H  615   1.304   0.655   8.653 -0.0442 -0.1927 -1.1512
    5MOL0     H  616   1.146   0.684   8.484  0.7060  1.6478 -0.5861
    5MOL0     H  617   1.220   0.529   8.463 -0.6173  0.4674 -0.2048
    5MOL0     H  618   1.283   0.775   8.300  2.5758 -0.0987 -0.6191
    5MOL0     H  619   1.363   0.625   8.282  0.0491 -0.0071 -0.8540
    5MOL0     H  620   1.122   0.518   8.234  1.5253 -0.7145 -3.1819
    5MOL0     H  621   1.204   0.629   8.111  2.2690  3.6133  0.2203
    5MOL0     H  622   0.815   0.778   8.288 -0.5139  1.4329 -1.2133
    5MOL0     H  623   0.602   0.711   8.166  1.1482  1.8765  1.3736
    5MOL0     H  624   0.460   0.291   7.904 -1.4331 -3.2240 -2.2993
    5MOL0     H  625   0.268   0.192   7.814 -0.1608  0.5606  3.1782
    5MOL0     H  626   0.199   0.236   7.414  0.8418  1.0155  0.6408
    5MOL0     H  627   0.114   0.384   7.415  2.2155 -0.1966  2.0511
    5MOL0     H  628  -0.079   0.219   7.495  0.5758  0.8023 -0.7010
    5MOL0     H  629   0.005   0.111   7.387  0.2599 -0.6547  2.1608
    5MOL0     H  630  -0.012   0.299   7.216 -0.6051  0.1457 -1.0734
    5MOL0     H  631  -0.119   0.386   7.328 -1.8364 -1.2950  0.1855
    5MOL0     H  632  -0.163   0.100   7.228  1.1563 -0.2966  1.7554
    5MOL0     H  633  -0.268   0.177   7.349 -1.1934  0.5509 -0.3508
    5MOL0     H  634  -0.231   0.228   7.049 -1.5706 -0.0293 -0.9927
    5MOL0     H  635  -0.278   0.370   7.159 -4.5663  0.2436  0.1130
    5MOL0     H  636  -0.477   0.260   7.224 -1.1647  1.2671 -0.8480
    5MOL0     H  637  -0.435   0.118   7.129 -1.3816 -0.0128  0.5545
    5MOL0     H  638  -0.481   0.198   6.928 -0.1200 -3.8150  3.2963
    5MOL0     H  639  -0.610   0.272   7.018 -0.9932  2.2434 -0.8180
    5MOL0     H  640  -0.533   0.437   6.869 -0.2133 -0.1680  0.3201
    5MOL0     H  641  -0.362   0.425   6.917  0.3039 -1.4092 -2.2218
    5MOL0     H  642   0.243   0.497   7.518 -0.1626 -0.4790 -0.7190
    5MOL0     H  643   0.420   0.624   7.625  1.1472  0.2696  1.5786
    5MOL0     H  644   0.844   0.527   7.857  2.0032  1.3000 -0.5358
    5MOL0     H  645   1.036   0.594   7.968 -0.2302  1.1938 -0.9443
    5MOL0     H  646   2.777   0.525   8.707 -2.4526  0.3430  0.1080
    5MOL0     H  647   2.991   0.480   8.790 -1.6972 -0.5364  3.1846
    5MOL0     H  648   3.324   0.375   9.152 -0.7015  0.8884 -0.5903
    5MOL0     H  649   3.564   0.340   9.186 -1.3244 -0.8536  0.0689
    5MOL0     H  650   3.784   0.288   9.153 -3.9289 -0.1265  0.5560
    5MOL0     H  651   3.745   0.413   9.270 -1.2952 -0.1653 -1.3019
    5MOL0     H  652   3.959   0.535   9.234 -2.5728  1.1664 -2.1095
    5MOL0     H  653   3.988   0.368   9.288  2.0238  2.5098  0.9990
    5MOL0     H  654   4.020   0.488   9.012  0.9561 -1.5327 -0.3315
    5MOL0     H  655   4.021   0.316   9.048  1.5107 -0.7776  0.7211
    5MOL0     H  656   4.225   0.359   9.193 -2.2201  1.3238  1.9287
    5MOL0     H  657   4.237   0.379   9.019 -0.8907 -0.9091 -0.6578
    5MOL0     H  658   4.330   0.769   9.125  1.1282 -1.0998 -1.1430
    5MOL0     H  659   3.646   0.625   8.881 -0.8628 -0.0195 -1.1911
    5MOL0     H  660   3.394   0.657   8.850  4.7398  4.6191  0.2990
    6MOL0     O  661   3.777   3.094   2.409 -0.1648 -0.1722 -0.1627
    6MOL0     C  662   3.749   3.124   2.292  0.8798 -0.1687  0.1259
    6MOL0     O  663   3.833   3.118   2.186 -0.4000  0.4438  0.0089
    6MOL0     C  664   3.963   3.078   2.210 -0.5018 -0.5190  0.7625
    6MOL0     C  665   4.008   2.961   2.153 -0.4047 -0.1509  0.2448
    6MOL0     C  666   4.141   2.922   2.168  0.4950 -0.5301  0.3058
    6MOL0     C  667   4.227   2.990   2.249  0.0534  0.4305 -0.6667
    6MOL0     O  668   4.358   2.948   2.262  0.0302  0.1121 -0.3980
    6MOL0     C  669   4.456   3.036   2.311  0.0568  0.6481 -0.1374
    6MOL0     C  670   4.592   2.983   2.276 -0.8623  0.2830  0.0531
    6MOL0     C  671   4.629   2.862   2.362  0.3003  0.0453  1.6160
    6MOL0     C  672   4.778   2.834   2.347 -0.3553  0.3075 -0.8171
    6MOL0     C  673   4.823   2.717   2.438  0.7590 -0.0980  0.9497
    6MOL0     C  674   4.778   2.580   2.395 -0.1748 -0.2717  0.8423
    6MOL0     C  675   4.833   2.470   2.481 -0.2160 -0.0792  0.3204
    6MOL0     C  676   4.751   2.343   2.455 -0.1724  0.5164 -0.4613
    6MOL0     N  677   4.599   2.343   2.479  0.6060  0.1821  0.0474
    6MOL0     C  678   4.529   2.422   2.570 -0.4974  0.6749  0.3284
    6MOL0     C  679   4.397   2.408   2.534  0.7191  0.2871 -0.5791
    6MOL0     C  680   4.281   2.474   2.603 -0.1447 -0.1585  0.3146
    6MOL0     C  681   4.279   2.639   2.598 -0.7066 -0.0664  0.5468
    6MOL0     C  682   4.215   2.709   2.717 -0.8741  0.0506 -0.7758
    6MOL0     C  683   4.069   2.687   2.725  0.0973  0.4062 -0.6150
    6MOL0     O  684   4.005   2.724   2.599 -0.1423 -0.3913 -0.1788
    6MOL0     C  685   3.867   2.733   2.593  0.4188  0.4706  0.1796
    6MOL0     C  686   3.776   2.727   2.696  0.3237 -0.3512 -0.5768
    6MOL0     C  687   3.644   2.731   2.669  0.6084  0.1238 -0.4809
    6MOL0     C  688   3.590   2.747   2.539  0.5194 -0.2306  0.4252
    6MOL0     C  689   3.440   2.758   2.524  0.1531  0.3580 -0.4634
    6MOL0     O  690   3.370   2.752   2.637 -0.7045 -0.8361 -0.0436
    6MOL0     C  691   3.236   2.771   2.623 -0.1664 -0.6002 -0.0905
    6MOL0     C  692   3.143   2.671   2.660 -0.1535 -0.1891  0.3532
    6MOL0     C  693   3.005   2.697   2.642  1.0607  0.4383 -0.1928
    6MOL0     C  694   2.960   2.818   2.601 -0.2702  0.6792 -0.0793
    6MOL0     O  695   2.828   2.860   2.608  0.5039  0.0832  0.1737
    6MOL0     C  696   2.724   2.767   2.640  0.0400  0.7913 -0.1141
    6MOL0     C  697   2.661   2.723   2.504 -0.1865 -0.0748 -0.4768
    6MOL0     C  698   2.525   2.661   2.506  0.5473 -0.3561  0.0429
    6MOL0     C  699   2.467   2.639   2.365 -0.3279 -1.0561  0.2523
    6MOL0     C  700   2.310   2.649   2.350 -0.4332  0.4010  0.0081
    6MOL0     C  701   2.236   2.747   2.434  0.3585  0.7446  0.1553
    6MOL0     C  702   2.282   2.892   2.424  0.4765 -0.7055  0.5973
    6MOL0     C  703   2.158   2.987   2.407 -0.3560 -0.6222  0.6975
    6MOL0    Cl  704   2.185   3.159   2.412  0.2958  0.3400 -0.3788
    6MOL0     C  705   3.051   2.925   2.576  0.8635  0.5355  0.7868
    6MOL0     C  706   3.191   2.899   2.594  0.4066 -0.1805  0.5690
    6MOL0     O  707   3.390   2.766   2.413 -0.0676  0.5688  0.1081
    6MOL0     C  708   3.675   2.743   2.430 -0.6482 -0.4829 -0.1958
    6MOL0     C  709   3.812   2.738   2.463 -0.7229  0.7323  0.0201
    6MOL0     N  710   4.383   2.328   2.422 -0.4464  0.5112  0.7014
    6MOL0     N  711   4.508   2.289   2.396  0.4311 -0.8647  0.5359
    6MOL0     C  712   4.178   3.108   2.316 -0.0274 -0.1039 -0.8057
    6MOL0     C  713   4.050   3.159   2.295  0.1179  0.6116 -0.0722
    6MOL0     C  714   3.611   3.163   2.267  0.1697 -1.0310  0.1482
    6MOL0     C  715   3.575   3.228   2.147 -0.0055  0.3252 -1.0843
    6MOL0     C  716   3.445   3.266   2.126 -0.5581  0.1997 -0.3687
    6MOL0     C  717   3.351   3.253   2.220 -0.3800  1.5079  0.4533
    6MOL0     O  718   3.229   3.304   2.203 -0.0753  0.0999 -0.3260
    6MOL0     C  719   3.125   3.207   2.205 -0.5372 -0.3305  0.1071
    6MOL0     C  720   3.044   3.204   2.070  0.1433 -0.4099  0.3021
    6MOL0     C  721   2.923   3.110   2.079  0.6673  0.2214  0.6293
    6MOL0     C  722   2.853   3.067   1.944 -0.0939 -0.6973  0.6251
    6MOL0     C  723   2.794   3.185   1.871  0.2957  0.3974  0.2422
    6MOL0     C  724   2.746   3.279   1.810 -0.6159 -0.7354 -0.0144
    6MOL0     C  725   3.378   3.193   2.334 -0.2376  0.3636 -1.0189
    6MOL0     C  726   3.507   3.149   2.364 -0.2562  0.3756  0.1767
    6MOL0     H  727   3.949   2.896   2.089  1.4017  1.3011 -3.1379
    6MOL0     H  728   4.179   2.830   2.126  2.0790 -1.1919  2.9221
    6MOL0     H  729   4.441   3.040   2.419  0.9104  0.0473  0.0184
    6MOL0     H  730   4.446   3.137   2.269 -1.0675 -0.3332 -2.3854
    6MOL0     H  731   4.660   3.065   2.300 -1.0421  0.1988  0.9139
    6MOL0     H  732   4.595   2.953   2.171  1.0462  2.3949 -0.5703
    6MOL0     H  733   4.573   2.779   2.319  0.5811  0.9899 -0.6760
    6MOL0     H  734   4.591   2.876   2.464  0.5463  0.5494  1.6430
    6MOL0     H  735   4.803   2.808   2.244  0.4135 -0.0620 -0.5513
    6MOL0     H  736   4.832   2.925   2.373 -1.5956  1.0095 -0.6593
    6MOL0     H  737   4.805   2.740   2.543  0.5654  2.0320  0.4879
    6MOL0     H  738   4.931   2.733   2.441  0.6500  0.6058  1.3049
    6MOL0     H  739   4.798   2.562   2.289 -4.6957  0.4902 -0.3314
    6MOL0     H  740   4.669   2.579   2.397 -0.2056  0.0519 -0.2643
    6MOL0     H  741   4.940   2.454   2.466 -0.6246 -2.6314 -0.3961
    6MOL0     H  742   4.815   2.495   2.586 -0.7756 -1.4169  0.5589
    6MOL0     H  743   4.787   2.269   2.527 -1.7416  0.9255  0.8082
    6MOL0     H  744   4.769   2.313   2.352 -0.6411  0.9928 -0.6841
    6MOL0     H  745   4.561   2.485   2.652  1.4485 -0.1283  0.2262
    6MOL0     H  746   4.277   2.459   2.711  3.7772  0.6847  0.7166
    6MOL0     H  747   4.184   2.449   2.557  0.3804  1.5165 -1.8954
    6MOL0     H  748   4.225   2.670   2.507 -0.2749 -0.8034  0.0265
    6MOL0     H  749   4.383   2.668   2.585 -0.2931 -0.4622  2.7245
    6MOL0     H  750   4.254   2.673   2.812  2.3301 -0.5361 -2.2156
    6MOL0     H  751   4.237   2.816   2.706  0.4604 -0.2332 -0.9559
    6MOL0     H  752   4.032   2.733   2.817  0.4966 -1.6156  0.6009
    6MOL0     H  753   4.056   2.579   2.734 -1.2666  0.0685 -4.6019
    6MOL0     H  754   3.815   2.715   2.797  1.9177  1.1670 -0.9642
    6MOL0     H  755   3.577   2.720   2.754  0.4307  0.4681 -0.5737
    6MOL0     H  756   3.178   2.574   2.691 -0.8205 -0.8758 -0.9497
    6MOL0     H  757   2.935   2.618   2.670  2.9319 -1.1817  0.1380
    6MOL0     H  758   2.652   2.819   2.704 -0.4034 -0.6590  0.6059
    6MOL0     H  759   2.766   2.680   2.692  0.3052 -0.1851 -1.8539
    6MOL0     H  760   2.727   2.643   2.469  0.2710 -0.1894  0.6064
    6MOL0     H  761   2.655   2.799   2.425  1.1089  0.0272 -0.4941
    6MOL0     H  762   2.462   2.707   2.582  0.8836 -3.2576  2.2773
    6MOL0     H  763   2.543   2.566   2.557  0.2427  0.0510  0.9225
    6MOL0     H  764   2.508   2.707   2.290 -1.8129 -1.2062 -0.7505
    6MOL0     H  765   2.500   2.541   2.329  1.4509  0.2245 -1.8558
    6MOL0     H  766   2.264   2.551   2.364 -2.0999  0.3356 -4.3468
    6MOL0     H  767   2.301   2.684   2.246  2.2701 -0.2689 -0.5333
    6MOL0     H  768   2.243   2.725   2.541 -2.2048  0.9267  0.4331
    6MOL0     H  769   2.127   2.738   2.421 -0.0437  1.8273  2.2502
    6MOL0     H  770   2.338   2.924   2.513 -0.7142  0.1239  1.0775
    6MOL0     H  771   2.351   2.894   2.339  0.5936 -4.8115  0.3834
    6MOL0     H  772   2.088   2.967   2.488 -2.0786  1.6394 -0.1168
    6MOL0     H  773   2.117   2.968   2.307  1.0257 -0.5285  0.0882
    6MOL0     H  774   3.028   3.028   2.553  3.3020  0.7884 -1.0257
    6MOL0     H  775   3.254   2.985   2.574 -1.9568  1.7173  0.8266
    6MOL0     H  776   3.640   2.750   2.327  1.4654 -1.8871 -1.0849
    6MOL0     H  777   3.887   2.730   2.385 -1.1418  0.2403 -0.3403
    6MOL0     H  778   4.249   3.167   2.371  0.5639 -0.7536 -0.8555
    6MOL0     H  779   4.014   3.236   2.362 -1.2470 -1.8375  2.1921
    6MOL0     H  780   3.655   3.255   2.080  2.5721  1.0385  2.0115
    6MOL0     H  781   3.416   3.309   2.031 -0.9504 -2.6178 -1.6104
    6MOL0     H  782   3.055   3.236   2.284 -2.9147 -0.2733 -1.9356
    6MOL0     H  783   3.164   3.106   2.220 -1.4288 -0.8563 -0.9800
    6MOL0     H  784   3.000   3.303   2.054  1.8460  0.4839  0.8029
    6MOL0     H  785   3.113   3.190   1.985  0.5590 -0.5011  0.6527
    6MOL0     H  786   2.848   3.160   2.141  1.2023  1.3484  0.4037
    6MOL0     H  787   2.953   3.019   2.130  0.4660  1.0230  2.2313
    6MOL0     H  788   2.930   3.025   1.879 -1.5258 -0.1506 -1.5274
    6MOL0     H  789   2.772   2.997   1.967 -0.8234  0.8600  3.3279
    6MOL0     H  790   2.700   3.370   1.776  2.7807  0.3546 -2.2372
    6MOL0     H  791   3.300   3.184   2.409  0.5056 -1.3052 -0.3787
    6MOL0     H  792   3.529   3.113   2.464  0.0869  0.0583 -0.0087
    7MOL0     O  793  10.725   5.984  11.027 -0.5660  0.0315 -0.3302
    7MOL0     C  794  10.693   6.040  10.921 -0.2524  0.7177  0.3164
    7MOL0     O  795  10.628   5.981  10.818 -0.1917  0.4407  0.5454
    7MOL0     C  796  10.597   5.842  10.824  0.3119  0.1751 -0.6013
    7MOL0     C  797  10.683   5.749  10.766  0.3104 -0.8788 -0.2399
    7MOL0     C  798  10.657   5.614  10.784 -0.9506 -1.0027 -0.3197
    7MOL0     C  799  10.550   5.572  10.860  0.5123 -0.2263  0.3808
    7MOL0     O  800  10.514   5.443  10.891  0.7077 -0.2724 -0.1557
    7MOL0     C  801  10.578   5.345  10.820 -0.2545  0.4340  0.1208
    7MOL0     C  802  10.543   5.201  10.863  0.5328 -0.7109  0.4360
    7MOL0     C  803  10.396   5.174  10.880  0.0220 -0.3401  0.2933
    7MOL0     C  804  10.322   5.165  10.748 -0.6567 -0.2498  0.0811
    7MOL0     C  805  10.169   5.164  10.753  0.4948  0.5101 -0.1331
    7MOL0     C  806  10.106   5.117  10.625  0.4010  0.0704 -0.0367
    7MOL0     C  807   9.960   5.136  10.619  0.0643 -0.4925 -0.2329
    7MOL0     C  808   9.868   5.069  10.727 -0.0868 -0.2184  0.8250
    7MOL0     N  809   9.720   5.082  10.710  0.0147 -0.0657 -0.4412
    7MOL0     C  810   9.656   5.100  10.589  0.0986  0.3093  0.1858
    7MOL0     C  811   9.525   5.109  10.624 -0.7811 -0.5861 -0.3298
    7MOL0     C  812   9.412   5.148  10.548 -0.3948 -0.3858  0.6785
    7MOL0     C  813   9.375   5.021  10.473 -1.0350 -0.8108 -0.4282
    7MOL0     C  814   9.278   5.071  10.364  0.3456 -0.1782 -0.2371
    7MOL0     C  815   9.258   4.945  10.270  0.0136  0.4655  0.1280
    7MOL0     O  816   9.157   4.988  10.184 -0.1891  0.0072 -0.6538
    7MOL0     C  817   9.105   4.904  10.085 -0.0921 -0.8636 -0.4540
    7MOL0     C  818   8.985   4.941  10.020  0.1898 -0.4474  0.1967
    7MOL0     C  819   8.919   4.872   9.927 -0.2333 -0.2580 -0.0957
    7MOL0     C  820   8.978   4.752   9.885 -0.1444 -0.2044  0.7758
    7MOL0     C  821   8.917   4.664   9.785 -1.6988  0.9750  0.0748
    7MOL0     O  822   8.797   4.708   9.728  0.7718 -0.6387 -1.0356
    7MOL0     C  823   8.751   4.642   9.619  0.3448  0.2214  0.2452
    7MOL0     C  824   8.806   4.654   9.489 -0.0976  0.0226  0.5379
    7MOL0     C  825   8.749   4.591   9.380 -0.0357 -0.4901  0.0881
    7MOL0     C  826   8.632   4.512   9.388 -1.1370 -0.5728  0.4595
    7MOL0     O  827   8.597   4.438   9.272 -0.1548 -0.1775  0.0499
    7MOL0     C  828   8.455   4.430   9.257  0.2873  0.1154 -0.2310
    7MOL0     C  829   8.429   4.371   9.121  0.4220 -0.0074 -0.7775
    7MOL0     C  830   8.282   4.375   9.066  0.4507  0.3240 -0.2624
    7MOL0     C  831   8.208   4.252   9.130  0.6713 -0.4733  0.0267
    7MOL0     C  832   8.061   4.242   9.076  0.4153  0.8385 -0.0495
    7MOL0     C  833   7.961   4.180   9.181  0.1010  0.5010 -0.5531
    7MOL0     C  834   7.829   4.156   9.114 -0.5810 -0.0598  0.2182
    7MOL0     C  835   7.721   4.116   9.208  0.1341  0.8397  0.7115
    7MOL0    Cl  836   7.690   4.245   9.320  0.0417  0.0358  0.0574
    7MOL0     C  837   8.575   4.500   9.516  0.2908  0.7743 -0.4315
    7MOL0     C  838   8.636   4.571   9.625  0.3233  0.1522 -0.8685
    7MOL0     O  839   8.990   4.576   9.743  0.9922 -0.0403  0.8260
    7MOL0     C  840   9.109   4.720   9.942  1.1079  0.4587 -0.2509
    7MOL0     C  841   9.169   4.792  10.035  0.2281  0.1964  0.0038
    7MOL0     N  842   9.519   5.089  10.762 -0.4685 -0.3138  0.6381
    7MOL0     N  843   9.631   5.066  10.816 -0.2452  0.1815  0.3053
    7MOL0     C  844  10.452   5.669  10.904 -1.3082  0.6650  0.6753
    7MOL0     C  845  10.479   5.805  10.883  0.9466  0.5911  0.5299
    7MOL0     C  846  10.744   6.177  10.907 -0.1598 -0.4997 -1.3675
    7MOL0     C  847  10.782   6.253  11.026 -0.2770 -0.1683  1.1244
    7MOL0     C  848  10.826   6.389  11.015 -0.9761  0.5532  0.1414
    7MOL0     C  849  10.835   6.450  10.892 -0.0678  0.4888  0.8985
    7MOL0     O  850  10.880   6.583  10.876  0.5841 -0.2414 -0.0877
    7MOL0     C  851  10.866   6.661  10.753 -0.2988  0.0252  0.4839
    7MOL0     C  852  10.907   6.803  10.776  0.7081  0.6536 -0.9752
    7MOL0     C  853  11.060   6.823  10.761 -0.0938  0.6325  0.8061
    7MOL0     C  854  11.109   6.964  10.761  0.6677 -0.2045 -0.0886
    7MOL0     C  855  11.060   7.038  10.649  0.5348  0.8999  0.4148
    7MOL0     C  856  11.021   7.096  10.547 -0.0651 -0.1970 -0.4762
    7MOL0     C  857  10.808   6.378  10.782 -0.6055  0.2728  0.8686
    7MOL0     C  858  10.768   6.243  10.786 -0.5590 -0.0363 -0.7608
    7MOL0     H  859  10.769   5.785  10.710 -1.4016  3.9061 -0.2799
    7MOL0     H  860  10.731   5.543  10.749 -1.3131 -0.7557 -1.6789
    7MOL0     H  861  10.685   5.359  10.834 -0.0143  0.2177 -1.3410
    7MOL0     H  862  10.564   5.349  10.711 -2.0197  0.3290  0.3035
    7MOL0     H  863  10.603   5.169  10.948  0.0653 -1.3803  0.5171
    7MOL0     H  864  10.568   5.138  10.777  1.0630  0.5303 -0.3518
    7MOL0     H  865  10.342   5.251  10.936 -0.0502  1.1348 -1.6861
    7MOL0     H  866  10.388   5.080  10.936 -2.1412 -1.1390 -1.2031
    7MOL0     H  867  10.342   5.255  10.690  0.4704 -0.3335  0.3231
    7MOL0     H  868  10.352   5.076  10.692  0.8559  0.6634 -0.5954
    7MOL0     H  869  10.148   5.267  10.783  3.4288  0.9044  0.9275
    7MOL0     H  870  10.127   5.096  10.827 -1.5994  0.5115 -1.2420
    7MOL0     H  871  10.136   5.013  10.605  0.0293  0.2610 -1.8133
    7MOL0     H  872  10.151   5.171  10.541  3.4060  0.0857  1.4457
    7MOL0     H  873   9.944   5.245  10.613 -0.6957 -0.5749  0.1117
    7MOL0     H  874   9.931   5.096  10.521  1.5008 -2.0638 -0.0506
    7MOL0     H  875   9.893   5.110  10.825 -1.1342 -0.4802  1.2215
    7MOL0     H  876   9.883   4.961  10.723 -0.5547 -0.2648  0.0490
    7MOL0     H  877   9.707   5.117  10.495 -0.6761  1.4690 -0.0351
    7MOL0     H  878   9.451   5.223  10.478 -1.2537  1.1930  1.8241
    7MOL0     H  879   9.323   5.191  10.595 -2.0843  0.4340 -2.8592
    7MOL0     H  880   9.325   4.954  10.544 -1.2188  1.7356  2.0013
    7MOL0     H  881   9.457   4.965  10.427 -1.7252 -2.0525 -0.2117
    7MOL0     H  882   9.193   5.092  10.429  0.6112  1.8219 -0.4768
    7MOL0     H  883   9.321   5.158  10.313  1.5881 -1.7297 -1.9713
    7MOL0     H  884   9.223   4.865  10.336  0.6298  2.4248  3.0569
    7MOL0     H  885   9.343   4.905  10.214 -1.4927 -2.3483 -0.3280
    7MOL0     H  886   8.942   5.036  10.052  2.2295  1.2236 -1.6835
    7MOL0     H  887   8.832   4.918   9.882  0.6567  0.8756 -0.7338
    7MOL0     H  888   8.899   4.710   9.490 -0.0997  0.0842 -0.6544
    7MOL0     H  889   8.795   4.590   9.282 -0.6646  0.0770 -0.2190
    7MOL0     H  890   8.417   4.530   9.277  0.3461 -0.3225  2.5254
    7MOL0     H  891   8.430   4.358   9.335  1.1593 -1.7911 -1.6271
    7MOL0     H  892   8.463   4.267   9.122 -0.1249 -0.2016  1.3424
    7MOL0     H  893   8.487   4.419   9.041 -0.4854  3.2445  0.3764
    7MOL0     H  894   8.279   4.363   8.957  0.2766  0.0246 -0.2266
    7MOL0     H  895   8.234   4.468   9.097 -0.6450 -0.8269  1.7070
    7MOL0     H  896   8.250   4.152   9.122 -0.1648 -0.9125  1.0165
    7MOL0     H  897   8.210   4.271   9.238  3.6841  0.4153 -0.0888
    7MOL0     H  898   8.067   4.178   8.988 -1.3480  0.3715  0.1309
    7MOL0     H  899   8.026   4.339   9.039 -3.0717  0.4506  1.8655
    7MOL0     H  900   7.951   4.250   9.264  1.6323 -0.0325  0.1095
    7MOL0     H  901   7.999   4.088   9.226 -0.8266 -1.4587 -3.4525
    7MOL0     H  902   7.795   4.240   9.053  2.0009  0.6435 -0.3575
    7MOL0     H  903   7.843   4.072   9.045 -1.1063 -0.3215  0.4191
    7MOL0     H  904   7.751   4.026   9.264 -1.6928 -0.7621 -0.7479
    7MOL0     H  905   7.636   4.083   9.147  1.4004 -0.4439 -0.4450
    7MOL0     H  906   8.473   4.462   9.523  1.1391 -2.0316 -1.8103
    7MOL0     H  907   8.588   4.567   9.722  0.3271  0.1803 -0.8657
    7MOL0     H  908   9.164   4.628   9.924  0.2845 -0.6929  2.5880
    7MOL0     H  909   9.262   4.757  10.080  0.7436  3.0149  1.3986
    7MOL0     H  910  10.359   5.630  10.942 -0.3257 -1.0776  1.4253
    7MOL0     H  911  10.408   5.878  10.919  1.5064  2.7665 -2.3639
    7MOL0     H  912  10.747   6.226  11.126 -1.8304  0.8589  0.8912
    7MOL0     H  913  10.829   6.443  11.109  1.2903  0.4123  0.2049
    7MOL0     H  914  10.762   6.655  10.720  0.2805  2.5624 -2.1871
    7MOL0     H  915  10.935   6.616  10.680 -2.8500 -1.5616 -1.1268
    7MOL0     H  916  10.856   6.864  10.701 -2.8338 -2.4541 -1.4228
    7MOL0     H  917  10.886   6.833  10.879  1.9036 -0.9672 -0.2119
    7MOL0     H  918  11.092   6.769  10.671  0.6163 -0.7662  1.8543
    7MOL0     H  919  11.107   6.771  10.845 -3.3106 -1.1282  1.6911
    7MOL0     H  920  11.085   7.006  10.859  1.1850 -0.4690  0.1601
    7MOL0     H  921  11.219   6.958  10.761  0.9922  3.3906 -1.0906
    7MOL0     H  922  10.997   7.144  10.454  1.6487 -1.2597 -1.5293
    7MOL0     H  923  10.821   6.417  10.682  2.7162  3.0722  2.1603
    7MOL0     H  924  10.735   6.183  10.702 -3.7622 -1.9407  1.6270
    8MOL0     O  925   7.956  10.582   0.803  0.6380 -0.0832  0.6113
    8MOL0     C  926   7.998  10.593   0.693 -0.7901 -0.2191 -0.2750
    8MOL0     O  927   7.959  10.531   0.575  0.2500  0.2025 -0.4044
    8MOL0     C  928   7.857  10.452   0.588 -0.6798 -0.6543 -1.1174
    8MOL0     C  929   7.727  10.503   0.576  0.8854 -0.3567  0.0700
    8MOL0     C  930   7.613  10.418   0.566 -0.2771 -0.3174 -0.5627
    8MOL0     C  931   7.643  10.277   0.574 -0.7200 -0.7333 -0.6966
    8MOL0     O  932   7.556  10.175   0.575  0.0532  0.4241  0.3203
    8MOL0     C  933   7.419  10.218   0.544 -0.0986  0.1183 -0.8926
    8MOL0     C  934   7.351  10.245   0.680  0.1604  0.7255 -0.1804
    8MOL0     C  935   7.204  10.283   0.660 -0.1339 -0.4286  0.5168
    8MOL0     C  936   7.139  10.362   0.778  0.1501 -0.0878 -0.4854
    8MOL0     C  937   7.007  10.419   0.718  0.0011  1.7489 -0.4589
    8MOL0     C  938   6.938  10.499   0.833 -0.9761 -0.2669  0.0505
    8MOL0     C  939   6.815  10.562   0.768 -0.1452 -0.5085 -0.0938
    8MOL0     C  940   6.718  10.579   0.885  0.2338 -0.7151  0.1273
    8MOL0     N  941   6.596  10.643   0.847  0.6213 -0.3755  0.4749
    8MOL0     C  942   6.541  10.751   0.910  0.3782 -0.2957 -0.2849
    8MOL0     C  943   6.407  10.758   0.875 -1.0923 -0.0338  0.0427
    8MOL0     C  944   6.296  10.857   0.919 -0.2532 -0.1586 -0.3507
    8MOL0     C  945   6.338  11.002   0.906  0.5501 -0.8458 -0.3856
    8MOL0     C  946   6.261  11.089   1.014 -0.4933  0.0705  0.3421
    8MOL0     C  947   6.115  11.113   0.972  1.1674 -0.4780 -1.1739
    8MOL0     O  948   6.040  11.166   1.081 -0.5238  0.4638 -0.2270
    8MOL0     C  949   5.910  11.193   1.053 -0.3061 -0.0360 -0.0282
    8MOL0     C  950   5.842  11.185   0.929  0.3910 -0.2447  0.0026
    8MOL0     C  951   5.709  11.208   0.917  0.6357 -0.6402  0.6454
    8MOL0     C  952   5.639  11.271   1.019 -0.3007 -0.0855 -0.7475
    8MOL0     C  953   5.496  11.307   1.011 -0.1663 -0.0948 -0.0950
    8MOL0     O  954   5.448  11.384   1.103 -0.0740 -0.1318 -0.2162
    8MOL0     C  955   5.332  11.442   1.070  0.6288 -0.4958 -0.1890
    8MOL0     C  956   5.331  11.570   1.014 -0.3443 -0.7515  0.9040
    8MOL0     C  957   5.210  11.637   0.975 -0.1105  0.2859  0.1273
    8MOL0     C  958   5.091  11.573   0.997  0.0530  0.7494 -0.9144
    8MOL0     O  959   4.979  11.635   0.968  0.4327 -0.7329  0.4751
    8MOL0     C  960   4.856  11.595   1.031  0.4074 -0.1763 -0.3459
    8MOL0     C  961   4.739  11.654   0.949 -0.1431 -0.1821 -0.6613
    8MOL0     C  962   4.726  11.808   0.955  0.1150  0.4707 -0.1823
    8MOL0     C  963   4.831  11.884   0.880  0.1910  0.3547  0.0631
    8MOL0     C  964   4.790  12.025   0.850  0.5261 -0.1273  0.2909
    8MOL0     C  965   4.923  12.080   0.788 -0.0221 -0.2681  1.1706
    8MOL0     C  966   4.895  12.223   0.732  0.7584  0.7685  0.4480
    8MOL0     C  967   4.946  12.325   0.833 -0.1383 -0.1770  0.4988
    8MOL0    Cl  968   5.124  12.322   0.855 -0.1890 -0.4095 -0.1986
    8MOL0     C  969   5.090  11.439   1.054 -1.0733 -0.3150  0.4336
    8MOL0     C  970   5.209  11.376   1.094 -0.9216  0.7139  0.1469
    8MOL0     O  971   5.438  11.264   0.909 -0.5679 -0.2326 -1.0626
    8MOL0     C  972   5.709  11.285   1.136  0.7653 -0.4757  0.5394
    8MOL0     C  973   5.843  11.257   1.154 -0.3579  0.3404  0.6214
    8MOL0     N  974   6.393  10.654   0.777 -1.0765 -0.7817 -0.4065
    8MOL0     N  975   6.502  10.587   0.767 -0.1990 -0.1640 -0.8139
    8MOL0     C  976   7.774  10.224   0.598  0.4519 -0.1627  0.0898
    8MOL0     C  977   7.883  10.316   0.607  0.8314 -0.8679  0.2555
    8MOL0     C  978   8.120  10.674   0.672 -0.4172 -0.1734  0.6755
    8MOL0     C  979   8.211  10.645   0.564  0.4030  0.6425 -0.2023
    8MOL0     C  980   8.324  10.721   0.540  0.4656 -0.8601  0.1320
    8MOL0     C  981   8.345  10.838   0.620 -0.5879  0.3850 -0.1787
    8MOL0     O  982   8.463  10.916   0.615  0.7464  0.0708  0.3206
    8MOL0     C  983   8.522  10.959   0.498  0.0812 -1.0007 -0.6032
    8MOL0     C  984   8.607  11.089   0.529 -0.2083  0.5239 -0.4197
    8MOL0     C  985   8.728  11.062   0.623 -0.1881  0.1354 -0.1913
    8MOL0     C  986   8.831  10.949   0.590  0.7571  0.3592  0.3083
    8MOL0     C  987   8.855  10.943   0.442 -0.4943 -0.7284  0.1835
    8MOL0     C  988   8.895  10.942   0.327 -0.4178  0.2960  0.0440
    8MOL0     C  989   8.266  10.867   0.734  0.2495  0.6006  0.4772
    8MOL0     C  990   8.157  10.781   0.761 -0.6996  0.2580  0.7878
    8MOL0     H  991   7.720  10.611   0.572 -1.6799 -0.0922  4.3536
    8MOL0     H  992   7.514  10.460   0.557 -1.2031 -2.3131 -0.1995
    8MOL0     H  993   7.366  10.127   0.513  0.3568 -0.1048 -1.0147
    8MOL0     H  994   7.404  10.297   0.470 -2.0389 -0.8269 -1.5874
    8MOL0     H  995   7.396  10.332   0.728  1.2803 -0.1481  0.4190
    8MOL0     H  996   7.361  10.167   0.756 -1.4580  1.1403  0.5082
    8MOL0     H  997   7.132  10.204   0.636  0.4604 -0.3438 -1.8452
    8MOL0     H  998   7.202  10.348   0.571 -0.3849 -1.8210 -0.5238
    8MOL0     H  999   7.129  10.298   0.867 -0.8068 -1.2132 -1.3673
    8MOL0     H 1000   7.207  10.443   0.805 -2.1621  1.4204  1.1685
    8MOL0     H 1001   6.936  10.336   0.712 -1.6421  2.8660  1.9246
    8MOL0     H 1002   7.019  10.465   0.619  2.5179  1.1954 -0.4644
    8MOL0     H 1003   6.999  10.585   0.863  0.6527 -1.4494  0.2896
    8MOL0     H 1004   6.925  10.453   0.931 -2.3434  5.6593  3.1561
    8MOL0     H 1005   6.837  10.656   0.717 -2.0718 -0.3508 -0.7061
    8MOL0     H 1006   6.773  10.495   0.692 -2.0751 -0.7959  1.1654
    8MOL0     H 1007   6.777  10.641   0.953  2.0400 -2.9653  0.7384
    8MOL0     H 1008   6.703  10.477   0.923 -0.1090 -0.4287  0.7866
    8MOL0     H 1009   6.574  10.820   0.987 -0.3838 -1.5353  1.2262
    8MOL0     H 1010   6.271  10.824   1.020 -0.9864 -2.4861 -1.2260
    8MOL0     H 1011   6.214  10.844   0.847 -1.4843  1.0437  0.7756
    8MOL0     H 1012   6.319  11.046   0.808  1.2104  1.3527  0.4246
    8MOL0     H 1013   6.446  11.015   0.915  1.0128 -2.1824 -2.8697
    8MOL0     H 1014   6.269  11.041   1.112 -2.1653 -2.5556 -0.6894
    8MOL0     H 1015   6.310  11.187   1.020  0.3071  0.2937 -5.1091
    8MOL0     H 1016   6.059  11.026   0.937  1.2539 -1.0319 -0.0096
    8MOL0     H 1017   6.121  11.194   0.899  1.9683  0.9648  0.4356
    8MOL0     H 1018   5.892  11.154   0.838  1.6687 -2.2515  1.2938
    8MOL0     H 1019   5.664  11.184   0.821 -1.5118  0.3172  1.3510
    8MOL0     H 1020   5.427  11.613   0.989  0.1338 -1.6243  1.1807
    8MOL0     H 1021   5.206  11.740   0.941  2.6183  0.6292  0.5574
    8MOL0     H 1022   4.847  11.631   1.134  0.4973 -6.3722  2.3056
    8MOL0     H 1023   4.830  11.489   1.022 -0.9981  0.2719 -2.0728
    8MOL0     H 1024   4.636  11.628   0.979 -0.2144  2.6396  2.0249
    8MOL0     H 1025   4.747  11.614   0.848 -0.1354  2.1798 -1.6492
    8MOL0     H 1026   4.718  11.848   1.056 -0.6847  0.2771 -0.1649
    8MOL0     H 1027   4.633  11.844   0.912 -0.3337 -0.0581  0.3267
    8MOL0     H 1028   4.925  11.888   0.936 -0.0778  4.3341  0.5792
    8MOL0     H 1029   4.846  11.830   0.787 -1.7637  1.1808 -0.7898
    8MOL0     H 1030   4.774  12.076   0.945  0.6986  3.5905 -1.5027
    8MOL0     H 1031   4.698  12.028   0.792  0.3398  1.3396  0.6326
    8MOL0     H 1032   4.944  12.019   0.699 -1.3807  1.8664 -0.7435
    8MOL0     H 1033   5.013  12.069   0.849  0.2379 -4.9939  0.3085
    8MOL0     H 1034   4.929  12.240   0.629 -1.3732 -2.5023 -0.9786
    8MOL0     H 1035   4.786  12.236   0.726  0.5959 -0.7398 -0.2596
    8MOL0     H 1036   4.899  12.306   0.929  2.3074  0.9578  2.0185
    8MOL0     H 1037   4.927  12.426   0.795  3.9492  0.3072 -0.8140
    8MOL0     H 1038   4.997  11.386   1.069 -0.4145 -0.9248  2.8820
    8MOL0     H 1039   5.202  11.272   1.126 -1.2612  0.0326 -1.9367
    8MOL0     H 1040   5.656  11.331   1.219 -0.5640 -1.1889  0.1276
    8MOL0     H 1041   5.881  11.274   1.254 -2.0972  3.6253  0.8609
    8MOL0     H 1042   7.795  10.118   0.592  0.0866 -0.2005 -0.6134
    8MOL0     H 1043   7.982  10.271   0.612  0.3883 -1.7191  2.8824
    8MOL0     H 1044   8.181  10.557   0.509 -1.0193 -0.3305  1.9944
    8MOL0     H 1045   8.393  10.696   0.459  0.9581  1.5751 -0.2656
    8MOL0     H 1046   8.447  10.987   0.424 -0.1733  1.7745  0.5970
    8MOL0     H 1047   8.590  10.882   0.459  1.1351 -0.3411 -0.1165
    8MOL0     H 1048   8.642  11.119   0.430 -0.6448  1.3170 -0.3400
    8MOL0     H 1049   8.545  11.169   0.569  1.0687  1.3121  0.0316
    8MOL0     H 1050   8.691  11.052   0.725 -0.4651 -2.5350 -0.5033
    8MOL0     H 1051   8.784  11.156   0.626  2.1986 -1.1997  2.3417
    8MOL0     H 1052   8.926  10.959   0.642 -0.1607 -2.1205  2.7007
    8MOL0     H 1053   8.798  10.850   0.624 -1.9652  1.3602  0.8692
    8MOL0     H 1054   8.944  10.947   0.232  1.4549 -0.3507  0.9340
    8MOL0     H 1055   8.292  10.942   0.808  1.4095  1.2792 -0.5860
    8MOL0     H 1056   8.097  10.800   0.849 -2.5574  1.0393 -0.5812
    9MOL0     O 1057   3.341   7.791   6.603  0.3696  0.6734 -0.1619
    9MOL0     C 1058   3.341   7.913   6.602  0.1103  0.5623  0.1934
    9MOL0     O 1059   3.251   7.992   6.668 -0.5458  0.2825 -0.6576
    9MOL0     C 1060   3.119   7.949   6.717 -0.5447 -0.0013  1.1104
    9MOL0     C 1061   3.054   7.828   6.676  0.3921  0.2673  1.2423
    9MOL0     C 1062   2.928   7.793   6.718  0.2672 -0.1721 -0.0569
    9MOL0     C 1063   2.869   7.877   6.822  0.3540  0.6294 -0.4885
    9MOL0     O 1064   2.743   7.833   6.862 -0.0350 -0.6354 -0.1378
    9MOL0     C 1065   2.662   7.898   6.967  0.3776 -0.2952  0.3756
    9MOL0     C 1066   2.534   7.811   7.007 -0.4543 -0.3267 -0.1587
    9MOL0     C 1067   2.445   7.892   7.097  0.7100  0.3358 -0.0903
    9MOL0     C 1068   2.304   7.819   7.113  0.5394  0.0925 -0.1940
    9MOL0     C 1069   2.205   7.890   7.216 -0.7983 -0.1012  0.8498
    9MOL0     C 1070   2.063   7.841   7.221  0.1784  0.2606 -0.1494
    9MOL0     C 1071   1.962   7.923   7.315 -0.4807 -0.7251  0.4088
    9MOL0     C 1072   1.925   8.068   7.252 -0.0218 -0.2242 -0.0948
    9MOL0     N 1073   1.851   8.149   7.351  0.0737 -0.1823 -0.7594
    9MOL0     C 1074   1.732   8.105   7.410  0.9345 -0.3226 -0.3073
    9MOL0     C 1075   1.709   8.204   7.501  0.3898 -0.1913 -0.1572
    9MOL0     C 1076   1.591   8.230   7.596 -0.0351 -0.3855  0.1615
    9MOL0     C 1077   1.478   8.120   7.606 -0.1033  0.3797  0.2067
    9MOL0     C 1078   1.394   8.139   7.489  0.5839 -0.3609 -0.1787
    9MOL0     C 1079   1.243   8.088   7.509 -1.3716  0.1773 -0.3267
    9MOL0     O 1080   1.172   8.195   7.569 -0.2080 -0.5122  0.6100
    9MOL0     C 1081   1.033   8.187   7.574 -0.4569  0.5319  0.5528
    9MOL0     C 1082   0.958   8.290   7.526 -0.2975 -0.8342 -0.9674
    9MOL0     C 1083   0.816   8.290   7.552 -0.1406  0.9102 -0.1583
    9MOL0     C 1084   0.758   8.179   7.615  0.0141 -0.2779 -0.4845
    9MOL0     C 1085   0.607   8.174   7.629  0.4268  1.0928 -0.0330
    9MOL0     O 1086   0.565   8.081   7.723  0.7142 -0.7001 -0.0439
    9MOL0     C 1087   0.429   8.069   7.750 -0.1751  0.9939  0.8743
    9MOL0     C 1088   0.390   8.040   7.883 -0.3385  0.5154  0.1852
    9MOL0     C 1089   0.264   8.024   7.911 -0.6110 -0.0818 -0.2138
    9MOL0     C 1090   0.162   8.026   7.819 -0.9626  0.0417  0.0939
    9MOL0     O 1091   0.044   7.994   7.858  0.2741  0.2789  0.1860
    9MOL0     C 1092  -0.048   8.102   7.873  0.2379 -0.7657 -0.4739
    9MOL0     C 1093  -0.182   8.090   7.804 -0.1785 -0.3012  0.3241
    9MOL0     C 1094  -0.164   8.081   7.648  0.7350  0.0619  0.1579
    9MOL0     C 1095  -0.295   8.068   7.591  0.5907  0.0602  0.5737
    9MOL0     C 1096  -0.278   8.078   7.429  0.0498  0.7001  0.1274
    9MOL0     C 1097  -0.415   8.031   7.370  0.1344  0.1389  0.2782
    9MOL0     C 1098  -0.532   8.122   7.414  0.2564  0.9595 -0.2785
    9MOL0     C 1099  -0.666   8.047   7.401  0.3543  0.6496  0.1085
    9MOL0    Cl 1100  -0.707   8.018   7.227 -0.0044 -0.0262 -0.3788
    9MOL0     C 1101   0.193   8.043   7.683 -0.7079 -0.3268 -0.3344
    9MOL0     C 1102   0.327   8.061   7.652 -0.2147  0.0392 -0.1928
    9MOL0     O 1103   0.533   8.232   7.549  0.3276  0.0815  0.1377
    9MOL0     C 1104   0.835   8.081   7.665 -0.2027 -0.4473 -0.7863
    9MOL0     C 1105   0.975   8.079   7.643 -0.4439 -0.4636  0.5195
    9MOL0     N 1106   1.812   8.287   7.508  0.7458  0.6880  0.4734
    9MOL0     N 1107   1.900   8.251   7.423 -0.7030  0.1693  0.8864
    9MOL0     C 1108   2.935   7.992   6.864  0.2179 -0.1066 -0.3768
    9MOL0     C 1109   3.054   8.025   6.807  0.1147 -0.0538 -0.3926
    9MOL0     C 1110   3.457   7.968   6.534 -0.3959  0.1839 -0.7622
    9MOL0     C 1111   3.547   7.890   6.449 -0.6446 -0.5915  0.3453
    9MOL0     C 1112   3.661   7.950   6.399  0.0002 -0.8248  0.1880
    9MOL0     C 1113   3.682   8.093   6.418 -0.1110  0.3949 -0.6994
    9MOL0     O 1114   3.786   8.155   6.364 -1.2991 -0.2161 -0.1136
    9MOL0     C 1115   3.866   8.228   6.455 -0.4340  0.2677 -0.5218
    9MOL0     C 1116   3.944   8.315   6.368 -0.2916  0.1514 -0.5345
    9MOL0     C 1117   4.058   8.382   6.439  0.1988 -1.0281 -0.3330
    9MOL0     C 1118   4.094   8.507   6.354  0.5844  0.1077  0.1594
    9MOL0     C 1119   4.226   8.557   6.389 -1.3748  0.3830 -0.5065
    9MOL0     C 1120   4.332   8.616   6.420  0.5888  0.3289 -0.0437
    9MOL0     C 1121   3.593   8.165   6.496 -0.5251  0.0021  1.0179
    9MOL0     C 1122   3.483   8.104   6.559  0.5574  0.9690  0.0023
    9MOL0     H 1123   3.106   7.760   6.610  0.5959  2.2048 -0.6795
    9MOL0     H 1124   2.879   7.701   6.686  0.4949 -0.6265  0.8928
    9MOL0     H 1125   2.630   7.995   6.928 -1.5250 -1.3745 -0.9118
    9MOL0     H 1126   2.708   7.922   7.063  0.4845 -0.7786  0.4500
    9MOL0     H 1127   2.561   7.716   7.054 -2.3463 -0.6460  0.3551
    9MOL0     H 1128   2.467   7.800   6.921 -1.4666  2.0511  0.2482
    9MOL0     H 1129   2.433   7.993   7.057 -2.1136 -1.1244 -3.4004
    9MOL0     H 1130   2.494   7.900   7.194  1.1339 -1.4949 -0.1306
    9MOL0     H 1131   2.252   7.818   7.017 -3.1325  1.9590  1.5660
    9MOL0     H 1132   2.314   7.715   7.144  3.0528 -0.1689 -1.6302
    9MOL0     H 1133   2.211   7.997   7.194 -0.3670 -0.2225  0.3575
    9MOL0     H 1134   2.246   7.880   7.317 -3.2434 -0.3527  1.8962
    9MOL0     H 1135   2.060   7.739   7.260 -3.0929 -0.1576 -1.1349
    9MOL0     H 1136   2.022   7.842   7.119 -0.2248 -1.2165 -0.0198
    9MOL0     H 1137   1.870   7.863   7.324 -0.4945 -1.2955 -2.5318
    9MOL0     H 1138   2.006   7.946   7.412 -1.8310  1.3870  0.5778
    9MOL0     H 1139   1.858   8.056   7.166 -1.6020  0.5311  0.9727
    9MOL0     H 1140   2.018   8.121   7.232 -0.2312 -0.2796 -1.2861
    9MOL0     H 1141   1.663   8.023   7.394  1.0144 -0.5016  0.2260
    9MOL0     H 1142   1.545   8.320   7.555 -0.2867 -0.7446 -0.3504
    9MOL0     H 1143   1.630   8.253   7.696  0.2842 -0.0530 -0.0386
    9MOL0     H 1144   1.429   8.130   7.703 -1.3502  0.4355 -0.4121
    9MOL0     H 1145   1.516   8.018   7.600 -0.3314  0.2661  0.6449
    9MOL0     H 1146   1.392   8.241   7.449  0.9444  0.1793  1.1484
    9MOL0     H 1147   1.431   8.068   7.415  2.1379  0.2727 -0.0466
    9MOL0     H 1148   1.234   8.005   7.579  0.2808  1.0637  0.9970
    9MOL0     H 1149   1.191   8.060   7.417 -2.4289  1.6585 -0.2072
    9MOL0     H 1150   0.987   8.384   7.480 -0.7093  1.1206  2.4662
    9MOL0     H 1151   0.748   8.366   7.516  0.1379  0.7005 -1.1473
    9MOL0     H 1152   0.466   8.016   7.956  0.6052  0.0943 -0.9146
    9MOL0     H 1153   0.232   8.004   8.013  0.0619  0.2180  0.0605
    9MOL0     H 1154  -0.002   8.199   7.853 -0.4762  0.4936  3.2435
    9MOL0     H 1155  -0.061   8.093   7.981  3.0130 -2.3884 -0.1557
    9MOL0     H 1156  -0.251   8.166   7.842  1.1952  0.5779  1.1481
    9MOL0     H 1157  -0.233   8.000   7.839 -1.1863  0.8431  1.9330
    9MOL0     H 1158  -0.104   7.996   7.614 -0.6322 -0.0436 -2.2487
    9MOL0     H 1159  -0.124   8.175   7.608  1.1993 -0.2265 -0.0702
    9MOL0     H 1160  -0.357   7.984   7.624  0.6845 -0.9126 -1.5449
    9MOL0     H 1161  -0.342   8.161   7.622 -0.2485 -0.3524  0.5576
    9MOL0     H 1162  -0.193   8.019   7.396 -1.8673 -1.2036 -1.7260
    9MOL0     H 1163  -0.264   8.180   7.391  1.8496  0.5991  0.4471
    9MOL0     H 1164  -0.437   7.927   7.393  0.7901  0.2457  1.5016
    9MOL0     H 1165  -0.405   8.039   7.261  1.3270 -0.0010  0.3637
    9MOL0     H 1166  -0.532   8.162   7.516 -1.5858  0.6864 -0.1472
    9MOL0     H 1167  -0.530   8.210   7.349  2.2575  0.1909 -1.3598
    9MOL0     H 1168  -0.738   8.106   7.458 -0.1867 -2.3065  2.7706
    9MOL0     H 1169  -0.664   7.947   7.445  1.2532  0.5007 -0.2451
    9MOL0     H 1170   0.119   8.047   7.604 -1.0748 -0.8125 -0.0145
    9MOL0     H 1171   0.352   8.077   7.548  0.0411  1.8357  0.1082
    9MOL0     H 1172   0.782   8.004   7.721 -0.9317 -0.8389 -1.9922
    9MOL0     H 1173   1.043   8.012   7.694 -0.5220 -0.6232  0.4129
    9MOL0     H 1174   2.896   8.051   6.947 -0.1171  1.5552 -1.6685
    9MOL0     H 1175   3.113   8.113   6.831  3.4415 -2.1261 -0.3425
    9MOL0     H 1176   3.527   7.786   6.424 -0.8073 -0.3693 -0.4671
    9MOL0     H 1177   3.740   7.899   6.345  1.5151  1.5409  0.0496
    9MOL0     H 1178   3.925   8.153   6.509  0.9077  1.5185 -0.2107
    9MOL0     H 1179   3.818   8.282   6.537  1.0674 -1.2203  1.4273
    9MOL0     H 1180   3.986   8.249   6.291 -2.6724 -1.5356 -0.5269
    9MOL0     H 1181   3.869   8.386   6.332 -0.0371  0.0036 -1.3803
    9MOL0     H 1182   4.143   8.313   6.437  2.3968  1.5331 -1.5734
    9MOL0     H 1183   4.020   8.405   6.539 -0.6529  0.2673 -0.9337
    9MOL0     H 1184   4.115   8.467   6.255  0.1246  2.1577 -0.8179
    9MOL0     H 1185   4.017   8.585   6.350 -0.9564 -1.4125 -1.2397
    9MOL0     H 1186   4.428   8.657   6.443  0.5354 -0.5259  1.8513
    9MOL0     H 1187   3.619   8.270   6.509 -2.2675  0.3883  1.7273
    9MOL0     H 1188   3.422   8.162   6.628 -0.3716 -1.1334  1.0399
   10MOL0     O 1189   3.310   1.589   5.992  1.0540 -0.4001  0.5249
   10MOL0     C 1190   3.223   1.584   6.082 -0.6983 -0.6356  0.4168
   10MOL0     O 1191   3.257   1.617   6.209 -0.1253  0.0009 -0.0511
   10MOL0     C 1192   3.382   1.660   6.247 -1.0674  0.2738 -0.8424
   10MOL0     C 1193   3.451   1.580   6.339 -0.0308  0.3148  0.0023
   10MOL0     C 1194   3.579   1.611   6.382 -0.1368  0.0614 -0.7732
   10MOL0     C 1195   3.648   1.725   6.346  0.0848 -0.6142 -0.0421
   10MOL0     O 1196   3.774   1.768   6.374  0.4478  0.3738 -0.3481
   10MOL0     C 1197   3.867   1.667   6.416 -0.2400 -0.2804  0.2962
   10MOL0     C 1198   3.989   1.735   6.498  0.5498  0.4714  0.4401
   10MOL0     C 1199   4.103   1.637   6.539  0.5733 -0.1448 -0.5141
   10MOL0     C 1200   4.235   1.710   6.564  0.1930 -0.0077 -0.1917
   10MOL0     C 1201   4.240   1.778   6.698 -0.6481 -0.9337 -0.1137
   10MOL0     C 1202   4.275   1.693   6.820 -0.2818 -0.7027 -0.1555
   10MOL0     C 1203   4.261   1.778   6.944 -0.0662 -0.5059  1.1916
   10MOL0     C 1204   4.274   1.673   7.060 -0.4124 -0.1126  0.5324
   10MOL0     N 1205   4.270   1.752   7.186 -0.0885 -0.1920  0.3312
   10MOL0     C 1206   4.148   1.786   7.242  0.0459  0.1465  0.4262
   10MOL0     C 1207   4.168   1.901   7.304  0.2987 -0.6711  0.3855
   10MOL0     C 1208   4.066   1.974   7.376 -0.1290  0.7921  0.0635
   10MOL0     C 1209   4.012   2.096   7.294  0.3412 -0.0737 -0.1270
   10MOL0     C 1210   3.954   2.050   7.158  0.4269  0.3401 -0.6049
   10MOL0     C 1211   3.903   2.169   7.081 -0.4477 -0.7719  0.2685
   10MOL0     O 1212   3.996   2.275   7.049  0.0877 -0.3694 -0.2335
   10MOL0     C 1213   4.070   2.241   6.943  0.6437 -0.7190 -0.1384
   10MOL0     C 1214   4.200   2.202   6.956 -0.6051  0.0176 -0.3542
   10MOL0     C 1215   4.274   2.180   6.843  1.3569  0.0502 -0.1060
   10MOL0     C 1216   4.219   2.170   6.715 -0.3627  0.7392  0.3176
   10MOL0     C 1217   4.303   2.150   6.599  0.1433  0.6210  0.1987
   10MOL0     O 1218   4.434   2.163   6.623  0.0151 -0.5838  0.2294
   10MOL0     C 1219   4.532   2.111   6.541 -0.7398  0.5555 -0.6825
   10MOL0     C 1220   4.657   2.156   6.584 -0.0117 -0.4016 -0.0425
   10MOL0     C 1221   4.773   2.108   6.521 -0.2370  0.3949 -0.1232
   10MOL0     C 1222   4.763   2.019   6.410  1.2626  0.2344 -0.0898
   10MOL0     O 1223   4.876   1.971   6.344  0.5864 -0.1153  0.4096
   10MOL0     C 1224   4.870   1.941   6.205 -0.0846 -0.6550 -1.0621
   10MOL0     C 1225   5.013   1.944   6.166  0.4119  0.6720 -0.4497
   10MOL0     C 1226   5.093   1.814   6.193 -0.6134 -0.1760  0.2254
   10MOL0     C 1227   5.247   1.834   6.181 -0.4750 -0.5122 -0.6705
   10MOL0     C 1228   5.297   1.896   6.047  0.0126 -0.2044 -0.3009
   10MOL0     C 1229   5.455   1.894   6.041 -0.2925  0.2785  0.2346
   10MOL0     C 1230   5.508   1.967   5.913 -0.0633 -0.8139  0.0064
   10MOL0     C 1231   5.648   1.928   5.885 -0.4058 -0.9637 -0.9565
   10MOL0    Cl 1232   5.713   2.025   5.735 -0.3730  0.0590  0.3564
   10MOL0     C 1233   4.633   1.973   6.370 -1.1159 -0.0476  0.4786
   10MOL0     C 1234   4.523   2.019   6.441  0.3326 -0.1626 -0.1410
   10MOL0     O 1235   4.250   2.111   6.492 -0.4818  0.1861  0.5544
   10MOL0     C 1236   4.087   2.189   6.711 -0.0576 -0.5507  0.1821
   10MOL0     C 1237   4.007   2.232   6.815  0.3462 -0.4787 -0.1443
   10MOL0     N 1238   4.295   1.940   7.290  0.0690  0.0656 -0.2896
   10MOL0     N 1239   4.359   1.846   7.227  0.5164  0.7210  0.4620
   10MOL0     C 1240   3.578   1.801   6.249 -0.3849  0.2610 -0.3910
   10MOL0     C 1241   3.454   1.771   6.199  0.0359  0.1994  0.1992
   10MOL0     C 1242   3.080   1.561   6.053  0.2035 -0.0680  0.6345
   10MOL0     C 1243   2.987   1.559   6.160 -0.8095  0.6639  0.1252
   10MOL0     C 1244   2.860   1.521   6.129  0.2990 -0.4054  0.7497
   10MOL0     C 1245   2.815   1.505   6.000  1.3310  0.3167  0.2352
   10MOL0     O 1246   2.678   1.487   5.983 -0.3999  0.2234  1.2469
   10MOL0     C 1247   2.640   1.452   5.849 -0.0309  0.4655  0.3866
   10MOL0     C 1248   2.491   1.427   5.847 -0.3298 -0.3917  0.1617
   10MOL0     C 1249   2.442   1.358   5.718 -0.4014  0.0000 -0.1757
   10MOL0     C 1250   2.297   1.386   5.691 -0.2603 -0.4116  0.1625
   10MOL0     C 1251   2.209   1.315   5.786 -0.9012 -1.1736  0.9915
   10MOL0     C 1252   2.134   1.263   5.869 -0.0903  0.5005 -0.3244
   10MOL0     C 1253   2.910   1.519   5.895  0.0316  0.1298 -0.2539
   10MOL0     C 1254   3.043   1.528   5.926 -0.0774 -0.5253 -0.2429
   10MOL0     H 1255   3.396   1.499   6.386  0.7676 -0.5698 -0.5610
   10MOL0     H 1256   3.613   1.545   6.461 -3.1794  0.6726  1.2427
   10MOL0     H 1257   3.916   1.625   6.327  1.0215 -0.6229  1.1194
   10MOL0     H 1258   3.820   1.584   6.469 -2.0335  0.2999 -0.2996
   10MOL0     H 1259   3.936   1.770   6.587 -0.6877 -0.2835  0.0330
   10MOL0     H 1260   4.029   1.818   6.440  0.3971 -0.6696 -1.3903
   10MOL0     H 1261   4.120   1.557   6.467 -1.6085  0.2544 -1.5645
   10MOL0     H 1262   4.066   1.582   6.627  2.1621 -1.2798 -0.5193
   10MOL0     H 1263   4.308   1.629   6.569 -1.4654 -1.5821 -0.1042
   10MOL0     H 1264   4.262   1.781   6.485 -1.0273 -0.6329 -1.2225
   10MOL0     H 1265   4.143   1.823   6.720 -0.0005  1.3200 -1.5984
   10MOL0     H 1266   4.319   1.853   6.701 -2.9093  1.5641  0.7165
   10MOL0     H 1267   4.375   1.653   6.802  0.3729 -0.1082  1.9516
   10MOL0     H 1268   4.206   1.608   6.819  0.1219 -1.1115 -3.0965
   10MOL0     H 1269   4.350   1.842   6.947  0.3064 -0.9285 -0.2672
   10MOL0     H 1270   4.168   1.833   6.962  1.2313  2.2400  0.1034
   10MOL0     H 1271   4.370   1.622   7.060  0.0883  0.7929  1.3629
   10MOL0     H 1272   4.199   1.594   7.066 -1.0934  0.6107  2.5696
   10MOL0     H 1273   4.055   1.729   7.234  0.9069 -1.5811  1.9763
   10MOL0     H 1274   4.097   1.994   7.479 -1.6736  1.6133  0.4123
   10MOL0     H 1275   3.979   1.907   7.372  1.1220 -0.9210  0.6263
   10MOL0     H 1276   4.092   2.168   7.273 -0.3111  0.9804  0.9134
   10MOL0     H 1277   3.926   2.146   7.338 -1.0750 -1.5061 -1.1479
   10MOL0     H 1278   4.030   2.000   7.098  0.2621  1.5454 -1.8694
   10MOL0     H 1279   3.870   1.981   7.175 -0.8783  1.7222 -1.2111
   10MOL0     H 1280   3.825   2.202   7.149  2.2707 -0.7491  3.6460
   10MOL0     H 1281   3.845   2.133   6.995 -3.6859 -2.5811  3.0044
   10MOL0     H 1282   4.248   2.205   7.053 -2.6843 -3.1557  0.9280
   10MOL0     H 1283   4.380   2.173   6.861  1.7801 -0.4088 -2.4751
   10MOL0     H 1284   4.658   2.215   6.675 -2.8716 -1.7667  1.0261
   10MOL0     H 1285   4.871   2.140   6.555  1.0642 -4.0148  1.0063
   10MOL0     H 1286   4.818   2.025   6.157 -2.2805 -2.0345 -1.2787
   10MOL0     H 1287   4.830   1.841   6.182 -1.0267 -0.7584  0.8113
   10MOL0     H 1288   5.073   2.019   6.218  1.8728 -1.1529  0.6515
   10MOL0     H 1289   5.012   1.971   6.060 -1.6825 -0.1120 -0.6754
   10MOL0     H 1290   5.057   1.739   6.123  2.1094 -0.5306 -0.9280
   10MOL0     H 1291   5.067   1.779   6.293  2.4859 -1.3637  0.7404
   10MOL0     H 1292   5.274   1.902   6.262 -3.0460 -0.7483  0.4845
   10MOL0     H 1293   5.299   1.740   6.202  1.1960  0.3529 -0.7410
   10MOL0     H 1294   5.270   2.001   6.032 -1.0831 -0.4779 -0.3362
   10MOL0     H 1295   5.266   1.842   5.957 -3.7915  0.6014  0.3569
   10MOL0     H 1296   5.483   1.788   6.036 -2.7160 -0.4532  0.9625
   10MOL0     H 1297   5.500   1.933   6.132  3.7614 -2.2434 -0.4303
   10MOL0     H 1298   5.433   1.944   5.836 -1.3083 -0.2031  0.9831
   10MOL0     H 1299   5.503   2.076   5.919 -0.3533 -0.8217 -0.0614
   10MOL0     H 1300   5.653   1.820   5.873  1.8235 -1.2407  1.3926
   10MOL0     H 1301   5.705   1.964   5.971 -1.4362  0.4047 -0.8146
   10MOL0     H 1302   4.617   1.904   6.288  0.9973 -1.0964  0.8912
   10MOL0     H 1303   4.431   1.979   6.400  1.3475 -0.1417 -2.5921
   10MOL0     H 1304   4.039   2.187   6.614 -0.8009  0.1118  0.5260
   10MOL0     H 1305   3.905   2.267   6.807 -0.1358 -1.7917  0.0657
   10MOL0     H 1306   3.636   1.883   6.208  0.2909 -0.5198 -1.0313
   10MOL0     H 1307   3.402   1.824   6.120  1.4333  0.0563 -0.8562
   10MOL0     H 1308   3.013   1.579   6.264 -0.0497 -5.5824  1.5809
   10MOL0     H 1309   2.788   1.505   6.209 -0.2278  1.0281  0.5813
   10MOL0     H 1310   2.694   1.361   5.820 -0.3872  0.5169 -0.4526
   10MOL0     H 1311   2.661   1.532   5.778 -1.3035  0.8562  0.4245
   10MOL0     H 1312   2.465   1.377   5.941  0.0995  0.5603  0.8071
   10MOL0     H 1313   2.448   1.527   5.851  2.0521  0.7341 -0.6719
   10MOL0     H 1314   2.465   1.251   5.717 -1.8521 -0.3598 -2.2354
   10MOL0     H 1315   2.491   1.401   5.629 -0.2042 -1.5611 -0.8543
   10MOL0     H 1316   2.267   1.491   5.696 -2.5754 -0.9542 -0.8653
   10MOL0     H 1317   2.272   1.352   5.590  1.2719  0.8426 -0.6910
   10MOL0     H 1318   2.070   1.212   5.939  0.1898 -0.9336 -1.0746
   10MOL0     H 1319   2.890   1.502   5.790  3.2090 -1.5881 -0.6853
   10MOL0     H 1320   3.124   1.521   5.853  0.6144  1.7818  0.2396
   11MOL0     O 1321   1.627   0.232   1.964  0.0749  0.5219  0.3444
   11MOL0     C 1322   1.569   0.265   2.064  0.5577  0.1767  0.6081
   11MOL0     O 1323   1.632   0.285   2.191 -0.0007  1.3310 -0.5171
   11MOL0     C 1324   1.762   0.240   2.214 -0.4428 -0.6318  0.4727
   11MOL0     C 1325   1.823   0.117   2.175 -0.1995 -0.2872 -0.2578
   11MOL0     C 1326   1.957   0.084   2.214 -0.3402  0.2487  0.1070
   11MOL0     C 1327   2.032   0.179   2.286  0.7611 -0.2205 -0.3633
   11MOL0     O 1328   2.163   0.160   2.320  0.3879  0.0425 -0.5699
   11MOL0     C 1329   2.257   0.147   2.210  0.2845 -0.0012 -0.5856
   11MOL0     C 1330   2.277   0.289   2.136 -0.3318 -0.6320  0.9276
   11MOL0     C 1331   2.313   0.270   1.989  0.3287 -0.3154  0.4397
   11MOL0     C 1332   2.337   0.399   1.921  0.6668  0.9589  0.6728
   11MOL0     C 1333   2.329   0.398   1.773  0.4384  0.9391  0.2596
   11MOL0     C 1334   2.333   0.546   1.717 -0.0595 -0.4268  0.5880
   11MOL0     C 1335   2.267   0.573   1.584 -1.0199  0.1729  0.7685
   11MOL0     C 1336   2.121   0.543   1.592 -0.2306 -0.7046 -0.2627
   11MOL0     N 1337   2.044   0.598   1.484 -0.0340 -0.6112 -0.4703
   11MOL0     C 1338   1.953   0.698   1.509  0.4072  0.7293 -1.0424
   11MOL0     C 1339   1.914   0.732   1.381  0.7026 -0.9200 -0.5608
   11MOL0     C 1340   1.824   0.844   1.340 -0.1822  0.3804 -0.0645
   11MOL0     C 1341   1.675   0.802   1.333  0.5500 -0.1039 -0.2868
   11MOL0     C 1342   1.643   0.665   1.253 -0.5088  0.2885 -0.1791
   11MOL0     C 1343   1.503   0.605   1.267 -0.8038  0.6234  0.6137
   11MOL0     O 1344   1.414   0.698   1.214  0.5426  0.0042  0.1070
   11MOL0     C 1345   1.282   0.659   1.189 -0.0557  0.4233 -0.3971
   11MOL0     C 1346   1.186   0.750   1.133 -0.7452  0.3824 -0.0153
   11MOL0     C 1347   1.055   0.717   1.115 -0.1665  0.1883  0.2182
   11MOL0     C 1348   1.014   0.588   1.146  0.2855  0.4271  0.5771
   11MOL0     C 1349   0.872   0.550   1.134  0.2086  0.7286  0.0398
   11MOL0     O 1350   0.794   0.627   1.047  0.3155  0.4769 -0.3681
   11MOL0     C 1351   0.657   0.600   1.042  0.5044  0.0146 -0.2444
   11MOL0     C 1352   0.569   0.709   1.038 -0.2241 -0.1948 -1.1227
   11MOL0     C 1353   0.431   0.689   1.021 -0.5746  0.2273 -0.1657
   11MOL0     C 1354   0.380   0.559   1.000 -0.1384  0.8784 -0.4167
   11MOL0     O 1355   0.240   0.527   0.983  0.0836 -0.5920 -0.7222
   11MOL0     C 1356   0.154   0.641   0.958  0.2534 -0.1489  0.8047
   11MOL0     C 1357   0.001   0.598   0.953  0.1019 -0.7476 -0.6797
   11MOL0     C 1358  -0.053   0.543   1.079  0.7634 -0.6561 -0.5306
   11MOL0     C 1359  -0.199   0.522   1.061 -0.4394  1.0262 -0.2060
   11MOL0     C 1360  -0.256   0.460   1.193  0.6765  0.0867 -0.3581
   11MOL0     C 1361  -0.403   0.422   1.168 -0.2766  0.3250 -0.3215
   11MOL0     C 1362  -0.464   0.371   1.304  0.2046 -0.2246 -0.1148
   11MOL0     C 1363  -0.591   0.283   1.286  0.4365  0.3492  0.1853
   11MOL0    Cl 1364  -0.640   0.214   1.450 -0.7178  0.2485 -0.3667
   11MOL0     C 1365   0.468   0.455   1.014 -0.3217  0.3639  0.8195
   11MOL0     C 1366   0.608   0.468   1.028 -0.9037  0.0145  0.0606
   11MOL0     O 1367   0.832   0.463   1.203 -0.0780  0.1831  0.7579
   11MOL0     C 1368   1.106   0.493   1.193 -0.1253  0.2041 -0.0948
   11MOL0     C 1369   1.239   0.530   1.210  0.1328 -0.2998  1.5043
   11MOL0     N 1370   1.971   0.641   1.290  0.2384  0.2020 -0.3339
   11MOL0     N 1371   2.053   0.564   1.358  0.1073 -0.0140  0.0962
   11MOL0     C 1372   1.967   0.291   2.340 -0.5707  0.0928 -0.5114
   11MOL0     C 1373   1.837   0.320   2.300 -0.5161  0.3602 -0.3353
   11MOL0     C 1374   1.428   0.286   2.055  0.3041 -0.6578 -0.3073
   11MOL0     C 1375   1.341   0.233   1.956 -0.5839 -0.1752 -0.8820
   11MOL0     C 1376   1.207   0.268   1.964 -0.1484 -0.0897 -0.0877
   11MOL0     C 1377   1.153   0.359   2.055 -0.1880 -0.3093  0.3009
   11MOL0     O 1378   1.028   0.415   2.043 -0.0415 -0.1410  0.5401
   11MOL0     C 1379   0.931   0.339   1.961 -0.0941 -1.0329  0.4453
   11MOL0     C 1380   0.791   0.392   1.978  0.0472 -0.1562  0.7922
   11MOL0     C 1381   0.699   0.287   1.901 -0.3089 -0.6950 -0.8800
   11MOL0     C 1382   0.554   0.319   1.915  0.4780  0.1420 -0.1292
   11MOL0     C 1383   0.474   0.258   1.809  0.2148 -0.6844 -0.1857
   11MOL0     C 1384   0.403   0.215   1.724 -0.1078  0.0340 -0.2866
   11MOL0     C 1385   1.246   0.410   2.151  0.5603 -1.1529  0.3328
   11MOL0     C 1386   1.377   0.369   2.159 -0.2545  0.2553  0.4989
   11MOL0     H 1387   1.774   0.060   2.097 -0.1289 -0.1755 -0.3850
   11MOL0     H 1388   2.012  -0.003   2.181 -0.6363  0.1451 -0.1120
   11MOL0     H 1389   2.231   0.065   2.142  2.9382  0.9662 -2.9520
   11MOL0     H 1390   2.356   0.113   2.242  0.6039  0.4770 -1.0507
   11MOL0     H 1391   2.352   0.346   2.191 -1.1971 -0.0056  1.4979
   11MOL0     H 1392   2.186   0.348   2.149 -0.6486 -1.2262  1.5065
   11MOL0     H 1393   2.228   0.236   1.929  0.0457  1.7723 -0.4315
   11MOL0     H 1394   2.400   0.205   1.984 -1.2524 -2.5526  0.6885
   11MOL0     H 1395   2.268   0.476   1.957  1.3674  1.3945  1.1064
   11MOL0     H 1396   2.430   0.445   1.953  2.8828 -0.7764 -2.6609
   11MOL0     H 1397   2.237   0.349   1.738  0.8445  0.8034 -0.6613
   11MOL0     H 1398   2.409   0.332   1.738 -2.6500 -2.6074 -0.7866
   11MOL0     H 1399   2.439   0.571   1.707 -0.5014  0.5494 -4.2005
   11MOL0     H 1400   2.282   0.614   1.786  0.0058  1.2954 -0.9660
   11MOL0     H 1401   2.291   0.673   1.547  1.3602  0.6820  3.4078
   11MOL0     H 1402   2.312   0.500   1.515  0.7746  1.9626 -0.0488
   11MOL0     H 1403   2.086   0.585   1.687 -1.3402 -2.3460  0.0770
   11MOL0     H 1404   2.103   0.435   1.596 -2.4468 -0.4558 -1.6840
   11MOL0     H 1405   1.942   0.751   1.603  0.5103 -3.5491  1.6442
   11MOL0     H 1406   1.853   0.872   1.238 -0.5947  0.6522 -0.1072
   11MOL0     H 1407   1.835   0.924   1.414 -3.6788 -0.8500  2.0329
   11MOL0     H 1408   1.610   0.881   1.295 -1.0072  0.2925  2.8928
   11MOL0     H 1409   1.650   0.784   1.438  2.5563 -2.8784 -0.1782
   11MOL0     H 1410   1.674   0.676   1.149 -0.8145 -0.4579 -0.3500
   11MOL0     H 1411   1.703   0.585   1.297  1.8843  2.1842  0.2363
   11MOL0     H 1412   1.464   0.588   1.367 -0.7158 -0.2870  0.5068
   11MOL0     H 1413   1.502   0.512   1.209 -2.9456  0.2414  1.2002
   11MOL0     H 1414   1.230   0.847   1.116  1.2159  0.2034  3.1681
   11MOL0     H 1415   0.986   0.791   1.076  1.5980  0.8089 -1.9047
   11MOL0     H 1416   0.606   0.808   1.059  2.6031 -1.4527  0.4775
   11MOL0     H 1417   0.361   0.770   1.038 -0.3156  0.8945 -2.0655
   11MOL0     H 1418   0.179   0.671   0.855  1.1442  0.2614  1.1313
   11MOL0     H 1419   0.153   0.723   1.030 -0.7674 -1.0435  1.8413
   11MOL0     H 1420  -0.019   0.522   0.877  2.3727 -0.9787 -1.1257
   11MOL0     H 1421  -0.056   0.688   0.926  1.0416  0.2456  0.5423
   11MOL0     H 1422  -0.037   0.624   1.151 -1.3274  0.4850 -1.2660
   11MOL0     H 1423   0.000   0.451   1.105  2.0082  0.7728  2.3328
   11MOL0     H 1424  -0.259   0.612   1.048 -0.1676  1.3356  0.6073
   11MOL0     H 1425  -0.211   0.458   0.973  2.6592  0.1478 -0.1092
   11MOL0     H 1426  -0.264   0.534   1.273 -0.9041 -1.4881  1.0244
   11MOL0     H 1427  -0.192   0.374   1.217  1.3207  1.0283  1.4934
   11MOL0     H 1428  -0.396   0.332   1.106 -1.9046 -1.1576  1.4995
   11MOL0     H 1429  -0.466   0.493   1.114 -1.1246 -0.4220 -0.3557
   11MOL0     H 1430  -0.389   0.321   1.366 -0.6673  1.0474  2.1039
   11MOL0     H 1431  -0.498   0.451   1.371 -2.6864 -1.9521  0.6779
   11MOL0     H 1432  -0.549   0.205   1.223 -0.4515 -0.0724  0.0934
   11MOL0     H 1433  -0.672   0.332   1.229  0.3866 -0.1850 -0.2076
   11MOL0     H 1434   0.416   0.359   1.010 -1.5459  1.0390 -1.2796
   11MOL0     H 1435   0.669   0.380   1.041  0.0817  0.7775  0.7210
   11MOL0     H 1436   1.088   0.391   1.224 -1.4008  1.0888  2.3670
   11MOL0     H 1437   1.318   0.462   1.241  0.7873  0.0185  0.5693
   11MOL0     H 1438   2.025   0.365   2.393 -0.6315  0.2720 -0.6946
   11MOL0     H 1439   1.781   0.404   2.341 -0.3103  0.1711  0.3536
   11MOL0     H 1440   1.391   0.177   1.878  1.0284  0.6824 -0.5142
   11MOL0     H 1441   1.144   0.220   1.889  0.8191 -0.5555 -0.6177
   11MOL0     H 1442   0.924   0.234   1.992 -1.3747 -1.0572  0.1511
   11MOL0     H 1443   0.964   0.339   1.857  3.1533 -0.3120  1.3597
   11MOL0     H 1444   0.763   0.406   2.083  0.7462  1.0377  0.8357
   11MOL0     H 1445   0.772   0.486   1.927  0.9518 -2.1333 -3.6004
   11MOL0     H 1446   0.716   0.191   1.950 -0.6948  0.9562  2.8318
   11MOL0     H 1447   0.726   0.284   1.794  0.1434  0.6051 -0.8294
   11MOL0     H 1448   0.525   0.289   2.016  1.7971  2.7685  1.1039
   11MOL0     H 1449   0.535   0.426   1.912  2.7476  0.6034 -2.8728
   11MOL0     H 1450   0.338   0.175   1.648  0.1488  1.7458 -1.4632
   11MOL0     H 1451   1.208   0.481   2.224  1.4025 -2.4121  2.0745
   11MOL0     H 1452   1.436   0.412   2.239  0.0373 -0.1087  0.4814
   12MOL0     O 1453   5.209   6.673   1.503  0.6364 -0.4306 -0.5879
   12MOL0     C 1454   5.152   6.779   1.491 -0.1868 -0.0381 -0.0238
   12MOL0     O 1455   5.110   6.836   1.375 -0.0365 -0.1215 -0.5674
   12MOL0     C 1456   5.129   6.785   1.252 -0.1932 -1.1737 -0.0858
   12MOL0     C 1457   5.017   6.782   1.166 -0.5694 -0.6923  0.4639
   12MOL0     C 1458   5.039   6.736   1.035 -0.4539 -0.1668 -0.7662
   12MOL0     C 1459   5.158   6.687   0.992  0.7343  0.2394  1.1675
   12MOL0     O 1460   5.158   6.615   0.874 -0.2004 -0.3806 -0.2777
   12MOL0     C 1461   5.253   6.499   0.867  0.8624 -1.0047  0.4389
   12MOL0     C 1462   5.347   6.518   0.742 -0.5353 -0.0685  0.5044
   12MOL0     C 1463   5.421   6.391   0.697  0.3749 -0.3171  0.9991
   12MOL0     C 1464   5.528   6.412   0.590  1.0511 -0.1811  0.1937
   12MOL0     C 1465   5.583   6.279   0.536  1.0984 -0.9386 -0.8218
   12MOL0     C 1466   5.676   6.299   0.421 -0.5612  0.0511  0.6927
   12MOL0     C 1467   5.724   6.172   0.351 -0.5566 -0.1974 -0.6308
   12MOL0     C 1468   5.845   6.197   0.253  0.8728  0.2902  0.3824
   12MOL0     N 1469   5.795   6.183   0.112 -0.4198 -0.1880  0.1768
   12MOL0     C 1470   5.720   6.273   0.046  0.4477 -0.6637  0.6148
   12MOL0     C 1471   5.696   6.232  -0.073 -0.7306  0.5497  0.4805
   12MOL0     C 1472   5.643   6.304  -0.194 -0.5554  0.2910  0.8062
   12MOL0     C 1473   5.509   6.368  -0.155  1.4622  0.7123  0.0025
   12MOL0     C 1474   5.396   6.261  -0.137  0.2761 -0.3241 -0.3225
   12MOL0     C 1475   5.342   6.224  -0.277  0.3652 -0.1798  0.1985
   12MOL0     O 1476   5.252   6.334  -0.312  0.1853 -0.1366 -0.0676
   12MOL0     C 1477   5.128   6.293  -0.360 -0.8767  0.2121  0.1751
   12MOL0     C 1478   5.020   6.287  -0.269  0.8359  0.1797 -0.0543
   12MOL0     C 1479   4.899   6.235  -0.319  1.3770  0.7844  0.2582
   12MOL0     C 1480   4.870   6.205  -0.458 -0.3681  1.0244  0.6330
   12MOL0     C 1481   4.737   6.157  -0.518  0.6663 -0.2269  0.1477
   12MOL0     O 1482   4.742   6.086  -0.635 -0.3177  0.0560 -0.3723
   12MOL0     C 1483   4.629   6.031  -0.689 -0.0362 -0.0068 -0.0997
   12MOL0     C 1484   4.597   6.054  -0.826  0.5356 -0.0880  0.3504
   12MOL0     C 1485   4.467   6.021  -0.876 -0.1413 -0.4097 -0.6259
   12MOL0     C 1486   4.376   5.953  -0.793 -0.4576 -0.3542  0.5275
   12MOL0     O 1487   4.257   5.940  -0.853  0.2254 -0.0576  0.1510
   12MOL0     C 1488   4.186   5.819  -0.809 -0.1364 -0.3209  0.2398
   12MOL0     C 1489   4.084   5.785  -0.915  0.0983 -0.7129 -0.2938
   12MOL0     C 1490   3.938   5.828  -0.870 -0.2865  0.5705  0.2273
   12MOL0     C 1491   3.835   5.838  -0.982 -0.0195 -0.5519  0.1460
   12MOL0     C 1492   3.782   5.691  -1.005  0.5686 -0.8068  0.0712
   12MOL0     C 1493   3.666   5.702  -1.102 -0.5165 -0.4665 -0.2575
   12MOL0     C 1494   3.603   5.569  -1.104  0.7233 -0.6659  0.5982
   12MOL0     C 1495   3.519   5.542  -1.232  0.5034  0.4153 -0.3573
   12MOL0    Cl 1496   3.627   5.537  -1.374 -0.3894 -0.2431  0.0956
   12MOL0     C 1497   4.416   5.925  -0.658  0.3723 -0.4692  0.6346
   12MOL0     C 1498   4.538   5.960  -0.607 -0.0860  0.6094  0.3305
   12MOL0     O 1499   4.631   6.190  -0.462 -0.9773  0.2270  0.8415
   12MOL0     C 1500   4.988   6.217  -0.544  0.7182  0.4514  0.1894
   12MOL0     C 1501   5.109   6.254  -0.495 -0.2861 -0.3176 -0.5053
   12MOL0     N 1502   5.769   6.113  -0.081 -0.1906  0.1893 -0.3269
   12MOL0     N 1503   5.817   6.076   0.036 -0.3368  0.1713 -0.1093
   12MOL0     C 1504   5.272   6.699   1.072 -0.3318 -0.1748 -0.2667
   12MOL0     C 1505   5.258   6.744   1.201 -0.0039 -0.4498 -0.1804
   12MOL0     C 1506   5.131   6.860   1.612 -0.0082 -0.1785 -0.2989
   12MOL0     C 1507   5.061   6.985   1.600  0.0653 -0.8041 -0.2210
   12MOL0     C 1508   5.052   7.074   1.710 -0.4462 -0.3616 -0.9284
   12MOL0     C 1509   5.086   7.023   1.838 -0.0237 -0.7781  0.1174
   12MOL0     O 1510   5.060   7.097   1.955  0.3634  0.5828 -0.1531
   12MOL0     C 1511   5.162   7.189   1.981 -0.1161 -0.4032 -0.1308
   12MOL0     C 1512   5.209   7.175   2.125  0.2972  0.2472  0.4740
   12MOL0     C 1513   5.259   7.040   2.174 -0.0686  0.0662  0.7928
   12MOL0     C 1514   5.406   7.009   2.124 -0.4316 -0.0576  0.2508
   12MOL0     C 1515   5.506   7.107   2.176 -0.1083  0.2272 -0.3722
   12MOL0     C 1516   5.583   7.182   2.225 -0.0333  0.2039  0.4273
   12MOL0     C 1517   5.134   6.899   1.852  0.0720  0.3773 -0.4799
   12MOL0     C 1518   5.170   6.818   1.745  0.8597  1.1285  0.7815
   12MOL0     H 1519   4.920   6.813   1.203 -0.0525  0.4593  0.9247
   12MOL0     H 1520   4.954   6.718   0.971 -0.0769  2.1325 -1.9893
   12MOL0     H 1521   5.187   6.417   0.838 -0.0792  0.4426 -1.8187
   12MOL0     H 1522   5.307   6.481   0.960  0.0804 -0.2517  1.0592
   12MOL0     H 1523   5.414   6.599   0.773 -0.3211 -0.5551  1.3415
   12MOL0     H 1524   5.293   6.547   0.651  0.5906 -0.1832 -0.2262
   12MOL0     H 1525   5.348   6.319   0.661  1.0917 -0.2196 -0.7309
   12MOL0     H 1526   5.472   6.347   0.783  0.2977 -0.0028  1.2100
   12MOL0     H 1527   5.491   6.470   0.505  1.1250 -0.7745 -0.2554
   12MOL0     H 1528   5.608   6.476   0.628 -0.5132  3.0489 -1.6072
   12MOL0     H 1529   5.494   6.221   0.511  0.4423 -0.6159  0.6597
   12MOL0     H 1530   5.635   6.225   0.615  2.8591 -0.5336 -1.6534
   12MOL0     H 1531   5.756   6.358   0.467 -1.0218  1.5443 -0.3176
   12MOL0     H 1532   5.626   6.366   0.349  1.2684  0.8269  0.0922
   12MOL0     H 1533   5.768   6.104   0.425  0.1678  0.3941 -0.5053
   12MOL0     H 1534   5.648   6.116   0.297  1.2028 -0.4022 -3.0599
   12MOL0     H 1535   5.922   6.120   0.268  1.0736 -0.0586 -2.0848
   12MOL0     H 1536   5.884   6.298   0.266 -1.9157  1.4777  0.2626
   12MOL0     H 1537   5.687   6.372   0.075 -1.0805 -1.6121  2.3328
   12MOL0     H 1538   5.647   6.230  -0.275  0.5387  0.4230  0.7335
   12MOL0     H 1539   5.706   6.390  -0.217  0.7866 -0.5424  1.2944
   12MOL0     H 1540   5.487   6.436  -0.238 -3.0155 -0.9800 -0.4236
   12MOL0     H 1541   5.518   6.431  -0.067 -2.7239  0.3510  0.8834
   12MOL0     H 1542   5.438   6.172  -0.089  0.6691 -1.0848 -1.9857
   12MOL0     H 1543   5.309   6.295  -0.081  0.1613  0.1556 -0.7801
   12MOL0     H 1544   5.286   6.131  -0.262 -0.0238 -0.0121 -0.1858
   12MOL0     H 1545   5.422   6.202  -0.347 -0.8395  1.2944 -1.7497
   12MOL0     H 1546   5.032   6.314  -0.165 -0.9740  0.5081  0.0959
   12MOL0     H 1547   4.814   6.233  -0.252  2.7231  0.3458  2.0234
   12MOL0     H 1548   4.665   6.110  -0.889 -1.2833 -0.0408 -1.6919
   12MOL0     H 1549   4.438   6.073  -0.967 -1.9298 -0.6471 -0.2258
   12MOL0     H 1550   4.158   5.836  -0.705  1.9754  2.9841  0.4050
   12MOL0     H 1551   4.252   5.733  -0.799  0.1532 -0.3236 -1.3204
   12MOL0     H 1552   4.086   5.677  -0.931  1.1875 -0.5554 -1.3747
   12MOL0     H 1553   4.119   5.832  -1.007  6.2834  2.0215  2.8548
   12MOL0     H 1554   3.945   5.937  -0.857  1.4275  0.9116 -2.5396
   12MOL0     H 1555   3.906   5.774  -0.781 -1.8802  2.1333  0.6555
   12MOL0     H 1556   3.758   5.902  -0.937  1.0984  1.5403 -0.7925
   12MOL0     H 1557   3.881   5.882  -1.070 -2.2073 -0.3596 -0.9698
   12MOL0     H 1558   3.752   5.654  -0.907 -1.2103 -1.8945 -0.8393
   12MOL0     H 1559   3.858   5.623  -1.046  0.3791 -1.3307  0.5800
   12MOL0     H 1560   3.692   5.736  -1.203 -0.7180  2.6072  0.6006
   12MOL0     H 1561   3.597   5.772  -1.054  1.8052  2.2317 -0.5417
   12MOL0     H 1562   3.682   5.493  -1.107  1.7051  0.2612 -3.6705
   12MOL0     H 1563   3.544   5.544  -1.015  1.3677  0.4090  1.3488
   12MOL0     H 1564   3.436   5.613  -1.240  0.4088  0.1332 -2.4039
   12MOL0     H 1565   3.473   5.443  -1.226  0.9971  0.0615 -1.9596
   12MOL0     H 1566   4.348   5.876  -0.588  1.2565 -0.6456  1.3837
   12MOL0     H 1567   4.572   5.939  -0.507  0.5363 -1.0674 -0.2086
   12MOL0     H 1568   4.961   6.184  -0.644 -2.6263 -2.5915  1.8646
   12MOL0     H 1569   5.195   6.256  -0.562  2.1289 -0.7110  2.3800
   12MOL0     H 1570   5.366   6.658   1.036 -1.3079 -1.1679 -1.8172
   12MOL0     H 1571   5.344   6.758   1.265  0.1579  1.6193 -0.7867
   12MOL0     H 1572   5.023   7.004   1.501  0.7907 -1.8996 -0.7317
   12MOL0     H 1573   5.004   7.171   1.703 -2.7515 -1.3667 -0.0801
   12MOL0     H 1574   5.132   7.291   1.953 -1.9001 -0.9905 -0.5158
   12MOL0     H 1575   5.254   7.172   1.925 -0.4659 -1.6184 -0.3640
   12MOL0     H 1576   5.289   7.249   2.142  0.5676  0.2425 -0.6815
   12MOL0     H 1577   5.121   7.205   2.183 -0.6053  0.1035 -0.7806
   12MOL0     H 1578   5.199   6.960   2.130  2.6859 -0.6380 -2.1151
   12MOL0     H 1579   5.252   7.041   2.283 -0.4464  3.5052  0.8375
   12MOL0     H 1580   5.428   6.906   2.151 -1.9016 -0.0919  1.4127
   12MOL0     H 1581   5.408   7.000   2.015 -2.5388  2.0257 -0.0495
   12MOL0     H 1582   5.658   7.244   2.269 -3.1457  2.8210  2.5309
   12MOL0     H 1583   5.164   6.864   1.950 -1.3490  0.0377 -0.1446
   12MOL0     H 1584   5.224   6.726   1.764  0.5666  0.6958 -0.4285
   13MOL0     O 1585   9.880   9.612   6.786  0.1640 -0.3309 -0.8155
   13MOL0     C 1586   9.954   9.558   6.863  0.3315 -0.2856  0.8433
   13MOL0     O 1587   9.929   9.434   6.924 -0.3368  0.2436  0.0334
   13MOL0     C 1588   9.801   9.387   6.909 -0.4612  0.1560 -0.2898
   13MOL0     C 1589   9.699   9.435   6.992  0.2954 -0.2150  0.0854
   13MOL0     C 1590   9.568   9.392   6.969  0.4137  1.1075  0.5672
   13MOL0     C 1591   9.535   9.280   6.874 -0.1983  0.0286 -0.7423
   13MOL0     O 1592   9.404   9.230   6.866  0.0962  0.0453  0.0340
   13MOL0     C 1593   9.308   9.301   6.783  1.0767  0.5898 -0.5705
   13MOL0     C 1594   9.211   9.197   6.712  0.1809 -0.8513 -0.4924
   13MOL0     C 1595   9.118   9.113   6.804  0.9276  0.0039 -0.6853
   13MOL0     C 1596   9.032   9.012   6.723 -0.0010  0.0687 -0.2991
   13MOL0     C 1597   8.938   8.931   6.822  0.1206  0.2013  0.2164
   13MOL0     C 1598   8.850   9.029   6.902  1.2346 -0.7807  0.3314
   13MOL0     C 1599   8.738   8.960   6.983  0.0522  0.0551  0.4745
   13MOL0     C 1600   8.604   9.037   6.978 -0.2904  0.8859 -0.1657
   13MOL0     N 1601   8.503   8.985   7.075 -0.3616 -0.7400 -0.8890
   13MOL0     C 1602   8.419   8.895   7.041  0.0169  0.7682 -0.1781
   13MOL0     C 1603   8.350   8.857   7.153 -0.1043 -0.3007  0.2872
   13MOL0     C 1604   8.228   8.761   7.149  0.9583  0.3378  0.4428
   13MOL0     C 1605   8.092   8.831   7.186  0.2255  0.1787 -0.2540
   13MOL0     C 1606   7.980   8.724   7.211  0.4952 -0.1861 -0.3074
   13MOL0     C 1607   7.839   8.783   7.234 -0.5744 -0.0193 -0.1553
   13MOL0     O 1608   7.772   8.683   7.302  0.2556  0.3203  0.1168
   13MOL0     C 1609   7.632   8.674   7.299 -0.2041  1.3874  0.8295
   13MOL0     C 1610   7.562   8.573   7.374 -0.7009  0.7572  0.4885
   13MOL0     C 1611   7.422   8.563   7.382 -0.7957 -0.5540  0.0824
   13MOL0     C 1612   7.332   8.661   7.319 -0.1903 -0.1182 -1.4045
   13MOL0     C 1613   7.181   8.653   7.330  0.4892  0.4663 -0.2334
   13MOL0     O 1614   7.120   8.772   7.297 -0.1447  0.0449 -0.7840
   13MOL0     C 1615   6.985   8.780   7.293  0.9024  1.1956  0.1963
   13MOL0     C 1616   6.931   8.834   7.177  0.1684  0.1349 -0.1954
   13MOL0     C 1617   6.791   8.827   7.149 -0.1575  0.5161 -0.1294
   13MOL0     C 1618   6.698   8.768   7.243  0.8760 -0.3913 -0.1011
   13MOL0     O 1619   6.559   8.757   7.232 -0.1106  0.6195 -0.2921
   13MOL0     C 1620   6.500   8.813   7.114  0.1844 -0.3272 -0.0974
   13MOL0     C 1621   6.349   8.812   7.132  0.0481 -0.2499  0.3351
   13MOL0     C 1622   6.283   8.921   7.044  0.3564 -0.3341 -0.4522
   13MOL0     C 1623   6.135   8.927   7.067 -0.2332 -0.3787  0.2329
   13MOL0     C 1624   6.049   8.975   6.937  0.1613  0.2840  0.3254
   13MOL0     C 1625   5.895   8.989   6.962  0.6641 -0.3355 -0.5011
   13MOL0     C 1626   5.841   8.867   7.038 -0.0998  0.2565  0.1825
   13MOL0     C 1627   5.692   8.884   7.060 -0.4501 -0.1379  0.2098
   13MOL0    Cl 1628   5.608   8.798   6.921 -0.0266  0.1316 -0.3836
   13MOL0     C 1629   6.757   8.721   7.362  0.0233  0.0396 -0.5315
   13MOL0     C 1630   6.897   8.719   7.383  0.1788 -0.2190 -0.1051
   13MOL0     O 1631   7.122   8.547   7.363 -0.0494  0.1991 -0.3224
   13MOL0     C 1632   7.402   8.765   7.245 -0.9493  0.6427  1.3726
   13MOL0     C 1633   7.546   8.762   7.228  0.4804  0.5169 -1.4525
   13MOL0     N 1634   8.400   8.920   7.265 -0.6212  0.9045 -0.2922
   13MOL0     N 1635   8.499   8.993   7.214  0.5176  0.3714 -0.1466
   13MOL0     C 1636   9.648   9.213   6.817  0.3544  0.2654 -0.4825
   13MOL0     C 1637   9.774   9.270   6.830  0.5791 -0.3434 -1.2646
   13MOL0     C 1638  10.069   9.631   6.913 -0.1810 -0.6842  0.0624
   13MOL0     C 1639  10.144   9.581   7.020 -0.3947 -0.4884 -0.2227
   13MOL0     C 1640  10.263   9.640   7.061  0.1293  0.2954  0.9137
   13MOL0     C 1641  10.306   9.759   7.003 -0.4493  0.6978  0.0487
   13MOL0     O 1642  10.424   9.820   7.058 -0.0606  0.6272  0.3356
   13MOL0     C 1643  10.489   9.923   6.977  0.6856  0.2868  0.0486
   13MOL0     C 1644  10.569   9.855   6.867  0.0592 -0.0329 -0.7995
   13MOL0     C 1645  10.643   9.727   6.895  0.4517  0.3207 -0.2938
   13MOL0     C 1646  10.676   9.654   6.763  0.0054 -0.1849  0.6914
   13MOL0     C 1647  10.735   9.750   6.670  1.3012 -0.0108  0.2742
   13MOL0     C 1648  10.771   9.828   6.585 -0.3478  0.8963 -0.1375
   13MOL0     C 1649  10.227   9.816   6.903 -0.1978 -0.3195  0.0323
   13MOL0     C 1650  10.108   9.749   6.860  0.1785 -0.8365  0.3159
   13MOL0     H 1651   9.717   9.515   7.063 -2.5121  1.4881 -0.9443
   13MOL0     H 1652   9.490   9.429   7.034  0.8116 -1.4364  2.6670
   13MOL0     H 1653   9.346   9.365   6.702 -0.2034  3.1812  0.7475
   13MOL0     H 1654   9.239   9.364   6.840  0.3469  0.1824 -0.9992
   13MOL0     H 1655   9.270   9.128   6.651 -1.2518 -1.6264 -1.0726
   13MOL0     H 1656   9.150   9.260   6.647 -0.3324 -0.4376  0.3726
   13MOL0     H 1657   9.060   9.188   6.858  2.3821 -0.5481  1.8065
   13MOL0     H 1658   9.189   9.068   6.874  2.9808  3.3322 -0.4279
   13MOL0     H 1659   8.953   9.057   6.661 -2.7451 -3.2268  0.4755
   13MOL0     H 1660   9.089   8.944   6.660  1.2631 -1.1614  2.0589
   13MOL0     H 1661   9.005   8.884   6.895 -0.3850 -0.0847  0.5011
   13MOL0     H 1662   8.875   8.865   6.761 -0.0257  3.4745 -3.6003
   13MOL0     H 1663   8.797   9.092   6.830  0.0717 -3.1691 -1.0461
   13MOL0     H 1664   8.907   9.094   6.969 -1.4236  2.1159 -0.0099
   13MOL0     H 1665   8.718   8.859   6.943 -0.0659  0.2910 -0.0781
   13MOL0     H 1666   8.766   8.945   7.087 -1.0865 -5.1584  0.3151
   13MOL0     H 1667   8.565   9.028   6.876  3.0521 -1.1684 -1.4251
   13MOL0     H 1668   8.623   9.141   7.004 -0.2274  0.4751  1.5223
   13MOL0     H 1669   8.386   8.864   6.942 -2.7945  2.4658  0.1320
   13MOL0     H 1670   8.246   8.679   7.219 -0.5126  0.2448  0.7545
   13MOL0     H 1671   8.218   8.706   7.055  0.0253 -1.0243  1.2936
   13MOL0     H 1672   8.063   8.902   7.108  1.0690 -1.3636 -2.0469
   13MOL0     H 1673   8.115   8.884   7.279 -0.3276  1.9935 -1.1026
   13MOL0     H 1674   7.979   8.648   7.133  1.3646 -1.8819  1.2465
   13MOL0     H 1675   8.005   8.672   7.304  0.0707  1.5577  0.8422
   13MOL0     H 1676   7.793   8.813   7.140  0.0633  0.9728 -0.1665
   13MOL0     H 1677   7.845   8.865   7.306 -0.8705 -0.5851  0.5246
   13MOL0     H 1678   7.611   8.497   7.434 -0.4640  0.2638 -0.3094
   13MOL0     H 1679   7.380   8.476   7.433 -1.4162  0.0652  0.6596
   13MOL0     H 1680   6.996   8.872   7.099  3.3135  0.4261  2.3327
   13MOL0     H 1681   6.755   8.886   7.066 -2.6633 -0.5671  0.1146
   13MOL0     H 1682   6.539   8.766   7.024  1.6982 -2.7277  1.6725
   13MOL0     H 1683   6.531   8.918   7.111  0.7725 -0.5193 -1.0880
   13MOL0     H 1684   6.317   8.821   7.236  0.4811 -3.5213  0.8748
   13MOL0     H 1685   6.317   8.713   7.096 -0.2166 -0.5588  1.3974
   13MOL0     H 1686   6.300   8.886   6.941  1.1794  0.4727 -0.6017
   13MOL0     H 1687   6.342   9.010   7.065 -1.3323  0.7672 -0.2394
   13MOL0     H 1688   6.099   8.824   7.082  1.1368 -0.9743 -0.4036
   13MOL0     H 1689   6.111   8.973   7.163  2.0667  2.3417 -0.4006
   13MOL0     H 1690   6.054   8.913   6.847  0.1428  2.8439 -1.5491
   13MOL0     H 1691   6.083   9.073   6.901 -0.6142  0.5352  0.2651
   13MOL0     H 1692   5.831   9.002   6.874 -3.2450  1.6882  2.3307
   13MOL0     H 1693   5.876   9.083   7.016  1.9032  0.4563 -1.3761
   13MOL0     H 1694   5.862   8.775   6.983  0.6989 -0.9132  2.3238
   13MOL0     H 1695   5.890   8.855   7.135 -1.8753  0.4031  1.1228
   13MOL0     H 1696   5.670   8.991   7.065  0.5738  0.0975 -0.0899
   13MOL0     H 1697   5.655   8.833   7.149  1.2826 -0.9145  0.5119
   13MOL0     H 1698   6.694   8.670   7.433  0.6986  0.0184  0.0596
   13MOL0     H 1699   6.934   8.674   7.474  1.2967 -2.2384 -1.4683
   13MOL0     H 1700   7.354   8.841   7.184  1.3804 -1.0914 -3.0380
   13MOL0     H 1701   7.586   8.844   7.169  1.1964 -1.0153 -3.2079
   13MOL0     H 1702   9.642   9.118   6.764 -0.9201 -1.7424  2.9050
   13MOL0     H 1703   9.852   9.205   6.794  1.6331  0.9073 -1.2900
   13MOL0     H 1704  10.113   9.486   7.063  1.2685 -0.1942  1.7924
   13MOL0     H 1705  10.339   9.601   7.128 -0.5670 -0.0706  1.4955
   13MOL0     H 1706  10.556   9.981   7.043 -0.6376  0.0967  1.6154
   13MOL0     H 1707  10.417   9.993   6.933  1.3325  0.8594 -0.1242
   13MOL0     H 1708  10.495   9.834   6.790 -0.1188  0.8444 -0.8651
   13MOL0     H 1709  10.644   9.927   6.834  1.4316 -2.6491 -3.9759
   13MOL0     H 1710  10.592   9.654   6.959 -0.0585 -0.9726 -2.1094
   13MOL0     H 1711  10.735   9.759   6.944 -0.6990  0.8148  1.6665
   13MOL0     H 1712  10.746   9.572   6.780  0.8458  0.4678  0.3912
   13MOL0     H 1713  10.582   9.617   6.721 -0.6875  0.8069  1.3039
   13MOL0     H 1714  10.800   9.897   6.508 -1.5592  1.8492  0.2356
   13MOL0     H 1715  10.246   9.911   6.856  2.0074 -0.6718  0.1089
   13MOL0     H 1716  10.068   9.807   6.777 -0.7776  2.4826  2.8567
   14MOL0     O 1717   4.893   1.796   1.707 -0.0972  0.6491  0.3651
   14MOL0     C 1718   4.809   1.831   1.620  0.4452  0.2913 -0.5201
   14MOL0     O 1719   4.831   1.873   1.499 -1.1952  0.4811  0.0434
   14MOL0     C 1720   4.963   1.856   1.452  0.6204 -0.3910 -0.0345
   14MOL0     C 1721   4.977   1.806   1.324  0.5531  0.3093  0.7393
   14MOL0     C 1722   5.098   1.813   1.263  0.6407 -0.1516  0.1082
   14MOL0     C 1723   5.202   1.877   1.326  1.0817  0.9096 -0.1981
   14MOL0     O 1724   5.318   1.885   1.261 -0.1967  0.4787  0.0910
   14MOL0     C 1725   5.427   1.969   1.298  0.0327  0.2068  0.0478
   14MOL0     C 1726   5.545   1.939   1.208 -0.4079  0.4963 -1.2932
   14MOL0     C 1727   5.506   1.982   1.067 -0.3223  0.0004 -0.8267
   14MOL0     C 1728   5.619   1.976   0.965 -0.2691 -0.2808  0.4901
   14MOL0     C 1729   5.569   1.993   0.825  1.5568  0.2604  0.4668
   14MOL0     C 1730   5.665   1.944   0.717  0.0138 -0.2393  0.3295
   14MOL0     C 1731   5.618   1.933   0.566  0.0219  0.3387 -0.1141
   14MOL0     C 1732   5.484   1.853   0.539 -0.2197  0.2668  0.1222
   14MOL0     N 1733   5.512   1.782   0.409  0.2370 -0.1401  0.1614
   14MOL0     C 1734   5.553   1.654   0.393 -0.3516 -0.1419 -0.3338
   14MOL0     C 1735   5.576   1.647   0.261 -0.6633  0.6816 -0.3650
   14MOL0     C 1736   5.633   1.524   0.192  0.3100 -0.1885 -0.6535
   14MOL0     C 1737   5.784   1.529   0.196 -0.1245  0.2346 -0.8260
   14MOL0     C 1738   5.856   1.515   0.063 -0.2094 -0.4782  0.2997
   14MOL0     C 1739   5.998   1.565   0.075  0.7354  0.4154  0.3524
   14MOL0     O 1740   6.075   1.494   0.174  0.0745  0.9356  0.7044
   14MOL0     C 1741   6.190   1.564   0.196  0.2197  0.2373  0.0561
   14MOL0     C 1742   6.200   1.664   0.290  0.5608  0.3613 -0.0728
   14MOL0     C 1743   6.333   1.710   0.319  0.1775  0.1533 -0.8075
   14MOL0     C 1744   6.445   1.675   0.247  0.0887 -0.4543  0.6499
   14MOL0     C 1745   6.587   1.729   0.283 -0.5224  1.2189 -0.7682
   14MOL0     O 1746   6.698   1.698   0.203  0.1161 -0.2371 -0.2887
   14MOL0     C 1747   6.826   1.736   0.245  1.0462 -0.0693  0.2234
   14MOL0     C 1748   6.865   1.859   0.307 -0.0443  0.1782  0.4093
   14MOL0     C 1749   6.992   1.880   0.343 -0.8516 -0.3578  0.5218
   14MOL0     C 1750   7.094   1.785   0.320 -0.1125  0.3078 -0.6420
   14MOL0     O 1751   7.217   1.817   0.376 -0.0603 -0.1123  0.4570
   14MOL0     C 1752   7.324   1.725   0.344  0.2784  0.0670 -0.0902
   14MOL0     C 1753   7.359   1.745   0.191  0.8420 -0.0770 -0.0742
   14MOL0     C 1754   7.457   1.643   0.135  0.3795 -0.5927  0.2300
   14MOL0     C 1755   7.603   1.658   0.195  0.5967 -0.0001  0.5347
   14MOL0     C 1756   7.683   1.549   0.132  0.3921  0.2157 -0.2816
   14MOL0     C 1757   7.812   1.546   0.211  0.1859  0.2068 -0.2180
   14MOL0     C 1758   7.924   1.455   0.154  0.1611  0.0475 -0.6782
   14MOL0     C 1759   7.964   1.481   0.002 -0.0730  0.0564 -0.0467
   14MOL0    Cl 1760   8.008   1.657   0.007  0.0708 -0.2234 -0.1794
   14MOL0     C 1761   7.052   1.663   0.262 -0.5710 -0.5571  0.2654
   14MOL0     C 1762   6.919   1.637   0.223  0.5327  0.3156 -0.2654
   14MOL0     O 1763   6.595   1.791   0.386 -0.0252  0.2962  0.1013
   14MOL0     C 1764   6.431   1.596   0.134  0.2301  0.3813 -0.2088
   14MOL0     C 1765   6.305   1.530   0.116  0.1063 -0.9118  0.0088
   14MOL0     N 1766   5.547   1.769   0.192 -0.1278  0.2766 -0.3095
   14MOL0     N 1767   5.497   1.842   0.285  0.2070 -0.8994 -0.1559
   14MOL0     C 1768   5.182   1.927   1.450  0.0834  0.2897 -0.7402
   14MOL0     C 1769   5.064   1.922   1.515 -0.1692  0.0077 -0.6844
   14MOL0     C 1770   4.664   1.842   1.663 -0.8890 -0.5196 -0.1241
   14MOL0     C 1771   4.634   1.811   1.794  0.5550  0.4691 -0.8274
   14MOL0     C 1772   4.498   1.807   1.825  0.3399  0.0728 -1.1797
   14MOL0     C 1773   4.395   1.858   1.742 -0.4794 -0.2690 -0.1945
   14MOL0     O 1774   4.273   1.866   1.792  0.5141  0.2789  0.6509
   14MOL0     C 1775   4.166   1.906   1.712 -0.2333  0.7136  0.0263
   14MOL0     C 1776   4.122   1.766   1.646 -0.7181 -0.4549  0.3646
   14MOL0     C 1777   4.087   1.641   1.743  0.7142 -0.2927 -0.1617
   14MOL0     C 1778   4.086   1.500   1.671  0.3988  0.7907 -0.1237
   14MOL0     C 1779   3.976   1.492   1.576  0.3669 -0.6873  1.0501
   14MOL0     C 1780   3.874   1.455   1.517  0.6351 -0.9298  0.1710
   14MOL0     C 1781   4.441   1.922   1.623 -0.5376 -0.3895 -0.5866
   14MOL0     C 1782   4.572   1.898   1.580  0.3022 -0.2404  0.2159
   14MOL0     H 1783   4.887   1.770   1.276 -0.0347  1.4648  0.9327
   14MOL0     H 1784   5.122   1.774   1.165  1.4132  2.4640 -0.8215
   14MOL0     H 1785   5.453   1.945   1.401 -0.1039 -0.6273 -0.1020
   14MOL0     H 1786   5.410   2.077   1.308  4.6373  1.3895 -2.1614
   14MOL0     H 1787   5.567   1.832   1.196  2.5193  1.0011 -1.2170
   14MOL0     H 1788   5.639   1.990   1.234  0.5137  0.2351 -3.7873
   14MOL0     H 1789   5.464   2.083   1.064  1.8588  0.9394 -1.7644
   14MOL0     H 1790   5.420   1.921   1.039 -0.0850 -0.1178 -1.2996
   14MOL0     H 1791   5.694   2.052   0.989 -1.4884  0.8987  0.7566
   14MOL0     H 1792   5.671   1.880   0.971 -1.7491 -1.0890  1.0962
   14MOL0     H 1793   5.539   2.097   0.805 -1.5630 -0.6822 -0.4556
   14MOL0     H 1794   5.477   1.933   0.822  1.7803 -0.0914  0.6953
   14MOL0     H 1795   5.701   1.845   0.748  1.2864 -0.1672 -0.8203
   14MOL0     H 1796   5.750   2.012   0.721 -0.2457  0.0283  1.8919
   14MOL0     H 1797   5.609   2.033   0.524  0.7897  0.4697  0.0227
   14MOL0     H 1798   5.700   1.889   0.508  1.1711 -1.1412  2.4361
   14MOL0     H 1799   5.397   1.919   0.544  0.3206  1.0581 -0.6281
   14MOL0     H 1800   5.475   1.782   0.622  1.5380  0.7190  0.7589
   14MOL0     H 1801   5.569   1.583   0.474 -0.2135 -0.1275 -0.3468
   14MOL0     H 1802   5.599   1.536   0.089  0.9111 -1.1734 -0.9831
   14MOL0     H 1803   5.602   1.423   0.224  1.2378 -1.0376 -2.3015
   14MOL0     H 1804   5.822   1.446   0.256 -1.9914  1.2554  2.0255
   14MOL0     H 1805   5.817   1.618   0.252  0.4306  0.6255 -1.7496
   14MOL0     H 1806   5.855   1.412   0.026 -2.0919 -0.3016 -0.2201
   14MOL0     H 1807   5.804   1.566  -0.019 -0.9857 -2.8778 -0.7919
   14MOL0     H 1808   5.983   1.671   0.097  0.1623  0.2748  0.6384
   14MOL0     H 1809   6.047   1.554  -0.022  2.3735  1.4845  1.0101
   14MOL0     H 1810   6.114   1.698   0.347  1.1497 -1.0811  1.7786
   14MOL0     H 1811   6.330   1.777   0.405  1.7801  0.0202 -0.6182
   14MOL0     H 1812   6.782   1.927   0.326  2.2662  2.4122  3.5542
   14MOL0     H 1813   7.025   1.974   0.387 -0.3871 -0.1334 -0.2786
   14MOL0     H 1814   7.296   1.625   0.376  0.2582  0.5462  1.4681
   14MOL0     H 1815   7.417   1.743   0.397 -0.1320  1.0664  0.3197
   14MOL0     H 1816   7.404   1.844   0.184  0.1045  0.1963 -1.1150
   14MOL0     H 1817   7.275   1.755   0.121  0.4281 -1.9243  0.1107
   14MOL0     H 1818   7.470   1.648   0.027  0.1062 -0.8007  0.1876
   14MOL0     H 1819   7.413   1.545   0.158  0.4652 -0.4840  0.8808
   14MOL0     H 1820   7.651   1.755   0.177  2.6440 -0.8355  1.1507
   14MOL0     H 1821   7.603   1.640   0.303  1.9853 -3.1344  0.1482
   14MOL0     H 1822   7.712   1.570   0.029 -0.3670  1.0053 -0.3494
   14MOL0     H 1823   7.629   1.454   0.126 -0.3569  0.5018  1.3157
   14MOL0     H 1824   7.785   1.496   0.305 -1.8378 -0.3519 -1.0357
   14MOL0     H 1825   7.853   1.645   0.234 -0.4141  0.5266 -0.5054
   14MOL0     H 1826   8.014   1.468   0.215 -0.7365 -0.5929  0.8184
   14MOL0     H 1827   7.896   1.351   0.168 -0.5095  0.3157  0.0294
   14MOL0     H 1828   7.875   1.471  -0.061 -0.6275  1.2221  0.5365
   14MOL0     H 1829   8.051   1.427  -0.038  1.7202  1.6540  1.4729
   14MOL0     H 1830   7.111   1.586   0.212 -3.0235 -1.8795 -0.8111
   14MOL0     H 1831   6.895   1.544   0.172 -0.8457  0.6086 -0.1839
   14MOL0     H 1832   6.520   1.573   0.075  0.5764  0.5201  0.2506
   14MOL0     H 1833   6.292   1.457   0.037  0.2272 -3.0426  1.8775
   14MOL0     H 1834   5.264   1.976   1.502 -0.3661 -0.6595  0.9663
   14MOL0     H 1835   5.047   1.959   1.616  0.1699  0.7563 -0.8953
   14MOL0     H 1836   4.700   1.755   1.859 -1.9458 -2.6439 -0.7367
   14MOL0     H 1837   4.467   1.768   1.922  0.4289  1.0031 -0.7733
   14MOL0     H 1838   4.199   1.974   1.633 -1.3135 -0.5249 -1.5560
   14MOL0     H 1839   4.098   1.953   1.784 -1.0062 -0.0805 -0.1746
   14MOL0     H 1840   4.036   1.784   1.581  0.5846  4.4374 -0.4034
   14MOL0     H 1841   4.203   1.744   1.576  0.5918 -2.1162  2.2855
   14MOL0     H 1842   3.984   1.650   1.780 -0.8075 -4.2111 -2.7838
   14MOL0     H 1843   4.159   1.621   1.824 -2.8679 -2.0388  2.9274
   14MOL0     H 1844   4.178   1.487   1.614  1.3599 -3.0825  1.9401
   14MOL0     H 1845   4.085   1.421   1.747  2.0454  1.8008  1.0088
   14MOL0     H 1846   3.786   1.409   1.479  0.8269 -0.8019 -0.4348
   14MOL0     H 1847   4.381   1.975   1.550 -0.4766 -2.3222 -2.1323
   14MOL0     H 1848   4.609   1.928   1.483 -2.6870 -0.5009 -1.1217
   15MOL0     O 1849   8.067   7.642   4.493  0.0933  1.1717 -0.7809
   15MOL0     C 1850   8.003   7.590   4.407  0.3319 -0.5974 -0.1052
   15MOL0     O 1851   8.054   7.548   4.290  1.2346 -0.1684  0.4578
   15MOL0     C 1852   8.189   7.530   4.263  1.0983  0.1057 -0.3785
   15MOL0     C 1853   8.268   7.454   4.342  0.0583 -0.2447  0.5063
   15MOL0     C 1854   8.399   7.424   4.302 -0.2984 -0.0109  0.8451
   15MOL0     C 1855   8.448   7.466   4.181  0.0791  0.3695 -1.3568
   15MOL0     O 1856   8.578   7.429   4.149  0.2700 -0.4314 -0.0344
   15MOL0     C 1857   8.641   7.510   4.044 -0.3839  1.0134 -0.0055
   15MOL0     C 1858   8.789   7.485   4.017  0.9126  0.4427 -0.3125
   15MOL0     C 1859   8.821   7.350   3.973  0.6678 -0.2791  1.1229
   15MOL0     C 1860   8.963   7.342   3.924 -0.4517 -0.1847  0.4783
   15MOL0     C 1861   9.026   7.199   3.921  0.3463 -0.2792 -0.6317
   15MOL0     C 1862   8.957   7.100   3.836  0.7144  0.3319  0.6892
   15MOL0     C 1863   9.034   6.966   3.839 -0.1781  0.6655  0.0654
   15MOL0     C 1864   9.021   6.880   3.711 -0.5597 -0.7667 -0.3159
   15MOL0     N 1865   8.887   6.829   3.681 -0.1842 -0.1309  1.0161
   15MOL0     C 1866   8.778   6.901   3.634  0.8963 -0.4171 -0.0061
   15MOL0     C 1867   8.684   6.806   3.611 -0.6345  0.9929  0.6379
   15MOL0     C 1868   8.545   6.846   3.567  0.6407  0.3993 -0.3501
   15MOL0     C 1869   8.455   6.835   3.689 -0.7495  0.0019 -0.4019
   15MOL0     C 1870   8.345   6.940   3.696  0.1725 -0.2011 -0.3805
   15MOL0     C 1871   8.206   6.901   3.636  0.1681 -0.4878 -1.1302
   15MOL0     O 1872   8.109   6.995   3.700 -0.8616  0.5659 -1.1863
   15MOL0     C 1873   7.978   6.960   3.697  0.7210 -0.0923 -0.7598
   15MOL0     C 1874   7.922   6.854   3.633  0.5984 -0.4722  0.3503
   15MOL0     C 1875   7.788   6.828   3.655  0.5963  0.1819  0.0344
   15MOL0     C 1876   7.703   6.919   3.717  0.1305 -0.0797 -0.0443
   15MOL0     C 1877   7.557   6.897   3.724  0.0968 -0.2971  0.8432
   15MOL0     O 1878   7.482   7.003   3.770  0.8118  0.0277 -0.6945
   15MOL0     C 1879   7.340   6.998   3.778 -0.0530  0.3297 -0.2414
   15MOL0     C 1880   7.246   6.902   3.735  0.2534 -0.0282 -1.1953
   15MOL0     C 1881   7.105   6.927   3.747  0.4382 -0.1822 -0.3935
   15MOL0     C 1882   7.056   7.038   3.811 -0.1474  0.1431 -1.0762
   15MOL0     O 1883   6.917   7.052   3.824 -0.0199  0.2703 -0.5492
   15MOL0     C 1884   6.852   7.106   3.934 -0.7732  0.0444  0.0577
   15MOL0     C 1885   6.705   7.106   3.929 -0.0779  0.4054 -0.5010
   15MOL0     C 1886   6.650   6.974   3.979  0.7083  1.0441 -0.3937
   15MOL0     C 1887   6.502   6.959   3.939 -0.8287 -0.5144  0.0025
   15MOL0     C 1888   6.458   6.819   3.995  0.0656 -0.0654 -0.4642
   15MOL0     C 1889   6.308   6.823   4.019  0.1884  0.3050 -0.1005
   15MOL0     C 1890   6.278   6.708   4.107  0.5948 -0.2722  0.9727
   15MOL0     C 1891   6.119   6.691   4.105  1.0410  0.4343  0.2685
   15MOL0    Cl 1892   6.097   6.556   4.211  0.0230  0.2155  0.1430
   15MOL0     C 1893   7.152   7.131   3.869 -0.1023  0.0014  0.2037
   15MOL0     C 1894   7.290   7.106   3.848 -0.2413  0.3229  0.1842
   15MOL0     O 1895   7.520   6.784   3.699 -0.2687 -0.0545 -0.0911
   15MOL0     C 1896   7.758   7.039   3.772  0.2018  0.9137 -0.2788
   15MOL0     C 1897   7.901   7.056   3.765  0.3403 -0.7181 -0.1137
   15MOL0     N 1898   8.737   6.679   3.620 -0.4763 -0.3714 -0.2841
   15MOL0     N 1899   8.858   6.694   3.659 -0.1405 -0.6779 -0.6593
   15MOL0     C 1900   8.364   7.556   4.105 -0.5282 -0.0053 -0.2724
   15MOL0     C 1901   8.240   7.586   4.148  0.5530 -0.1483 -0.3140
   15MOL0     C 1902   7.853   7.574   4.416  0.8496 -0.4595  0.2537
   15MOL0     C 1903   7.780   7.512   4.307 -0.8562 -0.2497  0.4649
   15MOL0     C 1904   7.644   7.495   4.323 -0.4169 -0.1970  0.9531
   15MOL0     C 1905   7.575   7.549   4.430  0.4518 -0.3337 -1.2096
   15MOL0     O 1906   7.444   7.509   4.430  0.1737  0.5456 -0.0273
   15MOL0     C 1907   7.356   7.537   4.542  0.0205 -0.0385 -0.2043
   15MOL0     C 1908   7.234   7.590   4.480  0.0945 -0.6604 -0.4928
   15MOL0     C 1909   7.107   7.602   4.571 -0.4921  0.9730 -0.0353
   15MOL0     C 1910   7.138   7.622   4.725 -0.3009  0.0409  0.3550
   15MOL0     C 1911   7.161   7.486   4.784  0.3786  0.5863  0.3293
   15MOL0     C 1912   7.198   7.394   4.848 -0.5454  1.0278  0.8965
   15MOL0     C 1913   7.640   7.622   4.533  0.2738 -0.3262 -0.1542
   15MOL0     C 1914   7.780   7.627   4.526  0.4359  0.3562 -0.3695
   15MOL0     H 1915   8.238   7.422   4.441 -2.1498 -0.4661 -0.1937
   15MOL0     H 1916   8.456   7.360   4.369 -1.6576 -1.8272  0.3755
   15MOL0     H 1917   8.630   7.615   4.072 -2.5458  1.4098 -2.0646
   15MOL0     H 1918   8.592   7.485   3.950 -0.7248 -2.9632  1.0441
   15MOL0     H 1919   8.819   7.491   4.122 -1.8998  1.3629  0.5537
   15MOL0     H 1920   8.830   7.557   3.946  1.4001 -0.6231 -1.1241
   15MOL0     H 1921   8.751   7.329   3.892 -0.2510 -0.1955  1.8701
   15MOL0     H 1922   8.801   7.283   4.057 -2.2938  0.2703  0.9780
   15MOL0     H 1923   8.955   7.375   3.820  0.0136 -3.4323 -0.7289
   15MOL0     H 1924   9.033   7.405   3.979 -0.0590 -0.4929  0.3417
   15MOL0     H 1925   9.023   7.166   4.025  0.3178 -1.7728 -1.0928
   15MOL0     H 1926   9.128   7.208   3.883 -0.5049  1.5852 -2.6421
   15MOL0     H 1927   8.952   7.139   3.734 -0.0742  2.4328  1.4739
   15MOL0     H 1928   8.854   7.098   3.871  1.3601 -1.4484  2.6972
   15MOL0     H 1929   9.142   6.977   3.834 -0.1663  0.0978 -2.9591
   15MOL0     H 1930   9.000   6.906   3.924 -0.0443  1.3120  0.5806
   15MOL0     H 1931   9.093   6.799   3.725  0.5842  0.3825  0.7265
   15MOL0     H 1932   9.062   6.932   3.624 -3.3695  2.7088  0.1828
   15MOL0     H 1933   8.776   7.009   3.633  0.0599 -0.3994 -2.0504
   15MOL0     H 1934   8.508   6.784   3.484 -2.3643  0.8382  0.5387
   15MOL0     H 1935   8.548   6.948   3.527  1.0214 -0.7258 -3.5402
   15MOL0     H 1936   8.516   6.866   3.774 -0.2615  2.2311 -1.4796
   15MOL0     H 1937   8.411   6.737   3.708  0.7905 -0.6648 -0.1820
   15MOL0     H 1938   8.322   6.940   3.803 -0.7762 -1.1187 -0.5690
   15MOL0     H 1939   8.370   7.046   3.682 -2.2778  0.9724  2.8525
   15MOL0     H 1940   8.185   6.799   3.670  1.2055 -1.1819 -2.4673
   15MOL0     H 1941   8.200   6.912   3.527  2.0257  0.3412 -1.1969
   15MOL0     H 1942   7.981   6.796   3.562  0.6145 -0.1119  0.0653
   15MOL0     H 1943   7.754   6.738   3.605  1.2314  1.6829 -3.4052
   15MOL0     H 1944   7.277   6.810   3.688 -1.0887 -3.2041  3.4633
   15MOL0     H 1945   7.034   6.852   3.713 -0.7408 -0.5638  2.5270
   15MOL0     H 1946   6.891   7.209   3.941  1.4983 -0.8395  1.4101
   15MOL0     H 1947   6.885   7.051   4.022  2.0937  1.7560  0.1967
   15MOL0     H 1948   6.675   7.119   3.825 -0.0386  3.6538 -0.1968
   15MOL0     H 1949   6.662   7.184   3.992 -1.9330 -0.6497 -0.3933
   15MOL0     H 1950   6.654   6.961   4.088 -3.3921 -2.6094 -0.4006
   15MOL0     H 1951   6.707   6.892   3.936 -0.8872 -2.5003  3.5196
   15MOL0     H 1952   6.448   7.039   3.991 -2.1993 -1.6851  0.4370
   15MOL0     H 1953   6.494   6.966   3.830 -0.3510  1.3177  0.0480
   15MOL0     H 1954   6.499   6.800   4.094 -2.5833 -1.5751  0.4391
   15MOL0     H 1955   6.486   6.741   3.923 -1.8506  0.9024 -2.3908
   15MOL0     H 1956   6.249   6.819   3.927 -1.8802  0.5517  1.1514
   15MOL0     H 1957   6.281   6.920   4.060 -1.6007  1.0336 -2.7669
   15MOL0     H 1958   6.313   6.614   4.064 -0.9868 -0.5963  0.3201
   15MOL0     H 1959   6.302   6.727   4.212  0.0329 -1.9915  1.4470
   15MOL0     H 1960   6.080   6.674   4.004  1.6991 -0.8685  0.2035
   15MOL0     H 1961   6.072   6.781   4.145  2.4580 -0.3473  4.0208
   15MOL0     H 1962   7.137   7.217   3.932  4.4525  0.2776  1.2572
   15MOL0     H 1963   7.350   7.191   3.879 -0.9038  0.6495  0.5760
   15MOL0     H 1964   7.699   7.112   3.826 -1.1482 -1.6822  2.0303
   15MOL0     H 1965   7.926   7.152   3.808 -0.1120 -1.4735  1.9456
   15MOL0     H 1966   8.400   7.588   4.008 -3.1995  0.7917 -1.0727
   15MOL0     H 1967   8.163   7.632   4.087 -1.6633 -1.8220  1.0540
   15MOL0     H 1968   7.832   7.476   4.219 -0.4867 -1.1622  1.0406
   15MOL0     H 1969   7.593   7.449   4.239  0.4633 -1.8277  1.2660
   15MOL0     H 1970   7.392   7.601   4.624  2.9917 -0.7658 -0.8083
   15MOL0     H 1971   7.330   7.445   4.595  0.7127  0.4077  0.9527
   15MOL0     H 1972   7.266   7.687   4.440 -0.0981 -1.4539 -2.7239
   15MOL0     H 1973   7.213   7.532   4.390 -1.8107  0.2815 -0.6890
   15MOL0     H 1974   7.036   7.523   4.546  1.2601 -0.5638 -0.3942
   15MOL0     H 1975   7.064   7.697   4.538 -1.2825  0.5917 -0.1156
   15MOL0     H 1976   7.225   7.688   4.738 -2.1898  2.4089  1.7994
   15MOL0     H 1977   7.054   7.669   4.776 -0.4845  0.5364 -0.3893
   15MOL0     H 1978   7.226   7.313   4.911  1.2491 -0.2108 -1.3382
   15MOL0     H 1979   7.585   7.666   4.615  0.5002  3.1959 -1.7301
   15MOL0     H 1980   7.834   7.675   4.607 -1.1961  1.4507  0.1301
   16MOL0     O 1981   4.557   0.590   0.265  0.2787  0.2865 -0.6207
   16MOL0     C 1982   4.570   0.492   0.187 -0.3250 -0.0028 -0.6743
   16MOL0     O 1983   4.480   0.384   0.179 -0.0800 -0.8317  0.7793
   16MOL0     C 1984   4.368   0.384   0.260 -0.4481  0.5680  0.8276
   16MOL0     C 1985   4.263   0.459   0.237  0.0052  0.7710  0.3212
   16MOL0     C 1986   4.146   0.446   0.317 -0.3488  0.5199 -0.0148
   16MOL0     C 1987   4.143   0.359   0.429  0.1717  0.3813 -0.2102
   16MOL0     O 1988   4.037   0.334   0.515  0.3730  0.3875  0.1572
   16MOL0     C 1989   3.927   0.430   0.525  0.3562 -0.0384  0.1758
   16MOL0     C 1990   3.829   0.383   0.419 -0.4602  0.5093  0.1790
   16MOL0     C 1991   3.689   0.442   0.452  0.7280 -0.1810  0.8667
   16MOL0     C 1992   3.579   0.401   0.349 -0.3996 -0.1496 -0.1955
   16MOL0     C 1993   3.438   0.400   0.412  0.2035 -0.2132  0.1463
   16MOL0     C 1994   3.336   0.373   0.308  1.0123  0.6625  0.3039
   16MOL0     C 1995   3.200   0.354   0.386 -0.5484 -0.3909 -0.5691
   16MOL0     C 1996   3.096   0.289   0.290  0.1719  0.5905  0.2211
   16MOL0     N 1997   2.957   0.330   0.307  0.5893 -0.4035 -0.0539
   16MOL0     C 1998   2.877   0.318   0.417 -0.1562  0.4585  0.1076
   16MOL0     C 1999   2.754   0.351   0.383 -0.1456 -0.3498  0.6440
   16MOL0     C 2000   2.645   0.322   0.477 -0.0098 -0.1114 -0.0320
   16MOL0     C 2001   2.525   0.427   0.465  0.5047 -0.1188 -0.2064
   16MOL0     C 2002   2.427   0.441   0.586  0.2784  0.3402 -0.0867
   16MOL0     C 2003   2.390   0.307   0.643 -0.3041 -0.5400  0.1620
   16MOL0     O 2004   2.300   0.254   0.545 -0.0026 -0.2632 -0.1397
   16MOL0     C 2005   2.178   0.217   0.591  0.5256 -0.3248 -0.7458
   16MOL0     C 2006   2.146   0.085   0.595  0.0389 -0.1475 -0.1608
   16MOL0     C 2007   2.012   0.046   0.616 -0.4312  0.1051 -0.1329
   16MOL0     C 2008   1.915   0.135   0.639 -0.3478 -0.1467  1.1740
   16MOL0     C 2009   1.779   0.092   0.665  0.8093  0.0947 -0.1598
   16MOL0     O 2010   1.751  -0.042   0.654 -0.6015  0.5128  0.2349
   16MOL0     C 2011   1.639  -0.103   0.707 -0.8722  1.0731 -0.8191
   16MOL0     C 2012   1.638  -0.243   0.696  0.0840 -0.4845 -0.5336
   16MOL0     C 2013   1.533  -0.325   0.751  0.5688 -0.2810 -0.6734
   16MOL0     C 2014   1.421  -0.277   0.811  0.3333 -0.0554 -0.5232
   16MOL0     O 2015   1.304  -0.340   0.845 -0.5332  0.4555  0.1425
   16MOL0     C 2016   1.276  -0.467   0.773  0.6364  0.3440 -0.7423
   16MOL0     C 2017   1.141  -0.529   0.822 -0.5659 -0.0824  0.1013
   16MOL0     C 2018   1.028  -0.450   0.766  0.6601  0.9913  0.1851
   16MOL0     C 2019   0.889  -0.499   0.833 -0.1518  0.1725 -0.3722
   16MOL0     C 2020   0.778  -0.398   0.786  0.0434 -0.0574  0.4930
   16MOL0     C 2021   0.645  -0.424   0.847  0.7175 -0.4094  0.3192
   16MOL0     C 2022   0.623  -0.391   0.992 -0.5319 -0.3477 -0.7207
   16MOL0     C 2023   0.504  -0.456   1.047 -0.1568 -0.2647 -0.8862
   16MOL0    Cl 2024   0.354  -0.433   0.958  0.1450 -0.0314 -0.1921
   16MOL0     C 2025   1.425  -0.135   0.826 -0.8523  0.6626 -0.4455
   16MOL0     C 2026   1.527  -0.050   0.773  0.6094  0.2137 -0.3351
   16MOL0     O 2027   1.695   0.173   0.689  0.1178 -1.0008 -0.0380
   16MOL0     C 2028   1.947   0.272   0.625 -0.3323  0.2047 -0.0159
   16MOL0     C 2029   2.076   0.309   0.599 -0.2256  0.3584  0.6848
   16MOL0     N 2030   2.760   0.393   0.247 -0.9308  0.7216  0.2084
   16MOL0     N 2031   2.886   0.384   0.203 -0.1428  0.0439  1.0154
   16MOL0     C 2032   4.259   0.292   0.453 -0.2276 -0.4999 -0.2014
   16MOL0     C 2033   4.374   0.312   0.374 -0.0502  0.4092  0.3473
   16MOL0     C 2034   4.693   0.490   0.112 -0.8472  0.6584 -0.0546
   16MOL0     C 2035   4.704   0.392   0.006 -0.6361  0.4657 -0.0649
   16MOL0     C 2036   4.817   0.398  -0.076  0.8903  0.7526 -0.0772
   16MOL0     C 2037   4.907   0.500  -0.067 -0.8921 -0.4397 -0.6491
   16MOL0     O 2038   5.019   0.516  -0.141 -0.1310  0.1744  0.6262
   16MOL0     C 2039   5.035   0.436  -0.259 -0.4183  0.9402 -0.1752
   16MOL0     C 2040   5.160   0.512  -0.325  0.0093  0.4942 -0.4974
   16MOL0     C 2041   5.226   0.441  -0.444  0.3798 -0.3294  0.2069
   16MOL0     C 2042   5.355   0.506  -0.485  0.2965 -0.5145  1.1170
   16MOL0     C 2043   5.400   0.448  -0.617 -0.6543  1.1603 -0.1067
   16MOL0     C 2044   5.415   0.387  -0.716  0.5897 -0.9681  1.0497
   16MOL0     C 2045   4.894   0.594   0.031 -0.9895 -0.0994 -0.4574
   16MOL0     C 2046   4.795   0.589   0.124  0.8345  0.1069  0.0844
   16MOL0     H 2047   4.256   0.523   0.150 -1.1807  0.7318  0.3695
   16MOL0     H 2048   4.060   0.503   0.283 -2.1966 -1.4085  1.2370
   16MOL0     H 2049   3.952   0.534   0.502  1.6112  0.0917  1.9679
   16MOL0     H 2050   3.879   0.426   0.623 -3.2356 -3.1247 -1.4472
   16MOL0     H 2051   3.831   0.275   0.404  3.3012  0.3843  0.5500
   16MOL0     H 2052   3.857   0.413   0.318 -0.5294  0.4080  0.1299
   16MOL0     H 2053   3.693   0.551   0.460 -1.5997 -0.0570  1.0275
   16MOL0     H 2054   3.650   0.404   0.547  0.8151 -0.0220  0.9656
   16MOL0     H 2055   3.594   0.476   0.271  2.7114  0.0086  0.4321
   16MOL0     H 2056   3.608   0.302   0.312  3.5105  0.5819  0.4604
   16MOL0     H 2057   3.422   0.489   0.474  1.6967 -0.0531  0.3417
   16MOL0     H 2058   3.433   0.320   0.487 -1.4401 -0.7159 -0.4521
   16MOL0     H 2059   3.357   0.285   0.246 -0.3632  0.6865 -0.2383
   16MOL0     H 2060   3.321   0.461   0.244  1.7330  0.6516  0.1170
   16MOL0     H 2061   3.209   0.295   0.478 -1.4091  3.1956  2.0508
   16MOL0     H 2062   3.165   0.452   0.422  0.5550 -0.7525  1.6642
   16MOL0     H 2063   3.105   0.180   0.300 -1.4772  0.6002  2.5027
   16MOL0     H 2064   3.134   0.305   0.188  3.2275 -0.4003  1.0819
   16MOL0     H 2065   2.905   0.270   0.511 -0.0680 -1.5374 -0.8836
   16MOL0     H 2066   2.693   0.338   0.574 -0.8178  2.0643  0.0837
   16MOL0     H 2067   2.608   0.221   0.463  0.7189 -0.7246  2.0620
   16MOL0     H 2068   2.458   0.392   0.386 -0.1712 -0.3243  0.4403
   16MOL0     H 2069   2.547   0.531   0.443 -1.0584  0.1898 -0.4870
   16MOL0     H 2070   2.485   0.498   0.660  1.6363 -1.4191  0.2815
   16MOL0     H 2071   2.337   0.494   0.555 -1.3492  0.0094  3.4935
   16MOL0     H 2072   2.350   0.314   0.745  1.6412  0.8345  0.8981
   16MOL0     H 2073   2.476   0.241   0.660 -1.5420 -2.0548  0.7270
   16MOL0     H 2074   2.222   0.015   0.563 -0.4859 -1.0669  0.5892
   16MOL0     H 2075   1.977  -0.057   0.617  1.5265 -0.5906  0.3379
   16MOL0     H 2076   1.718  -0.287   0.637 -1.9534 -2.0463 -2.3145
   16MOL0     H 2077   1.544  -0.433   0.745 -4.3885 -1.1172  0.7892
   16MOL0     H 2078   1.353  -0.543   0.788 -0.9732 -1.0988  0.5822
   16MOL0     H 2079   1.276  -0.451   0.664  1.4934 -1.4596 -1.0500
   16MOL0     H 2080   1.138  -0.534   0.931 -2.6387  0.5137  0.1269
   16MOL0     H 2081   1.133  -0.631   0.783  3.5474 -0.3588 -0.4068
   16MOL0     H 2082   1.026  -0.466   0.658  1.6715 -4.4397  0.7207
   16MOL0     H 2083   1.033  -0.344   0.791 -2.7847  0.9590  1.5211
   16MOL0     H 2084   0.859  -0.600   0.803 -0.8599 -0.1019  1.1549
   16MOL0     H 2085   0.890  -0.494   0.942 -1.1454  1.6307 -0.4006
   16MOL0     H 2086   0.784  -0.425   0.680 -2.4228 -3.7613  1.1220
   16MOL0     H 2087   0.809  -0.295   0.805 -1.1497  0.5549 -0.7542
   16MOL0     H 2088   0.623  -0.530   0.831  1.8969 -0.6893  0.4444
   16MOL0     H 2089   0.583  -0.357   0.788 -1.3712 -0.1874  2.5833
   16MOL0     H 2090   0.712  -0.411   1.050  0.0134  0.3963 -1.2716
   16MOL0     H 2091   0.616  -0.281   0.996  2.7137 -0.0107 -1.8681
   16MOL0     H 2092   0.473  -0.408   1.141  0.2802 -0.9549 -0.3751
   16MOL0     H 2093   0.511  -0.562   1.070 -2.2980  0.1381  2.2647
   16MOL0     H 2094   1.349  -0.104   0.896  0.3549 -0.8872  1.6660
   16MOL0     H 2095   1.538   0.056   0.789  0.1780  0.2823 -0.4599
   16MOL0     H 2096   1.872   0.349   0.635  0.2388  0.7616  0.0218
   16MOL0     H 2097   2.101   0.414   0.593 -4.1446  1.7851  4.0466
   16MOL0     H 2098   4.255   0.226   0.539  2.5839 -2.4792 -1.4089
   16MOL0     H 2099   4.465   0.258   0.400 -0.0002  0.8714  1.1576
   16MOL0     H 2100   4.630   0.316  -0.017  1.8036 -1.3763 -2.3503
   16MOL0     H 2101   4.836   0.322  -0.150 -2.8142 -0.7785  0.3577
   16MOL0     H 2102   4.952   0.425  -0.329 -1.7916  3.3987  0.9460
   16MOL0     H 2103   5.067   0.337  -0.227  0.0140  1.4648  1.1007
   16MOL0     H 2104   5.140   0.617  -0.348  0.0536  1.1255  2.0376
   16MOL0     H 2105   5.238   0.524  -0.250  1.0779  3.5403 -1.9206
   16MOL0     H 2106   5.161   0.437  -0.533  2.8009 -2.2102 -1.6423
   16MOL0     H 2107   5.238   0.338  -0.408  0.5930 -0.4524 -0.1984
   16MOL0     H 2108   5.339   0.615  -0.489 -2.1423 -0.8380  0.5536
   16MOL0     H 2109   5.439   0.483  -0.419  3.3495 -0.1484 -2.2993
   16MOL0     H 2110   5.414   0.340  -0.812 -0.9382  0.8415  0.1010
   16MOL0     H 2111   4.972   0.670   0.041 -0.4668 -0.7151  0.2002
   16MOL0     H 2112   4.790   0.664   0.203  0.7616 -1.1792  1.3342
   17MOL0     O 2113   0.626   7.585   5.540  0.1751  1.1542 -0.4338
   17MOL0     C 2114   0.617   7.699   5.498 -0.6159 -1.1976 -0.6322
   17MOL0     O 2115   0.507   7.769   5.482  0.0746 -0.2098  0.0691
   17MOL0     C 2116   0.387   7.706   5.466  1.1637 -0.2456  0.0880
   17MOL0     C 2117   0.359   7.602   5.375  0.0756  0.1008 -0.1377
   17MOL0     C 2118   0.229   7.540   5.382 -0.1302 -0.3192  0.9077
   17MOL0     C 2119   0.132   7.577   5.481  0.0571 -0.0995  0.6768
   17MOL0     O 2120   0.013   7.517   5.497 -1.1942  0.0996  0.3139
   17MOL0     C 2121  -0.093   7.561   5.578 -0.7012 -1.1000 -0.1146
   17MOL0     C 2122  -0.198   7.450   5.580  0.6495 -0.0458 -0.5546
   17MOL0     C 2123  -0.316   7.479   5.675 -0.4436  0.4908  0.4263
   17MOL0     C 2124  -0.433   7.389   5.677 -0.5096 -0.0634  0.3622
   17MOL0     C 2125  -0.556   7.436   5.764  0.0450  0.1563 -0.3599
   17MOL0     C 2126  -0.548   7.399   5.918  1.1813  0.2338 -0.1279
   17MOL0     C 2127  -0.661   7.445   6.016  0.4866  0.6427 -0.4072
   17MOL0     C 2128  -0.805   7.434   5.965  0.6246 -0.6713  0.1952
   17MOL0     N 2129  -0.910   7.440   6.075  0.3987  0.0498  0.2884
   17MOL0     C 2130  -0.927   7.337   6.170  0.7067 -0.3022 -0.3780
   17MOL0     C 2131  -1.039   7.357   6.235 -0.4267 -0.1958  0.1967
   17MOL0     C 2132  -1.099   7.271   6.344 -0.2005  0.2648  0.3064
   17MOL0     C 2133  -1.061   7.322   6.483  0.0793 -0.8550 -0.1660
   17MOL0     C 2134  -0.925   7.267   6.532 -0.1930  0.2281 -0.2221
   17MOL0     C 2135  -0.923   7.254   6.686 -0.6878  0.9325 -0.3349
   17MOL0     O 2136  -0.820   7.156   6.706  0.0952  0.1234 -0.8436
   17MOL0     C 2137  -0.691   7.201   6.725  0.5029  0.1136  0.7454
   17MOL0     C 2138  -0.645   7.335   6.728 -0.7873 -0.2980 -0.6546
   17MOL0     C 2139  -0.507   7.366   6.761  0.0989  0.6713 -0.3443
   17MOL0     C 2140  -0.421   7.256   6.800  0.8001  0.3424 -0.4017
   17MOL0     C 2141  -0.284   7.293   6.852 -0.0424  0.2354  1.1632
   17MOL0     O 2142  -0.245   7.422   6.838 -0.2236 -0.1108 -0.7381
   17MOL0     C 2143  -0.120   7.453   6.880  0.1114 -0.3531  0.5965
   17MOL0     C 2144  -0.048   7.540   6.796  0.0061  0.2472 -0.2427
   17MOL0     C 2145   0.085   7.576   6.828  0.0431 -0.4206  0.1405
   17MOL0     C 2146   0.144   7.537   6.944 -0.3040  0.5201  0.4191
   17MOL0     O 2147   0.274   7.581   6.964 -0.4712  0.8323  0.0905
   17MOL0     C 2148   0.337   7.553   7.096  0.3632  0.4698 -0.7465
   17MOL0     C 2149   0.489   7.559   7.108  0.7817 -0.5968 -1.0488
   17MOL0     C 2150   0.547   7.665   7.024 -0.3295 -0.7935  0.0135
   17MOL0     C 2151   0.700   7.660   7.033 -0.0025 -0.1250 -0.0008
   17MOL0     C 2152   0.780   7.777   6.958  0.9239 -0.4265  0.7279
   17MOL0     C 2153   0.925   7.778   6.999 -0.0565 -0.4879  0.4885
   17MOL0     C 2154   1.015   7.883   6.935 -0.8831  0.3650  0.9266
   17MOL0     C 2155   1.126   7.902   7.025 -0.8632 -0.6976  0.2572
   17MOL0    Cl 2156   1.210   7.753   7.044 -0.1594 -0.1502 -0.2907
   17MOL0     C 2157   0.074   7.451   7.033  0.0748  1.0291 -0.4901
   17MOL0     C 2158  -0.060   7.412   7.002 -0.6686 -0.7034 -0.1352
   17MOL0     O 2159  -0.212   7.191   6.883  0.1848 -0.1542 -0.2281
   17MOL0     C 2160  -0.471   7.126   6.788 -1.0428  0.2587 -0.3528
   17MOL0     C 2161  -0.604   7.098   6.748 -0.2227  0.0532  0.6039
   17MOL0     N 2162  -1.105   7.461   6.165 -0.4493 -0.7490  0.6949
   17MOL0     N 2163  -1.021   7.509   6.074  0.2995 -0.3884  0.6849
   17MOL0     C 2164   0.174   7.679   5.570 -0.6251 -0.4428  0.7974
   17MOL0     C 2165   0.294   7.748   5.552 -1.0464  0.1343 -0.4550
   17MOL0     C 2166   0.739   7.773   5.466 -0.1630 -0.7337 -0.3328
   17MOL0     C 2167   0.749   7.873   5.368 -0.0215 -0.1725 -0.4073
   17MOL0     C 2168   0.868   7.937   5.345 -0.3050  0.5986  0.3688
   17MOL0     C 2169   0.986   7.897   5.412 -0.0820  0.2141  0.4651
   17MOL0     O 2170   1.105   7.966   5.394  0.1300  0.1927  0.0876
   17MOL0     C 2171   1.115   8.099   5.338  0.1015 -0.6598  0.3733
   17MOL0     C 2172   1.270   8.138   5.342  0.6018 -0.6497 -0.3134
   17MOL0     C 2173   1.300   8.264   5.259 -0.0202 -0.1001 -0.3939
   17MOL0     C 2174   1.448   8.300   5.280  0.5934  0.7577  0.9274
   17MOL0     C 2175   1.472   8.414   5.191 -0.8463  0.2084 -0.0867
   17MOL0     C 2176   1.511   8.503   5.114 -0.0901 -0.2633  0.0271
   17MOL0     C 2177   0.980   7.790   5.501 -1.0379  0.8201  0.7293
   17MOL0     C 2178   0.857   7.722   5.521  0.6549  0.8036 -0.2386
   17MOL0     H 2179   0.434   7.567   5.304 -0.2322  0.8109 -0.8300
   17MOL0     H 2180   0.202   7.463   5.310  1.4997 -0.8680  0.8389
   17MOL0     H 2181  -0.147   7.651   5.547 -0.8793 -0.2080  2.5517
   17MOL0     H 2182  -0.060   7.583   5.680 -2.1737  2.0013 -0.1902
   17MOL0     H 2183  -0.168   7.352   5.618 -0.8986  0.0759  1.1415
   17MOL0     H 2184  -0.244   7.427   5.483 -3.9965 -1.1444  1.6071
   17MOL0     H 2185  -0.357   7.572   5.635 -1.6200 -0.8033 -1.5138
   17MOL0     H 2186  -0.277   7.489   5.776  3.8252 -1.3381 -0.7981
   17MOL0     H 2187  -0.456   7.385   5.570  0.3824 -0.7992  0.1881
   17MOL0     H 2188  -0.394   7.289   5.698  2.5704  0.3788 -2.4040
   17MOL0     H 2189  -0.647   7.397   5.718 -0.2636  2.7161 -2.1273
   17MOL0     H 2190  -0.567   7.545   5.760  1.7584  0.3792  0.1116
   17MOL0     H 2191  -0.454   7.439   5.957  1.8391 -1.3682 -0.0049
   17MOL0     H 2192  -0.549   7.290   5.927 -0.0953  0.3952  2.6858
   17MOL0     H 2193  -0.650   7.385   6.107  1.4814  2.6325  0.8756
   17MOL0     H 2194  -0.632   7.543   6.056  2.9659  0.4058 -1.4396
   17MOL0     H 2195  -0.821   7.342   5.907 -2.9882 -0.6495  0.9404
   17MOL0     H 2196  -0.825   7.519   5.899  0.9602 -1.3503 -0.8147
   17MOL0     H 2197  -0.860   7.253   6.185 -0.6037 -1.2939  0.1195
   17MOL0     H 2198  -1.060   7.171   6.325  1.4002  0.6556  1.2784
   17MOL0     H 2199  -1.207   7.275   6.330 -0.3288  0.2019  1.1957
   17MOL0     H 2200  -1.141   7.302   6.555  0.4917 -0.7992  0.3138
   17MOL0     H 2201  -1.054   7.431   6.476  2.6879 -0.8944  0.6414
   17MOL0     H 2202  -0.918   7.163   6.498  1.0687  0.3564 -0.4112
   17MOL0     H 2203  -0.844   7.327   6.490 -1.2253  1.4117 -0.6005
   17MOL0     H 2204  -1.015   7.205   6.720 -0.1681 -2.7932 -3.5802
   17MOL0     H 2205  -0.911   7.349   6.739 -2.0978  0.7721  0.3178
   17MOL0     H 2206  -0.720   7.409   6.702 -0.9860 -0.8816 -1.8029
   17MOL0     H 2207  -0.465   7.465   6.751  0.5126  0.3328 -2.2680
   17MOL0     H 2208  -0.091   7.559   6.698  0.2534  1.8031 -0.0695
   17MOL0     H 2209   0.138   7.647   6.766 -2.0662  0.6612 -0.5200
   17MOL0     H 2210   0.314   7.450   7.125  0.7172  0.8448  0.9788
   17MOL0     H 2211   0.283   7.615   7.168  0.6048  0.4776 -0.5676
   17MOL0     H 2212   0.529   7.462   7.077  0.0035 -0.9578 -0.9461
   17MOL0     H 2213   0.507   7.581   7.214 -1.3329  0.5813 -0.8602
   17MOL0     H 2214   0.506   7.767   7.031 -0.4369 -0.1142 -5.8742
   17MOL0     H 2215   0.521   7.646   6.920  1.1489  0.1909 -0.5736
   17MOL0     H 2216   0.734   7.670   7.136 -2.1892  0.8341  0.7025
   17MOL0     H 2217   0.740   7.565   6.998  0.5062 -0.4407  1.3702
   17MOL0     H 2218   0.743   7.879   6.961 -0.3212 -0.7516 -1.5781
   17MOL0     H 2219   0.779   7.746   6.853 -0.1480 -0.7024  0.8121
   17MOL0     H 2220   0.970   7.680   6.978 -0.3433 -0.1717 -1.8329
   17MOL0     H 2221   0.925   7.794   7.107 -3.5862  0.5908  0.4472
   17MOL0     H 2222   1.050   7.841   6.841 -1.4592 -0.9024  1.2613
   17MOL0     H 2223   0.972   7.980   6.907 -3.1257 -0.7251  0.4363
   17MOL0     H 2224   1.088   7.936   7.122 -0.7237  2.2031 -0.5952
   17MOL0     H 2225   1.203   7.969   6.986  1.2661 -3.3515 -0.3737
   17MOL0     H 2226   0.123   7.411   7.121 -2.7721  0.3229  0.8807
   17MOL0     H 2227  -0.114   7.347   7.070 -0.9234  0.4697  0.8137
   17MOL0     H 2228  -0.399   7.045   6.790 -2.8868 -1.4685 -0.8966
   17MOL0     H 2229  -0.634   6.997   6.722 -3.4911  1.4053 -1.5971
   17MOL0     H 2230   0.111   7.710   5.653 -0.5001 -1.5452  1.3321
   17MOL0     H 2231   0.324   7.831   5.616 -1.0468  1.3840 -2.0044
   17MOL0     H 2232   0.657   7.915   5.328 -0.7682 -1.5328 -0.1908
   17MOL0     H 2233   0.875   8.020   5.275  1.3256  0.7754  0.7146
   17MOL0     H 2234   1.061   8.170   5.401  2.9701  1.5568  0.5538
   17MOL0     H 2235   1.078   8.102   5.236 -4.1226 -2.1888  1.6578
   17MOL0     H 2236   1.299   8.138   5.448  2.7050 -0.5776 -0.8435
   17MOL0     H 2237   1.328   8.058   5.294  1.0152 -0.1210 -0.7097
   17MOL0     H 2238   1.239   8.346   5.297  1.7689  0.6409  1.0143
   17MOL0     H 2239   1.266   8.247   5.156 -4.2981 -0.5653  0.8836
   17MOL0     H 2240   1.457   8.323   5.386 -2.2000  0.3985  1.3284
   17MOL0     H 2241   1.518   8.222   5.247 -1.5136 -1.6577  1.8002
   17MOL0     H 2242   1.538   8.563   5.030  0.0077  2.4431  1.8852
   17MOL0     H 2243   1.068   7.749   5.549 -1.1660  0.5659  0.7520
   17MOL0     H 2244   0.850   7.625   5.570 -4.0204 -0.0594 -2.0864
   18MOL0     O 2245   1.007   1.508   9.791 -0.0177  0.1596  0.3129
   18MOL0     C 2246   0.921   1.421   9.769  1.6056 -0.0217 -0.4153
   18MOL0     O 2247   0.909   1.300   9.835  0.0941  0.0450 -0.0701
   18MOL0     C 2248   0.995   1.278   9.933 -0.0972  1.0648  0.1506
   18MOL0     C 2249   1.140   1.277   9.919 -0.0518  0.1552  0.3646
   18MOL0     C 2250   1.229   1.258  10.027  0.3176  0.4045 -0.1230
   18MOL0     C 2251   1.176   1.234  10.154 -0.4291  0.0559 -0.2290
   18MOL0     O 2252   1.273   1.209  10.255 -0.2162  0.3221 -0.3060
   18MOL0     C 2253   1.228   1.158  10.373 -0.1068  0.0012 -0.2483
   18MOL0     C 2254   1.166   1.265  10.474  0.0060 -0.3022  0.5677
   18MOL0     C 2255   1.272   1.320  10.579 -0.5165  0.3853 -0.3682
   18MOL0     C 2256   1.206   1.425  10.670  0.5175  0.5558  0.5456
   18MOL0     C 2257   1.098   1.376  10.774  1.2190 -0.3149 -0.2461
   18MOL0     C 2258   1.035   1.489  10.862 -0.3368  0.7345 -0.8398
   18MOL0     C 2259   0.912   1.430  10.934 -0.6958  0.2695  0.0025
   18MOL0     C 2260   0.789   1.421  10.841  0.1949  0.2508 -0.0123
   18MOL0     N 2261   0.740   1.549  10.785  0.1588  0.2058  0.8157
   18MOL0     C 2262   0.777   1.621  10.673  0.0368  0.7458 -1.1083
   18MOL0     C 2263   0.699   1.733  10.678 -0.4479  0.5897  0.4754
   18MOL0     C 2264   0.707   1.838  10.572 -0.5263 -0.2893 -0.5634
   18MOL0     C 2265   0.567   1.869  10.525  0.8483  0.7816  0.2863
   18MOL0     C 2266   0.519   1.780  10.408  0.6409  0.2634 -0.0437
   18MOL0     C 2267   0.390   1.833  10.360 -0.3463  0.9310 -0.3716
   18MOL0     O 2268   0.352   1.751  10.253  0.0086 -0.2668 -0.0843
   18MOL0     C 2269   0.223   1.759  10.218  0.9841 -0.9758  0.0361
   18MOL0     C 2270   0.145   1.874  10.223 -0.4680 -0.0683 -0.3885
   18MOL0     C 2271   0.011   1.864  10.201  0.5701 -0.7249 -0.0990
   18MOL0     C 2272  -0.042   1.742  10.155  0.0509  1.1994  0.2121
   18MOL0     C 2273  -0.185   1.729  10.139  0.7035 -0.3492 -0.1124
   18MOL0     O 2274  -0.239   1.605  10.104 -0.1961 -0.5604 -0.5055
   18MOL0     C 2275  -0.376   1.595  10.096 -0.7431 -0.0285  0.3441
   18MOL0     C 2276  -0.437   1.631   9.973  1.0089  0.0078  0.3357
   18MOL0     C 2277  -0.574   1.602   9.963  0.4674 -0.1382  0.6022
   18MOL0     C 2278  -0.651   1.564  10.075 -0.5018  1.0256  0.3519
   18MOL0     O 2279  -0.778   1.545  10.059 -0.0539  0.4676 -0.4299
   18MOL0     C 2280  -0.865   1.515  10.168  0.2840 -0.4473 -0.3547
   18MOL0     C 2281  -0.999   1.472  10.116 -0.8780 -0.3457 -0.6888
   18MOL0     C 2282  -1.068   1.578  10.025 -0.2739 -0.6807 -0.1772
   18MOL0     C 2283  -1.218   1.558  10.014  0.5603 -0.0258 -0.1484
   18MOL0     C 2284  -1.278   1.682   9.949 -0.0245 -0.1308 -0.0140
   18MOL0     C 2285  -1.430   1.676   9.955 -0.9578 -0.5897 -0.3091
   18MOL0     C 2286  -1.488   1.589   9.847 -0.3875  0.8051 -0.4784
   18MOL0     C 2287  -1.631   1.567   9.897 -0.7347  0.0593 -0.2883
   18MOL0    Cl 2288  -1.747   1.698   9.885 -0.4900 -0.1900 -0.2712
   18MOL0     C 2289  -0.587   1.545  10.199 -0.7464 -0.0205 -0.9262
   18MOL0     C 2290  -0.445   1.551  10.203 -0.0637  0.3953  0.5437
   18MOL0     O 2291  -0.258   1.823  10.168  0.1449 -0.1801  0.3951
   18MOL0     C 2292   0.040   1.628  10.151  0.9792  0.3002  0.0092
   18MOL0     C 2293   0.167   1.637  10.181 -0.1797 -0.2382 -0.6087
   18MOL0     N 2294   0.616   1.732  10.792 -0.6225 -0.3401  0.0065
   18MOL0     N 2295   0.643   1.618  10.855  0.5847  0.2288  0.8755
   18MOL0     C 2296   1.032   1.219  10.163 -0.4082 -0.6651  0.1138
   18MOL0     C 2297   0.950   1.242  10.058  0.1617 -1.0220  0.5403
   18MOL0     C 2298   0.820   1.438   9.647  0.1572 -0.2058 -0.4167
   18MOL0     C 2299   0.811   1.556   9.567 -0.9523  0.3339 -0.7408
   18MOL0     C 2300   0.723   1.569   9.452  0.3896 -0.2478 -0.7513
   18MOL0     C 2301   0.644   1.451   9.420 -0.6241  0.2844  0.2473
   18MOL0     O 2302   0.553   1.444   9.310 -0.6349  0.2769  0.5198
   18MOL0     C 2303   0.538   1.555   9.229  0.3161  0.7004 -0.1599
   18MOL0     C 2304   0.399   1.544   9.163  0.4934 -0.3373  0.2554
   18MOL0     C 2305   0.403   1.660   9.060 -0.1334 -0.6019 -0.7746
   18MOL0     C 2306   0.280   1.658   8.971 -0.2525  0.7039 -0.4564
   18MOL0     C 2307   0.163   1.710   9.036  0.1107  0.1272  1.0586
   18MOL0     C 2308   0.058   1.734   9.096 -0.3480  0.1584  0.4141
   18MOL0     C 2309   0.655   1.341   9.500 -0.2994  0.4913 -0.2382
   18MOL0     C 2310   0.734   1.336   9.610  0.6550 -0.2658 -0.3099
   18MOL0     H 2311   1.193   1.280   9.824  0.4085 -0.2358  0.6112
   18MOL0     H 2312   1.335   1.273  10.010  0.9893 -1.0854  2.2195
   18MOL0     H 2313   1.321   1.128  10.423 -0.2338  1.6636  1.0476
   18MOL0     H 2314   1.156   1.078  10.351 -0.3694  1.0814 -4.0270
   18MOL0     H 2315   1.085   1.226  10.535 -0.8833 -1.0431 -1.0192
   18MOL0     H 2316   1.132   1.349  10.412 -1.8097 -1.1848  0.3140
   18MOL0     H 2317   1.352   1.367  10.522  0.9512 -0.5371  0.8373
   18MOL0     H 2318   1.324   1.236  10.625 -1.4420  0.8690  1.7155
   18MOL0     H 2319   1.286   1.475  10.727  0.1748  0.5099  1.0733
   18MOL0     H 2320   1.151   1.490  10.602  0.9206  2.4421  1.9083
   18MOL0     H 2321   1.142   1.298  10.837  1.8508  0.2004 -0.0420
   18MOL0     H 2322   1.013   1.334  10.719  0.5173 -2.5221  2.2939
   18MOL0     H 2323   1.007   1.576  10.804  2.2173  3.0722  1.1629
   18MOL0     H 2324   1.106   1.516  10.941 -0.3632 -0.5472 -0.3402
   18MOL0     H 2325   0.927   1.327  10.968 -0.6943  1.2782  3.4438
   18MOL0     H 2326   0.893   1.490  11.023 -0.5723  1.7093 -0.9244
   18MOL0     H 2327   0.709   1.376  10.900 -0.4529 -0.7036 -1.5563
   18MOL0     H 2328   0.815   1.355  10.758  2.3214 -0.0278  0.8036
   18MOL0     H 2329   0.857   1.588  10.607  0.4013 -3.0958  0.9900
   18MOL0     H 2330   0.775   1.833  10.487  0.3461  1.5574 -0.0283
   18MOL0     H 2331   0.740   1.930  10.620 -0.2175  0.4531 -2.1268
   18MOL0     H 2332   0.561   1.975  10.499 -0.9118  0.4143 -0.9318
   18MOL0     H 2333   0.492   1.858  10.603  1.4032 -4.3346  0.4653
   18MOL0     H 2334   0.586   1.785  10.321  2.0262 -0.1049  0.9721
   18MOL0     H 2335   0.511   1.678  10.447 -0.0535  0.5998  0.7137
   18MOL0     H 2336   0.406   1.936  10.328 -0.5725  0.7075 -1.2165
   18MOL0     H 2337   0.319   1.828  10.443  1.8520  0.8655  1.6313
   18MOL0     H 2338   0.171   1.974  10.253  0.3436  0.0068 -1.2865
   18MOL0     H 2339  -0.055   1.950  10.212  0.7980 -0.5968  0.2824
   18MOL0     H 2340  -0.371   1.663   9.893  0.8029  0.7861  0.4725
   18MOL0     H 2341  -0.626   1.619   9.869 -1.8702  3.5853  2.3024
   18MOL0     H 2342  -0.873   1.594  10.243  0.1256  0.5366 -1.3873
   18MOL0     H 2343  -0.834   1.422  10.218 -0.4309 -1.0568 -1.0147
   18MOL0     H 2344  -1.061   1.441  10.201 -1.3823 -0.3429 -1.0507
   18MOL0     H 2345  -0.973   1.384  10.056 -0.6222 -0.9714  0.3115
   18MOL0     H 2346  -1.022   1.564   9.927 -0.9850 -1.2495 -0.4358
   18MOL0     H 2347  -1.042   1.673  10.072  1.4638 -0.8556 -0.6944
   18MOL0     H 2348  -1.239   1.466   9.958 -0.2763  1.2605 -2.0286
   18MOL0     H 2349  -1.259   1.540  10.114 -1.9126 -0.1566 -1.1131
   18MOL0     H 2350  -1.238   1.704   9.850  0.4494 -2.2379 -0.3377
   18MOL0     H 2351  -1.248   1.773  10.002  0.4267  1.2048 -2.3980
   18MOL0     H 2352  -1.450   1.783   9.944  0.8529 -0.2023 -0.1651
   18MOL0     H 2353  -1.469   1.653  10.054 -2.2293 -0.9789 -0.8691
   18MOL0     H 2354  -1.492   1.636   9.748  0.5382 -0.3256 -1.0784
   18MOL0     H 2355  -1.429   1.499   9.829 -0.0941  1.3042 -2.2184
   18MOL0     H 2356  -1.630   1.551  10.005  1.6526  0.8208 -0.1408
   18MOL0     H 2357  -1.670   1.478   9.845  0.9095 -0.4377 -0.7313
   18MOL0     H 2358  -0.640   1.515  10.289 -1.5860 -3.4044 -2.4019
   18MOL0     H 2359  -0.380   1.525  10.285 -0.3613  0.5958  0.8489
   18MOL0     H 2360   0.003   1.528  10.130 -2.4430  1.0649  1.6524
   18MOL0     H 2361   0.213   1.539  10.188  0.9775  0.2466 -1.1644
   18MOL0     H 2362   0.984   1.194  10.258 -1.5074  1.1385  0.0937
   18MOL0     H 2363   0.845   1.226  10.076  0.1991 -1.2788  0.5289
   18MOL0     H 2364   0.870   1.644   9.591  0.4703  0.3085 -3.6212
   18MOL0     H 2365   0.713   1.666   9.404 -0.6247  2.0033  3.5560
   18MOL0     H 2366   0.610   1.551   9.147  0.1115 -1.1304 -0.2913
   18MOL0     H 2367   0.553   1.649   9.283  1.4538  0.0658  0.6843
   18MOL0     H 2368   0.386   1.444   9.120 -0.0550 -0.4439  0.6618
   18MOL0     H 2369   0.323   1.558   9.240  0.9254  1.1489  0.4440
   18MOL0     H 2370   0.494   1.642   9.002  1.7110  1.7721  1.1785
   18MOL0     H 2371   0.417   1.758   9.107  0.6568 -1.6653  1.3060
   18MOL0     H 2372   0.295   1.716   8.880 -0.9776  1.6698  0.0215
   18MOL0     H 2373   0.257   1.555   8.942 -2.6778  1.0838 -0.1303
   18MOL0     H 2374  -0.032   1.746   9.154  0.1302 -1.0840  1.4549
   18MOL0     H 2375   0.598   1.256   9.466  1.5639 -0.3438 -1.4053
   18MOL0     H 2376   0.748   1.245   9.668  1.8648  0.2178  0.1714
   19MOL0     O 2377   5.803   7.647   8.590  0.3377  0.2508  0.0654
   19MOL0     C 2378   5.893   7.726   8.575 -0.4010 -0.0799 -0.1036
   19MOL0     O 2379   5.881   7.855   8.512 -0.3732  0.1794 -0.1106
   19MOL0     C 2380   5.779   7.908   8.433 -0.1596  0.3981  0.7181
   19MOL0     C 2381   5.643   7.884   8.462  0.9137  0.2966  0.2205
   19MOL0     C 2382   5.541   7.954   8.394 -0.1770 -0.1667  0.4749
   19MOL0     C 2383   5.581   8.035   8.286  0.0197  0.9110  0.1491
   19MOL0     O 2384   5.492   8.097   8.208  0.2227  0.1696 -0.3995
   19MOL0     C 2385   5.355   8.112   8.249 -0.4253  0.4876 -0.5532
   19MOL0     C 2386   5.278   8.188   8.149 -0.1608 -1.0939  0.6711
   19MOL0     C 2387   5.135   8.215   8.198  0.0223  0.2936 -0.0244
   19MOL0     C 2388   5.049   8.301   8.110 -0.0766 -0.2609 -0.1933
   19MOL0     C 2389   4.903   8.310   8.153 -0.5966  0.3443  0.1431
   19MOL0     C 2390   4.820   8.194   8.105 -0.2768 -0.0299  0.3828
   19MOL0     C 2391   4.674   8.194   8.150  0.6699  0.4968 -0.3573
   19MOL0     C 2392   4.571   8.186   8.034 -0.0865  0.7047  0.0860
   19MOL0     N 2393   4.436   8.239   8.084 -0.1994 -0.8258 -0.6004
   19MOL0     C 2394   4.378   8.202   8.202  0.7219 -0.4517  0.8693
   19MOL0     C 2395   4.258   8.271   8.211 -0.7250  0.8463 -0.2231
   19MOL0     C 2396   4.166   8.261   8.327  1.2696 -0.3542 -0.2675
   19MOL0     C 2397   4.023   8.278   8.282 -0.7731 -0.6191  0.2610
   19MOL0     C 2398   3.928   8.248   8.404 -0.4437 -0.7599 -0.2373
   19MOL0     C 2399   3.779   8.263   8.365  0.1205  0.8676 -0.4727
   19MOL0     O 2400   3.700   8.282   8.483 -1.0327 -0.5167 -0.4825
   19MOL0     C 2401   3.564   8.304   8.471 -0.1706 -0.2705 -0.3527
   19MOL0     C 2402   3.504   8.328   8.596 -0.2960  0.5965  0.0618
   19MOL0     C 2403   3.373   8.365   8.596  0.7662 -0.2041 -0.2790
   19MOL0     C 2404   3.296   8.384   8.479  0.3778 -0.1381 -0.1717
   19MOL0     C 2405   3.162   8.441   8.479 -0.2540  0.2763 -0.4348
   19MOL0     O 2406   3.085   8.453   8.369  0.2654 -0.3290  0.4274
   19MOL0     C 2407   2.945   8.455   8.382  0.3286 -0.1385  0.3806
   19MOL0     C 2408   2.888   8.566   8.443 -0.9059 -0.1742  0.3279
   19MOL0     C 2409   2.748   8.571   8.443  0.7332  0.4028 -0.3415
   19MOL0     C 2410   2.665   8.469   8.387  0.5366 -0.2623 -0.7939
   19MOL0     O 2411   2.528   8.488   8.383 -0.1086  0.3782  0.1695
   19MOL0     C 2412   2.464   8.396   8.481 -0.2568 -0.2050  0.2337
   19MOL0     C 2413   2.342   8.455   8.553  0.3600 -0.4542 -0.4567
   19MOL0     C 2414   2.379   8.552   8.665  0.2391  1.0322  0.1790
   19MOL0     C 2415   2.257   8.626   8.710 -1.0588 -0.2716 -0.0465
   19MOL0     C 2416   2.300   8.727   8.819 -0.1844  0.2938 -0.4547
   19MOL0     C 2417   2.185   8.768   8.909  0.5951  0.1539 -0.5131
   19MOL0     C 2418   2.056   8.811   8.841  0.0168 -0.1274 -0.3238
   19MOL0     C 2419   1.938   8.812   8.937 -0.2322 -0.4575  0.6251
   19MOL0    Cl 2420   1.798   8.894   8.872 -0.0150  0.4771 -0.0187
   19MOL0     C 2421   2.727   8.364   8.321  0.4337 -0.1896 -0.2725
   19MOL0     C 2422   2.866   8.347   8.329  0.3474 -0.5271  0.0775
   19MOL0     O 2423   3.123   8.456   8.592  0.5142  0.1534 -0.7694
   19MOL0     C 2424   3.356   8.356   8.355 -0.4765 -0.2531  0.1641
   19MOL0     C 2425   3.491   8.327   8.357  0.2794 -0.3383  0.4845
   19MOL0     N 2426   4.240   8.337   8.088 -0.2124  0.1174  0.4430
   19MOL0     N 2427   4.348   8.316   8.014 -0.0579  0.1396 -0.4766
   19MOL0     C 2428   5.719   8.058   8.256 -0.4607 -0.1175 -0.1870
   19MOL0     C 2429   5.818   7.998   8.334  0.1350 -0.6725  0.2895
   19MOL0     C 2430   6.029   7.684   8.634  0.7941  0.0986 -0.3895
   19MOL0     C 2431   6.146   7.760   8.612  0.2434  0.4819  0.3629
   19MOL0     C 2432   6.272   7.716   8.661 -1.1802 -0.0056 -0.8077
   19MOL0     C 2433   6.281   7.594   8.736  0.6042  0.1917  0.8946
   19MOL0     O 2434   6.399   7.564   8.788 -1.3611 -0.1710 -0.6844
   19MOL0     C 2435   6.413   7.465   8.886 -0.5526 -0.0016 -0.1305
   19MOL0     C 2436   6.549   7.464   8.954 -0.6149  0.9490 -0.8850
   19MOL0     C 2437   6.667   7.407   8.857 -0.4657  0.0036 -0.3364
   19MOL0     C 2438   6.754   7.503   8.784  0.2267 -0.3233  0.7491
   19MOL0     C 2439   6.858   7.556   8.868  0.0734 -0.3371 -1.1361
   19MOL0     C 2440   6.944   7.602   8.946  0.2719 -0.0583 -0.1169
   19MOL0     C 2441   6.166   7.516   8.753 -0.0530 -0.4500 -0.0537
   19MOL0     C 2442   6.046   7.569   8.712  0.2784 -0.2452 -0.3998
   19MOL0     H 2443   5.626   7.826   8.553  0.1208  1.3352  0.7529
   19MOL0     H 2444   5.447   7.945   8.448  0.3929  0.3326  1.5877
   19MOL0     H 2445   5.344   8.170   8.341  0.8509 -1.1573  0.6725
   19MOL0     H 2446   5.300   8.018   8.254 -2.2171  1.5269  0.5169
   19MOL0     H 2447   5.270   8.136   8.053 -1.5505 -0.6047  0.4998
   19MOL0     H 2448   5.335   8.281   8.143  1.6741 -2.0807  1.7997
   19MOL0     H 2449   5.134   8.268   8.294 -2.5219  0.0299  0.1652
   19MOL0     H 2450   5.092   8.115   8.211  0.2990  0.4054  2.4022
   19MOL0     H 2451   5.089   8.403   8.110 -0.1271 -0.2281 -1.2999
   19MOL0     H 2452   5.060   8.268   8.007 -1.0220  0.5615 -0.5705
   19MOL0     H 2453   4.863   8.400   8.105  0.6595 -0.7832 -3.3656
   19MOL0     H 2454   4.898   8.311   8.262 -0.5311 -3.4649  0.3230
   19MOL0     H 2455   4.866   8.099   8.135  0.8364  0.3691 -0.0181
   19MOL0     H 2456   4.820   8.192   7.995  1.9018  2.4631  0.2351
   19MOL0     H 2457   4.660   8.112   8.222  4.6985  1.2064  1.5468
   19MOL0     H 2458   4.657   8.286   8.205 -2.3133 -0.1746 -0.0158
   19MOL0     H 2459   4.556   8.089   7.987  0.7532  0.4043  0.4188
   19MOL0     H 2460   4.605   8.257   7.958  0.5158  0.4313  0.0933
   19MOL0     H 2461   4.408   8.118   8.264  1.0779 -0.2333  0.9881
   19MOL0     H 2462   4.184   8.348   8.391 -0.3502  0.7384 -1.2147
   19MOL0     H 2463   4.182   8.171   8.386 -3.2107 -1.6972 -0.6825
   19MOL0     H 2464   4.024   8.196   8.209  3.6315 -0.6862  0.1314
   19MOL0     H 2465   4.009   8.371   8.227  0.7902 -0.9928 -0.8361
   19MOL0     H 2466   3.936   8.146   8.444  0.1201 -0.4169  0.5439
   19MOL0     H 2467   3.947   8.334   8.469  2.5318  1.5907 -3.8196
   19MOL0     H 2468   3.739   8.179   8.307 -0.0493  1.5148 -1.2950
   19MOL0     H 2469   3.783   8.351   8.301  0.9840 -1.6846 -4.2429
   19MOL0     H 2470   3.556   8.291   8.683 -0.6759 -1.8126 -0.6581
   19MOL0     H 2471   3.336   8.373   8.698  2.0950 -2.1578  0.4327
   19MOL0     H 2472   2.945   8.648   8.484  0.3761 -0.8438 -0.0859
   19MOL0     H 2473   2.691   8.653   8.486 -0.1232  0.6621 -1.9240
   19MOL0     H 2474   2.527   8.361   8.562 -1.6789 -0.7488  1.1319
   19MOL0     H 2475   2.418   8.310   8.433 -0.2080  0.8006 -1.7445
   19MOL0     H 2476   2.277   8.376   8.594  1.6210 -1.5614 -0.5094
   19MOL0     H 2477   2.290   8.497   8.466 -0.1900 -1.3824 -0.5939
   19MOL0     H 2478   2.464   8.612   8.632  1.7608 -1.4835 -0.7747
   19MOL0     H 2479   2.425   8.501   8.750  1.6601 -1.5753 -2.0007
   19MOL0     H 2480   2.208   8.687   8.634 -0.9455  1.4814  1.2249
   19MOL0     H 2481   2.189   8.557   8.762  0.2508 -0.0245  2.1446
   19MOL0     H 2482   2.338   8.810   8.759 -0.7851 -1.0834 -2.8771
   19MOL0     H 2483   2.379   8.687   8.884 -0.3832 -1.4559 -1.2275
   19MOL0     H 2484   2.221   8.856   8.963  2.6298 -0.7069 -0.3668
   19MOL0     H 2485   2.173   8.690   8.985  1.5790 -0.2756 -0.7794
   19MOL0     H 2486   2.076   8.912   8.804  2.3073 -0.3669  0.1418
   19MOL0     H 2487   2.040   8.747   8.754  0.3970 -0.7681  0.0656
   19MOL0     H 2488   1.968   8.875   9.022 -0.8385 -1.1967  1.3935
   19MOL0     H 2489   1.919   8.710   8.970  2.3892 -0.7768  1.4085
   19MOL0     H 2490   2.654   8.297   8.277 -3.3550  3.6355 -0.5272
   19MOL0     H 2491   2.920   8.262   8.289  1.5732 -0.1852  0.9349
   19MOL0     H 2492   3.307   8.377   8.261  3.1469  0.2881 -1.7932
   19MOL0     H 2493   3.551   8.299   8.270  0.4928  1.1380  0.1347
   19MOL0     H 2494   5.734   8.128   8.175 -0.2900  2.5998  2.0654
   19MOL0     H 2495   5.922   8.024   8.318 -0.2309  1.6574  1.2967
   19MOL0     H 2496   6.134   7.851   8.554  1.6484  0.8739  0.6479
   19MOL0     H 2497   6.360   7.775   8.639 -2.3285  1.4022 -1.8741
   19MOL0     H 2498   6.392   7.372   8.833  0.2466 -0.2680  0.0007
   19MOL0     H 2499   6.340   7.469   8.967 -0.3368 -0.1734  0.0757
   19MOL0     H 2500   6.567   7.568   8.981 -0.2049  1.6354 -3.5725
   19MOL0     H 2501   6.543   7.402   9.044 -0.7830  1.4790 -0.5255
   19MOL0     H 2502   6.627   7.339   8.781 -0.7148 -0.2229 -0.0075
   19MOL0     H 2503   6.732   7.339   8.914 -1.1819 -1.0177 -0.6949
   19MOL0     H 2504   6.819   7.457   8.709  0.2916  1.2996 -0.2553
   19MOL0     H 2505   6.698   7.581   8.732 -0.7337 -1.8588 -0.5875
   19MOL0     H 2506   7.026   7.642   9.002 -0.7108  1.2089  0.4717
   19MOL0     H 2507   6.161   7.411   8.780 -1.1608 -1.0263 -2.2122
   19MOL0     H 2508   5.960   7.506   8.737  1.8551 -2.1088  0.6043
   20MOL0     O 2509   8.275   4.532   0.730  0.0696  0.3645 -0.4456
   20MOL0     C 2510   8.309   4.648   0.741  0.5331 -0.7420  1.4955
   20MOL0     O 2511   8.259   4.763   0.667 -0.1394  0.6256 -0.0226
   20MOL0     C 2512   8.145   4.749   0.601  0.4169  0.4353  0.7141
   20MOL0     C 2513   8.126   4.780   0.468 -0.1898 -0.4640 -0.3451
   20MOL0     C 2514   7.997   4.776   0.414  0.0423 -0.2133 -1.2233
   20MOL0     C 2515   7.890   4.735   0.491  0.4598 -0.1928 -0.1799
   20MOL0     O 2516   7.763   4.717   0.445  0.2924  0.2035 -0.2775
   20MOL0     C 2517   7.740   4.721   0.304  0.2727 -0.9944 -0.1041
   20MOL0     C 2518   7.705   4.865   0.275  0.4604 -0.1874  0.2906
   20MOL0     C 2519   7.649   4.890   0.132  0.8484 -0.7050  0.2065
   20MOL0     C 2520   7.503   4.838   0.117 -0.4573 -0.5575 -0.7600
   20MOL0     C 2521   7.425   4.875  -0.007  0.3915  0.5413 -0.2497
   20MOL0     C 2522   7.274   4.850   0.021  0.6391 -0.2763  0.3388
   20MOL0     C 2523   7.184   4.876  -0.101  0.8177  0.8951  0.4054
   20MOL0     C 2524   7.054   4.804  -0.094 -0.1010 -0.4007  0.2954
   20MOL0     N 2525   6.965   4.832  -0.205  0.0533 -0.0189 -0.6030
   20MOL0     C 2526   6.898   4.946  -0.212  0.4915 -0.6703  0.7416
   20MOL0     C 2527   6.820   4.937  -0.322 -0.1820  0.2868  0.4753
   20MOL0     C 2528   6.736   5.048  -0.371  0.3815  0.0651  0.7398
   20MOL0     C 2529   6.592   5.011  -0.388 -0.1197 -0.0283 -0.0798
   20MOL0     C 2530   6.558   4.943  -0.520 -0.2117 -0.4237 -0.1014
   20MOL0     C 2531   6.414   4.926  -0.540 -0.0271 -0.3166 -0.2318
   20MOL0     O 2532   6.346   5.050  -0.507 -0.4535 -0.0470  0.4562
   20MOL0     C 2533   6.209   5.057  -0.523 -1.5317  0.1614 -0.8107
   20MOL0     C 2534   6.144   4.970  -0.612  0.0106 -0.1142  0.4929
   20MOL0     C 2535   6.010   4.986  -0.641  0.1281  0.4795 -0.6356
   20MOL0     C 2536   5.936   5.086  -0.582  0.3437  0.2241  0.3135
   20MOL0     C 2537   5.793   5.096  -0.624  0.7838 -0.0291  0.8232
   20MOL0     O 2538   5.717   5.208  -0.585 -0.5544  0.1505 -0.3388
   20MOL0     C 2539   5.595   5.229  -0.643 -0.4914 -0.0114  0.3037
   20MOL0     C 2540   5.571   5.242  -0.779  0.7417 -0.6061 -1.3407
   20MOL0     C 2541   5.433   5.255  -0.816 -0.0362  0.5611 -0.9488
   20MOL0     C 2542   5.328   5.250  -0.724 -0.0161  0.1679 -0.5984
   20MOL0     O 2543   5.193   5.260  -0.766  0.2570 -0.1406 -0.2724
   20MOL0     C 2544   5.082   5.236  -0.670  0.2445  0.1136 -0.1226
   20MOL0     C 2545   4.970   5.259  -0.760 -0.6263 -0.0869  0.9220
   20MOL0     C 2546   4.837   5.206  -0.695  0.7554 -0.5756  0.5737
   20MOL0     C 2547   4.828   5.054  -0.674 -0.1379 -0.9693  0.3036
   20MOL0     C 2548   4.677   5.028  -0.664 -0.2144  0.1005  0.3239
   20MOL0     C 2549   4.611   5.094  -0.540 -0.3292 -0.3634  0.2004
   20MOL0     C 2550   4.465   5.065  -0.528  0.3798 -0.3259 -0.2744
   20MOL0     C 2551   4.409   5.120  -0.394 -0.7375  0.1673  0.4313
   20MOL0    Cl 2552   4.235   5.143  -0.395 -0.1022  0.5163  0.1451
   20MOL0     C 2553   5.356   5.239  -0.589 -0.2646 -0.0100 -0.1498
   20MOL0     C 2554   5.491   5.228  -0.549  0.1530  0.2046 -0.5726
   20MOL0     O 2555   5.746   5.003  -0.695  0.0841 -0.1667 -0.3994
   20MOL0     C 2556   6.000   5.165  -0.485  0.6398 -0.0011 -0.4162
   20MOL0     C 2557   6.133   5.156  -0.457  0.0240  1.0567  0.0566
   20MOL0     N 2558   6.863   4.825  -0.387  0.3281 -0.3016 -0.2572
   20MOL0     N 2559   6.951   4.760  -0.323  0.9994 -0.3867 -0.7756
   20MOL0     C 2560   7.914   4.687   0.622  0.1490  0.1156 -0.9149
   20MOL0     C 2561   8.039   4.700   0.674  0.8509 -0.1305  0.3326
   20MOL0     C 2562   8.414   4.691   0.843  0.1909  0.7244 -0.1999
   20MOL0     C 2563   8.475   4.817   0.838 -0.3481 -0.4096 -0.0325
   20MOL0     C 2564   8.561   4.856   0.938  0.1443  0.0061  0.2956
   20MOL0     C 2565   8.590   4.767   1.035 -0.2732  0.5331 -0.6404
   20MOL0     O 2566   8.663   4.810   1.143  0.5655  0.5771 -0.0860
   20MOL0     C 2567   8.783   4.733   1.162  0.0263 -0.5793  0.6903
   20MOL0     C 2568   8.889   4.829   1.225  1.1936  0.4124  0.0850
   20MOL0     C 2569   8.991   4.749   1.304 -0.0054 -0.1826 -0.2567
   20MOL0     C 2570   9.129   4.738   1.238 -0.0688  0.3227 -0.7674
   20MOL0     C 2571   9.241   4.685   1.312 -0.1048 -0.4065 -0.0997
   20MOL0     C 2572   9.336   4.650   1.385 -0.2367  0.9403 -0.8720
   20MOL0     C 2573   8.525   4.641   1.050 -0.1395 -0.1017  0.7545
   20MOL0     C 2574   8.438   4.606   0.952 -0.0480  1.1294  0.4267
   20MOL0     H 2575   8.203   4.823   0.404 -0.6181 -0.7406 -1.0564
   20MOL0     H 2576   7.990   4.818   0.314  1.3502  1.5425 -0.6268
   20MOL0     H 2577   7.647   4.669   0.277  0.5858 -2.2145  1.0427
   20MOL0     H 2578   7.820   4.680   0.242  0.3382  1.6892 -1.9084
   20MOL0     H 2579   7.796   4.921   0.298 -0.0656  0.2014  1.4925
   20MOL0     H 2580   7.630   4.905   0.344 -3.0339 -2.9843 -1.5493
   20MOL0     H 2581   7.713   4.847   0.055  0.0829 -2.0430  0.2781
   20MOL0     H 2582   7.661   4.994   0.103 -0.4228 -0.8860 -1.0450
   20MOL0     H 2583   7.502   4.729   0.120 -0.6329 -0.5371  0.3950
   20MOL0     H 2584   7.448   4.876   0.204  2.0558  0.4710  0.4745
   20MOL0     H 2585   7.469   4.802  -0.075  2.0965 -0.4939  1.8700
   20MOL0     H 2586   7.441   4.976  -0.047  1.7836  0.0430 -1.0128
   20MOL0     H 2587   7.233   4.902   0.108  3.3296  2.6362  0.0410
   20MOL0     H 2588   7.264   4.745   0.048  1.4876 -0.2138  0.9782
   20MOL0     H 2589   7.165   4.983  -0.106 -1.2657  0.6015 -5.6495
   20MOL0     H 2590   7.233   4.832  -0.189  0.1941 -1.1793  1.0453
   20MOL0     H 2591   7.019   4.854  -0.004  1.4334  2.1499 -0.4252
   20MOL0     H 2592   7.054   4.694  -0.087  1.9392 -0.5801 -1.5041
   20MOL0     H 2593   6.897   5.038  -0.155 -2.2996  0.4521 -0.8982
   20MOL0     H 2594   6.774   5.077  -0.470  0.7682  0.3278  0.9592
   20MOL0     H 2595   6.733   5.138  -0.309 -1.0076  0.8367 -0.3987
   20MOL0     H 2596   6.532   5.101  -0.370 -0.0749 -0.5016  2.8594
   20MOL0     H 2597   6.565   4.949  -0.302 -0.7699 -1.7022 -1.4259
   20MOL0     H 2598   6.596   5.018  -0.590 -0.9077  0.8810  0.8738
   20MOL0     H 2599   6.620   4.853  -0.526  0.3274  0.0499 -2.3748
   20MOL0     H 2600   6.377   4.842  -0.481 -0.5635 -1.4612 -2.0930
   20MOL0     H 2601   6.406   4.891  -0.643  1.0280 -0.5073 -0.2616
   20MOL0     H 2602   6.192   4.896  -0.675 -2.2659  1.7782 -3.8951
   20MOL0     H 2603   5.970   4.929  -0.724 -0.9419 -2.7288  1.8576
   20MOL0     H 2604   5.651   5.249  -0.852  1.6875  0.8985 -0.2372
   20MOL0     H 2605   5.399   5.267  -0.919  0.7976 -1.8261 -1.5627
   20MOL0     H 2606   5.080   5.299  -0.580 -3.6981 -2.3662  1.8359
   20MOL0     H 2607   5.078   5.131  -0.641 -2.3367 -1.6539 -5.6081
   20MOL0     H 2608   4.996   5.216  -0.857 -2.6385  1.5011 -0.4128
   20MOL0     H 2609   4.967   5.367  -0.777  1.6912  0.1344  1.6044
   20MOL0     H 2610   4.767   5.242  -0.771  3.4399  0.9507 -1.3902
   20MOL0     H 2611   4.819   5.259  -0.602  3.3458 -1.5813  1.7561
   20MOL0     H 2612   4.865   5.003  -0.763 -0.4607 -1.7820  0.6277
   20MOL0     H 2613   4.884   5.021  -0.586 -2.6706 -2.7491  1.3730
   20MOL0     H 2614   4.655   4.921  -0.674 -0.8087  0.3487 -1.4585
   20MOL0     H 2615   4.621   5.060  -0.752 -2.2230 -1.1474  1.0683
   20MOL0     H 2616   4.631   5.201  -0.553  4.4315 -0.9496  1.0468
   20MOL0     H 2617   4.658   5.070  -0.444  0.1006 -0.7055 -0.0922
   20MOL0     H 2618   4.414   5.113  -0.612 -1.7584  1.3338  1.7987
   20MOL0     H 2619   4.440   4.959  -0.535  1.5173 -0.5422 -1.3975
   20MOL0     H 2620   4.457   5.216  -0.372  1.2347 -1.2542  2.8861
   20MOL0     H 2621   4.433   5.049  -0.314 -0.8117 -0.4895 -0.1188
   20MOL0     H 2622   5.288   5.228  -0.505  2.9213 -2.2558  2.3782
   20MOL0     H 2623   5.520   5.224  -0.445  1.2280  4.5156 -0.5236
   20MOL0     H 2624   5.944   5.245  -0.438 -0.1720  0.3823 -1.9646
   20MOL0     H 2625   6.171   5.221  -0.378  0.5718 -0.8486  1.4484
   20MOL0     H 2626   7.827   4.649   0.673 -1.2062  1.9129 -1.7425
   20MOL0     H 2627   8.049   4.659   0.774  0.0946 -1.2974 -0.0520
   20MOL0     H 2628   8.454   4.888   0.757  0.2994  0.9592  0.9643
   20MOL0     H 2629   8.591   4.960   0.943  0.3253  0.0996 -1.7382
   20MOL0     H 2630   8.824   4.699   1.066  3.3853 -0.5837  2.0173
   20MOL0     H 2631   8.755   4.647   1.224  1.6573 -0.9831  0.9005
   20MOL0     H 2632   8.938   4.892   1.150  2.3396 -1.0859 -0.4609
   20MOL0     H 2633   8.841   4.906   1.287 -0.4927 -0.7232  0.2523
   20MOL0     H 2634   8.960   4.647   1.328  0.7096 -0.9291 -2.3293
   20MOL0     H 2635   9.019   4.806   1.393 -0.0755 -1.5547  0.6825
   20MOL0     H 2636   9.120   4.679   1.147  1.4714 -0.3358 -0.5294
   20MOL0     H 2637   9.157   4.840   1.213 -1.0993  0.4608 -1.4294
   20MOL0     H 2638   9.419   4.626   1.449  0.6579 -0.0774 -2.3256
   20MOL0     H 2639   8.551   4.580   1.136  5.5969  2.8376  1.5743
   20MOL0     H 2640   8.390   4.509   0.956  0.9195  0.6218 -0.0114
   21MOL0     O 2641   3.985   7.192   7.171  0.8378  0.3425 -0.1579
   21MOL0     C 2642   4.049   7.299   7.172  0.4585  0.2498  0.3809
   21MOL0     O 2643   3.995   7.427   7.163 -0.2615 -0.3262  0.2683
   21MOL0     C 2644   3.853   7.434   7.173 -0.8986 -0.3831 -1.8288
   21MOL0     C 2645   3.779   7.463   7.058 -1.0830 -0.2369 -0.0971
   21MOL0     C 2646   3.642   7.462   7.055  0.7479 -0.1392  0.0595
   21MOL0     C 2647   3.573   7.443   7.176  1.1841 -0.3823 -0.1176
   21MOL0     O 2648   3.433   7.456   7.183 -0.4882  0.7229 -0.6491
   21MOL0     C 2649   3.369   7.366   7.274  0.7788 -1.2053 -0.6304
   21MOL0     C 2650   3.233   7.423   7.307  0.2713 -0.2103 -0.0081
   21MOL0     C 2651   3.118   7.325   7.307 -0.0455  0.0468 -0.2228
   21MOL0     C 2652   2.991   7.374   7.369  0.3042 -0.3220  0.3088
   21MOL0     C 2653   2.886   7.260   7.368  0.0586  0.7454  0.2481
   21MOL0     C 2654   2.765   7.295   7.460 -0.8394 -0.7327  0.2628
   21MOL0     C 2655   2.651   7.204   7.424 -0.4593  0.3500  0.6288
   21MOL0     C 2656   2.518   7.225   7.515 -0.8372  0.4818  0.9504
   21MOL0     N 2657   2.410   7.139   7.458 -0.6649 -0.1020 -0.2549
   21MOL0     C 2658   2.359   7.137   7.334 -0.3267 -0.3358  0.4004
   21MOL0     C 2659   2.252   7.047   7.335 -0.2802  0.8402 -1.2890
   21MOL0     C 2660   2.150   7.002   7.230  0.3488  0.0210 -0.1779
   21MOL0     C 2661   2.000   7.034   7.263 -0.2031  0.2362  0.8240
   21MOL0     C 2662   1.963   6.957   7.392 -0.3995 -0.1311  0.4741
   21MOL0     C 2663   1.817   6.923   7.402  0.5094  0.7355  0.0826
   21MOL0     O 2664   1.789   6.822   7.305  0.6057  0.6200  0.7645
   21MOL0     C 2665   1.662   6.770   7.304  0.1814 -0.2352  0.2560
   21MOL0     C 2666   1.551   6.851   7.342 -0.2588 -0.2092 -0.5504
   21MOL0     C 2667   1.416   6.794   7.345  0.0175 -0.9809  0.4525
   21MOL0     C 2668   1.398   6.662   7.307  0.5995  0.2608  0.9236
   21MOL0     C 2669   1.258   6.610   7.310 -0.7390  1.1425  0.2562
   21MOL0     O 2670   1.237   6.496   7.235  0.7850  0.0908 -0.8954
   21MOL0     C 2671   1.106   6.468   7.198  0.1926 -0.1571  0.9385
   21MOL0     C 2672   0.992   6.450   7.280  0.4334  0.1925 -0.3471
   21MOL0     C 2673   0.883   6.382   7.228 -0.2577  0.7240  0.3711
   21MOL0     C 2674   0.879   6.344   7.095  0.0909  0.5520 -0.3645
   21MOL0     O 2675   0.768   6.291   7.031 -0.0178 -0.4206 -0.6503
   21MOL0     C 2676   0.667   6.215   7.101 -0.6208 -0.9836  0.0231
   21MOL0     C 2677   0.539   6.209   7.022  0.5112 -0.0854  0.9482
   21MOL0     C 2678   0.417   6.132   7.082  0.7101  0.6642 -0.4500
   21MOL0     C 2679   0.311   6.121   6.972  0.7656  0.1512  0.4221
   21MOL0     C 2680   0.178   6.064   7.022 -0.4626  0.7757  0.2607
   21MOL0     C 2681   0.097   6.153   7.109 -0.5925  0.2846  0.1109
   21MOL0     C 2682  -0.053   6.125   7.108 -1.0498 -0.5552 -0.4753
   21MOL0     C 2683  -0.134   6.205   7.210 -0.0499  0.2048 -0.2927
   21MOL0    Cl 2684  -0.115   6.375   7.163  0.0125 -0.4153 -0.1099
   21MOL0     C 2685   0.982   6.371   7.014  0.3132 -0.6024 -0.3482
   21MOL0     C 2686   1.102   6.429   7.059  1.4142 -0.1860 -0.4610
   21MOL0     O 2687   1.171   6.676   7.367  0.6724  0.4378 -0.2750
   21MOL0     C 2688   1.506   6.584   7.263 -0.3595 -0.3390  0.3438
   21MOL0     C 2689   1.639   6.640   7.257 -0.1787 -0.4307 -0.3040
   21MOL0     N 2690   2.256   6.994   7.469  0.4513  0.4374  0.4616
   21MOL0     N 2691   2.340   7.053   7.541 -0.3675  0.9518  0.4446
   21MOL0     C 2692   3.648   7.429   7.294  0.3745  0.0176  0.0934
   21MOL0     C 2693   3.789   7.415   7.293  0.7201  0.2206  0.1719
   21MOL0     C 2694   4.190   7.301   7.205 -0.4101 -0.4478  0.0099
   21MOL0     C 2695   4.250   7.199   7.282  0.1993 -0.9372 -0.1174
   21MOL0     C 2696   4.389   7.206   7.317  0.2794 -0.3800 -0.6095
   21MOL0     C 2697   4.468   7.314   7.266 -0.0696 -0.2976 -0.3971
   21MOL0     O 2698   4.602   7.327   7.278  0.3451 -0.0884 -0.3787
   21MOL0     C 2699   4.678   7.223   7.331 -0.3749 -0.3665 -0.1229
   21MOL0     C 2700   4.820   7.268   7.317 -0.8710 -0.3618  0.2641
   21MOL0     C 2701   4.923   7.162   7.352  0.0342  0.3640  0.2912
   21MOL0     C 2702   5.072   7.204   7.357 -0.1311 -0.1130 -0.4333
   21MOL0     C 2703   5.111   7.217   7.220 -0.0787  0.2420 -0.1520
   21MOL0     C 2704   5.143   7.234   7.102 -0.4611  0.3429 -0.0578
   21MOL0     C 2705   4.403   7.401   7.182  1.1668  0.4012 -0.2500
   21MOL0     C 2706   4.268   7.397   7.149  0.6694 -0.9197  0.0878
   21MOL0     H 2707   3.832   7.492   6.968 -0.6595  0.1073  0.2558
   21MOL0     H 2708   3.588   7.467   6.961 -2.0796  0.7662  1.6078
   21MOL0     H 2709   3.412   7.357   7.374 -3.3715  1.8985  1.7322
   21MOL0     H 2710   3.362   7.264   7.236 -0.5208 -1.6686  0.7509
   21MOL0     H 2711   3.201   7.509   7.247  0.1968  0.9112  1.5587
   21MOL0     H 2712   3.232   7.468   7.407  2.3915 -0.2135  0.0420
   21MOL0     H 2713   3.148   7.234   7.360 -0.4673 -1.6964 -2.7540
   21MOL0     H 2714   3.104   7.292   7.203  1.6730  2.4967 -1.3310
   21MOL0     H 2715   3.013   7.424   7.464  1.5046  2.1851 -1.1543
   21MOL0     H 2716   2.968   7.460   7.305  0.4449 -0.8206 -0.4192
   21MOL0     H 2717   2.933   7.172   7.414  0.5360  0.6538 -0.4038
   21MOL0     H 2718   2.869   7.237   7.263 -0.0042  0.1211  0.3910
   21MOL0     H 2719   2.729   7.397   7.443 -0.3472 -0.9411 -2.4295
   21MOL0     H 2720   2.797   7.294   7.565 -1.5163 -0.2505  0.4828
   21MOL0     H 2721   2.629   7.209   7.317 -0.5827 -0.9326  0.5713
   21MOL0     H 2722   2.683   7.099   7.425  0.3102  0.5416 -1.1797
   21MOL0     H 2723   2.484   7.329   7.528  0.2749  0.7968  1.4826
   21MOL0     H 2724   2.530   7.182   7.615 -0.5033 -1.4544  0.1040
   21MOL0     H 2725   2.397   7.202   7.256 -0.6602  1.3160  1.5737
   21MOL0     H 2726   2.153   6.895   7.213  0.2700  0.0354 -0.2817
   21MOL0     H 2727   2.179   7.055   7.139  3.0501 -1.4578 -0.2882
   21MOL0     H 2728   1.937   7.010   7.177 -1.1786  0.1891  1.5325
   21MOL0     H 2729   1.990   7.143   7.269 -1.5508  0.1357  0.7501
   21MOL0     H 2730   2.014   6.863   7.417 -1.4320 -0.2717  2.2171
   21MOL0     H 2731   1.988   7.016   7.481 -1.2443  1.3594 -0.2387
   21MOL0     H 2732   1.759   7.015   7.395  0.2611  0.5456 -0.4444
   21MOL0     H 2733   1.803   6.880   7.501 -1.4906  2.6225  0.6851
   21MOL0     H 2734   1.568   6.950   7.383  1.1533 -0.8750  0.6135
   21MOL0     H 2735   1.338   6.854   7.391  3.6836  3.7100  1.4102
   21MOL0     H 2736   0.987   6.467   7.387  0.9022 -1.9616  0.0692
   21MOL0     H 2737   0.792   6.363   7.285 -0.0304 -0.5447  0.3517
   21MOL0     H 2738   0.635   6.262   7.195 -0.0565 -1.9406  0.7178
   21MOL0     H 2739   0.703   6.118   7.135  0.4123 -0.3851  0.7358
   21MOL0     H 2740   0.556   6.178   6.918 -3.5175  0.1674  0.0377
   21MOL0     H 2741   0.496   6.309   7.016 -0.3791 -0.4729  0.5759
   21MOL0     H 2742   0.374   6.184   7.168  1.0476  0.8784 -0.4105
   21MOL0     H 2743   0.441   6.035   7.129  0.9813  1.6023  1.4675
   21MOL0     H 2744   0.290   6.222   6.937 -1.9171 -0.4113  0.2235
   21MOL0     H 2745   0.359   6.056   6.898 -1.7316 -1.8558  0.4228
   21MOL0     H 2746   0.193   5.963   7.061 -0.4441  0.7852  0.2780
   21MOL0     H 2747   0.129   6.045   6.926 -0.1133 -3.3825  0.7254
   21MOL0     H 2748   0.110   6.256   7.076 -0.6576 -0.2286 -1.5913
   21MOL0     H 2749   0.137   6.140   7.210  0.6817 -1.9834 -0.6224
   21MOL0     H 2750  -0.089   6.149   7.007  0.9006  3.8891 -0.3112
   21MOL0     H 2751  -0.049   6.016   7.120 -0.1134 -0.8719 -3.0654
   21MOL0     H 2752  -0.092   6.184   7.309 -0.0821  0.1874 -0.2821
   21MOL0     H 2753  -0.237   6.168   7.207  0.2215 -0.6717  0.5102
   21MOL0     H 2754   0.982   6.370   6.906  1.6242  2.3835 -0.4798
   21MOL0     H 2755   1.180   6.446   6.986  1.3111  1.2269 -0.2670
   21MOL0     H 2756   1.495   6.479   7.240  0.5058 -0.6740  1.4095
   21MOL0     H 2757   1.721   6.581   7.218  0.1751  1.6873 -3.1544
   21MOL0     H 2758   3.599   7.440   7.391  1.2042 -0.1032  0.5395
   21MOL0     H 2759   3.847   7.394   7.382  0.2545 -1.4656  0.1242
   21MOL0     H 2760   4.186   7.130   7.336 -0.6920 -0.6771 -0.8254
   21MOL0     H 2761   4.442   7.140   7.386  0.7657  0.3197 -0.3023
   21MOL0     H 2762   4.668   7.131   7.272  0.2863 -2.0288  2.2231
   21MOL0     H 2763   4.643   7.195   7.431 -0.7635  1.4949  0.2920
   21MOL0     H 2764   4.845   7.295   7.214 -2.0755  0.5039  0.1768
   21MOL0     H 2765   4.819   7.354   7.385 -3.0397 -0.7349  0.7786
   21MOL0     H 2766   4.914   7.070   7.293  1.6081  1.0173 -1.0471
   21MOL0     H 2767   4.892   7.139   7.454  2.2822  0.8207  1.1270
   21MOL0     H 2768   5.096   7.300   7.403  0.6473  0.0562 -1.1611
   21MOL0     H 2769   5.135   7.127   7.402 -0.4192  0.0690  0.3008
   21MOL0     H 2770   5.182   7.255   7.004  3.0315  0.8979  1.3202
   21MOL0     H 2771   4.459   7.481   7.134  1.4278  1.8727  2.3064
   21MOL0     H 2772   4.230   7.466   7.075 -0.7423  0.5738  2.1239
   22MOL0     O 2773   5.706   0.470   5.889 -0.4207 -0.5321 -0.4796
   22MOL0     C 2774   5.780   0.385   5.839 -0.1715  0.2708 -0.3609
   22MOL0     O 2775   5.744   0.276   5.761  0.5905 -0.7252  0.0429
   22MOL0     C 2776   5.613   0.255   5.746  0.0594 -0.4401 -0.7065
   22MOL0     C 2777   5.528   0.237   5.859  0.1145  0.6380  0.5333
   22MOL0     C 2778   5.394   0.176   5.836 -0.0412 -0.7158  1.3581
   22MOL0     C 2779   5.363   0.144   5.705  0.2078 -0.2932 -0.0188
   22MOL0     O 2780   5.233   0.114   5.687  0.1933  0.9676  0.6075
   22MOL0     C 2781   5.179   0.118   5.557  0.4362 -0.9384  0.4835
   22MOL0     C 2782   5.034   0.073   5.557 -0.3070  0.0580  0.4976
   22MOL0     C 2783   4.950   0.079   5.424 -0.5669  0.1973 -0.3690
   22MOL0     C 2784   4.797   0.067   5.449 -1.2910  0.7976 -0.5856
   22MOL0     C 2785   4.696   0.083   5.327  0.1773  0.2334  0.2070
   22MOL0     C 2786   4.556   0.061   5.376 -0.3851 -0.3877  0.4324
   22MOL0     C 2787   4.445   0.131   5.290 -1.0818  0.2883  0.9691
   22MOL0     C 2788   4.434   0.078   5.140  0.8882 -0.4821 -0.2231
   22MOL0     N 2789   4.314   0.137   5.073  0.4643 -0.4377  0.3559
   22MOL0     C 2790   4.194   0.150   5.135 -0.3112 -0.4830 -0.5201
   22MOL0     C 2791   4.107   0.169   5.029  0.5202 -0.3347  0.3114
   22MOL0     C 2792   3.954   0.184   5.038  0.3424 -0.6230  0.9487
   22MOL0     C 2793   3.872   0.096   5.131 -0.4645  0.7893  1.0648
   22MOL0     C 2794   3.726   0.065   5.078  0.6671  0.2427 -0.2827
   22MOL0     C 2795   3.633   0.194   5.085  0.3790 -0.1786 -0.7676
   22MOL0     O 2796   3.513   0.160   5.021 -0.1756  0.7511  0.0040
   22MOL0     C 2797   3.415   0.088   5.085 -0.3263 -0.5696 -0.1620
   22MOL0     C 2798   3.417   0.056   5.222  0.3799  0.1089  0.1927
   22MOL0     C 2799   3.307  -0.007   5.281  0.3848  0.4674  0.7135
   22MOL0     C 2800   3.188  -0.029   5.209 -0.1280  1.3850 -0.1430
   22MOL0     C 2801   3.074  -0.085   5.279  0.6388 -0.9908 -0.1053
   22MOL0     O 2802   2.962  -0.103   5.199 -0.1025 -0.1342  0.0423
   22MOL0     C 2803   2.846  -0.156   5.261 -0.2707 -0.2745  0.3173
   22MOL0     C 2804   2.781  -0.099   5.368 -0.1158 -0.2309  0.2424
   22MOL0     C 2805   2.662  -0.152   5.422  0.1133 -0.5720 -0.2316
   22MOL0     C 2806   2.591  -0.261   5.360  0.1989 -0.3138 -0.2468
   22MOL0     O 2807   2.477  -0.310   5.411  0.5783  0.6375 -0.7573
   22MOL0     C 2808   2.472  -0.449   5.439  0.2152  0.2108  0.1049
   22MOL0     C 2809   2.325  -0.478   5.480  0.2149  0.9686 -0.2676
   22MOL0     C 2810   2.310  -0.622   5.544 -0.0643 -0.4103 -0.3393
   22MOL0     C 2811   2.163  -0.638   5.594 -0.7805  0.7969  0.0490
   22MOL0     C 2812   2.136  -0.787   5.616 -0.1193 -0.8863  0.8126
   22MOL0     C 2813   1.994  -0.804   5.672  0.2277 -0.5144 -0.1988
   22MOL0     C 2814   1.950  -0.955   5.678 -0.1675  0.7774 -0.1978
   22MOL0     C 2815   1.799  -0.972   5.721 -0.2163  0.1849  0.6339
   22MOL0    Cl 2816   1.767  -0.934   5.898  0.4387 -0.1253  0.4445
   22MOL0     C 2817   2.658  -0.313   5.242 -0.3236  0.5032 -0.4618
   22MOL0     C 2818   2.781  -0.264   5.194 -0.4013 -0.2294  0.3333
   22MOL0     O 2819   3.083  -0.115   5.399  0.5765  0.2129  0.1438
   22MOL0     C 2820   3.188   0.001   5.076 -0.0790  0.3987  0.1422
   22MOL0     C 2821   3.299   0.054   5.015  0.7256 -0.0777 -0.4714
   22MOL0     N 2822   4.185   0.197   4.912  0.5853 -0.0309  0.5324
   22MOL0     N 2823   4.301   0.178   4.948 -0.8359 -0.1379 -1.0055
   22MOL0     C 2824   5.452   0.159   5.599 -0.4792 -0.1756 -0.7085
   22MOL0     C 2825   5.578   0.215   5.620  1.4139  0.7398  0.1573
   22MOL0     C 2826   5.920   0.404   5.844  0.1646 -0.5090  0.8658
   22MOL0     C 2827   5.978   0.518   5.916  0.6817 -0.3153  0.3571
   22MOL0     C 2828   6.110   0.529   5.929  0.2600  0.3536 -0.1845
   22MOL0     C 2829   6.192   0.432   5.872  0.3400  0.0690  0.0909
   22MOL0     O 2830   6.327   0.436   5.904  0.1407 -0.3245  0.1858
   22MOL0     C 2831   6.394   0.313   5.894 -0.1792  0.6630 -0.1093
   22MOL0     C 2832   6.542   0.315   5.935 -0.1010  0.1095 -0.1138
   22MOL0     C 2833   6.556   0.315   6.092 -0.0897 -0.4673 -0.2788
   22MOL0     C 2834   6.698   0.290   6.138  0.5229 -0.6701  0.5366
   22MOL0     C 2835   6.714   0.140   6.117  0.4315  0.1225 -0.2115
   22MOL0     C 2836   6.727   0.027   6.078  0.1913  0.0791 -0.1294
   22MOL0     C 2837   6.142   0.334   5.791 -0.8212 -0.0618  0.1260
   22MOL0     C 2838   6.005   0.318   5.781  0.5652  0.5208 -0.4342
   22MOL0     H 2839   5.554   0.252   5.963 -0.9178 -2.3077  1.3245
   22MOL0     H 2840   5.325   0.155   5.917 -3.1812 -1.6254 -1.3199
   22MOL0     H 2841   5.231   0.054   5.485 -0.7102  1.0475 -2.3024
   22MOL0     H 2842   5.176   0.220   5.518 -0.1111 -0.5133  1.5836
   22MOL0     H 2843   4.979   0.143   5.621  2.5165  3.4219 -0.3968
   22MOL0     H 2844   5.036  -0.030   5.593  1.3690 -0.2297 -0.3499
   22MOL0     H 2845   4.987   0.005   5.353  0.1882  2.0950 -2.0313
   22MOL0     H 2846   4.970   0.174   5.375  3.2735  1.3607  2.8865
   22MOL0     H 2847   4.779  -0.037   5.478 -3.1603  0.4509 -2.7228
   22MOL0     H 2848   4.780   0.122   5.541 -0.2420 -3.2822  2.3581
   22MOL0     H 2849   4.721   0.028   5.236 -1.7260  2.4892 -1.8060
   22MOL0     H 2850   4.712   0.184   5.287  1.3838  1.6611  3.8329
   22MOL0     H 2851   4.545   0.099   5.477 -0.1483  0.8050  0.0238
   22MOL0     H 2852   4.530  -0.045   5.384  0.4986 -0.8239 -1.6952
   22MOL0     H 2853   4.352   0.121   5.347  0.2072 -0.8201  3.0016
   22MOL0     H 2854   4.476   0.236   5.283 -1.4207  0.2975 -1.0771
   22MOL0     H 2855   4.402  -0.027   5.137 -4.6614  0.9090 -0.9749
   22MOL0     H 2856   4.527   0.096   5.084 -0.0140 -0.4538 -1.7575
   22MOL0     H 2857   4.159   0.125   5.235 -1.3455 -0.0258 -0.7501
   22MOL0     H 2858   3.918   0.167   4.936 -0.5586 -0.9143  1.3022
   22MOL0     H 2859   3.916   0.286   5.056  1.5475 -0.3961  2.3920
   22MOL0     H 2860   3.874   0.152   5.224 -0.1935 -0.7090  1.9960
   22MOL0     H 2861   3.909  -0.006   5.145 -5.6869 -1.0510  4.1563
   22MOL0     H 2862   3.739   0.028   4.976  3.1127 -0.8453  0.3462
   22MOL0     H 2863   3.680  -0.018   5.132 -0.6899  0.6598 -0.7526
   22MOL0     H 2864   3.686   0.264   5.019  1.5664  0.9417  1.2482
   22MOL0     H 2865   3.623   0.247   5.180  0.5459 -0.5006 -0.5674
   22MOL0     H 2866   3.502   0.082   5.285  1.6408 -0.3939 -1.2622
   22MOL0     H 2867   3.327  -0.062   5.373  0.2203  0.2427  0.6160
   22MOL0     H 2868   2.828  -0.008   5.402 -1.4243  0.9070 -0.8806
   22MOL0     H 2869   2.605  -0.117   5.507  1.9630 -0.0744  0.8754
   22MOL0     H 2870   2.542  -0.476   5.520  0.3409 -1.1863 -0.4339
   22MOL0     H 2871   2.500  -0.510   5.352  0.2237  0.0331  0.2325
   22MOL0     H 2872   2.252  -0.465   5.400  0.1897  0.4537 -0.3320
   22MOL0     H 2873   2.296  -0.399   5.550 -2.4255  0.3953 -0.5953
   22MOL0     H 2874   2.382  -0.636   5.625 -1.7082 -1.3203  1.0260
   22MOL0     H 2875   2.343  -0.697   5.471 -0.4523  0.5959 -1.5885
   22MOL0     H 2876   2.136  -0.583   5.685 -2.0335 -2.5385  1.8879
   22MOL0     H 2877   2.087  -0.602   5.525 -1.9861  2.4888  2.1255
   22MOL0     H 2878   2.205  -0.836   5.685 -0.3571  0.7629  2.3132
   22MOL0     H 2879   2.143  -0.835   5.518 -0.9246 -2.1590  1.3560
   22MOL0     H 2880   1.924  -0.760   5.600  0.6381 -2.5928 -1.9634
   22MOL0     H 2881   1.988  -0.751   5.768 -2.6625  2.1014 -1.6268
   22MOL0     H 2882   1.970  -1.000   5.581  0.8058  1.5330 -0.3643
   22MOL0     H 2883   2.011  -1.014   5.748  1.6571  1.3255 -1.2611
   22MOL0     H 2884   1.757  -1.072   5.703  0.9440 -0.1829 -0.1316
   22MOL0     H 2885   1.742  -0.900   5.661  1.5013  0.7507 -0.4072
   22MOL0     H 2886   2.609  -0.398   5.196  3.0210 -1.4091 -0.7598
   22MOL0     H 2887   2.833  -0.306   5.109  0.4808  2.1745 -0.3911
   22MOL0     H 2888   3.095  -0.011   5.021 -1.1354 -1.5796  2.2057
   22MOL0     H 2889   3.275   0.080   4.912 -2.6091  2.6032  0.8066
   22MOL0     H 2890   5.433   0.140   5.493 -0.2856 -1.8441 -0.4815
   22MOL0     H 2891   5.647   0.228   5.537  0.4623 -2.8067 -1.3888
   22MOL0     H 2892   5.916   0.592   5.965 -1.7638 -1.9546 -0.0822
   22MOL0     H 2893   6.152   0.615   5.979 -1.0623  1.3245 -0.6880
   22MOL0     H 2894   6.390   0.262   5.797  0.9454  0.2909  0.0209
   22MOL0     H 2895   6.336   0.238   5.948 -1.4798 -0.8052 -3.2556
   22MOL0     H 2896   6.580   0.222   5.894  2.5326  1.2324 -0.3949
   22MOL0     H 2897   6.605   0.387   5.883  2.1689 -0.6827  1.3962
   22MOL0     H 2898   6.495   0.245   6.149  0.2912  0.1838  0.9558
   22MOL0     H 2899   6.538   0.415   6.134  1.5599 -0.5042  0.5755
   22MOL0     H 2900   6.769   0.353   6.083 -1.3437 -0.0584 -1.3216
   22MOL0     H 2901   6.707   0.329   6.239 -0.6835  1.1622 -0.0032
   22MOL0     H 2902   6.723  -0.076   6.050 -2.4207  0.7673 -2.8632
   22MOL0     H 2903   6.198   0.264   5.731 -3.0480 -2.4465  0.6571
   22MOL0     H 2904   5.960   0.242   5.717 -1.4247  0.6786  0.6777
   23MOL0     O 2905   8.832   8.579   6.219  0.0671 -0.3677  0.3024
   23MOL0     C 2906   8.914   8.585   6.126  1.4488 -0.1389  0.0255
   23MOL0     O 2907   8.880   8.597   5.988 -0.1755  0.3997 -0.3656
   23MOL0     C 2908   8.784   8.512   5.938  0.6303 -0.2035  0.5217
   23MOL0     C 2909   8.808   8.427   5.827  0.1137 -0.8515  0.1317
   23MOL0     C 2910   8.715   8.347   5.778 -0.4003 -0.1582  0.7487
   23MOL0     C 2911   8.590   8.334   5.831 -0.0217 -0.3389 -0.9796
   23MOL0     O 2912   8.505   8.250   5.768 -0.0407  0.5402  0.0083
   23MOL0     C 2913   8.367   8.259   5.812 -0.2153 -0.4179 -0.0143
   23MOL0     C 2914   8.329   8.137   5.900 -0.0546 -0.0930 -0.5276
   23MOL0     C 2915   8.178   8.128   5.936  0.2158  0.2210 -0.9387
   23MOL0     C 2916   8.102   8.042   5.832 -0.1695 -0.0451  0.2225
   23MOL0     C 2917   7.951   8.016   5.855 -0.0502 -0.2079  0.3679
   23MOL0     C 2918   7.926   7.903   5.958 -0.7517  0.5239 -0.2129
   23MOL0     C 2919   7.777   7.895   5.994 -0.5403 -0.7954 -0.6511
   23MOL0     C 2920   7.755   7.785   6.094 -0.4723 -0.2177  0.3251
   23MOL0     N 2921   7.612   7.757   6.105  0.1664 -0.0299  0.2941
   23MOL0     C 2922   7.511   7.843   6.155  1.0858 -0.2643  0.5735
   23MOL0     C 2923   7.393   7.774   6.133 -0.6049  0.2618 -0.1675
   23MOL0     C 2924   7.258   7.824   6.166 -0.1008 -0.6091 -0.2541
   23MOL0     C 2925   7.150   7.809   6.057 -0.5033  0.2644  0.2593
   23MOL0     C 2926   7.007   7.847   6.091 -1.0975 -0.3801  0.0308
   23MOL0     C 2927   6.909   7.768   6.001  0.5304  0.6917 -0.3130
   23MOL0     O 2928   6.781   7.825   6.024  0.2998  0.1636 -0.1235
   23MOL0     C 2929   6.671   7.756   5.982  0.3056  0.2191  0.0146
   23MOL0     C 2930   6.560   7.781   6.063  0.5859 -0.1436 -0.5380
   23MOL0     C 2931   6.437   7.718   6.037  0.7688  0.7773  0.2726
   23MOL0     C 2932   6.424   7.628   5.929 -0.1079  0.0084  0.5164
   23MOL0     C 2933   6.291   7.568   5.892  0.3114  0.4933  0.2096
   23MOL0     O 2934   6.220   7.519   5.996  0.5837 -0.3257 -0.4541
   23MOL0     C 2935   6.090   7.478   5.977  1.1370  0.8085 -0.5298
   23MOL0     C 2936   5.979   7.528   6.041 -0.0741 -0.1952 -0.1917
   23MOL0     C 2937   5.849   7.484   6.006  1.0072  0.3069  0.1997
   23MOL0     C 2938   5.825   7.385   5.913  0.1462  0.4084 -0.5718
   23MOL0     O 2939   5.704   7.321   5.880  0.2840  0.1454 -0.1783
   23MOL0     C 2940   5.636   7.268   5.994  0.3974 -0.9157 -0.2839
   23MOL0     C 2941   5.511   7.189   5.948 -0.0899  0.1268  1.1374
   23MOL0     C 2942   5.472   7.078   6.039  0.1372  0.2979  0.3054
   23MOL0     C 2943   5.403   7.147   6.163 -0.5019 -0.6112  0.1662
   23MOL0     C 2944   5.302   7.062   6.234 -0.1511  0.1742 -0.7115
   23MOL0     C 2945   5.163   7.056   6.154 -0.3512 -0.6091 -0.8717
   23MOL0     C 2946   5.053   7.000   6.253 -0.4863 -0.4278 -1.0043
   23MOL0     C 2947   4.922   7.010   6.176  0.3121 -0.4500 -0.1132
   23MOL0    Cl 2948   4.803   6.901   6.268  0.2697  0.1521  0.0157
   23MOL0     C 2949   5.941   7.332   5.847  0.5758 -0.2141  0.4568
   23MOL0     C 2950   6.070   7.378   5.878 -0.5162  0.3572 -0.3503
   23MOL0     O 2951   6.256   7.580   5.775  0.4983  0.1896  0.3022
   23MOL0     C 2952   6.530   7.597   5.847 -0.4314 -0.3344  0.5476
   23MOL0     C 2953   6.654   7.668   5.870 -0.4672 -0.9291  0.2959
   23MOL0     N 2954   7.428   7.650   6.079  1.5129  0.6123  0.0183
   23MOL0     N 2955   7.549   7.637   6.070 -0.1166  0.2579 -0.1463
   23MOL0     C 2956   8.565   8.411   5.951 -0.4306  0.0831  0.0420
   23MOL0     C 2957   8.655   8.514   5.993 -0.1389  0.0952 -0.6527
   23MOL0     C 2958   9.056   8.585   6.163 -0.1314  0.1281  0.6307
   23MOL0     C 2959   9.098   8.505   6.265 -0.1278 -0.2928  0.0769
   23MOL0     C 2960   9.234   8.490   6.296 -0.3824  0.8579  0.4305
   23MOL0     C 2961   9.326   8.546   6.209 -0.0508 -0.4905 -0.0530
   23MOL0     O 2962   9.460   8.552   6.242 -0.1877 -0.2162  0.4949
   23MOL0     C 2963   9.521   8.437   6.310 -1.1069 -0.2665  0.1238
   23MOL0     C 2964   9.657   8.472   6.366 -1.4267 -1.0199  0.2287
   23MOL0     C 2965   9.741   8.344   6.401 -0.1512 -0.1345 -0.3948
   23MOL0     C 2966   9.771   8.342   6.550 -0.6620  0.0093  0.3718
   23MOL0     C 2967   9.648   8.309   6.623 -0.1809  0.4792  0.5809
   23MOL0     C 2968   9.540   8.292   6.677 -0.2498 -0.5380 -0.6477
   23MOL0     C 2969   9.287   8.626   6.098 -0.4895 -0.0032  0.7270
   23MOL0     C 2970   9.151   8.643   6.078  0.0088  0.1139  0.0709
   23MOL0     H 2971   8.900   8.439   5.772  1.4372  4.1740  2.8425
   23MOL0     H 2972   8.746   8.285   5.695  3.5119  0.5358  1.4730
   23MOL0     H 2973   8.311   8.249   5.719  3.6409 -3.6193 -2.3272
   23MOL0     H 2974   8.341   8.348   5.870 -1.7615  0.3919 -1.8843
   23MOL0     H 2975   8.387   8.141   5.993  0.1857  1.0201 -0.7177
   23MOL0     H 2976   8.365   8.050   5.844  3.7983  1.0222 -0.0474
   23MOL0     H 2977   8.146   8.232   5.951 -2.6069 -0.5709 -0.8767
   23MOL0     H 2978   8.160   8.084   6.034  1.2390 -0.4585 -1.0433
   23MOL0     H 2979   8.101   8.109   5.745 -0.7164  1.0302  1.0486
   23MOL0     H 2980   8.161   7.954   5.803  1.7561  1.0372  0.6625
   23MOL0     H 2981   7.888   7.992   5.769  1.0993  0.7474 -0.7778
   23MOL0     H 2982   7.904   8.106   5.897 -1.2736 -0.0864 -1.2004
   23MOL0     H 2983   7.999   7.919   6.038 -2.3910  0.3354  1.3661
   23MOL0     H 2984   7.965   7.811   5.913  1.2387  2.1657 -2.1074
   23MOL0     H 2985   7.745   7.991   6.034  0.6849 -0.3772 -0.6344
   23MOL0     H 2986   7.724   7.880   5.900  1.6204  2.2947 -2.5600
   23MOL0     H 2987   7.804   7.809   6.189  0.2914 -1.8909  0.4071
   23MOL0     H 2988   7.803   7.693   6.058  1.7834  0.9367  0.1857
   23MOL0     H 2989   7.517   7.943   6.198 -1.8954 -0.3757  1.5253
   23MOL0     H 2990   7.258   7.931   6.186  0.4836 -0.1972 -2.2512
   23MOL0     H 2991   7.221   7.776   6.258 -1.2875  2.5239  1.0247
   23MOL0     H 2992   7.146   7.701   6.037  1.0823  0.3506 -0.6776
   23MOL0     H 2993   7.183   7.850   5.961  0.3267 -2.5476 -0.7796
   23MOL0     H 2994   6.981   7.830   6.196 -1.0271 -2.1665 -0.1942
   23MOL0     H 2995   7.004   7.954   6.073  2.1247  0.1599  1.9420
   23MOL0     H 2996   6.908   7.663   6.031 -0.4412  1.1652  1.4723
   23MOL0     H 2997   6.939   7.778   5.896  0.4106  0.5217 -0.3633
   23MOL0     H 2998   6.574   7.860   6.136  0.4507  1.6536 -2.3651
   23MOL0     H 2999   6.345   7.733   6.092 -0.6202 -0.6310 -1.5233
   23MOL0     H 3000   5.991   7.597   6.123  1.5167 -1.6063  0.8165
   23MOL0     H 3001   5.763   7.522   6.061  2.4540  4.3875  0.0555
   23MOL0     H 3002   5.614   7.355   6.057 -0.3311 -0.6028 -0.9552
   23MOL0     H 3003   5.708   7.203   6.046 -0.6465 -1.3188  0.7079
   23MOL0     H 3004   5.540   7.147   5.851 -0.3503  0.5837  0.8621
   23MOL0     H 3005   5.428   7.253   5.919 -0.1667 -0.6636 -0.5080
   23MOL0     H 3006   5.559   7.018   6.066 -1.1561 -1.1360  1.4979
   23MOL0     H 3007   5.401   7.012   5.988 -1.3966  1.1529  1.2433
   23MOL0     H 3008   5.479   7.169   6.239  0.1212 -0.1468 -0.5811
   23MOL0     H 3009   5.361   7.245   6.138 -0.8040 -0.8255 -0.1808
   23MOL0     H 3010   5.273   7.112   6.326 -1.7141 -0.5446 -0.7759
   23MOL0     H 3011   5.347   6.966   6.260 -1.6847  0.4602  3.7860
   23MOL0     H 3012   5.182   6.984   6.074  0.1929  0.4661 -1.7347
   23MOL0     H 3013   5.127   7.149   6.111 -2.9822  0.2217  2.6434
   23MOL0     H 3014   5.066   6.896   6.281  1.4752  0.1014  0.2416
   23MOL0     H 3015   5.039   7.060   6.343  0.4605  0.6758 -1.5538
   23MOL0     H 3016   4.942   6.972   6.075 -1.4127 -0.9801 -0.2873
   23MOL0     H 3017   4.887   7.112   6.162 -1.6557 -0.7056  2.2397
   23MOL0     H 3018   5.925   7.264   5.764 -1.0761  0.5697  0.0800
   23MOL0     H 3019   6.159   7.328   5.840  0.6706  2.8098 -1.0641
   23MOL0     H 3020   6.518   7.518   5.773 -2.3865  0.8060 -0.4182
   23MOL0     H 3021   6.739   7.648   5.805  0.1888  1.9627  0.1207
   23MOL0     H 3022   8.478   8.395   6.014  0.1416 -1.3998  0.4973
   23MOL0     H 3023   8.629   8.583   6.072 -0.9119 -1.7724  0.7864
   23MOL0     H 3024   9.030   8.447   6.326 -2.5358  2.5416  0.2876
   23MOL0     H 3025   9.260   8.447   6.391 -0.7917 -0.9723 -0.2434
   23MOL0     H 3026   9.548   8.365   6.231  0.0660  1.6999 -1.3854
   23MOL0     H 3027   9.466   8.380   6.385  1.0575  0.2679  2.2316
   23MOL0     H 3028   9.720   8.530   6.298 -0.8229 -1.1978  0.6315
   23MOL0     H 3029   9.638   8.529   6.458 -0.3018  3.1789 -1.8691
   23MOL0     H 3030   9.830   8.348   6.338  1.5108  2.2074  1.8748
   23MOL0     H 3031   9.690   8.250   6.378  1.7753 -2.4499  3.5830
   23MOL0     H 3032   9.834   8.254   6.567  1.0633  0.7252 -1.7684
   23MOL0     H 3033   9.829   8.427   6.587  3.2515 -1.4679 -1.7446
   23MOL0     H 3034   9.444   8.272   6.719 -0.5705  0.0699 -1.0753
   23MOL0     H 3035   9.362   8.677   6.038 -1.7357  2.3700  1.0770
   23MOL0     H 3036   9.113   8.703   5.996 -1.6102 -0.3066  0.4793
   24MOL0     O 3037   3.920  11.155   3.660 -0.4391 -0.5342 -0.0600
   24MOL0     C 3038   3.933  11.248   3.737  0.3404  0.8790 -0.3317
   24MOL0     O 3039   3.832  11.325   3.788  0.4708  0.9530  0.6940
   24MOL0     C 3040   3.699  11.273   3.763  0.2772  0.1728  0.2809
   24MOL0     C 3041   3.622  11.193   3.842 -0.1260 -0.1425 -0.8328
   24MOL0     C 3042   3.495  11.150   3.818  0.0470 -0.1681 -0.2524
   24MOL0     C 3043   3.420  11.192   3.706 -1.1667 -1.1978 -0.6790
   24MOL0     O 3044   3.287  11.175   3.679  0.4334  0.0775 -0.8685
   24MOL0     C 3045   3.222  11.078   3.756 -0.2494  0.6823 -0.6602
   24MOL0     C 3046   3.126  11.000   3.662  0.4705 -0.8437  0.3320
   24MOL0     C 3047   2.995  11.074   3.612 -0.6597  0.8631 -0.7236
   24MOL0     C 3048   2.923  10.999   3.499  0.3245 -0.2201 -0.4689
   24MOL0     C 3049   2.788  11.061   3.486 -0.0579  0.1494  0.1244
   24MOL0     C 3050   2.712  11.026   3.358 -0.0086 -0.3298  0.3218
   24MOL0     C 3051   2.561  11.076   3.370 -0.2819  0.0646  0.7457
   24MOL0     C 3052   2.500  11.074   3.230  0.4623  0.7073  0.3202
   24MOL0     N 3053   2.357  11.057   3.232  0.1142 -0.9258  0.1011
   24MOL0     C 3054   2.257  11.158   3.235 -0.2299  0.1114  0.1657
   24MOL0     C 3055   2.145  11.096   3.280 -0.8450  0.7769  0.6469
   24MOL0     C 3056   2.006  11.156   3.289  0.5528 -0.5217 -0.5768
   24MOL0     C 3057   1.953  11.177   3.150  0.2369  0.2842  0.2464
   24MOL0     C 3058   1.917  11.033   3.088 -0.7017  0.1521  0.8705
   24MOL0     C 3059   1.813  11.048   2.981 -0.1237 -1.1860  0.0640
   24MOL0     O 3060   1.684  11.068   3.040 -0.1339 -0.1359 -0.2689
   24MOL0     C 3061   1.577  11.059   2.954 -0.8547 -0.4042 -0.2346
   24MOL0     C 3062   1.459  11.072   3.020  0.0045 -0.3700  0.1004
   24MOL0     C 3063   1.333  11.060   2.961  0.0414 -0.2721 -0.4554
   24MOL0     C 3064   1.321  11.025   2.833  0.5774  0.2079 -0.1320
   24MOL0     C 3065   1.196  11.016   2.760 -0.6727 -0.1349 -0.1096
   24MOL0     O 3066   1.213  11.040   2.622  0.3197 -0.0862  0.1156
   24MOL0     C 3067   1.094  11.020   2.547  0.6173 -0.4245  0.1583
   24MOL0     C 3068   0.988  11.109   2.546 -0.8591  0.2692 -0.0567
   24MOL0     C 3069   0.879  11.080   2.459  0.5915 -0.2603  0.4992
   24MOL0     C 3070   0.887  10.983   2.358  0.4590  0.0476 -0.3198
   24MOL0     O 3071   0.783  10.976   2.266  0.5587  0.0776 -0.4569
   24MOL0     C 3072   0.724  10.843   2.266  0.0866 -0.8293  0.6724
   24MOL0     C 3073   0.590  10.843   2.184 -0.2959  0.1869 -0.0839
   24MOL0     C 3074   0.530  10.703   2.170 -0.0546  0.1645  0.1633
   24MOL0     C 3075   0.392  10.714   2.091 -0.7399  0.9812  0.0387
   24MOL0     C 3076   0.305  10.591   2.090 -0.2080  0.2851 -0.9998
   24MOL0     C 3077   0.187  10.595   1.992  0.5850 -0.0680 -0.1047
   24MOL0     C 3078   0.099  10.484   2.026  0.4293 -0.5191 -0.2493
   24MOL0     C 3079   0.143  10.360   1.946  0.3506 -0.6911 -0.1398
   24MOL0    Cl 3080   0.028  10.227   1.961  0.0513  0.5676 -0.1144
   24MOL0     C 3081   0.998  10.893   2.358 -0.9025  0.5492  0.2704
   24MOL0     C 3082   1.103  10.914   2.454  0.4017  0.5261  0.6282
   24MOL0     O 3083   1.106  10.954   2.815 -0.1118 -0.2009 -0.5084
   24MOL0     C 3084   1.448  11.013   2.762  0.1940  0.1119 -0.5514
   24MOL0     C 3085   1.572  11.029   2.819 -0.8992 -0.0750 -0.2217
   24MOL0     N 3086   2.182  10.969   3.319  0.0336 -0.0747 -1.2400
   24MOL0     N 3087   2.306  10.945   3.298  0.0277 -0.3843 -0.1036
   24MOL0     C 3088   3.499  11.276   3.617 -0.3888 -0.4478  0.3912
   24MOL0     C 3089   3.634  11.321   3.646  0.4171 -0.1059 -0.3874
   24MOL0     C 3090   4.070  11.279   3.789 -0.5112  0.6372 -0.6436
   24MOL0     C 3091   4.090  11.317   3.921  0.9211  0.1865 -0.1708
   24MOL0     C 3092   4.215  11.341   3.973  0.0511 -0.3264  0.2617
   24MOL0     C 3093   4.331  11.325   3.896  0.8432 -0.1525 -0.0008
   24MOL0     O 3094   4.461  11.362   3.930  0.1872 -0.7926 -0.2258
   24MOL0     C 3095   4.488  11.397   4.068 -0.2200  0.0116  0.1842
   24MOL0     C 3096   4.641  11.428   4.089  0.2280 -0.1633 -0.2148
   24MOL0     C 3097   4.687  11.576   4.053  0.3239  0.7387 -0.5117
   24MOL0     C 3098   4.761  11.579   3.922  0.6149 -0.0577  0.0175
   24MOL0     C 3099   4.836  11.703   3.919 -0.5159 -0.3277  0.2641
   24MOL0     C 3100   4.908  11.804   3.923 -0.8697  1.0629  0.7995
   24MOL0     C 3101   4.310  11.278   3.768  0.2643 -0.3555 -0.4142
   24MOL0     C 3102   4.180  11.250   3.710 -0.8216  0.7273 -1.2791
   24MOL0     H 3103   3.665  11.192   3.941  0.1257  2.1318 -0.8658
   24MOL0     H 3104   3.447  11.101   3.903 -1.4828  2.8575  0.7992
   24MOL0     H 3105   3.161  11.130   3.830 -0.4605 -0.1164 -0.2759
   24MOL0     H 3106   3.284  11.010   3.814 -0.6021 -0.4065 -1.5389
   24MOL0     H 3107   3.103  10.910   3.718 -0.8262 -1.8492 -1.6776
   24MOL0     H 3108   3.189  10.975   3.577 -0.3228 -1.9217  0.0416
   24MOL0     H 3109   3.026  11.176   3.588 -0.1745  1.4105  1.9424
   24MOL0     H 3110   2.929  11.097   3.696  0.7277 -1.2276  1.0475
   24MOL0     H 3111   2.970  10.992   3.401 -0.9102  0.4266 -1.1261
   24MOL0     H 3112   2.897  10.899   3.535 -1.4101  0.3697  0.0194
   24MOL0     H 3113   2.796  11.169   3.501 -1.4287  0.1507  1.0435
   24MOL0     H 3114   2.740  11.024   3.577  2.7852 -2.3879  0.7477
   24MOL0     H 3115   2.710  10.920   3.329 -0.4259  0.0567 -1.1922
   24MOL0     H 3116   2.758  11.081   3.275  0.3032 -1.1257 -0.0514
   24MOL0     H 3117   2.506  11.008   3.436 -2.6405  2.7099  1.6823
   24MOL0     H 3118   2.546  11.174   3.416 -0.2803 -0.1222  1.1522
   24MOL0     H 3119   2.543  10.988   3.179 -0.3117 -0.2724  1.2709
   24MOL0     H 3120   2.531  11.162   3.173  0.6515  2.0541  2.3772
   24MOL0     H 3121   2.274  11.258   3.196 -0.7087  0.3462  0.5570
   24MOL0     H 3122   2.010  11.251   3.344 -0.0010 -0.9723  0.2512
   24MOL0     H 3123   1.943  11.090   3.349  1.4784  0.6987  1.8873
   24MOL0     H 3124   2.027  11.230   3.089  0.1798  1.4301  1.1320
   24MOL0     H 3125   1.859  11.232   3.153  0.6512  1.2157 -2.0115
   24MOL0     H 3126   2.006  10.983   3.051 -1.3647 -1.4118  1.3296
   24MOL0     H 3127   1.867  10.969   3.161 -2.7388  1.3373  0.5980
   24MOL0     H 3128   1.809  10.956   2.921  0.4934 -0.8472 -0.5074
   24MOL0     H 3129   1.836  11.134   2.918 -1.8831  0.5857  1.6916
   24MOL0     H 3130   1.464  11.101   3.125 -1.3478  0.7580 -0.1204
   24MOL0     H 3131   1.253  11.077   3.032  1.7043 -0.3293  1.5327
   24MOL0     H 3132   0.984  11.194   2.615 -0.2243  0.0924  0.2046
   24MOL0     H 3133   0.809  11.163   2.449  1.8133  0.9283  1.3865
   24MOL0     H 3134   0.708  10.805   2.367  0.2370 -0.6293  0.7721
   24MOL0     H 3135   0.797  10.777   2.218  1.0501  1.6065 -1.4798
   24MOL0     H 3136   0.617  10.868   2.080  1.7678  0.3024  0.4294
   24MOL0     H 3137   0.516  10.914   2.221 -1.2184 -0.4577 -0.6610
   24MOL0     H 3138   0.508  10.652   2.264  2.2991 -0.5703  0.3808
   24MOL0     H 3139   0.607  10.642   2.122  0.2058 -0.2595  1.0905
   24MOL0     H 3140   0.336  10.799   2.131 -0.1908  0.5056  1.9480
   24MOL0     H 3141   0.416  10.740   1.988  0.5049  1.5328  0.4445
   24MOL0     H 3142   0.270  10.575   2.192  0.8545  2.7804 -0.1674
   24MOL0     H 3143   0.366  10.511   2.048  2.9617  2.1635 -0.3260
   24MOL0     H 3144   0.221  10.599   1.888  0.8590  3.0627  0.0049
   24MOL0     H 3145   0.131  10.686   2.014  2.3701  0.5326  2.3489
   24MOL0     H 3146   0.076  10.469   2.132  0.4347  2.7850  0.3409
   24MOL0     H 3147  -0.002  10.509   1.989  1.6385  2.7468 -1.7564
   24MOL0     H 3148   0.244  10.324   1.967  0.6519 -0.2355 -0.7724
   24MOL0     H 3149   0.140  10.385   1.840  0.3696 -1.0899 -0.2361
   24MOL0     H 3150   0.988  10.808   2.292 -0.9030 -0.7884  1.9437
   24MOL0     H 3151   1.193  10.857   2.436  0.2649  0.1351  1.1816
   24MOL0     H 3152   1.453  10.987   2.657 -0.5738  1.3378 -0.9149
   24MOL0     H 3153   1.665  11.007   2.768 -2.0689 -0.7337 -2.2059
   24MOL0     H 3154   3.457  11.303   3.521  0.8620 -0.4199 -0.1547
   24MOL0     H 3155   3.684  11.393   3.583 -0.7996 -0.3845 -1.7170
   24MOL0     H 3156   4.004  11.321   3.986  0.1423 -0.8038 -1.0891
   24MOL0     H 3157   4.221  11.365   4.079  0.2784  1.6074 -0.1509
   24MOL0     H 3158   4.458  11.315   4.133  1.0198 -0.4928  0.1635
   24MOL0     H 3159   4.439  11.493   4.085  1.9293  1.5286 -1.4542
   24MOL0     H 3160   4.666  11.395   4.190  3.1774 -3.0173 -1.6913
   24MOL0     H 3161   4.696  11.361   4.023  1.7721 -0.1791  1.0326
   24MOL0     H 3162   4.753  11.617   4.130  1.0852  2.1679 -1.8589
   24MOL0     H 3163   4.602  11.645   4.057  0.1393  0.5025 -0.3187
   24MOL0     H 3164   4.831  11.496   3.929 -4.1090 -4.5167  0.4824
   24MOL0     H 3165   4.696  11.568   3.835  2.1866 -2.0336 -0.9727
   24MOL0     H 3166   4.973  11.888   3.904  0.5166 -0.2797 -0.7699
   24MOL0     H 3167   4.397  11.272   3.704  0.2489  0.7147 -0.5535
   24MOL0     H 3168   4.160  11.201   3.615 -0.5616 -0.5161 -0.7095
   25MOL0     O 3169   9.705  10.979   9.866  0.1791  0.4302 -0.2779
   25MOL0     C 3170   9.784  10.897   9.813  0.1850  0.6223  0.5931
   25MOL0     O 3171   9.749  10.774   9.778  0.2290  0.0078 -0.0223
   25MOL0     C 3172   9.620  10.730   9.777 -0.6256 -0.3335 -0.1117
   25MOL0     C 3173   9.558  10.688   9.893 -0.3285 -0.1679  0.2128
   25MOL0     C 3174   9.417  10.659   9.899  0.0690 -0.6692 -0.5923
   25MOL0     C 3175   9.340  10.674   9.777 -0.7796  0.8276 -0.8198
   25MOL0     O 3176   9.205  10.637   9.756  0.5506  0.7891 -0.2579
   25MOL0     C 3177   9.137  10.594   9.875  0.8105 -0.5792  0.2531
   25MOL0     C 3178   8.986  10.554   9.843 -0.9338  0.0623 -0.2486
   25MOL0     C 3179   8.903  10.537   9.974  0.6355  0.4639  0.3159
   25MOL0     C 3180   8.751  10.518   9.931  0.4445 -0.2870  0.4044
   25MOL0     C 3181   8.656  10.561  10.045  0.3800  0.3471 -0.2210
   25MOL0     C 3182   8.506  10.535  10.003 -1.1442 -0.2649  0.7398
   25MOL0     C 3183   8.412  10.596  10.099 -0.2027 -0.2345 -0.0036
   25MOL0     C 3184   8.261  10.575  10.057 -0.3762 -0.4246  0.2101
   25MOL0     N 3185   8.229  10.435  10.066  0.1718 -0.5901 -0.5412
   25MOL0     C 3186   8.171  10.377  10.186 -0.5324 -0.1575 -0.1057
   25MOL0     C 3187   8.166  10.245  10.150  1.3864 -0.1208  0.1166
   25MOL0     C 3188   8.104  10.140  10.234 -0.0922  0.2289 -0.3004
   25MOL0     C 3189   7.953  10.127  10.199 -1.2276 -0.7675 -0.4139
   25MOL0     C 3190   7.929  10.044  10.075 -0.0898 -0.2006  0.2833
   25MOL0     C 3191   7.792  10.084  10.014 -0.3461 -0.0161 -0.1594
   25MOL0     O 3192   7.685  10.086  10.108 -0.2945 -0.3667 -0.1691
   25MOL0     C 3193   7.554  10.086  10.063 -0.3190  0.2593  0.0224
   25MOL0     C 3194   7.456  10.089  10.160 -0.3857  0.5686 -0.2454
   25MOL0     C 3195   7.317  10.088  10.131 -0.1955 -1.1443  0.9511
   25MOL0     C 3196   7.270  10.088  10.000 -1.1515 -0.3549 -0.6295
   25MOL0     C 3197   7.127  10.114   9.980 -0.5737 -0.3454  0.4602
   25MOL0     O 3198   7.092  10.137   9.849 -0.1393 -0.2389 -0.0533
   25MOL0     C 3199   6.961  10.136   9.807 -0.9047 -0.3032  0.6902
   25MOL0     C 3200   6.939  10.083   9.681 -0.1926 -0.8192 -0.5660
   25MOL0     C 3201   6.817  10.075   9.628 -0.4999  0.8315  0.3407
   25MOL0     C 3202   6.707  10.120   9.696  0.0290 -0.1171 -0.0580
   25MOL0     O 3203   6.580  10.122   9.638  0.2833  0.0663 -0.5538
   25MOL0     C 3204   6.562  10.102   9.497 -0.0891  0.5626 -0.2323
   25MOL0     C 3205   6.430  10.155   9.459  0.2445 -0.4737 -0.0508
   25MOL0     C 3206   6.307  10.073   9.470 -0.2938  0.7431  0.0173
   25MOL0     C 3207   6.183  10.153   9.429 -0.5242 -0.1761 -0.4599
   25MOL0     C 3208   6.061  10.060   9.444 -1.1287 -0.2514 -0.1796
   25MOL0     C 3209   5.926  10.123   9.401 -0.2473 -0.1033 -0.6341
   25MOL0     C 3210   5.821  10.013   9.391 -0.6889 -0.4806 -0.3100
   25MOL0     C 3211   5.681  10.085   9.383  0.2599 -0.5282  0.6746
   25MOL0    Cl 3212   5.560   9.956   9.393  0.1534  0.3365  0.3598
   25MOL0     C 3213   6.721  10.180   9.815 -0.4198 -0.5098  0.6007
   25MOL0     C 3214   6.847  10.186   9.878 -0.5801  0.7646 -0.0368
   25MOL0     O 3215   7.048  10.097  10.076  0.7651 -0.3057  0.3177
   25MOL0     C 3216   7.368  10.087   9.905 -0.5608 -0.2530  0.0324
   25MOL0     C 3217   7.506  10.094   9.934 -0.8357 -0.0552 -0.9220
   25MOL0     N 3218   8.224  10.220  10.026 -0.4499  0.2819  0.7449
   25MOL0     N 3219   8.256  10.337   9.980 -0.5120 -0.1048  0.3879
   25MOL0     C 3220   9.408  10.716   9.668  0.8877 -0.8430  0.6777
   25MOL0     C 3221   9.542  10.744   9.666 -1.1589 -0.5776  0.8130
   25MOL0     C 3222   9.926  10.934   9.804  0.5845 -0.0456 -0.4762
   25MOL0     C 3223   9.988  11.037   9.881 -0.0620 -0.2207 -0.4680
   25MOL0     C 3224  10.121  11.081   9.854 -0.1534 -0.5380 -0.7304
   25MOL0     C 3225  10.194  11.036   9.746  0.4884 -0.4557 -1.2522
   25MOL0     O 3226  10.317  11.087   9.720 -0.4379 -0.1875  0.2486
   25MOL0     C 3227  10.393  11.050   9.600 -0.0648  0.6842 -0.9474
   25MOL0     C 3228  10.494  10.939   9.643  0.3228 -0.7870 -0.2894
   25MOL0     C 3229  10.637  11.000   9.617 -0.6473  1.4049  0.2781
   25MOL0     C 3230  10.753  10.901   9.622  0.0794 -0.5373 -0.4089
   25MOL0     C 3231  10.884  10.970   9.626  0.5182  0.2323  0.0550
   25MOL0     C 3232  10.985  11.038   9.632  0.8012  0.3719 -0.2817
   25MOL0     C 3233  10.131  10.924   9.683  0.1211 -0.9362  0.2272
   25MOL0     C 3234  10.006  10.867   9.719 -0.8020  0.0226  0.3472
   25MOL0     H 3235   9.615  10.671   9.983  0.7401  1.1816 -0.1645
   25MOL0     H 3236   9.362  10.636   9.990 -0.1977  0.3923 -0.4774
   25MOL0     H 3237   9.140  10.674   9.949 -1.4319  0.1667 -0.3773
   25MOL0     H 3238   9.187  10.502   9.908  1.8923 -0.3343 -0.6447
   25MOL0     H 3239   8.974  10.470   9.774 -0.1982  0.9090 -1.4391
   25MOL0     H 3240   8.934  10.641   9.803 -2.4998 -0.7540 -0.0480
   25MOL0     H 3241   8.919  10.627  10.034  2.2257  0.6248 -0.2960
   25MOL0     H 3242   8.945  10.453  10.029 -2.4617 -0.4753  1.4674
   25MOL0     H 3243   8.726  10.578   9.844  1.1078 -0.6678 -0.0533
   25MOL0     H 3244   8.725  10.417   9.898  0.6135  0.3275 -1.6982
   25MOL0     H 3245   8.667  10.666  10.076  1.0777 -0.3937  2.2646
   25MOL0     H 3246   8.669  10.496  10.132 -3.1829  0.8260  0.8344
   25MOL0     H 3247   8.496  10.427   9.986  0.0200 -0.1112 -1.2655
   25MOL0     H 3248   8.495  10.583   9.905  3.6459 -0.7897 -0.2900
   25MOL0     H 3249   8.426  10.534  10.188  1.2349 -0.7305 -0.5423
   25MOL0     H 3250   8.440  10.698  10.126 -0.6335  0.0331 -0.5635
   25MOL0     H 3251   8.235  10.590   9.952  0.2506 -1.5368 -0.1293
   25MOL0     H 3252   8.190  10.631  10.118 -0.1483  1.6637 -1.3248
   25MOL0     H 3253   8.132  10.420  10.277 -0.0822 -1.2167  0.6156
   25MOL0     H 3254   8.115  10.166  10.340  0.0719 -1.3429  0.0867
   25MOL0     H 3255   8.147  10.043  10.211  1.6303  1.3313 -2.0915
   25MOL0     H 3256   7.908  10.224  10.175 -1.9915 -1.2793 -1.1207
   25MOL0     H 3257   7.899  10.077  10.280  0.4539 -0.9172  0.6598
   25MOL0     H 3258   8.004  10.076  10.002  0.5336  0.7442  1.3108
   25MOL0     H 3259   7.947   9.936  10.087 -0.8746 -0.4128 -0.3608
   25MOL0     H 3260   7.769   9.998   9.951 -0.0200  0.3728 -0.8199
   25MOL0     H 3261   7.799  10.186   9.975 -1.1895  1.0917  2.3652
   25MOL0     H 3262   7.496  10.097  10.261 -1.8192 -3.1384  0.7819
   25MOL0     H 3263   7.260  10.107  10.222 -0.2636  0.8667  0.5413
   25MOL0     H 3264   7.030  10.052   9.630  0.8159  1.3574 -0.1958
   25MOL0     H 3265   6.820  10.036   9.527  2.1776  1.5570  0.0599
   25MOL0     H 3266   6.587  10.000   9.465 -0.4959  0.5085 -0.3917
   25MOL0     H 3267   6.638  10.166   9.451  1.6308 -1.2218  0.0098
   25MOL0     H 3268   6.444  10.181   9.354  4.1431  0.4028  0.5383
   25MOL0     H 3269   6.422  10.249   9.515  0.7079  0.4882 -1.5532
   25MOL0     H 3270   6.288  10.036   9.571 -1.4139 -2.3368 -1.1942
   25MOL0     H 3271   6.310   9.986   9.403  2.2834  0.7701  0.0172
   25MOL0     H 3272   6.164  10.248   9.481 -1.6077  0.0022 -1.1520
   25MOL0     H 3273   6.194  10.182   9.324 -2.6507  2.5337 -0.0419
   25MOL0     H 3274   6.046  10.032   9.549  0.4128  3.8390  1.3311
   25MOL0     H 3275   6.070   9.974   9.377 -0.0800 -1.1437  1.0270
   25MOL0     H 3276   5.930  10.179   9.307  0.3717 -0.3093 -0.7364
   25MOL0     H 3277   5.892  10.191   9.480 -0.1750 -1.9111  1.0122
   25MOL0     H 3278   5.851   9.948   9.309 -0.6701  0.0343 -0.7137
   25MOL0     H 3279   5.825   9.948   9.479  2.4226 -0.3342 -0.2428
   25MOL0     H 3280   5.662  10.152   9.299  0.9365  1.8142  2.3020
   25MOL0     H 3281   5.667  10.155   9.465  0.9254  1.6821 -0.9941
   25MOL0     H 3282   6.644  10.224   9.877 -1.7324 -1.9484  0.0408
   25MOL0     H 3283   6.871  10.224   9.976  0.2251  2.8702 -1.0010
   25MOL0     H 3284   7.337  10.084   9.801 -0.7468  2.9452 -0.1259
   25MOL0     H 3285   7.583  10.081   9.858 -1.5936  1.0915 -1.9248
   25MOL0     H 3286   9.354  10.729   9.575 -1.4505  1.2672  2.1987
   25MOL0     H 3287   9.577  10.785   9.572 -0.3919 -0.1908  1.2539
   25MOL0     H 3288   9.923  11.084   9.955 -2.4076 -2.3466 -1.0251
   25MOL0     H 3289  10.165  11.159   9.915  1.2663 -1.6470 -0.2999
   25MOL0     H 3290  10.436  11.141   9.556 -1.1641  0.5879 -2.3143
   25MOL0     H 3291  10.329  11.007   9.521  1.9018 -5.2544  0.1772
   25MOL0     H 3292  10.487  10.918   9.750 -0.2739  3.1376  0.6122
   25MOL0     H 3293  10.478  10.843   9.593  1.6639 -1.2169  0.0629
   25MOL0     H 3294  10.658  11.079   9.689 -1.1660  0.5907  1.3555
   25MOL0     H 3295  10.641  11.046   9.517 -2.1487  0.0048 -0.4900
   25MOL0     H 3296  10.746  10.843   9.715  0.9490  1.1770  0.7671
   25MOL0     H 3297  10.758  10.828   9.540  0.7298 -2.1556  1.0045
   25MOL0     H 3298  11.075  11.096   9.644  1.7641 -1.3927  1.6084
   25MOL0     H 3299  10.181  10.882   9.596  1.3024  0.6671  0.0824
   25MOL0     H 3300   9.974  10.784   9.656  0.8570  0.2434 -0.8316
   26MOL0     O 3301   6.542   7.373   1.124  0.1926 -0.5903  0.3104
   26MOL0     C 3302   6.589   7.318   1.225  0.6083  0.4258  0.3016
   26MOL0     O 3303   6.516   7.274   1.336 -0.5093  0.1991 -0.6785
   26MOL0     C 3304   6.378   7.285   1.323 -0.0978 -0.3300 -0.0033
   26MOL0     C 3305   6.319   7.411   1.292  0.0981  0.2130 -0.6600
   26MOL0     C 3306   6.178   7.430   1.301 -0.2360 -0.2796 -0.0476
   26MOL0     C 3307   6.100   7.320   1.331  0.2102 -0.2023 -0.2958
   26MOL0     O 3308   5.963   7.313   1.340  0.1790 -0.2571 -0.0779
   26MOL0     C 3309   5.887   7.422   1.285 -0.0735  0.1861 -0.8986
   26MOL0     C 3310   5.738   7.380   1.284 -0.0760  0.0686  0.1815
   26MOL0     C 3311   5.629   7.486   1.272  0.1590  0.6778 -0.3105
   26MOL0     C 3312   5.634   7.543   1.131 -0.3040 -0.0778 -0.1621
   26MOL0     C 3313   5.508   7.625   1.106  0.1056 -0.5383 -0.1011
   26MOL0     C 3314   5.384   7.549   1.071  0.6756 -0.9227 -0.5789
   26MOL0     C 3315   5.264   7.636   1.035  0.7960 -0.2543  0.6945
   26MOL0     C 3316   5.137   7.552   1.035 -0.1284  0.8236  0.0753
   26MOL0     N 3317   5.018   7.622   0.990  0.4817 -0.1652  0.2735
   26MOL0     C 3318   4.985   7.652   0.860 -1.1018  0.4408 -0.2016
   26MOL0     C 3319   4.875   7.738   0.865 -0.6486  0.2501  0.0945
   26MOL0     C 3320   4.809   7.805   0.742 -0.7087 -0.2689  0.1292
   26MOL0     C 3321   4.664   7.783   0.737  0.4441  0.4796 -0.1632
   26MOL0     C 3322   4.601   7.847   0.614  1.1566 -0.1710  0.4314
   26MOL0     C 3323   4.449   7.809   0.591 -0.3135  0.4920 -0.1355
   26MOL0     O 3324   4.378   7.895   0.504  0.1385  0.0325  0.6172
   26MOL0     C 3325   4.239   7.899   0.518 -0.5644  0.1404 -0.3501
   26MOL0     C 3326   4.168   8.000   0.582  0.4528  0.1659  0.6658
   26MOL0     C 3327   4.033   7.998   0.599  0.5877 -0.6488  0.3806
   26MOL0     C 3328   3.952   7.894   0.557 -0.1528  0.4674 -0.1288
   26MOL0     C 3329   3.810   7.885   0.596 -0.9354 -0.2175  0.1293
   26MOL0     O 3330   3.764   7.960   0.700 -1.0553 -0.0967 -0.0104
   26MOL0     C 3331   3.633   7.966   0.727  0.7985 -0.0234  0.0680
   26MOL0     C 3332   3.548   8.049   0.649  0.4487 -0.9178 -0.0305
   26MOL0     C 3333   3.408   8.023   0.656 -0.7452 -0.3442  0.4959
   26MOL0     C 3334   3.354   7.938   0.748 -1.4081 -0.4004  0.4121
   26MOL0     O 3335   3.219   7.915   0.766 -0.0262  0.2612  0.2888
   26MOL0     C 3336   3.121   8.024   0.740 -1.1514  0.2271  0.6821
   26MOL0     C 3337   2.982   7.959   0.747 -0.7485 -0.0939  0.3607
   26MOL0     C 3338   2.932   7.905   0.879  1.1633 -0.6906  0.1463
   26MOL0     C 3339   2.814   7.812   0.849 -0.1207  0.5016 -0.1094
   26MOL0     C 3340   2.739   7.773   0.987  0.5349  0.1457  0.4987
   26MOL0     C 3341   2.618   7.673   0.968  1.3448  0.4168 -0.1453
   26MOL0     C 3342   2.584   7.621   1.109 -0.7126 -0.1527  0.1332
   26MOL0     C 3343   2.488   7.499   1.090 -0.5923  0.0345  0.5612
   26MOL0    Cl 3344   2.418   7.416   1.238 -0.2327  0.1070 -0.4185
   26MOL0     C 3345   3.447   7.868   0.821  0.1146 -0.3412  0.1289
   26MOL0     C 3346   3.587   7.883   0.821  0.5048 -0.0159  0.7176
   26MOL0     O 3347   3.739   7.813   0.529 -0.3176  0.1391 -0.0324
   26MOL0     C 3348   4.014   7.794   0.488 -0.2229  0.5356 -0.6289
   26MOL0     C 3349   4.157   7.798   0.461  0.2323 -0.5229  0.7440
   26MOL0     N 3350   4.842   7.754   1.006 -0.0568  0.2786  0.2347
   26MOL0     N 3351   4.933   7.694   1.073 -0.3360  1.1977 -0.1364
   26MOL0     C 3352   6.162   7.194   1.363  0.1620 -0.2885 -0.4334
   26MOL0     C 3353   6.298   7.174   1.357 -0.0824 -0.5913 -0.5227
   26MOL0     C 3354   6.728   7.309   1.244 -0.1587 -0.4956  0.3509
   26MOL0     C 3355   6.815   7.349   1.138  0.1135  0.5455 -0.3073
   26MOL0     C 3356   6.954   7.356   1.150 -0.2141 -0.1211 -0.2992
   26MOL0     C 3357   7.009   7.338   1.281 -1.1181 -0.4816 -0.1897
   26MOL0     O 3358   7.144   7.340   1.300 -0.8784  0.1584 -0.7744
   26MOL0     C 3359   7.236   7.352   1.196 -0.3298  0.2244  0.3040
   26MOL0     C 3360   7.382   7.316   1.237  0.4121  0.5095 -1.0385
   26MOL0     C 3361   7.478   7.343   1.124 -0.0029 -0.8886  0.5164
   26MOL0     C 3362   7.622   7.324   1.173 -0.7508 -0.6580 -0.8845
   26MOL0     C 3363   7.712   7.364   1.062 -0.6244 -0.3522 -0.3044
   26MOL0     C 3364   7.783   7.400   0.972 -0.4359 -0.0999  1.0113
   26MOL0     C 3365   6.927   7.294   1.386  0.8459  0.1708  0.4516
   26MOL0     C 3366   6.792   7.277   1.366  0.3661  0.0470 -0.4887
   26MOL0     H 3367   6.384   7.497   1.288 -1.9854  1.9011 -0.3481
   26MOL0     H 3368   6.131   7.526   1.284 -0.7203 -0.0726  2.1570
   26MOL0     H 3369   5.928   7.429   1.184  2.8103  0.8159  0.2157
   26MOL0     H 3370   5.895   7.515   1.342 -4.3377  1.6562 -2.3222
   26MOL0     H 3371   5.727   7.334   1.383 -2.2304 -1.8441 -0.8529
   26MOL0     H 3372   5.724   7.308   1.203  0.0534 -1.1425  1.1912
   26MOL0     H 3373   5.636   7.563   1.349  0.5815  0.7686 -0.4364
   26MOL0     H 3374   5.532   7.436   1.278  1.1940 -1.4740 -0.6124
   26MOL0     H 3375   5.723   7.607   1.121  1.1286 -2.0445 -0.7261
   26MOL0     H 3376   5.645   7.468   1.053 -2.9578 -0.2832 -0.4219
   26MOL0     H 3377   5.527   7.701   1.030 -1.4251 -0.4904 -0.4700
   26MOL0     H 3378   5.468   7.678   1.194  0.0835  1.2325 -1.1181
   26MOL0     H 3379   5.359   7.490   1.160 -0.1753 -0.8079 -0.7329
   26MOL0     H 3380   5.399   7.487   0.982  1.9281  1.5025 -2.1416
   26MOL0     H 3381   5.248   7.715   1.109  0.3120 -1.4605  1.9272
   26MOL0     H 3382   5.289   7.677   0.937  1.6919 -3.4956 -0.5643
   26MOL0     H 3383   5.118   7.513   1.135  0.6539 -0.6450 -0.3204
   26MOL0     H 3384   5.157   7.466   0.971  1.5821  2.0045 -1.0519
   26MOL0     H 3385   5.027   7.614   0.767 -1.9197  0.4507 -0.5832
   26MOL0     H 3386   4.857   7.761   0.654  0.2562 -1.2530  1.0940
   26MOL0     H 3387   4.837   7.908   0.763  1.2315 -0.5935 -0.6174
   26MOL0     H 3388   4.623   7.816   0.833 -0.4880 -1.8669  0.3204
   26MOL0     H 3389   4.650   7.675   0.724 -0.6292  0.4356  1.1933
   26MOL0     H 3390   4.607   7.956   0.625  1.9062 -0.2684  1.1447
   26MOL0     H 3391   4.659   7.820   0.525 -0.9702  2.2748 -1.8861
   26MOL0     H 3392   4.401   7.798   0.688 -1.0203 -0.8245 -0.5977
   26MOL0     H 3393   4.449   7.706   0.555 -0.0159  0.2332  0.5951
   26MOL0     H 3394   4.222   8.090   0.611  0.3630  0.0628  1.1520
   26MOL0     H 3395   3.988   8.079   0.655 -0.2855  0.2015 -1.4549
   26MOL0     H 3396   3.588   8.116   0.574  0.1064  0.6358  1.1085
   26MOL0     H 3397   3.339   8.083   0.597 -2.7927  1.5903  4.4275
   26MOL0     H 3398   3.144   8.076   0.647 -2.2832  0.8480  0.7212
   26MOL0     H 3399   3.131   8.098   0.820  0.5589 -0.2671  0.9548
   26MOL0     H 3400   2.994   7.883   0.670  0.3420  0.7773 -0.3690
   26MOL0     H 3401   2.910   8.029   0.705 -0.7324 -1.7258 -2.6469
   26MOL0     H 3402   2.892   7.980   0.947  1.7784 -1.6259  1.5758
   26MOL0     H 3403   3.007   7.841   0.927 -0.2424 -1.2720  1.6495
   26MOL0     H 3404   2.736   7.846   0.780  0.2505 -3.4587 -2.8236
   26MOL0     H 3405   2.847   7.723   0.795 -1.2880 -0.1309  0.1698
   26MOL0     H 3406   2.701   7.868   1.026  1.1667  0.3479  0.6491
   26MOL0     H 3407   2.825   7.739   1.046  1.0142  0.7726  0.1820
   26MOL0     H 3408   2.652   7.592   0.902  2.5662  0.4992  0.3442
   26MOL0     H 3409   2.524   7.716   0.933  2.0646  2.7637  0.6151
   26MOL0     H 3410   2.668   7.571   1.158 -0.8546 -0.5445 -0.0172
   26MOL0     H 3411   2.543   7.700   1.173 -1.5276 -1.0244  0.7283
   26MOL0     H 3412   2.547   7.426   1.033  1.4645  1.4455  0.7804
   26MOL0     H 3413   2.401   7.523   1.028  0.5597  1.6008 -0.5072
   26MOL0     H 3414   3.400   7.801   0.893 -0.2979  3.2926  3.6333
   26MOL0     H 3415   3.653   7.830   0.889  1.1294  0.5305  0.5467
   26MOL0     H 3416   3.962   7.705   0.455 -2.7936  1.8037 -0.2823
   26MOL0     H 3417   4.176   7.709   0.402  1.9435 -0.0196  0.4717
   26MOL0     H 3418   6.100   7.112   1.398 -2.9986  1.6215 -1.1564
   26MOL0     H 3419   6.339   7.078   1.384  1.9477  0.7778  1.7194
   26MOL0     H 3420   6.775   7.378   1.041  2.5689  1.0800 -1.2305
   26MOL0     H 3421   7.019   7.387   1.068  0.7643  1.2801  0.9677
   26MOL0     H 3422   7.251   7.452   1.155  0.2984 -1.3433 -3.6738
   26MOL0     H 3423   7.199   7.290   1.114  2.0512  0.5823 -1.1153
   26MOL0     H 3424   7.410   7.382   1.319  3.0075 -0.3530 -1.1324
   26MOL0     H 3425   7.377   7.209   1.259 -0.2134  0.3196 -2.0414
   26MOL0     H 3426   7.476   7.446   1.087  0.2785 -0.4792  1.5959
   26MOL0     H 3427   7.453   7.270   1.047 -2.7348 -0.8321  1.2289
   26MOL0     H 3428   7.633   7.386   1.262  2.2780 -1.4855 -0.5650
   26MOL0     H 3429   7.637   7.220   1.203  0.2703 -0.4385 -0.6022
   26MOL0     H 3430   7.857   7.431   0.900 -0.4069 -0.1564  1.0171
   26MOL0     H 3431   6.962   7.262   1.484 -0.5688 -0.7473  0.6848
   26MOL0     H 3432   6.738   7.232   1.449 -0.0743  0.0637 -0.7639
   27MOL0     O 3433   3.873   9.264   5.427 -0.1647 -0.0195 -0.0418
   27MOL0     C 3434   3.937   9.309   5.514 -1.2461  0.5530 -0.4675
   27MOL0     O 3435   3.935   9.268   5.642  0.4816 -0.0737  0.1239
   27MOL0     C 3436   3.854   9.168   5.699  0.3427 -0.3623 -0.2917
   27MOL0     C 3437   3.821   9.177   5.836 -0.3113 -0.0103 -0.8119
   27MOL0     C 3438   3.742   9.075   5.902  1.0116 -0.7087  0.1556
   27MOL0     C 3439   3.711   8.956   5.836 -0.3378  0.2100 -0.3770
   27MOL0     O 3440   3.627   8.862   5.886  0.5886 -0.0336 -0.3341
   27MOL0     C 3441   3.672   8.728   5.865 -0.2119  0.3505 -0.3773
   27MOL0     C 3442   3.552   8.647   5.820  0.0705  0.6836 -0.0394
   27MOL0     C 3443   3.455   8.626   5.935 -0.3485  0.2244  0.7672
   27MOL0     C 3444   3.334   8.553   5.876 -0.0721  1.0805  0.6800
   27MOL0     C 3445   3.220   8.542   5.968 -0.0274 -0.4268 -0.6329
   27MOL0     C 3446   3.093   8.465   5.921  0.1719 -0.4211 -0.1792
   27MOL0     C 3447   2.989   8.456   6.041  0.3095  0.3014  0.5626
   27MOL0     C 3448   2.852   8.399   6.004 -0.3219  0.4709  0.0486
   27MOL0     N 3449   2.749   8.429   6.101 -0.0009  0.3367  0.3562
   27MOL0     C 3450   2.720   8.369   6.222 -0.3874  0.0548  0.0169
   27MOL0     C 3451   2.603   8.419   6.267 -0.1395 -0.0012  0.2088
   27MOL0     C 3452   2.539   8.387   6.403 -0.5791 -0.2891  0.1879
   27MOL0     C 3453   2.413   8.311   6.389  0.0327 -0.2632 -0.1722
   27MOL0     C 3454   2.313   8.397   6.310  0.2366  1.0456  0.2222
   27MOL0     C 3455   2.174   8.342   6.341  0.0851 -0.1000  0.1944
   27MOL0     O 3456   2.134   8.378   6.468 -0.5651  0.5164 -0.9190
   27MOL0     C 3457   1.998   8.376   6.499 -0.2917 -0.5893 -0.1910
   27MOL0     C 3458   1.962   8.438   6.618  0.0521 -0.3179  0.5926
   27MOL0     C 3459   1.830   8.454   6.654  0.1783 -0.0723  0.0996
   27MOL0     C 3460   1.724   8.387   6.584 -0.2005 -0.3214  0.3861
   27MOL0     C 3461   1.583   8.396   6.629 -0.1817  0.7697 -0.2178
   27MOL0     O 3462   1.487   8.321   6.560 -0.2857 -0.9689 -1.0763
   27MOL0     C 3463   1.355   8.349   6.594  0.6801  1.2387 -0.3352
   27MOL0     C 3464   1.278   8.448   6.535 -0.1766 -0.7333 -0.3658
   27MOL0     C 3465   1.144   8.458   6.548  0.2039  0.1210 -0.7625
   27MOL0     C 3466   1.069   8.360   6.626 -0.9655 -0.3801  0.0449
   27MOL0     O 3467   0.930   8.382   6.644 -0.1766  0.6280 -0.0581
   27MOL0     C 3468   0.865   8.503   6.614 -1.1776  0.1924  0.7708
   27MOL0     C 3469   0.713   8.507   6.626 -0.0476 -0.3765 -0.0212
   27MOL0     C 3470   0.643   8.433   6.511 -1.2007  0.2626  0.0247
   27MOL0     C 3471   0.492   8.428   6.531 -0.1464 -0.9012  0.1181
   27MOL0     C 3472   0.426   8.343   6.417  0.4399  0.1220 -0.8672
   27MOL0     C 3473   0.273   8.359   6.429 -0.7164  0.1637 -0.1500
   27MOL0     C 3474   0.198   8.257   6.337  0.2456 -0.1594  0.4142
   27MOL0     C 3475   0.057   8.299   6.364  0.7327  0.2804  0.1700
   27MOL0    Cl 3476  -0.044   8.245   6.235 -0.8164 -0.1263  0.0068
   27MOL0     C 3477   1.138   8.259   6.695  0.3754 -0.5140 -0.4323
   27MOL0     C 3478   1.279   8.253   6.676 -0.4195  0.0648 -0.0160
   27MOL0     O 3479   1.560   8.468   6.722  0.3933  0.7075 -0.2125
   27MOL0     C 3480   1.764   8.311   6.474  0.5351  0.8291 -0.8893
   27MOL0     C 3481   1.894   8.308   6.427  0.0776  0.6230 -0.6599
   27MOL0     N 3482   2.561   8.513   6.174  0.8441  0.1545 -0.5272
   27MOL0     N 3483   2.654   8.518   6.086  0.3478  0.4486 -0.0690
   27MOL0     C 3484   3.730   8.949   5.702  0.3098 -0.3165  0.0820
   27MOL0     C 3485   3.810   9.046   5.633 -0.1010  0.2655  0.4306
   27MOL0     C 3486   4.051   9.403   5.479 -0.1230  0.7527 -0.4993
   27MOL0     C 3487   4.106   9.414   5.348  0.0584 -0.2832  0.1608
   27MOL0     C 3488   4.191   9.521   5.321  0.3312 -0.6037 -0.3031
   27MOL0     C 3489   4.226   9.619   5.416 -0.2462 -0.3656 -0.3031
   27MOL0     O 3490   4.309   9.724   5.369  0.3428 -0.1062  0.2549
   27MOL0     C 3491   4.315   9.846   5.448 -0.4636 -0.2966  0.3292
   27MOL0     C 3492   4.421   9.859   5.547 -0.3705 -0.0044  0.1982
   27MOL0     C 3493   4.558   9.885   5.488  0.3132  0.5596  0.2654
   27MOL0     C 3494   4.584  10.019   5.417 -0.0179  0.8925  0.3850
   27MOL0     C 3495   4.726  10.026   5.378 -0.1434  0.6550  0.5717
   27MOL0     C 3496   4.838  10.030   5.330  0.9772  0.8929 -0.7208
   27MOL0     C 3497   4.180   9.599   5.547 -0.3886 -0.4174  0.1465
   27MOL0     C 3498   4.103   9.490   5.578 -0.2468  0.1562  0.4064
   27MOL0     H 3499   3.855   9.258   5.900  1.3625 -1.3820  0.1006
   27MOL0     H 3500   3.704   9.088   6.002 -0.6043 -2.3991 -0.1789
   27MOL0     H 3501   3.716   8.689   5.957 -4.8111  1.5143  2.6757
   27MOL0     H 3502   3.746   8.726   5.784 -0.7996 -0.4958 -0.9081
   27MOL0     H 3503   3.593   8.558   5.771  1.5623  1.4283 -0.1966
   27MOL0     H 3504   3.499   8.697   5.738  0.8384 -0.5540 -1.3323
   27MOL0     H 3505   3.419   8.724   5.969 -3.1235 -0.8277  1.0515
   27MOL0     H 3506   3.501   8.579   6.022  1.4879  1.4832  0.5549
   27MOL0     H 3507   3.300   8.602   5.784 -1.1917 -0.8148  0.0120
   27MOL0     H 3508   3.365   8.453   5.845 -1.5498  1.3580 -2.0096
   27MOL0     H 3509   3.182   8.644   5.982 -0.5762 -0.6453 -0.4974
   27MOL0     H 3510   3.244   8.504   6.068 -2.3667 -0.6284 -0.0759
   27MOL0     H 3511   3.120   8.365   5.886  1.6473  0.0644 -0.4875
   27MOL0     H 3512   3.054   8.518   5.834  5.5094  0.8500 -2.2057
   27MOL0     H 3513   3.029   8.408   6.131 -1.5521  0.9254  1.7830
   27MOL0     H 3514   2.969   8.560   6.071  0.9316  0.2152  1.3112
   27MOL0     H 3515   2.856   8.290   5.992 -0.7097  0.4438  0.1373
   27MOL0     H 3516   2.826   8.446   5.909  1.8547  0.2590 -0.6910
   27MOL0     H 3517   2.788   8.305   6.277 -0.9837  0.1404  0.8761
   27MOL0     H 3518   2.518   8.477   6.462 -4.2487  2.6503 -4.8051
   27MOL0     H 3519   2.610   8.326   6.461  1.5033  2.1578  0.4182
   27MOL0     H 3520   2.377   8.296   6.491  0.6007  0.5389  0.1573
   27MOL0     H 3521   2.426   8.213   6.342 -2.0744  1.0038 -3.7632
   27MOL0     H 3522   2.332   8.501   6.336  3.9314  0.6932 -0.4975
   27MOL0     H 3523   2.347   8.382   6.207  2.6165  3.5984  0.5126
   27MOL0     H 3524   2.175   8.235   6.320 -0.0021 -0.2348  0.8522
   27MOL0     H 3525   2.108   8.385   6.265 -0.2983  0.9423  1.0780
   27MOL0     H 3526   2.042   8.485   6.675 -2.2788  0.4166  3.5505
   27MOL0     H 3527   1.808   8.510   6.744  3.5994 -3.3687  3.3682
   27MOL0     H 3528   1.337   8.518   6.475 -1.1444  0.0409 -0.4392
   27MOL0     H 3529   1.087   8.540   6.506  2.2260  2.5663  0.9625
   27MOL0     H 3530   0.892   8.521   6.510  0.9980 -0.9281  1.0841
   27MOL0     H 3531   0.908   8.588   6.669 -1.0913 -0.0083  1.0145
   27MOL0     H 3532   0.674   8.610   6.627 -0.3146 -0.4740 -0.2475
   27MOL0     H 3533   0.690   8.472   6.727  3.3417 -0.2428  0.9048
   27MOL0     H 3534   0.673   8.328   6.517  1.2480  0.9735  1.9159
   27MOL0     H 3535   0.664   8.476   6.413 -0.9416  1.0521  0.4167
   27MOL0     H 3536   0.473   8.391   6.633  1.7799  2.1939  1.7818
   27MOL0     H 3537   0.443   8.526   6.537  1.0724 -0.2705  0.0698
   27MOL0     H 3538   0.456   8.238   6.429  2.1835  0.8820  3.1092
   27MOL0     H 3539   0.462   8.373   6.318  5.4143 -1.0320  0.2838
   27MOL0     H 3540   0.258   8.462   6.396  3.0771  0.3094 -2.0503
   27MOL0     H 3541   0.246   8.348   6.534 -0.1501 -0.3494 -0.0500
   27MOL0     H 3542   0.216   8.288   6.234  0.3180 -0.2833  0.3891
   27MOL0     H 3543   0.233   8.156   6.363  0.0972 -0.6356 -1.1407
   27MOL0     H 3544   0.063   8.409   6.362  2.1618  0.2201  0.3881
   27MOL0     H 3545   0.013   8.261   6.457 -1.9291  0.6271 -0.8465
   27MOL0     H 3546   1.093   8.188   6.763 -0.2888  1.3926  1.2281
   27MOL0     H 3547   1.342   8.190   6.738 -1.5509  1.5691  2.8480
   27MOL0     H 3548   1.695   8.245   6.422  1.7486 -0.4206 -0.9719
   27MOL0     H 3549   1.912   8.246   6.340  0.5047 -0.8373  0.4332
   27MOL0     H 3550   3.692   8.865   5.644 -0.1631 -0.7811  1.0398
   27MOL0     H 3551   3.836   9.022   5.530  0.7060 -2.4417  1.1705
   27MOL0     H 3552   4.067   9.342   5.276 -0.2520  1.4935 -1.5132
   27MOL0     H 3553   4.243   9.542   5.228 -0.6719  1.8509 -0.3867
   27MOL0     H 3554   4.221   9.872   5.497  0.3199  1.1786  1.1147
   27MOL0     H 3555   4.337   9.931   5.383  0.9574  0.3381  1.5739
   27MOL0     H 3556   4.406   9.940   5.618  0.8753 -2.3265  3.3706
   27MOL0     H 3557   4.420   9.766   5.605  0.7172 -0.3018 -0.2398
   27MOL0     H 3558   4.584   9.805   5.418  0.7330 -0.4397  1.5270
   27MOL0     H 3559   4.637   9.875   5.563  0.9871  1.4131 -0.3068
   27MOL0     H 3560   4.520  10.021   5.328 -0.2200  0.8630  0.5291
   27MOL0     H 3561   4.560  10.102   5.484 -0.5977  0.3474  0.8666
   27MOL0     H 3562   4.943  10.051   5.330  1.1542  0.2555  1.5440
   27MOL0     H 3563   4.213   9.663   5.628 -0.9185  2.4128 -1.7660
   27MOL0     H 3564   4.074   9.479   5.682 -1.6932  2.1082  0.2697
   28MOL0     O 3565   8.792   2.821   9.261 -0.1508  0.1508  0.2193
   28MOL0     C 3566   8.835   2.798   9.377  0.9742 -0.1199  0.2190
   28MOL0     O 3567   8.753   2.753   9.487  0.6269 -0.1487 -0.0669
   28MOL0     C 3568   8.611   2.753   9.465  0.4256 -0.4272  1.0564
   28MOL0     C 3569   8.531   2.824   9.553 -0.0825  0.6079 -0.5207
   28MOL0     C 3570   8.393   2.831   9.547  0.1625  0.8200 -0.4338
   28MOL0     C 3571   8.329   2.765   9.440  0.2337 -0.4980 -0.1710
   28MOL0     O 3572   8.194   2.770   9.456  0.3397  0.1526 -0.4147
   28MOL0     C 3573   8.124   2.676   9.378  0.5157 -0.5943  0.0561
   28MOL0     C 3574   7.971   2.711   9.387 -0.3525 -0.8404  0.4911
   28MOL0     C 3575   7.889   2.593   9.322  0.3261  0.4934  0.3008
   28MOL0     C 3576   7.737   2.645   9.303  0.1155 -0.2555 -0.5214
   28MOL0     C 3577   7.638   2.532   9.273 -0.0197 -0.0605 -0.0864
   28MOL0     C 3578   7.496   2.599   9.254 -0.9035 -0.3390 -0.4627
   28MOL0     C 3579   7.383   2.490   9.245 -0.0880  0.0734  0.3886
   28MOL0     C 3580   7.394   2.382   9.131  0.0986 -0.1264  0.0684
   28MOL0     N 3581   7.322   2.265   9.172 -0.3302  0.6215 -0.1321
   28MOL0     C 3582   7.226   2.194   9.103  0.9462  0.3438  0.8171
   28MOL0     C 3583   7.202   2.080   9.178 -0.0384  0.2500  0.3272
   28MOL0     C 3584   7.122   1.960   9.140 -0.3806 -0.4349 -0.6741
   28MOL0     C 3585   6.990   1.951   9.217 -0.6438 -0.0808  0.8570
   28MOL0     C 3586   6.882   2.046   9.168 -0.5325 -0.4681 -1.4061
   28MOL0     C 3587   6.737   1.990   9.212 -0.4232 -0.4205  0.4378
   28MOL0     O 3588   6.717   1.858   9.158 -0.1001 -0.3863  0.2419
   28MOL0     C 3589   6.599   1.793   9.174  0.7226 -0.2057  0.0226
   28MOL0     C 3590   6.593   1.688   9.097  0.0376  0.3950 -0.5183
   28MOL0     C 3591   6.482   1.604   9.087 -0.1012  0.6060 -0.4123
   28MOL0     C 3592   6.365   1.638   9.155 -0.2235  0.9075  0.4605
   28MOL0     C 3593   6.240   1.559   9.144 -0.3656  1.0659  0.3462
   28MOL0     O 3594   6.247   1.421   9.131  0.5343 -0.0234  0.3698
   28MOL0     C 3595   6.133   1.341   9.154  0.0976  0.6541  0.3473
   28MOL0     C 3596   6.151   1.227   9.239 -0.6020 -0.0634 -0.6804
   28MOL0     C 3597   6.053   1.138   9.268 -0.3199  0.0384  0.1719
   28MOL0     C 3598   5.927   1.151   9.208  0.2505 -0.5073 -0.5637
   28MOL0     O 3599   5.816   1.080   9.242  0.3721 -0.1844 -0.3105
   28MOL0     C 3600   5.818   1.016   9.372  0.5572 -0.0562  1.2008
   28MOL0     C 3601   5.678   0.987   9.428  0.8702  0.2145  0.4217
   28MOL0     C 3602   5.592   0.898   9.333 -0.2736 -0.3762 -0.0079
   28MOL0     C 3603   5.459   0.869   9.398 -0.6579  0.8471  0.5385
   28MOL0     C 3604   5.362   0.811   9.290 -0.0729 -0.9166  0.1352
   28MOL0     C 3605   5.241   0.738   9.350 -0.1561 -0.2048 -0.1243
   28MOL0     C 3606   5.148   0.844   9.425  0.0450  0.0521  1.1397
   28MOL0     C 3607   5.044   0.772   9.517  0.3428 -0.1567 -0.3349
   28MOL0    Cl 3608   4.920   0.687   9.417 -0.0736  0.0466 -0.0044
   28MOL0     C 3609   5.906   1.260   9.122  0.8031 -0.1149  0.2733
   28MOL0     C 3610   6.007   1.349   9.086 -0.1966 -0.2644 -0.3729
   28MOL0     O 3611   6.136   1.618   9.164 -1.0971  0.1700  0.1394
   28MOL0     C 3612   6.379   1.751   9.240  0.5077  0.5035  0.3860
   28MOL0     C 3613   6.492   1.829   9.258 -0.6519 -0.1777 -0.4386
   28MOL0     N 3614   7.279   2.089   9.298 -0.1361  0.4058  0.2758
   28MOL0     N 3615   7.351   2.202   9.289 -0.0229  0.9566  0.0585
   28MOL0     C 3616   8.405   2.693   9.348  0.1149  0.0502 -0.2664
   28MOL0     C 3617   8.545   2.683   9.358 -0.2024 -0.3107 -0.3062
   28MOL0     C 3618   8.980   2.802   9.396 -0.1094  0.1976  0.2212
   28MOL0     C 3619   9.033   2.788   9.525 -0.3929 -0.1478  0.6574
   28MOL0     C 3620   9.168   2.792   9.551 -1.1420 -0.1869 -0.1590
   28MOL0     C 3621   9.251   2.816   9.437 -0.5084 -0.3068  0.4657
   28MOL0     O 3622   9.382   2.842   9.467  0.4074 -0.8113 -0.7481
   28MOL0     C 3623   9.398   2.976   9.531  0.5630  0.1358  0.1826
   28MOL0     C 3624   9.442   3.082   9.425 -0.7174 -0.3638  0.9147
   28MOL0     C 3625   9.591   3.063   9.370 -0.1064 -0.4878 -0.0470
   28MOL0     C 3626   9.642   3.171   9.272  0.2575 -0.1357  0.4209
   28MOL0     C 3627   9.795   3.174   9.275  0.0992  0.5247 -0.0058
   28MOL0     C 3628   9.915   3.200   9.276 -0.1139 -0.5730 -0.2205
   28MOL0     C 3629   9.201   2.834   9.306 -1.2994 -0.9816 -0.1865
   28MOL0     C 3630   9.067   2.828   9.288  0.3480  0.2046  0.4630
   28MOL0     H 3631   8.581   2.878   9.633 -2.0432  0.6450  0.7434
   28MOL0     H 3632   8.331   2.876   9.624 -0.1680  0.3958 -0.4490
   28MOL0     H 3633   8.148   2.573   9.406  0.5597 -1.1994 -2.0114
   28MOL0     H 3634   8.156   2.700   9.276  1.6556 -1.2085  0.2561
   28MOL0     H 3635   7.961   2.805   9.332  0.5535 -0.0376  1.6564
   28MOL0     H 3636   7.940   2.718   9.492 -0.6083  1.7805  0.3038
   28MOL0     H 3637   7.887   2.511   9.395 -1.4698 -0.8031 -1.1152
   28MOL0     H 3638   7.929   2.548   9.231 -0.5183 -1.8555  1.0101
   28MOL0     H 3639   7.696   2.702   9.388  0.6183 -1.2056  0.3822
   28MOL0     H 3640   7.734   2.721   9.225 -0.5326  1.5167  1.1472
   28MOL0     H 3641   7.633   2.470   9.363  1.7055  1.3942  1.0888
   28MOL0     H 3642   7.671   2.472   9.188  1.1003 -0.6608  0.7484
   28MOL0     H 3643   7.496   2.650   9.157  4.4388  0.1192 -0.5198
   28MOL0     H 3644   7.480   2.671   9.335 -1.1783 -0.8001 -0.0951
   28MOL0     H 3645   7.384   2.441   9.343  1.6297 -2.2200 -0.6848
   28MOL0     H 3646   7.284   2.537   9.237  0.2629  0.5590 -1.3371
   28MOL0     H 3647   7.498   2.354   9.118  0.6381  2.1439 -1.1546
   28MOL0     H 3648   7.358   2.425   9.036  1.5958 -1.0533 -0.9644
   28MOL0     H 3649   7.177   2.206   9.007  3.1506 -1.0921 -0.5784
   28MOL0     H 3650   7.191   1.882   9.173  2.0258  1.7974 -0.0695
   28MOL0     H 3651   7.109   1.955   9.032 -1.7789  1.0990 -0.6215
   28MOL0     H 3652   7.020   1.971   9.320 -1.1862  1.7032  0.6989
   28MOL0     H 3653   6.952   1.852   9.190  1.6103  0.1518 -4.5041
   28MOL0     H 3654   6.889   2.135   9.231 -0.4349 -1.5177  0.1351
   28MOL0     H 3655   6.893   2.080   9.065  1.3503 -0.0103 -1.0901
   28MOL0     H 3656   6.660   2.058   9.175  0.4754  0.1537 -0.4221
   28MOL0     H 3657   6.728   1.984   9.321 -0.1824 -1.5077  0.4042
   28MOL0     H 3658   6.677   1.670   9.031  4.0843 -1.2098  4.4367
   28MOL0     H 3659   6.477   1.522   9.016 -1.1109  0.3909 -0.1060
   28MOL0     H 3660   6.245   1.211   9.292 -0.4735  2.7724  0.0989
   28MOL0     H 3661   6.067   1.056   9.337 -0.3697  0.0672  0.2162
   28MOL0     H 3662   5.856   1.091   9.441 -0.2425  0.3266  1.2319
   28MOL0     H 3663   5.877   0.925   9.356 -0.0555 -0.3758  0.7165
   28MOL0     H 3664   5.622   1.081   9.435  0.7884  0.3420 -1.4676
   28MOL0     H 3665   5.688   0.944   9.528  0.5145 -2.7745 -0.7421
   28MOL0     H 3666   5.647   0.804   9.320  0.2937 -0.4965  2.6245
   28MOL0     H 3667   5.589   0.946   9.235 -0.0386 -2.2638 -0.9902
   28MOL0     H 3668   5.471   0.793   9.475 -3.3974 -2.1012 -1.6750
   28MOL0     H 3669   5.411   0.962   9.431  1.2016  2.1665 -0.2506
   28MOL0     H 3670   5.415   0.738   9.229  2.4389  1.0480 -0.2013
   28MOL0     H 3671   5.326   0.882   9.216  0.7426  1.0787  1.5533
   28MOL0     H 3672   5.269   0.670   9.431 -0.0043 -0.3565 -0.3028
   28MOL0     H 3673   5.199   0.676   9.270  0.9781 -1.9586  0.5697
   28MOL0     H 3674   5.203   0.919   9.482  0.1152 -0.2673  1.4911
   28MOL0     H 3675   5.093   0.892   9.343  2.3760  0.9845  0.0040
   28MOL0     H 3676   4.999   0.853   9.575 -0.2053  0.5627 -1.7260
   28MOL0     H 3677   5.093   0.710   9.593 -2.0072 -0.7014  0.8451
   28MOL0     H 3678   5.808   1.266   9.076  0.2046 -0.8960  1.4043
   28MOL0     H 3679   5.964   1.431   9.029 -2.4609 -1.6833 -0.8417
   28MOL0     H 3680   6.288   1.771   9.296 -1.3444 -0.1510 -2.1890
   28MOL0     H 3681   6.498   1.908   9.333  2.0166 -1.0973  0.4358
   28MOL0     H 3682   8.350   2.639   9.271 -3.5085 -0.3245  2.3594
   28MOL0     H 3683   8.598   2.617   9.290  3.1675 -0.7888  2.5172
   28MOL0     H 3684   8.958   2.776   9.602 -1.5262  2.3081  0.0338
   28MOL0     H 3685   9.204   2.773   9.652  0.6222 -0.2924 -0.7598
   28MOL0     H 3686   9.481   2.959   9.599  3.1480  0.9465 -2.5420
   28MOL0     H 3687   9.314   3.021   9.585 -0.2741 -1.5871  0.3797
   28MOL0     H 3688   9.372   3.079   9.342 -0.4542 -2.2051  0.7138
   28MOL0     H 3689   9.446   3.178   9.477  1.6792  0.6059 -0.8936
   28MOL0     H 3690   9.588   2.974   9.306  0.3723 -0.0607 -0.6828
   28MOL0     H 3691   9.660   3.044   9.452  3.0625  2.3317 -1.8185
   28MOL0     H 3692   9.619   3.144   9.169 -0.9352 -0.1762  0.6832
   28MOL0     H 3693   9.599   3.269   9.296  2.9202  1.3886 -0.7298
   28MOL0     H 3694  10.020   3.217   9.266  0.2043 -0.7085  2.2671
   28MOL0     H 3695   9.263   2.863   9.222 -0.4472 -2.0325  0.0591
   28MOL0     H 3696   9.023   2.831   9.189  0.2337  2.2197  0.5336
   29MOL0     O 3697   3.852   3.569   5.586 -0.2537  0.0782  0.0145
   29MOL0     C 3698   3.788   3.483   5.518 -1.3574 -0.6163 -0.0981
   29MOL0     O 3699   3.839   3.357   5.483  0.0258 -0.6169  0.4259
   29MOL0     C 3700   3.981   3.349   5.483  0.2864 -0.6946  0.1400
   29MOL0     C 3701   4.043   3.317   5.365 -0.0537  0.4804  0.1646
   29MOL0     C 3702   4.181   3.286   5.360  0.0757  0.0993  0.5740
   29MOL0     C 3703   4.258   3.300   5.471  0.3519 -0.3065 -0.5889
   29MOL0     O 3704   4.390   3.275   5.453 -0.3576 -0.2000 -0.2418
   29MOL0     C 3705   4.477   3.302   5.563  0.5755  0.4198  0.2000
   29MOL0     C 3706   4.629   3.291   5.530 -0.9517 -0.5372 -0.4866
   29MOL0     C 3707   4.687   3.154   5.513 -0.5156 -0.0836  0.1415
   29MOL0     C 3708   4.840   3.164   5.489 -0.4185 -0.0510 -0.3010
   29MOL0     C 3709   4.919   3.043   5.451  0.5198  0.6487 -0.1723
   29MOL0     C 3710   4.865   2.956   5.341 -0.1736 -1.4436 -0.1713
   29MOL0     C 3711   4.870   3.030   5.206 -0.8143  0.3074  0.6848
   29MOL0     C 3712   4.820   2.947   5.088 -0.2705  0.3195  0.0542
   29MOL0     N 3713   4.676   2.938   5.067 -0.4231 -0.5493 -0.0055
   29MOL0     C 3714   4.575   2.933   5.165  0.5895 -0.6243 -0.6397
   29MOL0     C 3715   4.465   2.897   5.093  0.7705 -1.2417 -0.5557
   29MOL0     C 3716   4.329   2.856   5.150 -0.0593 -1.3422 -0.5194
   29MOL0     C 3717   4.252   2.964   5.230 -0.1538  0.5617 -0.1929
   29MOL0     C 3718   4.111   2.917   5.260 -1.2706  0.4908 -0.2516
   29MOL0     C 3719   4.017   2.911   5.139  0.6463 -0.5081 -0.1382
   29MOL0     O 3720   3.908   2.822   5.166  0.0879 -0.5968  0.6926
   29MOL0     C 3721   3.786   2.878   5.203 -0.1378 -0.1114  0.5200
   29MOL0     C 3722   3.677   2.819   5.146 -0.4378 -0.0435  0.1031
   29MOL0     C 3723   3.551   2.879   5.149 -0.5085 -0.1218 -0.6900
   29MOL0     C 3724   3.534   2.993   5.229  0.0520 -0.4883  0.2342
   29MOL0     C 3725   3.391   3.036   5.239  0.6932 -0.0903 -0.4002
   29MOL0     O 3726   3.300   2.967   5.163  0.4682  0.3132  0.1454
   29MOL0     C 3727   3.165   2.964   5.196  0.6490 -0.0947  0.4685
   29MOL0     C 3728   3.095   3.060   5.266  0.3781  0.3161 -0.9162
   29MOL0     C 3729   2.964   3.030   5.302 -0.2131 -0.1583  0.1363
   29MOL0     C 3730   2.887   2.923   5.251  0.8023 -0.0769  0.0321
   29MOL0     O 3731   2.758   2.913   5.299 -0.4744  0.7836  0.1171
   29MOL0     C 3732   2.701   2.780   5.291  0.5077 -0.1274 -0.3116
   29MOL0     C 3733   2.550   2.812   5.301  0.2439 -0.0759  1.0821
   29MOL0     C 3734   2.472   2.690   5.356  0.0505 -0.0090 -0.0927
   29MOL0     C 3735   2.332   2.725   5.381  0.9068 -0.4012 -0.1246
   29MOL0     C 3736   2.266   2.617   5.457  0.4687 -0.3110  0.1277
   29MOL0     C 3737   2.129   2.674   5.495  0.4348  0.2438 -0.7842
   29MOL0     C 3738   2.035   2.587   5.577  0.8164  0.0383 -0.0692
   29MOL0     C 3739   1.966   2.486   5.486  0.6118  0.1668 -0.9327
   29MOL0    Cl 3740   1.840   2.556   5.380  0.1603 -0.2532 -0.2969
   29MOL0     C 3741   2.945   2.847   5.147 -0.4389  0.0223  0.9034
   29MOL0     C 3742   3.086   2.864   5.126 -0.2872  0.5378  1.4012
   29MOL0     O 3743   3.361   3.133   5.319  0.4539  0.6925  0.5832
   29MOL0     C 3744   3.643   3.052   5.290  0.5387  0.5746 -0.2217
   29MOL0     C 3745   3.768   2.996   5.269  0.3050  0.3433  0.0753
   29MOL0     N 3746   4.500   2.886   4.961 -0.6614  0.5559 -0.0377
   29MOL0     N 3747   4.622   2.922   4.942 -0.6289 -0.4857 -0.2548
   29MOL0     C 3748   4.198   3.322   5.595 -0.0206  0.2751  0.0902
   29MOL0     C 3749   4.055   3.352   5.601 -1.0654 -1.4932 -0.3667
   29MOL0     C 3750   3.653   3.516   5.487  0.1903  0.0096  1.2591
   29MOL0     C 3751   3.589   3.438   5.392 -0.3909  0.1440  0.0756
   29MOL0     C 3752   3.456   3.465   5.364 -0.1488 -0.4475 -0.2735
   29MOL0     C 3753   3.380   3.564   5.425 -0.9576 -0.1359  1.0611
   29MOL0     O 3754   3.243   3.592   5.392 -0.3689  0.4103 -0.5580
   29MOL0     C 3755   3.157   3.478   5.359  0.4720  0.2062 -0.0478
   29MOL0     C 3756   3.017   3.528   5.383  0.0591  1.4790 -0.0453
   29MOL0     C 3757   2.920   3.406   5.342 -0.2151  0.3577  0.4947
   29MOL0     C 3758   2.867   3.421   5.196  0.9643  0.4566  0.5305
   29MOL0     C 3759   2.767   3.316   5.162 -0.4968  0.0755 -0.1082
   29MOL0     C 3760   2.684   3.234   5.133  0.0786  0.4169 -0.1556
   29MOL0     C 3761   3.448   3.645   5.518  0.5128 -0.1961  0.2727
   29MOL0     C 3762   3.576   3.619   5.559 -0.6874  0.7530  0.5608
   29MOL0     H 3763   3.992   3.321   5.269 -0.4770 -1.7560  0.2533
   29MOL0     H 3764   4.224   3.265   5.263  0.8301  1.4515  0.5857
   29MOL0     H 3765   4.454   3.237   5.648  1.9599 -1.3898 -0.7496
   29MOL0     H 3766   4.463   3.404   5.602 -0.9768  0.6203 -0.7676
   29MOL0     H 3767   4.680   3.342   5.612  1.5527 -3.2326 -0.1869
   29MOL0     H 3768   4.661   3.341   5.438 -0.9865 -0.8611 -0.6769
   29MOL0     H 3769   4.638   3.106   5.428 -1.5074 -1.5537  1.4784
   29MOL0     H 3770   4.674   3.103   5.609  0.5528  4.1177  2.7623
   29MOL0     H 3771   4.847   3.233   5.405 -2.5073  1.1092  0.4002
   29MOL0     H 3772   4.886   3.207   5.578 -1.4684 -3.4646  2.1265
   29MOL0     H 3773   4.920   2.983   5.542 -0.1680  2.2547  0.9620
   29MOL0     H 3774   5.020   3.082   5.434  0.7920 -0.3903 -1.0421
   29MOL0     H 3775   4.766   2.921   5.372 -1.4752  2.8597  1.2258
   29MOL0     H 3776   4.940   2.877   5.331  0.3628 -0.7597 -1.8154
   29MOL0     H 3777   4.813   3.124   5.210 -0.2789  0.6814 -0.2621
   29MOL0     H 3778   4.973   3.059   5.184 -0.0395 -2.5140  0.2459
   29MOL0     H 3779   4.852   2.842   5.090 -4.3689 -1.1599  3.9626
   29MOL0     H 3780   4.854   2.995   4.995 -1.2569 -0.2722 -0.6310
   29MOL0     H 3781   4.584   2.947   5.273 -1.0124  0.6770 -0.6435
   29MOL0     H 3782   4.338   2.769   5.215  0.6244 -0.0692  1.1762
   29MOL0     H 3783   4.278   2.830   5.058 -1.2129  1.4385 -0.7812
   29MOL0     H 3784   4.252   3.056   5.170 -0.4121  1.1874  0.7523
   29MOL0     H 3785   4.307   2.986   5.322  1.0864 -0.4027 -0.6750
   29MOL0     H 3786   4.113   2.813   5.295 -0.4929  0.6863  0.3024
   29MOL0     H 3787   4.071   2.982   5.338 -2.4478  0.6077 -0.9357
   29MOL0     H 3788   4.065   2.864   5.052 -1.7986 -2.1116 -0.7401
   29MOL0     H 3789   3.986   3.015   5.123  2.5361  0.5399  2.3865
   29MOL0     H 3790   3.694   2.733   5.084  1.7905 -1.0337  1.9558
   29MOL0     H 3791   3.474   2.832   5.088 -1.1031  0.2954 -0.2718
   29MOL0     H 3792   3.129   3.152   5.312 -0.0819 -0.4713  1.0696
   29MOL0     H 3793   2.906   3.083   5.377  1.0396  0.8766  0.3996
   29MOL0     H 3794   2.735   2.721   5.376  0.8324 -0.2364 -0.5185
   29MOL0     H 3795   2.713   2.716   5.203  1.6550 -4.1367  2.4971
   29MOL0     H 3796   2.503   2.852   5.211  1.5228 -0.0789  0.3846
   29MOL0     H 3797   2.541   2.895   5.372  0.4883 -0.7400  1.9141
   29MOL0     H 3798   2.519   2.638   5.441  1.7023  1.5558  0.0061
   29MOL0     H 3799   2.472   2.610   5.282 -2.1034 -1.3331  1.2247
   29MOL0     H 3800   2.329   2.816   5.442 -2.2656 -1.0558  0.8650
   29MOL0     H 3801   2.276   2.757   5.293 -0.9871 -1.2571  0.7172
   29MOL0     H 3802   2.338   2.590   5.535  2.3816  1.1961 -1.0343
   29MOL0     H 3803   2.257   2.536   5.384  2.6066  0.4754 -1.0863
   29MOL0     H 3804   2.067   2.700   5.409 -2.0679 -4.1686 -0.6096
   29MOL0     H 3805   2.147   2.759   5.562  0.1260 -1.3098  1.3837
   29MOL0     H 3806   2.092   2.526   5.648  0.0780  0.9943  1.4201
   29MOL0     H 3807   1.961   2.656   5.620  1.1533 -0.9308  2.1962
   29MOL0     H 3808   1.925   2.396   5.533  0.3897  0.8658  0.2393
   29MOL0     H 3809   2.036   2.444   5.414 -0.6249  1.9385 -3.3251
   29MOL0     H 3810   2.888   2.765   5.103  0.5441 -1.1452  1.7334
   29MOL0     H 3811   3.135   2.789   5.065 -2.1771  0.0393  0.4206
   29MOL0     H 3812   3.627   3.139   5.352  0.7211  0.4440  0.0113
   29MOL0     H 3813   3.842   3.061   5.314 -1.1561  1.0319  1.6202
   29MOL0     H 3814   4.252   3.325   5.690 -0.5584 -1.8452  0.5173
   29MOL0     H 3815   4.013   3.386   5.695  1.7222 -0.5627  0.6614
   29MOL0     H 3816   3.642   3.364   5.333 -0.5201 -0.1837  0.3648
   29MOL0     H 3817   3.412   3.408   5.283  0.2185 -2.6413  1.0020
   29MOL0     H 3818   3.173   3.384   5.413  1.1375 -0.2613 -1.0315
   29MOL0     H 3819   3.163   3.447   5.254 -0.3729  1.9024 -0.6258
   29MOL0     H 3820   2.997   3.562   5.485 -0.7208  1.3178 -0.1378
   29MOL0     H 3821   3.002   3.611   5.314 -0.4605  0.0840 -1.6632
   29MOL0     H 3822   2.838   3.411   5.414  1.7225  1.0381  2.7809
   29MOL0     H 3823   2.969   3.308   5.346 -1.6252 -0.4453 -0.9345
   29MOL0     H 3824   2.821   3.520   5.184 -1.5507 -0.9500 -2.9877
   29MOL0     H 3825   2.954   3.414   5.132  1.1222 -3.7816  0.9620
   29MOL0     H 3826   2.609   3.163   5.104 -0.5089 -0.5618  3.3015
   29MOL0     H 3827   3.397   3.732   5.556  1.0939 -0.6264  2.1297
   29MOL0     H 3828   3.620   3.676   5.640  2.6034 -0.9218  0.0993
   30MOL0     O 3829   7.711   0.197   4.624 -0.4381  0.2908 -0.1937
   30MOL0     C 3830   7.687   0.234   4.506  0.4140  0.2942 -0.0333
   30MOL0     O 3831   7.564   0.265   4.451  0.0648 -0.3754  0.4837
   30MOL0     C 3832   7.469   0.300   4.542  1.4192  0.6147 -0.4789
   30MOL0     C 3833   7.442   0.429   4.586 -0.0725  0.0831  1.2988
   30MOL0     C 3834   7.348   0.465   4.676  0.0423 -0.4666  0.5134
   30MOL0     C 3835   7.263   0.377   4.727 -0.2105 -0.6512 -0.6738
   30MOL0     O 3836   7.181   0.390   4.832  0.2153 -0.5871 -0.6220
   30MOL0     C 3837   7.131   0.527   4.837 -0.3788  0.9202  0.5293
   30MOL0     C 3838   7.025   0.556   4.943 -0.1614 -0.7350 -0.1475
   30MOL0     C 3839   6.893   0.472   4.921  0.2070  0.2469 -0.0212
   30MOL0     C 3840   6.819   0.476   5.056 -0.6961 -0.6788 -1.0398
   30MOL0     C 3841   6.703   0.387   5.058  0.0735  1.2148  0.3006
   30MOL0     C 3842   6.624   0.411   5.187  0.2270 -0.9674  0.6257
   30MOL0     C 3843   6.519   0.295   5.205  0.4164 -0.8344 -0.3415
   30MOL0     C 3844   6.422   0.339   5.320 -0.1214 -0.1432  0.6458
   30MOL0     N 3845   6.342   0.231   5.372  0.0537  0.5331  0.1433
   30MOL0     C 3846   6.267   0.135   5.311 -0.4163  0.0752  0.6377
   30MOL0     C 3847   6.228   0.042   5.399  0.2086 -0.2573 -0.0942
   30MOL0     C 3848   6.145  -0.084   5.391  0.8285  0.2127  0.3767
   30MOL0     C 3849   6.010  -0.063   5.318 -0.5879 -0.4516 -0.0566
   30MOL0     C 3850   5.915   0.053   5.381  0.2771  0.5608  0.3143
   30MOL0     C 3851   5.816   0.109   5.278  0.3992  0.6099 -0.5013
   30MOL0     O 3852   5.725   0.007   5.243  0.3657  0.1639 -0.0910
   30MOL0     C 3853   5.594   0.051   5.215 -0.4585 -0.4021 -0.5133
   30MOL0     C 3854   5.491  -0.043   5.220 -0.1733  0.6794  0.0822
   30MOL0     C 3855   5.359  -0.022   5.193 -0.2292 -0.8033  0.9773
   30MOL0     C 3856   5.316   0.108   5.157 -0.6190  0.9041 -0.1581
   30MOL0     C 3857   5.175   0.136   5.130  0.5730 -0.0121  0.3867
   30MOL0     O 3858   5.135   0.263   5.113  0.7327 -0.1206 -0.2142
   30MOL0     C 3859   4.993   0.287   5.118 -0.3589 -0.2083  0.8255
   30MOL0     C 3860   4.901   0.226   5.025 -0.3037  1.0429 -0.8630
   30MOL0     C 3861   4.773   0.275   5.019 -0.7380  0.1088 -0.2642
   30MOL0     C 3862   4.735   0.383   5.095  0.6893 -0.7472 -0.2898
   30MOL0     O 3863   4.603   0.422   5.080 -0.4059  0.5494 -0.0743
   30MOL0     C 3864   4.543   0.519   5.165  1.1672 -0.3918  0.1578
   30MOL0     C 3865   4.395   0.533   5.159 -0.5467  0.5044  0.0380
   30MOL0     C 3866   4.338   0.624   5.261  0.5823  0.0453 -0.3495
   30MOL0     C 3867   4.420   0.746   5.288 -0.2899  0.0012 -0.2455
   30MOL0     C 3868   4.337   0.851   5.367  0.3514 -0.1665  0.6065
   30MOL0     C 3869   4.431   0.971   5.379 -0.2097 -0.4111  0.2876
   30MOL0     C 3870   4.435   1.060   5.252  0.1220  0.1610 -0.1367
   30MOL0     C 3871   4.564   1.137   5.248 -0.2814  0.3066  0.3439
   30MOL0    Cl 3872   4.565   1.251   5.379 -0.5398  0.3132 -0.1682
   30MOL0     C 3873   4.827   0.458   5.170 -0.5933  0.4604  0.0536
   30MOL0     C 3874   4.958   0.402   5.185  0.1816  0.0556  0.6433
   30MOL0     O 3875   5.102   0.036   5.120 -0.1303  0.5212 -0.1896
   30MOL0     C 3876   5.416   0.210   5.155 -0.5236 -0.4162 -0.6851
   30MOL0     C 3877   5.554   0.181   5.181  0.1474 -0.1489  0.0799
   30MOL0     N 3878   6.291   0.080   5.516 -0.0840 -0.3372 -0.4535
   30MOL0     N 3879   6.349   0.191   5.500  0.6448 -0.2682  0.4068
   30MOL0     C 3880   7.286   0.243   4.698 -0.3569  0.4349 -0.2487
   30MOL0     C 3881   7.394   0.202   4.615 -0.1846  0.2649 -0.0459
   30MOL0     C 3882   7.811   0.244   4.428 -0.0285  0.2337  0.2701
   30MOL0     C 3883   7.929   0.184   4.471  0.3532  0.4969 -0.0760
   30MOL0     C 3884   8.049   0.209   4.404  0.0427 -0.2902  0.2163
   30MOL0     C 3885   8.061   0.282   4.284  0.1143 -0.1572 -1.0058
   30MOL0     O 3886   8.180   0.310   4.225  0.5406 -0.1761 -0.2322
   30MOL0     C 3887   8.310   0.281   4.284  0.6384 -0.4266 -0.3691
   30MOL0     C 3888   8.408   0.363   4.216  0.5120 -0.5209 -0.1055
   30MOL0     C 3889   8.408   0.331   4.063  0.3145 -0.1520 -0.1969
   30MOL0     C 3890   8.524   0.399   3.991  1.1173 -0.6253  0.8962
   30MOL0     C 3891   8.649   0.337   4.024 -0.9351 -0.5674 -0.2287
   30MOL0     C 3892   8.745   0.275   4.057 -0.3974  0.5952 -0.3185
   30MOL0     C 3893   7.943   0.343   4.237 -0.0428  0.0025 -0.2862
   30MOL0     C 3894   7.823   0.325   4.313 -1.0618 -0.6282  0.0257
   30MOL0     H 3895   7.493   0.507   4.530 -3.3332  0.8709 -0.8558
   30MOL0     H 3896   7.340   0.568   4.707 -2.3006 -0.6059  0.5241
   30MOL0     H 3897   7.080   0.556   4.745 -3.8532 -2.7301  1.0388
   30MOL0     H 3898   7.214   0.595   4.857  0.6057 -0.0784 -0.0116
   30MOL0     H 3899   6.997   0.660   4.925  0.6665 -0.5795 -0.5520
   30MOL0     H 3900   7.065   0.535   5.043  0.5227 -0.8984 -0.4541
   30MOL0     H 3901   6.930   0.371   4.902  1.7663  0.5538  1.1708
   30MOL0     H 3902   6.839   0.525   4.842 -0.2324 -1.9754 -1.3178
   30MOL0     H 3903   6.884   0.451   5.140 -1.0359  2.2257  0.1821
   30MOL0     H 3904   6.793   0.582   5.058  0.1548 -0.3847 -3.0621
   30MOL0     H 3905   6.741   0.285   5.058 -0.6638  0.8788 -2.1402
   30MOL0     H 3906   6.635   0.403   4.974 -2.7687 -0.0078  2.1620
   30MOL0     H 3907   6.572   0.506   5.182 -0.7475 -1.5052  0.1942
   30MOL0     H 3908   6.698   0.408   5.268  2.8753  1.3060 -1.4966
   30MOL0     H 3909   6.460   0.278   5.114  0.9934  0.2722 -0.9512
   30MOL0     H 3910   6.575   0.210   5.245  0.5197 -0.5780  0.0598
   30MOL0     H 3911   6.363   0.425   5.285 -0.0207  0.3685  1.6905
   30MOL0     H 3912   6.482   0.365   5.408  1.4528 -2.9633  0.5019
   30MOL0     H 3913   6.235   0.151   5.208  0.7774 -1.0155  0.0582
   30MOL0     H 3914   6.121  -0.125   5.490 -0.1125  1.1686  0.5679
   30MOL0     H 3915   6.203  -0.158   5.336  0.3283  0.6536 -0.7589
   30MOL0     H 3916   5.963  -0.161   5.322 -1.8548  0.1262 -0.3625
   30MOL0     H 3917   6.041  -0.028   5.219  2.5761  1.9840  1.5880
   30MOL0     H 3918   5.860   0.007   5.464  1.6422 -0.5892  0.6365
   30MOL0     H 3919   5.968   0.145   5.407 -0.1111  0.1075  3.0039
   30MOL0     H 3920   5.872   0.138   5.189 -0.0150  1.0940 -0.6030
   30MOL0     H 3921   5.769   0.194   5.328  2.6301 -0.5068  4.0464
   30MOL0     H 3922   5.514  -0.148   5.239 -5.7133 -2.2885 -5.6302
   30MOL0     H 3923   5.281  -0.097   5.199  0.5948 -1.7681 -0.1952
   30MOL0     H 3924   4.928   0.136   4.972 -2.0941  1.1453 -2.0313
   30MOL0     H 3925   4.708   0.224   4.949  0.7508  2.4097 -3.5941
   30MOL0     H 3926   4.593   0.613   5.141  3.2897 -1.6323 -0.6057
   30MOL0     H 3927   4.571   0.507   5.270 -1.7903  0.8664  1.1835
   30MOL0     H 3928   4.353   0.432   5.170  0.8269  0.1476  3.3430
   30MOL0     H 3929   4.369   0.578   5.063  3.6415 -0.1199 -1.5839
   30MOL0     H 3930   4.320   0.566   5.351 -0.1156 -0.7255 -0.9719
   30MOL0     H 3931   4.242   0.651   5.216  0.6349 -0.6677 -0.9183
   30MOL0     H 3932   4.505   0.716   5.350 -0.5877  1.0954  0.7301
   30MOL0     H 3933   4.458   0.794   5.197 -2.0153  1.4674 -0.2471
   30MOL0     H 3934   4.317   0.809   5.466  0.6004 -0.4235  0.5476
   30MOL0     H 3935   4.239   0.869   5.321  0.7434 -0.4507 -0.3396
   30MOL0     H 3936   4.533   0.937   5.398  0.7993  3.0632  2.0274
   30MOL0     H 3937   4.414   1.043   5.460  3.0274  3.2646 -1.9126
   30MOL0     H 3938   4.427   0.995   5.164 -0.3075 -0.4779  0.3726
   30MOL0     H 3939   4.349   1.128   5.248 -1.2206 -0.8964  4.8575
   30MOL0     H 3940   4.571   1.199   5.158 -0.0951 -2.6544 -1.8216
   30MOL0     H 3941   4.648   1.066   5.255 -1.2639 -0.6848  3.3068
   30MOL0     H 3942   4.796   0.550   5.218 -3.4121 -0.8859  1.0656
   30MOL0     H 3943   5.041   0.458   5.227 -0.1180  2.1671 -1.4013
   30MOL0     H 3944   5.395   0.315   5.136  2.4663  0.4860  0.2961
   30MOL0     H 3945   5.619   0.268   5.188  0.5544 -0.5275  1.3284
   30MOL0     H 3946   7.214   0.171   4.736 -0.6143  0.8861  0.1349
   30MOL0     H 3947   7.410   0.100   4.581  1.6205  0.1618  1.0068
   30MOL0     H 3948   7.937   0.118   4.557  1.5370  0.2371 -0.3807
   30MOL0     H 3949   8.138   0.163   4.447 -0.0468  0.1677  0.9173
   30MOL0     H 3950   8.337   0.175   4.278 -0.2793 -0.9582  2.8978
   30MOL0     H 3951   8.316   0.295   4.392  0.3447  0.0869 -0.4173
   30MOL0     H 3952   8.370   0.463   4.237  0.5410 -0.6481  0.5966
   30MOL0     H 3953   8.510   0.342   4.251  0.2135 -1.7913  0.0529
   30MOL0     H 3954   8.311   0.357   4.019 -0.0700 -1.8752 -0.4608
   30MOL0     H 3955   8.421   0.225   4.040  2.1850 -0.0771  0.3381
   30MOL0     H 3956   8.513   0.386   3.883  2.3442  1.1343  0.5120
   30MOL0     H 3957   8.517   0.508   4.000  1.0050 -0.2496 -2.5970
   30MOL0     H 3958   8.830   0.219   4.090 -2.1916 -0.9712  1.9970
   30MOL0     H 3959   7.943   0.414   4.155 -2.0305 -0.9104 -1.1344
   30MOL0     H 3960   7.736   0.374   4.271 -0.5302 -0.8836 -1.4413
   31MOL0     O 3961   7.002   7.091   8.338 -0.0547 -0.2272  0.3891
   31MOL0     C 3962   7.082   7.176   8.376 -0.3424 -0.2261  0.2769
   31MOL0     O 3963   7.064   7.310   8.376  0.1110  0.3937 -0.7823
   31MOL0     C 3964   6.949   7.375   8.340  0.7798 -0.4858 -0.3222
   31MOL0     C 3965   6.836   7.308   8.288  0.2943 -0.8101  0.2695
   31MOL0     C 3966   6.718   7.372   8.288 -0.3100 -0.4023 -0.3340
   31MOL0     C 3967   6.703   7.507   8.321  0.4452  0.1020 -0.8601
   31MOL0     O 3968   6.595   7.581   8.310  0.1630 -0.1360  0.3045
   31MOL0     C 3969   6.467   7.526   8.343  0.3884  0.6426 -0.6304
   31MOL0     C 3970   6.357   7.617   8.286  0.7502  0.1764  0.2178
   31MOL0     C 3971   6.216   7.555   8.303  0.2170  0.0505  0.0663
   31MOL0     C 3972   6.104   7.634   8.229  0.1810  1.1303 -0.3245
   31MOL0     C 3973   5.970   7.560   8.266 -0.8943  0.8978 -0.3290
   31MOL0     C 3974   5.953   7.431   8.185 -0.5294  1.1679 -0.2304
   31MOL0     C 3975   5.935   7.449   8.035 -0.0208 -0.4818  0.3805
   31MOL0     C 3976   5.803   7.513   7.993 -0.5743  0.0858  0.2745
   31MOL0     N 3977   5.708   7.404   7.992  0.9326  0.1603  0.6563
   31MOL0     C 3978   5.644   7.363   7.876 -0.1842  0.7911  0.5190
   31MOL0     C 3979   5.575   7.247   7.899 -0.6237  0.5782  0.4781
   31MOL0     C 3980   5.503   7.151   7.801 -0.1455 -0.5854  0.4746
   31MOL0     C 3981   5.350   7.167   7.819  0.8334 -0.2184  0.9213
   31MOL0     C 3982   5.279   7.044   7.750  1.3937 -0.0952  0.3225
   31MOL0     C 3983   5.131   7.042   7.793 -0.2817  0.5127 -0.1047
   31MOL0     O 3984   5.086   6.911   7.748 -0.7349  0.0070 -0.7685
   31MOL0     C 3985   4.963   6.893   7.703 -1.0819  0.0516  0.2683
   31MOL0     C 3986   4.859   6.959   7.765 -0.1315 -0.6426  0.7000
   31MOL0     C 3987   4.729   6.959   7.706 -0.6920 -0.6942  0.2564
   31MOL0     C 3988   4.709   6.903   7.575  0.2032  0.0747  0.3385
   31MOL0     C 3989   4.593   6.923   7.503  0.1340  0.1154  0.3891
   31MOL0     O 3990   4.578   6.839   7.394  0.0140  0.5620 -0.2089
   31MOL0     C 3991   4.449   6.803   7.365  0.7623 -0.3153  0.6644
   31MOL0     C 3992   4.367   6.721   7.441 -0.1399 -0.5730  0.9491
   31MOL0     C 3993   4.234   6.700   7.402  0.0192  0.1257 -0.5621
   31MOL0     C 3994   4.187   6.758   7.291 -0.3181  0.8375  0.1047
   31MOL0     O 3995   4.048   6.752   7.254 -0.5620  0.5272 -1.0015
   31MOL0     C 3996   3.989   6.857   7.173  0.0909  1.0199 -0.3331
   31MOL0     C 3997   3.839   6.822   7.171 -0.5419  0.7061  0.0902
   31MOL0     C 3998   3.760   6.930   7.093  0.2991 -0.0964 -1.1065
   31MOL0     C 3999   3.614   6.920   7.120 -0.2220  0.4327  0.1457
   31MOL0     C 4000   3.533   7.005   7.019  0.2710 -0.3082 -0.0565
   31MOL0     C 4001   3.383   6.954   7.011  0.3159 -0.2453 -0.4925
   31MOL0     C 4002   3.285   7.006   7.118 -0.2138  0.1402  0.0542
   31MOL0     C 4003   3.166   6.918   7.131  1.3153 -0.0696 -0.6176
   31MOL0    Cl 4004   3.060   6.973   7.266  0.2209 -0.0994 -0.5605
   31MOL0     C 4005   4.274   6.834   7.204  0.4902 -0.5160  0.2519
   31MOL0     C 4006   4.412   6.856   7.241  0.4010 -0.2054 -0.7640
   31MOL0     O 4007   4.506   6.993   7.547  0.1437 -0.2554  0.7274
   31MOL0     C 4008   4.816   6.830   7.520 -0.3734 -1.0120 -0.4276
   31MOL0     C 4009   4.943   6.823   7.590  0.4517 -0.0573 -0.7764
   31MOL0     N 4010   5.585   7.217   8.034 -0.8348  0.6354  0.8812
   31MOL0     N 4011   5.669   7.301   8.083 -0.4771 -0.2405 -0.0243
   31MOL0     C 4012   6.808   7.573   8.383 -0.5775 -0.6458 -0.7649
   31MOL0     C 4013   6.929   7.505   8.396 -0.0807 -0.5089  0.2813
   31MOL0     C 4014   7.201   7.122   8.434 -0.1186  0.0846 -0.4680
   31MOL0     C 4015   7.221   6.978   8.446 -0.9999 -0.0895  0.6228
   31MOL0     C 4016   7.344   6.922   8.484 -0.1577  0.6555 -0.5862
   31MOL0     C 4017   7.443   7.008   8.514 -1.0856  0.3363  0.1723
   31MOL0     O 4018   7.568   6.967   8.558  0.3102 -0.0427  0.0916
   31MOL0     C 4019   7.565   6.921   8.697  0.5643 -0.3088  0.8978
   31MOL0     C 4020   7.690   6.967   8.759  0.4713 -0.2084 -0.3834
   31MOL0     C 4021   7.690   6.931   8.916 -0.4946 -0.8861  0.2538
   31MOL0     C 4022   7.802   7.001   8.997 -0.4791 -0.0450 -0.4729
   31MOL0     C 4023   7.940   6.987   8.948  0.0143  0.9128 -1.1164
   31MOL0     C 4024   8.048   6.960   8.895 -0.2652  0.8017  0.6347
   31MOL0     C 4025   7.423   7.143   8.512 -0.0964 -0.8529  0.6923
   31MOL0     C 4026   7.302   7.205   8.478 -0.5632 -0.8029  0.5899
   31MOL0     H 4027   6.831   7.205   8.255 -1.6065 -0.9635  0.8693
   31MOL0     H 4028   6.641   7.326   8.227  1.4530 -1.8407 -1.5882
   31MOL0     H 4029   6.460   7.526   8.452 -0.8893  0.5174 -0.6969
   31MOL0     H 4030   6.454   7.425   8.305  0.6536  0.5109 -0.3831
   31MOL0     H 4031   6.374   7.637   8.179  2.2167 -0.6819  0.2708
   31MOL0     H 4032   6.351   7.714   8.336 -1.5382 -0.5761  1.5323
   31MOL0     H 4033   6.191   7.553   8.410 -1.0269 -1.9466 -0.2198
   31MOL0     H 4034   6.224   7.452   8.268 -1.8634  0.3701 -1.5876
   31MOL0     H 4035   6.106   7.733   8.277  0.7975 -0.5857  3.5428
   31MOL0     H 4036   6.123   7.650   8.122  1.7522  1.4954 -0.0172
   31MOL0     H 4037   5.884   7.624   8.243 -0.4255  1.0468 -1.8053
   31MOL0     H 4038   5.964   7.537   8.372 -0.0891  0.0766 -0.4487
   31MOL0     H 4039   5.862   7.382   8.221  0.4702  0.7607  1.8852
   31MOL0     H 4040   6.036   7.361   8.195 -1.0169 -0.0039 -3.2446
   31MOL0     H 4041   6.020   7.507   7.998 -1.0905  1.4471  0.7928
   31MOL0     H 4042   5.951   7.353   7.986  0.0330 -0.2608 -0.0390
   31MOL0     H 4043   5.802   7.558   7.893 -1.8476 -0.6168 -0.0614
   31MOL0     H 4044   5.762   7.584   8.064  1.1158  0.5039  0.8709
   31MOL0     H 4045   5.675   7.406   7.782  2.2674 -1.7519  0.0402
   31MOL0     H 4046   5.534   7.051   7.831  0.8929  0.2796  2.5436
   31MOL0     H 4047   5.539   7.179   7.701  3.2994 -2.0092  1.1747
   31MOL0     H 4048   5.307   7.252   7.765 -1.3107 -0.5520  1.9701
   31MOL0     H 4049   5.319   7.178   7.923 -2.2545  2.1231 -0.0914
   31MOL0     H 4050   5.293   7.059   7.643  2.3768  1.3351  0.6248
   31MOL0     H 4051   5.335   6.955   7.781 -0.9791 -1.0198  2.2840
   31MOL0     H 4052   5.076   7.124   7.746 -3.3011 -0.8292  0.8441
   31MOL0     H 4053   5.106   7.047   7.899 -1.9463 -1.3635 -0.3568
   31MOL0     H 4054   4.876   7.028   7.847 -0.6232  2.7898 -1.8719
   31MOL0     H 4055   4.640   7.007   7.745  0.1529 -0.7851  2.4078
   31MOL0     H 4056   4.400   6.675   7.533 -2.3361 -0.6027  1.7869
   31MOL0     H 4057   4.162   6.639   7.455  0.4093  0.8003  0.7949
   31MOL0     H 4058   4.033   6.860   7.073  0.8764  0.7818 -0.0113
   31MOL0     H 4059   4.014   6.946   7.231  1.7260 -0.0582  0.7276
   31MOL0     H 4060   3.801   6.807   7.272 -0.3308 -1.2815 -0.0853
   31MOL0     H 4061   3.828   6.726   7.120 -2.8805  1.1743 -0.3959
   31MOL0     H 4062   3.776   6.923   6.986 -0.2171  0.9805 -1.2630
   31MOL0     H 4063   3.793   7.027   7.132 -0.3643 -0.5174  0.6360
   31MOL0     H 4064   3.592   6.816   7.093 -0.0586  0.4824 -0.1767
   31MOL0     H 4065   3.590   6.942   7.224 -2.0439 -1.0286  0.0944
   31MOL0     H 4066   3.578   7.001   6.919 -0.9255  0.3741 -0.6477
   31MOL0     H 4067   3.531   7.111   7.043 -0.5690 -0.7327  1.8959
   31MOL0     H 4068   3.390   6.845   7.023  1.1309 -0.0547  1.0340
   31MOL0     H 4069   3.345   6.968   6.910  0.2971  3.1254 -0.1156
   31MOL0     H 4070   3.335   6.997   7.215 -0.1878 -1.5479 -0.0972
   31MOL0     H 4071   3.261   7.112   7.103  0.1972  0.8168  3.4495
   31MOL0     H 4072   3.192   6.817   7.164  0.8751  0.3621  1.1119
   31MOL0     H 4073   3.109   6.920   7.038  1.9872  0.7761 -1.0301
   31MOL0     H 4074   4.240   6.885   7.114  2.7408  0.1018 -0.2945
   31MOL0     H 4075   4.474   6.922   7.181  1.3392 -0.3095  0.0585
   31MOL0     H 4076   4.804   6.769   7.431  0.9755 -2.3912  0.2867
   31MOL0     H 4077   5.019   6.756   7.551  1.0119  0.4045 -0.4859
   31MOL0     H 4078   6.797   7.677   8.415 -0.4853 -1.1641  1.0827
   31MOL0     H 4079   7.010   7.548   8.453  2.0504  0.6322 -3.2540
   31MOL0     H 4080   7.141   6.910   8.417 -0.5611 -0.2914 -0.1265
   31MOL0     H 4081   7.355   6.814   8.488 -0.8320  0.5633 -1.1189
   31MOL0     H 4082   7.564   6.811   8.705  3.0731 -0.3105  2.0561
   31MOL0     H 4083   7.474   6.942   8.755  0.7551 -1.4883  1.6683
   31MOL0     H 4084   7.773   6.924   8.703 -1.4284 -3.6902 -0.7994
   31MOL0     H 4085   7.699   7.076   8.750 -3.1388  0.4415  1.7377
   31MOL0     H 4086   7.713   6.824   8.917  2.6596 -0.3101  0.9247
   31MOL0     H 4087   7.600   6.966   8.966  0.1261 -0.2028  0.9072
   31MOL0     H 4088   7.778   7.107   9.004  1.4644  0.4309 -0.5232
   31MOL0     H 4089   7.807   6.961   9.099 -1.1191  1.4606  0.1881
   31MOL0     H 4090   8.141   6.925   8.855 -0.5916  0.0888  0.4836
   31MOL0     H 4091   7.509   7.204   8.540 -2.1426  2.4481  0.2824
   31MOL0     H 4092   7.295   7.313   8.471  1.5791 -0.6031  0.8924
   32MOL0     O 4093   4.015   8.174   9.161  0.2640  0.0035  0.1174
   32MOL0     C 4094   4.100   8.255   9.169 -0.9400 -1.2510  0.1735
   32MOL0     O 4095   4.093   8.389   9.206  0.6886  0.8436  0.3697
   32MOL0     C 4096   3.976   8.425   9.270 -0.3080 -0.8164  0.6937
   32MOL0     C 4097   3.899   8.532   9.227  0.1092  0.9500 -0.2130
   32MOL0     C 4098   3.765   8.559   9.284  0.0654 -0.9255 -0.1403
   32MOL0     C 4099   3.718   8.481   9.386 -0.7057 -0.2988  0.0724
   32MOL0     O 4100   3.603   8.523   9.457  0.2080 -0.7103 -0.7991
   32MOL0     C 4101   3.570   8.436   9.566 -0.4044  0.1888  0.0094
   32MOL0     C 4102   3.448   8.499   9.642 -0.0364  0.6534  0.0163
   32MOL0     C 4103   3.326   8.496   9.550 -0.4974  0.3479  0.6161
   32MOL0     C 4104   3.196   8.501   9.631  0.2519  0.7633  0.0072
   32MOL0     C 4105   3.140   8.351   9.648  0.7065  0.3932  0.6732
   32MOL0     C 4106   3.018   8.348   9.737 -0.0203 -0.0696 -1.0346
   32MOL0     C 4107   2.898   8.435   9.698  0.5024 -0.1308  0.3175
   32MOL0     C 4108   2.779   8.395   9.785 -0.5985 -0.0190  0.1402
   32MOL0     N 4109   2.653   8.460   9.727 -0.0236  0.4275  1.1121
   32MOL0     C 4110   2.555   8.511   9.807  0.5259  0.6671 -0.5746
   32MOL0     C 4111   2.440   8.493   9.739 -0.4202 -0.2163  0.5711
   32MOL0     C 4112   2.307   8.532   9.789 -0.6663 -0.1742 -0.1521
   32MOL0     C 4113   2.198   8.426   9.779  0.3979 -0.7967  0.7644
   32MOL0     C 4114   2.065   8.481   9.829 -0.1808  0.5855  0.2458
   32MOL0     C 4115   1.964   8.373   9.797  0.7262  0.3138 -1.3786
   32MOL0     O 4116   1.834   8.428   9.826  0.8106 -0.3558 -0.0606
   32MOL0     C 4117   1.726   8.411   9.740 -0.8279  1.1218 -0.4230
   32MOL0     C 4118   1.738   8.433   9.601  0.8709 -0.9767 -0.5522
   32MOL0     C 4119   1.629   8.405   9.517  0.5039 -0.4156  0.0204
   32MOL0     C 4120   1.500   8.360   9.579  1.3346 -0.0029  0.7126
   32MOL0     C 4121   1.380   8.344   9.492  0.2040  0.2030 -0.7453
   32MOL0     O 4122   1.265   8.308   9.552 -0.9151 -0.0455 -0.4024
   32MOL0     C 4123   1.135   8.288   9.503 -0.4342  0.1690 -0.3255
   32MOL0     C 4124   1.107   8.296   9.366  0.1269 -0.2143  0.5914
   32MOL0     C 4125   0.993   8.244   9.318  0.0984  0.3884  0.5161
   32MOL0     C 4126   0.889   8.215   9.408 -0.3971 -1.1805 -0.4665
   32MOL0     O 4127   0.768   8.173   9.369  0.7526 -0.6247 -0.1044
   32MOL0     C 4128   0.660   8.250   9.436  0.0134 -0.4826  0.0191
   32MOL0     C 4129   0.550   8.311   9.344  0.7640 -0.3540  0.5195
   32MOL0     C 4130   0.573   8.437   9.245 -0.2486  0.8467 -0.4786
   32MOL0     C 4131   0.651   8.549   9.311 -0.0256 -0.3550 -0.3725
   32MOL0     C 4132   0.662   8.669   9.215 -0.5196 -0.1162  0.4762
   32MOL0     C 4133   0.704   8.790   9.280 -0.5778 -0.7546 -0.4045
   32MOL0     C 4134   0.757   8.901   9.186  0.0573 -0.2978 -0.8093
   32MOL0     C 4135   0.810   9.023   9.272  0.2302  0.7090  0.6673
   32MOL0    Cl 4136   0.863   9.156   9.157 -0.2328  0.1377  0.4688
   32MOL0     C 4137   0.904   8.212   9.545  0.4120 -0.1453 -1.0049
   32MOL0     C 4138   1.035   8.246   9.591  0.5902 -0.5514  0.0281
   32MOL0     O 4139   1.395   8.368   9.374  0.3415  0.5507  0.2274
   32MOL0     C 4140   1.488   8.354   9.720 -0.8204 -1.0257  0.0171
   32MOL0     C 4141   1.607   8.368   9.791 -0.9148 -0.0356  0.3977
   32MOL0     N 4142   2.470   8.434   9.617 -0.3040 -0.7352  0.4943
   32MOL0     N 4143   2.601   8.414   9.612 -0.2211  0.3087 -0.6774
   32MOL0     C 4144   3.796   8.367   9.420  0.6157  0.3529  0.0351
   32MOL0     C 4145   3.927   8.347   9.369 -0.6690  0.2061 -0.1003
   32MOL0     C 4146   4.233   8.211   9.132 -0.2822 -0.1620 -0.2031
   32MOL0     C 4147   4.265   8.072   9.128 -0.7525 -0.1629 -0.1440
   32MOL0     C 4148   4.384   8.027   9.064  0.4052  0.1666 -0.8263
   32MOL0     C 4149   4.479   8.114   9.013 -0.4582 -0.0150 -0.0547
   32MOL0     O 4150   4.606   8.082   8.953 -0.0408 -0.2197  0.4827
   32MOL0     C 4151   4.647   7.937   8.955  0.5083 -0.2596 -0.0753
   32MOL0     C 4152   4.797   7.938   8.901  0.3076  0.7203  0.0253
   32MOL0     C 4153   4.847   7.806   8.829 -0.6858 -0.5549 -0.7900
   32MOL0     C 4154   4.874   7.678   8.914 -0.5575  0.3542 -0.1532
   32MOL0     C 4155   4.751   7.638   8.986 -0.5492 -0.8268  0.7241
   32MOL0     C 4156   4.655   7.610   9.056 -0.3382 -1.5092  0.1726
   32MOL0     C 4157   4.448   8.246   9.025  0.7196 -0.7570 -0.5385
   32MOL0     C 4158   4.331   8.305   9.089  0.0164  0.2343  0.9309
   32MOL0     H 4159   3.933   8.596   9.147 -0.5209  0.6102 -0.7582
   32MOL0     H 4160   3.704   8.647   9.262  1.5044  1.2453  3.6002
   32MOL0     H 4161   3.647   8.428   9.643  0.9714  1.2233 -1.1948
   32MOL0     H 4162   3.539   8.338   9.527 -0.1707  0.8239 -1.8713
   32MOL0     H 4163   3.472   8.603   9.664  0.3728  0.3912  0.8425
   32MOL0     H 4164   3.432   8.442   9.734 -1.0775  1.4092  0.3166
   32MOL0     H 4165   3.333   8.414   9.478  2.5534  0.9552  0.0782
   32MOL0     H 4166   3.318   8.586   9.488  2.1125 -0.3183 -0.8202
   32MOL0     H 4167   3.222   8.541   9.729 -1.3484  0.2512  0.6593
   32MOL0     H 4168   3.120   8.564   9.583 -0.7764 -2.1463 -2.5331
   32MOL0     H 4169   3.214   8.289   9.699  0.0235  0.1305  1.3647
   32MOL0     H 4170   3.118   8.297   9.555 -0.4663 -0.4785  1.4273
   32MOL0     H 4171   3.062   8.374   9.833  1.3644 -2.5767 -0.8989
   32MOL0     H 4172   2.986   8.244   9.748  1.0205 -0.4481 -1.4475
   32MOL0     H 4173   2.916   8.542   9.709 -1.3267  0.0145  2.7055
   32MOL0     H 4174   2.872   8.416   9.594  0.0889  0.1533  0.3663
   32MOL0     H 4175   2.793   8.423   9.890  0.4138 -0.0753  0.0305
   32MOL0     H 4176   2.759   8.288   9.778 -1.3581  0.1286  0.0166
   32MOL0     H 4177   2.567   8.563   9.901  0.3097  0.6316 -0.5246
   32MOL0     H 4178   2.265   8.619   9.736  1.9017  1.7763  0.8232
   32MOL0     H 4179   2.326   8.560   9.893 -0.8418  2.0023 -0.6553
   32MOL0     H 4180   2.228   8.342   9.843  0.6397  0.3975  2.2807
   32MOL0     H 4181   2.183   8.396   9.675  1.3265 -0.1721  0.4375
   32MOL0     H 4182   2.078   8.517   9.932 -2.2213  0.1290  0.7029
   32MOL0     H 4183   2.038   8.565   9.764  2.0495 -0.5557 -2.4011
   32MOL0     H 4184   1.972   8.291   9.869  0.3968  0.4247 -1.2143
   32MOL0     H 4185   1.969   8.328   9.698  0.0226 -2.5044 -0.2285
   32MOL0     H 4186   1.828   8.483   9.565 -0.4696  3.7575  1.8110
   32MOL0     H 4187   1.638   8.421   9.410  2.0792 -3.4112 -0.4047
   32MOL0     H 4188   1.181   8.316   9.289 -1.2915  2.1087 -0.2624
   32MOL0     H 4189   0.975   8.223   9.213 -1.0837 -1.7555  1.1095
   32MOL0     H 4190   0.692   8.337   9.493 -1.3219 -0.6194  1.0245
   32MOL0     H 4191   0.616   8.180   9.508  3.3191 -2.1665  0.6120
   32MOL0     H 4192   0.463   8.341   9.405  0.3351  0.5029 -0.4882
   32MOL0     H 4193   0.516   8.229   9.280 -0.6560 -1.3867  2.4427
   32MOL0     H 4194   0.491   8.479   9.186  0.4518 -1.0951 -2.9884
   32MOL0     H 4195   0.634   8.393   9.166 -3.5445 -1.0761 -2.1863
   32MOL0     H 4196   0.596   8.589   9.397  1.7171 -0.4166  0.8151
   32MOL0     H 4197   0.741   8.502   9.352  1.8700 -0.1482 -3.9209
   32MOL0     H 4198   0.565   8.697   9.174 -1.1994 -0.3330  1.8760
   32MOL0     H 4199   0.726   8.637   9.132 -0.9607  2.0876 -0.7791
   32MOL0     H 4200   0.774   8.772   9.362  1.3077  0.7083 -1.5722
   32MOL0     H 4201   0.618   8.840   9.324 -0.0680 -1.0666  0.9878
   32MOL0     H 4202   0.839   8.879   9.117 -0.5661  1.8096 -2.3564
   32MOL0     H 4203   0.674   8.929   9.121  2.0257  0.0736 -3.3473
   32MOL0     H 4204   0.895   8.986   9.330  0.0404 -3.2791 -1.2165
   32MOL0     H 4205   0.723   9.058   9.329 -1.2709  1.6080 -1.9769
   32MOL0     H 4206   0.840   8.177   9.626  1.7977  1.8635  1.0674
   32MOL0     H 4207   1.050   8.242   9.699  1.0060  1.4797  0.0862
   32MOL0     H 4208   1.397   8.329   9.775 -1.7072  2.4537  0.3601
   32MOL0     H 4209   1.599   8.348   9.898 -3.5914  0.5219  0.3764
   32MOL0     H 4210   3.774   8.303   9.505  0.8672  2.2268  1.5837
   32MOL0     H 4211   3.994   8.270   9.407  0.4144  1.8325  1.4614
   32MOL0     H 4212   4.204   7.999   9.181 -2.9779  0.8258 -1.2007
   32MOL0     H 4213   4.411   7.922   9.066  1.3376  0.3803 -1.4391
   32MOL0     H 4214   4.578   7.880   8.892  0.0591 -1.2035  1.2160
   32MOL0     H 4215   4.632   7.906   9.059 -3.1097  3.7819  0.9010
   32MOL0     H 4216   4.810   8.019   8.828 -0.7510  1.3204  0.4859
   32MOL0     H 4217   4.861   7.961   8.986 -2.0661  0.3782  2.0122
   32MOL0     H 4218   4.941   7.842   8.787 -0.7117  0.7616  0.2432
   32MOL0     H 4219   4.787   7.787   8.739 -0.7097 -1.1650 -0.6530
   32MOL0     H 4220   4.917   7.598   8.853  0.1223 -1.0230  2.0481
   32MOL0     H 4221   4.952   7.709   8.984 -0.1012 -2.9307  0.9474
   32MOL0     H 4222   4.568   7.587   9.113 -0.2602  0.7971  1.3407
   32MOL0     H 4223   4.515   8.317   8.976  0.3596 -1.6513 -2.4085
   32MOL0     H 4224   4.315   8.412   9.092 -0.9307  0.4066 -3.6296
   33MOL0     O 4225   0.263   2.493   4.201 -0.1814 -0.1289 -0.5448
   33MOL0     C 4226   0.290   2.401   4.128  0.0571  0.1533  0.5658
   33MOL0     O 4227   0.212   2.308   4.082 -0.3020  0.4972  0.0943
   33MOL0     C 4228   0.074   2.335   4.099 -0.4766  0.5938 -0.6091
   33MOL0     C 4229   0.001   2.267   4.195  0.2775 -0.0472 -0.3338
   33MOL0     C 4230  -0.132   2.285   4.218 -0.3614 -0.1515 -0.4552
   33MOL0     C 4231  -0.199   2.393   4.144  0.7888  0.5814 -0.1967
   33MOL0     O 4232  -0.327   2.429   4.152  0.6711 -0.5929  0.9377
   33MOL0     C 4233  -0.426   2.333   4.195 -0.2697  0.4241  1.3508
   33MOL0     C 4234  -0.557   2.407   4.237 -0.1715  0.0353  0.7838
   33MOL0     C 4235  -0.649   2.321   4.315  0.1918 -0.4846  0.3925
   33MOL0     C 4236  -0.782   2.394   4.336 -0.8055 -0.4342 -0.4688
   33MOL0     C 4237  -0.894   2.315   4.416  0.0020  0.1750 -0.1227
   33MOL0     C 4238  -1.026   2.394   4.393  1.0938  0.1584 -0.0213
   33MOL0     C 4239  -1.150   2.332   4.465  1.0020  0.1098  0.4909
   33MOL0     C 4240  -1.282   2.384   4.405 -0.0268 -0.3637 -0.1208
   33MOL0     N 4241  -1.403   2.318   4.458 -0.0817  0.9681  0.0345
   33MOL0     C 4242  -1.425   2.186   4.455  0.3419  0.0274 -0.2574
   33MOL0     C 4243  -1.549   2.168   4.508 -0.7206  0.5619 -0.8740
   33MOL0     C 4244  -1.611   2.035   4.535 -0.3172  0.6261  0.9613
   33MOL0     C 4245  -1.714   1.998   4.420 -0.1858  0.4370  0.2602
   33MOL0     C 4246  -1.835   2.081   4.436  0.2233  0.2274  0.6831
   33MOL0     C 4247  -1.965   2.005   4.412  0.6208 -0.4501 -0.5931
   33MOL0     O 4248  -2.080   2.091   4.439 -0.2452  0.0008  0.1113
   33MOL0     C 4249  -2.199   2.039   4.392 -0.6438 -0.0243 -0.2459
   33MOL0     C 4250  -2.293   2.132   4.364 -0.3070 -0.2652 -0.3289
   33MOL0     C 4251  -2.423   2.101   4.340  1.2278 -0.1573  0.1297
   33MOL0     C 4252  -2.479   1.969   4.355  0.4687 -0.3840  0.4155
   33MOL0     C 4253  -2.629   1.935   4.339 -0.0351  0.2757  0.1153
   33MOL0     O 4254  -2.699   2.033   4.278 -0.4161  0.7401 -0.0416
   33MOL0     C 4255  -2.828   2.020   4.233  0.0141 -0.1080  0.6488
   33MOL0     C 4256  -2.889   2.144   4.190  0.1204  0.3815 -0.5608
   33MOL0     C 4257  -3.013   2.143   4.136  0.0303 -0.0699 -0.6200
   33MOL0     C 4258  -3.095   2.029   4.135 -0.9292  0.5063 -0.6617
   33MOL0     O 4259  -3.209   2.019   4.074  0.2346  0.1204  0.7656
   33MOL0     C 4260  -3.310   2.119   4.088  0.4163 -0.5823 -0.5361
   33MOL0     C 4261  -3.444   2.080   4.020 -0.3371  0.1149 -0.4305
   33MOL0     C 4262  -3.565   2.132   4.104  0.9728 -0.0155  0.1960
   33MOL0     C 4263  -3.566   2.062   4.238 -0.2842  0.5031 -1.0794
   33MOL0     C 4264  -3.706   2.075   4.302  1.0331 -0.1220  0.3720
   33MOL0     C 4265  -3.736   1.972   4.412  0.2729 -0.6065 -0.1836
   33MOL0     C 4266  -3.876   1.987   4.472  0.0075 -0.2318  0.5494
   33MOL0     C 4267  -3.923   1.863   4.548  0.7101  0.1276 -0.0412
   33MOL0    Cl 4268  -3.857   1.862   4.714 -0.2730 -0.0514  0.1234
   33MOL0     C 4269  -3.036   1.911   4.180  0.1900  0.0091  0.3737
   33MOL0     C 4270  -2.910   1.901   4.231 -1.0837 -0.7417  0.3511
   33MOL0     O 4271  -2.671   1.829   4.377 -0.3521 -0.1670 -0.0803
   33MOL0     C 4272  -2.381   1.875   4.386  0.3579 -0.1697  0.0337
   33MOL0     C 4273  -2.247   1.908   4.401  0.8483  0.2386 -0.1366
   33MOL0     N 4274  -1.609   2.293   4.524 -0.3533  0.5851 -0.4247
   33MOL0     N 4275  -1.518   2.383   4.495 -0.1061  0.3754 -0.0712
   33MOL0     C 4276  -0.126   2.457   4.041  0.2293 -0.1196  0.5979
   33MOL0     C 4277   0.011   2.437   4.019  0.3147  1.0934  0.3635
   33MOL0     C 4278   0.434   2.387   4.099 -0.5057  0.3281  0.0980
   33MOL0     C 4279   0.488   2.271   4.032  0.3701 -0.9687 -0.5259
   33MOL0     C 4280   0.627   2.271   4.009 -0.3156  0.6717 -0.4572
   33MOL0     C 4281   0.716   2.360   4.076 -0.3402 -0.0376 -0.8434
   33MOL0     O 4282   0.850   2.344   4.066  0.3932 -0.2552  0.3116
   33MOL0     C 4283   0.951   2.439   4.105 -0.5144  0.3727 -0.1519
   33MOL0     C 4284   1.085   2.371   4.101 -0.3178 -0.0359  1.1225
   33MOL0     C 4285   1.124   2.289   4.224  0.0160  0.9249 -0.5178
   33MOL0     C 4286   1.246   2.192   4.217 -0.0386 -0.1632 -0.5219
   33MOL0     C 4287   1.234   2.080   4.116  0.5858  0.1371  0.0338
   33MOL0     C 4288   1.209   1.988   4.045 -0.1065  0.7831 -0.1387
   33MOL0     C 4289   0.663   2.469   4.141  0.7110 -0.3198 -0.4194
   33MOL0     C 4290   0.530   2.482   4.149 -0.1974 -0.0489 -0.1450
   33MOL0     H 4291   0.055   2.204   4.265 -2.2595  0.1421  1.9494
   33MOL0     H 4292  -0.180   2.225   4.294 -0.4709 -0.0959 -0.4814
   33MOL0     H 4293  -0.390   2.272   4.278 -0.1137  1.0529  1.7558
   33MOL0     H 4294  -0.461   2.265   4.117 -2.2979  1.0338  1.6672
   33MOL0     H 4295  -0.610   2.430   4.144 -1.0517 -1.7992  0.7781
   33MOL0     H 4296  -0.525   2.494   4.296  1.2333  1.8540 -2.4236
   33MOL0     H 4297  -0.597   2.291   4.407 -0.5839  0.0368  1.0147
   33MOL0     H 4298  -0.671   2.231   4.256 -4.0977  0.2940  0.5091
   33MOL0     H 4299  -0.755   2.487   4.386  2.5876 -0.9788 -1.0176
   33MOL0     H 4300  -0.832   2.411   4.240 -0.3089 -1.6793 -0.9651
   33MOL0     H 4301  -0.864   2.306   4.520  0.4626  1.6022 -0.1114
   33MOL0     H 4302  -0.890   2.215   4.371  0.7862 -0.6544  1.7171
   33MOL0     H 4303  -1.051   2.408   4.288 -0.5401 -0.7829  0.2007
   33MOL0     H 4304  -1.018   2.496   4.435 -0.8205 -0.0973  1.1216
   33MOL0     H 4305  -1.148   2.223   4.456  2.1951  0.2071 -0.7581
   33MOL0     H 4306  -1.147   2.359   4.571  4.6765 -0.2669  0.6204
   33MOL0     H 4307  -1.276   2.368   4.298 -0.4014 -3.0238  0.2028
   33MOL0     H 4308  -1.287   2.493   4.417  1.7910 -0.4299  1.7084
   33MOL0     H 4309  -1.362   2.113   4.405  4.1065  3.9674 -1.9295
   33MOL0     H 4310  -1.654   2.041   4.635  0.3741  2.5382  1.1955
   33MOL0     H 4311  -1.529   1.962   4.534  1.9293  1.8983 -8.6195
   33MOL0     H 4312  -1.742   1.892   4.421  0.4706  0.2542  1.6160
   33MOL0     H 4313  -1.673   2.018   4.321  2.4990  0.1976  1.2413
   33MOL0     H 4314  -1.846   2.125   4.535 -0.4796 -0.9748  1.1671
   33MOL0     H 4315  -1.830   2.162   4.362 -2.4732 -0.6286 -0.6044
   33MOL0     H 4316  -1.972   1.928   4.489 -3.2783  1.9207  1.7446
   33MOL0     H 4317  -1.970   1.969   4.308 -0.9329 -0.1322 -0.6442
   33MOL0     H 4318  -2.260   2.235   4.359 -0.3235 -0.1540  1.3479
   33MOL0     H 4319  -2.493   2.183   4.326  3.7133  2.4345  1.7043
   33MOL0     H 4320  -2.828   2.232   4.204 -0.4475  0.7061 -0.0520
   33MOL0     H 4321  -3.048   2.240   4.102  0.7569  0.3669 -0.1337
   33MOL0     H 4322  -3.279   2.208   4.032 -0.4535  1.5129  2.1038
   33MOL0     H 4323  -3.332   2.155   4.188 -0.4388 -4.9473  1.0847
   33MOL0     H 4324  -3.449   1.971   4.022 -0.0066  0.0734 -1.2732
   33MOL0     H 4325  -3.446   2.106   3.913  1.4705 -2.1116 -1.0811
   33MOL0     H 4326  -3.656   2.132   4.042  2.8581  0.7753 -2.7936
   33MOL0     H 4327  -3.547   2.238   4.125  2.9761 -0.0147 -1.2996
   33MOL0     H 4328  -3.549   1.957   4.213  1.9977  1.3157 -3.3305
   33MOL0     H 4329  -3.497   2.097   4.315  3.0442  2.2272 -4.5326
   33MOL0     H 4330  -3.783   2.073   4.223  0.9204  0.8970  0.4329
   33MOL0     H 4331  -3.709   2.176   4.345  0.9836 -0.2990  0.7843
   33MOL0     H 4332  -3.667   1.998   4.493 -0.5394  0.0809  0.3017
   33MOL0     H 4333  -3.724   1.869   4.379 -1.3036 -0.5339 -1.0785
   33MOL0     H 4334  -3.883   2.072   4.540  0.4352  2.2942 -2.3292
   33MOL0     H 4335  -3.943   2.007   4.388 -0.3282  1.2732  1.1431
   33MOL0     H 4336  -3.881   1.772   4.504 -1.2086 -1.4539  1.2331
   33MOL0     H 4337  -4.032   1.856   4.558  0.8096 -1.7058  0.1335
   33MOL0     H 4338  -3.090   1.817   4.186 -1.9594  1.1424 -0.4936
   33MOL0     H 4339  -2.858   1.808   4.254  3.1916  0.7827 -1.9947
   33MOL0     H 4340  -2.412   1.773   4.409  2.5979 -1.8787 -3.5875
   33MOL0     H 4341  -2.168   1.839   4.430  2.5143  1.2477 -2.0389
   33MOL0     H 4342  -0.179   2.521   3.972  1.8953  1.0378  0.3537
   33MOL0     H 4343   0.063   2.489   3.939  0.8959  1.0824  0.7285
   33MOL0     H 4344   0.425   2.196   3.986 -2.1068  0.3254  0.5506
   33MOL0     H 4345   0.668   2.196   3.942  0.3847  0.5989  0.0454
   33MOL0     H 4346   0.938   2.479   4.205 -0.6540  1.5353 -0.6208
   33MOL0     H 4347   0.945   2.521   4.033  3.3034 -0.7194 -1.9880
   33MOL0     H 4348   1.097   2.309   4.012  1.1730  0.9488  0.6110
   33MOL0     H 4349   1.158   2.452   4.097 -1.9817  1.4925  0.5167
   33MOL0     H 4350   1.043   2.220   4.250  1.1080 -1.6353 -3.3078
   33MOL0     H 4351   1.155   2.356   4.304 -2.4514 -1.2274  2.4925
   33MOL0     H 4352   1.328   2.254   4.180 -1.4760  2.4610  0.4375
   33MOL0     H 4353   1.273   2.146   4.312  0.9782  1.7082  0.1252
   33MOL0     H 4354   1.172   1.916   3.974 -1.1719 -0.0168  1.1893
   33MOL0     H 4355   0.710   2.546   4.201  1.9670 -0.8563 -0.6856
   33MOL0     H 4356   0.491   2.567   4.204  1.1184 -0.0059  0.7714
   34MOL0     O 4357   9.650   2.842   0.619 -0.0045 -0.2991 -0.1987
   34MOL0     C 4358   9.702   2.952   0.601  0.3689 -0.0961 -0.2552
   34MOL0     O 4359   9.640   3.065   0.545  0.2989 -0.6268 -1.2172
   34MOL0     C 4360   9.502   3.065   0.518  0.0495 -0.1384  0.2076
   34MOL0     C 4361   9.439   2.962   0.443  0.4987  0.4425 -0.5551
   34MOL0     C 4362   9.300   2.974   0.416  0.3501 -0.2144 -0.0655
   34MOL0     C 4363   9.231   3.091   0.443 -0.8611  0.6015  0.0058
   34MOL0     O 4364   9.091   3.092   0.405 -0.4288  0.1621  0.2234
   34MOL0     C 4365   9.037   3.223   0.372  0.6175  0.0045 -0.1084
   34MOL0     C 4366   8.898   3.218   0.300  0.4807  0.7618  0.0966
   34MOL0     C 4367   8.797   3.129   0.380 -0.1619  0.1443  0.6788
   34MOL0     C 4368   8.647   3.140   0.343  0.2377 -1.2186 -0.1600
   34MOL0     C 4369   8.560   3.019   0.379 -0.1229  0.4641 -0.5590
   34MOL0     C 4370   8.437   3.009   0.280 -0.3978 -0.7759 -0.7003
   34MOL0     C 4371   8.394   2.865   0.301  0.0055 -0.1692  0.9351
   34MOL0     C 4372   8.310   2.835   0.427 -0.1449 -0.0250 -0.2001
   34MOL0     N 4373   8.290   2.688   0.431  0.4141 -0.3941 -0.1434
   34MOL0     C 4374   8.197   2.623   0.348  0.5848  0.1941  0.3367
   34MOL0     C 4375   8.206   2.496   0.392  0.4959  0.3128  0.4047
   34MOL0     C 4376   8.102   2.387   0.349  0.4267 -0.2157 -0.3434
   34MOL0     C 4377   8.155   2.243   0.364  0.0223  0.7352  0.2276
   34MOL0     C 4378   8.057   2.137   0.320  0.4086 -0.5094 -0.0559
   34MOL0     C 4379   8.042   2.121   0.174 -0.5126  0.0409  0.8510
   34MOL0     O 4380   7.949   2.015   0.130  0.3846  0.2589  0.6607
   34MOL0     C 4381   7.819   2.039   0.109  0.1654  0.4478 -0.2463
   34MOL0     C 4382   7.751   2.140   0.182  0.2188  0.0108 -0.1115
   34MOL0     C 4383   7.610   2.160   0.170  0.7460 -0.2819 -0.2324
   34MOL0     C 4384   7.537   2.079   0.075 -0.0598  0.2442  0.2198
   34MOL0     C 4385   7.387   2.086   0.037  0.1324  0.3041 -0.0177
   34MOL0     O 4386   7.323   1.977  -0.003 -0.5898 -0.6044 -1.1665
   34MOL0     C 4387   7.192   1.981  -0.040  0.2881 -0.0889  0.5445
   34MOL0     C 4388   7.086   2.031   0.043 -0.5290 -0.2112  1.0318
   34MOL0     C 4389   6.952   2.002   0.009 -0.2245 -0.1443  0.2588
   34MOL0     C 4390   6.913   1.960  -0.119  0.2257 -0.2177  0.0288
   34MOL0     O 4391   6.780   1.959  -0.147  0.4067 -1.0801  0.0364
   34MOL0     C 4392   6.730   1.979  -0.277 -0.8311 -0.3958  0.1483
   34MOL0     C 4393   6.643   1.861  -0.323 -0.3305 -1.2560 -0.3204
   34MOL0     C 4394   6.519   1.832  -0.236  0.4009 -0.7289  0.3038
   34MOL0     C 4395   6.432   1.952  -0.189  0.3538 -0.1818 -0.1764
   34MOL0     C 4396   6.338   1.898  -0.077  0.1774  0.0184  0.1857
   34MOL0     C 4397   6.251   2.014  -0.027 -0.1712  0.0998 -1.0081
   34MOL0     C 4398   6.334   2.136   0.031 -0.4239 -0.1997 -0.5293
   34MOL0     C 4399   6.425   2.097   0.142  0.0196 -0.3471 -1.2693
   34MOL0    Cl 4400   6.331   2.018   0.284 -0.4093  0.0637  0.5570
   34MOL0     C 4401   7.011   1.932  -0.203 -0.7372  0.1764  0.5816
   34MOL0     C 4402   7.148   1.930  -0.165  0.1701  0.1277 -0.5380
   34MOL0     O 4403   7.334   2.194   0.066 -1.1624 -0.1263  0.2491
   34MOL0     C 4404   7.605   1.975   0.006  0.1017 -0.5616 -0.6736
   34MOL0     C 4405   7.741   1.959   0.025 -0.4078 -0.2655 -0.4109
   34MOL0     N 4406   8.302   2.481   0.488 -0.1037  0.1980 -0.3880
   34MOL0     N 4407   8.347   2.602   0.509  1.0743 -0.0555 -0.0714
   34MOL0     C 4408   9.293   3.190   0.515 -0.5425 -0.0287  0.2398
   34MOL0     C 4409   9.429   3.179   0.550  0.0913  0.2454  0.3308
   34MOL0     C 4410   9.839   2.965   0.645 -0.0763 -0.3487  0.0297
   34MOL0     C 4411   9.915   3.082   0.619  1.1994 -0.3942  0.2380
   34MOL0     C 4412  10.041   3.098   0.672 -0.0610  0.0470  0.4221
   34MOL0     C 4413  10.104   2.990   0.736  0.2815  0.3748  1.0322
   34MOL0     O 4414  10.235   3.017   0.764 -0.4987 -0.2511 -0.7605
   34MOL0     C 4415  10.314   2.948   0.860 -0.3356  0.2116 -0.2434
   34MOL0     C 4416  10.411   2.844   0.797  0.0922 -0.4895  0.3642
   34MOL0     C 4417  10.534   2.919   0.753 -0.0317  0.3897 -0.0670
   34MOL0     C 4418  10.632   2.824   0.675 -0.1980  0.0050  0.2169
   34MOL0     C 4419  10.739   2.906   0.625 -0.2866  1.0242  0.2564
   34MOL0     C 4420  10.830   2.984   0.592 -0.1665  0.1989  0.7948
   34MOL0     C 4421  10.030   2.872   0.765  0.5054  0.4966  0.9466
   34MOL0     C 4422   9.901   2.857   0.710 -0.7328 -0.5599 -0.1012
   34MOL0     H 4423   9.500   2.877   0.415  1.0635  0.6080  0.1395
   34MOL0     H 4424   9.246   2.900   0.358  0.2466  1.6281 -2.4687
   34MOL0     H 4425   9.098   3.288   0.310 -0.8129  0.1496 -1.4161
   34MOL0     H 4426   9.007   3.273   0.464 -4.6157 -0.7381 -1.0619
   34MOL0     H 4427   8.903   3.179   0.198 -0.6759 -2.1317  1.0331
   34MOL0     H 4428   8.853   3.318   0.300 -0.5739  0.2988  0.2015
   34MOL0     H 4429   8.805   3.151   0.487  1.2954  1.3041  0.3589
   34MOL0     H 4430   8.820   3.023   0.364 -1.5137 -0.4329  2.2558
   34MOL0     H 4431   8.617   3.231   0.397 -0.0243  0.1674 -2.5268
   34MOL0     H 4432   8.636   3.151   0.235  0.1378 -1.1406 -0.1423
   34MOL0     H 4433   8.528   3.013   0.483 -0.9773 -1.9822 -0.8818
   34MOL0     H 4434   8.624   2.932   0.361  1.3340  0.7375  2.6275
   34MOL0     H 4435   8.468   3.023   0.176 -2.5799  0.6746 -1.2335
   34MOL0     H 4436   8.354   3.076   0.304 -0.6635 -1.4455  0.2719
   34MOL0     H 4437   8.340   2.828   0.214  0.6956  1.1604 -0.0864
   34MOL0     H 4438   8.480   2.798   0.306  1.2833  1.4679  2.8150
   34MOL0     H 4439   8.214   2.887   0.422  0.2243  0.8802  1.2897
   34MOL0     H 4440   8.362   2.873   0.516 -0.6009 -1.3877  0.6759
   34MOL0     H 4441   8.124   2.658   0.277  0.2887 -0.4126  0.3369
   34MOL0     H 4442   8.067   2.410   0.248  3.4941  1.8840 -1.0699
   34MOL0     H 4443   8.016   2.396   0.417  0.9082 -2.3809  0.6258
   34MOL0     H 4444   8.174   2.222   0.470 -0.2784 -1.0888 -0.0386
   34MOL0     H 4445   8.252   2.227   0.315  0.6128  0.1860  1.5137
   34MOL0     H 4446   8.074   2.037   0.360 -2.2138 -0.1856  2.1897
   34MOL0     H 4447   7.963   2.161   0.371  1.3598  0.3199  1.3966
   34MOL0     H 4448   8.136   2.085   0.130 -1.8824 -1.4303 -1.0701
   34MOL0     H 4449   8.018   2.216   0.124 -0.5900 -1.7638 -2.9279
   34MOL0     H 4450   7.807   2.200   0.252  1.8433 -1.1304 -0.3870
   34MOL0     H 4451   7.553   2.230   0.231  3.4177  0.4586  1.5385
   34MOL0     H 4452   7.104   2.087   0.134  0.4703  0.3584  0.4968
   34MOL0     H 4453   6.870   2.039   0.069 -1.9646 -1.8497 -0.9462
   34MOL0     H 4454   6.809   1.993  -0.351  0.9362 -3.3679  1.2733
   34MOL0     H 4455   6.661   2.063  -0.277  0.0555  0.3623 -1.3769
   34MOL0     H 4456   6.710   1.774  -0.325  1.0303 -0.2467 -0.4827
   34MOL0     H 4457   6.608   1.863  -0.426  0.1112 -4.2026 -0.6161
   34MOL0     H 4458   6.546   1.774  -0.147  2.5669  1.3322  1.1140
   34MOL0     H 4459   6.443   1.783  -0.297 -0.2220 -1.2134  1.4217
   34MOL0     H 4460   6.503   2.022  -0.143  0.5419 -2.4665  3.3590
   34MOL0     H 4461   6.386   2.002  -0.274 -1.7176  0.7869  1.4249
   34MOL0     H 4462   6.390   1.850   0.007 -0.2718  1.8198  1.5570
   34MOL0     H 4463   6.283   1.818  -0.126  1.9854  0.1592 -2.2536
   34MOL0     H 4464   6.187   1.987   0.057  1.6891  1.3908  0.9588
   34MOL0     H 4465   6.189   2.054  -0.107  1.2455  3.2654 -0.6941
   34MOL0     H 4466   6.381   2.190  -0.051 -2.4555  0.0907 -1.5805
   34MOL0     H 4467   6.267   2.218   0.059  0.1479 -0.1680  0.8027
   34MOL0     H 4468   6.465   2.187   0.190  0.5686 -1.0577 -0.3541
   34MOL0     H 4469   6.500   2.030   0.100  2.7254  2.3691 -1.1371
   34MOL0     H 4470   7.000   1.892  -0.304 -0.5087 -0.2062  0.7031
   34MOL0     H 4471   7.214   1.887  -0.240 -0.0131 -0.9941 -0.0848
   34MOL0     H 4472   7.557   1.906  -0.063 -1.5821 -0.0749 -0.0645
   34MOL0     H 4473   7.787   1.876  -0.028  1.1909 -1.0698  2.0775
   34MOL0     H 4474   9.241   3.274   0.559  0.1404  0.4000  0.2492
   34MOL0     H 4475   9.482   3.252   0.610  0.7881 -1.3395  1.7032
   34MOL0     H 4476   9.885   3.156   0.546 -0.8924 -1.6018 -0.2052
   34MOL0     H 4477  10.099   3.183   0.636  0.8030 -1.2190 -1.3218
   34MOL0     H 4478  10.251   2.897   0.934  2.8052 -1.6072  1.3971
   34MOL0     H 4479  10.375   3.022   0.910  3.9097 -1.9474 -1.7133
   34MOL0     H 4480  10.437   2.766   0.869  1.1956 -0.2737  0.2099
   34MOL0     H 4481  10.371   2.785   0.714 -0.0792  0.7785 -0.4718
   34MOL0     H 4482  10.590   2.945   0.843  0.5451 -1.5070  0.1678
   34MOL0     H 4483  10.515   3.004   0.687 -3.6985  0.4593  0.8674
   34MOL0     H 4484  10.685   2.749   0.735  3.3505 -1.0402 -3.7516
   34MOL0     H 4485  10.579   2.778   0.591  0.3552  0.3876 -0.3452
   34MOL0     H 4486  10.913   3.040   0.553 -0.2610  1.8610  2.8243
   34MOL0     H 4487  10.089   2.795   0.813  2.8076  0.4622 -1.7079
   34MOL0     H 4488   9.847   2.763   0.724 -1.5266  0.1306  1.9066
   35MOL0     O 4489   0.200   5.334   7.839 -0.2544 -0.3645 -0.0770
   35MOL0     C 4490   0.253   5.323   7.951  0.6382 -1.1405 -0.2115
   35MOL0     O 4491   0.191   5.318   8.068  0.2673  0.6771  0.3656
   35MOL0     C 4492   0.049   5.295   8.061  0.1714  0.5077 -0.2374
   35MOL0     C 4493  -0.006   5.196   7.979  0.0776 -0.0130 -0.2781
   35MOL0     C 4494  -0.140   5.177   7.952  0.4059  0.0225 -0.0250
   35MOL0     C 4495  -0.233   5.263   8.008  0.3549 -0.5343  0.2753
   35MOL0     O 4496  -0.365   5.243   7.987 -0.1986 -0.4227 -0.0646
   35MOL0     C 4497  -0.428   5.140   8.070 -0.2605  0.9206 -0.6903
   35MOL0     C 4498  -0.565   5.098   8.004 -0.1848  0.0799  0.5915
   35MOL0     C 4499  -0.663   5.218   8.025  0.6562 -0.1087 -1.0905
   35MOL0     C 4500  -0.805   5.163   7.994 -0.1472  0.3191  0.9610
   35MOL0     C 4501  -0.916   5.267   8.000  0.9342 -0.2201  0.4484
   35MOL0     C 4502  -1.062   5.212   7.971  0.2396  0.2899  0.4357
   35MOL0     C 4503  -1.175   5.316   7.983 -0.6171 -0.3420 -1.0324
   35MOL0     C 4504  -1.313   5.261   8.018  0.3198 -0.6939 -0.7480
   35MOL0     N 4505  -1.378   5.206   7.898 -0.4109 -0.3500 -0.4649
   35MOL0     C 4506  -1.512   5.170   7.902  0.5019 -1.0241 -0.2310
   35MOL0     C 4507  -1.537   5.089   7.795  0.5945  0.5514  1.1278
   35MOL0     C 4508  -1.663   5.018   7.748 -0.6941 -0.9415  0.5269
   35MOL0     C 4509  -1.699   5.019   7.596 -0.1474 -0.0413 -0.7534
   35MOL0     C 4510  -1.819   4.924   7.552 -0.4175 -0.0290  0.4892
   35MOL0     C 4511  -1.951   4.992   7.591  0.1654  0.2792  0.0045
   35MOL0     O 4512  -2.053   4.896   7.556 -0.2382  0.3577  0.4733
   35MOL0     C 4513  -2.098   4.821   7.655  0.4632 -0.2689 -0.2362
   35MOL0     C 4514  -2.220   4.765   7.615 -0.0099  0.7787  0.1504
   35MOL0     C 4515  -2.280   4.674   7.703 -0.8373 -0.0450  0.3711
   35MOL0     C 4516  -2.215   4.636   7.821  0.4698  0.0138 -0.7092
   35MOL0     C 4517  -2.276   4.547   7.918  0.5261 -0.7706  0.1701
   35MOL0     O 4518  -2.385   4.474   7.862  0.0106 -0.1797  0.2449
   35MOL0     C 4519  -2.443   4.371   7.925  0.3173 -0.6205 -0.4623
   35MOL0     C 4520  -2.377   4.285   8.010 -0.3863 -0.2502  0.1619
   35MOL0     C 4521  -2.440   4.170   8.058  0.1016  0.1899 -0.6355
   35MOL0     C 4522  -2.566   4.128   8.022  0.3677 -1.1595 -0.6612
   35MOL0     O 4523  -2.626   4.011   8.054  0.0776 -0.1779  0.5748
   35MOL0     C 4524  -2.563   3.920   8.149 -0.0851  0.5361  0.1983
   35MOL0     C 4525  -2.656   3.801   8.158  0.2242  0.1059  0.6510
   35MOL0     C 4526  -2.667   3.734   8.024  0.0463  0.5066  0.6123
   35MOL0     C 4527  -2.764   3.617   8.040  0.5147 -1.4586 -0.1732
   35MOL0     C 4528  -2.823   3.570   7.905 -0.5369 -0.0677 -1.1130
   35MOL0     C 4529  -2.936   3.460   7.923 -0.4867 -0.5289 -0.3059
   35MOL0     C 4530  -2.928   3.358   7.811 -0.2238 -0.4518  0.5201
   35MOL0     C 4531  -3.042   3.246   7.808 -0.2296  0.0486 -0.2582
   35MOL0    Cl 4532  -3.014   3.131   7.953 -0.5545 -0.0940 -0.0883
   35MOL0     C 4533  -2.629   4.212   7.936  0.3717  0.2919  0.7426
   35MOL0     C 4534  -2.573   4.336   7.891 -0.3465  0.2008  0.6561
   35MOL0     O 4535  -2.235   4.550   8.032 -0.1061 -0.4973 -0.1289
   35MOL0     C 4536  -2.092   4.697   7.859  0.9934  0.6225 -0.0766
   35MOL0     C 4537  -2.033   4.794   7.778  0.3846  0.2749 -0.3616
   35MOL0     N 4538  -1.410   5.063   7.739 -0.1826 -0.0336 -0.3998
   35MOL0     N 4539  -1.322   5.136   7.792 -0.7022 -0.4256  0.2032
   35MOL0     C 4540  -0.178   5.363   8.092  0.1342 -0.3005 -0.3462
   35MOL0     C 4541  -0.041   5.373   8.128  0.3623 -0.3305 -0.1211
   35MOL0     C 4542   0.403   5.317   7.947 -0.6268  0.4770  0.7715
   35MOL0     C 4543   0.483   5.366   7.845 -0.2070 -0.1440 -0.3952
   35MOL0     C 4544   0.624   5.377   7.857 -0.3395  0.2223  0.2820
   35MOL0     C 4545   0.687   5.320   7.959  0.3503 -0.1788 -0.0306
   35MOL0     O 4546   0.815   5.343   7.963  0.3286 -0.1432 -0.0961
   35MOL0     C 4547   0.890   5.273   7.865 -0.2638 -0.8367 -1.3300
   35MOL0     C 4548   1.011   5.216   7.935 -0.1422  0.2668  0.9863
   35MOL0     C 4549   1.098   5.318   8.009  0.9268  0.9735  1.7592
   35MOL0     C 4550   1.229   5.261   8.056 -0.3928  0.0350  0.3819
   35MOL0     C 4551   1.316   5.264   7.941  0.1529  0.8658  0.6529
   35MOL0     C 4552   1.391   5.254   7.844  0.5788 -0.2406  0.4075
   35MOL0     C 4553   0.617   5.256   8.054 -0.2853 -0.0973 -1.0501
   35MOL0     C 4554   0.479   5.249   8.050  0.3276 -0.4520  0.8143
   35MOL0     H 4555   0.068   5.134   7.930  0.1378 -0.5635  0.5024
   35MOL0     H 4556  -0.162   5.096   7.883  2.5914 -0.4074 -0.3022
   35MOL0     H 4557  -0.451   5.173   8.172 -0.3324 -0.5505 -0.2205
   35MOL0     H 4558  -0.373   5.046   8.075  1.5425  1.9298 -0.9149
   35MOL0     H 4559  -0.602   5.005   8.049  2.5772 -0.5885  1.6609
   35MOL0     H 4560  -0.551   5.083   7.896 -1.4658 -0.0051  0.4226
   35MOL0     H 4561  -0.641   5.306   7.964 -3.2533  1.2979 -0.7203
   35MOL0     H 4562  -0.660   5.242   8.131  5.9922 -0.6013 -0.8638
   35MOL0     H 4563  -0.813   5.121   7.894  0.0600  3.4249 -0.4742
   35MOL0     H 4564  -0.834   5.090   8.070  0.2443 -0.9160 -0.0401
   35MOL0     H 4565  -0.887   5.339   7.923  1.6744 -1.3540 -0.3685
   35MOL0     H 4566  -0.915   5.318   8.097 -1.9193 -1.0759  1.0254
   35MOL0     H 4567  -1.084   5.126   8.035  1.0157  2.1626  3.4484
   35MOL0     H 4568  -1.058   5.179   7.867  1.4917  2.6838 -0.3538
   35MOL0     H 4569  -1.152   5.381   8.067  1.0351 -1.9267 -0.1908
   35MOL0     H 4570  -1.182   5.370   7.888  1.6755 -1.6893 -2.0433
   35MOL0     H 4571  -1.361   5.349   8.062  0.0959 -1.7007  1.1653
   35MOL0     H 4572  -1.300   5.184   8.095  3.0162  0.7712  0.3961
   35MOL0     H 4573  -1.585   5.191   7.980  0.8857 -1.6016  0.2912
   35MOL0     H 4574  -1.749   5.063   7.798  0.6397  2.3203  0.1243
   35MOL0     H 4575  -1.644   4.917   7.786 -0.5016 -0.1212  2.7523
   35MOL0     H 4576  -1.610   4.989   7.539 -2.0360 -2.1554 -2.8866
   35MOL0     H 4577  -1.708   5.123   7.564 -0.9733  0.2173  0.2893
   35MOL0     H 4578  -1.815   4.912   7.444  0.4646 -0.9154  0.6033
   35MOL0     H 4579  -1.809   4.825   7.597 -2.5927 -1.0927 -1.2180
   35MOL0     H 4580  -1.963   5.078   7.524  0.9378 -0.8742 -1.6840
   35MOL0     H 4581  -1.961   5.032   7.692 -0.8212 -1.4869  0.6553
   35MOL0     H 4582  -2.266   4.781   7.518  0.6717 -0.6489 -0.4530
   35MOL0     H 4583  -2.371   4.635   7.660 -1.6517  3.3568 -1.2629
   35MOL0     H 4584  -2.277   4.315   8.041 -0.7305  0.8391  0.2509
   35MOL0     H 4585  -2.383   4.112   8.130 -0.4388  3.0998  2.3224
   35MOL0     H 4586  -2.557   3.980   8.241 -0.4299  1.2249 -0.2141
   35MOL0     H 4587  -2.462   3.888   8.127 -0.0550  1.4204 -1.0315
   35MOL0     H 4588  -2.751   3.833   8.202 -0.1229 -0.0724  0.0447
   35MOL0     H 4589  -2.620   3.739   8.241 -2.0263 -1.0553  0.8204
   35MOL0     H 4590  -2.571   3.692   7.995 -0.4407 -0.0688 -0.2324
   35MOL0     H 4591  -2.696   3.798   7.940 -1.1211 -0.5379  0.1734
   35MOL0     H 4592  -2.715   3.534   8.093  1.2356 -1.1548 -0.3470
   35MOL0     H 4593  -2.838   3.660   8.108  0.7179  0.9123 -1.3537
   35MOL0     H 4594  -2.743   3.538   7.838 -1.4965 -1.5604 -1.5893
   35MOL0     H 4595  -2.871   3.659   7.864 -1.8163  0.8437  2.0196
   35MOL0     H 4596  -3.031   3.513   7.928 -0.3032 -0.1699 -0.6148
   35MOL0     H 4597  -2.925   3.407   8.019 -0.2802 -1.5644 -0.8824
   35MOL0     H 4598  -2.931   3.409   7.714 -0.1454  1.0978  1.3101
   35MOL0     H 4599  -2.831   3.307   7.819 -0.3821 -0.9595 -0.5658
   35MOL0     H 4600  -3.036   3.191   7.713 -1.3053 -0.2160 -0.1859
   35MOL0     H 4601  -3.136   3.301   7.800 -0.2745 -0.2612 -3.2689
   35MOL0     H 4602  -2.725   4.181   7.895  0.7594  0.2095 -0.1185
   35MOL0     H 4603  -2.620   4.392   7.811  4.3715  1.1867 -1.7825
   35MOL0     H 4604  -2.047   4.675   7.955 -0.7303 -0.9551  0.4349
   35MOL0     H 4605  -1.943   4.842   7.815 -0.1375  1.2269 -0.2962
   35MOL0     H 4606  -0.250   5.429   8.140  1.0022  0.3929  0.0402
   35MOL0     H 4607  -0.012   5.447   8.202 -0.5867  0.5588 -0.6138
   35MOL0     H 4608   0.434   5.408   7.758 -1.5527 -2.8437 -1.0743
   35MOL0     H 4609   0.686   5.433   7.788  0.2765 -0.3232  0.3822
   35MOL0     H 4610   0.917   5.357   7.800  1.9588  1.4765  2.3025
   35MOL0     H 4611   0.832   5.206   7.800 -1.2026 -0.2657 -1.1035
   35MOL0     H 4612   0.975   5.135   8.000 -0.7255  1.5786  2.3685
   35MOL0     H 4613   1.068   5.168   7.855  0.0294  0.8394  0.7638
   35MOL0     H 4614   1.049   5.365   8.095  2.1898  0.5540  2.7465
   35MOL0     H 4615   1.112   5.401   7.939 -3.8830  1.1505  0.6089
   35MOL0     H 4616   1.264   5.332   8.131 -0.7373  0.2644  0.3310
   35MOL0     H 4617   1.227   5.159   8.097 -0.9861  0.6433  1.9240
   35MOL0     H 4618   1.459   5.242   7.762 -1.3615  0.5457 -1.4095
   35MOL0     H 4619   0.675   5.207   8.131 -2.6087 -1.5777 -0.1112
   35MOL0     H 4620   0.425   5.197   8.129 -0.4167 -3.0350 -1.2706
   36MOL0     O 4621   8.243   3.422   1.152  0.2324 -0.1722  0.7340
   36MOL0     C 4622   8.287   3.315   1.112  0.5926  0.3408 -0.9337
   36MOL0     O 4623   8.203   3.209   1.084 -0.0336  0.5732 -0.0788
   36MOL0     C 4624   8.066   3.212   1.117 -0.2462  0.1725 -1.1303
   36MOL0     C 4625   8.014   3.105   1.190  0.8411 -0.3558 -0.2570
   36MOL0     C 4626   7.876   3.095   1.208 -0.5519  0.3822  0.7187
   36MOL0     C 4627   7.789   3.180   1.136 -0.4171  0.2156 -0.2147
   36MOL0     O 4628   7.655   3.177   1.128  0.2370  0.3386  0.3046
   36MOL0     C 4629   7.589   3.092   1.226  0.6097 -0.0447  0.4293
   36MOL0     C 4630   7.441   3.094   1.173  0.7913  0.4990 -0.4999
   36MOL0     C 4631   7.356   3.004   1.251  0.6168  0.9340  0.1679
   36MOL0     C 4632   7.309   3.066   1.379 -0.0211  0.7313  0.1398
   36MOL0     C 4633   7.177   2.994   1.430  0.3220 -0.5861  0.7027
   36MOL0     C 4634   7.191   2.845   1.465 -0.3211 -1.2063  0.6756
   36MOL0     C 4635   7.304   2.805   1.567  0.8160  0.5586 -1.8188
   36MOL0     C 4636   7.279   2.864   1.712 -0.3848  0.4370 -0.0456
   36MOL0     N 4637   7.392   2.831   1.808 -0.9398  0.1119 -0.8882
   36MOL0     C 4638   7.524   2.875   1.808  0.5637  0.1431  0.1651
   36MOL0     C 4639   7.577   2.825   1.921 -0.7779  0.1214 -0.2172
   36MOL0     C 4640   7.718   2.843   1.990 -0.1943  0.9845 -0.5059
   36MOL0     C 4641   7.737   2.712   2.082  0.1151 -0.2980 -0.2203
   36MOL0     C 4642   7.807   2.717   2.215  0.0336  0.2146  0.3294
   36MOL0     C 4643   7.949   2.770   2.220  0.1628  0.1755  0.4525
   36MOL0     O 4644   7.975   2.770   2.360 -0.4991 -0.5652  0.1007
   36MOL0     C 4645   8.109   2.757   2.396 -0.6899  0.2531 -0.0706
   36MOL0     C 4646   8.130   2.726   2.532 -0.5745 -0.3052 -0.0376
   36MOL0     C 4647   8.266   2.711   2.571  0.8309 -0.1207 -0.0709
   36MOL0     C 4648   8.376   2.726   2.484  0.4051 -0.0760 -0.7652
   36MOL0     C 4649   8.517   2.699   2.537  0.5042 -0.1942  0.5032
   36MOL0     O 4650   8.531   2.728   2.664  0.8037 -0.1427 -0.5461
   36MOL0     C 4651   8.641   2.702   2.740 -1.3328  0.1140  0.5920
   36MOL0     C 4652   8.766   2.748   2.704  0.4561 -0.5302 -0.3031
   36MOL0     C 4653   8.881   2.716   2.773 -0.3959  0.0000  0.5972
   36MOL0     C 4654   8.880   2.629   2.879  0.3911  0.0307 -0.7053
   36MOL0     O 4655   9.006   2.596   2.931  0.5600  0.1785  0.2042
   36MOL0     C 4656   9.007   2.509   3.055  0.0892  0.4669 -0.8158
   36MOL0     C 4657   9.147   2.508   3.116  0.5395  0.7641 -0.0199
   36MOL0     C 4658   9.253   2.459   3.013 -0.2649 -0.2307  0.1338
   36MOL0     C 4659   9.389   2.451   3.082 -0.0783  0.1130 -0.5031
   36MOL0     C 4660   9.502   2.426   2.993 -0.2906 -0.8048 -0.5144
   36MOL0     C 4661   9.637   2.389   3.073  0.1609 -0.6211  0.9014
   36MOL0     C 4662   9.648   2.252   3.133 -0.6572  0.6922 -0.0133
   36MOL0     C 4663   9.784   2.213   3.196  0.0142 -0.2496 -0.1392
   36MOL0    Cl 4664   9.914   2.219   3.074 -0.3283 -0.0763  0.4123
   36MOL0     C 4665   8.758   2.576   2.918  0.0788 -0.7144 -0.2401
   36MOL0     C 4666   8.644   2.619   2.855  0.6649  0.0719 -0.0891
   36MOL0     O 4667   8.604   2.678   2.453  0.0510 -0.6623 -0.6046
   36MOL0     C 4668   8.353   2.756   2.352  0.4188  0.4815 -1.3176
   36MOL0     C 4669   8.220   2.773   2.304 -0.8351  0.7836  0.5856
   36MOL0     N 4670   7.476   2.764   1.989  0.5662 -1.0884 -0.0828
   36MOL0     N 4671   7.364   2.758   1.923  0.7258  0.0862 -0.0148
   36MOL0     C 4672   7.841   3.280   1.063 -0.0273 -0.2146  0.1126
   36MOL0     C 4673   7.977   3.306   1.055  0.6427  0.4307  0.1492
   36MOL0     C 4674   8.435   3.292   1.104 -0.5544  0.6883  0.3315
   36MOL0     C 4675   8.526   3.400   1.092 -0.1859 -0.0102  0.6898
   36MOL0     C 4676   8.662   3.374   1.085 -0.5711 -0.2215 -0.4510
   36MOL0     C 4677   8.717   3.242   1.083  0.2628  0.1766  0.1777
   36MOL0     O 4678   8.847   3.216   1.071 -0.9422  0.2890 -0.8743
   36MOL0     C 4679   8.902   3.088   1.115 -0.3438  0.2849  0.1569
   36MOL0     C 4680   9.055   3.096   1.104  0.5671  0.0340 -0.0105
   36MOL0     C 4681   9.110   3.214   1.189 -0.2990 -0.1771 -0.4758
   36MOL0     C 4682   9.262   3.210   1.194 -0.4617  0.3903  0.2717
   36MOL0     C 4683   9.324   3.082   1.239 -0.0248 -0.0522  0.9625
   36MOL0     C 4684   9.375   2.978   1.264  0.0848  0.7959  0.9624
   36MOL0     C 4685   8.618   3.137   1.092 -0.4667  0.3925 -0.6351
   36MOL0     C 4686   8.484   3.161   1.103 -0.0503 -0.0926 -0.0388
   36MOL0     H 4687   8.086   3.035   1.231  0.5596  0.2510  1.3604
   36MOL0     H 4688   7.840   3.021   1.277  1.8127  0.1503  1.7947
   36MOL0     H 4689   7.604   3.130   1.328 -2.0539  0.7434  0.6155
   36MOL0     H 4690   7.626   2.990   1.215 -1.2020 -0.7312  0.3464
   36MOL0     H 4691   7.445   3.052   1.072 -2.2133 -0.6113 -0.2596
   36MOL0     H 4692   7.397   3.195   1.173 -0.8998 -0.2012 -1.2289
   36MOL0     H 4693   7.406   2.909   1.268  2.7021  1.9851  0.2714
   36MOL0     H 4694   7.269   2.989   1.187  0.0558  0.6116  0.9987
   36MOL0     H 4695   7.390   3.054   1.451  0.6918 -4.2250 -1.1589
   36MOL0     H 4696   7.286   3.172   1.359 -2.9675  0.0737 -0.4060
   36MOL0     H 4697   7.096   3.018   1.361  0.4358  0.3792  0.8922
   36MOL0     H 4698   7.153   3.045   1.523 -2.6968  0.7094 -0.6742
   36MOL0     H 4699   7.216   2.794   1.371  3.1638 -0.8429  1.3014
   36MOL0     H 4700   7.091   2.816   1.500  0.2645  0.4746  4.1633
   36MOL0     H 4701   7.301   2.698   1.591 -3.8375  0.8811  0.1510
   36MOL0     H 4702   7.400   2.831   1.521  0.2876  1.3915 -2.4652
   36MOL0     H 4703   7.189   2.810   1.742 -0.4405  1.1388  1.1276
   36MOL0     H 4704   7.257   2.971   1.705 -0.4925  0.5350  1.5156
   36MOL0     H 4705   7.567   2.940   1.733 -0.6561  1.0581  0.2478
   36MOL0     H 4706   7.721   2.935   2.050 -1.2346  0.6291  0.1219
   36MOL0     H 4707   7.795   2.861   1.915 -2.0476  1.3448 -2.3904
   36MOL0     H 4708   7.777   2.630   2.022  2.9384  1.7641 -1.4040
   36MOL0     H 4709   7.639   2.671   2.107  0.2114 -2.4181 -2.8597
   36MOL0     H 4710   7.752   2.781   2.284  1.1321  0.9479  0.5521
   36MOL0     H 4711   7.807   2.621   2.268  0.4445  1.1783  2.1493
   36MOL0     H 4712   7.961   2.872   2.182 -2.4996  0.2212 -0.4936
   36MOL0     H 4713   8.009   2.703   2.157  0.0057 -0.5495  1.0591
   36MOL0     H 4714   8.050   2.709   2.603 -0.6526  3.2895  0.9424
   36MOL0     H 4715   8.279   2.706   2.679 -2.3095 -0.7482  0.3934
   36MOL0     H 4716   8.774   2.825   2.628 -2.8479  0.4992  0.2055
   36MOL0     H 4717   8.971   2.773   2.754 -0.1313 -0.2203  1.1376
   36MOL0     H 4718   8.982   2.407   3.024 -0.8782  1.1879 -2.5869
   36MOL0     H 4719   8.936   2.534   3.135 -1.7134 -4.0003 -0.7509
   36MOL0     H 4720   9.154   2.440   3.200  0.5154  1.2641  0.3919
   36MOL0     H 4721   9.181   2.602   3.161  1.2126  0.6025 -0.1924
   36MOL0     H 4722   9.248   2.531   2.931 -1.6676  0.9400  1.1766
   36MOL0     H 4723   9.226   2.359   2.977 -0.6824 -0.7703  1.8292
   36MOL0     H 4724   9.396   2.546   3.136  1.1978 -0.9633  1.3652
   36MOL0     H 4725   9.389   2.376   3.161  1.4716  0.2504 -0.3510
   36MOL0     H 4726   9.518   2.510   2.924  0.0916  1.5442  2.2026
   36MOL0     H 4727   9.497   2.338   2.929 -1.2606 -1.7991  0.8792
   36MOL0     H 4728   9.643   2.463   3.153  3.3527  1.3093 -0.8995
   36MOL0     H 4729   9.726   2.410   3.012  0.1073  2.6897  1.7890
   36MOL0     H 4730   9.568   2.237   3.206  1.3874 -2.2900  1.8713
   36MOL0     H 4731   9.621   2.181   3.054 -0.1962  0.0172  0.4182
   36MOL0     H 4732   9.760   2.118   3.243  2.9636 -0.9082  0.2246
   36MOL0     H 4733   9.813   2.283   3.275  1.0345  0.7823 -1.3803
   36MOL0     H 4734   8.760   2.503   2.998 -1.1867 -1.3287 -0.7369
   36MOL0     H 4735   8.554   2.571   2.892 -0.8461  2.3107 -0.6310
   36MOL0     H 4736   8.437   2.737   2.287 -0.6894  0.4781 -2.7964
   36MOL0     H 4737   8.207   2.795   2.199 -0.2758 -1.9300 -0.1176
   36MOL0     H 4738   7.780   3.359   1.021  3.0327  1.7697 -0.9354
   36MOL0     H 4739   8.021   3.395   1.010 -0.6996  0.8311 -0.4201
   36MOL0     H 4740   8.486   3.501   1.088  1.9419  0.8825 -3.1152
   36MOL0     H 4741   8.736   3.452   1.070  1.1054 -0.9472  3.0246
   36MOL0     H 4742   8.867   3.006   1.053  2.1399 -0.3534 -0.5030
   36MOL0     H 4743   8.866   3.078   1.218 -2.3027 -1.6345 -0.6444
   36MOL0     H 4744   9.101   2.998   1.124  0.4246 -0.4745 -2.0248
   36MOL0     H 4745   9.082   3.117   1.001  0.3097  0.7128  0.0614
   36MOL0     H 4746   9.059   3.215   1.286  1.4495 -0.1796  0.4784
   36MOL0     H 4747   9.082   3.303   1.132  0.7129 -0.8256 -2.0425
   36MOL0     H 4748   9.295   3.232   1.092 -2.2015 -1.5366 -0.7928
   36MOL0     H 4749   9.301   3.295   1.251  3.5394 -0.9115 -0.1933
   36MOL0     H 4750   9.413   2.879   1.275 -0.2827  0.5215 -0.1663
   36MOL0     H 4751   8.650   3.033   1.094  0.8763  0.7692 -1.3741
   36MOL0     H 4752   8.405   3.087   1.109 -1.6845  1.6531  1.0942
   37MOL0     O 4753   2.059   7.252   3.666 -0.3150  0.0336  0.1645
   37MOL0     C 4754   2.070   7.338   3.755 -0.2793  0.6960  0.1718
   37MOL0     O 4755   1.971   7.381   3.847  0.5944  0.6174 -0.2955
   37MOL0     C 4756   1.842   7.352   3.812  0.3588 -0.0082  0.6578
   37MOL0     C 4757   1.754   7.458   3.839 -0.2837 -0.3521  1.0945
   37MOL0     C 4758   1.622   7.444   3.821  0.9838  0.0517 -0.1545
   37MOL0     C 4759   1.566   7.323   3.791  0.0738  0.3425  0.0815
   37MOL0     O 4760   1.427   7.290   3.770  0.5082 -0.0902  0.5294
   37MOL0     C 4761   1.322   7.380   3.823  0.0510  0.5336  0.1567
   37MOL0     C 4762   1.185   7.321   3.779  0.1887  0.3556  0.4019
   37MOL0     C 4763   1.068   7.410   3.812 -0.2107 -1.0472 -0.0426
   37MOL0     C 4764   0.949   7.393   3.724  0.2668 -0.0781  0.4570
   37MOL0     C 4765   0.852   7.291   3.768 -0.0697  0.4365 -0.1850
   37MOL0     C 4766   0.719   7.292   3.682 -0.4117  0.3702 -0.0278
   37MOL0     C 4767   0.614   7.196   3.724 -1.4468 -0.5676 -0.3391
   37MOL0     C 4768   0.476   7.234   3.669 -0.2120 -0.1867 -0.6135
   37MOL0     N 4769   0.462   7.216   3.521 -0.0590  0.1551 -0.6479
   37MOL0     C 4770   0.485   7.314   3.437  1.0772 -0.3611  0.1823
   37MOL0     C 4771   0.477   7.257   3.316 -0.9826  0.5825  0.7261
   37MOL0     C 4772   0.517   7.327   3.190  0.1109 -0.3922  0.3298
   37MOL0     C 4773   0.385   7.371   3.123  1.0506  0.3029  0.2607
   37MOL0     C 4774   0.299   7.250   3.071  0.5296  0.8265  0.7035
   37MOL0     C 4775   0.178   7.302   2.988  0.0235 -0.8092 -0.6350
   37MOL0     O 4776   0.083   7.210   2.940 -0.6243  0.6605 -0.4974
   37MOL0     C 4777  -0.054   7.240   2.951 -0.0129 -0.6950 -1.1660
   37MOL0     C 4778  -0.146   7.152   3.007 -1.1216 -0.3322  0.9722
   37MOL0     C 4779  -0.285   7.176   3.003  0.9190 -0.3581  0.0528
   37MOL0     C 4780  -0.336   7.299   2.957  0.1045 -0.4154 -0.5797
   37MOL0     C 4781  -0.478   7.325   2.970  0.3672  0.2192  0.0618
   37MOL0     O 4782  -0.557   7.228   3.019 -0.0401  0.6055  0.6829
   37MOL0     C 4783  -0.689   7.246   3.046  0.5454 -0.5204 -0.0965
   37MOL0     C 4784  -0.743   7.252   3.174  0.6251  0.0379 -1.1830
   37MOL0     C 4785  -0.882   7.276   3.203  0.5599 -0.5528 -0.2946
   37MOL0     C 4786  -0.969   7.284   3.091  0.1470  0.3561  0.2985
   37MOL0     O 4787  -1.105   7.291   3.107 -0.3707 -0.2567 -0.0772
   37MOL0     C 4788  -1.146   7.368   3.223  0.1886 -0.7499  0.5183
   37MOL0     C 4789  -1.297   7.433   3.208 -0.2110 -1.2200 -0.8984
   37MOL0     C 4790  -1.307   7.525   3.086  0.3980  0.4090  1.1173
   37MOL0     C 4791  -1.448   7.497   3.012  0.3960  0.2738  0.1733
   37MOL0     C 4792  -1.485   7.609   2.908 -0.1283  0.5444 -1.0286
   37MOL0     C 4793  -1.389   7.618   2.792 -0.4236 -0.2011 -0.1944
   37MOL0     C 4794  -1.420   7.509   2.683  0.0263  0.2660 -0.4734
   37MOL0     C 4795  -1.343   7.521   2.549  0.1732 -0.4078  0.1991
   37MOL0    Cl 4796  -1.362   7.378   2.454  0.4929  0.5286  0.2149
   37MOL0     C 4797  -0.921   7.266   2.970  0.7354  0.4531  0.3468
   37MOL0     C 4798  -0.784   7.258   2.943  0.2525 -0.8525 -0.6750
   37MOL0     O 4799  -0.516   7.436   2.937  0.4428 -0.3268 -0.7987
   37MOL0     C 4800  -0.246   7.394   2.910 -0.5569 -0.1132  0.0851
   37MOL0     C 4801  -0.105   7.363   2.905 -0.1046  0.5463  0.6939
   37MOL0     N 4802   0.469   7.121   3.333  0.7356  0.1285 -0.1234
   37MOL0     N 4803   0.447   7.102   3.455 -0.8154  1.3968 -0.2463
   37MOL0     C 4804   1.653   7.220   3.757 -0.5829  0.3337 -0.0890
   37MOL0     C 4805   1.793   7.230   3.763  0.2318  0.8637 -0.4726
   37MOL0     C 4806   2.190   7.418   3.767 -0.0942 -0.4989 -0.2423
   37MOL0     C 4807   2.175   7.560   3.805 -0.6016 -0.0465 -0.5418
   37MOL0     C 4808   2.300   7.633   3.811  0.3379  0.1059 -0.4738
   37MOL0     C 4809   2.423   7.567   3.784 -0.1503 -0.6951  0.2252
   37MOL0     O 4810   2.543   7.639   3.794  0.7301 -0.3615 -0.3161
   37MOL0     C 4811   2.584   7.689   3.924  0.7101 -0.2874  0.3209
   37MOL0     C 4812   2.716   7.626   3.964 -0.2772 -0.3491  0.9312
   37MOL0     C 4813   2.821   7.667   3.862 -0.1250 -0.5642 -0.4113
   37MOL0     C 4814   2.945   7.731   3.931 -0.9621 -0.5351 -0.2099
   37MOL0     C 4815   3.025   7.630   4.013  0.2983 -0.5554  0.1999
   37MOL0     C 4816   3.082   7.544   4.068  0.2482  0.1321  0.0497
   37MOL0     C 4817   2.432   7.429   3.748  0.3278 -0.3071  0.1955
   37MOL0     C 4818   2.315   7.354   3.749 -0.0613 -0.3488  0.5412
   37MOL0     H 4819   1.785   7.561   3.851 -1.4595  0.6363 -2.9614
   37MOL0     H 4820   1.549   7.524   3.817 -1.7162 -2.3209 -2.4781
   37MOL0     H 4821   1.324   7.482   3.784 -1.6762  1.0389  1.2872
   37MOL0     H 4822   1.335   7.370   3.931 -0.4693  0.5465  0.2220
   37MOL0     H 4823   1.166   7.224   3.827  0.1927 -0.5227 -1.3178
   37MOL0     H 4824   1.181   7.302   3.672  0.8774  0.2015  0.4029
   37MOL0     H 4825   1.103   7.513   3.800  0.8196 -1.2135  1.3266
   37MOL0     H 4826   1.043   7.405   3.918 -2.9568  0.4710 -0.5128
   37MOL0     H 4827   0.899   7.490   3.711 -0.3437 -0.0445  2.6621
   37MOL0     H 4828   0.979   7.379   3.620 -2.2889  0.5532 -0.4583
   37MOL0     H 4829   0.841   7.294   3.877  1.9350  0.2834  0.0566
   37MOL0     H 4830   0.903   7.195   3.755  0.9903  0.6216  2.1572
   37MOL0     H 4831   0.750   7.261   3.582 -1.9032 -1.5051  0.0253
   37MOL0     H 4832   0.675   7.389   3.658 -0.4752  0.2108 -0.5749
   37MOL0     H 4833   0.636   7.098   3.681 -0.0904  0.7619 -2.9838
   37MOL0     H 4834   0.612   7.187   3.833  1.2997  2.9961  0.2061
   37MOL0     H 4835   0.444   7.337   3.692  1.5483  0.3933 -0.6383
   37MOL0     H 4836   0.405   7.165   3.716  0.6288 -1.9891 -1.8915
   37MOL0     H 4837   0.495   7.419   3.462  0.6487 -0.2700 -0.0133
   37MOL0     H 4838   0.567   7.262   3.118  2.3771  1.7913 -0.1759
   37MOL0     H 4839   0.586   7.407   3.216  1.7306 -0.7301 -2.4635
   37MOL0     H 4840   0.401   7.429   3.032  0.8589 -2.1898 -1.4602
   37MOL0     H 4841   0.326   7.432   3.193  1.3778  2.0329 -0.9214
   37MOL0     H 4842   0.368   7.187   3.014 -1.0859  1.1085 -1.7016
   37MOL0     H 4843   0.277   7.178   3.150  3.3298 -0.2284  0.6197
   37MOL0     H 4844   0.222   7.369   2.913  0.8408  1.0827  1.3990
   37MOL0     H 4845   0.123   7.371   3.053  1.7826  1.3748 -1.3334
   37MOL0     H 4846  -0.118   7.059   3.055  0.4736 -0.9521 -0.9820
   37MOL0     H 4847  -0.351   7.100   3.042 -0.5310 -0.1416 -1.7996
   37MOL0     H 4848  -0.671   7.228   3.252  1.3198  1.1264 -1.4738
   37MOL0     H 4849  -0.903   7.286   3.309  3.5231 -1.2787  0.4486
   37MOL0     H 4850  -1.077   7.449   3.247 -0.2414 -0.0143 -0.6189
   37MOL0     H 4851  -1.136   7.301   3.309  3.1379 -1.2349 -0.1184
   37MOL0     H 4852  -1.310   7.487   3.302  1.1789  0.5768 -1.6626
   37MOL0     H 4853  -1.361   7.345   3.195  1.4152 -2.5829 -0.0441
   37MOL0     H 4854  -1.227   7.501   3.015 -1.2662 -2.7507  0.1280
   37MOL0     H 4855  -1.299   7.631   3.112 -2.6963  1.0037  0.1012
   37MOL0     H 4856  -1.451   7.399   2.963  1.1021 -1.4436  3.2992
   37MOL0     H 4857  -1.530   7.505   3.084  1.0865  1.2564  0.8863
   37MOL0     H 4858  -1.492   7.699   2.969 -2.9176  0.7430 -1.4851
   37MOL0     H 4859  -1.590   7.599   2.879 -0.4060  1.2876 -0.3266
   37MOL0     H 4860  -1.291   7.604   2.839 -0.9867 -0.6381  0.8759
   37MOL0     H 4861  -1.394   7.718   2.749 -0.0145 -0.0340  0.1428
   37MOL0     H 4862  -1.395   7.408   2.715  4.9762  1.0261 -1.1195
   37MOL0     H 4863  -1.525   7.524   2.658  0.2138 -1.0571 -2.2173
   37MOL0     H 4864  -1.235   7.527   2.569 -0.2328  1.2147  2.3110
   37MOL0     H 4865  -1.372   7.617   2.504  1.4709  0.1089  0.4083
   37MOL0     H 4866  -0.992   7.275   2.888  0.7535  0.6609  0.3545
   37MOL0     H 4867  -0.741   7.265   2.843 -4.7034  2.9234 -3.0235
   37MOL0     H 4868  -0.268   7.494   2.873 -0.0293  0.2287  0.6754
   37MOL0     H 4869  -0.027   7.426   2.864  1.2767 -2.6147 -2.0195
   37MOL0     H 4870   1.604   7.125   3.736 -0.0447 -0.3216  1.3827
   37MOL0     H 4871   1.855   7.140   3.760  0.5639  1.0752 -0.1422
   37MOL0     H 4872   2.076   7.597   3.826 -0.6578 -0.5601  0.1755
   37MOL0     H 4873   2.307   7.735   3.846  0.1524 -0.4538  1.3290
   37MOL0     H 4874   2.515   7.671   4.007 -1.8727  0.7819 -1.4606
   37MOL0     H 4875   2.601   7.797   3.914  1.9603 -0.5469 -0.5802
   37MOL0     H 4876   2.750   7.653   4.065  0.6989  0.7352  0.3450
   37MOL0     H 4877   2.696   7.519   3.964 -2.5918  0.0016 -1.3976
   37MOL0     H 4878   2.791   7.747   3.794 -0.0908  0.3972  0.6743
   37MOL0     H 4879   2.860   7.577   3.813  1.8335 -0.4929  0.8964
   37MOL0     H 4880   3.010   7.762   3.848 -1.1233 -4.2260 -1.8943
   37MOL0     H 4881   2.913   7.822   3.984  0.1667  0.5294 -1.2729
   37MOL0     H 4882   3.136   7.460   4.106 -0.2250 -1.7184 -2.9522
   37MOL0     H 4883   2.527   7.385   3.717  1.2783  1.2776  0.7015
   37MOL0     H 4884   2.323   7.247   3.731 -2.4423 -0.8348  1.8888
   38MOL0     O 4885   8.901   6.888   7.869  0.0168  0.1387  0.2795
   38MOL0     C 4886   8.916   6.917   7.754  0.6308  0.0837 -0.1971
   38MOL0     O 4887   8.819   6.936   7.660  0.6195  0.1539  0.4710
   38MOL0     C 4888   8.697   6.881   7.699 -0.3956 -0.2838  0.2762
   38MOL0     C 4889   8.666   6.751   7.655 -0.2755  0.1662 -0.4698
   38MOL0     C 4890   8.535   6.708   7.669 -0.1874 -0.2539  0.6892
   38MOL0     C 4891   8.442   6.781   7.750 -0.1054 -0.5856 -1.7228
   38MOL0     O 4892   8.319   6.720   7.771 -0.3434 -1.3182 -0.2465
   38MOL0     C 4893   8.258   6.752   7.897  0.2762  0.1432 -0.0640
   38MOL0     C 4894   8.126   6.666   7.901 -0.1536 -0.1482 -0.6667
   38MOL0     C 4895   8.044   6.718   8.017 -0.8172  0.2826 -0.5616
   38MOL0     C 4896   7.924   6.632   8.042 -0.1065 -0.4638 -0.3843
   38MOL0     C 4897   7.801   6.652   7.945 -0.4391  0.0891  0.6701
   38MOL0     C 4898   7.699   6.551   7.982  0.6038  0.3802 -0.9133
   38MOL0     C 4899   7.567   6.563   7.900 -0.2046 -0.2672 -0.1873
   38MOL0     C 4900   7.466   6.460   7.958 -0.3929 -0.9030 -0.0045
   38MOL0     N 4901   7.343   6.454   7.866 -0.3200 -0.2222 -0.1122
   38MOL0     C 4902   7.246   6.547   7.863 -0.8624  0.2204  0.1285
   38MOL0     C 4903   7.177   6.528   7.751  0.0747  0.5809 -0.0518
   38MOL0     C 4904   7.057   6.609   7.716  0.2176 -0.7008 -0.5761
   38MOL0     C 4905   6.924   6.530   7.721  0.0453 -0.0187  0.0211
   38MOL0     C 4906   6.885   6.466   7.586  0.3359 -0.4162  0.2270
   38MOL0     C 4907   6.737   6.414   7.591 -0.6824 -0.2149  0.5190
   38MOL0     O 4908   6.723   6.338   7.471 -0.7144 -0.2565 -0.3194
   38MOL0     C 4909   6.598   6.276   7.448 -0.5744 -0.1083 -0.2236
   38MOL0     C 4910   6.574   6.205   7.333  0.0639  0.3200  0.1695
   38MOL0     C 4911   6.443   6.150   7.305 -0.1461  0.1875  0.5069
   38MOL0     C 4912   6.335   6.181   7.387 -0.3188 -1.1188 -0.2265
   38MOL0     C 4913   6.196   6.156   7.337  0.3220 -0.2957 -0.4192
   38MOL0     O 4914   6.176   6.134   7.202 -0.1648 -0.1925 -0.3506
   38MOL0     C 4915   6.049   6.091   7.164 -0.1514  0.4125  1.2552
   38MOL0     C 4916   5.927   6.151   7.192 -0.1956 -0.3182  0.0542
   38MOL0     C 4917   5.809   6.098   7.141  0.3363  0.2709  0.0503
   38MOL0     C 4918   5.813   5.999   7.042 -0.8257  0.4569  0.1828
   38MOL0     O 4919   5.704   5.946   6.983 -0.1338  0.9096  0.2428
   38MOL0     C 4920   5.574   6.014   7.021  0.2777  0.2949 -0.2808
   38MOL0     C 4921   5.473   5.946   6.932  0.5849 -0.1105  0.4108
   38MOL0     C 4922   5.327   5.957   6.988 -1.0870 -0.6016 -0.1645
   38MOL0     C 4923   5.232   5.891   6.890  0.3892  0.8483 -0.9171
   38MOL0     C 4924   5.089   5.885   6.941  0.6832 -0.2433  0.1988
   38MOL0     C 4925   5.008   5.790   6.852 -0.5281 -0.3160  0.3793
   38MOL0     C 4926   4.866   5.790   6.889  0.3851  0.1120  0.5461
   38MOL0     C 4927   4.773   5.742   6.771 -0.4134  0.2135 -1.6098
   38MOL0    Cl 4928   4.604   5.805   6.804 -0.5659  0.6622 -0.2257
   38MOL0     C 4929   5.934   5.944   7.015  0.0447  0.4054  0.3109
   38MOL0     C 4930   6.056   5.986   7.074 -0.1411 -0.1457 -0.1089
   38MOL0     O 4931   6.105   6.172   7.422 -0.0063  0.1452 -0.4730
   38MOL0     C 4932   6.364   6.263   7.503  0.2791  0.1298 -0.8504
   38MOL0     C 4933   6.488   6.304   7.534 -1.3034 -0.2996  0.2469
   38MOL0     N 4934   7.227   6.413   7.693 -0.8312  0.1380 -0.3594
   38MOL0     N 4935   7.331   6.374   7.761  0.1925 -0.5600 -0.1967
   38MOL0     C 4936   8.480   6.897   7.802 -0.4943 -0.4427  0.0718
   38MOL0     C 4937   8.602   6.958   7.775 -0.2745  0.0301  0.5302
   38MOL0     C 4938   9.053   6.960   7.720  0.0389 -0.2896  0.6285
   38MOL0     C 4939   9.152   6.989   7.814  0.8948 -0.6898 -0.7223
   38MOL0     C 4940   9.281   7.022   7.776 -0.8607  0.0148  0.5564
   38MOL0     C 4941   9.341   7.011   7.649 -0.2312  0.4824 -0.0412
   38MOL0     O 4942   9.473   7.028   7.625 -0.1407  0.1625 -1.0591
   38MOL0     C 4943   9.510   7.089   7.501  0.5010  0.3922 -0.6083
   38MOL0     C 4944   9.660   7.077   7.454  0.4372 -0.5357 -0.4388
   38MOL0     C 4945   9.756   7.146   7.553 -0.0419  0.1667  0.2687
   38MOL0     C 4946   9.802   7.047   7.657  0.2886 -0.0387  0.7610
   38MOL0     C 4947   9.741   7.069   7.794  0.0851 -0.3456 -0.1622
   38MOL0     C 4948   9.688   7.092   7.902  0.1740 -0.2011  0.3363
   38MOL0     C 4949   9.244   6.969   7.556  0.4316  0.3692  0.2638
   38MOL0     C 4950   9.108   6.957   7.589  0.5305 -0.1202  0.2946
   38MOL0     H 4951   8.750   6.698   7.614 -0.5280  0.3693 -1.2683
   38MOL0     H 4952   8.492   6.626   7.613  2.8236  0.3820 -2.9264
   38MOL0     H 4953   8.236   6.859   7.898 -1.5734 -0.2042 -0.2550
   38MOL0     H 4954   8.320   6.724   7.983  0.6830 -0.2517 -0.4795
   38MOL0     H 4955   8.143   6.559   7.911  1.5408 -0.0446 -2.0028
   38MOL0     H 4956   8.068   6.687   7.811 -2.2972 -1.1330  0.4045
   38MOL0     H 4957   8.021   6.823   7.997 -2.4224 -0.0874 -0.7463
   38MOL0     H 4958   8.114   6.717   8.101  0.7194 -0.8123 -1.8000
   38MOL0     H 4959   7.955   6.527   8.036  0.0176 -0.4850  0.5497
   38MOL0     H 4960   7.898   6.650   8.146  3.6534 -2.3253  1.0810
   38MOL0     H 4961   7.819   6.639   7.838  1.0777  1.4089  0.7350
   38MOL0     H 4962   7.763   6.752   7.969 -1.4951 -0.6233  2.1361
   38MOL0     H 4963   7.668   6.563   8.086  0.1172  2.1444 -1.2143
   38MOL0     H 4964   7.750   6.455   7.977  3.2312  1.4737  2.0344
   38MOL0     H 4965   7.526   6.662   7.923  0.3967  0.1760 -0.9544
   38MOL0     H 4966   7.592   6.562   7.793 -1.0627  0.8013 -0.4168
   38MOL0     H 4967   7.430   6.505   8.051 -1.3924 -0.0528 -0.7772
   38MOL0     H 4968   7.512   6.361   7.960 -1.1790 -1.3450 -1.7332
   38MOL0     H 4969   7.231   6.634   7.925  2.3374  1.9937 -1.3564
   38MOL0     H 4970   7.063   6.667   7.624 -1.6761  0.6606  0.0891
   38MOL0     H 4971   7.049   6.690   7.789 -0.0293  3.4941 -4.7843
   38MOL0     H 4972   6.847   6.600   7.755  0.4926  0.5416 -0.1014
   38MOL0     H 4973   6.938   6.455   7.799  3.3233  0.2798 -0.1483
   38MOL0     H 4974   6.891   6.538   7.505  1.7801 -1.1038 -0.3021
   38MOL0     H 4975   6.949   6.380   7.568 -1.4694 -1.7129 -0.3183
   38MOL0     H 4976   6.667   6.497   7.600  0.8205  1.1984 -0.3472
   38MOL0     H 4977   6.716   6.351   7.679 -1.7164  0.5547  0.8383
   38MOL0     H 4978   6.653   6.195   7.259  0.5830  5.0462 -0.1885
   38MOL0     H 4979   6.423   6.095   7.214 -0.2518  0.0010  0.6424
   38MOL0     H 4980   5.932   6.224   7.272  0.0032  1.9298 -1.9077
   38MOL0     H 4981   5.718   6.152   7.163  1.1725  1.4935  0.6249
   38MOL0     H 4982   5.584   6.123   7.012 -0.9092  0.6065  1.7411
   38MOL0     H 4983   5.539   6.002   7.124 -2.7437 -0.4192 -1.2888
   38MOL0     H 4984   5.496   5.840   6.944  2.2796  0.1857  0.0104
   38MOL0     H 4985   5.479   5.979   6.828 -1.1259 -0.5398  0.1393
   38MOL0     H 4986   5.298   6.059   7.011 -0.1935  0.2439 -2.5157
   38MOL0     H 4987   5.314   5.912   7.087 -5.4758 -0.4214 -0.4817
   38MOL0     H 4988   5.244   5.940   6.793  0.9898  0.6492 -0.9500
   38MOL0     H 4989   5.273   5.791   6.877  3.7901  1.5605  2.5045
   38MOL0     H 4990   5.040   5.983   6.943  2.2639  0.5812  0.7347
   38MOL0     H 4991   5.080   5.845   7.042 -2.7318  0.2800  0.2187
   38MOL0     H 4992   5.057   5.692   6.849 -1.3541 -0.7281 -1.2737
   38MOL0     H 4993   5.016   5.824   6.748 -1.1171 -0.6863  0.2058
   38MOL0     H 4994   4.847   5.735   6.982 -1.7665 -0.4944 -0.2028
   38MOL0     H 4995   4.837   5.895   6.905  1.8917  0.9329 -1.6367
   38MOL0     H 4996   4.769   5.633   6.758  0.0488  0.0725 -0.6598
   38MOL0     H 4997   4.804   5.783   6.674  2.4509  0.2340 -0.7904
   38MOL0     H 4998   5.946   5.881   6.927 -1.4824  2.3219 -1.3509
   38MOL0     H 4999   6.154   5.953   7.042 -0.6863  0.4086 -2.5090
   38MOL0     H 5000   6.282   6.288   7.569 -1.2927 -3.0239 -1.4023
   38MOL0     H 5001   6.501   6.366   7.622  2.4773  1.0386 -1.0133
   38MOL0     H 5002   8.400   6.948   7.854 -1.4747 -1.7660 -0.0856
   38MOL0     H 5003   8.625   7.059   7.806  2.6922 -1.0930  2.3963
   38MOL0     H 5004   9.126   6.990   7.919  1.2188  2.8401 -0.5684
   38MOL0     H 5005   9.347   7.055   7.855  1.6798 -0.7011 -1.1293
   38MOL0     H 5006   9.497   7.196   7.517 -0.6364  0.1606  0.1602
   38MOL0     H 5007   9.443   7.059   7.420 -1.1461 -1.4692  1.3160
   38MOL0     H 5008   9.685   6.973   7.431 -3.2191 -2.1982  2.1253
   38MOL0     H 5009   9.679   7.133   7.362  2.1498 -0.0786  0.1486
   38MOL0     H 5010   9.700   7.224   7.605 -0.1123  0.5787 -0.4165
   38MOL0     H 5011   9.850   7.174   7.504  0.9569 -1.6675  0.9797
   38MOL0     H 5012   9.805   6.944   7.619  0.0847  0.1502  0.2334
   38MOL0     H 5013   9.901   7.089   7.678  0.1778 -0.8250  3.2774
   38MOL0     H 5014   9.653   7.097   8.003 -0.2272  0.3317  0.1743
   38MOL0     H 5015   9.271   6.959   7.452  0.5581  5.0583 -0.3657
   38MOL0     H 5016   9.046   6.934   7.503 -1.4376 -0.4021  1.7032
   39MOL0     O 5017  11.195   8.484   8.474  0.4394  0.2622  0.0448
   39MOL0     C 5018  11.190   8.391   8.560  0.2262 -0.5793  0.0990
   39MOL0     O 5019  11.080   8.326   8.606  0.0152 -0.7359  0.3902
   39MOL0     C 5020  11.079   8.195   8.647 -0.4173 -0.1709 -0.5923
   39MOL0     C 5021  11.142   8.093   8.579 -0.0566 -0.3868  0.2209
   39MOL0     C 5022  11.140   7.960   8.626  0.6945 -0.9639  0.0998
   39MOL0     C 5023  11.061   7.925   8.736  0.1996  0.3661  0.7012
   39MOL0     O 5024  11.050   7.793   8.773 -0.3840 -0.0577  0.3481
   39MOL0     C 5025  10.958   7.705   8.710 -0.1357  0.4797 -0.8953
   39MOL0     C 5026  10.954   7.568   8.775 -0.1629 -0.5494  0.4018
   39MOL0     C 5027  10.830   7.491   8.730 -1.2275 -0.8331 -0.4120
   39MOL0     C 5028  10.805   7.361   8.808 -1.3970  0.1614  0.2781
   39MOL0     C 5029  10.676   7.298   8.771  0.9704  0.6714  0.4905
   39MOL0     C 5030  10.621   7.199   8.879 -0.3405  0.1804  0.9311
   39MOL0     C 5031  10.702   7.074   8.881  0.5710  0.1170 -0.8873
   39MOL0     C 5032  10.695   7.002   9.019 -0.0168  0.1414  0.2659
   39MOL0     N 5033  10.566   6.923   9.047 -0.3160 -0.8388  0.1498
   39MOL0     C 5034  10.547   6.789   9.025 -0.2630 -0.3977  0.5862
   39MOL0     C 5035  10.415   6.764   9.029  0.1709 -0.5186  0.2041
   39MOL0     C 5036  10.335   6.648   8.980 -0.0779 -0.4459 -0.9010
   39MOL0     C 5037  10.216   6.610   9.068  0.0837  0.7519 -0.5907
   39MOL0     C 5038  10.093   6.701   9.060  0.4384  0.3908 -0.1589
   39MOL0     C 5039   9.971   6.652   9.135  0.2102 -0.5255 -0.0782
   39MOL0     O 5040   9.917   6.529   9.077  0.1794 -0.4591 -0.0464
   39MOL0     C 5041   9.808   6.472   9.134  1.0123  0.1879 -0.3610
   39MOL0     C 5042   9.769   6.482   9.275  0.9045  0.1791 -0.3652
   39MOL0     C 5043   9.646   6.422   9.312  0.2607 -0.8295  0.2032
   39MOL0     C 5044   9.569   6.338   9.224 -0.1655 -0.8867  0.3950
   39MOL0     C 5045   9.443   6.266   9.267 -0.9096  0.3406 -0.5445
   39MOL0     O 5046   9.366   6.198   9.172 -0.1737  0.1797  1.0993
   39MOL0     C 5047   9.236   6.167   9.198  0.5936 -0.0628  0.5502
   39MOL0     C 5048   9.137   6.273   9.209  1.5395  0.1299 -0.1035
   39MOL0     C 5049   9.009   6.234   9.242  0.1860 -0.2984 -0.0721
   39MOL0     C 5050   8.975   6.098   9.260  0.3357 -0.2966  0.5062
   39MOL0     O 5051   8.852   6.047   9.287 -0.1133 -0.1928 -0.6313
   39MOL0     C 5052   8.738   6.137   9.277  0.5824  0.3936  0.1036
   39MOL0     C 5053   8.606   6.067   9.300  0.2037  0.0187 -0.5885
   39MOL0     C 5054   8.582   6.004   9.440 -0.9021  0.2570 -0.3150
   39MOL0     C 5055   8.435   5.986   9.470  0.0621 -0.2271 -0.0125
   39MOL0     C 5056   8.406   5.883   9.571 -0.3546 -0.1353 -0.4119
   39MOL0     C 5057   8.254   5.859   9.594  0.1325 -0.1759  0.5424
   39MOL0     C 5058   8.228   5.783   9.725  1.0321  0.3229 -0.2475
   39MOL0     C 5059   8.080   5.769   9.766 -0.4595  0.1969 -0.0498
   39MOL0    Cl 5060   7.981   5.918   9.756  0.2342  0.4804  0.3667
   39MOL0     C 5061   9.078   6.000   9.247  0.3639 -0.0115  0.1546
   39MOL0     C 5062   9.202   6.032   9.211 -0.6003 -0.0935 -0.1223
   39MOL0     O 5063   9.406   6.284   9.384 -0.0926 -0.0331  0.2858
   39MOL0     C 5064   9.619   6.323   9.090 -0.3489  0.2287 -0.3332
   39MOL0     C 5065   9.737   6.384   9.047 -0.6233 -0.4241 -1.0174
   39MOL0     N 5066  10.358   6.888   9.045 -0.3506  0.3133  0.7879
   39MOL0     N 5067  10.445   6.985   9.061  0.0031 -0.1172  0.3072
   39MOL0     C 5068  10.978   8.024   8.795  0.1778 -0.5385  0.5092
   39MOL0     C 5069  10.998   8.160   8.754  0.5509 -0.3204  0.6735
   39MOL0     C 5070  11.326   8.359   8.620 -0.2972  0.0287  0.5660
   39MOL0     C 5071  11.441   8.357   8.540  0.3921  1.1147 -0.6414
   39MOL0     C 5072  11.568   8.334   8.593 -0.1507 -0.1866 -0.2816
   39MOL0     C 5073  11.587   8.320   8.730  0.0305 -0.2457  0.6559
   39MOL0     O 5074  11.706   8.283   8.790 -0.2178 -0.4049 -0.4469
   39MOL0     C 5075  11.825   8.285   8.704  0.2771 -0.4843 -0.8523
   39MOL0     C 5076  11.963   8.261   8.772  0.5090 -0.3571 -0.3519
   39MOL0     C 5077  12.006   8.374   8.867 -0.3988  0.2067 -0.0934
   39MOL0     C 5078  12.115   8.332   8.963  0.8168 -0.5294 -0.0677
   39MOL0     C 5079  12.228   8.270   8.899  0.2084 -0.5898  0.3542
   39MOL0     C 5080  12.316   8.215   8.840 -0.2670  1.2469 -0.4411
   39MOL0     C 5081  11.476   8.325   8.811 -1.0360 -0.0603  0.0284
   39MOL0     C 5082  11.352   8.347   8.754  0.9962  0.4585  0.4643
   39MOL0     H 5083  11.199   8.121   8.491 -2.0949  1.7037 -0.5378
   39MOL0     H 5084  11.188   7.873   8.582 -0.1915 -2.7282  2.4126
   39MOL0     H 5085  10.989   7.687   8.606  1.2636 -2.6253 -0.0675
   39MOL0     H 5086  10.858   7.749   8.705 -1.7642 -2.5588  1.2212
   39MOL0     H 5087  10.950   7.588   8.882  0.7396  0.1140  0.3191
   39MOL0     H 5088  11.043   7.512   8.746  0.2016  0.5558 -0.7054
   39MOL0     H 5089  10.844   7.463   8.625  1.4348  0.1171 -0.3859
   39MOL0     H 5090  10.742   7.556   8.739 -1.1908 -0.9182  0.7279
   39MOL0     H 5091  10.886   7.290   8.788 -2.3659 -0.9699  0.3183
   39MOL0     H 5092  10.809   7.387   8.914 -0.6493  2.4911 -0.2557
   39MOL0     H 5093  10.692   7.257   8.671  1.7176  0.0720  0.8423
   39MOL0     H 5094  10.594   7.370   8.763  1.0392  0.7411  0.4085
   39MOL0     H 5095  10.518   7.176   8.851 -0.0159 -1.4023  0.9393
   39MOL0     H 5096  10.608   7.244   8.977 -1.3500 -3.2707  2.5292
   39MOL0     H 5097  10.677   7.015   8.793  2.2143  3.3589 -3.7418
   39MOL0     H 5098  10.810   7.095   8.883  0.2763  1.6850  0.3859
   39MOL0     H 5099  10.721   7.075   9.096  1.5198 -0.8927  0.7617
   39MOL0     H 5100  10.778   6.931   9.023  1.9520  2.2248 -0.9295
   39MOL0     H 5101  10.617   6.709   9.002 -0.8795 -0.0090 -3.2885
   39MOL0     H 5102  10.401   6.562   8.995  0.5460  0.5090  3.3043
   39MOL0     H 5103  10.309   6.668   8.876  0.7106  2.4090 -0.6296
   39MOL0     H 5104  10.253   6.594   9.170  1.8425 -3.2005 -1.6492
   39MOL0     H 5105  10.194   6.509   9.031  1.0572 -0.1681  1.1837
   39MOL0     H 5106  10.120   6.796   9.106  1.3313  0.3703 -0.6255
   39MOL0     H 5107  10.066   6.715   8.955  0.9859 -1.0252 -0.5148
   39MOL0     H 5108   9.904   6.738   9.143  0.6947 -0.2678  6.1392
   39MOL0     H 5109  10.002   6.634   9.239 -2.0982  1.8099  1.1339
   39MOL0     H 5110   9.827   6.541   9.346  2.0550  1.4307 -2.2673
   39MOL0     H 5111   9.593   6.434   9.407 -1.8276 -0.1105 -0.9920
   39MOL0     H 5112   9.155   6.379   9.195 -3.3364  1.2198  0.2394
   39MOL0     H 5113   8.934   6.312   9.251 -0.2502 -0.5863 -1.0815
   39MOL0     H 5114   8.728   6.183   9.178  1.0586 -1.2041 -0.7265
   39MOL0     H 5115   8.741   6.198   9.368  2.2795 -0.1570  0.4544
   39MOL0     H 5116   8.604   5.985   9.228  0.6358 -0.3079 -0.2387
   39MOL0     H 5117   8.519   6.130   9.283 -2.0955 -2.8457 -0.0993
   39MOL0     H 5118   8.625   6.075   9.512 -2.1889  2.2510 -1.4069
   39MOL0     H 5119   8.631   5.907   9.448 -1.4318  0.0907  1.3253
   39MOL0     H 5120   8.394   6.084   9.499  1.0045  0.2489 -0.2485
   39MOL0     H 5121   8.390   5.956   9.375 -0.2736  0.0884  0.0388
   39MOL0     H 5122   8.457   5.910   9.663 -0.4144  0.6203 -0.5918
   39MOL0     H 5123   8.454   5.789   9.544  2.0013  0.9937 -0.3980
   39MOL0     H 5124   8.210   5.811   9.506  0.7777  0.8442 -0.3615
   39MOL0     H 5125   8.208   5.958   9.599 -1.6364 -0.8568 -0.7874
   39MOL0     H 5126   8.291   5.694   9.734  0.2310 -0.0961  1.6150
   39MOL0     H 5127   8.267   5.837   9.812  0.0634  0.9348 -0.1893
   39MOL0     H 5128   8.072   5.721   9.864 -0.3017  0.7595  0.2476
   39MOL0     H 5129   8.027   5.696   9.705 -1.8239 -0.6105  2.0059
   39MOL0     H 5130   9.039   5.899   9.244 -0.2986  0.2738 -0.9434
   39MOL0     H 5131   9.281   5.960   9.190  0.5278  1.4042 -1.2386
   39MOL0     H 5132   9.559   6.267   9.019  0.1342  0.2784 -0.7897
   39MOL0     H 5133   9.768   6.373   8.944 -3.2904  0.4114 -1.9859
   39MOL0     H 5134  10.895   7.995   8.858 -1.5668 -0.0441 -1.4534
   39MOL0     H 5135  10.934   8.238   8.793  0.3953 -0.4233  0.6246
   39MOL0     H 5136  11.416   8.359   8.435 -1.6890 -3.1805 -0.4190
   39MOL0     H 5137  11.640   8.327   8.512  0.4364 -0.9936  0.2998
   39MOL0     H 5138  11.838   8.372   8.639 -0.6203 -0.7879 -1.4597
   39MOL0     H 5139  11.819   8.199   8.637 -1.0183  0.0715 -1.4848
   39MOL0     H 5140  11.952   8.173   8.836  0.3363 -1.6770 -2.1272
   39MOL0     H 5141  12.047   8.237   8.707  1.1080 -1.0143  0.6436
   39MOL0     H 5142  11.921   8.396   8.931  0.8505  1.4359  1.2134
   39MOL0     H 5143  12.036   8.467   8.817  1.2199  1.0076  2.1580
   39MOL0     H 5144  12.156   8.420   9.014  1.3128 -0.6386 -0.2706
   39MOL0     H 5145  12.073   8.274   9.045 -0.8894 -0.6582 -0.9890
   39MOL0     H 5146  12.388   8.158   8.784 -0.9780 -1.1658  0.9589
   39MOL0     H 5147  11.494   8.317   8.918 -0.2653  1.5489  0.0485
   39MOL0     H 5148  11.271   8.366   8.824 -0.7300  2.2963 -1.8843
   40MOL0     O 5149   3.608   8.259   8.016 -0.2042  0.1831  0.1266
   40MOL0     C 5150   3.636   8.143   7.987 -0.5196  0.8458 -0.3377
   40MOL0     O 5151   3.570   8.033   8.027  0.4835  0.4952  0.5027
   40MOL0     C 5152   3.439   8.036   8.065  0.4040 -0.0780 -0.3623
   40MOL0     C 5153   3.397   7.907   8.107  0.7571 -0.3910  0.0892
   40MOL0     C 5154   3.269   7.883   8.157  0.5960 -1.1096  0.6739
   40MOL0     C 5155   3.173   7.987   8.156 -0.0264  0.0864 -0.0306
   40MOL0     O 5156   3.039   7.988   8.194  0.1300 -0.3517  0.3678
   40MOL0     C 5157   2.967   7.864   8.197  0.4480  0.0332 -0.3298
   40MOL0     C 5158   2.811   7.889   8.228 -0.5323  0.5027 -0.9254
   40MOL0     C 5159   2.747   7.994   8.138  0.6177  0.6205 -0.7299
   40MOL0     C 5160   2.596   7.993   8.151  0.0836 -0.6458 -0.4160
   40MOL0     C 5161   2.528   8.066   8.047  0.7669 -0.7285 -0.1909
   40MOL0     C 5162   2.390   8.107   8.091  0.0556  0.0887 -0.0877
   40MOL0     C 5163   2.305   8.170   7.977  0.5281  1.0971  0.7486
   40MOL0     C 5164   2.148   8.131   7.987 -0.5319  0.0253 -0.2792
   40MOL0     N 5165   2.084   8.137   8.125 -0.7933  0.5381 -0.1335
   40MOL0     C 5166   2.064   8.245   8.208 -0.5131 -0.0166 -0.1578
   40MOL0     C 5167   2.003   8.200   8.316 -0.2158  0.0207 -0.6343
   40MOL0     C 5168   1.945   8.279   8.422 -0.0417 -0.4253  0.0875
   40MOL0     C 5169   1.790   8.264   8.428  0.7632  0.0392 -0.5971
   40MOL0     C 5170   1.732   8.352   8.548 -0.0490  0.3004  0.2008
   40MOL0     C 5171   1.576   8.342   8.551  0.7757  0.6318 -0.8100
   40MOL0     O 5172   1.514   8.425   8.453 -0.7814  0.1690  0.1208
   40MOL0     C 5173   1.376   8.445   8.437 -0.5121 -0.8096  0.5813
   40MOL0     C 5174   1.345   8.521   8.322  0.2391  0.4682  0.1102
   40MOL0     C 5175   1.212   8.551   8.291  0.3333 -0.0970  0.2513
   40MOL0     C 5176   1.101   8.499   8.371  0.3415  1.0195 -0.2312
   40MOL0     C 5177   0.965   8.551   8.347  0.7916  0.1570  0.3759
   40MOL0     O 5178   0.856   8.511   8.421  0.1879 -0.4664 -0.3010
   40MOL0     C 5179   0.731   8.556   8.400 -0.5290 -0.5510  0.6620
   40MOL0     C 5180   0.696   8.690   8.424  0.4661  1.1920 -0.6039
   40MOL0     C 5181   0.573   8.736   8.392 -0.1407 -0.3020  0.1243
   40MOL0     C 5182   0.476   8.650   8.352 -0.9002 -0.7207 -0.1808
   40MOL0     O 5183   0.343   8.691   8.337  0.2449  0.5753  0.1011
   40MOL0     C 5184   0.296   8.821   8.361  0.3818 -0.2879  0.7720
   40MOL0     C 5185   0.140   8.832   8.362 -0.4357  0.2554  0.3383
   40MOL0     C 5186   0.090   8.974   8.391 -0.3611 -0.4218  0.8014
   40MOL0     C 5187  -0.064   8.977   8.408  0.4138 -0.0882  0.6047
   40MOL0     C 5188  -0.101   9.126   8.419  1.4426 -0.3783  0.1323
   40MOL0     C 5189  -0.254   9.139   8.431  0.3880  0.2821  0.2486
   40MOL0     C 5190  -0.270   9.289   8.400 -0.2618  0.2825  0.0588
   40MOL0     C 5191  -0.413   9.343   8.425  0.0725  0.1337  0.6176
   40MOL0    Cl 5192  -0.440   9.512   8.424  0.0016 -0.2298 -0.1034
   40MOL0     C 5193   0.506   8.522   8.312 -1.0370  0.2067 -0.7332
   40MOL0     C 5194   0.634   8.470   8.344  0.0604  0.6914 -0.3325
   40MOL0     O 5195   0.958   8.615   8.248 -0.0410 -0.7097  0.5602
   40MOL0     C 5196   1.137   8.414   8.480  0.1811 -0.1164  0.0430
   40MOL0     C 5197   1.273   8.407   8.515  0.7380  0.5101 -0.2935
   40MOL0     N 5198   1.982   8.063   8.304  0.5084 -0.2343  0.2893
   40MOL0     N 5199   2.036   8.030   8.187 -0.1908  0.4353 -0.3732
   40MOL0     C 5200   3.217   8.109   8.116 -0.7973 -0.5877  0.3490
   40MOL0     C 5201   3.346   8.137   8.060 -0.1677  0.0363  0.1607
   40MOL0     C 5202   3.767   8.122   7.920 -0.4951  0.5805  0.9274
   40MOL0     C 5203   3.809   7.997   7.877 -0.5987  1.1568  0.4965
   40MOL0     C 5204   3.940   7.969   7.828  0.2239  0.0070 -0.0005
   40MOL0     C 5205   4.034   8.058   7.824  0.1860 -0.0976 -1.4634
   40MOL0     O 5206   4.143   8.023   7.756  0.3623 -1.1551 -0.1121
   40MOL0     C 5207   4.263   8.104   7.755  0.4046 -0.3387 -0.1885
   40MOL0     C 5208   4.361   8.019   7.679  0.9175 -0.0884 -1.0897
   40MOL0     C 5209   4.496   8.096   7.654 -0.4697 -0.2635  0.5849
   40MOL0     C 5210   4.595   7.998   7.591 -0.6447  0.0794 -0.7633
   40MOL0     C 5211   4.651   7.889   7.674 -0.5363 -0.4044  0.8294
   40MOL0     C 5212   4.683   7.792   7.734  0.3022  0.8716 -0.7302
   40MOL0     C 5213   4.006   8.196   7.873  0.7960 -0.2928  1.0277
   40MOL0     C 5214   3.873   8.217   7.919 -0.8423 -0.1280 -0.0292
   40MOL0     H 5215   3.467   7.825   8.121  1.2219 -0.5983 -2.8789
   40MOL0     H 5216   3.244   7.783   8.191 -1.8294  0.0042  2.4348
   40MOL0     H 5217   3.009   7.802   8.277 -1.6499  1.7579  2.2637
   40MOL0     H 5218   2.974   7.811   8.102  1.4809 -2.8379  1.2406
   40MOL0     H 5219   2.808   7.930   8.329  0.5658 -0.5002 -0.4658
   40MOL0     H 5220   2.761   7.792   8.226  1.0432 -0.3547 -1.8546
   40MOL0     H 5221   2.777   7.961   8.038 -1.9530  1.9551 -2.0519
   40MOL0     H 5222   2.790   8.094   8.144  0.6198  0.6482 -1.1254
   40MOL0     H 5223   2.566   7.888   8.154  0.4492 -0.8440 -2.4926
   40MOL0     H 5224   2.563   8.031   8.248  1.3213 -0.2013 -0.1519
   40MOL0     H 5225   2.511   8.002   7.960 -1.5736  2.6718 -2.4764
   40MOL0     H 5226   2.586   8.155   8.020 -1.2098  1.1959  1.5522
   40MOL0     H 5227   2.388   8.174   8.177  0.5607  1.1318 -0.8734
   40MOL0     H 5228   2.344   8.011   8.117 -2.4823  0.4341 -2.7738
   40MOL0     H 5229   2.313   8.279   7.985  4.4187  0.8737  2.4336
   40MOL0     H 5230   2.352   8.133   7.885 -2.2462 -0.5113 -0.1483
   40MOL0     H 5231   2.142   8.032   7.943  0.4536  0.2694 -1.0095
   40MOL0     H 5232   2.104   8.214   7.932 -1.2515  2.8579  4.0237
   40MOL0     H 5233   2.094   8.339   8.164 -0.4097  0.2094  0.3813
   40MOL0     H 5234   1.971   8.385   8.408 -0.9812  0.5362  4.2787
   40MOL0     H 5235   1.982   8.253   8.522 -0.9919  1.6188  1.0271
   40MOL0     H 5236   1.778   8.159   8.455  1.7122  0.3371  1.1946
   40MOL0     H 5237   1.748   8.297   8.333  0.1380 -0.0817 -0.3647
   40MOL0     H 5238   1.779   8.320   8.641 -0.4624 -0.8414  0.0445
   40MOL0     H 5239   1.767   8.454   8.533 -2.2526  1.8464  4.1541
   40MOL0     H 5240   1.533   8.367   8.648  1.2356  2.5262 -1.0625
   40MOL0     H 5241   1.559   8.237   8.525  5.1666  0.1607 -2.6861
   40MOL0     H 5242   1.425   8.562   8.262  2.7416  0.2148  3.0368
   40MOL0     H 5243   1.198   8.623   8.211 -0.5761 -0.4296  0.1006
   40MOL0     H 5244   0.773   8.751   8.470  0.8632  0.4560 -0.2762
   40MOL0     H 5245   0.572   8.843   8.412 -1.2073 -0.4577  0.9800
   40MOL0     H 5246   0.338   8.895   8.292 -0.5957 -2.8292 -2.8553
   40MOL0     H 5247   0.322   8.848   8.464  2.8584 -1.2791  0.4711
   40MOL0     H 5248   0.085   8.765   8.428 -1.1013 -1.7800 -2.1368
   40MOL0     H 5249   0.121   8.800   8.260  1.4276 -0.3552  0.1438
   40MOL0     H 5250   0.122   9.035   8.306 -2.5274 -0.4379 -0.0860
   40MOL0     H 5251   0.145   9.019   8.474 -1.3371  4.0667 -0.7519
   40MOL0     H 5252  -0.112   8.931   8.321  2.1786  0.8288 -0.9215
   40MOL0     H 5253  -0.087   8.925   8.502 -0.3259 -2.7212 -0.9151
   40MOL0     H 5254  -0.067   9.186   8.334 -2.8124  1.3231 -0.6282
   40MOL0     H 5255  -0.045   9.167   8.503  2.5250 -0.4921 -0.5149
   40MOL0     H 5256  -0.280   9.120   8.535  1.1641  2.7966  0.9734
   40MOL0     H 5257  -0.312   9.076   8.362 -2.0236  2.9378 -0.3112
   40MOL0     H 5258  -0.197   9.328   8.472  1.4143 -0.8695 -0.9524
   40MOL0     H 5259  -0.236   9.307   8.298  0.1636 -3.3190 -0.5565
   40MOL0     H 5260  -0.436   9.309   8.526 -0.6666  1.4711  0.9199
   40MOL0     H 5261  -0.472   9.297   8.346  1.8460 -0.7738 -0.2519
   40MOL0     H 5262   0.423   8.473   8.263 -1.7891 -0.4939  1.1348
   40MOL0     H 5263   0.661   8.366   8.330 -1.1438  0.6818 -3.4798
   40MOL0     H 5264   1.061   8.389   8.553  0.8329  1.3741  1.2782
   40MOL0     H 5265   1.299   8.368   8.612  1.5386 -0.9643 -1.0675
   40MOL0     H 5266   3.145   8.190   8.117 -2.3920 -1.9450  1.5373
   40MOL0     H 5267   3.380   8.237   8.036  1.4555  0.1416  2.5565
   40MOL0     H 5268   3.741   7.914   7.866  0.5515 -0.1649  2.5950
   40MOL0     H 5269   3.957   7.877   7.773 -3.6695  0.8201 -3.0631
   40MOL0     H 5270   4.293   8.133   7.857 -2.7170  0.6496  0.5684
   40MOL0     H 5271   4.252   8.201   7.704  0.7134  0.9004  1.9581
   40MOL0     H 5272   4.379   7.933   7.744 -1.4583  0.5459  0.5166
   40MOL0     H 5273   4.315   7.982   7.586 -1.4081 -0.7631  0.2597
   40MOL0     H 5274   4.525   8.135   7.752 -2.1040  0.3845  0.8391
   40MOL0     H 5275   4.474   8.180   7.587 -2.6781 -0.4904  0.9475
   40MOL0     H 5276   4.559   7.957   7.496 -1.6172 -1.4875  0.2398
   40MOL0     H 5277   4.690   8.050   7.576  1.3687 -3.2692 -0.7177
   40MOL0     H 5278   4.721   7.710   7.792 -4.8919 -1.0416  0.5132
   40MOL0     H 5279   4.080   8.274   7.867 -1.5739  2.0201 -0.4972
   40MOL0     H 5280   3.859   8.316   7.962 -0.0317  0.0171 -0.0858
   41MOL0     O 5281   6.188   4.589   6.977  0.0305 -0.5796  1.0389
   41MOL0     C 5282   6.105   4.552   7.066 -0.4495 -0.1661 -0.4088
   41MOL0     O 5283   6.120   4.438   7.144  0.2141  0.4632  0.2279
   41MOL0     C 5284   6.234   4.368   7.125  0.2150  0.0533  0.7422
   41MOL0     C 5285   6.229   4.270   7.021 -0.5419 -0.4824 -0.0196
   41MOL0     C 5286   6.345   4.202   6.984  0.0898 -0.1352 -0.2500
   41MOL0     C 5287   6.462   4.230   7.044 -0.2003  0.3721 -0.0123
   41MOL0     O 5288   6.568   4.138   7.017 -0.1442  0.5945 -0.2229
   41MOL0     C 5289   6.702   4.158   7.076  0.4880 -0.1435  0.0617
   41MOL0     C 5290   6.792   4.057   7.005 -0.1769 -1.5743  0.5831
   41MOL0     C 5291   6.926   4.072   7.078  0.0688  0.3270 -0.1492
   41MOL0     C 5292   7.044   4.014   6.998  0.5110 -0.4890 -0.1146
   41MOL0     C 5293   7.165   3.975   7.091  0.6036  0.2211 -0.7743
   41MOL0     C 5294   7.133   3.862   7.196  0.0372 -0.6566  0.6162
   41MOL0     C 5295   7.016   3.765   7.165 -0.3977  0.7803  0.4405
   41MOL0     C 5296   6.982   3.691   7.288  0.8589 -0.4710 -0.4362
   41MOL0     N 5297   6.915   3.766   7.394 -0.5707 -0.5547 -0.5367
   41MOL0     C 5298   6.780   3.820   7.397 -0.2606  0.0093 -0.9656
   41MOL0     C 5299   6.760   3.872   7.524  0.1854  0.1285 -0.7931
   41MOL0     C 5300   6.638   3.933   7.586  0.3808 -0.5068 -0.3767
   41MOL0     C 5301   6.572   4.033   7.492  0.2486 -0.1470  0.1517
   41MOL0     C 5302   6.422   4.050   7.538  0.2937  1.0574  0.2273
   41MOL0     C 5303   6.364   4.183   7.485  0.3574  0.0792  0.5147
   41MOL0     O 5304   6.231   4.186   7.538 -0.0570 -0.4005 -0.1513
   41MOL0     C 5305   6.140   4.287   7.528 -0.7488  0.5614  0.4482
   41MOL0     C 5306   6.180   4.410   7.470  0.7129 -0.1332 -0.2994
   41MOL0     C 5307   6.081   4.506   7.457 -0.1086  0.2435 -0.1534
   41MOL0     C 5308   5.948   4.494   7.495 -0.8560  0.1589  0.1003
   41MOL0     C 5309   5.844   4.603   7.499 -1.0912 -0.2429 -0.4733
   41MOL0     O 5310   5.905   4.736   7.501 -0.0168  0.6470 -0.6745
   41MOL0     C 5311   5.817   4.843   7.488 -0.6689  0.7418  0.4934
   41MOL0     C 5312   5.740   4.881   7.591 -0.5348 -0.5247  0.5503
   41MOL0     C 5313   5.666   4.999   7.570 -0.6481  0.3501  0.0089
   41MOL0     C 5314   5.679   5.078   7.455  0.7507  0.3645  0.6057
   41MOL0     O 5315   5.622   5.201   7.443 -0.5010 -0.3349 -0.0581
   41MOL0     C 5316   5.496   5.187   7.377  0.2802  0.2676 -1.0655
   41MOL0     C 5317   5.394   5.252   7.476 -0.2635  0.2958  0.5192
   41MOL0     C 5318   5.248   5.214   7.439  0.9310  0.6567  0.4253
   41MOL0     C 5319   5.160   5.170   7.560  0.2052 -0.9184  0.4165
   41MOL0     C 5320   5.216   5.075   7.668  0.7599  0.6276 -1.0978
   41MOL0     C 5321   5.258   4.938   7.607  0.2995 -0.1828  0.3993
   41MOL0     C 5322   5.320   4.850   7.720 -0.1897  0.7839 -0.0210
   41MOL0     C 5323   5.364   4.712   7.673 -0.3247 -0.1166 -0.3425
   41MOL0    Cl 5324   5.236   4.594   7.630 -0.0395 -0.1495 -0.3903
   41MOL0     C 5325   5.764   5.035   7.351 -0.1694 -0.8006  0.4975
   41MOL0     C 5326   5.831   4.912   7.367 -0.6939 -0.0304  0.1010
   41MOL0     O 5327   5.722   4.577   7.493  0.1131  0.4035 -0.3395
   41MOL0     C 5328   5.921   4.370   7.553 -0.1166  0.0569  0.2835
   41MOL0     C 5329   6.013   4.267   7.566 -0.0521 -0.0863 -0.7005
   41MOL0     N 5330   6.879   3.853   7.594  0.1598 -0.0542 -0.2286
   41MOL0     N 5331   6.965   3.793   7.521 -0.2425  0.0572  0.4185
   41MOL0     C 5332   6.476   4.335   7.132 -0.1555  0.4734 -0.2398
   41MOL0     C 5333   6.364   4.402   7.172  0.7760  0.2203 -0.2458
   41MOL0     C 5334   5.982   4.636   7.073 -0.1252 -0.0419 -0.1395
   41MOL0     C 5335   5.875   4.593   7.154  0.0801 -0.6185  0.7423
   41MOL0     C 5336   5.752   4.655   7.147  0.2068 -0.7240 -0.8178
   41MOL0     C 5337   5.734   4.762   7.058 -0.0105  0.5230 -0.3059
   41MOL0     O 5338   5.615   4.835   7.036 -0.2739 -0.6373 -0.5375
   41MOL0     C 5339   5.513   4.784   7.112  0.3095  0.0025 -0.3268
   41MOL0     C 5340   5.387   4.867   7.084  0.3516 -0.5950  0.6427
   41MOL0     C 5341   5.267   4.838   7.174  0.0979 -0.1754  0.4852
   41MOL0     C 5342   5.186   4.720   7.130  0.6120  0.8124 -0.1691
   41MOL0     C 5343   5.078   4.688   7.232 -0.7534 -0.3103  0.4956
   41MOL0     C 5344   4.995   4.668   7.313 -0.5040  0.6403 -0.5569
   41MOL0     C 5345   5.842   4.807   6.980  0.1495  0.0304 -0.5688
   41MOL0     C 5346   5.965   4.744   6.989 -0.1535  0.5260 -0.1908
   41MOL0     H 5347   6.129   4.258   6.979 -0.3842 -0.9100 -0.2835
   41MOL0     H 5348   6.328   4.121   6.914 -1.7454 -0.5554  0.6129
   41MOL0     H 5349   6.699   4.134   7.182 -0.6786 -3.6663 -0.6630
   41MOL0     H 5350   6.737   4.260   7.056 -0.7800  0.5454  1.1567
   41MOL0     H 5351   6.804   4.094   6.903  1.4557 -1.2094  0.8876
   41MOL0     H 5352   6.759   3.952   7.007  0.6826 -2.0148 -2.4868
   41MOL0     H 5353   6.919   4.012   7.169  1.7721  0.4113  0.0684
   41MOL0     H 5354   6.941   4.176   7.108 -1.5267  0.3487  0.6527
   41MOL0     H 5355   7.009   3.935   6.930 -3.0817  1.8008 -1.2731
   41MOL0     H 5356   7.063   4.094   6.925  1.5068 -0.8854 -0.3103
   41MOL0     H 5357   7.185   4.067   7.147 -1.0079  2.3338 -3.4443
   41MOL0     H 5358   7.256   3.949   7.037  2.5674  0.6953  2.0746
   41MOL0     H 5359   7.118   3.908   7.294  0.6494  1.8852 -0.3848
   41MOL0     H 5360   7.231   3.813   7.205  0.7269  0.9565  2.8396
   41MOL0     H 5361   6.924   3.808   7.126 -0.8853 -0.5683  0.0312
   41MOL0     H 5362   7.062   3.691   7.097  3.4082  0.9264  2.5529
   41MOL0     H 5363   7.068   3.636   7.325  0.6161  0.4003  1.5780
   41MOL0     H 5364   6.907   3.618   7.258 -0.0551  0.2797 -0.0556
   41MOL0     H 5365   6.711   3.830   7.314 -2.2567 -1.5010  0.4009
   41MOL0     H 5366   6.664   3.987   7.677  0.1160 -1.4365  0.2585
   41MOL0     H 5367   6.560   3.858   7.598 -2.1349  0.9391 -4.9835
   41MOL0     H 5368   6.565   4.000   7.388  0.5367  0.1374  0.0397
   41MOL0     H 5369   6.626   4.127   7.506  1.0756 -0.4262 -1.0559
   41MOL0     H 5370   6.360   3.966   7.506  1.1475  0.5617 -0.1639
   41MOL0     H 5371   6.422   4.057   7.647  2.6224  2.0261  0.2333
   41MOL0     H 5372   6.361   4.184   7.376  0.5080 -3.7658  0.3508
   41MOL0     H 5373   6.433   4.260   7.520  1.1612 -0.5016  0.2411
   41MOL0     H 5374   6.279   4.446   7.445 -0.1949  0.6926 -3.1076
   41MOL0     H 5375   6.120   4.600   7.418  2.1284 -1.1262 -1.4450
   41MOL0     H 5376   5.751   4.827   7.685  1.5200 -0.0068  0.6617
   41MOL0     H 5377   5.604   5.035   7.652  0.9663  1.7388  0.6985
   41MOL0     H 5378   5.474   5.080   7.374 -1.5112  0.3944  2.3735
   41MOL0     H 5379   5.497   5.235   7.279  2.3969 -3.3413 -3.0374
   41MOL0     H 5380   5.415   5.359   7.483 -1.4841  0.8764 -3.1189
   41MOL0     H 5381   5.416   5.205   7.573 -3.3713 -1.3691  0.5474
   41MOL0     H 5382   5.257   5.126   7.375  2.6861  0.3770  0.9854
   41MOL0     H 5383   5.205   5.294   7.378 -1.5209  1.2126  2.6966
   41MOL0     H 5384   5.129   5.262   7.610  2.4781 -1.5207  3.1589
   41MOL0     H 5385   5.068   5.123   7.523  0.2808 -0.0810 -0.8936
   41MOL0     H 5386   5.132   5.065   7.737  0.4689 -1.5994 -1.7157
   41MOL0     H 5387   5.300   5.124   7.719  1.1390  1.0603 -2.1157
   41MOL0     H 5388   5.329   4.965   7.529 -0.7331  2.9788  0.3992
   41MOL0     H 5389   5.177   4.892   7.549 -0.0428  2.5743 -1.4961
   41MOL0     H 5390   5.411   4.898   7.758  1.2091 -0.6142 -1.4734
   41MOL0     H 5391   5.253   4.838   7.806 -1.1878  0.3141 -0.8415
   41MOL0     H 5392   5.433   4.679   7.751 -2.5095 -0.8763  1.3617
   41MOL0     H 5393   5.427   4.725   7.585 -0.4619 -1.9124 -0.7355
   41MOL0     H 5394   5.782   5.083   7.255  2.7958 -0.4846  1.1195
   41MOL0     H 5395   5.894   4.884   7.283  0.0668 -1.0000  0.9697
   41MOL0     H 5396   5.820   4.350   7.588  0.9834 -2.7316  2.2653
   41MOL0     H 5397   5.980   4.174   7.611  4.6381 -1.4624  0.5200
   41MOL0     H 5398   6.571   4.362   7.179 -0.6213  2.3652 -0.3227
   41MOL0     H 5399   6.374   4.491   7.233  4.1470 -0.3516  0.2304
   41MOL0     H 5400   5.879   4.511   7.226  1.0205 -1.3292 -0.0967
   41MOL0     H 5401   5.666   4.624   7.205 -1.1399  2.1183 -1.0848
   41MOL0     H 5402   5.538   4.796   7.218 -0.5337 -0.3787 -0.0788
   41MOL0     H 5403   5.497   4.678   7.092 -1.0118 -0.1228  1.2029
   41MOL0     H 5404   5.415   4.973   7.089  0.2516 -0.5422  0.0652
   41MOL0     H 5405   5.352   4.849   6.983 -2.1828  1.4431  1.0555
   41MOL0     H 5406   5.194   4.917   7.154  0.0493 -0.4982 -0.6392
   41MOL0     H 5407   5.294   4.830   7.280 -0.2031 -0.3096  0.5502
   41MOL0     H 5408   5.139   4.735   7.032 -2.2944  1.9648  1.2890
   41MOL0     H 5409   5.251   4.636   7.102 -1.9668 -0.7053 -2.0693
   41MOL0     H 5410   4.931   4.647   7.396 -1.1916  2.4743 -0.5775
   41MOL0     H 5411   5.842   4.888   6.908  2.2817  0.4343 -0.2109
   41MOL0     H 5412   6.039   4.787   6.923 -0.2122  2.0164  0.6696
   42MOL0     O 5413   9.298   3.975   7.622 -0.2090 -0.0329  0.0180
   42MOL0     C 5414   9.356   3.923   7.714 -0.1149  0.9223 -0.2158
   42MOL0     O 5415   9.309   3.811   7.778 -0.4109  0.0816  0.5679
   42MOL0     C 5416   9.207   3.736   7.728  0.4529  0.0111 -0.5402
   42MOL0     C 5417   9.185   3.687   7.596 -0.0488 -0.0848  0.4836
   42MOL0     C 5418   9.080   3.602   7.562  0.0108  0.2474 -0.1380
   42MOL0     C 5419   8.980   3.564   7.651 -0.1399  0.3283  0.3989
   42MOL0     O 5420   8.877   3.470   7.635  0.7924 -0.8255  0.8490
   42MOL0     C 5421   8.785   3.506   7.535  0.6685 -0.6573 -0.7637
   42MOL0     C 5422   8.636   3.489   7.591  0.3878  0.4233  0.2042
   42MOL0     C 5423   8.527   3.511   7.488 -0.3331 -0.3128  0.5113
   42MOL0     C 5424   8.527   3.657   7.457  0.3360 -0.4666  0.3467
   42MOL0     C 5425   8.400   3.692   7.384 -0.1385 -0.1933 -1.0270
   42MOL0     C 5426   8.383   3.841   7.369 -0.0458 -0.6934 -0.6827
   42MOL0     C 5427   8.262   3.886   7.285  0.1130 -0.3737  0.7957
   42MOL0     C 5428   8.232   4.028   7.324 -0.3271 -0.2933  0.4075
   42MOL0     N 5429   8.101   4.073   7.284 -0.5828 -0.1160  0.2426
   42MOL0     C 5430   7.982   4.025   7.323  0.1523 -0.5067 -0.7459
   42MOL0     C 5431   7.889   4.105   7.271 -0.5374  0.3656  0.2829
   42MOL0     C 5432   7.746   4.105   7.313 -0.0259 -1.1186  0.0083
   42MOL0     C 5433   7.677   4.246   7.314  0.9978  0.0592  1.0950
   42MOL0     C 5434   7.524   4.256   7.352 -0.0162  0.5923  0.0701
   42MOL0     C 5435   7.432   4.169   7.268  0.3516 -0.5890  0.1384
   42MOL0     O 5436   7.403   4.233   7.145  0.2539 -0.2473 -1.3786
   42MOL0     C 5437   7.299   4.319   7.127  0.8927  0.5919  0.1711
   42MOL0     C 5438   7.254   4.309   6.998  0.4691  0.9111  0.2866
   42MOL0     C 5439   7.133   4.365   6.958  0.6407  0.2295 -0.6858
   42MOL0     C 5440   7.056   4.431   7.052  0.3417  1.0463 -0.5292
   42MOL0     C 5441   6.926   4.503   7.025 -0.6167 -0.5527 -0.1934
   42MOL0     O 5442   6.891   4.491   6.891 -0.1820 -0.6440 -0.1077
   42MOL0     C 5443   6.768   4.542   6.853  0.6573 -0.5676  0.0628
   42MOL0     C 5444   6.761   4.600   6.726 -0.5899 -0.1917  0.3686
   42MOL0     C 5445   6.648   4.649   6.671 -0.5092 -0.2896  0.0127
   42MOL0     C 5446   6.527   4.642   6.742  0.0241  0.1251 -0.7521
   42MOL0     O 5447   6.428   4.705   6.673 -0.0826 -0.8623  0.6807
   42MOL0     C 5448   6.288   4.685   6.703 -0.7277 -0.5265 -1.3330
   42MOL0     C 5449   6.197   4.704   6.586 -0.8501  0.3076  0.5856
   42MOL0     C 5450   6.056   4.716   6.641 -0.5138 -0.7102  0.8083
   42MOL0     C 5451   5.947   4.697   6.545 -0.0261  0.3994 -0.1981
   42MOL0     C 5452   5.815   4.754   6.576  0.3208 -0.6208 -0.3764
   42MOL0     C 5453   5.727   4.656   6.655 -0.3605 -0.0584 -0.3459
   42MOL0     C 5454   5.588   4.706   6.686 -0.5224 -0.9497  0.2054
   42MOL0     C 5455   5.499   4.587   6.692  0.3825 -0.8226 -0.9095
   42MOL0    Cl 5456   5.330   4.621   6.730  0.1074 -0.2642  0.0852
   42MOL0     C 5457   6.522   4.583   6.869 -0.5694  0.3257 -0.1147
   42MOL0     C 5458   6.642   4.528   6.919 -0.9649 -0.8157 -0.7728
   42MOL0     O 5459   6.864   4.559   7.119 -0.0000 -0.5196  0.2788
   42MOL0     C 5460   7.111   4.440   7.181  0.2449  0.1016  0.1635
   42MOL0     C 5461   7.226   4.376   7.225 -0.2599  1.0252 -0.6890
   42MOL0     N 5462   7.953   4.184   7.177  0.2115  0.3901 -0.3627
   42MOL0     N 5463   8.082   4.174   7.194  0.1104  0.2648 -0.6161
   42MOL0     C 5464   9.001   3.611   7.781  0.8336  1.0584  0.2647
   42MOL0     C 5465   9.113   3.683   7.820 -0.7310 -0.2027  0.5297
   42MOL0     C 5466   9.490   3.971   7.755 -0.3514 -0.1930 -0.2097
   42MOL0     C 5467   9.557   4.087   7.698  0.3326  0.0795  0.4203
   42MOL0     C 5468   9.675   4.132   7.758 -0.1194  0.2095  0.8572
   42MOL0     C 5469   9.736   4.059   7.856 -0.3027 -0.4628  0.9547
   42MOL0     O 5470   9.852   4.119   7.897 -0.3950 -0.1299 -0.8474
   42MOL0     C 5471   9.946   4.047   7.981 -0.1748  0.2175  0.4736
   42MOL0     C 5472  10.070   4.122   8.015  0.0563  0.1097  1.0377
   42MOL0     C 5473  10.149   4.135   7.880 -0.3317 -0.0776  0.8720
   42MOL0     C 5474  10.302   4.170   7.913  0.1953  0.0233  1.1851
   42MOL0     C 5475  10.307   4.306   7.963 -0.5880  0.0190  0.2182
   42MOL0     C 5476  10.305   4.415   8.021  0.2582 -0.2340  0.0181
   42MOL0     C 5477   9.684   3.947   7.908  0.6626  0.0765 -0.6416
   42MOL0     C 5478   9.562   3.901   7.863 -0.1094  1.1500 -0.8307
   42MOL0     H 5479   9.251   3.705   7.512 -0.0763 -3.5340 -0.4590
   42MOL0     H 5480   9.092   3.567   7.460 -1.7128  1.6188 -0.8491
   42MOL0     H 5481   8.793   3.446   7.444 -1.9815 -1.7714 -0.3553
   42MOL0     H 5482   8.789   3.610   7.501 -2.5675  0.5126  1.8500
   42MOL0     H 5483   8.608   3.561   7.667  1.6056  0.5458  0.5592
   42MOL0     H 5484   8.627   3.390   7.637 -0.1997  0.1961 -0.3769
   42MOL0     H 5485   8.432   3.494   7.538 -1.2647  2.3920 -0.1795
   42MOL0     H 5486   8.550   3.453   7.398 -0.6885 -0.5019  0.5420
   42MOL0     H 5487   8.526   3.707   7.554  1.4845 -0.7263  0.5100
   42MOL0     H 5488   8.616   3.687   7.401  0.1872  0.7138  0.7228
   42MOL0     H 5489   8.318   3.649   7.442 -0.2864 -1.6826 -2.2605
   42MOL0     H 5490   8.393   3.631   7.293 -1.9683 -4.7404  1.8090
   42MOL0     H 5491   8.474   3.874   7.318  0.7575 -1.0174  0.4886
   42MOL0     H 5492   8.373   3.878   7.472 -3.2746 -0.2869 -1.0447
   42MOL0     H 5493   8.290   3.870   7.181  1.4785 -0.9946  1.2402
   42MOL0     H 5494   8.173   3.825   7.306 -0.2957  0.8800  3.0502
   42MOL0     H 5495   8.305   4.096   7.278 -1.6645  0.9506  0.0239
   42MOL0     H 5496   8.249   4.049   7.431 -1.8361 -3.0013  1.2695
   42MOL0     H 5497   7.961   3.944   7.393  0.5083 -0.2071 -0.2901
   42MOL0     H 5498   7.749   4.065   7.414 -1.2818 -0.9302  0.1362
   42MOL0     H 5499   7.693   4.033   7.250  2.9118 -2.2719 -1.3288
   42MOL0     H 5500   7.678   4.289   7.213  0.9958  1.7491  1.7958
   42MOL0     H 5501   7.734   4.316   7.376  0.6804 -0.7566  2.3415
   42MOL0     H 5502   7.513   4.216   7.453  3.7397  3.0023  1.6518
   42MOL0     H 5503   7.497   4.362   7.352  2.1563  1.3132  3.2923
   42MOL0     H 5504   7.330   4.164   7.308 -0.0548  2.4913 -0.2616
   42MOL0     H 5505   7.460   4.064   7.262 -1.0681 -1.0594  1.2196
   42MOL0     H 5506   7.313   4.263   6.920 -0.2408 -0.9412  0.8041
   42MOL0     H 5507   7.091   4.361   6.858 -1.9482  2.6422  0.1706
   42MOL0     H 5508   6.853   4.617   6.670  0.3215 -2.8324  0.9147
   42MOL0     H 5509   6.644   4.691   6.571  0.1055 -0.0812  0.0720
   42MOL0     H 5510   6.261   4.753   6.784 -2.0837 -1.8791 -0.5963
   42MOL0     H 5511   6.268   4.586   6.744  1.1558 -1.0425 -1.5836
   42MOL0     H 5512   6.208   4.617   6.521 -3.0751  0.1058  0.4216
   42MOL0     H 5513   6.233   4.793   6.533  1.6404 -0.1474  1.3836
   42MOL0     H 5514   6.059   4.817   6.683  4.1435  1.2468 -3.1446
   42MOL0     H 5515   6.037   4.646   6.722 -2.1141  2.6219  3.5717
   42MOL0     H 5516   5.979   4.743   6.451  1.8874  0.1894  0.2953
   42MOL0     H 5517   5.943   4.592   6.515  2.4060  1.0443 -3.3721
   42MOL0     H 5518   5.769   4.762   6.477 -1.0823 -0.5200  0.2660
   42MOL0     H 5519   5.828   4.852   6.624 -2.1279 -0.4171  0.0015
   42MOL0     H 5520   5.788   4.629   6.741  1.9317  2.7558 -0.9244
   42MOL0     H 5521   5.731   4.568   6.590  1.7165 -2.0032  2.1957
   42MOL0     H 5522   5.587   4.743   6.789 -1.2367 -4.4028  1.5841
   42MOL0     H 5523   5.551   4.775   6.609  1.1616 -0.0855  0.1254
   42MOL0     H 5524   5.534   4.513   6.764  0.7478  1.2104  1.1345
   42MOL0     H 5525   5.498   4.529   6.599  2.1994 -2.0162 -0.2399
   42MOL0     H 5526   6.442   4.590   6.941  0.5491 -0.4546  1.2496
   42MOL0     H 5527   6.648   4.491   7.021 -3.9093 -1.8801 -0.9194
   42MOL0     H 5528   7.058   4.500   7.255 -0.2993 -1.3316  0.9700
   42MOL0     H 5529   7.276   4.388   7.320  0.2532 -0.2980 -0.7685
   42MOL0     H 5530   8.936   3.570   7.858  1.0854 -0.6739 -0.3987
   42MOL0     H 5531   9.131   3.712   7.923  3.1072 -0.3270  0.0539
   42MOL0     H 5532   9.512   4.145   7.618  2.3827  2.0935  0.6080
   42MOL0     H 5533   9.720   4.224   7.722  0.2825  0.0767  1.0147
   42MOL0     H 5534   9.974   3.953   7.934  0.3381 -0.1366  1.4595
   42MOL0     H 5535   9.899   4.017   8.075 -0.2910  3.8481  1.7559
   42MOL0     H 5536  10.063   4.221   8.061 -1.5659  1.1029 -1.1337
   42MOL0     H 5537  10.136   4.051   8.067 -1.0828 -1.2888  0.6514
   42MOL0     H 5538  10.102   4.210   7.816  1.3886  0.7717  0.5426
   42MOL0     H 5539  10.139   4.045   7.819  1.7169 -0.0965  0.4831
   42MOL0     H 5540  10.336   4.103   7.992 -0.0825  1.4925  2.5888
   42MOL0     H 5541  10.357   4.160   7.819 -0.0494  1.7875  0.8209
   42MOL0     H 5542  10.291   4.514   8.060  1.8455  0.0371 -0.0625
   42MOL0     H 5543   9.726   3.887   7.988 -2.4215 -0.2163  0.8903
   42MOL0     H 5544   9.528   3.806   7.902 -0.6086  1.0058 -1.5980
   43MOL0     O 5545   5.967   0.908   9.709  0.5537 -0.1408 -0.3337
   43MOL0     C 5546   6.051   0.838   9.655 -0.0395 -0.1489  0.5729
   43MOL0     O 5547   6.049   0.703   9.637 -0.7386 -0.9066 -0.5079
   43MOL0     C 5548   5.938   0.642   9.691 -0.4734 -0.0209 -0.6676
   43MOL0     C 5549   5.917   0.601   9.825 -0.3819  0.7380 -0.0904
   43MOL0     C 5550   5.783   0.560   9.861 -0.6147 -0.3848 -0.8107
   43MOL0     C 5551   5.681   0.553   9.774  0.2611 -0.4711  0.5357
   43MOL0     O 5552   5.561   0.515   9.821  0.1107  0.0511  0.5416
   43MOL0     C 5553   5.451   0.561   9.735 -0.3220 -0.0521 -0.0177
   43MOL0     C 5554   5.313   0.505   9.790 -0.5790  0.8926 -0.0069
   43MOL0     C 5555   5.291   0.354   9.736 -0.5452  0.4507 -0.2329
   43MOL0     C 5556   5.204   0.260   9.828  0.1786 -1.6545  0.9750
   43MOL0     C 5557   5.052   0.280   9.815  0.4806 -0.3758  0.2897
   43MOL0     C 5558   4.977   0.184   9.905 -0.4522  0.1250 -0.1460
   43MOL0     C 5559   4.822   0.199   9.899 -0.3894 -0.3518 -0.6278
   43MOL0     C 5560   4.768   0.335   9.942 -0.3905  0.0480 -0.3516
   43MOL0     N 5561   4.622   0.327   9.979  0.3781 -0.6136  0.0850
   43MOL0     C 5562   4.564   0.253  10.082  0.6499  0.0915  0.2566
   43MOL0     C 5563   4.439   0.300  10.098 -0.7375  0.0980 -0.3318
   43MOL0     C 5564   4.352   0.254  10.205 -1.0004  0.4278  0.0458
   43MOL0     C 5565   4.304   0.367  10.289  0.4729  0.4378  0.7604
   43MOL0     C 5566   4.176   0.336  10.372 -0.0700  0.1496  0.1479
   43MOL0     C 5567   4.047   0.374  10.289  0.3280  0.9864 -0.6243
   43MOL0     O 5568   3.939   0.356  10.379 -0.1107  0.0357 -0.6169
   43MOL0     C 5569   3.813   0.346  10.328  0.2939  0.8032  1.2125
   43MOL0     C 5570   3.701   0.324  10.413  0.4926 -0.1595  0.0334
   43MOL0     C 5571   3.573   0.309  10.351 -0.3873 -0.3592 -0.3711
   43MOL0     C 5572   3.559   0.296  10.215  0.0160 -0.6864  0.4809
   43MOL0     C 5573   3.421   0.274  10.159  0.2132  0.0787 -0.3829
   43MOL0     O 5574   3.303   0.287  10.244 -0.3977  0.5108  0.9748
   43MOL0     C 5575   3.181   0.271  10.181  0.1154  0.1066  0.3984
   43MOL0     C 5576   3.089   0.372  10.181  0.6552 -0.4799 -0.2072
   43MOL0     C 5577   2.965   0.353  10.121  0.2157  0.4834  0.7755
   43MOL0     C 5578   2.933   0.241  10.040  0.5132  0.0372 -0.9783
   43MOL0     O 5579   2.816   0.212   9.981  0.2905 -0.2655 -0.4909
   43MOL0     C 5580   2.719   0.319   9.959  0.3981 -0.7222  0.3073
   43MOL0     C 5581   2.586   0.248   9.909  0.2333 -0.2742  0.0367
   43MOL0     C 5582   2.487   0.338   9.832 -0.3684  0.1476  0.2848
   43MOL0     C 5583   2.364   0.249   9.813 -0.2547  0.3633 -0.8105
   43MOL0     C 5584   2.262   0.331   9.743  0.2385  0.2059  0.1600
   43MOL0     C 5585   2.144   0.242   9.702 -0.1370 -0.1756  0.9939
   43MOL0     C 5586   2.012   0.316   9.706 -0.4713  0.0350  0.6620
   43MOL0     C 5587   1.892   0.218   9.692  0.2528 -0.2704  0.6267
   43MOL0    Cl 5588   1.903   0.114   9.542 -0.2223 -0.0683 -0.2106
   43MOL0     C 5589   3.033   0.144  10.038  0.0506 -0.0756 -1.2648
   43MOL0     C 5590   3.157   0.158  10.099 -0.3140 -0.2661  0.0148
   43MOL0     O 5591   3.416   0.252  10.036 -0.0016 -0.1645  0.1494
   43MOL0     C 5592   3.668   0.320  10.135 -0.2012 -0.3153 -0.0357
   43MOL0     C 5593   3.792   0.356  10.185 -0.6559  0.3116 -0.7983
   43MOL0     N 5594   4.427   0.410  10.009 -0.0187 -0.0712 -0.3096
   43MOL0     N 5595   4.540   0.423   9.940  0.1797 -0.7265  0.1367
   43MOL0     C 5596   5.710   0.596   9.640 -0.5765  1.1420 -0.3046
   43MOL0     C 5597   5.834   0.639   9.601  0.0723  0.2862  1.0118
   43MOL0     C 5598   6.174   0.905   9.597 -0.8879  0.2460 -0.5199
   43MOL0     C 5599   6.231   0.854   9.479  0.2128 -0.4335  0.5248
   43MOL0     C 5600   6.346   0.923   9.431  0.9266 -0.1469 -0.2169
   43MOL0     C 5601   6.407   1.019   9.512  0.0973  0.3795  1.0715
   43MOL0     O 5602   6.534   1.062   9.471 -0.3832  0.0189  0.3392
   43MOL0     C 5603   6.566   1.070   9.335  0.6881 -1.2410  0.0763
   43MOL0     C 5604   6.660   1.183   9.309  0.8707  0.0661 -0.9424
   43MOL0     C 5605   6.609   1.326   9.344 -0.2815  0.4909  0.1421
   43MOL0     C 5606   6.716   1.436   9.343 -0.1378  0.2687  0.3478
   43MOL0     C 5607   6.816   1.417   9.450  0.5327 -0.1587  0.4485
   43MOL0     C 5608   6.880   1.410   9.550 -0.8769 -1.0020 -0.2986
   43MOL0     C 5609   6.349   1.059   9.631  0.8690 -0.3661 -0.0681
   43MOL0     C 5610   6.229   1.006   9.669 -0.3320 -0.1067 -0.2974
   43MOL0     H 5611   5.985   0.597   9.909 -2.3203 -2.3692  1.5091
   43MOL0     H 5612   5.765   0.519   9.960  1.5882 -1.4421 -0.7691
   43MOL0     H 5613   5.454   0.527   9.631 -0.3845  2.0776 -0.7491
   43MOL0     H 5614   5.452   0.670   9.736  2.0291 -0.0437  1.2457
   43MOL0     H 5615   5.230   0.570   9.764 -0.2633  1.5647  0.6331
   43MOL0     H 5616   5.311   0.507   9.899 -2.7518 -0.3699  0.0224
   43MOL0     H 5617   5.393   0.315   9.738 -0.7260 -0.0722 -0.8441
   43MOL0     H 5618   5.259   0.354   9.631  4.0424  1.1625 -1.9008
   43MOL0     H 5619   5.228   0.160   9.792 -1.7199 -1.0186 -2.5006
   43MOL0     H 5620   5.230   0.275   9.933  1.5584  2.5235  0.2190
   43MOL0     H 5621   5.023   0.256   9.713 -1.6596 -2.3119  1.2677
   43MOL0     H 5622   5.021   0.383   9.838  1.0928 -0.3971  1.2677
   43MOL0     H 5623   5.016   0.204  10.006 -0.5490 -1.5958  0.2577
   43MOL0     H 5624   4.994   0.080   9.876 -1.4659  0.3199 -1.5530
   43MOL0     H 5625   4.801   0.171   9.795  0.5570 -3.2051 -0.1399
   43MOL0     H 5626   4.788   0.126   9.972  0.9881  0.8100  1.2674
   43MOL0     H 5627   4.796   0.406   9.864  1.3831  1.8502  1.7749
   43MOL0     H 5628   4.820   0.364  10.034 -0.1994  0.8140 -0.6919
   43MOL0     H 5629   4.611   0.168  10.131 -1.8563 -3.3042 -2.7548
   43MOL0     H 5630   4.408   0.184  10.269 -1.0277 -0.4425 -0.8522
   43MOL0     H 5631   4.275   0.198  10.151 -0.8022  2.7411 -2.8956
   43MOL0     H 5632   4.287   0.451  10.222 -0.2585  2.6172  3.4891
   43MOL0     H 5633   4.384   0.395  10.358 -0.9751  1.2566  2.1729
   43MOL0     H 5634   4.155   0.230  10.391 -1.1383 -0.8584 -4.9961
   43MOL0     H 5635   4.182   0.393  10.465  1.6751 -1.7809  1.2975
   43MOL0     H 5636   4.037   0.299  10.210 -1.1688 -1.1480  1.4446
   43MOL0     H 5637   4.052   0.479  10.258 -1.6232  0.8466 -1.5445
   43MOL0     H 5638   3.698   0.310  10.520  1.5180  0.7144  0.1910
   43MOL0     H 5639   3.487   0.290  10.416 -2.2790  2.6144 -1.7932
   43MOL0     H 5640   3.112   0.467  10.227 -1.0900 -0.0677 -0.1552
   43MOL0     H 5641   2.890   0.431  10.129 -0.9070 -0.3005 -1.3343
   43MOL0     H 5642   2.767   0.384   9.885  2.2962 -3.1404 -0.7455
   43MOL0     H 5643   2.691   0.383  10.043  0.6344  0.9174 -0.8156
   43MOL0     H 5644   2.527   0.205   9.990 -0.7460 -0.7133 -0.8907
   43MOL0     H 5645   2.606   0.166   9.839 -2.3013  1.1177 -2.5116
   43MOL0     H 5646   2.534   0.375   9.741  1.2640 -0.0771  0.9842
   43MOL0     H 5647   2.468   0.416   9.906  1.9420  1.0192  0.0393
   43MOL0     H 5648   2.385   0.162   9.749  0.2583 -0.9253  1.0425
   43MOL0     H 5649   2.323   0.206   9.904 -1.7014 -1.9722 -2.4350
   43MOL0     H 5650   2.306   0.373   9.652 -2.1925 -0.4271 -1.3941
   43MOL0     H 5651   2.226   0.412   9.807 -1.1719 -0.6678  0.5262
   43MOL0     H 5652   2.144   0.148   9.758 -0.1223 -1.8642 -1.6677
   43MOL0     H 5653   2.164   0.199   9.604  0.0345  0.3110  0.8109
   43MOL0     H 5654   1.987   0.346   9.808 -0.9974 -3.4041  1.6800
   43MOL0     H 5655   2.011   0.404   9.641 -1.7281 -0.5625 -0.1499
   43MOL0     H 5656   1.809   0.289   9.689  0.4989  0.0593 -2.9343
   43MOL0     H 5657   1.891   0.157   9.783  2.9040  0.0187  0.9254
   43MOL0     H 5658   3.020   0.048   9.989 -0.0772 -0.8592  0.2564
   43MOL0     H 5659   3.237   0.087  10.083 -0.1220  0.3448 -2.0767
   43MOL0     H 5660   3.652   0.310  10.028  0.9311  1.0539 -0.3702
   43MOL0     H 5661   3.862   0.376  10.105 -2.2863  1.8409 -1.8832
   43MOL0     H 5662   5.636   0.596   9.561 -1.0628 -1.4608  0.0580
   43MOL0     H 5663   5.857   0.677   9.501 -1.8430  0.8218  0.7163
   43MOL0     H 5664   6.179   0.768   9.439 -1.6288 -0.6009  3.0817
   43MOL0     H 5665   6.383   0.891   9.335  0.6332 -1.7100  0.1617
   43MOL0     H 5666   6.477   1.094   9.276  1.3453  0.4881 -0.2710
   43MOL0     H 5667   6.602   0.981   9.284  2.2323  0.2537 -1.5920
   43MOL0     H 5668   6.739   1.157   9.380 -0.0637  3.1591  1.4373
   43MOL0     H 5669   6.694   1.179   9.206  4.3896 -3.0275  0.0965
   43MOL0     H 5670   6.566   1.333   9.445 -2.6021  2.5620 -0.8872
   43MOL0     H 5671   6.525   1.348   9.277 -0.0972 -3.3178 -1.6575
   43MOL0     H 5672   6.768   1.456   9.249  3.8515  3.0883  2.8363
   43MOL0     H 5673   6.670   1.531   9.370  0.8407  0.8791 -0.0776
   43MOL0     H 5674   6.949   1.402   9.632  0.4537  1.6017 -1.0512
   43MOL0     H 5675   6.397   1.139   9.687 -1.4142  1.6566 -0.8113
   43MOL0     H 5676   6.177   1.038   9.759  2.5342  4.4059  0.0347
   44MOL0     O 5677   9.508  10.873   0.978 -0.1813 -0.1424 -0.4138
   44MOL0     C 5678   9.624  10.845   0.962 -0.5951 -0.3628  0.2123
   44MOL0     O 5679   9.707  10.919   0.874 -0.3183 -0.3335  0.3300
   44MOL0     C 5680   9.667  11.038   0.826  0.6040 -0.3599 -0.1181
   44MOL0     C 5681   9.626  11.145   0.912 -0.5310  0.7548 -0.7499
   44MOL0     C 5682   9.598  11.274   0.851 -0.1072 -0.1611  0.1030
   44MOL0     C 5683   9.624  11.299   0.714  0.6383  0.5386 -0.0427
   44MOL0     O 5684   9.601  11.426   0.659  0.8466 -0.2952  0.4265
   44MOL0     C 5685   9.610  11.447   0.526 -0.0947  0.2038  0.4216
   44MOL0     C 5686   9.575  11.588   0.491  0.1243  0.1374  0.1587
   44MOL0     C 5687   9.421  11.606   0.513 -0.6377 -1.0817 -0.4427
   44MOL0     C 5688   9.384  11.746   0.462  0.2998 -0.1816 -0.9825
   44MOL0     C 5689   9.234  11.770   0.434  0.3723 -0.6626 -0.2868
   44MOL0     C 5690   9.156  11.773   0.572 -0.5649  0.4733  0.4005
   44MOL0     C 5691   9.010  11.808   0.538 -0.4690 -0.6025  0.2325
   44MOL0     C 5692   8.920  11.740   0.639 -1.0792 -0.2257  0.0081
   44MOL0     N 5693   8.778  11.784   0.614 -0.3883 -0.3465 -0.5876
   44MOL0     C 5694   8.689  11.722   0.536  0.8431 -0.0808  0.0633
   44MOL0     C 5695   8.568  11.755   0.583 -0.0181 -0.2519 -0.0194
   44MOL0     C 5696   8.444  11.706   0.512 -0.0045 -0.3457 -0.0743
   44MOL0     C 5697   8.406  11.568   0.536 -0.3940 -0.0861 -0.5673
   44MOL0     C 5698   8.312  11.545   0.648 -0.5670 -0.2813  0.6235
   44MOL0     C 5699   8.176  11.597   0.605  0.4051  0.3235  0.0577
   44MOL0     O 5700   8.146  11.534   0.482 -0.1300  0.3393 -0.2617
   44MOL0     C 5701   8.019  11.540   0.429  0.0125 -0.7499 -0.4371
   44MOL0     C 5702   7.982  11.446   0.336  0.2060  0.0217 -0.0156
   44MOL0     C 5703   7.850  11.426   0.293 -0.3248 -0.2143  0.5029
   44MOL0     C 5704   7.745  11.503   0.345 -0.0403 -0.5913  0.4543
   44MOL0     C 5705   7.600  11.482   0.308 -0.6497  0.7854 -0.4676
   44MOL0     O 5706   7.568  11.364   0.253 -0.4580 -0.4335  0.6574
   44MOL0     C 5707   7.438  11.331   0.226  0.0623  0.1554  0.8510
   44MOL0     C 5708   7.365  11.406   0.132 -0.0742  0.2848 -0.8939
   44MOL0     C 5709   7.239  11.354   0.084 -0.2365 -0.1194 -0.6130
   44MOL0     C 5710   7.181  11.241   0.131 -0.5927  0.4304 -0.5153
   44MOL0     O 5711   7.067  11.205   0.072  0.1629 -0.2680 -0.1370
   44MOL0     C 5712   6.998  11.080   0.098 -0.2562 -0.6823  0.2349
   44MOL0     C 5713   6.842  11.093   0.101  0.1875 -0.4893  0.3141
   44MOL0     C 5714   6.783  11.176  -0.023 -0.1407 -0.2500 -0.0009
   44MOL0     C 5715   6.645  11.223   0.019 -0.2454  0.0036 -0.1152
   44MOL0     C 5716   6.587  11.305  -0.097 -0.0130  1.2361 -0.4209
   44MOL0     C 5717   6.457  11.383  -0.063  0.5688  0.3937 -0.1558
   44MOL0     C 5718   6.415  11.474  -0.177  1.3248  0.0236  0.2205
   44MOL0     C 5719   6.288  11.544  -0.152  0.1479  0.9358 -0.2603
   44MOL0    Cl 5720   6.285  11.634   0.004 -0.3031  0.0874  0.5350
   44MOL0     C 5721   7.251  11.170   0.228  0.6179  0.2327 -0.3547
   44MOL0     C 5722   7.386  11.210   0.261 -0.2906  0.6929  0.3869
   44MOL0     O 5723   7.524  11.573   0.332  0.0724 -0.6458  0.5797
   44MOL0     C 5724   7.771  11.595   0.446 -0.6933 -0.2914  0.2188
   44MOL0     C 5725   7.909  11.616   0.488 -0.1027  0.4266 -0.1832
   44MOL0     N 5726   8.574  11.855   0.677 -0.1999  0.6281 -0.0460
   44MOL0     N 5727   8.707  11.866   0.699 -0.2361  0.5939 -0.4313
   44MOL0     C 5728   9.663  11.192   0.631  0.2133  0.2221  0.2785
   44MOL0     C 5729   9.673  11.063   0.684 -0.4163 -0.1991 -0.0566
   44MOL0     C 5730   9.677  10.724   1.036 -0.2171 -1.2295 -0.3855
   44MOL0     C 5731   9.800  10.683   1.005 -0.8841 -0.1722  0.7934
   44MOL0     C 5732   9.848  10.566   1.061  0.7288 -0.6658 -0.6123
   44MOL0     C 5733   9.773  10.489   1.143  0.3808 -0.1437 -0.4601
   44MOL0     O 5734   9.834  10.383   1.213  0.2068 -0.2455 -1.0628
   44MOL0     C 5735   9.771  10.319   1.321 -0.0353  0.4960 -0.3304
   44MOL0     C 5736   9.873  10.224   1.379 -0.1080 -0.0530 -0.1829
   44MOL0     C 5737  10.013  10.281   1.374  0.8600  0.0509 -0.3223
   44MOL0     C 5738  10.120  10.199   1.438  0.1377  0.8215 -0.0191
   44MOL0     C 5739  10.128  10.066   1.375  0.0843 -0.3720 -0.2109
   44MOL0     C 5740  10.127   9.955   1.321  0.4438 -0.1880  0.8435
   44MOL0     C 5741   9.648  10.532   1.182  0.6513  0.4148  0.1653
   44MOL0     C 5742   9.594  10.649   1.126  0.0026  0.4937  0.1370
   44MOL0     H 5743   9.619  11.125   1.018  0.5275  2.2063 -0.3634
   44MOL0     H 5744   9.550  11.344   0.919 -3.3088 -2.5216  0.5482
   44MOL0     H 5745   9.534  11.384   0.479 -3.2150  4.0844 -0.3776
   44MOL0     H 5746   9.714  11.435   0.494  1.1958  2.9971  3.0484
   44MOL0     H 5747   9.597  11.613   0.386  0.1783  2.5528  0.6760
   44MOL0     H 5748   9.632  11.661   0.548  1.0827  0.4429 -1.1497
   44MOL0     H 5749   9.403  11.594   0.620  1.3601 -1.5850 -0.1198
   44MOL0     H 5750   9.374  11.537   0.442  1.7151 -0.8345 -2.3619
   44MOL0     H 5751   9.433  11.811   0.535 -0.1714  0.1720 -0.9814
   44MOL0     H 5752   9.440  11.772   0.372  1.3846  1.3837  0.0967
   44MOL0     H 5753   9.193  11.687   0.377  2.8289 -0.9403 -1.7911
   44MOL0     H 5754   9.225  11.857   0.369  1.2774  0.1222  0.5892
   44MOL0     H 5755   9.193  11.857   0.632 -0.6129 -0.3053  1.5581
   44MOL0     H 5756   9.166  11.681   0.631  0.6045  0.7784  0.7082
   44MOL0     H 5757   8.997  11.916   0.548 -0.8190 -0.6280  0.0753
   44MOL0     H 5758   8.985  11.776   0.437  0.6803 -2.8156  0.6025
   44MOL0     H 5759   8.953  11.790   0.731 -0.6726 -0.4724  0.0002
   44MOL0     H 5760   8.939  11.632   0.635  0.0566 -0.1196  1.5611
   44MOL0     H 5761   8.712  11.654   0.455  0.2702 -0.9465  0.6019
   44MOL0     H 5762   8.461  11.716   0.405 -0.4828 -0.1576 -0.1344
   44MOL0     H 5763   8.362  11.770   0.546 -1.6574 -2.4175  0.0068
   44MOL0     H 5764   8.495  11.513   0.570 -0.9503 -0.3385  0.5355
   44MOL0     H 5765   8.375  11.526   0.440  1.7492 -0.1354 -1.3094
   44MOL0     H 5766   8.303  11.441   0.681  0.6328 -0.0082  1.9113
   44MOL0     H 5767   8.354  11.600   0.733 -0.2263  1.8947 -0.8587
   44MOL0     H 5768   8.161  11.701   0.575 -0.7145 -0.3299 -1.8105
   44MOL0     H 5769   8.096  11.572   0.676 -2.8588  1.8164 -2.8114
   44MOL0     H 5770   8.064  11.383   0.304  1.0273  0.0516  1.8968
   44MOL0     H 5771   7.813  11.342   0.234 -2.0581 -0.8508  2.3566
   44MOL0     H 5772   7.404  11.503   0.102  1.6975 -0.4908 -1.1716
   44MOL0     H 5773   7.181  11.399   0.004  1.7320  2.0063 -0.9515
   44MOL0     H 5774   7.029  11.035   0.193  1.9035 -0.7412 -0.4498
   44MOL0     H 5775   7.036  11.014   0.019  1.9501 -0.1301  0.7729
   44MOL0     H 5776   6.809  11.146   0.191  4.5242  3.4957 -0.1081
   44MOL0     H 5777   6.800  10.992   0.115 -1.0050 -0.1977 -0.9426
   44MOL0     H 5778   6.784  11.106  -0.108 -1.4871 -2.9197  2.0107
   44MOL0     H 5779   6.843  11.265  -0.042 -3.2187  2.0255  0.2790
   44MOL0     H 5780   6.587  11.133   0.045  0.3411  0.4709  3.3390
   44MOL0     H 5781   6.641  11.281   0.112  0.8560  2.2388 -1.3907
   44MOL0     H 5782   6.567  11.244  -0.186 -0.4740  0.4015  0.2387
   44MOL0     H 5783   6.661  11.379  -0.128 -0.3038  0.6047 -2.8189
   44MOL0     H 5784   6.476  11.445   0.025  0.9522  0.0925 -0.0239
   44MOL0     H 5785   6.374  11.312  -0.048 -0.2810  1.0474 -1.5876
   44MOL0     H 5786   6.488  11.548  -0.210 -0.2830  0.8743 -1.6690
   44MOL0     H 5787   6.399  11.413  -0.266  1.0491  0.7872 -0.2604
   44MOL0     H 5788   6.210  11.467  -0.151  2.8147 -1.9999 -1.2391
   44MOL0     H 5789   6.276  11.612  -0.237 -1.4247 -0.4079 -1.1782
   44MOL0     H 5790   7.208  11.077   0.267 -1.4067  0.3793 -2.0675
   44MOL0     H 5791   7.447  11.149   0.327  1.7013 -1.3024 -2.9914
   44MOL0     H 5792   7.697  11.644   0.508  0.5169 -2.6801  3.9288
   44MOL0     H 5793   7.933  11.691   0.563 -1.4678  0.5903  0.1031
   44MOL0     H 5794   9.673  11.203   0.523 -0.4404 -1.8977 -0.0330
   44MOL0     H 5795   9.703  10.984   0.615 -1.8636 -0.1482 -0.7881
   44MOL0     H 5796   9.863  10.739   0.936 -2.1947  0.7075  0.2664
   44MOL0     H 5797   9.947  10.531   1.030  0.8636 -1.1391  0.3339
   44MOL0     H 5798   9.679  10.268   1.293  0.9890 -2.0900  0.7277
   44MOL0     H 5799   9.741  10.394   1.395 -0.2922  0.0811 -0.0091
   44MOL0     H 5800   9.852  10.202   1.484  1.6853 -1.0777 -0.0024
   44MOL0     H 5801   9.859  10.128   1.329 -3.3343  0.5028 -0.5976
   44MOL0     H 5802  10.022  10.384   1.411  1.2262 -0.6141  1.5238
   44MOL0     H 5803  10.049  10.292   1.271 -1.0948  3.0713 -0.8001
   44MOL0     H 5804  10.217  10.248   1.423  0.4125 -0.0531 -1.2870
   44MOL0     H 5805  10.108  10.200   1.546  0.6734  2.6551  0.0622
   44MOL0     H 5806  10.112   9.860   1.273  0.1129  0.7464 -1.0132
   44MOL0     H 5807   9.570  10.492   1.247  1.3500  0.3112  0.9569
   44MOL0     H 5808   9.490  10.677   1.138 -1.1312 -3.5961  1.3745
   45MOL0     O 5809   4.384   7.590   6.007  0.1976  0.3997  0.2427
   45MOL0     C 5810   4.478   7.631   5.936  0.2085 -1.0735  0.0503
   45MOL0     O 5811   4.469   7.676   5.807 -0.0271 -0.1135 -0.5781
   45MOL0     C 5812   4.359   7.662   5.724  0.5477  0.9493 -0.0672
   45MOL0     C 5813   4.221   7.650   5.758 -0.3937  0.0503 -0.3369
   45MOL0     C 5814   4.119   7.660   5.661 -0.3247 -0.1594 -0.1367
   45MOL0     C 5815   4.159   7.661   5.526  0.1437 -0.4715 -0.0766
   45MOL0     O 5816   4.068   7.676   5.426  0.1378 -0.5127  0.0278
   45MOL0     C 5817   3.925   7.664   5.442  0.7224  0.0387  0.8002
   45MOL0     C 5818   3.871   7.525   5.459 -0.4143 -0.0832  0.6289
   45MOL0     C 5819   3.716   7.521   5.484 -0.2343 -0.6914 -0.5031
   45MOL0     C 5820   3.628   7.590   5.384  0.6618 -0.4165 -0.3402
   45MOL0     C 5821   3.484   7.568   5.414  0.1076 -0.0187  0.2031
   45MOL0     C 5822   3.420   7.427   5.387 -0.0924  0.0105  0.5572
   45MOL0     C 5823   3.271   7.446   5.423  0.5599 -0.2680 -0.0282
   45MOL0     C 5824   3.208   7.311   5.402  0.1303 -0.3981 -0.1928
   45MOL0     N 5825   3.072   7.301   5.453 -0.3754 -0.1111 -0.2831
   45MOL0     C 5826   3.028   7.222   5.561 -0.3673 -0.3638  0.5006
   45MOL0     C 5827   2.899   7.228   5.564 -0.2884  0.1992  0.2416
   45MOL0     C 5828   2.816   7.140   5.645 -0.0817 -0.0785 -0.2714
   45MOL0     C 5829   2.696   7.220   5.690  0.8746 -0.4088 -0.5915
   45MOL0     C 5830   2.595   7.130   5.769 -0.7402  0.6635  0.2293
   45MOL0     C 5831   2.464   7.195   5.803 -1.1152 -0.0463  0.8117
   45MOL0     O 5832   2.408   7.114   5.904 -0.0108 -0.8184 -0.7772
   45MOL0     C 5833   2.281   7.143   5.949  0.8278  0.4606  0.1124
   45MOL0     C 5834   2.203   7.259   5.939 -0.1230  0.9617  0.2358
   45MOL0     C 5835   2.087   7.279   6.010 -0.3474 -0.3981 -1.0525
   45MOL0     C 5836   2.033   7.184   6.095 -0.6809 -0.1311  0.1995
   45MOL0     C 5837   1.916   7.197   6.180  0.1281  0.1533  0.4003
   45MOL0     O 5838   1.841   7.091   6.217  0.4908  0.3593 -0.3642
   45MOL0     C 5839   1.725   7.123   6.284 -0.3813  0.3104  0.2804
   45MOL0     C 5840   1.727   7.109   6.421  0.3488  0.8424 -0.2171
   45MOL0     C 5841   1.604   7.131   6.489 -1.0840  0.4397  0.2885
   45MOL0     C 5842   1.490   7.195   6.426  0.4807 -0.1926 -0.1699
   45MOL0     O 5843   1.383   7.246   6.497 -0.0054  0.1313  0.1552
   45MOL0     C 5844   1.355   7.197   6.632  0.9703 -0.5090 -0.9041
   45MOL0     C 5845   1.244   7.287   6.697  0.3688  0.8335  0.2804
   45MOL0     C 5846   1.111   7.257   6.635 -0.2773 -0.1346  0.3203
   45MOL0     C 5847   0.996   7.343   6.697 -0.4111  0.2788  0.3287
   45MOL0     C 5848   0.861   7.267   6.678 -0.0372 -0.4865  0.3665
   45MOL0     C 5849   0.743   7.347   6.715 -0.6191  0.4859 -0.1582
   45MOL0     C 5850   0.616   7.263   6.700  0.4171  0.7403  0.9382
   45MOL0     C 5851   0.491   7.345   6.749 -0.4605 -0.3150  0.1670
   45MOL0    Cl 5852   0.449   7.493   6.655 -0.0400 -0.3316  0.5740
   45MOL0     C 5853   1.498   7.209   6.287  1.1655  0.2289  0.4828
   45MOL0     C 5854   1.614   7.177   6.219  0.0672  0.3802 -0.6308
   45MOL0     O 5855   1.903   7.316   6.220  0.3313  0.0756  0.4505
   45MOL0     C 5856   2.106   7.060   6.105 -0.1329 -0.4117  1.2112
   45MOL0     C 5857   2.225   7.046   6.030  0.8931 -0.1063 -0.2927
   45MOL0     N 5858   2.868   7.312   5.461 -0.0664  0.2915  0.2314
   45MOL0     N 5859   2.963   7.350   5.395 -0.5653  0.4749 -1.0798
   45MOL0     C 5860   4.294   7.666   5.495 -0.3048 -0.3447  0.5702
   45MOL0     C 5861   4.391   7.674   5.588  0.0198 -0.7910  0.6666
   45MOL0     C 5862   4.615   7.658   5.996  0.8610  0.0250 -0.1465
   45MOL0     C 5863   4.644   7.609   6.128  0.7504 -0.4552  0.2464
   45MOL0     C 5864   4.771   7.620   6.185  0.3102  0.3070 -0.0396
   45MOL0     C 5865   4.863   7.698   6.134 -0.4832  0.1605 -0.9294
   45MOL0     O 5866   4.984   7.713   6.203 -0.3840 -0.2734  0.0391
   45MOL0     C 5867   5.091   7.787   6.140  0.1577  0.3211 -0.5315
   45MOL0     C 5868   5.203   7.804   6.244 -1.2682  0.6239 -0.6137
   45MOL0     C 5869   5.322   7.875   6.177  0.3134  0.7089  0.1050
   45MOL0     C 5870   5.440   7.905   6.281  1.0939  1.0705 -0.2852
   45MOL0     C 5871   5.396   8.008   6.383  0.0553 -0.8289 -0.2449
   45MOL0     C 5872   5.357   8.097   6.457 -0.2093  0.0759 -0.7731
   45MOL0     C 5873   4.840   7.749   6.004 -0.4843  0.1528 -0.0650
   45MOL0     C 5874   4.714   7.733   5.934  0.5346 -0.2459 -0.5038
   45MOL0     H 5875   4.193   7.655   5.863 -1.9682 -1.1023 -0.6798
   45MOL0     H 5876   4.018   7.639   5.696 -0.0501 -0.3738  0.5428
   45MOL0     H 5877   3.877   7.708   5.353 -0.8148 -0.5085  1.3193
   45MOL0     H 5878   3.892   7.723   5.528  0.1208 -2.5006  2.3966
   45MOL0     H 5879   3.922   7.477   5.543  0.1105  4.4018  3.1649
   45MOL0     H 5880   3.890   7.466   5.369  1.6963  2.5725 -0.8466
   45MOL0     H 5881   3.701   7.552   5.588 -1.0227 -1.0498 -0.5018
   45MOL0     H 5882   3.681   7.418   5.487 -0.5996 -0.5593 -0.2189
   45MOL0     H 5883   3.642   7.698   5.393  0.9248 -0.4854  0.1285
   45MOL0     H 5884   3.646   7.564   5.280  0.1841  0.5215 -0.6628
   45MOL0     H 5885   3.426   7.636   5.351  1.0685 -2.0477 -3.1102
   45MOL0     H 5886   3.470   7.589   5.520  1.2421  0.0112  0.3533
   45MOL0     H 5887   3.458   7.340   5.442 -0.2352 -0.2322  0.2793
   45MOL0     H 5888   3.431   7.412   5.279  1.9646  1.6681  0.4722
   45MOL0     H 5889   3.278   7.470   5.530  0.8721 -0.4703 -0.0020
   45MOL0     H 5890   3.225   7.526   5.365  1.7754 -0.5723 -1.4611
   45MOL0     H 5891   3.259   7.239   5.466 -0.2039 -0.4139  0.0586
   45MOL0     H 5892   3.214   7.281   5.297  2.2357 -1.4828  0.1867
   45MOL0     H 5893   3.093   7.161   5.623  0.3150 -1.4146 -1.1985
   45MOL0     H 5894   2.872   7.126   5.738 -1.0724  1.4607  0.5977
   45MOL0     H 5895   2.787   7.046   5.598  1.5354 -0.5683 -0.3387
   45MOL0     H 5896   2.642   7.267   5.608  0.6342 -2.3547 -1.6088
   45MOL0     H 5897   2.728   7.297   5.761 -0.0661  0.9282 -1.5668
   45MOL0     H 5898   2.581   7.035   5.716  0.5986  1.9205 -2.5603
   45MOL0     H 5899   2.639   7.110   5.867 -0.0088 -2.0111 -0.5535
   45MOL0     H 5900   2.404   7.191   5.712 -1.1906 -1.6193  0.9029
   45MOL0     H 5901   2.487   7.294   5.844 -1.6168  0.0417  0.8886
   45MOL0     H 5902   2.249   7.336   5.876  2.0371 -1.3599 -1.2072
   45MOL0     H 5903   2.029   7.369   5.995 -0.6814 -0.7623 -2.0604
   45MOL0     H 5904   1.805   7.055   6.473 -0.9704  0.3567  1.3639
   45MOL0     H 5905   1.608   7.114   6.597 -2.1396 -0.9940  0.1386
   45MOL0     H 5906   1.445   7.201   6.694 -1.7101  0.9052  3.3192
   45MOL0     H 5907   1.330   7.091   6.631  1.0791 -0.5357 -1.4822
   45MOL0     H 5908   1.275   7.392   6.688  0.4893  0.7655 -0.1189
   45MOL0     H 5909   1.241   7.273   6.806 -1.1346 -1.1804  0.0418
   45MOL0     H 5910   1.090   7.151   6.648  0.8859 -0.2029  1.9947
   45MOL0     H 5911   1.116   7.284   6.529 -3.3276  1.0989  0.4017
   45MOL0     H 5912   1.021   7.345   6.804 -1.0000  0.6550  0.4628
   45MOL0     H 5913   0.992   7.442   6.652 -1.6023 -0.3241 -0.9554
   45MOL0     H 5914   0.871   7.178   6.741  3.0849  1.1160  2.4249
   45MOL0     H 5915   0.851   7.241   6.573 -1.2733 -0.3309  0.4313
   45MOL0     H 5916   0.728   7.432   6.648  0.6093 -0.1587 -1.3144
   45MOL0     H 5917   0.745   7.373   6.821 -1.5249 -0.1808  0.0375
   45MOL0     H 5918   0.600   7.226   6.598  0.5170  0.4052  1.0452
   45MOL0     H 5919   0.631   7.165   6.744  0.0069 -0.1537 -0.8030
   45MOL0     H 5920   0.506   7.363   6.856  1.7748 -2.0108  0.2232
   45MOL0     H 5921   0.402   7.284   6.735  0.0484 -1.1312  0.3766
   45MOL0     H 5922   1.410   7.248   6.237  1.5588  0.4306 -0.0599
   45MOL0     H 5923   1.620   7.199   6.113 -2.9922 -0.9312 -1.1941
   45MOL0     H 5924   2.062   6.981   6.165  1.6149 -0.5116  2.4555
   45MOL0     H 5925   2.275   6.950   6.033  0.6974 -0.1998  0.3202
   45MOL0     H 5926   4.323   7.664   5.391 -1.7408 -1.7361  0.1423
   45MOL0     H 5927   4.492   7.693   5.555  0.6006  0.3134  2.8988
   45MOL0     H 5928   4.564   7.556   6.179  0.2020  0.0419 -0.0887
   45MOL0     H 5929   4.800   7.579   6.281  1.1706  1.0580  0.0426
   45MOL0     H 5930   5.060   7.887   6.109 -2.3407 -0.5319 -0.9865
   45MOL0     H 5931   5.129   7.724   6.059 -1.3619  0.2000 -1.1670
   45MOL0     H 5932   5.161   7.868   6.322  4.5870  1.8735  2.1087
   45MOL0     H 5933   5.241   7.709   6.282  0.5880  1.5641  0.0225
   45MOL0     H 5934   5.285   7.962   6.122  0.3715 -0.2153 -1.4743
   45MOL0     H 5935   5.367   7.806   6.105 -1.7386  0.2004 -0.7683
   45MOL0     H 5936   5.460   7.821   6.348 -1.2150  0.6760  0.0132
   45MOL0     H 5937   5.534   7.935   6.235  0.7052  1.5848 -0.7586
   45MOL0     H 5938   5.328   8.182   6.515 -1.4859  0.1475 -1.5061
   45MOL0     H 5939   4.922   7.801   5.956 -2.5191  3.0451 -0.7048
   45MOL0     H 5940   4.701   7.771   5.833  0.2836  2.8784  0.5955
   46MOL0     O 5941   2.712   8.429   7.989 -0.8122 -0.0344 -0.0644
   46MOL0     C 5942   2.730   8.542   7.943 -0.0683 -0.0679 -0.0364
   46MOL0     O 5943   2.638   8.614   7.881  0.0731 -0.4323  0.5038
   46MOL0     C 5944   2.507   8.588   7.907 -0.2471  1.0625  0.0259
   46MOL0     C 5945   2.416   8.596   7.800 -0.0941  0.4764  0.1440
   46MOL0     C 5946   2.279   8.592   7.817  0.2329  0.4625 -0.1500
   46MOL0     C 5947   2.221   8.560   7.949 -0.5640 -0.4518  0.1806
   46MOL0     O 5948   2.084   8.533   7.973  0.0011 -0.2856  0.0181
   46MOL0     C 5949   1.986   8.548   7.859  0.2153 -0.1867  0.3803
   46MOL0     C 5950   1.858   8.462   7.897  0.5696  0.0568  0.8802
   46MOL0     C 5951   1.796   8.502   8.030  0.1598  0.3656  0.1930
   46MOL0     C 5952   1.665   8.427   8.062 -0.2969 -0.2952  0.1033
   46MOL0     C 5953   1.685   8.277   8.029 -0.9129 -0.1825  0.7902
   46MOL0     C 5954   1.555   8.192   8.070  0.1773 -0.8117 -0.3567
   46MOL0     C 5955   1.579   8.038   8.046 -0.0751 -0.3148  0.2383
   46MOL0     C 5956   1.655   7.982   8.169  0.1580  0.1654 -0.2589
   46MOL0     N 5957   1.608   7.845   8.196  0.2794 -0.0077  0.0131
   46MOL0     C 5958   1.479   7.789   8.202  0.0297 -1.2734 -0.8483
   46MOL0     C 5959   1.504   7.658   8.206  1.0800 -0.6614 -0.6476
   46MOL0     C 5960   1.401   7.544   8.226 -0.2829 -0.2490  0.1030
   46MOL0     C 5961   1.417   7.479   8.360 -0.7593 -0.0416  0.0690
   46MOL0     C 5962   1.397   7.580   8.473  0.2485  0.0120  0.2388
   46MOL0     C 5963   1.252   7.641   8.467 -0.1609 -0.5535 -0.1727
   46MOL0     O 5964   1.152   7.541   8.477  0.2521 -0.3356 -0.1940
   46MOL0     C 5965   1.022   7.591   8.481  0.2435 -0.1463  0.5232
   46MOL0     C 5966   0.955   7.621   8.368 -0.1284 -0.5700  0.4130
   46MOL0     C 5967   0.818   7.660   8.373  0.5571 -0.2632 -0.5256
   46MOL0     C 5968   0.751   7.659   8.493  0.2831 -0.4984 -1.2306
   46MOL0     C 5969   0.611   7.675   8.493  0.2690 -0.4772 -0.0696
   46MOL0     O 5970   0.551   7.654   8.371 -0.2434 -0.2791 -0.0596
   46MOL0     C 5971   0.417   7.671   8.368  0.3328  0.2897  0.1411
   46MOL0     C 5972   0.319   7.596   8.430  1.2125 -0.4868 -0.4386
   46MOL0     C 5973   0.184   7.601   8.383 -0.3835  0.5567  0.6472
   46MOL0     C 5974   0.143   7.680   8.285 -0.6492  0.5266 -0.3758
   46MOL0     O 5975   0.010   7.687   8.251  0.6263  0.1177 -0.1059
   46MOL0     C 5976  -0.021   7.776   8.135 -0.3878  0.6769 -0.0042
   46MOL0     C 5977  -0.175   7.787   8.127 -0.2259 -1.2333 -0.3839
   46MOL0     C 5978  -0.243   7.653   8.116 -0.3633 -0.4927 -0.3013
   46MOL0     C 5979  -0.364   7.638   8.200 -1.0617 -0.2303  0.0293
   46MOL0     C 5980  -0.437   7.507   8.170 -0.4451 -0.2575 -0.7758
   46MOL0     C 5981  -0.576   7.491   8.245  0.6370  0.8634  0.5210
   46MOL0     C 5982  -0.633   7.346   8.225 -0.0606  0.4092  0.4403
   46MOL0     C 5983  -0.781   7.325   8.269 -0.3845  0.0911  0.4752
   46MOL0    Cl 5984  -0.776   7.357   8.431 -0.3929  0.0216 -0.0988
   46MOL0     C 5985   0.238   7.749   8.219  0.5026 -0.4105  0.6626
   46MOL0     C 5986   0.374   7.750   8.265  0.4501  0.1456  0.5698
   46MOL0     O 5987   0.554   7.690   8.604  0.1240 -0.1983  0.0078
   46MOL0     C 5988   0.819   7.617   8.613  0.0144 -1.0969  0.3868
   46MOL0     C 5989   0.955   7.590   8.602  0.0214 -0.0869 -0.2891
   46MOL0     N 5990   1.643   7.635   8.212  0.2451 -0.0489 -0.0894
   46MOL0     N 5991   1.702   7.745   8.214 -0.5515 -0.3676 -0.3875
   46MOL0     C 5992   2.316   8.551   8.053 -0.3291  0.2389  0.1241
   46MOL0     C 5993   2.457   8.558   8.033  0.4771 -0.5468 -0.5825
   46MOL0     C 5994   2.869   8.605   7.953  0.0147 -0.1227  0.9156
   46MOL0     C 5995   2.925   8.699   7.862  0.2289 -0.0900  0.1403
   46MOL0     C 5996   3.057   8.734   7.863  0.2653 -0.2122 -1.2943
   46MOL0     C 5997   3.134   8.673   7.957  0.6020  0.3997 -0.7823
   46MOL0     O 5998   3.270   8.664   7.952  0.0741 -0.3573 -0.4844
   46MOL0     C 5999   3.334   8.789   7.925  0.1951  0.2605 -0.3896
   46MOL0     C 6000   3.474   8.791   7.987 -0.2097 -0.0943  0.4212
   46MOL0     C 6001   3.557   8.665   7.943 -0.0508  0.5496 -0.3240
   46MOL0     C 6002   3.697   8.661   8.011 -0.7531  0.3680 -0.1276
   46MOL0     C 6003   3.694   8.617   8.149  0.6735 -0.1165  0.1276
   46MOL0     C 6004   3.662   8.617   8.268 -0.8091  0.6502  0.6250
   46MOL0     C 6005   3.084   8.591   8.064  0.0855 -1.2588  0.2576
   46MOL0     C 6006   2.950   8.553   8.049  0.1213  0.6675 -1.0695
   46MOL0     H 6007   2.448   8.637   7.705 -0.2680  0.2867  0.0037
   46MOL0     H 6008   2.220   8.612   7.728  2.9721  0.5516 -2.0380
   46MOL0     H 6009   2.025   8.503   7.767  2.3092 -0.9090  1.5644
   46MOL0     H 6010   1.969   8.656   7.849  0.9424 -0.0194  0.8655
   46MOL0     H 6011   1.895   8.359   7.898 -0.0607 -0.1948 -0.3853
   46MOL0     H 6012   1.784   8.461   7.817 -0.6599 -1.4148  1.9834
   46MOL0     H 6013   1.775   8.609   8.034 -1.3099  0.1373 -0.7495
   46MOL0     H 6014   1.870   8.475   8.106 -2.9985 -0.6861  3.1697
   46MOL0     H 6015   1.635   8.443   8.165 -0.3280  0.4425 -0.0137
   46MOL0     H 6016   1.588   8.473   8.000  1.0631  2.9817  0.5904
   46MOL0     H 6017   1.780   8.245   8.074  0.1259 -1.4884 -2.1173
   46MOL0     H 6018   1.702   8.258   7.923  1.5990  2.2394  0.6522
   46MOL0     H 6019   1.479   8.220   7.997  0.9933  2.2049 -0.1826
   46MOL0     H 6020   1.521   8.224   8.169  1.1086  1.3583 -0.6875
   46MOL0     H 6021   1.481   7.989   8.046  0.4060 -1.3019  0.0023
   46MOL0     H 6022   1.635   8.015   7.955  0.3817 -0.3346  0.5198
   46MOL0     H 6023   1.629   8.036   8.260  1.6918 -0.5989  0.6778
   46MOL0     H 6024   1.764   7.987   8.159  0.1845 -2.9573 -4.8587
   46MOL0     H 6025   1.382   7.836   8.215  0.6970  0.1698 -0.9275
   46MOL0     H 6026   1.426   7.472   8.148  0.9079  1.9669 -1.7026
   46MOL0     H 6027   1.298   7.576   8.207  0.2151  1.4725  0.1096
   46MOL0     H 6028   1.514   7.430   8.369 -0.1842  1.2062  1.0163
   46MOL0     H 6029   1.342   7.400   8.372  0.5631 -1.2342  0.7520
   46MOL0     H 6030   1.413   7.525   8.566  2.3498 -2.3749 -1.4176
   46MOL0     H 6031   1.470   7.661   8.473  1.7056 -1.0255  4.2819
   46MOL0     H 6032   1.244   7.714   8.386  2.3175  0.7638  0.6605
   46MOL0     H 6033   1.249   7.697   8.561  0.5468 -0.8404  0.0280
   46MOL0     H 6034   1.013   7.610   8.277  0.2516  0.4962  0.5023
   46MOL0     H 6035   0.765   7.700   8.287 -0.1187  0.3314  0.1498
   46MOL0     H 6036   0.343   7.530   8.514 -1.5418 -0.0306  0.8204
   46MOL0     H 6037   0.093   7.558   8.424 -3.0161  1.4772 -3.6197
   46MOL0     H 6038   0.018   7.729   8.044  2.7841  1.7277  0.6734
   46MOL0     H 6039   0.017   7.879   8.131 -2.2019  1.4546  1.1968
   46MOL0     H 6040  -0.211   7.861   8.055 -1.1978 -0.2010  1.0987
   46MOL0     H 6041  -0.200   7.830   8.225  1.7511 -1.1071  0.1068
   46MOL0     H 6042  -0.176   7.567   8.121  0.1682 -0.0723 -0.0398
   46MOL0     H 6043  -0.277   7.660   8.012  0.3393  2.1756 -0.4265
   46MOL0     H 6044  -0.339   7.653   8.305  2.8480  0.3717 -0.8029
   46MOL0     H 6045  -0.425   7.723   8.170 -0.3384 -0.2686 -1.6790
   46MOL0     H 6046  -0.371   7.428   8.206  1.8501  2.7250  2.2158
   46MOL0     H 6047  -0.450   7.492   8.063  0.4183 -1.4767 -0.7301
   46MOL0     H 6048  -0.649   7.562   8.206 -0.5066  0.1809  1.3785
   46MOL0     H 6049  -0.564   7.512   8.351 -2.8550  1.4416  0.9083
   46MOL0     H 6050  -0.621   7.322   8.119  1.0611  1.4390  0.3095
   46MOL0     H 6051  -0.562   7.280   8.275 -0.1332  1.3381  1.8436
   46MOL0     H 6052  -0.832   7.231   8.247 -2.1920  0.9494  0.7968
   46MOL0     H 6053  -0.853   7.399   8.232 -0.4657 -0.5879 -0.7627
   46MOL0     H 6054   0.224   7.820   8.138  1.2525 -0.5340  0.4193
   46MOL0     H 6055   0.444   7.815   8.213  0.1507 -0.0021 -0.0258
   46MOL0     H 6056   0.769   7.616   8.709 -0.3505  0.7056  0.2523
   46MOL0     H 6057   1.001   7.551   8.693 -0.6057 -3.2756 -1.2034
   46MOL0     H 6058   2.283   8.519   8.152  2.9228 -1.0885  0.9282
   46MOL0     H 6059   2.527   8.556   8.115 -1.7179  0.2012  1.4137
   46MOL0     H 6060   2.867   8.731   7.776 -0.5213  1.9109  1.3314
   46MOL0     H 6061   3.090   8.788   7.775  0.2045  0.2439 -1.0406
   46MOL0     H 6062   3.276   8.876   7.956  1.0536  2.0750 -3.3895
   46MOL0     H 6063   3.341   8.786   7.816 -0.7462 -0.5829 -0.4385
   46MOL0     H 6064   3.529   8.880   7.954 -1.1205  0.0603 -0.7541
   46MOL0     H 6065   3.463   8.792   8.095 -0.1526  0.7392  0.4215
   46MOL0     H 6066   3.565   8.658   7.835 -0.5496  0.5285 -0.3597
   46MOL0     H 6067   3.500   8.575   7.967  1.8040 -0.5665  0.0354
   46MOL0     H 6068   3.767   8.592   7.963  0.1895  1.5005 -0.4261
   46MOL0     H 6069   3.744   8.759   8.014 -0.4186  0.3888 -3.0901
   46MOL0     H 6070   3.654   8.613   8.375 -1.6130  0.7705  0.5709
   46MOL0     H 6071   3.147   8.549   8.142  0.7899 -2.1764 -0.7726
   46MOL0     H 6072   2.897   8.488   8.117 -1.0652  0.2545 -2.3399
   47MOL0     O 6073   1.809   8.766   6.878  0.0375  0.1736  0.1406
   47MOL0     C 6074   1.794   8.863   6.957 -0.1078  0.3313  0.4326
   47MOL0     O 6075   1.674   8.912   7.002 -0.5388  0.4293 -0.7341
   47MOL0     C 6076   1.556   8.875   6.947 -0.4746  0.2404  0.3350
   47MOL0     C 6077   1.460   8.975   6.944 -0.7993 -0.0328 -0.0705
   47MOL0     C 6078   1.325   8.940   6.929 -0.2566  0.5496  0.0837
   47MOL0     C 6079   1.285   8.807   6.915  0.6833  0.9703  0.2349
   47MOL0     O 6080   1.147   8.782   6.907 -0.2771 -0.2537 -0.5381
   47MOL0     C 6081   1.082   8.806   7.036 -0.3325  0.1860 -0.3540
   47MOL0     C 6082   0.962   8.711   7.052 -0.1555  0.2818 -0.8247
   47MOL0     C 6083   0.841   8.737   6.951  0.3775 -0.4316 -0.5178
   47MOL0     C 6084   0.777   8.867   6.982 -0.1028  0.5892  0.1733
   47MOL0     C 6085   0.647   8.909   6.899 -0.0673  0.3231 -0.2741
   47MOL0     C 6086   0.538   8.802   6.906  0.3960 -0.1413  0.4512
   47MOL0     C 6087   0.434   8.834   6.786  0.1786 -0.6313 -0.2676
   47MOL0     C 6088   0.334   8.724   6.794 -0.0507  0.4546 -0.0710
   47MOL0     N 6089   0.222   8.755   6.708 -0.1585  0.1901 -0.2290
   47MOL0     C 6090   0.219   8.728   6.573 -0.8429 -0.9571 -0.1925
   47MOL0     C 6091   0.092   8.749   6.538  0.0177 -0.6705 -0.5227
   47MOL0     C 6092   0.044   8.723   6.398  0.4289  0.4433 -0.3739
   47MOL0     C 6093   0.071   8.857   6.320  0.3106  0.1045  0.2737
   47MOL0     C 6094  -0.033   8.971   6.348 -0.5781 -1.0760  0.6036
   47MOL0     C 6095   0.023   9.113   6.313 -0.3646 -0.2320 -0.1663
   47MOL0     O 6096   0.079   9.104   6.177 -0.8881  0.3892 -0.7804
   47MOL0     C 6097   0.168   9.203   6.158  0.4719 -0.1914  0.7495
   47MOL0     C 6098   0.114   9.309   6.084 -0.5006 -0.8977 -0.0169
   47MOL0     C 6099   0.208   9.410   6.034  0.5106 -0.1086  0.2232
   47MOL0     C 6100   0.350   9.410   6.063  0.3307 -0.0253  0.3892
   47MOL0     C 6101   0.454   9.500   6.001 -0.3257  0.2611 -0.8186
   47MOL0     O 6102   0.580   9.457   6.015  0.1937 -0.4207 -0.1336
   47MOL0     C 6103   0.684   9.533   5.980 -0.5431 -0.4906 -0.2962
   47MOL0     C 6104   0.799   9.536   6.050 -0.5276 -0.2766 -0.0757
   47MOL0     C 6105   0.910   9.617   6.022 -0.0492 -0.1358 -0.0366
   47MOL0     C 6106   0.900   9.699   5.908 -0.2969  0.0496 -0.4916
   47MOL0     O 6107   0.990   9.804   5.882 -0.4378 -0.0508  0.2693
   47MOL0     C 6108   1.124   9.789   5.924  0.1299 -0.0220  0.2418
   47MOL0     C 6109   1.208   9.881   5.836  0.3837  0.1345  1.1614
   47MOL0     C 6110   1.358   9.873   5.876  0.7115  0.6933 -0.2764
   47MOL0     C 6111   1.417  10.007   5.919  0.1273  0.1018  0.4115
   47MOL0     C 6112   1.561   9.995   5.970 -0.1971 -0.5663  0.5639
   47MOL0     C 6113   1.574   9.927   6.107  0.1599  0.9859  0.1618
   47MOL0     C 6114   1.710   9.956   6.157  1.1178 -0.3124 -0.3465
   47MOL0     C 6115   1.746   9.887   6.285  0.8470 -0.2287  0.6757
   47MOL0    Cl 6116   1.823   9.723   6.257 -0.1968 -0.3495 -0.0393
   47MOL0     C 6117   0.787   9.697   5.834  1.4773  0.0666  0.7452
   47MOL0     C 6118   0.677   9.615   5.866  0.5617  0.3458 -0.3623
   47MOL0     O 6119   0.412   9.611   5.964  0.4923 -0.7756  0.8337
   47MOL0     C 6120   0.391   9.312   6.160  0.0764  0.4251 -0.3637
   47MOL0     C 6121   0.302   9.204   6.189 -0.1981  0.1740  0.2889
   47MOL0     N 6122   0.012   8.765   6.645  0.3988 -0.2581  0.6132
   47MOL0     N 6123   0.089   8.779   6.747 -0.9741 -0.1503  0.0740
   47MOL0     C 6124   1.387   8.709   6.906  0.5909 -0.0822  0.0796
   47MOL0     C 6125   1.520   8.745   6.923  0.3016 -0.6092  0.4171
   47MOL0     C 6126   1.913   8.902   7.028  0.0533 -0.3796 -0.0290
   47MOL0     C 6127   1.902   8.921   7.171 -0.4567 -0.1578 -0.2527
   47MOL0     C 6128   2.024   8.951   7.238 -0.6282 -0.1388  1.0595
   47MOL0     C 6129   2.149   8.968   7.168  0.0643 -0.2042 -0.9379
   47MOL0     O 6130   2.265   8.984   7.239 -1.3793  0.0246 -0.3263
   47MOL0     C 6131   2.383   8.932   7.176 -0.1734 -1.2187 -0.1652
   47MOL0     C 6132   2.520   8.960   7.252  0.3025 -0.0916  0.2777
   47MOL0     C 6133   2.631   8.888   7.179  0.2450 -0.6651 -0.4751
   47MOL0     C 6134   2.683   8.975   7.061  0.2080 -0.2536 -0.3299
   47MOL0     C 6135   2.802   8.916   6.997  0.2842  0.1510  0.2358
   47MOL0     C 6136   2.890   8.860   6.933 -0.3452 -0.5315  0.4197
   47MOL0     C 6137   2.155   8.955   7.030 -0.0970  0.5364 -0.4708
   47MOL0     C 6138   2.036   8.925   6.968  0.3336 -0.0968  0.4595
   47MOL0     H 6139   1.492   9.078   6.959 -2.2089  0.7231 -1.8714
   47MOL0     H 6140   1.249   9.018   6.929 -1.8656 -0.9301 -0.8059
   47MOL0     H 6141   1.057   8.912   7.040  1.1608  0.6267 -1.5810
   47MOL0     H 6142   1.151   8.780   7.117 -1.1737 -4.0544 -0.7916
   47MOL0     H 6143   0.917   8.735   7.149  0.2673  1.8181 -0.9823
   47MOL0     H 6144   1.000   8.608   7.052 -2.1396 -0.5472  1.4286
   47MOL0     H 6145   0.775   8.655   6.980 -0.4930  0.3942 -0.1175
   47MOL0     H 6146   0.867   8.724   6.846  1.3560  1.6425 -0.5762
   47MOL0     H 6147   0.750   8.864   7.088 -1.9876 -3.3176 -0.2356
   47MOL0     H 6148   0.854   8.945   6.978  0.9090 -0.4314 -2.6090
   47MOL0     H 6149   0.675   8.927   6.795 -2.4475 -1.0441 -1.2342
   47MOL0     H 6150   0.609   9.004   6.938  0.5727 -0.2464  1.8776
   47MOL0     H 6151   0.488   8.799   7.003 -0.6129 -1.7067 -0.0877
   47MOL0     H 6152   0.578   8.705   6.877  0.4613  0.8384 -3.2973
   47MOL0     H 6153   0.398   8.935   6.804 -0.8633 -1.0602  0.1391
   47MOL0     H 6154   0.485   8.823   6.689  1.0960 -0.1321  0.1499
   47MOL0     H 6155   0.297   8.716   6.896 -1.0909 -1.6102 -0.5439
   47MOL0     H 6156   0.379   8.630   6.758  0.9565  1.9918 -3.2313
   47MOL0     H 6157   0.306   8.694   6.517  0.9001  1.5267  0.8070
   47MOL0     H 6158  -0.062   8.695   6.400  0.0493  1.8265 -0.1454
   47MOL0     H 6159   0.097   8.638   6.356 -1.7606 -0.9465 -0.5110
   47MOL0     H 6160   0.061   8.840   6.212 -3.2961 -0.4023  0.5493
   47MOL0     H 6161   0.173   8.889   6.339  0.7738 -2.5034  2.9558
   47MOL0     H 6162  -0.116   8.960   6.277 -0.2776  2.0119 -0.3496
   47MOL0     H 6163  -0.072   8.970   6.450  0.1998  1.4862  0.9980
   47MOL0     H 6164   0.106   9.143   6.379 -0.8950  1.1656 -0.0915
   47MOL0     H 6165  -0.053   9.191   6.326  0.0892  0.1145  0.5252
   47MOL0     H 6166   0.010   9.311   6.054 -1.0378  1.5321  1.6779
   47MOL0     H 6167   0.157   9.498   5.996 -1.6247 -0.6063  1.7800
   47MOL0     H 6168   0.813   9.457   6.122 -0.6322 -4.3797 -4.1244
   47MOL0     H 6169   0.999   9.623   6.084  0.1937  3.0477 -0.5655
   47MOL0     H 6170   1.165   9.688   5.911 -0.6211 -0.3560  0.4506
   47MOL0     H 6171   1.127   9.815   6.030  2.5705 -1.0821  0.5140
   47MOL0     H 6172   1.166   9.982   5.843 -0.2520  0.0836 -1.1741
   47MOL0     H 6173   1.189   9.856   5.731  2.0095 -0.9275  1.0884
   47MOL0     H 6174   1.417   9.832   5.793 -0.3290  0.4531 -0.9228
   47MOL0     H 6175   1.367   9.804   5.960 -1.4098  0.4922 -0.1710
   47MOL0     H 6176   1.416  10.076   5.835 -2.1297  1.1019  1.1838
   47MOL0     H 6177   1.361  10.058   5.999 -0.4101  2.0614 -1.1451
   47MOL0     H 6178   1.602  10.095   5.986 -3.2447  0.5502  2.1721
   47MOL0     H 6179   1.618   9.933   5.900 -1.3914 -0.6173 -0.3955
   47MOL0     H 6180   1.567   9.818   6.110 -4.1441  1.0783 -0.1945
   47MOL0     H 6181   1.502   9.964   6.181  0.8351 -1.5695  2.2254
   47MOL0     H 6182   1.783   9.939   6.077 -0.1566  2.7044 -2.3140
   47MOL0     H 6183   1.717  10.064   6.176  1.5558  0.0082 -2.1152
   47MOL0     H 6184   1.656   9.883   6.347  0.1316 -1.5899 -0.4140
   47MOL0     H 6185   1.823   9.948   6.333  1.7758 -0.2903 -0.6981
   47MOL0     H 6186   0.787   9.761   5.747  1.9679 -0.4921  0.3274
   47MOL0     H 6187   0.595   9.619   5.795 -0.5300 -1.3465  0.7291
   47MOL0     H 6188   0.491   9.298   6.199 -0.6381 -0.3071  1.3321
   47MOL0     H 6189   0.339   9.114   6.238  2.5681  1.1769  0.2180
   47MOL0     H 6190   1.368   8.603   6.902  4.3195 -1.0468  2.8144
   47MOL0     H 6191   1.602   8.674   6.917 -1.2209 -2.5120  1.1279
   47MOL0     H 6192   1.816   8.903   7.235 -1.1031  2.4950 -0.2605
   47MOL0     H 6193   2.019   8.962   7.345 -1.1465  2.0615  0.8610
   47MOL0     H 6194   2.394   8.975   7.076 -2.0959 -0.3265 -0.0294
   47MOL0     H 6195   2.376   8.824   7.159 -3.0062 -1.7620  3.2281
   47MOL0     H 6196   2.534   9.068   7.264 -0.2903  0.5418 -3.5325
   47MOL0     H 6197   2.513   8.905   7.346  0.8221 -4.0159 -1.7389
   47MOL0     H 6198   2.608   8.793   7.130 -0.6526 -1.0062  0.5580
   47MOL0     H 6199   2.717   8.859   7.241  1.5629  1.3972 -1.2379
   47MOL0     H 6200   2.604   8.980   6.985 -1.3198  1.8306  1.2598
   47MOL0     H 6201   2.699   9.077   7.095  0.0780 -0.4947  0.4914
   47MOL0     H 6202   2.956   8.809   6.866  0.7468  0.4475  0.7256
   47MOL0     H 6203   2.243   8.982   6.972  1.9806  1.4197  2.7882
   47MOL0     H 6204   2.035   8.933   6.859 -1.6908  1.3157  0.5222
   48MOL0     O 6205   6.716   6.317   4.559 -0.8033  0.1263  0.4044
   48MOL0     C 6206   6.781   6.305   4.459  0.0251  0.3961 -0.2974
   48MOL0     O 6207   6.744   6.244   4.341  0.9971 -0.2192 -0.0915
   48MOL0     C 6208   6.608   6.223   4.328  0.3710 -0.6119 -1.0121
   48MOL0     C 6209   6.559   6.107   4.385  0.2594  0.0736 -0.2561
   48MOL0     C 6210   6.430   6.065   4.360 -0.8851 -0.0930  0.0281
   48MOL0     C 6211   6.346   6.149   4.279  0.1204 -0.0611  0.8433
   48MOL0     O 6212   6.218   6.125   4.234  0.3287 -0.1393  0.0885
   48MOL0     C 6213   6.155   6.009   4.294 -0.1114 -0.5451  0.9800
   48MOL0     C 6214   6.007   6.020   4.244 -0.0011  0.6085 -0.7967
   48MOL0     C 6215   5.927   5.911   4.310 -0.0459 -0.0883 -0.4270
   48MOL0     C 6216   5.787   5.941   4.318  0.5074 -0.2158 -1.2307
   48MOL0     C 6217   5.706   5.817   4.356  0.4663  0.0313  1.0522
   48MOL0     C 6218   5.551   5.839   4.354  0.4678 -0.2088  0.3384
   48MOL0     C 6219   5.464   5.715   4.391 -0.0155  0.1459  0.1435
   48MOL0     C 6220   5.324   5.765   4.391  0.4642 -0.2106 -0.2926
   48MOL0     N 6221   5.219   5.665   4.434 -0.2445 -0.4406 -0.4657
   48MOL0     C 6222   5.164   5.668   4.561  0.1756  1.2226 -0.4076
   48MOL0     C 6223   5.067   5.572   4.561  0.0625 -0.1732  0.2857
   48MOL0     C 6224   4.971   5.538   4.678 -0.2045 -0.2987  0.4120
   48MOL0     C 6225   4.850   5.623   4.670  0.1007 -0.6489  0.2134
   48MOL0     C 6226   4.870   5.756   4.740 -0.3709 -0.2379 -0.7695
   48MOL0     C 6227   4.748   5.848   4.715 -0.2490 -0.9817  0.0192
   48MOL0     O 6228   4.649   5.798   4.813 -0.0548 -0.5617 -0.6793
   48MOL0     C 6229   4.522   5.844   4.812  0.9329 -0.7296  1.7058
   48MOL0     C 6230   4.483   5.969   4.775 -0.1827 -0.0448 -0.1659
   48MOL0     C 6231   4.352   5.999   4.762 -0.3304 -0.7557 -0.4540
   48MOL0     C 6232   4.254   5.905   4.799  0.3599 -0.6979  0.2967
   48MOL0     C 6233   4.111   5.934   4.784 -0.2178 -0.2146  0.7970
   48MOL0     O 6234   4.015   5.854   4.850 -0.3537  0.6063 -0.3739
   48MOL0     C 6235   3.887   5.852   4.817  0.2972  0.2543  1.0989
   48MOL0     C 6236   3.817   5.895   4.700 -0.5708 -0.3621  0.2611
   48MOL0     C 6237   3.678   5.902   4.692  0.3885 -0.7668 -0.2216
   48MOL0     C 6238   3.607   5.858   4.804  0.1475  0.4535 -0.8874
   48MOL0     O 6239   3.471   5.873   4.799  0.0070 -0.1837  0.9690
   48MOL0     C 6240   3.388   5.826   4.905 -0.2460  0.3846  0.6778
   48MOL0     C 6241   3.240   5.813   4.864 -0.6761  0.4424 -0.6459
   48MOL0     C 6242   3.222   5.704   4.758 -0.9459 -0.0520  0.0521
   48MOL0     C 6243   3.082   5.693   4.705  0.6055  0.0582 -0.1824
   48MOL0     C 6244   3.072   5.572   4.617  0.0999 -0.7437 -0.6484
   48MOL0     C 6245   2.943   5.562   4.553 -0.0622 -0.3236  1.3488
   48MOL0     C 6246   2.815   5.556   4.636  0.2832  0.0759 -0.1482
   48MOL0     C 6247   2.799   5.438   4.719 -0.2063  0.1804  0.3667
   48MOL0    Cl 6248   2.774   5.296   4.621  0.1916  0.2673 -0.1222
   48MOL0     C 6249   3.672   5.804   4.915 -0.1201 -0.4461 -0.2636
   48MOL0     C 6250   3.813   5.801   4.923  0.5174  0.9173 -0.3533
   48MOL0     O 6251   4.083   6.031   4.707  0.0792 -1.0253 -0.4626
   48MOL0     C 6252   4.290   5.774   4.820  0.2179 -0.0844 -0.1836
   48MOL0     C 6253   4.423   5.746   4.819  0.5794 -0.5409  0.2050
   48MOL0     N 6254   5.059   5.539   4.422  0.7498 -0.4261  0.1082
   48MOL0     N 6255   5.152   5.592   4.349  0.3981 -0.8336 -0.4065
   48MOL0     C 6256   6.393   6.274   4.228  0.4109  0.8993 -1.0925
   48MOL0     C 6257   6.532   6.307   4.242 -0.0276 -0.5971  0.1920
   48MOL0     C 6258   6.911   6.371   4.464 -0.5059 -0.2858  0.9718
   48MOL0     C 6259   6.982   6.399   4.349  0.6295 -0.2679 -0.1028
   48MOL0     C 6260   7.109   6.457   4.354  0.2917 -0.3951  0.1455
   48MOL0     C 6261   7.169   6.489   4.482 -0.7479 -0.9032  0.6355
   48MOL0     O 6262   7.302   6.534   4.500  0.3023  1.1981 -0.3733
   48MOL0     C 6263   7.357   6.610   4.387 -0.4217  1.4864 -0.9166
   48MOL0     C 6264   7.486   6.699   4.434  0.6841  0.6349 -0.4782
   48MOL0     C 6265   7.589   6.593   4.489 -0.8885 -0.8626 -0.2384
   48MOL0     C 6266   7.702   6.663   4.566 -0.5898  0.0869 -0.1949
   48MOL0     C 6267   7.799   6.720   4.477  0.2079  1.0308  0.4218
   48MOL0     C 6268   7.887   6.777   4.413 -0.3997  0.2737  1.8486
   48MOL0     C 6269   7.094   6.459   4.595 -0.2291 -0.7128 -0.3818
   48MOL0     C 6270   6.962   6.411   4.593  0.7787 -0.7978  0.8798
   48MOL0     H 6271   6.638   6.042   4.421  1.6577  0.4273 -2.4895
   48MOL0     H 6272   6.395   5.969   4.397  1.3488 -0.8362  0.3802
   48MOL0     H 6273   6.161   6.013   4.403  1.2114 -2.1172  0.9924
   48MOL0     H 6274   6.211   5.925   4.252  1.8241  1.5969 -0.9698
   48MOL0     H 6275   6.013   6.013   4.135  0.5224  4.5700 -1.1811
   48MOL0     H 6276   5.962   6.115   4.275 -2.8364 -0.7171 -0.5974
   48MOL0     H 6277   5.966   5.904   4.411  0.2137  4.1230 -0.0506
   48MOL0     H 6278   5.941   5.815   4.259 -0.7220  0.0303 -0.8641
   48MOL0     H 6279   5.780   6.014   4.400  0.0956 -1.3906 -0.1846
   48MOL0     H 6280   5.741   5.984   4.228 -0.4172  0.8290 -0.3023
   48MOL0     H 6281   5.734   5.775   4.453  2.0188 -1.8166 -0.1351
   48MOL0     H 6282   5.731   5.743   4.280  2.0112  2.7030 -1.2253
   48MOL0     H 6283   5.521   5.875   4.255 -0.3530  1.5994  1.1936
   48MOL0     H 6284   5.529   5.915   4.429 -0.9654  0.8548 -1.0839
   48MOL0     H 6285   5.480   5.639   4.314  1.5526 -0.1140  0.6842
   48MOL0     H 6286   5.502   5.684   4.489 -1.2167 -1.8088  0.0505
   48MOL0     H 6287   5.297   5.790   4.288 -0.6042 -0.7357 -0.1546
   48MOL0     H 6288   5.323   5.853   4.456  0.6374 -0.7717  0.4854
   48MOL0     H 6289   5.201   5.721   4.648  3.2054  1.5640 -1.7863
   48MOL0     H 6290   5.028   5.544   4.771 -0.9392 -2.7744  1.0871
   48MOL0     H 6291   4.940   5.433   4.677 -1.6498  0.0860 -1.2159
   48MOL0     H 6292   4.775   5.577   4.734 -1.1136  3.2012  1.8119
   48MOL0     H 6293   4.822   5.638   4.565 -0.1772 -1.7221  0.1242
   48MOL0     H 6294   4.893   5.751   4.847  0.3353  2.6462 -0.7142
   48MOL0     H 6295   4.958   5.805   4.698  1.3902 -1.5891  1.1191
   48MOL0     H 6296   4.711   5.861   4.612  1.6064  1.0943 -0.4792
   48MOL0     H 6297   4.785   5.949   4.731  0.3830 -1.0105 -1.1420
   48MOL0     H 6298   4.563   6.042   4.770  0.2750 -0.5638 -0.4591
   48MOL0     H 6299   4.324   6.100   4.736  2.0545  0.6173  1.8548
   48MOL0     H 6300   3.887   5.918   4.620 -0.6953 -2.1216 -0.3866
   48MOL0     H 6301   3.621   5.931   4.605  1.4736  1.5833 -0.2478
   48MOL0     H 6302   3.400   5.884   4.997 -2.2252  0.2965  1.0270
   48MOL0     H 6303   3.422   5.725   4.930 -1.5535 -0.9658 -2.4086
   48MOL0     H 6304   3.202   5.909   4.830  1.4395  1.5819  0.0633
   48MOL0     H 6305   3.182   5.789   4.954  1.1938 -1.0356  0.2300
   48MOL0     H 6306   3.243   5.610   4.810  1.3875  1.3347  1.8386
   48MOL0     H 6307   3.305   5.720   4.688 -1.4074  0.5363 -0.3591
   48MOL0     H 6308   3.020   5.684   4.794  2.4986 -1.3590  1.0801
   48MOL0     H 6309   3.054   5.781   4.646 -1.8743 -2.7482 -3.6491
   48MOL0     H 6310   3.084   5.483   4.680 -1.3422 -0.4598  0.0725
   48MOL0     H 6311   3.148   5.579   4.539  3.5690 -2.0419  2.3147
   48MOL0     H 6312   2.942   5.478   4.483 -1.9138 -1.9479  3.1619
   48MOL0     H 6313   2.934   5.653   4.493  1.8328  0.1006  1.6384
   48MOL0     H 6314   2.803   5.637   4.708 -0.8142 -0.1943 -0.0093
   48MOL0     H 6315   2.725   5.559   4.574 -0.0574 -3.7969 -0.0452
   48MOL0     H 6316   2.707   5.451   4.776 -1.9210 -3.5147 -1.2035
   48MOL0     H 6317   2.889   5.421   4.778 -1.7173 -5.0161  1.6623
   48MOL0     H 6318   3.614   5.784   5.004  1.2931  1.9576  1.3077
   48MOL0     H 6319   3.864   5.769   5.014 -1.7294 -2.6037 -0.1307
   48MOL0     H 6320   4.220   5.693   4.836 -1.1468  0.7467 -1.5009
   48MOL0     H 6321   4.460   5.644   4.830  3.5396  0.3408 -0.6525
   48MOL0     H 6322   6.327   6.333   4.165 -0.2171 -0.2359 -1.5142
   48MOL0     H 6323   6.564   6.401   4.197  0.2875 -0.4805  0.6575
   48MOL0     H 6324   6.951   6.359   4.253 -1.1208 -0.3422  0.4487
   48MOL0     H 6325   7.158   6.477   4.259 -0.3892  0.1314 -0.1033
   48MOL0     H 6326   7.288   6.679   4.339 -0.1439  1.5966 -1.1570
   48MOL0     H 6327   7.389   6.542   4.308 -0.6165  2.0002 -1.4441
   48MOL0     H 6328   7.522   6.750   4.344 -0.2529 -1.6332 -2.2428
   48MOL0     H 6329   7.468   6.776   4.509 -1.8054 -0.8914  0.6330
   48MOL0     H 6330   7.636   6.535   4.410 -0.5973 -4.7775  2.5046
   48MOL0     H 6331   7.535   6.517   4.547 -0.8296 -1.8754 -1.4799
   48MOL0     H 6332   7.664   6.739   4.636  0.5296 -0.8759  1.5315
   48MOL0     H 6333   7.750   6.583   4.623 -0.6445  0.5239  0.4822
   48MOL0     H 6334   7.970   6.800   4.349 -0.6214  1.4715  1.9696
   48MOL0     H 6335   7.142   6.488   4.688 -0.9183 -2.0700  0.4310
   48MOL0     H 6336   6.908   6.402   4.686 -0.0039  2.9047  0.9354
   49MOL0     O 6337   2.367   5.331   4.473  0.0235  0.2543 -0.6370
   49MOL0     C 6338   2.352   5.432   4.402  0.7163  0.4476  0.8112
   49MOL0     O 6339   2.239   5.516   4.392  0.0335 -0.2902 -0.4922
   49MOL0     C 6340   2.126   5.483   4.466 -0.1171  0.8806  0.0848
   49MOL0     C 6341   2.060   5.357   4.470  0.1044 -0.2487 -0.1630
   49MOL0     C 6342   1.949   5.340   4.556 -0.2393  0.9096 -0.6861
   49MOL0     C 6343   1.902   5.448   4.634 -0.2392  0.2760 -0.6648
   49MOL0     O 6344   1.801   5.439   4.731 -0.1381 -0.3847  0.2755
   49MOL0     C 6345   1.732   5.319   4.740 -0.3172 -0.1044 -0.2145
   49MOL0     C 6346   1.637   5.334   4.860 -0.7983  1.4089  0.5338
   49MOL0     C 6347   1.545   5.448   4.828 -0.8022 -0.1963  0.2532
   49MOL0     C 6348   1.458   5.475   4.948 -0.3826 -0.0975 -0.4268
   49MOL0     C 6349   1.341   5.559   4.899  0.8159  0.7045  0.3092
   49MOL0     C 6350   1.376   5.705   4.878 -0.0798 -0.1718 -0.2588
   49MOL0     C 6351   1.247   5.793   4.894  0.7083 -0.5349  0.1599
   49MOL0     C 6352   1.193   5.806   5.038  0.0107  0.9021 -0.4061
   49MOL0     N 6353   1.096   5.912   5.048 -0.0445 -0.2242 -0.1327
   49MOL0     C 6354   0.967   5.911   4.995 -0.4499  0.1840  0.0141
   49MOL0     C 6355   0.923   6.027   5.034  0.0518 -0.4871  0.5948
   49MOL0     C 6356   0.797   6.089   4.991 -0.8148  0.3857  0.0239
   49MOL0     C 6357   0.686   6.070   5.087  0.6887 -0.7457  0.1069
   49MOL0     C 6358   0.569   6.159   5.044 -0.5080 -0.0738 -0.3590
   49MOL0     C 6359   0.495   6.204   5.177 -0.5500  0.2828  0.3707
   49MOL0     O 6360   0.393   6.295   5.138  0.7248 -0.2438 -0.2360
   49MOL0     C 6361   0.276   6.288   5.204 -0.3746  0.0728  0.1585
   49MOL0     C 6362   0.258   6.231   5.334 -0.9537  0.3971  0.7530
   49MOL0     C 6363   0.133   6.228   5.393 -0.6896 -0.3791 -0.6252
   49MOL0     C 6364   0.017   6.279   5.333  0.0335 -0.2951  0.5825
   49MOL0     C 6365  -0.115   6.271   5.394 -0.0064 -0.4551 -0.4054
   49MOL0     O 6366  -0.229   6.308   5.321 -0.2431 -0.2479  0.5573
   49MOL0     C 6367  -0.357   6.310   5.369 -0.5468 -0.0086 -0.8753
   49MOL0     C 6368  -0.396   6.246   5.491 -0.9465  0.6069 -0.0245
   49MOL0     C 6369  -0.526   6.226   5.525 -0.0228  0.4507 -0.8312
   49MOL0     C 6370  -0.625   6.297   5.457  0.0710 -0.3193  0.4114
   49MOL0     O 6371  -0.755   6.283   5.502 -0.1026  0.6436 -0.2824
   49MOL0     C 6372  -0.863   6.304   5.411  0.2466  0.8580  0.7975
   49MOL0     C 6373  -0.995   6.237   5.461 -1.0611  0.1578  0.8764
   49MOL0     C 6374  -0.971   6.083   5.457  0.0884  0.3499 -1.0178
   49MOL0     C 6375  -1.098   6.003   5.494  0.6362 -0.8930 -0.2395
   49MOL0     C 6376  -1.205   6.014   5.383 -0.6496 -0.0837  0.2952
   49MOL0     C 6377  -1.329   5.931   5.397  0.0980 -0.4832  0.7806
   49MOL0     C 6378  -1.391   5.955   5.531  0.7299  0.6179  0.2747
   49MOL0     C 6379  -1.526   5.894   5.526 -0.1061 -0.2071  0.1448
   49MOL0    Cl 6380  -1.526   5.715   5.494 -0.0625  0.0906  0.3778
   49MOL0     C 6381  -0.588   6.373   5.338  0.4672 -0.6021 -1.2097
   49MOL0     C 6382  -0.454   6.369   5.291  0.3060 -1.3616  0.5273
   49MOL0     O 6383  -0.114   6.237   5.509 -0.4437  0.4535 -0.8657
   49MOL0     C 6384   0.035   6.340   5.205 -0.4980 -0.7485 -0.7357
   49MOL0     C 6385   0.157   6.335   5.145 -0.5965 -0.0672  1.5026
   49MOL0     N 6386   1.015   6.093   5.108 -0.9498 -0.1865  0.0651
   49MOL0     N 6387   1.123   6.020   5.124  0.4708 -0.0324  1.1952
   49MOL0     C 6388   1.952   5.572   4.614 -1.0267  0.5017  0.6580
   49MOL0     C 6389   2.064   5.585   4.533  0.6987 -0.5830  0.4042
   49MOL0     C 6390   2.465   5.473   4.322 -0.1364  0.5762 -0.6349
   49MOL0     C 6391   2.462   5.582   4.241 -0.1962 -0.7418  0.0757
   49MOL0     C 6392   2.576   5.615   4.158 -0.4929  0.3732  1.3325
   49MOL0     C 6393   2.694   5.535   4.158 -0.7162 -0.3656 -0.2180
   49MOL0     O 6394   2.804   5.553   4.077  0.4998 -1.1950  0.0533
   49MOL0     C 6395   2.892   5.657   4.100  0.8135  0.0219 -0.3425
   49MOL0     C 6396   3.017   5.599   4.174 -0.0888 -0.1297  1.3887
   49MOL0     C 6397   3.104   5.504   4.078  0.2440 -0.4317  0.6964
   49MOL0     C 6398   3.204   5.569   3.982  0.8855 -0.6080 -0.5612
   49MOL0     C 6399   3.308   5.643   4.057 -0.8657  0.5446  0.6885
   49MOL0     C 6400   3.396   5.696   4.121  0.0051  0.2807  0.3133
   49MOL0     C 6401   2.685   5.417   4.229  0.0861  0.1704 -0.0645
   49MOL0     C 6402   2.583   5.388   4.318  0.7286 -0.4828 -0.1392
   49MOL0     H 6403   2.104   5.273   4.418  0.0490 -0.5896  0.3344
   49MOL0     H 6404   1.896   5.246   4.547  1.4105 -0.0024 -1.3496
   49MOL0     H 6405   1.800   5.235   4.754  0.7159  0.8541  0.8459
   49MOL0     H 6406   1.683   5.287   4.648  2.0393  0.4501 -1.7742
   49MOL0     H 6407   1.686   5.345   4.957  4.3891 -3.0844 -1.0584
   49MOL0     H 6408   1.592   5.235   4.869  0.1392  0.8167 -0.9742
   49MOL0     H 6409   1.495   5.432   4.733 -0.5269  0.1354  0.0502
   49MOL0     H 6410   1.597   5.542   4.808 -0.6147  0.3715  2.9834
   49MOL0     H 6411   1.418   5.386   4.998 -0.1288  0.3656  0.6282
   49MOL0     H 6412   1.518   5.529   5.022 -0.3873 -1.8477  0.9206
   49MOL0     H 6413   1.266   5.562   4.979  1.4131  2.2258  0.8526
   49MOL0     H 6414   1.292   5.513   4.813  0.9810 -0.0263  0.6002
   49MOL0     H 6415   1.419   5.721   4.778 -0.7801  0.7850 -0.4225
   49MOL0     H 6416   1.452   5.737   4.950 -0.3201 -3.0293  1.4198
   49MOL0     H 6417   1.265   5.895   4.858  0.4936  0.2262  2.1011
   49MOL0     H 6418   1.177   5.743   4.826  1.6950 -1.2620 -0.3383
   49MOL0     H 6419   1.274   5.826   5.108 -1.0197  1.7246  0.5884
   49MOL0     H 6420   1.148   5.713   5.072  1.6880 -0.4736 -1.7617
   49MOL0     H 6421   0.924   5.837   4.928 -0.1012 -1.0387  1.0918
   49MOL0     H 6422   0.772   6.050   4.892  1.0679 -1.1035  0.0904
   49MOL0     H 6423   0.813   6.196   4.974  1.4423 -0.2565 -2.6651
   49MOL0     H 6424   0.715   6.084   5.192  1.7705  0.5785 -0.3370
   49MOL0     H 6425   0.655   5.965   5.084  0.4064 -0.6537 -0.2353
   49MOL0     H 6426   0.607   6.248   4.992 -0.1237 -0.0210  0.0044
   49MOL0     H 6427   0.503   6.110   4.972 -0.4054  1.4703 -1.5668
   49MOL0     H 6428   0.551   6.270   5.245 -2.3550  0.3531  1.8534
   49MOL0     H 6429   0.456   6.115   5.227  0.2274 -1.3172 -1.7302
   49MOL0     H 6430   0.343   6.189   5.386 -1.2999 -1.5472 -0.1604
   49MOL0     H 6431   0.120   6.178   5.488 -1.2263 -1.7743 -1.4050
   49MOL0     H 6432  -0.329   6.183   5.549  0.6793 -0.3214 -2.7500
   49MOL0     H 6433  -0.560   6.171   5.612 -1.7859  0.7625 -1.2773
   49MOL0     H 6434  -0.839   6.264   5.312  0.4336 -2.1717  1.9582
   49MOL0     H 6435  -0.877   6.413   5.412 -0.7165  0.7443  1.8661
   49MOL0     H 6436  -1.083   6.263   5.402 -0.4010  2.4210  0.7824
   49MOL0     H 6437  -1.009   6.268   5.566  1.7806  0.7038  1.1932
   49MOL0     H 6438  -0.893   6.054   5.528 -1.0313 -1.2425 -0.3631
   49MOL0     H 6439  -0.933   6.054   5.359 -0.9759 -0.3630 -1.2453
   49MOL0     H 6440  -1.075   5.899   5.517  0.9315 -0.8562 -0.3615
   49MOL0     H 6441  -1.139   6.056   5.580 -0.7913 -0.2214 -1.2861
   49MOL0     H 6442  -1.155   5.976   5.294 -0.0635  2.5962 -0.6382
   49MOL0     H 6443  -1.233   6.119   5.370 -0.3097 -0.0116  0.1381
   49MOL0     H 6444  -1.296   5.827   5.383  1.2218 -0.1979  1.2470
   49MOL0     H 6445  -1.397   5.965   5.319 -0.8376 -3.1364  0.3084
   49MOL0     H 6446  -1.330   5.907   5.609  0.2541 -1.2135 -0.4361
   49MOL0     H 6447  -1.391   6.062   5.550 -0.1564  0.6391  0.1726
   49MOL0     H 6448  -1.587   5.938   5.446 -2.1696 -2.5833  0.2759
   49MOL0     H 6449  -1.584   5.925   5.613  0.1447  0.2558  0.1468
   49MOL0     H 6450  -0.663   6.435   5.290 -2.9107 -2.8885  0.6534
   49MOL0     H 6451  -0.421   6.402   5.193 -0.4596 -0.6466  0.4995
   49MOL0     H 6452  -0.054   6.379   5.156  0.6145  0.0544 -2.2028
   49MOL0     H 6453   0.170   6.370   5.043 -1.9215 -3.1907  0.1309
   49MOL0     H 6454   1.911   5.663   4.656 -3.7525 -0.0248 -0.6190
   49MOL0     H 6455   2.113   5.682   4.534 -0.6377  0.2000  4.0864
   49MOL0     H 6456   2.375   5.647   4.240  0.8440  0.7053 -0.9639
   49MOL0     H 6457   2.579   5.699   4.090 -1.7420  1.2467  2.3136
   49MOL0     H 6458   2.839   5.740   4.147  0.7448 -0.8383  1.1415
   49MOL0     H 6459   2.922   5.696   4.002 -0.5187  0.0449 -0.7750
   49MOL0     H 6460   3.077   5.674   4.227  0.9604  0.2348 -0.2101
   49MOL0     H 6461   2.975   5.531   4.248  0.0056 -0.2267  1.3536
   49MOL0     H 6462   3.037   5.436   4.026  0.2738  0.6079 -0.7773
   49MOL0     H 6463   3.165   5.444   4.147  5.2323  4.5758  1.4594
   49MOL0     H 6464   3.253   5.494   3.920  2.0944 -0.9618  0.7689
   49MOL0     H 6465   3.153   5.634   3.910 -2.8559 -3.0333 -0.3978
   49MOL0     H 6466   3.478   5.736   4.177  1.2875 -1.6970 -0.0778
   49MOL0     H 6467   2.774   5.356   4.219 -0.4091 -0.8478  1.4210
   49MOL0     H 6468   2.587   5.307   4.391 -0.9180  0.9668  1.6900
   50MOL0     O 6469   3.713   7.498   2.075 -0.9783 -0.2159  0.0132
   50MOL0     C 6470   3.673   7.572   1.981 -0.6131 -0.4375 -0.3366
   50MOL0     O 6471   3.565   7.658   1.987 -0.3426  0.1656  0.4861
   50MOL0     C 6472   3.477   7.674   2.092  0.5056 -0.4458  0.5250
   50MOL0     C 6473   3.454   7.570   2.183  0.4281 -0.1739 -0.6213
   50MOL0     C 6474   3.362   7.578   2.283  1.1719 -0.2487  0.1812
   50MOL0     C 6475   3.274   7.691   2.293  0.0853 -0.2143 -0.1147
   50MOL0     O 6476   3.191   7.714   2.397  0.1432 -0.1346 -0.5035
   50MOL0     C 6477   3.128   7.591   2.446 -0.7879 -0.0126 -0.5061
   50MOL0     C 6478   3.001   7.614   2.527 -0.0078 -0.2420 -0.2682
   50MOL0     C 6479   2.913   7.487   2.538  0.5095  0.2313 -0.8680
   50MOL0     C 6480   2.789   7.519   2.624  1.3380 -0.4387  0.2893
   50MOL0     C 6481   2.694   7.404   2.652  0.0798  0.3910 -0.3350
   50MOL0     C 6482   2.554   7.453   2.665  0.5611 -0.2020 -0.5312
   50MOL0     C 6483   2.451   7.358   2.718  0.2324  0.4384 -0.0938
   50MOL0     C 6484   2.310   7.407   2.733  0.7462  0.2784 -0.1967
   50MOL0     N 6485   2.228   7.299   2.805  0.4321  0.1163  0.5609
   50MOL0     C 6486   2.122   7.224   2.751 -0.4919 -0.7435  0.0830
   50MOL0     C 6487   2.065   7.167   2.860 -0.5096 -0.1329 -0.1883
   50MOL0     C 6488   1.954   7.070   2.872 -0.7444  0.6402  0.4469
   50MOL0     C 6489   1.823   7.138   2.893  0.1676  0.6936 -0.6947
   50MOL0     C 6490   1.806   7.186   3.036 -0.3637 -0.2479 -0.8287
   50MOL0     C 6491   1.669   7.248   3.048 -0.1204  0.2075  0.2163
   50MOL0     O 6492   1.586   7.135   3.062  0.1260  0.3481 -0.6845
   50MOL0     C 6493   1.457   7.130   3.003  0.1100 -0.3512  0.0135
   50MOL0     C 6494   1.390   7.243   2.952  0.1763 -0.3231 -0.6775
   50MOL0     C 6495   1.260   7.238   2.902 -1.1000 -0.1542  0.6059
   50MOL0     C 6496   1.190   7.114   2.907  1.0368 -1.0277 -0.8697
   50MOL0     C 6497   1.048   7.098   2.862  0.1278  0.1020 -0.1495
   50MOL0     O 6498   0.978   7.213   2.840 -0.1308 -0.2315  0.2219
   50MOL0     C 6499   0.858   7.215   2.778  0.0023 -0.2653  0.5769
   50MOL0     C 6500   0.739   7.249   2.838 -0.0911 -0.4835 -0.0594
   50MOL0     C 6501   0.616   7.239   2.767 -0.3914 -0.2784 -0.1049
   50MOL0     C 6502   0.608   7.204   2.634 -0.8822  0.2625  0.3707
   50MOL0     O 6503   0.501   7.170   2.558  0.0368 -0.7984  0.0933
   50MOL0     C 6504   0.371   7.198   2.620 -0.1366 -0.1746  0.6315
   50MOL0     C 6505   0.253   7.180   2.517 -0.2920 -0.5571 -0.0247
   50MOL0     C 6506   0.128   7.226   2.594  0.1612  0.1460  0.1470
   50MOL0     C 6507   0.020   7.243   2.494 -0.0439 -0.2890 -0.0759
   50MOL0     C 6508  -0.083   7.347   2.558  0.6109  0.2427 -0.4773
   50MOL0     C 6509  -0.183   7.395   2.445  0.4688 -0.3033 -0.7546
   50MOL0     C 6510  -0.303   7.467   2.502 -0.3555  0.0078  0.7167
   50MOL0     C 6511  -0.417   7.460   2.403  0.6310  1.2485 -0.5577
   50MOL0    Cl 6512  -0.471   7.290   2.391  0.1539 -0.3476 -0.4114
   50MOL0     C 6513   0.734   7.183   2.573 -0.0227  0.3674 -0.7570
   50MOL0     C 6514   0.861   7.194   2.641  0.5780  0.3546 -0.8364
   50MOL0     O 6515   1.007   6.984   2.851  0.0270  0.2498 -0.7626
   50MOL0     C 6516   1.257   6.997   2.956  0.5766 -0.5501 -0.7192
   50MOL0     C 6517   1.385   7.011   3.007 -0.1345 -0.2887  0.8294
   50MOL0     N 6518   2.131   7.215   2.972 -0.2390 -0.7793  0.0594
   50MOL0     N 6519   2.217   7.308   2.936  0.4347 -0.1066 -0.4664
   50MOL0     C 6520   3.301   7.797   2.206  0.0175  0.1363 -0.1712
   50MOL0     C 6521   3.404   7.791   2.114  0.0755  0.1961 -0.4663
   50MOL0     C 6522   3.767   7.583   1.860 -0.0942  0.0901 -1.0875
   50MOL0     C 6523   3.894   7.519   1.864 -0.1911 -0.2961 -0.1131
   50MOL0     C 6524   3.977   7.507   1.750  0.9857  0.1873 -0.2668
   50MOL0     C 6525   3.937   7.573   1.632 -0.5567 -0.3387  0.3558
   50MOL0     O 6526   4.014   7.572   1.517  0.1937  0.0927 -0.3961
   50MOL0     C 6527   4.135   7.656   1.520 -0.4204 -1.1550 -0.1369
   50MOL0     C 6528   4.111   7.809   1.517 -0.0479  0.3559  0.0012
   50MOL0     C 6529   4.042   7.847   1.386  0.5053 -0.2373  0.7182
   50MOL0     C 6530   4.016   7.996   1.373 -0.9564  0.0786  0.7340
   50MOL0     C 6531   3.919   8.056   1.466  0.6162  0.0068  0.4014
   50MOL0     C 6532   3.824   8.093   1.532 -0.3752  0.4824  0.7632
   50MOL0     C 6533   3.822   7.651   1.634  0.2918  0.4618  0.1932
   50MOL0     C 6534   3.730   7.643   1.738 -0.9581 -0.0852  0.1577
   50MOL0     H 6535   3.497   7.473   2.160 -1.3659 -0.8588 -1.2560
   50MOL0     H 6536   3.346   7.496   2.352 -0.3058  0.5845  0.8602
   50MOL0     H 6537   3.197   7.537   2.511 -0.1873  0.8196 -0.4460
   50MOL0     H 6538   3.117   7.527   2.357  0.8868 -0.8558 -0.1445
   50MOL0     H 6539   2.946   7.690   2.470  3.2934  2.2938 -0.3882
   50MOL0     H 6540   3.024   7.661   2.623 -1.9262  1.4147 -0.5535
   50MOL0     H 6541   2.980   7.412   2.582 -0.1748  0.6239  0.9276
   50MOL0     H 6542   2.885   7.463   2.435  2.4567 -2.2369 -0.9260
   50MOL0     H 6543   2.793   7.581   2.714  0.1257 -1.5989  1.1797
   50MOL0     H 6544   2.737   7.581   2.550  4.1312  0.3823 -1.1124
   50MOL0     H 6545   2.721   7.350   2.743 -1.4256 -0.3769 -0.3093
   50MOL0     H 6546   2.692   7.334   2.567 -3.7918 -0.2568  0.0913
   50MOL0     H 6547   2.518   7.488   2.568 -0.0502 -2.8422 -1.3479
   50MOL0     H 6548   2.558   7.543   2.726 -0.9079  0.2125 -0.9977
   50MOL0     H 6549   2.458   7.270   2.653 -0.3760  1.4875 -1.6596
   50MOL0     H 6550   2.483   7.327   2.818  0.6315 -0.4661 -0.4944
   50MOL0     H 6551   2.263   7.410   2.634 -1.1841  0.9659  0.6812
   50MOL0     H 6552   2.302   7.506   2.780  0.6322  0.9753 -1.6300
   50MOL0     H 6553   2.084   7.207   2.651  0.4418 -0.6959 -0.2872
   50MOL0     H 6554   1.976   7.012   2.962  1.6177  2.7391  1.3442
   50MOL0     H 6555   1.966   7.005   2.785 -1.1331  2.2917 -0.9039
   50MOL0     H 6556   1.744   7.069   2.862 -0.7937  1.3784  0.1753
   50MOL0     H 6557   1.807   7.220   2.823 -2.9946 -0.2945 -1.2593
   50MOL0     H 6558   1.828   7.105   3.106  2.1194 -0.9203 -2.2498
   50MOL0     H 6559   1.872   7.271   3.054 -2.6491  1.6322 -0.8866
   50MOL0     H 6560   1.648   7.320   2.969  0.9461  0.6197  0.2979
   50MOL0     H 6561   1.676   7.303   3.142  3.2703  0.9098 -0.3290
   50MOL0     H 6562   1.435   7.340   2.971  1.7018 -1.5219  2.4435
   50MOL0     H 6563   1.216   7.334   2.879 -0.2392  0.0237 -0.3707
   50MOL0     H 6564   0.739   7.281   2.941 -0.0762  1.6115 -0.6547
   50MOL0     H 6565   0.521   7.261   2.816 -0.4383  1.3566 -0.8374
   50MOL0     H 6566   0.368   7.299   2.664  0.3420  0.2793 -0.3384
   50MOL0     H 6567   0.357   7.130   2.704  0.2046 -0.5788  0.3651
   50MOL0     H 6568   0.258   7.083   2.467 -1.2841  0.1873 -1.6166
   50MOL0     H 6569   0.267   7.246   2.431 -2.3142 -1.0926 -0.8256
   50MOL0     H 6570   0.139   7.320   2.647  1.7716 -0.2504  0.5728
   50MOL0     H 6571   0.103   7.155   2.674 -1.4208  1.2564  0.7011
   50MOL0     H 6572   0.063   7.274   2.398 -0.1821 -1.8319 -0.6689
   50MOL0     H 6573  -0.022   7.143   2.478  0.9628 -0.9887  1.4353
   50MOL0     H 6574  -0.030   7.438   2.586 -0.5094  0.3022  1.5456
   50MOL0     H 6575  -0.138   7.301   2.640  1.3365 -0.2996 -0.2836
   50MOL0     H 6576  -0.214   7.306   2.390  0.2783 -1.6281  1.3615
   50MOL0     H 6577  -0.129   7.455   2.372 -0.5300  1.2148 -0.2964
   50MOL0     H 6578  -0.321   7.425   2.601  1.1009 -0.9870  0.5952
   50MOL0     H 6579  -0.283   7.574   2.508 -3.1556  0.9374 -2.7968
   50MOL0     H 6580  -0.390   7.486   2.300 -2.2217  1.2377 -1.3924
   50MOL0     H 6581  -0.504   7.521   2.430 -0.2056 -0.9940  2.3266
   50MOL0     H 6582   0.745   7.156   2.469  0.7501  1.7985 -1.0722
   50MOL0     H 6583   0.949   7.168   2.583  0.4797 -1.1686 -0.3447
   50MOL0     H 6584   1.209   6.900   2.963 -1.3853  0.0550 -3.8072
   50MOL0     H 6585   1.440   6.927   3.048 -0.8895 -0.1549  2.1742
   50MOL0     H 6586   3.249   7.891   2.217 -2.1855 -0.7046 -2.3953
   50MOL0     H 6587   3.402   7.877   2.048 -3.0600 -0.9783 -2.1226
   50MOL0     H 6588   3.934   7.475   1.954  0.9810  1.0654  0.0680
   50MOL0     H 6589   4.063   7.441   1.758  0.0093 -1.1901 -0.6910
   50MOL0     H 6590   4.204   7.640   1.437 -0.5604  0.3737 -0.5920
   50MOL0     H 6591   4.197   7.632   1.607  0.4587 -1.9386 -0.9601
   50MOL0     H 6592   4.049   7.833   1.603  1.0960 -2.4010  1.7691
   50MOL0     H 6593   4.212   7.851   1.529 -0.3789  1.0919  0.2432
   50MOL0     H 6594   3.942   7.805   1.380 -0.2302  1.6120 -1.6781
   50MOL0     H 6595   4.099   7.810   1.301  1.3083  1.9665  0.2336
   50MOL0     H 6596   4.114   8.043   1.388 -0.4497 -1.4481  2.6432
   50MOL0     H 6597   3.987   8.018   1.270  3.5415  0.3060 -0.6933
   50MOL0     H 6598   3.747   8.135   1.594 -1.5090  0.5152 -0.5930
   50MOL0     H 6599   3.797   7.709   1.546  2.4713 -0.4994 -1.1447
   50MOL0     H 6600   3.634   7.695   1.734 -0.9840 -0.0391  1.0841
   51MOL0     O 6601   7.511   0.096   1.335 -0.9653  0.0457  0.3150
   51MOL0     C 6602   7.579   0.059   1.239 -0.2613 -0.0206  0.3156
   51MOL0     O 6603   7.685  -0.024   1.250 -0.2591 -0.0113  0.4714
   51MOL0     C 6604   7.718  -0.094   1.365  0.4991 -0.6432  0.5727
   51MOL0     C 6605   7.849  -0.080   1.413  0.5448 -0.9950  0.2585
   51MOL0     C 6606   7.902  -0.162   1.510  0.5387  0.3623  0.3142
   51MOL0     C 6607   7.827  -0.269   1.555  0.3465 -0.3706  0.1211
   51MOL0     O 6608   7.896  -0.357   1.634 -0.2643  0.6338 -0.1329
   51MOL0     C 6609   7.859  -0.495   1.665 -0.7904  0.1099  0.1261
   51MOL0     C 6610   7.955  -0.551   1.767  0.5206 -0.2513 -0.2802
   51MOL0     C 6611   7.912  -0.684   1.825 -0.2057  0.2111  0.5960
   51MOL0     C 6612   7.798  -0.688   1.921 -0.2421  0.3042 -0.0573
   51MOL0     C 6613   7.763  -0.833   1.964 -0.5209  0.6913 -0.6202
   51MOL0     C 6614   7.867  -0.913   2.051  0.5997  1.3129  0.9794
   51MOL0     C 6615   7.914  -0.852   2.175  0.1677  0.3046  0.5599
   51MOL0     C 6616   8.044  -0.923   2.222 -0.3221  0.1886 -0.7726
   51MOL0     N 6617   8.019  -1.037   2.302  0.3479  0.2167  0.3333
   51MOL0     C 6618   7.908  -1.110   2.319  0.1758 -0.2458  0.4467
   51MOL0     C 6619   7.933  -1.219   2.396  0.5133 -0.4239  0.1721
   51MOL0     C 6620   7.851  -1.336   2.428  0.5184 -0.5547 -0.0592
   51MOL0     C 6621   7.783  -1.324   2.570 -0.0604 -0.1845 -0.4535
   51MOL0     C 6622   7.679  -1.429   2.589  0.1931  0.1365  0.2582
   51MOL0     C 6623   7.540  -1.381   2.544 -0.5825  0.0300  0.1959
   51MOL0     O 6624   7.491  -1.273   2.625 -0.2265 -0.0628 -0.5621
   51MOL0     C 6625   7.367  -1.237   2.582  0.6617  0.0361 -0.4843
   51MOL0     C 6626   7.262  -1.259   2.676  0.1400 -0.0792  0.7912
   51MOL0     C 6627   7.123  -1.230   2.643  0.2413  0.7530  0.4087
   51MOL0     C 6628   7.106  -1.163   2.519  0.1214  0.2762  0.1129
   51MOL0     C 6629   6.970  -1.113   2.473  0.8382  0.2524  0.3128
   51MOL0     O 6630   6.893  -1.057   2.567 -0.5562 -0.4607 -0.6387
   51MOL0     C 6631   6.783  -0.988   2.534  1.2449 -0.1096  0.1000
   51MOL0     C 6632   6.680  -1.024   2.442 -0.5741 -0.0548 -0.4215
   51MOL0     C 6633   6.572  -0.946   2.430  0.0285 -0.2144  0.2001
   51MOL0     C 6634   6.544  -0.828   2.512 -0.1319  0.2041 -0.2142
   51MOL0     O 6635   6.425  -0.768   2.500  0.0817 -0.1379  0.3666
   51MOL0     C 6636   6.418  -0.644   2.572  0.1712  1.0657  0.3310
   51MOL0     C 6637   6.282  -0.590   2.554 -0.4185  0.5747  0.8962
   51MOL0     C 6638   6.169  -0.687   2.604 -0.1609 -0.1264  0.4110
   51MOL0     C 6639   6.017  -0.649   2.590 -0.2053 -1.1585  0.7652
   51MOL0     C 6640   5.995  -0.503   2.619  0.1985 -0.1892 -0.3292
   51MOL0     C 6641   5.839  -0.460   2.632 -0.1445 -0.6840  0.2130
   51MOL0     C 6642   5.835  -0.313   2.607 -0.1263 -1.1159 -0.8438
   51MOL0     C 6643   5.693  -0.248   2.626  0.4271  0.5304 -0.9079
   51MOL0    Cl 6644   5.639  -0.272   2.789  0.1692 -0.2934  0.1571
   51MOL0     C 6645   6.650  -0.796   2.601 -0.3316 -0.0889  0.3119
   51MOL0     C 6646   6.766  -0.874   2.609 -0.2557  0.2367  0.2099
   51MOL0     O 6647   6.946  -1.110   2.351  0.7065  0.5012  0.0044
   51MOL0     C 6648   7.216  -1.135   2.438  0.8632  0.3032  0.2813
   51MOL0     C 6649   7.342  -1.174   2.469  0.1654 -0.4457  0.4935
   51MOL0     N 6650   8.064  -1.202   2.435 -0.6979  0.1369 -0.4595
   51MOL0     N 6651   8.117  -1.104   2.369  0.3929 -0.3250 -0.4539
   51MOL0     C 6652   7.692  -0.287   1.512  0.7778  0.1490  0.4327
   51MOL0     C 6653   7.639  -0.197   1.420  0.4414  0.1747  0.3119
   51MOL0     C 6654   7.544   0.133   1.111  0.7598 -0.5842 -0.1329
   51MOL0     C 6655   7.409   0.183   1.097 -0.7335 -0.2600 -0.0379
   51MOL0     C 6656   7.368   0.246   0.977 -0.5591 -0.3895  1.4486
   51MOL0     C 6657   7.464   0.268   0.875 -0.4882  0.6692  0.3022
   51MOL0     O 6658   7.423   0.333   0.765  0.4273 -0.0420  0.2261
   51MOL0     C 6659   7.369   0.251   0.658  0.8685 -0.0891  0.0065
   51MOL0     C 6660   7.272   0.341   0.578  1.2152  0.0162  0.7662
   51MOL0     C 6661   7.175   0.255   0.495 -0.5659 -0.0324  0.4021
   51MOL0     C 6662   7.070   0.348   0.430  0.5461 -0.1514  0.4255
   51MOL0     C 6663   6.976   0.286   0.331  0.4223  0.2762 -0.1057
   51MOL0     C 6664   6.897   0.237   0.246  0.7795 -0.3684 -1.4131
   51MOL0     C 6665   7.595   0.224   0.901 -0.0004 -0.4971  0.7823
   51MOL0     C 6666   7.633   0.140   1.004 -0.6138 -0.5085 -0.2884
   51MOL0     H 6667   7.913  -0.027   1.343 -0.0734  1.3044  1.3343
   51MOL0     H 6668   8.008  -0.148   1.531  0.5894  0.5283 -0.0390
   51MOL0     H 6669   7.846  -0.546   1.569 -1.4887  1.4295 -0.5281
   51MOL0     H 6670   7.760  -0.482   1.710 -1.0912 -0.4593 -0.3542
   51MOL0     H 6671   7.963  -0.486   1.855  0.7472 -1.2030  0.4274
   51MOL0     H 6672   8.057  -0.564   1.730  0.2699 -0.0531 -1.0477
   51MOL0     H 6673   8.005  -0.715   1.873 -0.5535 -1.4690  0.2565
   51MOL0     H 6674   7.894  -0.766   1.755 -0.8822 -1.0124  2.1409
   51MOL0     H 6675   7.827  -0.630   2.009 -1.0444  0.5035  0.0867
   51MOL0     H 6676   7.709  -0.647   1.871  0.5524  2.9234  0.5228
   51MOL0     H 6677   7.749  -0.895   1.875 -0.9375  1.0013 -0.7744
   51MOL0     H 6678   7.665  -0.823   2.012 -0.5108 -0.1429 -0.4106
   51MOL0     H 6679   7.952  -0.940   1.988 -0.9000 -1.8742  0.0547
   51MOL0     H 6680   7.825  -1.010   2.082 -1.4494  2.2787  1.4289
   51MOL0     H 6681   7.942  -0.750   2.147 -1.2087  1.3782  2.8070
   51MOL0     H 6682   7.832  -0.846   2.248 -0.2920 -0.9848  0.1734
   51MOL0     H 6683   8.092  -0.855   2.293 -0.9909  0.8055 -0.9022
   51MOL0     H 6684   8.105  -0.937   2.133  0.8310  1.7755 -0.2831
   51MOL0     H 6685   7.810  -1.101   2.274 -1.0526 -1.8448  2.6092
   51MOL0     H 6686   7.912  -1.427   2.433  2.5825  0.7591 -0.2602
   51MOL0     H 6687   7.773  -1.356   2.354  0.5068  1.4742 -0.6439
   51MOL0     H 6688   7.748  -1.225   2.599 -0.2943 -0.1322 -0.9083
   51MOL0     H 6689   7.849  -1.339   2.656  2.2304 -0.8768 -2.2465
   51MOL0     H 6690   7.693  -1.526   2.539 -2.3480 -0.4444  0.5506
   51MOL0     H 6691   7.666  -1.457   2.694  2.9563 -1.0962  0.3533
   51MOL0     H 6692   7.474  -1.468   2.546  1.0322 -1.3670 -1.9508
   51MOL0     H 6693   7.551  -1.345   2.441  1.0587  1.9034  0.9494
   51MOL0     H 6694   7.283  -1.300   2.774  1.2749 -1.7723 -0.1109
   51MOL0     H 6695   7.040  -1.246   2.711 -0.2566  1.9638  0.1157
   51MOL0     H 6696   6.697  -1.117   2.389  2.1647  0.8729 -1.3455
   51MOL0     H 6697   6.492  -0.968   2.359 -1.3274 -0.5950  1.7732
   51MOL0     H 6698   6.489  -0.577   2.522  0.5670  0.3230 -0.1211
   51MOL0     H 6699   6.443  -0.657   2.677  1.4471 -1.3687 -0.2021
   51MOL0     H 6700   6.254  -0.581   2.449 -1.5377  1.0318  1.2238
   51MOL0     H 6701   6.277  -0.494   2.607  3.2301  0.5392  1.5739
   51MOL0     H 6702   6.187  -0.707   2.710  0.5954 -1.0476  0.1136
   51MOL0     H 6703   6.170  -0.785   2.556 -2.0621 -1.2002  2.3446
   51MOL0     H 6704   6.004  -0.659   2.481 -0.5423 -2.1323  0.8813
   51MOL0     H 6705   5.950  -0.714   2.646 -3.6320  1.0628 -0.4401
   51MOL0     H 6706   6.018  -0.451   2.526  0.4355  0.2938 -0.0081
   51MOL0     H 6707   6.062  -0.455   2.691 -0.3368  1.5099 -0.9114
   51MOL0     H 6708   5.784  -0.473   2.725  0.5200 -0.5339  0.6305
   51MOL0     H 6709   5.788  -0.520   2.555  1.6708 -1.8939 -0.1153
   51MOL0     H 6710   5.900  -0.253   2.671 -2.8945 -0.5661  1.6406
   51MOL0     H 6711   5.863  -0.299   2.502  0.0380 -2.0556 -0.9398
   51MOL0     H 6712   5.623  -0.295   2.557  0.2110 -1.3272  0.4960
   51MOL0     H 6713   5.706  -0.144   2.596  0.6408  1.0236  0.7973
   51MOL0     H 6714   6.649  -0.713   2.670 -0.8650  0.8168 -0.7541
   51MOL0     H 6715   6.836  -0.850   2.688 -0.8513  0.8529  0.5680
   51MOL0     H 6716   7.199  -1.084   2.344  1.9944  1.2902  0.5845
   51MOL0     H 6717   7.423  -1.134   2.409 -2.2848  3.3361 -0.6428
   51MOL0     H 6718   7.640  -0.380   1.533  1.2051  0.2055  1.8524
   51MOL0     H 6719   7.544  -0.222   1.373 -0.0395  0.6094  1.0373
   51MOL0     H 6720   7.339   0.171   1.178 -0.3128  0.9522  0.5363
   51MOL0     H 6721   7.271   0.292   0.962 -0.5026 -0.9281 -0.8592
   51MOL0     H 6722   7.308   0.171   0.701 -1.9398  2.1036  0.4218
   51MOL0     H 6723   7.437   0.203   0.587 -1.3733 -1.1828 -1.5285
   51MOL0     H 6724   7.214   0.399   0.651  2.7387  1.5718  0.8158
   51MOL0     H 6725   7.337   0.412   0.526 -0.1825  2.9935  2.8045
   51MOL0     H 6726   7.135   0.175   0.557 -1.5273 -0.0787 -0.2549
   51MOL0     H 6727   7.228   0.215   0.408 -0.7410  1.9170 -0.6461
   51MOL0     H 6728   7.003   0.393   0.504  2.6710 -0.7733  2.8335
   51MOL0     H 6729   7.121   0.424   0.369 -1.7201  0.1621 -1.2074
   51MOL0     H 6730   6.843   0.191   0.167  0.8880 -0.0102 -1.7015
   51MOL0     H 6731   7.665   0.256   0.825 -0.6528  1.2240  0.8807
   51MOL0     H 6732   7.732   0.099   1.021  0.5374  2.7196  1.7558
   52MOL0     O 6733   3.573   4.804  10.212 -0.4322  0.3267 -0.5837
   52MOL0     C 6734   3.589   4.679  10.198 -0.5829  0.0970 -0.0479
   52MOL0     O 6735   3.485   4.591  10.211  0.6796 -0.1249 -0.1210
   52MOL0     C 6736   3.354   4.636  10.209  1.7169  0.7890  0.0554
   52MOL0     C 6737   3.263   4.554  10.143  0.1780  0.0286 -0.0813
   52MOL0     C 6738   3.126   4.580  10.143  0.2664 -0.3746 -0.9943
   52MOL0     C 6739   3.074   4.691  10.212  0.0329  0.5467 -0.3342
   52MOL0     O 6740   2.938   4.699  10.200  0.3320  0.0887  0.3368
   52MOL0     C 6741   2.878   4.791  10.286  0.5294  0.1362 -0.1688
   52MOL0     C 6742   2.727   4.761  10.301 -0.3962 -0.5014 -0.0426
   52MOL0     C 6743   2.663   4.824  10.185  0.3384  0.8078 -0.6656
   52MOL0     C 6744   2.517   4.769  10.190 -0.0950  0.2721 -0.2464
   52MOL0     C 6745   2.414   4.829  10.092 -0.8338 -0.6379  0.7631
   52MOL0     C 6746   2.274   4.772  10.123 -0.2661 -0.0139 -0.0364
   52MOL0     C 6747   2.155   4.815  10.034 -0.2993 -0.5363 -0.2411
   52MOL0     C 6748   2.023   4.756  10.079 -0.8209  0.7528  0.2326
   52MOL0     N 6749   1.913   4.824  10.004  0.3838  1.3471  0.2417
   52MOL0     C 6750   1.896   4.957  10.005 -0.7142 -0.0727  0.1444
   52MOL0     C 6751   1.770   4.976   9.970 -0.0374  0.0140  0.4890
   52MOL0     C 6752   1.711   5.110   9.967  0.0530  0.0230  0.0254
   52MOL0     C 6753   1.571   5.105   9.907 -0.2013  0.2057 -0.1135
   52MOL0     C 6754   1.476   5.047  10.021 -0.0344 -1.2985 -0.2771
   52MOL0     C 6755   1.331   5.031   9.973  0.5705 -0.8067  0.9270
   52MOL0     O 6756   1.259   4.982  10.088 -0.3055  0.0878  0.5772
   52MOL0     C 6757   1.133   4.924  10.080  0.3319 -0.2454 -0.5617
   52MOL0     C 6758   1.061   4.911   9.961  0.3316  0.4541 -0.8894
   52MOL0     C 6759   0.941   4.842   9.952  1.1040  0.6340 -0.0939
   52MOL0     C 6760   0.889   4.775  10.067  0.0761 -1.0178  0.3923
   52MOL0     C 6761   0.757   4.707  10.067 -0.2085 -0.3189 -0.2573
   52MOL0     O 6762   0.680   4.728   9.956 -0.7304 -0.1958 -0.1296
   52MOL0     C 6763   0.552   4.680   9.930  0.8800 -0.4442 -0.3706
   52MOL0     C 6764   0.476   4.761   9.840 -0.0744  0.4016  0.3923
   52MOL0     C 6765   0.352   4.716   9.814 -0.3927 -0.2222  0.9192
   52MOL0     C 6766   0.299   4.605   9.872  0.5178 -0.0162  0.9016
   52MOL0     O 6767   0.172   4.582   9.825  0.6370 -0.6885 -0.1702
   52MOL0     C 6768   0.081   4.489   9.884  0.5809  0.3705 -0.8158
   52MOL0     C 6769  -0.060   4.526   9.856  0.4303  0.2632 -0.1884
   52MOL0     C 6770  -0.099   4.474   9.713  0.5974  0.3145  0.4580
   52MOL0     C 6771  -0.248   4.463   9.691 -0.3783 -0.0761  0.6712
   52MOL0     C 6772  -0.311   4.331   9.711 -0.5511  0.0577  0.9278
   52MOL0     C 6773  -0.465   4.324   9.688  0.6931  0.4476 -0.3568
   52MOL0     C 6774  -0.526   4.194   9.745 -0.2204  1.0098  0.9608
   52MOL0     C 6775  -0.672   4.158   9.689 -0.8961  0.1651 -0.6882
   52MOL0    Cl 6776  -0.768   4.311   9.679 -0.5597  0.0590 -0.1508
   52MOL0     C 6777   0.374   4.518   9.954 -0.3216 -0.0174 -0.9671
   52MOL0     C 6778   0.502   4.561   9.983 -0.3458 -0.7157  0.1344
   52MOL0     O 6779   0.729   4.634  10.164  0.7292  0.1350 -0.8141
   52MOL0     C 6780   0.965   4.788  10.180  0.2035  0.1172  0.1975
   52MOL0     C 6781   1.081   4.867  10.191  0.0836  0.3349 -0.2540
   52MOL0     N 6782   1.712   4.853   9.943  0.1908 -0.5703  0.1733
   52MOL0     N 6783   1.801   4.764   9.956 -0.6633  0.0018  0.5865
   52MOL0     C 6784   3.164   4.771  10.283  1.1418 -0.3333 -0.5026
   52MOL0     C 6785   3.303   4.744  10.278 -1.1015 -0.2479 -0.6560
   52MOL0     C 6786   3.715   4.628  10.155  0.0586 -0.4173 -0.4082
   52MOL0     C 6787   3.748   4.494  10.131 -0.4867 -0.4012 -0.2170
   52MOL0     C 6788   3.878   4.452  10.105  0.0154 -0.5575 -0.0433
   52MOL0     C 6789   3.984   4.543  10.107  0.1247  0.6363  0.4997
   52MOL0     O 6790   4.114   4.491  10.084  0.7146  0.5606  0.3272
   52MOL0     C 6791   4.230   4.581  10.085  0.9011  0.0219 -0.0051
   52MOL0     C 6792   4.335   4.499  10.020 -0.5492 -0.1403 -0.2137
   52MOL0     C 6793   4.465   4.579   9.999 -0.2044  0.5040  0.4560
   52MOL0     C 6794   4.574   4.488   9.941 -0.1229  0.4067  0.4436
   52MOL0     C 6795   4.701   4.551   9.956 -0.5894 -0.3068 -0.4026
   52MOL0     C 6796   4.808   4.601   9.972 -0.5820 -0.8443 -0.9729
   52MOL0     C 6797   3.957   4.677  10.108 -0.0913 -0.2565 -1.1500
   52MOL0     C 6798   3.826   4.716  10.128 -0.1090 -0.2978 -0.2672
   52MOL0     H 6799   3.303   4.471  10.086  1.6169  0.3881  0.3669
   52MOL0     H 6800   3.059   4.514  10.088 -3.7089 -1.5923  4.4713
   52MOL0     H 6801   2.892   4.895  10.256 -0.1276  0.6072  1.1079
   52MOL0     H 6802   2.934   4.787  10.379  0.1037  1.3645  0.1570
   52MOL0     H 6803   2.682   4.814  10.386 -0.7346  0.5410 -0.8541
   52MOL0     H 6804   2.710   4.654  10.312  0.0346 -0.4957  0.8504
   52MOL0     H 6805   2.708   4.791  10.090  1.7663  0.5630  0.0695
   52MOL0     H 6806   2.667   4.932  10.194 -1.4451  0.8788 -0.3175
   52MOL0     H 6807   2.512   4.661  10.173 -2.3000  0.2560  0.2310
   52MOL0     H 6808   2.470   4.792  10.286 -3.9623  1.5292 -2.2488
   52MOL0     H 6809   2.446   4.805   9.990  1.0921  0.5854  1.0440
   52MOL0     H 6810   2.417   4.934  10.120  2.7099 -0.6881  0.9980
   52MOL0     H 6811   2.249   4.806  10.224 -2.0540 -0.8169 -0.1688
   52MOL0     H 6812   2.264   4.664  10.140 -5.6446 -0.0047 -1.0951
   52MOL0     H 6813   2.150   4.924  10.036 -0.9076 -0.5711  0.3173
   52MOL0     H 6814   2.177   4.781   9.932 -0.3717  0.6873 -0.6697
   52MOL0     H 6815   2.005   4.764  10.187  0.1842  1.5807  0.3561
   52MOL0     H 6816   2.030   4.651  10.049 -1.0250  0.5125  0.9986
   52MOL0     H 6817   1.958   5.034  10.049 -0.4950  0.9335 -1.8468
   52MOL0     H 6818   1.778   5.171   9.905  0.8832  0.9640  1.7846
   52MOL0     H 6819   1.718   5.153  10.067 -1.7995  2.8505 -0.9495
   52MOL0     H 6820   1.554   5.055   9.811 -1.9953  0.6222 -0.0577
   52MOL0     H 6821   1.536   5.205   9.882 -2.0288 -0.4835 -0.5536
   52MOL0     H 6822   1.502   4.949  10.062 -0.8696 -1.1380  0.6773
   52MOL0     H 6823   1.491   5.105  10.112  1.3628 -1.3290 -0.4619
   52MOL0     H 6824   1.322   4.958   9.893  2.4415 -0.8485  0.7156
   52MOL0     H 6825   1.294   5.128   9.938  2.5579  0.3948  1.9488
   52MOL0     H 6826   1.113   4.946   9.872  1.5400  2.7281  0.5943
   52MOL0     H 6827   0.871   4.831   9.870 -3.5976  1.2380  3.3744
   52MOL0     H 6828   0.522   4.847   9.792  1.6553 -0.9913 -0.5970
   52MOL0     H 6829   0.291   4.753   9.732 -0.7126  2.2449  2.1776
   52MOL0     H 6830   0.091   4.487   9.993  0.2666  0.9930 -0.7713
   52MOL0     H 6831   0.104   4.392   9.840  0.7801 -0.1018  0.2778
   52MOL0     H 6832  -0.063   4.635   9.867 -1.6043  0.3964 -1.4762
   52MOL0     H 6833  -0.123   4.480   9.933 -0.4017 -0.1579 -1.1052
   52MOL0     H 6834  -0.052   4.376   9.697  0.8541  0.6316 -0.8954
   52MOL0     H 6835  -0.063   4.553   9.646  0.5943  1.8919  2.2449
   52MOL0     H 6836  -0.304   4.532   9.755  0.2922 -0.1777  1.3874
   52MOL0     H 6837  -0.264   4.487   9.586  0.7795 -0.1299  0.4659
   52MOL0     H 6838  -0.279   4.301   9.811 -1.4421  2.3835  1.9999
   52MOL0     H 6839  -0.262   4.270   9.635 -2.1514 -1.2790  0.9309
   52MOL0     H 6840  -0.489   4.345   9.584  0.0315 -1.0692 -0.5297
   52MOL0     H 6841  -0.518   4.402   9.743  0.0803  0.5548 -1.0925
   52MOL0     H 6842  -0.462   4.108   9.721 -2.2435  0.1940 -2.1039
   52MOL0     H 6843  -0.549   4.215   9.850 -2.7732  2.9438  0.1180
   52MOL0     H 6844  -0.709   4.078   9.753  2.9200 -0.7694  0.5866
   52MOL0     H 6845  -0.661   4.115   9.589 -0.6729 -2.2024  0.2900
   52MOL0     H 6846   0.336   4.425   9.995 -2.7539  0.8681 -1.0703
   52MOL0     H 6847   0.565   4.494  10.040 -0.4872 -3.0930 -2.3158
   52MOL0     H 6848   0.926   4.741  10.270 -0.7350  2.8038  1.2955
   52MOL0     H 6849   1.134   4.872  10.286 -1.1541 -0.2327  0.4850
   52MOL0     H 6850   3.129   4.858  10.337 -0.6267 -1.6236  0.5331
   52MOL0     H 6851   3.369   4.806  10.338  0.2788 -1.6735 -0.6342
   52MOL0     H 6852   3.666   4.423  10.144 -0.0781 -0.8070  0.1514
   52MOL0     H 6853   3.909   4.349  10.093  1.2182 -0.2396  0.2333
   52MOL0     H 6854   4.259   4.598  10.189 -0.4012  1.7564  0.1186
   52MOL0     H 6855   4.210   4.676  10.035 -0.9373 -1.5544 -2.4513
   52MOL0     H 6856   4.350   4.412  10.085 -1.6336  2.2944  3.6725
   52MOL0     H 6857   4.296   4.465   9.924 -2.0250  0.4957  0.1433
   52MOL0     H 6858   4.497   4.614  10.097 -3.9469  1.6416  1.4335
   52MOL0     H 6859   4.440   4.663   9.934  1.9944  0.9834  0.1764
   52MOL0     H 6860   4.579   4.391   9.991  3.9435  0.7991  1.1471
   52MOL0     H 6861   4.552   4.477   9.834 -0.8706  1.1990  0.5070
   52MOL0     H 6862   4.905   4.639   9.996 -1.5925 -0.1171  2.6645
   52MOL0     H 6863   4.038   4.749  10.103 -0.1079 -0.0941  0.3949
   52MOL0     H 6864   3.818   4.822  10.148 -1.3639 -0.1277 -1.5461
   53MOL0     O 6865   2.653   9.170   5.530 -0.4967  0.3001 -0.3261
   53MOL0     C 6866   2.738   9.176   5.443 -0.5961 -0.3537  0.8345
   53MOL0     O 6867   2.746   9.092   5.339 -0.4623 -0.4488  0.9424
   53MOL0     C 6868   2.666   8.976   5.318  0.0255 -0.8774  0.0006
   53MOL0     C 6869   2.719   8.861   5.256  1.0093 -0.1717 -1.0981
   53MOL0     C 6870   2.650   8.741   5.244  0.1030  0.2675 -0.0350
   53MOL0     C 6871   2.525   8.723   5.295  0.2640 -0.2004 -0.2954
   53MOL0     O 6872   2.465   8.602   5.274  0.4406  0.1515 -0.0076
   53MOL0     C 6873   2.317   8.602   5.270 -0.5800  0.3239 -0.6233
   53MOL0     C 6874   2.265   8.487   5.181  0.5867 -0.3851 -0.1235
   53MOL0     C 6875   2.130   8.432   5.221 -0.1322 -0.2875 -0.8372
   53MOL0     C 6876   2.017   8.544   5.227 -0.1157 -0.3867  0.4186
   53MOL0     C 6877   1.888   8.499   5.282  0.3101  0.4095 -0.0865
   53MOL0     C 6878   1.894   8.451   5.428  0.6057 -0.3563  0.5387
   53MOL0     C 6879   1.749   8.447   5.486 -0.5578  0.1680  1.2388
   53MOL0     C 6880   1.753   8.440   5.634 -0.6316 -1.2169 -0.5508
   53MOL0     N 6881   1.620   8.449   5.692 -0.0308 -0.1249  0.6269
   53MOL0     C 6882   1.527   8.346   5.672 -0.2620  0.0870 -0.4852
   53MOL0     C 6883   1.420   8.377   5.745  0.8295  0.4477  0.3677
   53MOL0     C 6884   1.297   8.293   5.775 -1.2896  0.4118 -0.8729
   53MOL0     C 6885   1.167   8.370   5.722  0.2609  0.0105  0.5307
   53MOL0     C 6886   1.042   8.300   5.786  0.2610 -0.7567 -0.7791
   53MOL0     C 6887   1.022   8.150   5.769 -0.1459 -0.4539 -0.0521
   53MOL0     O 6888   0.894   8.114   5.814  0.7581  0.8219  0.7977
   53MOL0     C 6889   0.789   8.121   5.735  0.9208 -0.3177  0.0057
   53MOL0     C 6890   0.786   8.175   5.604  0.5271  0.0173  0.7449
   53MOL0     C 6891   0.669   8.173   5.528 -0.5052 -0.7600 -0.3647
   53MOL0     C 6892   0.556   8.107   5.575 -0.2186 -0.3893  0.6487
   53MOL0     C 6893   0.431   8.097   5.497  0.1828  0.2512 -0.0407
   53MOL0     O 6894   0.326   8.056   5.562  0.0097  0.4768 -0.3970
   53MOL0     C 6895   0.195   8.066   5.505 -0.8990 -0.2398 -0.4147
   53MOL0     C 6896   0.108   8.141   5.575  0.4747  0.0710 -0.0120
   53MOL0     C 6897  -0.029   8.136   5.563  0.3019 -0.0567 -0.2054
   53MOL0     C 6898  -0.087   8.048   5.463 -0.3689 -0.1922  0.4950
   53MOL0     O 6899  -0.226   8.064   5.432 -0.3872  0.1522  0.1415
   53MOL0     C 6900  -0.280   7.970   5.341 -0.4795  0.2360  0.2460
   53MOL0     C 6901  -0.434   7.980   5.357  0.2956  0.3833 -0.0047
   53MOL0     C 6902  -0.491   7.928   5.496 -0.6063  0.2479  0.0044
   53MOL0     C 6903  -0.640   7.916   5.486  0.6731  0.9475 -0.8006
   53MOL0     C 6904  -0.701   7.789   5.416  0.1697 -0.3042  1.1070
   53MOL0     C 6905  -0.846   7.821   5.359 -0.4575  0.4523  0.0591
   53MOL0     C 6906  -0.956   7.848   5.463 -0.0701 -0.3202  0.7446
   53MOL0     C 6907  -1.094   7.839   5.396  0.8043 -0.6623 -0.5758
   53MOL0    Cl 6908  -1.229   7.878   5.504 -0.6109 -0.7359 -0.1287
   53MOL0     C 6909   0.004   7.976   5.383 -0.3287 -0.1238 -0.9926
   53MOL0     C 6910   0.147   7.981   5.404  0.1934  0.5715  0.7067
   53MOL0     O 6911   0.429   8.118   5.375 -0.9317 -0.5768 -0.4434
   53MOL0     C 6912   0.558   8.041   5.700  0.0397 -0.2716  0.9059
   53MOL0     C 6913   0.678   8.053   5.780  0.4722  0.1708 -0.0564
   53MOL0     N 6914   1.433   8.502   5.792  0.3158 -0.4771 -0.3215
   53MOL0     N 6915   1.559   8.545   5.766  0.1176  0.0118 -1.0347
   53MOL0     C 6916   2.465   8.839   5.350 -0.7744  0.1804 -0.6416
   53MOL0     C 6917   2.533   8.968   5.361  0.9310  0.6246  1.0492
   53MOL0     C 6918   2.851   9.279   5.469 -0.0828 -1.1876  1.1935
   53MOL0     C 6919   2.944   9.307   5.361  0.1768 -0.9970  0.3291
   53MOL0     C 6920   3.050   9.393   5.382 -0.4004 -0.5187 -0.4671
   53MOL0     C 6921   3.062   9.459   5.511 -0.2309  0.2422  0.6900
   53MOL0     O 6922   3.159   9.546   5.509  0.7704  0.3975  0.1821
   53MOL0     C 6923   3.150   9.658   5.599 -0.0078 -0.2042  0.6838
   53MOL0     C 6924   3.276   9.753   5.604 -0.1304 -0.1701 -0.8109
   53MOL0     C 6925   3.345   9.788   5.476 -0.3205  0.2299 -0.3325
   53MOL0     C 6926   3.281   9.904   5.395  0.6560  0.2241  0.1890
   53MOL0     C 6927   3.291  10.031   5.458  0.5509 -0.4219  0.5924
   53MOL0     C 6928   3.298  10.143   5.504 -0.7356 -0.1531  0.1421
   53MOL0     C 6929   2.966   9.438   5.606 -1.1105  0.3656 -0.1610
   53MOL0     C 6930   2.861   9.349   5.584  0.9075 -1.0405  0.8592
   53MOL0     H 6931   2.825   8.872   5.235  1.7615 -4.1180 -0.1542
   53MOL0     H 6932   2.707   8.661   5.198  1.1836  1.2373 -0.4546
   53MOL0     H 6933   2.267   8.698   5.255 -0.3399  0.4471 -0.6368
   53MOL0     H 6934   2.294   8.573   5.374  0.3753  1.0186 -0.2039
   53MOL0     H 6935   2.338   8.408   5.164 -0.0314 -1.4157  1.6532
   53MOL0     H 6936   2.248   8.526   5.081  1.2471 -1.9156 -0.8610
   53MOL0     H 6937   2.138   8.399   5.325  1.6513  1.8637 -0.2315
   53MOL0     H 6938   2.106   8.345   5.159 -1.6308  0.8217 -1.9011
   53MOL0     H 6939   2.058   8.618   5.297  3.0680 -2.7558  1.2778
   53MOL0     H 6940   2.010   8.583   5.125  0.6967 -4.4770 -1.3792
   53MOL0     H 6941   1.837   8.426   5.217 -0.1314  0.3714  0.2929
   53MOL0     H 6942   1.813   8.578   5.278  1.2561  1.6132  3.0041
   53MOL0     H 6943   1.954   8.528   5.477 -0.3098  1.3399 -0.9178
   53MOL0     H 6944   1.946   8.354   5.437  1.1806  0.0017  1.2675
   53MOL0     H 6945   1.696   8.539   5.458  2.6097  1.7987 -0.0302
   53MOL0     H 6946   1.707   8.359   5.436  0.2457  0.4952 -0.0722
   53MOL0     H 6947   1.820   8.515   5.678 -0.5636 -1.0157 -0.9958
   53MOL0     H 6948   1.796   8.347   5.672  0.6078 -0.3573  0.2305
   53MOL0     H 6949   1.529   8.255   5.613 -0.6504 -0.6203  0.5770
   53MOL0     H 6950   1.291   8.271   5.882  0.9152 -1.0646 -0.9955
   53MOL0     H 6951   1.311   8.193   5.733 -1.0489  0.7802 -1.6904
   53MOL0     H 6952   1.169   8.356   5.614 -2.6603  0.2242  0.3676
   53MOL0     H 6953   1.168   8.476   5.749  0.5278 -0.1103  1.0204
   53MOL0     H 6954   1.033   8.320   5.893  1.6719 -1.5787 -0.4918
   53MOL0     H 6955   0.955   8.340   5.732 -0.6588 -2.1852 -0.4142
   53MOL0     H 6956   1.100   8.102   5.829  1.1994  2.0312  0.3468
   53MOL0     H 6957   1.042   8.113   5.668  0.0239 -1.1277  0.2233
   53MOL0     H 6958   0.876   8.223   5.567  0.3634  0.3521  0.7781
   53MOL0     H 6959   0.669   8.222   5.432  2.0185  0.4531  0.1842
   53MOL0     H 6960   0.150   8.204   5.654 -0.6535 -0.4539  1.0520
   53MOL0     H 6961  -0.091   8.192   5.631  0.2488 -1.7728  1.2533
   53MOL0     H 6962  -0.259   7.867   5.371 -2.1386 -0.8456 -2.0423
   53MOL0     H 6963  -0.248   7.981   5.237 -1.2051 -1.9289 -0.2504
   53MOL0     H 6964  -0.473   7.906   5.286 -1.1782  1.3528 -0.2578
   53MOL0     H 6965  -0.458   8.084   5.333 -1.7180  0.8514  3.3736
   53MOL0     H 6966  -0.474   8.006   5.571 -0.2659  2.4288 -2.2070
   53MOL0     H 6967  -0.442   7.837   5.532  0.4721  0.9843  0.4440
   53MOL0     H 6968  -0.686   7.920   5.586  1.1861  0.7932 -0.5554
   53MOL0     H 6969  -0.682   7.997   5.427 -2.8828  0.5424  0.8716
   53MOL0     H 6970  -0.704   7.704   5.486  1.7805  0.1801  1.8203
   53MOL0     H 6971  -0.638   7.746   5.337 -0.4412  1.2230 -0.2576
   53MOL0     H 6972  -0.878   7.741   5.291 -0.4146  1.4260 -1.1577
   53MOL0     H 6973  -0.832   7.914   5.303  0.0987 -0.3588 -1.2202
   53MOL0     H 6974  -0.940   7.774   5.541  3.5860 -1.3168 -0.7211
   53MOL0     H 6975  -0.937   7.944   5.513 -0.2827 -0.1550  0.5153
   53MOL0     H 6976  -1.116   7.737   5.365 -2.2957  0.1532 -1.3764
   53MOL0     H 6977  -1.087   7.903   5.307 -0.2757 -0.4569 -0.5260
   53MOL0     H 6978  -0.043   7.908   5.313 -0.5023  0.8187 -1.8258
   53MOL0     H 6979   0.209   7.915   5.344 -0.8123 -0.4978  0.8040
   53MOL0     H 6980   0.472   7.989   5.740 -1.3790  0.9092 -0.4855
   53MOL0     H 6981   0.695   7.995   5.870  4.2385 -0.2285 -0.8577
   53MOL0     H 6982   2.365   8.839   5.392 -0.7309 -2.0122 -0.4570
   53MOL0     H 6983   2.490   9.052   5.415 -1.1679  0.7340 -0.6688
   53MOL0     H 6984   2.945   9.262   5.262 -0.7222  3.0962 -1.7780
   53MOL0     H 6985   3.131   9.417   5.315 -0.3716  4.1159  0.8866
   53MOL0     H 6986   3.142   9.618   5.701  1.1155 -1.4407  0.3161
   53MOL0     H 6987   3.066   9.723   5.571 -1.8862 -2.9259 -0.3662
   53MOL0     H 6988   3.249   9.833   5.674  0.6933 -1.0733  0.5844
   53MOL0     H 6989   3.344   9.696   5.667 -2.2089 -0.7549  1.0157
   53MOL0     H 6990   3.346   9.712   5.398 -1.1739  0.5950 -0.7152
   53MOL0     H 6991   3.450   9.808   5.500 -0.8552  0.5845  2.0360
   53MOL0     H 6992   3.329   9.906   5.296  1.1078 -0.9675  0.3667
   53MOL0     H 6993   3.175   9.881   5.381  0.4715  1.6308 -0.9826
   53MOL0     H 6994   3.330  10.245   5.513 -1.9546  0.3302 -0.7225
   53MOL0     H 6995   2.988   9.475   5.706  0.5226 -0.9135  0.0038
   53MOL0     H 6996   2.791   9.336   5.666  0.6530  0.3269  0.8803
   54MOL0     O 6997   0.516   7.604   3.808  0.3397  0.2347  0.1781
   54MOL0     C 6998   0.588   7.578   3.906  0.6964 -1.3967 -0.5746
   54MOL0     O 6999   0.555   7.496   4.015 -0.1883  0.5869 -0.4820
   54MOL0     C 7000   0.443   7.422   4.006 -0.9520  0.5365  0.5610
   54MOL0     C 7001   0.436   7.295   4.061  0.3480 -0.2770  0.8663
   54MOL0     C 7002   0.326   7.209   4.045 -0.0294  0.0842 -0.8583
   54MOL0     C 7003   0.222   7.258   3.974 -0.0126  0.0498 -0.1305
   54MOL0     O 7004   0.104   7.189   3.958 -0.5357 -0.2464  0.0648
   54MOL0     C 7005   0.088   7.051   3.985 -0.2361  0.2285  0.2445
   54MOL0     C 7006  -0.052   7.006   3.948  0.2383  0.8590 -0.0968
   54MOL0     C 7007  -0.173   7.064   4.017 -0.4407 -0.2968  0.1002
   54MOL0     C 7008  -0.300   6.999   3.962  0.2265 -0.3584  0.7550
   54MOL0     C 7009  -0.428   7.065   4.029 -0.5382  0.0736  0.2490
   54MOL0     C 7010  -0.549   6.973   3.987 -0.3332 -0.9234 -0.5012
   54MOL0     C 7011  -0.683   7.034   4.044  0.0089  0.2146 -0.5938
   54MOL0     C 7012  -0.794   6.935   4.051 -0.0941  0.1413  0.2095
   54MOL0     N 7013  -0.919   6.999   4.097  0.7649  0.3797 -0.5643
   54MOL0     C 7014  -1.023   7.051   4.014 -0.4563 -0.1250  0.1424
   54MOL0     C 7015  -1.118   7.095   4.096 -0.3014 -0.3802 -0.9923
   54MOL0     C 7016  -1.246   7.137   4.038 -0.0930  0.3026  0.1784
   54MOL0     C 7017  -1.338   7.011   4.044 -0.5130  0.0569  0.5432
   54MOL0     C 7018  -1.387   6.995   4.185  0.6787  0.2801 -0.8379
   54MOL0     C 7019  -1.459   6.861   4.207 -0.3760  0.5404  0.0982
   54MOL0     O 7020  -1.594   6.865   4.148  0.3271 -0.6208  0.0232
   54MOL0     C 7021  -1.702   6.916   4.214 -0.0389 -0.1987  0.0527
   54MOL0     C 7022  -1.687   6.977   4.336  0.2401 -0.8131 -0.1325
   54MOL0     C 7023  -1.804   7.040   4.395  1.1811 -0.5521  0.1016
   54MOL0     C 7024  -1.922   7.067   4.321  0.4873  0.5582 -0.1814
   54MOL0     C 7025  -2.033   7.138   4.386 -0.0673 -0.4339  0.2581
   54MOL0     O 7026  -2.127   7.189   4.290  0.7866  0.1542 -0.6674
   54MOL0     C 7027  -2.236   7.245   4.351 -0.4496  0.1066 -0.1951
   54MOL0     C 7028  -2.225   7.359   4.421 -0.0015 -0.2838 -0.1127
   54MOL0     C 7029  -2.332   7.423   4.483 -0.6868  0.7613  0.1144
   54MOL0     C 7030  -2.456   7.374   4.471 -0.0956 -0.1849  0.3845
   54MOL0     O 7031  -2.558   7.452   4.516  0.4919  0.1004  0.1992
   54MOL0     C 7032  -2.642   7.393   4.621 -0.0181  0.2601 -1.0179
   54MOL0     C 7033  -2.731   7.511   4.666  0.1590  0.6459  0.0150
   54MOL0     C 7034  -2.838   7.456   4.752 -0.0167 -0.7154  0.2266
   54MOL0     C 7035  -2.958   7.548   4.776  0.1907  0.3003  0.2932
   54MOL0     C 7036  -3.077   7.465   4.826 -0.5477  0.1337 -0.2602
   54MOL0     C 7037  -3.147   7.546   4.935  0.5997  0.6904 -0.9007
   54MOL0     C 7038  -3.286   7.487   4.957  0.1546 -0.5283  0.4927
   54MOL0     C 7039  -3.399   7.532   4.862  0.3787 -0.1837  0.6216
   54MOL0    Cl 7040  -3.561   7.481   4.908 -0.0310  0.3167  0.1099
   54MOL0     C 7041  -2.465   7.254   4.397  0.0363 -0.1290 -0.5073
   54MOL0     C 7042  -2.363   7.187   4.334 -0.0704  0.2468 -0.3036
   54MOL0     O 7043  -2.031   7.159   4.513  0.6176 -0.7917 -0.2435
   54MOL0     C 7044  -1.927   7.019   4.190 -0.5026  0.4590  0.2150
   54MOL0     C 7045  -1.821   6.939   4.148  1.1896  0.2788  0.5756
   54MOL0     N 7046  -1.069   7.088   4.228  0.3421  0.0607 -0.1732
   54MOL0     N 7047  -0.953   7.025   4.225 -0.3004  0.2056 -0.3491
   54MOL0     C 7048   0.219   7.381   3.923  0.1670 -0.4245 -0.6379
   54MOL0     C 7049   0.325   7.468   3.942  1.2816  0.4020 -0.3882
   54MOL0     C 7050   0.720   7.636   3.924  1.0064  0.5652  0.1054
   54MOL0     C 7051   0.779   7.641   4.054  0.5007 -0.1722 -0.0890
   54MOL0     C 7052   0.896   7.704   4.072  0.4753  0.0202 -0.8298
   54MOL0     C 7053   0.970   7.759   3.963  0.7970 -0.3243  0.3959
   54MOL0     O 7054   1.091   7.811   3.986 -0.1715  0.2918 -0.0906
   54MOL0     C 7055   1.193   7.807   3.887 -0.5309  0.2923 -0.3588
   54MOL0     C 7056   1.322   7.781   3.965  0.1705 -0.8921 -0.0547
   54MOL0     C 7057   1.433   7.807   3.864 -0.1501 -0.6922  0.2117
   54MOL0     C 7058   1.569   7.808   3.937 -0.1394 -0.0388  0.7228
   54MOL0     C 7059   1.677   7.850   3.850 -0.2406 -0.2347 -0.1187
   54MOL0     C 7060   1.769   7.883   3.777 -0.3843 -0.4098  0.1046
   54MOL0     C 7061   0.907   7.766   3.834 -0.3395  0.3194  0.3580
   54MOL0     C 7062   0.782   7.701   3.819 -0.0242  0.3341  0.2746
   54MOL0     H 7063   0.523   7.242   4.099  0.6781 -1.6135 -1.5690
   54MOL0     H 7064   0.330   7.102   4.064 -0.3305  0.2093 -0.0275
   54MOL0     H 7065   0.120   7.014   4.083  1.2191 -1.6074 -0.8335
   54MOL0     H 7066   0.159   6.989   3.929 -0.2570 -2.0931  2.5868
   54MOL0     H 7067  -0.063   6.897   3.955 -0.6079  0.8776 -0.9204
   54MOL0     H 7068  -0.066   7.037   3.844 -2.6476 -0.5062 -0.1955
   54MOL0     H 7069  -0.168   7.171   3.996  1.3500 -0.9675 -3.7700
   54MOL0     H 7070  -0.172   7.047   4.125 -2.2593  0.1293  0.2182
   54MOL0     H 7071  -0.312   6.994   3.853 -3.0595 -1.2809  1.0526
   54MOL0     H 7072  -0.302   6.899   4.005 -1.9441  1.3755  5.3389
   54MOL0     H 7073  -0.447   7.167   3.995 -1.3594 -1.1028 -3.3410
   54MOL0     H 7074  -0.420   7.049   4.137 -1.4597 -2.0368  0.0530
   54MOL0     H 7075  -0.523   6.874   4.024  2.3949  0.0688  0.4943
   54MOL0     H 7076  -0.568   6.967   3.879  0.3407  2.5830 -0.9464
   54MOL0     H 7077  -0.675   7.077   4.144 -1.4640  0.0125 -0.3689
   54MOL0     H 7078  -0.721   7.111   3.976 -0.5845 -0.9368 -1.6177
   54MOL0     H 7079  -0.771   6.858   4.124 -2.0622  1.1981  2.0499
   54MOL0     H 7080  -0.806   6.885   3.954  1.6988  1.1182 -0.5604
   54MOL0     H 7081  -1.040   7.036   3.907 -2.0206  0.8445  0.2104
   54MOL0     H 7082  -1.240   7.157   3.931 -0.2908  1.1892  0.3246
   54MOL0     H 7083  -1.290   7.218   4.096  0.5909  0.5555  0.3467
   54MOL0     H 7084  -1.278   6.929   4.004  0.1586  1.1844 -0.8535
   54MOL0     H 7085  -1.423   7.024   3.977 -0.0460  1.5266  0.2045
   54MOL0     H 7086  -1.301   7.002   4.252  1.1475 -0.3548 -1.3626
   54MOL0     H 7087  -1.443   7.085   4.213  1.1008  0.3327 -0.1450
   54MOL0     H 7088  -1.464   6.835   4.313 -1.2607  1.3387  0.2704
   54MOL0     H 7089  -1.397   6.782   4.164  0.4064 -0.3914  2.7349
   54MOL0     H 7090  -1.600   6.981   4.401 -0.2392  2.4146  0.4812
   54MOL0     H 7091  -1.796   7.081   4.495 -2.3444 -1.2451  0.7879
   54MOL0     H 7092  -2.135   7.417   4.438  0.9297 -1.8582  0.5207
   54MOL0     H 7093  -2.311   7.503   4.554  0.4947  0.1809  0.4307
   54MOL0     H 7094  -2.578   7.364   4.705 -0.3947 -0.3037 -0.9153
   54MOL0     H 7095  -2.694   7.301   4.590  0.9112 -0.7194  0.2383
   54MOL0     H 7096  -2.770   7.564   4.579 -0.6359  0.2075  0.0969
   54MOL0     H 7097  -2.674   7.586   4.722 -1.2491  0.7340  1.3833
   54MOL0     H 7098  -2.809   7.414   4.849 -1.8275 -2.7721 -0.0567
   54MOL0     H 7099  -2.875   7.376   4.687 -0.9293 -0.5679  0.5590
   54MOL0     H 7100  -2.917   7.627   4.839 -0.4710  0.3072  0.7230
   54MOL0     H 7101  -2.983   7.613   4.692 -0.9555  2.9956  2.5881
   54MOL0     H 7102  -3.044   7.376   4.881  2.8008  2.5349  1.9534
   54MOL0     H 7103  -3.147   7.442   4.745  0.2261  3.1697 -1.9286
   54MOL0     H 7104  -3.168   7.649   4.903 -0.4714  0.5064 -0.8399
   54MOL0     H 7105  -3.090   7.549   5.028  2.6438  0.9634 -2.1153
   54MOL0     H 7106  -3.276   7.378   4.956  0.5039 -0.5025  0.8333
   54MOL0     H 7107  -3.313   7.522   5.057 -0.4539  0.3587  0.0224
   54MOL0     H 7108  -3.376   7.500   4.760  2.7329  1.9399  0.3744
   54MOL0     H 7109  -3.394   7.642   4.861  1.6115 -0.1762 -1.7905
   54MOL0     H 7110  -2.556   7.195   4.408 -1.0002  1.3749 -0.7140
   54MOL0     H 7111  -2.367   7.090   4.284  1.7889 -1.1858  2.1125
   54MOL0     H 7112  -2.005   7.037   4.117 -0.1374  0.7934 -0.0899
   54MOL0     H 7113  -1.835   6.909   4.045  0.5661 -0.8842  0.9771
   54MOL0     H 7114   0.137   7.421   3.864  0.0456 -1.6464 -1.3228
   54MOL0     H 7115   0.298   7.565   3.900 -0.2659 -0.3036 -1.0945
   54MOL0     H 7116   0.733   7.585   4.134  1.3479 -3.3070 -1.6233
   54MOL0     H 7117   0.934   7.694   4.173  0.1032 -2.2908 -0.8674
   54MOL0     H 7118   1.184   7.900   3.830 -0.6472  0.2095 -0.4775
   54MOL0     H 7119   1.182   7.732   3.807  1.5880  0.4713 -0.8845
   54MOL0     H 7120   1.331   7.856   4.044  0.6879 -2.1158  1.0694
   54MOL0     H 7121   1.321   7.679   4.002 -3.3057 -1.2881 -0.8718
   54MOL0     H 7122   1.410   7.902   3.816 -0.5920 -0.9073 -0.0023
   54MOL0     H 7123   1.444   7.732   3.785 -1.9081  0.3308 -1.0563
   54MOL0     H 7124   1.561   7.880   4.019 -1.7296  3.0893 -1.9444
   54MOL0     H 7125   1.580   7.706   3.974 -0.8741 -0.0490  0.9435
   54MOL0     H 7126   1.841   7.922   3.707 -1.4590 -1.6614 -1.7746
   54MOL0     H 7127   0.949   7.812   3.745 -2.9390  3.4306  0.5902
   54MOL0     H 7128   0.734   7.707   3.722 -0.4829 -0.5032  0.4337
   55MOL0     O 7129   2.116   2.043   1.671  0.5340  0.7561  0.4860
   55MOL0     C 7130   2.161   1.967   1.756 -0.0898  0.9719 -0.3746
   55MOL0     O 7131   2.102   1.935   1.877 -0.5352 -0.3203 -0.6514
   55MOL0     C 7132   1.984   1.993   1.911  0.1186  0.1575  0.6980
   55MOL0     C 7133   1.871   1.902   1.940  0.0955 -1.0687 -0.0301
   55MOL0     C 7134   1.738   1.958   1.954 -0.2492  0.2320  0.0931
   55MOL0     C 7135   1.723   2.099   1.955 -0.5332 -0.0136 -0.4723
   55MOL0     O 7136   1.606   2.172   1.966  0.9433  0.2135 -0.1787
   55MOL0     C 7137   1.484   2.104   1.914 -0.7899 -0.1385 -0.3135
   55MOL0     C 7138   1.361   2.196   1.917  0.0375 -0.0221 -1.2353
   55MOL0     C 7139   1.330   2.240   2.060 -0.8956  0.5699  0.7067
   55MOL0     C 7140   1.207   2.318   2.066  0.9675 -0.2812  0.6853
   55MOL0     C 7141   1.160   2.352   2.217 -0.0437  0.1295  0.8346
   55MOL0     C 7142   1.247   2.467   2.259  0.5033  0.5245 -0.0578
   55MOL0     C 7143   1.206   2.538   2.398  0.0216 -0.0434 -1.2921
   55MOL0     C 7144   1.298   2.660   2.434  0.5449 -0.7884  0.2348
   55MOL0     N 7145   1.269   2.768   2.347  1.0683  0.2190 -0.0575
   55MOL0     C 7146   1.147   2.828   2.331 -0.1217 -0.0780 -0.5385
   55MOL0     C 7147   1.163   2.916   2.229 -0.0255  0.3525 -0.0341
   55MOL0     C 7148   1.070   3.019   2.182 -1.0100 -0.1380 -0.6399
   55MOL0     C 7149   0.956   2.959   2.101 -0.5117 -0.6560  0.0835
   55MOL0     C 7150   0.879   3.067   2.026  0.1207  1.0052 -0.6232
   55MOL0     C 7151   0.755   3.011   1.943 -0.1049  0.0924 -0.5814
   55MOL0     O 7152   0.656   2.958   2.037 -0.1133 -0.3673 -0.0765
   55MOL0     C 7153   0.556   2.874   1.997 -0.1259  0.1405 -0.5197
   55MOL0     C 7154   0.495   2.783   2.080  0.0765 -0.1466  0.2630
   55MOL0     C 7155   0.389   2.710   2.029  0.5349 -0.7444  0.0119
   55MOL0     C 7156   0.332   2.717   1.900 -0.2645 -0.2354 -0.4901
   55MOL0     C 7157   0.207   2.639   1.857 -0.9634 -0.1599  0.9530
   55MOL0     O 7158   0.133   2.578   1.960 -0.1445 -0.0728  0.3222
   55MOL0     C 7159   0.011   2.525   1.946  0.5131 -0.2912 -0.7480
   55MOL0     C 7160  -0.053   2.476   2.061 -0.6945  0.1683  0.7794
   55MOL0     C 7161  -0.186   2.430   2.058  0.1448  0.2116  1.2109
   55MOL0     C 7162  -0.256   2.431   1.933  0.8272  0.3399 -0.2779
   55MOL0     O 7163  -0.388   2.394   1.947 -0.4602  0.0663  0.6299
   55MOL0     C 7164  -0.476   2.449   1.851  0.0828 -0.1236 -0.6353
   55MOL0     C 7165  -0.614   2.410   1.902 -0.6892 -0.1358 -0.5670
   55MOL0     C 7166  -0.721   2.405   1.812 -0.2325 -0.0105  0.3550
   55MOL0     C 7167  -0.734   2.537   1.725  0.3172  1.1060  1.2394
   55MOL0     C 7168  -0.794   2.642   1.808  1.8580 -0.0181 -0.0437
   55MOL0     C 7169  -0.943   2.613   1.835 -0.8468 -0.4615  0.6313
   55MOL0     C 7170  -1.002   2.695   1.955 -0.0407  1.4422 -0.2338
   55MOL0     C 7171  -1.127   2.771   1.923 -0.1786 -0.2398  0.8684
   55MOL0    Cl 7172  -1.136   2.855   1.758 -0.2026  0.5459 -0.4390
   55MOL0     C 7173  -0.198   2.485   1.819 -1.1607  0.2827  0.6931
   55MOL0     C 7174  -0.069   2.528   1.833  1.1218  0.0645 -0.3069
   55MOL0     O 7175   0.196   2.624   1.734  0.2803 -0.0048  0.0654
   55MOL0     C 7176   0.408   2.813   1.820  0.8599 -0.0723  0.7228
   55MOL0     C 7177   0.515   2.886   1.868  0.3815 -0.5922  1.1032
   55MOL0     N 7178   1.293   2.904   2.188  0.0375  0.0069 -0.0595
   55MOL0     N 7179   1.357   2.821   2.257 -0.7446  0.1171  0.4265
   55MOL0     C 7180   1.837   2.185   1.945  0.4593  0.4222  0.1601
   55MOL0     C 7181   1.965   2.127   1.921  0.3833  0.8825 -0.8008
   55MOL0     C 7182   2.285   1.901   1.737  0.3141  0.7251 -0.8382
   55MOL0     C 7183   2.324   1.797   1.825  0.0589 -0.0972 -0.2671
   55MOL0     C 7184   2.440   1.722   1.802 -0.3874 -0.1273  0.5793
   55MOL0     C 7185   2.516   1.746   1.689 -0.2900  0.7738 -0.9244
   55MOL0     O 7186   2.640   1.689   1.673  0.0894  0.3544  0.6372
   55MOL0     C 7187   2.706   1.633   1.788  0.2053  0.0178  0.7067
   55MOL0     C 7188   2.861   1.661   1.769 -0.0976 -0.1586  0.2167
   55MOL0     C 7189   2.932   1.610   1.890 -0.1199 -0.3260 -0.2390
   55MOL0     C 7190   3.079   1.599   1.877 -0.5411  0.7720  0.0827
   55MOL0     C 7191   3.142   1.721   1.837 -0.3824  0.2317  0.4414
   55MOL0     C 7192   3.176   1.838   1.836 -0.0902  0.6215  0.4030
   55MOL0     C 7193   2.476   1.839   1.595  0.2441 -0.6493 -0.1152
   55MOL0     C 7194   2.363   1.917   1.618 -1.3439  0.6249 -0.1260
   55MOL0     H 7195   1.893   1.796   1.927 -0.7417 -1.2960  0.3398
   55MOL0     H 7196   1.657   1.892   1.981  0.7093 -0.5974  1.0380
   55MOL0     H 7197   1.460   2.015   1.972 -1.1110  1.6607  2.5368
   55MOL0     H 7198   1.514   2.082   1.812  2.3169  1.2342  0.1989
   55MOL0     H 7199   1.266   2.159   1.876 -1.1326  0.5317  0.8060
   55MOL0     H 7200   1.369   2.293   1.867 -1.5451  1.4068  1.0694
   55MOL0     H 7201   1.419   2.289   2.099  2.0624 -0.2225 -4.1928
   55MOL0     H 7202   1.316   2.154   2.126 -1.6657  1.2115  1.4064
   55MOL0     H 7203   1.227   2.406   2.004  0.1833 -1.5641 -1.4997
   55MOL0     H 7204   1.119   2.275   2.017  1.2890 -0.3188  0.1358
   55MOL0     H 7205   1.179   2.267   2.283 -0.0496 -0.2704  0.3322
   55MOL0     H 7206   1.055   2.382   2.207  0.5467  2.7845  1.7875
   55MOL0     H 7207   1.267   2.530   2.173 -0.0848 -0.7232 -1.1541
   55MOL0     H 7208   1.345   2.420   2.273  2.5247  4.1584 -0.8386
   55MOL0     H 7209   1.099   2.561   2.399  0.7562  3.9944 -1.2053
   55MOL0     H 7210   1.212   2.472   2.486  2.2955  0.5983 -0.8916
   55MOL0     H 7211   1.403   2.632   2.418  0.4397 -2.3276  1.8993
   55MOL0     H 7212   1.291   2.685   2.541  0.4732 -0.6112  0.1879
   55MOL0     H 7213   1.050   2.819   2.379 -0.8179  0.2792 -1.8438
   55MOL0     H 7214   1.117   3.102   2.129 -0.9326 -0.3510 -0.9000
   55MOL0     H 7215   1.008   3.058   2.264 -3.0400  0.2024 -2.2472
   55MOL0     H 7216   0.892   2.904   2.171  2.3355 -0.2912  3.2190
   55MOL0     H 7217   0.999   2.883   2.036  0.4319 -0.6773  0.7155
   55MOL0     H 7218   0.845   3.146   2.095  3.4099  3.2422 -1.3452
   55MOL0     H 7219   0.948   3.110   1.953  0.4642 -0.0688 -0.9517
   55MOL0     H 7220   0.795   2.936   1.874  2.7427 -0.6830  1.7022
   55MOL0     H 7221   0.707   3.085   1.879  1.2945  1.4320 -0.1334
   55MOL0     H 7222   0.520   2.774   2.185  0.7561 -1.2875  0.0221
   55MOL0     H 7223   0.351   2.642   2.105  0.0928 -0.1137  0.3657
   55MOL0     H 7224   0.005   2.480   2.153  1.0560  0.7291 -0.3084
   55MOL0     H 7225  -0.231   2.388   2.147 -0.8692  1.7057  1.4409
   55MOL0     H 7226  -0.465   2.403   1.752 -0.4987 -0.1628 -0.6859
   55MOL0     H 7227  -0.465   2.558   1.844  1.8353 -0.3389 -1.9262
   55MOL0     H 7228  -0.636   2.467   1.992  0.0037 -1.2328  0.3345
   55MOL0     H 7229  -0.606   2.305   1.934  0.3544 -0.0652 -0.5566
   55MOL0     H 7230  -0.811   2.377   1.867  0.0412 -1.2827  0.1877
   55MOL0     H 7231  -0.700   2.323   1.743  4.6022  1.3185 -0.1650
   55MOL0     H 7232  -0.646   2.576   1.673 -0.4708 -1.1657 -2.1322
   55MOL0     H 7233  -0.804   2.512   1.645  1.0237  0.8396  0.6973
   55MOL0     H 7234  -0.797   2.741   1.762 -4.2147 -0.1758 -0.7328
   55MOL0     H 7235  -0.746   2.651   1.907  1.4717 -2.3209  0.4016
   55MOL0     H 7236  -0.955   2.504   1.844 -0.6154 -0.6134 -0.7324
   55MOL0     H 7237  -0.994   2.647   1.744 -0.6778  1.8740  1.3439
   55MOL0     H 7238  -1.035   2.608   2.012  1.9558  0.8686  0.1232
   55MOL0     H 7239  -0.937   2.760   2.014  0.0283  1.3101 -0.1640
   55MOL0     H 7240  -1.132   2.846   2.002  0.8599 -1.6493  2.3203
   55MOL0     H 7241  -1.212   2.702   1.928 -3.5202  3.3559 -0.7952
   55MOL0     H 7242  -0.258   2.499   1.730  0.0453 -2.2739 -0.6309
   55MOL0     H 7243  -0.029   2.557   1.736 -0.3369  1.4270 -0.5407
   55MOL0     H 7244   0.362   2.841   1.725 -1.3239 -1.8446  1.1668
   55MOL0     H 7245   0.539   2.972   1.807  0.3782  0.6740  2.8094
   55MOL0     H 7246   1.822   2.290   1.969  4.3311  0.7898  1.7305
   55MOL0     H 7247   2.054   2.187   1.904 -0.3301  1.5475 -2.3541
   55MOL0     H 7248   2.273   1.747   1.907  0.2671  0.3648  0.1494
   55MOL0     H 7249   2.450   1.642   1.875 -2.8611 -0.1659  0.9516
   55MOL0     H 7250   2.683   1.528   1.809  1.4947  0.1011  2.7735
   55MOL0     H 7251   2.672   1.687   1.877 -2.7884 -0.0415 -0.3012
   55MOL0     H 7252   2.883   1.602   1.680  0.1113  0.7667 -0.3627
   55MOL0     H 7253   2.895   1.763   1.748  0.1763 -0.4642 -0.8796
   55MOL0     H 7254   2.881   1.520   1.926  0.4609 -2.0867 -3.3950
   55MOL0     H 7255   2.914   1.682   1.970 -0.8780  0.0850 -0.7637
   55MOL0     H 7256   3.120   1.577   1.976  0.3112  0.6609 -0.2824
   55MOL0     H 7257   3.105   1.520   1.806 -1.5212  0.3664  0.1583
   55MOL0     H 7258   3.208   1.938   1.853 -1.9097  1.0374  1.6133
   55MOL0     H 7259   2.540   1.871   1.513  0.9694  1.3982  1.1600
   55MOL0     H 7260   2.348   2.010   1.563  2.0676  1.2909 -0.1481
   56MOL0     O 7261   0.564   6.667   7.445 -0.9918 -0.1796  0.5615
   56MOL0     C 7262   0.561   6.626   7.331  0.6014  0.5228  0.5811
   56MOL0     O 7263   0.476   6.531   7.282 -0.0419  0.2299 -0.8918
   56MOL0     C 7264   0.367   6.499   7.361 -0.1266  0.6745  0.1526
   56MOL0     C 7265   0.254   6.581   7.358  0.1676  0.3013  0.8561
   56MOL0     C 7266   0.127   6.551   7.426 -0.1269 -0.6543  0.4416
   56MOL0     C 7267   0.113   6.439   7.494 -0.1482  0.4686  1.3097
   56MOL0     O 7268  -0.014   6.418   7.555  0.3249  0.0046 -1.1966
   56MOL0     C 7269  -0.033   6.276   7.601  0.1280  0.1308  0.9206
   56MOL0     C 7270  -0.180   6.259   7.659 -0.1896 -0.8024 -0.5830
   56MOL0     C 7271  -0.291   6.357   7.605  0.2434  0.4620  0.4911
   56MOL0     C 7272  -0.424   6.315   7.666 -0.1620  0.3073 -0.8639
   56MOL0     C 7273  -0.541   6.407   7.641  0.4687 -0.9277 -0.3476
   56MOL0     C 7274  -0.606   6.391   7.498  0.4764 -0.0190 -0.1349
   56MOL0     C 7275  -0.722   6.486   7.480  0.3314  0.1101  0.3886
   56MOL0     C 7276  -0.823   6.422   7.395  0.7825  0.9370 -0.7962
   56MOL0     N 7277  -0.931   6.358   7.476 -0.5346 -0.0763  0.2090
   56MOL0     C 7278  -0.932   6.226   7.519  0.4184  0.0936 -0.3325
   56MOL0     C 7279  -1.035   6.230   7.605  0.3354  0.3889 -0.3663
   56MOL0     C 7280  -1.096   6.110   7.673 -0.0086  0.1959 -0.2367
   56MOL0     C 7281  -1.230   6.064   7.598  0.2635 -0.0222 -0.3060
   56MOL0     C 7282  -1.312   5.969   7.691  0.0904  0.0548 -0.2110
   56MOL0     C 7283  -1.440   5.919   7.616  0.0653  0.1568  0.4443
   56MOL0     O 7284  -1.531   6.029   7.586  0.1749  0.1084  0.1941
   56MOL0     C 7285  -1.654   5.996   7.524  1.3528 -0.4272  0.0666
   56MOL0     C 7286  -1.765   6.049   7.574  0.3005 -0.2417 -0.7951
   56MOL0     C 7287  -1.891   6.004   7.547  0.4029 -0.2517 -0.8911
   56MOL0     C 7288  -1.909   5.898   7.457  0.0425 -1.0048 -0.5915
   56MOL0     C 7289  -2.049   5.851   7.436  0.0934 -0.6801  0.5373
   56MOL0     O 7290  -2.070   5.760   7.337 -1.6910 -0.7127  0.1551
   56MOL0     C 7291  -2.188   5.702   7.339  0.5944  0.9526 -0.6992
   56MOL0     C 7292  -2.216   5.606   7.441 -0.2538 -0.5796 -0.6283
   56MOL0     C 7293  -2.327   5.528   7.423  0.4015  1.2645 -0.2996
   56MOL0     C 7294  -2.413   5.548   7.319 -0.0026  1.3048  0.3495
   56MOL0     O 7295  -2.526   5.473   7.301  0.1677 -0.4233  0.8827
   56MOL0     C 7296  -2.514   5.337   7.327 -0.4388 -0.4837 -0.1653
   56MOL0     C 7297  -2.647   5.300   7.397 -0.4475  0.0079  0.4387
   56MOL0     C 7298  -2.755   5.280   7.292  0.4289  1.8361  0.2994
   56MOL0     C 7299  -2.870   5.222   7.377  0.5363  0.3717  0.7568
   56MOL0     C 7300  -3.004   5.226   7.309 -0.1225  0.6082  0.3085
   56MOL0     C 7301  -3.117   5.213   7.401  0.0328  0.0219 -0.0244
   56MOL0     C 7302  -3.238   5.235   7.322  1.1318  0.4057  0.2388
   56MOL0     C 7303  -3.280   5.380   7.277 -0.2639 -0.2145  0.0289
   56MOL0    Cl 7304  -3.295   5.485   7.419 -0.2009 -0.5023  0.0491
   56MOL0     C 7305  -2.389   5.639   7.217 -0.0611  0.6981  1.3516
   56MOL0     C 7306  -2.278   5.712   7.230  0.7405 -1.1310  0.4963
   56MOL0     O 7307  -2.139   5.894   7.511  0.2604  0.4672 -0.4895
   56MOL0     C 7308  -1.797   5.845   7.389 -1.3134 -0.1765  0.2826
   56MOL0     C 7309  -1.670   5.899   7.424 -0.6132  0.6274 -0.0958
   56MOL0     N 7310  -1.092   6.356   7.615 -0.2337 -0.0421 -0.2128
   56MOL0     N 7311  -1.023   6.431   7.545  0.1923 -0.8054  0.2741
   56MOL0     C 7312   0.226   6.353   7.492 -1.2360  0.6153 -0.5514
   56MOL0     C 7313   0.347   6.378   7.425 -0.5625  1.0611 -0.1839
   56MOL0     C 7314   0.665   6.682   7.241  0.6818 -0.3355 -0.2214
   56MOL0     C 7315   0.757   6.782   7.276  0.1017 -0.1324  0.3362
   56MOL0     C 7316   0.860   6.821   7.185 -0.5075 -0.5933 -0.5056
   56MOL0     C 7317   0.869   6.777   7.059 -0.1133  0.9512 -0.1940
   56MOL0     O 7318   0.957   6.816   6.968 -0.7914  0.4333 -0.1163
   56MOL0     C 7319   1.063   6.901   7.015  0.1332 -0.3343  0.1924
   56MOL0     C 7320   1.183   6.885   6.925 -0.0227 -0.3897 -0.8356
   56MOL0     C 7321   1.214   6.741   6.906 -0.7734  0.0336  0.1282
   56MOL0     C 7322   1.365   6.718   6.887  0.1737  0.1207 -0.1629
   56MOL0     C 7323   1.427   6.799   6.785  1.2075 -0.3333  0.0208
   56MOL0     C 7324   1.500   6.858   6.702  0.5452  0.7888 -0.7856
   56MOL0     C 7325   0.780   6.674   7.020 -0.3235  0.7265  0.0061
   56MOL0     C 7326   0.671   6.641   7.108 -1.1242  0.4645 -0.2359
   56MOL0     H 7327   0.258   6.663   7.287  1.0793 -1.1209 -0.8006
   56MOL0     H 7328   0.043   6.620   7.432 -2.1726 -2.9589  0.0814
   56MOL0     H 7329   0.033   6.244   7.682 -0.0596  0.4398  1.1979
   56MOL0     H 7330  -0.022   6.212   7.513 -0.4729  2.4423 -0.9422
   56MOL0     H 7331  -0.175   6.275   7.767  0.5938  0.1947 -0.7528
   56MOL0     H 7332  -0.215   6.156   7.650 -3.1438 -0.3203  2.8279
   56MOL0     H 7333  -0.295   6.342   7.497  1.1644 -2.7153  0.7889
   56MOL0     H 7334  -0.267   6.461   7.629  0.1440  1.2769 -2.5188
   56MOL0     H 7335  -0.446   6.210   7.649  1.3071 -0.4629  1.4328
   56MOL0     H 7336  -0.395   6.316   7.772  2.8201 -2.4943 -1.4835
   56MOL0     H 7337  -0.518   6.513   7.654 -0.2204 -0.6733 -1.1092
   56MOL0     H 7338  -0.611   6.382   7.721  0.8187 -0.5815  0.0691
   56MOL0     H 7339  -0.638   6.286   7.492 -0.4337  0.1659  1.0831
   56MOL0     H 7340  -0.534   6.395   7.416 -0.7587  1.8085 -1.2036
   56MOL0     H 7341  -0.758   6.508   7.581  1.8616 -1.2022  1.2716
   56MOL0     H 7342  -0.691   6.583   7.441  2.9385 -0.3892  1.0240
   56MOL0     H 7343  -0.789   6.343   7.328 -1.6051  0.0184 -1.0483
   56MOL0     H 7344  -0.867   6.492   7.323  2.6551  2.9105 -0.1323
   56MOL0     H 7345  -0.861   6.146   7.502 -1.4950 -1.6206 -0.6764
   56MOL0     H 7346  -1.120   6.139   7.776 -0.2602  0.4028 -0.3510
   56MOL0     H 7347  -1.024   6.028   7.674  2.4143  2.2103 -0.1419
   56MOL0     H 7348  -1.206   6.017   7.502 -1.7584  1.5057 -1.6418
   56MOL0     H 7349  -1.278   6.158   7.570 -0.8750  0.4907  2.8860
   56MOL0     H 7350  -1.250   5.882   7.716  1.6817  1.8293  2.6323
   56MOL0     H 7351  -1.347   6.024   7.779  0.6191  0.5170 -0.2885
   56MOL0     H 7352  -1.477   5.834   7.673  0.6282  0.1161  0.7625
   56MOL0     H 7353  -1.412   5.885   7.516  1.9514  0.5430  0.7989
   56MOL0     H 7354  -1.757   6.133   7.642  0.5738  0.6095 -1.8566
   56MOL0     H 7355  -1.969   6.061   7.596  1.0334 -0.2154  0.0973
   56MOL0     H 7356  -2.144   5.603   7.522 -0.5473  1.3542 -0.2557
   56MOL0     H 7357  -2.337   5.447   7.495 -0.0018  0.2877 -1.4281
   56MOL0     H 7358  -2.425   5.310   7.383 -0.8208 -1.8445 -0.1888
   56MOL0     H 7359  -2.507   5.280   7.234 -1.9057 -2.6717  0.9751
   56MOL0     H 7360  -2.679   5.377   7.468 -1.0053  0.4577 -0.2806
   56MOL0     H 7361  -2.648   5.207   7.455 -0.1194 -1.0613 -1.2102
   56MOL0     H 7362  -2.733   5.202   7.218  1.2023  0.1228  2.2502
   56MOL0     H 7363  -2.780   5.373   7.239  0.7094  1.2635 -0.8729
   56MOL0     H 7364  -2.841   5.120   7.401  0.0461 -0.7814 -2.9564
   56MOL0     H 7365  -2.880   5.274   7.473 -1.1510 -0.2849  0.9630
   56MOL0     H 7366  -3.011   5.146   7.235 -1.7081 -0.3437  1.4332
   56MOL0     H 7367  -3.012   5.325   7.263 -1.0512  0.6976  0.6460
   56MOL0     H 7368  -3.119   5.286   7.482 -1.4715  0.6537 -0.5830
   56MOL0     H 7369  -3.117   5.109   7.436  1.7298  0.3541  1.0241
   56MOL0     H 7370  -3.251   5.180   7.228 -2.7170  2.8755 -0.9124
   56MOL0     H 7371  -3.327   5.198   7.373  0.4809 -1.6060 -2.1510
   56MOL0     H 7372  -3.374   5.364   7.224  0.6424  0.2710 -1.8137
   56MOL0     H 7373  -3.203   5.424   7.212 -0.7833  0.8501  0.1142
   56MOL0     H 7374  -2.456   5.645   7.132  3.6610 -2.5783 -2.2826
   56MOL0     H 7375  -2.256   5.781   7.149 -1.0655  1.8761  2.3895
   56MOL0     H 7376  -1.793   5.770   7.310  0.9279  0.9309 -0.7572
   56MOL0     H 7377  -1.579   5.855   7.386 -1.1083 -0.0633 -0.5047
   56MOL0     H 7378   0.211   6.251   7.527 -1.2482  0.8227  0.0614
   56MOL0     H 7379   0.426   6.305   7.416 -0.1654  1.1902  1.8127
   56MOL0     H 7380   0.738   6.827   7.373 -2.6763  2.1643 -1.1489
   56MOL0     H 7381   0.925   6.900   7.222 -1.4504  0.5109 -1.1032
   56MOL0     H 7382   1.095   6.881   7.117  0.9042  1.5269  0.3604
   56MOL0     H 7383   1.043   7.009   7.016  1.6746 -0.0233 -0.0924
   56MOL0     H 7384   1.168   6.940   6.832 -1.0212 -0.5798 -0.7948
   56MOL0     H 7385   1.264   6.933   6.982 -0.6510 -0.4343  0.1242
   56MOL0     H 7386   1.150   6.703   6.826 -0.9547 -0.0121  0.2938
   56MOL0     H 7387   1.178   6.676   6.986 -0.6493  1.1502  1.1085
   56MOL0     H 7388   1.412   6.738   6.984  1.2814  1.6120 -0.9646
   56MOL0     H 7389   1.379   6.612   6.865 -0.7586  0.0725 -0.5488
   56MOL0     H 7390   1.570   6.895   6.630 -0.5951  2.2852 -1.1689
   56MOL0     H 7391   0.787   6.628   6.922 -1.7943 -1.6776  0.9435
   56MOL0     H 7392   0.610   6.558   7.074  0.8643 -0.5572 -1.4851
   57MOL0     O 7393   7.533   7.752   8.406  0.6004  0.4960  0.0770
   57MOL0     C 7394   7.499   7.634   8.393 -0.4700  0.2452  0.5882
   57MOL0     O 7395   7.372   7.582   8.370 -0.5643  0.3555 -0.2209
   57MOL0     C 7396   7.271   7.667   8.376 -0.1337 -0.3923 -0.7119
   57MOL0     C 7397   7.187   7.676   8.265 -0.6317  0.4415 -0.1649
   57MOL0     C 7398   7.076   7.758   8.269 -0.3773  0.2999  0.3181
   57MOL0     C 7399   7.055   7.835   8.381 -0.0557 -0.5985  0.2907
   57MOL0     O 7400   6.959   7.925   8.376 -0.2717  0.8923 -0.2880
   57MOL0     C 7401   6.921   8.000   8.495 -0.3812  0.3301 -0.0659
   57MOL0     C 7402   6.829   8.113   8.450  0.3707  0.2797  0.8756
   57MOL0     C 7403   6.757   8.176   8.571  0.1637 -0.7379 -0.7304
   57MOL0     C 7404   6.626   8.239   8.526  0.9741  0.1792  0.2662
   57MOL0     C 7405   6.576   8.351   8.617 -0.2127  0.2094  0.0997
   57MOL0     C 7406   6.448   8.412   8.562 -0.0989  0.4381  0.4626
   57MOL0     C 7407   6.375   8.487   8.677  0.1740 -0.9381  0.8484
   57MOL0     C 7408   6.348   8.407   8.808  0.0879 -0.5898 -0.3378
   57MOL0     N 7409   6.262   8.292   8.775  0.1599 -0.3049 -0.9099
   57MOL0     C 7410   6.146   8.283   8.714  0.9690  1.1211  0.5079
   57MOL0     C 7411   6.116   8.147   8.723  0.6925  0.4559  0.3586
   57MOL0     C 7412   5.986   8.079   8.686 -0.2194 -0.9484 -0.8544
   57MOL0     C 7413   5.869   8.140   8.772  0.1882  0.2637  0.1210
   57MOL0     C 7414   5.742   8.075   8.723  0.9619 -0.6920 -0.7931
   57MOL0     C 7415   5.629   8.098   8.831 -0.0889 -0.0609 -0.5272
   57MOL0     O 7416   5.506   8.057   8.769  0.1782  0.3414 -0.1977
   57MOL0     C 7417   5.389   8.111   8.824 -0.2180 -0.4663  0.2490
   57MOL0     C 7418   5.378   8.172   8.953  0.1253 -0.1058 -0.4077
   57MOL0     C 7419   5.257   8.221   9.002  0.4685 -0.0646  0.0855
   57MOL0     C 7420   5.135   8.203   8.931  0.3175 -0.4070 -0.5114
   57MOL0     C 7421   5.011   8.270   8.980 -0.0223  0.0105 -0.2259
   57MOL0     O 7422   5.018   8.337   9.098 -0.0831  0.7315  0.6976
   57MOL0     C 7423   4.910   8.379   9.170 -0.4696  0.0966  1.0275
   57MOL0     C 7424   4.943   8.423   9.291  0.2916  1.2277 -1.1026
   57MOL0     C 7425   4.849   8.465   9.391 -0.2771  0.4162  0.1462
   57MOL0     C 7426   4.708   8.458   9.361 -0.2769 -0.6250 -0.3608
   57MOL0     O 7427   4.621   8.476   9.462  0.4387 -0.0532  0.4567
   57MOL0     C 7428   4.542   8.590   9.445 -0.7244  0.1095  0.7217
   57MOL0     C 7429   4.465   8.619   9.569  0.3127  0.0218  0.4011
   57MOL0     C 7430   4.362   8.507   9.586  0.0258 -0.2106  0.3422
   57MOL0     C 7431   4.266   8.531   9.704 -0.2195  0.3068  0.0767
   57MOL0     C 7432   4.145   8.616   9.681  0.0700 -0.7055  0.7160
   57MOL0     C 7433   4.049   8.608   9.796  0.3414 -0.1632 -0.2195
   57MOL0     C 7434   3.930   8.713   9.794 -0.4126 -0.0623 -0.4041
   57MOL0     C 7435   3.881   8.742   9.934  0.5308 -0.7464  0.6877
   57MOL0    Cl 7436   3.764   8.887   9.932 -0.2780 -0.3945  0.3449
   57MOL0     C 7437   4.673   8.418   9.229 -0.0896 -0.4325 -0.5222
   57MOL0     C 7438   4.774   8.391   9.131  0.7024  0.4264 -0.9835
   57MOL0     O 7439   4.909   8.266   8.907 -0.1574 -0.0632  0.4316
   57MOL0     C 7440   5.143   8.144   8.799 -0.0333  0.3621  0.3605
   57MOL0     C 7441   5.266   8.107   8.750  0.0763  0.1872  0.2114
   57MOL0     N 7442   6.219   8.079   8.776 -0.6534 -0.1420  0.3150
   57MOL0     N 7443   6.311   8.168   8.807  0.8087  0.8009  0.5552
   57MOL0     C 7444   7.130   7.815   8.498 -0.6189 -1.0587  0.6776
   57MOL0     C 7445   7.244   7.728   8.498  0.7395  0.9137  0.1238
   57MOL0     C 7446   7.609   7.530   8.399  0.4531 -0.3915  0.2263
   57MOL0     C 7447   7.591   7.398   8.339  0.3005  0.5397 -0.1046
   57MOL0     C 7448   7.700   7.301   8.354  0.3253 -0.4486  0.3664
   57MOL0     C 7449   7.816   7.346   8.419 -0.1553  0.1983  0.1473
   57MOL0     O 7450   7.928   7.264   8.439  0.2758  0.1975  0.0718
   57MOL0     C 7451   7.929   7.127   8.400 -0.2487  1.0026  0.0782
   57MOL0     C 7452   8.075   7.085   8.379 -0.9186  0.3783 -0.3859
   57MOL0     C 7453   8.142   7.045   8.511  1.0399  0.0342 -0.1057
   57MOL0     C 7454   8.294   7.027   8.494 -0.2898  0.4361  0.5851
   57MOL0     C 7455   8.363   7.154   8.453  0.7151  0.3954 -0.4361
   57MOL0     C 7456   8.423   7.254   8.430  0.0394 -0.1150  0.1865
   57MOL0     C 7457   7.828   7.471   8.479  0.1415  0.3155 -0.6713
   57MOL0     C 7458   7.724   7.562   8.469 -0.1805 -0.4220  0.6094
   57MOL0     H 7459   7.205   7.610   8.181  1.5764 -1.4274  1.6496
   57MOL0     H 7460   7.008   7.755   8.184 -1.5597 -1.4033  1.2662
   57MOL0     H 7461   7.012   8.042   8.539  0.6008  0.6397 -2.2461
   57MOL0     H 7462   6.871   7.932   8.564 -2.0422 -0.4542 -1.9482
   57MOL0     H 7463   6.750   8.075   8.384  2.2500  1.4926 -2.3550
   57MOL0     H 7464   6.883   8.189   8.392  0.5143 -2.1806 -2.5746
   57MOL0     H 7465   6.812   8.263   8.608 -1.1704 -1.0084  2.2234
   57MOL0     H 7466   6.724   8.106   8.649  1.8113 -0.7341  0.0079
   57MOL0     H 7467   6.631   8.275   8.423  0.7679 -0.1581  0.1372
   57MOL0     H 7468   6.553   8.157   8.528  0.3700  0.7203  1.4718
   57MOL0     H 7469   6.649   8.430   8.637 -1.5110  2.7428 -3.7390
   57MOL0     H 7470   6.543   8.287   8.699 -1.3685  0.8144  0.1274
   57MOL0     H 7471   6.380   8.346   8.507  0.5453  0.0318  0.1375
   57MOL0     H 7472   6.470   8.482   8.481 -1.3904 -0.8692 -1.0970
   57MOL0     H 7473   6.415   8.585   8.703 -0.4420 -0.2132 -0.7928
   57MOL0     H 7474   6.275   8.495   8.632  0.6594 -2.0836 -0.5094
   57MOL0     H 7475   6.291   8.474   8.873  1.3091  0.1798 -0.0097
   57MOL0     H 7476   6.443   8.396   8.862  0.5751  5.3177  0.7474
   57MOL0     H 7477   6.083   8.361   8.674 -1.4721 -1.0855 -0.2388
   57MOL0     H 7478   6.000   7.972   8.702  0.9516 -1.4392 -4.4109
   57MOL0     H 7479   5.971   8.083   8.578  1.0695  3.1455 -1.0889
   57MOL0     H 7480   5.871   8.247   8.749 -0.1663 -0.0396 -1.4871
   57MOL0     H 7481   5.895   8.134   8.878  0.3746  0.9600  0.1268
   57MOL0     H 7482   5.717   8.120   8.626 -0.1941 -0.7140 -0.5278
   57MOL0     H 7483   5.758   7.969   8.702  2.3081 -0.4143 -1.2446
   57MOL0     H 7484   5.625   8.202   8.864 -2.3843 -0.6271  1.3094
   57MOL0     H 7485   5.655   8.031   8.914  1.9257  1.7062  0.3420
   57MOL0     H 7486   5.463   8.162   9.020 -0.0093 -0.1817 -0.2451
   57MOL0     H 7487   5.243   8.252   9.105 -1.4624 -1.9124  0.4454
   57MOL0     H 7488   5.047   8.407   9.320 -0.9988  0.4517  4.3096
   57MOL0     H 7489   4.881   8.472   9.494 -2.5248  0.2299  0.9102
   57MOL0     H 7490   4.482   8.580   9.354  1.6800 -2.1281 -0.7612
   57MOL0     H 7491   4.603   8.680   9.437 -0.6740  0.4053  3.4631
   57MOL0     H 7492   4.412   8.715   9.563  2.1808  1.1810  1.6078
   57MOL0     H 7493   4.536   8.624   9.651 -1.0194  2.3235  1.5134
   57MOL0     H 7494   4.411   8.410   9.596 -3.2173 -2.2132 -1.3176
   57MOL0     H 7495   4.301   8.512   9.495  0.8201 -1.7474 -0.3136
   57MOL0     H 7496   4.226   8.434   9.735  0.3181 -0.3406 -1.1944
   57MOL0     H 7497   4.319   8.576   9.789 -2.2359 -0.6325  1.9225
   57MOL0     H 7498   4.090   8.586   9.591  1.4046  0.1621 -0.4412
   57MOL0     H 7499   4.173   8.720   9.660 -0.3288 -0.3895  1.7089
   57MOL0     H 7500   4.106   8.618   9.889  1.2706 -0.4345 -0.7443
   57MOL0     H 7501   4.011   8.506   9.796  1.6953 -0.6841 -0.5230
   57MOL0     H 7502   3.959   8.811   9.755 -2.7706  0.2109 -1.5999
   57MOL0     H 7503   3.850   8.678   9.729 -0.8272 -1.1175  0.6436
   57MOL0     H 7504   3.965   8.781   9.992 -0.6447  0.6297  1.5292
   57MOL0     H 7505   3.832   8.659   9.987 -2.0322 -0.8396 -1.6331
   57MOL0     H 7506   4.566   8.405   9.221 -0.7103  1.8486  2.3213
   57MOL0     H 7507   4.744   8.373   9.029 -0.4770 -3.7310 -0.1042
   57MOL0     H 7508   5.051   8.135   8.743  1.4843 -0.4790 -2.1269
   57MOL0     H 7509   5.274   8.073   8.647  0.5325  1.2216 -0.1070
   57MOL0     H 7510   7.097   7.854   8.593  1.0279 -0.7648  1.1554
   57MOL0     H 7511   7.296   7.697   8.588 -4.0502 -2.2901  2.2131
   57MOL0     H 7512   7.495   7.377   8.291  0.5971  0.3049 -0.6038
   57MOL0     H 7513   7.696   7.212   8.292  0.5744 -1.2187  1.4393
   57MOL0     H 7514   7.881   7.111   8.303 -1.8305 -1.5050  1.1694
   57MOL0     H 7515   7.872   7.061   8.466 -0.8062  0.3265 -1.0473
   57MOL0     H 7516   8.085   7.004   8.306 -3.6032  0.4834 -0.9808
   57MOL0     H 7517   8.121   7.174   8.336 -1.0905  0.6163 -0.0809
   57MOL0     H 7518   8.097   6.953   8.549 -0.0139  1.1123  1.3660
   57MOL0     H 7519   8.120   7.120   8.588  2.8930  1.8000 -1.1820
   57MOL0     H 7520   8.334   6.999   8.593 -1.0919  0.9164  1.0561
   57MOL0     H 7521   8.319   6.954   8.417  0.7696  1.5663 -0.1847
   57MOL0     H 7522   8.474   7.347   8.416 -4.0223  2.3347  0.0748
   57MOL0     H 7523   7.918   7.486   8.537 -0.7442 -1.7567  1.3894
   57MOL0     H 7524   7.736   7.650   8.531 -1.0934 -0.7320  1.2546
   58MOL0     O 7525   5.519   3.735   8.260 -0.7157  1.4668  0.1571
   58MOL0     C 7526   5.571   3.801   8.173  0.5666  0.4673  0.7252
   58MOL0     O 7527   5.503   3.884   8.093  0.2676 -0.3735 -0.4806
   58MOL0     C 7528   5.371   3.867   8.082  0.6820 -0.4884  0.2703
   58MOL0     C 7529   5.306   3.991   8.098  0.6787 -0.4407 -0.4113
   58MOL0     C 7530   5.163   3.991   8.080  0.7935 -0.6168 -0.5570
   58MOL0     C 7531   5.084   3.874   8.061  0.8800  0.2448  0.5075
   58MOL0     O 7532   4.946   3.864   8.055 -1.1604 -0.4230  0.0842
   58MOL0     C 7533   4.874   3.981   8.085  0.2214  0.2074 -0.2934
   58MOL0     C 7534   4.731   3.947   8.085  0.0460  0.3532  0.2057
   58MOL0     C 7535   4.693   3.863   8.212 -0.4323  0.3629 -0.6127
   58MOL0     C 7536   4.551   3.793   8.197  0.5775  0.3717  0.3009
   58MOL0     C 7537   4.436   3.894   8.206  0.4660  0.0215 -0.2544
   58MOL0     C 7538   4.291   3.838   8.177  0.6668 -0.2170 -0.7444
   58MOL0     C 7539   4.179   3.955   8.185 -0.1181  0.8427  0.3148
   58MOL0     C 7540   4.059   3.916   8.103 -0.7076 -0.4089  0.4462
   58MOL0     N 7541   3.949   4.013   8.133  1.7199 -0.2672  0.2753
   58MOL0     C 7542   3.939   4.140   8.079 -0.5420  0.0065  0.2158
   58MOL0     C 7543   3.843   4.209   8.151  0.5319 -0.1146 -0.2924
   58MOL0     C 7544   3.811   4.345   8.111  0.3913 -0.2640 -0.1432
   58MOL0     C 7545   3.687   4.354   8.024 -0.2902  0.9253  0.0500
   58MOL0     C 7546   3.700   4.269   7.893  0.6201  0.0678 -0.7541
   58MOL0     C 7547   3.591   4.298   7.795 -0.6100 -0.0380  0.0764
   58MOL0     O 7548   3.594   4.436   7.756  0.5027 -0.0747  0.5867
   58MOL0     C 7549   3.478   4.505   7.766 -0.5637  0.0773 -0.2802
   58MOL0     C 7550   3.348   4.452   7.726  0.0335  0.0175 -0.1082
   58MOL0     C 7551   3.234   4.533   7.738 -0.0248 -0.0555  0.6518
   58MOL0     C 7552   3.248   4.671   7.768 -1.0991 -0.3649  0.6954
   58MOL0     C 7553   3.121   4.746   7.772 -0.1884 -0.8261  0.4963
   58MOL0     O 7554   3.024   4.712   7.688  0.0144  1.1221  0.0600
   58MOL0     C 7555   2.899   4.777   7.677 -0.0949  0.1081  0.2770
   58MOL0     C 7556   2.843   4.767   7.551 -0.5061  0.5506 -0.4291
   58MOL0     C 7557   2.731   4.851   7.516 -0.0660  0.7724 -0.4253
   58MOL0     C 7558   2.683   4.953   7.599  0.2708 -0.1923 -0.0162
   58MOL0     O 7559   2.576   5.036   7.571 -0.0294 -0.0251 -0.7454
   58MOL0     C 7560   2.581   5.173   7.607  0.0068  0.4765 -0.1260
   58MOL0     C 7561   2.453   5.246   7.570  0.5794  0.4922  0.3053
   58MOL0     C 7562   2.442   5.384   7.636  0.3620 -0.8855 -0.2338
   58MOL0     C 7563   2.329   5.466   7.565  0.2717  0.2448 -0.5369
   58MOL0     C 7564   2.284   5.579   7.659  0.2785  0.0730 -0.3941
   58MOL0     C 7565   2.223   5.697   7.576 -0.6394 -0.3590  0.4307
   58MOL0     C 7566   2.172   5.801   7.674  0.2208  0.2080  0.1663
   58MOL0     C 7567   2.271   5.895   7.726  0.2394  0.1470  0.6745
   58MOL0    Cl 7568   2.225   6.062   7.703 -0.0377  0.4626  0.5735
   58MOL0     C 7569   2.744   4.967   7.726  0.8587 -0.7538 -0.8462
   58MOL0     C 7570   2.851   4.880   7.762  0.4461 -0.0251  0.2260
   58MOL0     O 7571   3.117   4.838   7.855  1.0383 -0.1877  0.6254
   58MOL0     C 7572   3.371   4.721   7.812  0.7544 -0.4098 -0.3736
   58MOL0     C 7573   3.491   4.639   7.816 -0.2276  0.1203  0.2575
   58MOL0     N 7574   3.794   4.118   8.253 -0.0415 -0.1323 -0.4025
   58MOL0     N 7575   3.865   4.012   8.241  0.3849  0.4291  0.5704
   58MOL0     C 7576   5.155   3.753   8.043 -0.3421  0.3244  0.8960
   58MOL0     C 7577   5.296   3.750   8.047  0.5454 -0.3904 -0.0392
   58MOL0     C 7578   5.718   3.806   8.156 -0.9220 -0.0078  0.1746
   58MOL0     C 7579   5.782   3.899   8.067 -0.3123  0.0101 -0.5247
   58MOL0     C 7580   5.925   3.894   8.057 -0.4381 -0.9945 -0.1646
   58MOL0     C 7581   6.001   3.802   8.124 -0.5536 -0.5442 -0.5961
   58MOL0     O 7582   6.131   3.804   8.102  0.5070 -0.3670 -0.6635
   58MOL0     C 7583   6.222   3.794   8.213 -0.1198 -0.1883  0.0878
   58MOL0     C 7584   6.244   3.933   8.271 -0.2997 -0.7550 -0.1171
   58MOL0     C 7585   6.376   3.946   8.351 -0.0253 -0.8670 -0.1986
   58MOL0     C 7586   6.493   3.994   8.258  0.1409 -0.0462 -0.3315
   58MOL0     C 7587   6.625   3.990   8.320 -0.5918 -0.3893 -0.7958
   58MOL0     C 7588   6.740   3.978   8.364 -0.0034  0.6577 -0.1670
   58MOL0     C 7589   5.941   3.715   8.217 -0.7545  0.9680  0.4671
   58MOL0     C 7590   5.802   3.717   8.229 -0.4508 -0.4280 -1.4239
   58MOL0     H 7591   5.347   4.090   8.115 -0.1894 -0.1224 -0.0968
   58MOL0     H 7592   5.113   4.087   8.083  1.5613 -0.2052 -0.6778
   58MOL0     H 7593   4.910   4.058   8.017  4.9084 -0.0107  1.5570
   58MOL0     H 7594   4.912   4.019   8.181  1.0774  1.4551 -1.0869
   58MOL0     H 7595   4.699   3.884   8.002 -0.6637  1.8501 -0.6849
   58MOL0     H 7596   4.666   4.035   8.076 -2.5033 -1.4385 -0.1312
   58MOL0     H 7597   4.699   3.923   8.303 -1.5075 -0.4420  0.0036
   58MOL0     H 7598   4.775   3.791   8.214  0.9468  1.8523 -1.1827
   58MOL0     H 7599   4.546   3.738   8.103 -3.2519 -1.4964  1.3733
   58MOL0     H 7600   4.532   3.721   8.276  0.1850 -0.5276 -0.5924
   58MOL0     H 7601   4.453   3.984   8.148  1.0143  0.4205  0.5028
   58MOL0     H 7602   4.433   3.927   8.311  2.7513  1.7958 -0.6862
   58MOL0     H 7603   4.268   3.762   8.252 -2.0467  1.1844 -0.0281
   58MOL0     H 7604   4.288   3.778   8.086  0.9711 -0.8497 -0.3430
   58MOL0     H 7605   4.148   3.957   8.290 -0.7175 -0.0849  0.1671
   58MOL0     H 7606   4.222   4.049   8.149  2.2082 -0.1622  0.3151
   58MOL0     H 7607   4.020   3.814   8.113 -3.3674  0.5322  0.4464
   58MOL0     H 7608   4.080   3.931   7.997 -1.1737  0.2225  0.4367
   58MOL0     H 7609   3.991   4.189   7.997 -1.9888  0.2926 -0.5760
   58MOL0     H 7610   3.904   4.384   8.067 -0.5911  0.9420 -1.2376
   58MOL0     H 7611   3.797   4.392   8.209  0.7555 -0.9208  0.2283
   58MOL0     H 7612   3.670   4.461   8.007  0.1030  1.0134  0.2055
   58MOL0     H 7613   3.602   4.312   8.078 -0.9510  0.2795 -1.4286
   58MOL0     H 7614   3.793   4.280   7.837  0.3197 -3.4473 -2.2200
   58MOL0     H 7615   3.699   4.162   7.916 -0.9259 -0.0330 -1.2251
   58MOL0     H 7616   3.495   4.258   7.828  0.8280 -1.4119  2.9224
   58MOL0     H 7617   3.613   4.231   7.711 -1.1133 -1.9470  1.4060
   58MOL0     H 7618   3.341   4.347   7.697  0.9526 -0.4531  1.2506
   58MOL0     H 7619   3.139   4.486   7.717  0.5942 -1.3679  0.6735
   58MOL0     H 7620   2.884   4.698   7.477  2.7303  0.7488  0.9991
   58MOL0     H 7621   2.678   4.842   7.421 -0.7384 -0.6499  0.0597
   58MOL0     H 7622   2.664   5.217   7.552 -0.6301  1.8177 -0.0489
   58MOL0     H 7623   2.589   5.189   7.715 -0.9378  0.2510 -0.0069
   58MOL0     H 7624   2.359   5.196   7.596 -0.4828  1.3885 -1.6063
   58MOL0     H 7625   2.444   5.253   7.461 -0.1456  0.6614  0.3705
   58MOL0     H 7626   2.540   5.432   7.625  2.0722 -4.1472 -0.3886
   58MOL0     H 7627   2.436   5.375   7.745  2.4496 -0.9003 -0.0740
   58MOL0     H 7628   2.358   5.499   7.465 -0.8884 -0.7188 -1.2186
   58MOL0     H 7629   2.238   5.407   7.547  0.1851  0.9152 -2.5090
   58MOL0     H 7630   2.365   5.620   7.721 -0.3760  0.2367  0.3730
   58MOL0     H 7631   2.206   5.547   7.729  3.0448  0.2226  3.0512
   58MOL0     H 7632   2.141   5.666   7.511 -0.8677  1.4475 -0.1887
   58MOL0     H 7633   2.308   5.744   7.525  2.2534  0.0342  5.0251
   58MOL0     H 7634   2.098   5.863   7.623  0.7493  0.7471  0.0366
   58MOL0     H 7635   2.121   5.757   7.760  0.0732  1.8960  0.9996
   58MOL0     H 7636   2.371   5.887   7.682 -0.2628  1.0242 -0.6919
   58MOL0     H 7637   2.267   5.875   7.834  0.6142  0.3187  0.7206
   58MOL0     H 7638   2.706   5.036   7.801 -2.7446 -1.2642 -2.0237
   58MOL0     H 7639   2.875   4.901   7.866 -2.9992  1.1305  0.9086
   58MOL0     H 7640   3.375   4.826   7.842 -0.7965 -0.6177  0.6501
   58MOL0     H 7641   3.589   4.646   7.862  0.8368 -1.3834 -1.5958
   58MOL0     H 7642   5.101   3.661   8.023 -3.8688  2.2543  0.7371
   58MOL0     H 7643   5.341   3.655   8.019  1.0441 -0.7549  1.8626
   58MOL0     H 7644   5.731   3.968   8.002  1.2686  1.2830 -0.4757
   58MOL0     H 7645   5.977   3.968   7.996 -1.6670  0.3496  0.3482
   58MOL0     H 7646   6.319   3.760   8.174 -0.0245  1.8320 -1.6367
   58MOL0     H 7647   6.184   3.724   8.287 -1.5861  1.4652  0.9697
   58MOL0     H 7648   6.226   4.020   8.206 -1.1585 -0.0914  0.9696
   58MOL0     H 7649   6.175   3.945   8.356  0.9215 -0.9200  0.9258
   58MOL0     H 7650   6.404   3.846   8.383  0.7780  0.5070  3.9606
   58MOL0     H 7651   6.371   4.011   8.439 -0.7255  1.0945 -1.6003
   58MOL0     H 7652   6.497   3.934   8.166  0.5796  0.2726 -0.5286
   58MOL0     H 7653   6.465   4.094   8.222 -2.6009 -0.6032  0.0473
   58MOL0     H 7654   6.838   3.955   8.400  0.7284 -0.7840 -2.7753
   58MOL0     H 7655   6.002   3.648   8.277  2.1457  2.4519 -0.6692
   58MOL0     H 7656   5.750   3.666   8.309  0.5854  0.6284 -0.0257
   59MOL0     O 7657  10.395  10.955   0.653  0.5493 -0.9292 -0.0983
   59MOL0     C 7658  10.427  10.927   0.767  0.0935 -0.1104 -0.0238
   59MOL0     O 7659  10.376  10.988   0.882  0.0850 -0.3658  0.7767
   59MOL0     C 7660  10.299  11.100   0.876 -0.4208 -0.0960  0.4351
   59MOL0     C 7661  10.356  11.223   0.858  0.8036  0.0673  0.0824
   59MOL0     C 7662  10.275  11.335   0.842  0.0268 -0.1123  0.0834
   59MOL0     C 7663  10.136  11.319   0.849  0.5142 -0.3935  0.5296
   59MOL0     O 7664  10.057  11.434   0.843 -0.4263  0.3088  0.1156
   59MOL0     C 7665   9.994  11.450   0.722  0.1289 -0.7531 -0.2218
   59MOL0     C 7666   9.946  11.601   0.713 -0.5431  0.0889 -0.3181
   59MOL0     C 7667   9.818  11.635   0.792  0.8398 -0.5309  0.3127
   59MOL0     C 7668   9.813  11.588   0.937  0.6135  0.4671  0.1419
   59MOL0     C 7669   9.693  11.659   1.003  0.0594 -0.0928 -0.2316
   59MOL0     C 7670   9.556  11.664   0.935 -0.0562 -0.0473  0.1554
   59MOL0     C 7671   9.437  11.730   1.015 -0.2740  0.5244 -0.7288
   59MOL0     C 7672   9.356  11.822   0.931  0.6421 -0.0675  0.8068
   59MOL0     N 7673   9.233  11.866   1.001  0.2932  0.3155  0.5630
   59MOL0     C 7674   9.111  11.801   1.009 -0.4982 -0.1937 -0.9076
   59MOL0     C 7675   9.049  11.861   1.123 -0.0035 -0.5085  0.1151
   59MOL0     C 7676   8.925  11.820   1.199 -0.7124 -0.2242 -0.4756
   59MOL0     C 7677   8.822  11.939   1.192 -0.4892  0.2427 -0.1674
   59MOL0     C 7678   8.749  11.933   1.061 -0.1644 -0.7506  0.5659
   59MOL0     C 7679   8.670  12.059   1.042 -0.2627 -0.9636 -0.1923
   59MOL0     O 7680   8.580  12.055   1.158  0.0838 -0.6745 -0.5390
   59MOL0     C 7681   8.448  12.090   1.154 -0.6445  0.0237 -0.2755
   59MOL0     C 7682   8.391  12.212   1.103 -0.0167 -0.4628  0.1499
   59MOL0     C 7683   8.253  12.235   1.106 -0.5892 -0.3715  0.5763
   59MOL0     C 7684   8.170  12.142   1.170  0.0401 -0.3229 -0.0347
   59MOL0     C 7685   8.024  12.173   1.167  0.5533  0.3439  1.0022
   59MOL0     O 7686   7.981  12.281   1.107 -0.5030 -0.0791  0.0586
   59MOL0     C 7687   7.843  12.304   1.102  0.2939  0.7430 -0.4246
   59MOL0     C 7688   7.742  12.283   1.199  1.1598  0.0439  0.1295
   59MOL0     C 7689   7.609  12.317   1.178 -0.4049 -0.1303  0.1223
   59MOL0     C 7690   7.570  12.358   1.050 -0.1513  0.2929 -0.1156
   59MOL0     O 7691   7.445  12.402   1.017  0.9330  0.1097 -0.8620
   59MOL0     C 7692   7.342  12.375   1.115  0.4314 -0.0546  0.2357
   59MOL0     C 7693   7.211  12.399   1.044  0.3010  0.7580 -0.3529
   59MOL0     C 7694   7.098  12.389   1.162 -0.5537  0.0763  0.4819
   59MOL0     C 7695   6.960  12.348   1.100  0.0922  0.2961  0.6420
   59MOL0     C 7696   6.854  12.385   1.199  0.1030  0.0015  0.3221
   59MOL0     C 7697   6.706  12.354   1.151 -0.6627 -0.1200  0.5868
   59MOL0     C 7698   6.594  12.380   1.263 -0.5423 -0.9269  0.1128
   59MOL0     C 7699   6.458  12.337   1.209  0.7591 -0.4639  0.2230
   59MOL0    Cl 7700   6.317  12.388   1.309  0.4914  0.1475 -0.3524
   59MOL0     C 7701   7.666  12.381   0.957  1.3351 -0.0646  0.6204
   59MOL0     C 7702   7.796  12.354   0.984 -0.3757  0.0120 -0.0259
   59MOL0     O 7703   7.951  12.083   1.211 -0.1620  0.1813 -0.5965
   59MOL0     C 7704   8.229  12.029   1.223 -0.4799 -0.4367  1.0248
   59MOL0     C 7705   8.359  12.002   1.211  0.1416 -0.2871 -0.0799
   59MOL0     N 7706   9.137  11.956   1.168 -0.1943 -0.0188 -0.6404
   59MOL0     N 7707   9.247  11.957   1.103 -0.3905  0.3865  0.8112
   59MOL0     C 7708  10.076  11.199   0.873  0.0465 -0.5909  0.0777
   59MOL0     C 7709  10.159  11.086   0.879  0.5958 -0.3563  0.1320
   59MOL0     C 7710  10.538  10.839   0.790 -0.5426  0.5463 -0.1740
   59MOL0     C 7711  10.624  10.803   0.682  0.4213 -0.5528  0.8858
   59MOL0     C 7712  10.743  10.740   0.697  0.0038  0.5483 -0.7643
   59MOL0     C 7713  10.786  10.698   0.831 -0.0538 -0.1034 -0.2664
   59MOL0     O 7714  10.913  10.652   0.858  0.0487  0.0394  0.2185
   59MOL0     C 7715  10.996  10.608   0.754  0.1834 -0.0207  0.1632
   59MOL0     C 7716  11.115  10.555   0.840 -0.0288 -0.1734 -0.0437
   59MOL0     C 7717  11.227  10.496   0.746  0.0290  0.5553  0.5158
   59MOL0     C 7718  11.211  10.345   0.727 -0.9561  0.0250 -0.1582
   59MOL0     C 7719  11.107  10.300   0.642  0.0079  0.4901  0.2705
   59MOL0     C 7720  11.019  10.253   0.568 -1.0643 -0.2387 -0.4693
   59MOL0     C 7721  10.698  10.721   0.943 -0.2534 -0.6936  0.1292
   59MOL0     C 7722  10.578  10.790   0.921 -0.3816 -0.9429  0.0727
   59MOL0     H 7723  10.463  11.232   0.843  0.8466  0.1840  0.4522
   59MOL0     H 7724  10.322  11.430   0.816 -0.0483 -0.2992 -0.7794
   59MOL0     H 7725   9.910  11.381   0.709 -0.0288 -0.9190  1.4452
   59MOL0     H 7726  10.075  11.437   0.650 -0.3435 -1.0068 -0.7072
   59MOL0     H 7727   9.918  11.628   0.611  2.4589  0.9784 -1.0121
   59MOL0     H 7728  10.027  11.664   0.753 -0.5550  1.1024 -1.8214
   59MOL0     H 7729   9.727  11.616   0.734  2.6642  1.9534 -3.8600
   59MOL0     H 7730   9.809  11.744   0.799 -0.0459 -0.6468  1.2338
   59MOL0     H 7731   9.790  11.481   0.935 -2.6527  0.9505  2.9851
   59MOL0     H 7732   9.898  11.610   1.003  2.2679  0.7684 -1.9792
   59MOL0     H 7733   9.723  11.761   1.030 -0.9658 -0.0149  0.6812
   59MOL0     H 7734   9.685  11.605   1.097 -2.7289  2.4597  1.1786
   59MOL0     H 7735   9.527  11.562   0.908 -0.3458 -0.3427  1.5100
   59MOL0     H 7736   9.555  11.702   0.832  0.6934  0.0634  0.1869
   59MOL0     H 7737   9.372  11.651   1.051 -2.5253  1.8509 -1.6863
   59MOL0     H 7738   9.478  11.783   1.102 -3.1433  0.1775  0.9351
   59MOL0     H 7739   9.329  11.776   0.835 -0.7123  3.0925 -0.4718
   59MOL0     H 7740   9.418  11.906   0.898 -0.5135  0.7601  0.6812
   59MOL0     H 7741   9.075  11.728   0.938 -0.6148 -0.9233 -0.1208
   59MOL0     H 7742   8.953  11.803   1.303  1.9739  1.7363 -0.7931
   59MOL0     H 7743   8.877  11.731   1.157 -4.0155  1.4340 -0.5056
   59MOL0     H 7744   8.863  12.038   1.212 -1.7803  1.2721 -2.3754
   59MOL0     H 7745   8.737  11.917   1.258 -2.0404  1.3600 -1.7116
   59MOL0     H 7746   8.817  11.932   0.976  0.0044  1.3380  0.6081
   59MOL0     H 7747   8.685  11.846   1.046 -1.8002  0.6101 -0.7454
   59MOL0     H 7748   8.610  12.057   0.951  0.5202 -0.1674 -0.7426
   59MOL0     H 7749   8.740  12.143   1.036 -0.3270 -0.7607  1.3928
   59MOL0     H 7750   8.457  12.287   1.060  0.4628  0.5454  2.4992
   59MOL0     H 7751   8.220  12.324   1.053  0.7309  0.6288  1.3492
   59MOL0     H 7752   7.762  12.251   1.301 -2.6606 -0.9900  0.7269
   59MOL0     H 7753   7.538  12.326   1.259  1.8444  1.7859  2.0408
   59MOL0     H 7754   7.351  12.446   1.198 -0.2036 -1.3465  1.4522
   59MOL0     H 7755   7.345  12.272   1.150  2.0073 -0.4499 -0.9396
   59MOL0     H 7756   7.182  12.320   0.975  1.1243  0.3282 -0.2195
   59MOL0     H 7757   7.218  12.498   0.997  0.7943  0.6911 -0.4210
   59MOL0     H 7758   7.093  12.486   1.213 -1.2897 -0.2877  1.1213
   59MOL0     H 7759   7.121  12.311   1.235  2.0389 -0.5155 -0.8432
   59MOL0     H 7760   6.952  12.414   1.013  0.7484  0.5695  0.7864
   59MOL0     H 7761   6.952  12.241   1.079 -1.2460  0.2778  1.1850
   59MOL0     H 7762   6.861  12.494   1.202 -0.1789  0.1308 -1.9883
   59MOL0     H 7763   6.880  12.341   1.296  3.0047  1.2972  0.2323
   59MOL0     H 7764   6.706  12.244   1.150  0.9962 -0.2418  2.8994
   59MOL0     H 7765   6.681  12.409   1.060 -1.8814 -0.2556  0.8313
   59MOL0     H 7766   6.618  12.329   1.357  2.0645 -1.1595 -0.6243
   59MOL0     H 7767   6.600  12.489   1.268  2.2137 -1.0361  0.2988
   59MOL0     H 7768   6.443  12.229   1.210  2.0556 -0.6993  2.6363
   59MOL0     H 7769   6.445  12.375   1.107 -1.2959 -1.3660  0.0877
   59MOL0     H 7770   7.640  12.431   0.864 -1.6568  2.2738  2.4927
   59MOL0     H 7771   7.876  12.377   0.915 -0.1702  1.1444  0.5602
   59MOL0     H 7772   8.172  11.952   1.275  1.9807 -2.9266  0.2615
   59MOL0     H 7773   8.385  11.913   1.267 -1.9552 -0.2803  1.0027
   59MOL0     H 7774   9.969  11.195   0.890 -0.1502  1.1197 -0.5572
   59MOL0     H 7775  10.117  10.988   0.898  1.5908 -0.3764  2.4937
   59MOL0     H 7776  10.592  10.837   0.585  0.2715 -1.8712  0.4540
   59MOL0     H 7777  10.800  10.725   0.606 -2.1932 -2.0377 -1.8488
   59MOL0     H 7778  11.037  10.688   0.692  0.2242  0.4224  0.7520
   59MOL0     H 7779  10.955  10.532   0.688 -1.1459  0.8064 -0.0010
   59MOL0     H 7780  11.155  10.635   0.904  0.7895 -2.6201  2.6941
   59MOL0     H 7781  11.077  10.485   0.915  3.7706 -1.2480  1.1411
   59MOL0     H 7782  11.325  10.508   0.793 -0.0625  0.3963  0.7480
   59MOL0     H 7783  11.227  10.549   0.650  1.5236  1.0595  0.7725
   59MOL0     H 7784  11.305  10.291   0.710 -2.5248 -2.9119 -0.1148
   59MOL0     H 7785  11.183  10.302   0.824  3.4592 -0.4351  1.1405
   59MOL0     H 7786  10.942  10.218   0.503 -0.2339 -2.5576 -0.3007
   59MOL0     H 7787  10.718  10.690   1.045  0.0760 -0.5564  0.1067
   59MOL0     H 7788  10.517  10.801   1.010  3.3531 -1.6652  2.9730
   60MOL0     O 7789   4.950   6.004   5.031 -0.8508  0.2898  0.5270
   60MOL0     C 7790   4.961   6.013   5.152 -0.9675  0.6315 -0.2335
   60MOL0     O 7791   4.870   6.065   5.238 -0.5073  0.0932 -0.3843
   60MOL0     C 7792   4.752   6.090   5.196  0.2791  0.0429 -0.9862
   60MOL0     C 7793   4.689   6.213   5.204 -0.3345  0.0172  0.4662
   60MOL0     C 7794   4.556   6.243   5.181 -0.3317  0.1900 -0.3789
   60MOL0     C 7795   4.471   6.132   5.150 -0.5825 -0.4828 -0.1121
   60MOL0     O 7796   4.337   6.163   5.118 -0.2535 -0.4868 -0.1109
   60MOL0     C 7797   4.245   6.053   5.142 -0.1482 -0.4140  0.4612
   60MOL0     C 7798   4.099   6.108   5.141 -0.6462  0.9727 -0.1675
   60MOL0     C 7799   4.004   6.001   5.204 -0.8200  0.2307 -0.0043
   60MOL0     C 7800   3.873   6.050   5.263  0.2374 -0.1638  0.4291
   60MOL0     C 7801   3.799   5.933   5.331 -0.1114 -0.1728  0.2352
   60MOL0     C 7802   3.663   5.981   5.394 -0.2186 -0.0965 -1.3078
   60MOL0     C 7803   3.549   5.992   5.289 -0.8968  0.0726  0.6501
   60MOL0     C 7804   3.403   6.007   5.345  0.2372 -0.1259  0.5095
   60MOL0     N 7805   3.312   6.029   5.226 -0.5192 -0.5241 -0.3701
   60MOL0     C 7806   3.329   6.119   5.127 -0.4605  0.1250 -0.2443
   60MOL0     C 7807   3.233   6.113   5.040  0.5620  1.0740 -0.7059
   60MOL0     C 7808   3.226   6.186   4.911 -0.3617  0.0012 -0.0198
   60MOL0     C 7809   3.371   6.209   4.847  0.8348 -0.6972  0.0366
   60MOL0     C 7810   3.344   6.265   4.704  0.7384 -0.2473 -0.3318
   60MOL0     C 7811   3.477   6.288   4.630  0.7276 -1.0737  0.7417
   60MOL0     O 7812   3.440   6.339   4.500  0.3493 -0.9044  0.3057
   60MOL0     C 7813   3.551   6.388   4.430 -0.3052 -0.2167 -0.5002
   60MOL0     C 7814   3.667   6.317   4.397 -0.0383  1.2045  0.1156
   60MOL0     C 7815   3.785   6.373   4.347  0.2609 -0.6838 -0.9790
   60MOL0     C 7816   3.786   6.510   4.323 -0.2790 -0.0687  0.7345
   60MOL0     C 7817   3.905   6.587   4.281  0.7202  0.4973  0.4948
   60MOL0     O 7818   3.907   6.722   4.290  0.0188 -0.3146 -0.2998
   60MOL0     C 7819   4.021   6.799   4.272  0.3703 -0.3386  0.1034
   60MOL0     C 7820   3.995   6.926   4.228  0.1372 -0.1522  0.0550
   60MOL0     C 7821   4.100   7.009   4.195 -0.1149 -0.2564  0.8123
   60MOL0     C 7822   4.234   6.977   4.226 -0.9424 -0.4203  0.6386
   60MOL0     O 7823   4.330   7.079   4.217 -0.4036  0.7630 -0.1701
   60MOL0     C 7824   4.341   7.148   4.090  0.1064  0.0525 -0.1922
   60MOL0     C 7825   4.462   7.255   4.083  0.3485  0.9372 -1.0826
   60MOL0     C 7826   4.595   7.179   4.113 -0.4833  0.3485 -0.3254
   60MOL0     C 7827   4.614   7.095   4.240  0.5324  0.3772 -0.3123
   60MOL0     C 7828   4.573   7.169   4.360 -0.1965 -0.0353  0.7958
   60MOL0     C 7829   4.659   7.303   4.389 -0.0437  0.4824  0.7540
   60MOL0     C 7830   4.706   7.322   4.531 -0.2369 -0.0569  0.0832
   60MOL0     C 7831   4.580   7.347   4.621 -0.3391 -0.1114 -0.3650
   60MOL0    Cl 7832   4.525   7.509   4.583 -0.2390  0.3092  0.0866
   60MOL0     C 7833   4.260   6.849   4.279 -0.5310 -0.3911  0.0055
   60MOL0     C 7834   4.156   6.758   4.302  0.7069  0.3933  0.5116
   60MOL0     O 7835   3.991   6.517   4.233 -0.6992 -0.2753  0.1933
   60MOL0     C 7836   3.669   6.581   4.338 -0.2836  0.1966 -0.0482
   60MOL0     C 7837   3.553   6.526   4.391  0.0267 -1.0778 -0.5301
   60MOL0     N 7838   3.152   6.003   5.083  0.2663  0.6138  0.1352
   60MOL0     N 7839   3.200   5.955   5.197  0.2134 -0.5768  0.0227
   60MOL0     C 7840   4.530   5.999   5.139 -0.4616 -0.9327 -0.0591
   60MOL0     C 7841   4.665   5.978   5.164  0.5793 -0.0032  0.1140
   60MOL0     C 7842   5.092   5.965   5.209  0.3667  1.0903 -1.2493
   60MOL0     C 7843   5.201   5.925   5.136  0.0772  0.2745  1.0696
   60MOL0     C 7844   5.324   5.901   5.199  0.3477 -0.6577 -1.2463
   60MOL0     C 7845   5.341   5.900   5.343  0.3051  1.4783  1.0522
   60MOL0     O 7846   5.456   5.863   5.416  1.2698  0.2526  0.7214
   60MOL0     C 7847   5.576   5.854   5.336  0.1156  0.2473 -0.4918
   60MOL0     C 7848   5.686   5.828   5.448  0.2512 -0.3073  0.3214
   60MOL0     C 7849   5.831   5.813   5.386 -0.3678  0.1674 -0.0116
   60MOL0     C 7850   5.879   5.951   5.353 -0.6382 -0.7604  0.0015
   60MOL0     C 7851   5.930   6.020   5.472  0.1825  0.4707  0.3832
   60MOL0     C 7852   5.986   6.073   5.560  0.0224 -0.6079 -0.3491
   60MOL0     C 7853   5.221   5.919   5.410 -0.8004  0.1724  0.4516
   60MOL0     C 7854   5.107   5.968   5.351 -0.4808 -0.0882  0.2674
   60MOL0     H 7855   4.761   6.289   5.230  0.1366  0.0432 -0.8010
   60MOL0     H 7856   4.513   6.342   5.179 -2.8691 -0.8195 -2.0075
   60MOL0     H 7857   4.266   6.003   5.237  2.7755  1.2008  0.7932
   60MOL0     H 7858   4.258   5.979   5.063  1.6754  0.0860  0.2504
   60MOL0     H 7859   4.078   6.142   5.040  1.6437  1.8017 -0.4283
   60MOL0     H 7860   4.112   6.190   5.212 -0.0727  1.8262 -1.2420
   60MOL0     H 7861   4.052   5.947   5.286  0.1953 -2.7025 -2.3243
   60MOL0     H 7862   3.984   5.925   5.127  0.1763 -0.6648  0.5862
   60MOL0     H 7863   3.889   6.128   5.338  0.4531 -2.0194  2.4287
   60MOL0     H 7864   3.808   6.090   5.185 -0.4172 -0.9343  0.5618
   60MOL0     H 7865   3.855   5.885   5.412  1.5524 -1.7465 -1.7122
   60MOL0     H 7866   3.786   5.849   5.262  0.4172  0.7271 -0.9975
   60MOL0     H 7867   3.673   6.075   5.448  1.4520 -1.5972  1.2044
   60MOL0     H 7868   3.636   5.908   5.471  2.1789  1.9957  1.7692
   60MOL0     H 7869   3.583   6.075   5.225  3.7790 -1.2844  0.9621
   60MOL0     H 7870   3.559   5.902   5.228  2.2603  0.8409 -0.2026
   60MOL0     H 7871   3.409   6.094   5.412  0.9655 -2.1587  3.2472
   60MOL0     H 7872   3.368   5.920   5.401 -0.4575 -0.4547 -0.4108
   60MOL0     H 7873   3.402   6.199   5.122  0.2257 -0.3248  1.7872
   60MOL0     H 7874   3.169   6.279   4.919  0.6720  0.5922  0.7131
   60MOL0     H 7875   3.171   6.119   4.845 -0.0083  0.3256 -0.6481
   60MOL0     H 7876   3.425   6.115   4.851  1.6770 -0.1897  1.0887
   60MOL0     H 7877   3.417   6.289   4.906  1.2744 -2.7885  2.6958
   60MOL0     H 7878   3.279   6.197   4.650  1.0802 -0.8081 -0.0460
   60MOL0     H 7879   3.290   6.360   4.705  0.9000 -0.0388  3.0720
   60MOL0     H 7880   3.545   6.204   4.614  0.6019 -0.6002 -3.1464
   60MOL0     H 7881   3.530   6.366   4.686  1.7417  1.9050 -3.7962
   60MOL0     H 7882   3.675   6.217   4.438 -0.3127  1.2717  0.3355
   60MOL0     H 7883   3.871   6.314   4.318  1.9791  1.4177 -0.3571
   60MOL0     H 7884   3.897   6.963   4.201  0.3112 -0.4453 -1.0352
   60MOL0     H 7885   4.076   7.112   4.169 -3.4658 -1.1225 -0.0158
   60MOL0     H 7886   4.246   7.197   4.066  1.1116  2.7934  0.9863
   60MOL0     H 7887   4.363   7.068   4.019 -1.4232  0.0875 -0.7520
   60MOL0     H 7888   4.443   7.332   4.158 -0.2781  0.9037 -1.1972
   60MOL0     H 7889   4.472   7.298   3.983  0.4882  1.1019 -0.9979
   60MOL0     H 7890   4.674   7.255   4.105 -0.0142 -0.0899  0.0376
   60MOL0     H 7891   4.609   7.103   4.035 -1.5235  0.1280 -0.3069
   60MOL0     H 7892   4.547   7.011   4.219 -0.0971  1.1618 -1.6050
   60MOL0     H 7893   4.714   7.052   4.253 -0.3657 -1.1022  2.2207
   60MOL0     H 7894   4.594   7.102   4.444  2.2244 -1.0933 -0.5316
   60MOL0     H 7895   4.467   7.195   4.361 -0.5949 -1.5564  0.4396
   60MOL0     H 7896   4.611   7.392   4.349  0.1383  0.3361  0.2056
   60MOL0     H 7897   4.755   7.295   4.337 -1.0383  1.0366 -1.2780
   60MOL0     H 7898   4.765   7.239   4.571  1.3732  0.7359 -0.6021
   60MOL0     H 7899   4.774   7.407   4.524  1.1652 -0.8954  2.1743
   60MOL0     H 7900   4.601   7.333   4.727 -2.9496 -0.0194  0.2151
   60MOL0     H 7901   4.490   7.288   4.602  0.9368 -2.4977  0.5607
   60MOL0     H 7902   4.361   6.832   4.313 -0.6446 -2.6727 -0.6741
   60MOL0     H 7903   4.190   6.664   4.344  2.4257 -0.5202 -2.5983
   60MOL0     H 7904   3.665   6.687   4.317 -1.6609  0.8650  3.0484
   60MOL0     H 7905   3.477   6.598   4.418  0.3175  0.2662 -3.0146
   60MOL0     H 7906   4.474   5.908   5.122  1.0931 -1.8664 -0.3606
   60MOL0     H 7907   4.707   5.879   5.148  0.0783 -0.1425 -0.3480
   60MOL0     H 7908   5.204   5.922   5.028 -0.5719  1.2670  1.0200
   60MOL0     H 7909   5.406   5.874   5.134  0.0908  0.8231 -2.2423
   60MOL0     H 7910   5.607   5.942   5.277  0.1855  1.5613  1.4084
   60MOL0     H 7911   5.567   5.765   5.273  1.4113  1.9206 -3.2451
   60MOL0     H 7912   5.688   5.898   5.532 -0.5186 -1.7930  1.6317
   60MOL0     H 7913   5.664   5.730   5.491 -0.8590 -0.7617 -1.2250
   60MOL0     H 7914   5.834   5.754   5.294 -0.5463  0.4929 -0.2259
   60MOL0     H 7915   5.884   5.767   5.470 -3.0467  1.6355  2.6394
   60MOL0     H 7916   5.953   5.945   5.272 -2.4998  0.3255 -1.8791
   60MOL0     H 7917   5.802   6.013   5.308  2.3247  1.5317 -2.3328
   60MOL0     H 7918   6.016   6.133   5.644  0.3316  1.3873 -1.8192
   60MOL0     H 7919   5.231   5.911   5.518 -1.1471  2.4045  0.6965
   60MOL0     H 7920   5.025   6.006   5.411 -0.0373  0.9910  0.2122
   61MOL0     O 7921   3.734   6.285   8.099 -0.0087  0.4634  0.3248
   61MOL0     C 7922   3.771   6.395   8.093 -0.0170  0.7922  0.8253
   61MOL0     O 7923   3.699   6.499   8.044 -0.0940 -0.7196  0.3439
   61MOL0     C 7924   3.586   6.484   7.960 -0.4135  0.0174  0.6634
   61MOL0     C 7925   3.511   6.598   7.943  1.1102  0.1455 -0.1137
   61MOL0     C 7926   3.405   6.596   7.858 -0.6961 -0.7613 -0.5410
   61MOL0     C 7927   3.359   6.490   7.787 -0.2087  0.0617 -0.0044
   61MOL0     O 7928   3.252   6.508   7.709  0.0358 -0.9484  0.2492
   61MOL0     C 7929   3.119   6.461   7.767 -0.6574  0.0293 -0.0857
   61MOL0     C 7930   3.022   6.396   7.669  0.8049  0.0847 -0.1678
   61MOL0     C 7931   2.940   6.494   7.583 -0.5343  1.3768 -0.2570
   61MOL0     C 7932   2.886   6.421   7.461 -0.7557  0.2024  0.4960
   61MOL0     C 7933   2.831   6.511   7.354  0.7279 -0.0858  0.8848
   61MOL0     C 7934   2.736   6.603   7.416 -0.6328 -0.4261 -0.0083
   61MOL0     C 7935   2.633   6.681   7.330 -0.2202  0.3606  0.3536
   61MOL0     C 7936   2.697   6.795   7.264 -0.2019 -0.8446 -0.4991
   61MOL0     N 7937   2.612   6.828   7.144 -0.7399 -0.8574  0.1505
   61MOL0     C 7938   2.642   6.780   7.023  0.0622  0.0921  0.7869
   61MOL0     C 7939   2.560   6.842   6.944  0.5348  0.7052  0.3393
   61MOL0     C 7940   2.559   6.827   6.793  0.0340 -0.6669 -0.2074
   61MOL0     C 7941   2.626   6.937   6.717  0.1784 -0.7299 -0.6819
   61MOL0     C 7942   2.770   6.923   6.729 -0.3234 -1.3038  0.7895
   61MOL0     C 7943   2.841   7.051   6.665 -0.3165  0.3820  0.8114
   61MOL0     O 7944   2.861   7.017   6.525  0.2825 -0.0658  0.1813
   61MOL0     C 7945   2.978   7.060   6.458  0.1621 -0.9571  0.9299
   61MOL0     C 7946   2.997   7.006   6.325 -0.2732  0.0217 -0.3754
   61MOL0     C 7947   3.123   7.025   6.261 -0.6686 -0.0655  0.3665
   61MOL0     C 7948   3.227   7.109   6.307  0.3932 -0.4447  0.7134
   61MOL0     C 7949   3.338   7.139   6.221  0.7405 -0.0812 -0.6006
   61MOL0     O 7950   3.419   7.240   6.268  1.1758 -0.0499 -0.1089
   61MOL0     C 7951   3.552   7.262   6.240 -0.7016 -0.2061  0.8400
   61MOL0     C 7952   3.643   7.172   6.181  0.1005 -0.3144 -0.5166
   61MOL0     C 7953   3.780   7.205   6.176  0.3678 -0.5662  0.4623
   61MOL0     C 7954   3.828   7.331   6.225  0.1822  0.5990 -1.2404
   61MOL0     O 7955   3.960   7.369   6.194  0.6033 -0.0723 -0.3009
   61MOL0     C 7956   4.035   7.474   6.249 -0.2441  0.3372 -0.0054
   61MOL0     C 7957   4.160   7.412   6.318  0.0713  1.0567  1.0650
   61MOL0     C 7958   4.271   7.512   6.368 -0.1554 -0.7263  0.1826
   61MOL0     C 7959   4.404   7.447   6.384  0.1526  0.3746  0.6940
   61MOL0     C 7960   4.415   7.342   6.489  0.2828  0.5839  0.2897
   61MOL0     C 7961   4.394   7.400   6.634  0.0824 -0.5338  0.5371
   61MOL0     C 7962   4.412   7.308   6.748  0.2714  0.0486 -0.4744
   61MOL0     C 7963   4.560   7.278   6.781  0.3654 -0.0341 -0.5134
   61MOL0    Cl 7964   4.636   7.417   6.860  0.1643  0.4679  0.5129
   61MOL0     C 7965   3.735   7.412   6.287  0.1209 -0.2165 -0.2916
   61MOL0     C 7966   3.593   7.384   6.292 -0.0907 -0.3531  0.3916
   61MOL0     O 7967   3.362   7.073   6.116 -0.1581 -0.1911 -1.1643
   61MOL0     C 7968   3.202   7.163   6.436 -0.0301  0.4771 -0.1012
   61MOL0     C 7969   3.081   7.139   6.511  1.3887 -0.6389  0.5782
   61MOL0     N 7970   2.483   6.929   7.016  0.3042 -0.1120 -0.6328
   61MOL0     N 7971   2.513   6.916   7.137 -0.7628 -0.3703 -0.2331
   61MOL0     C 7972   3.442   6.375   7.798  0.0245 -0.1296  0.0495
   61MOL0     C 7973   3.552   6.371   7.887  1.2082 -0.3860 -0.2389
   61MOL0     C 7974   3.900   6.441   8.169 -0.1462  0.1403  0.4972
   61MOL0     C 7975   3.979   6.348   8.241  0.1063 -0.1837 -1.1752
   61MOL0     C 7976   4.087   6.385   8.314 -0.2664  0.3623  0.3594
   61MOL0     C 7977   4.123   6.529   8.315  0.3025 -0.0057 -0.9130
   61MOL0     O 7978   4.224   6.577   8.390 -0.0729  0.5680  0.6771
   61MOL0     C 7979   4.337   6.493   8.419 -0.2761 -1.1761  1.0379
   61MOL0     C 7980   4.452   6.578   8.465 -0.1125  0.5550 -0.4048
   61MOL0     C 7981   4.499   6.683   8.375  0.4038  0.2829 -0.3064
   61MOL0     C 7982   4.603   6.770   8.446  0.5821 -0.4533  0.1125
   61MOL0     C 7983   4.744   6.729   8.417  0.6536  0.6775 -0.0642
   61MOL0     C 7984   4.857   6.700   8.392 -0.0462 -0.1409  0.8334
   61MOL0     C 7985   4.043   6.629   8.246 -0.2732  0.1561  1.2306
   61MOL0     C 7986   3.944   6.573   8.170 -0.0144 -0.0508 -0.2788
   61MOL0     H 7987   3.548   6.693   7.981 -0.1007  0.4483  0.3351
   61MOL0     H 7988   3.361   6.694   7.844  2.9064  1.0447 -0.4264
   61MOL0     H 7989   3.066   6.547   7.808  1.3150  1.9619 -1.3269
   61MOL0     H 7990   3.145   6.383   7.839  0.0352 -0.6387 -1.0277
   61MOL0     H 7991   2.952   6.326   7.715  0.0818  2.1508  2.1294
   61MOL0     H 7992   3.089   6.346   7.599 -0.8966 -2.3857 -0.1438
   61MOL0     H 7993   3.007   6.577   7.559  2.1178 -0.3419  0.7018
   61MOL0     H 7994   2.856   6.517   7.648 -3.0407 -3.5863 -1.3096
   61MOL0     H 7995   2.965   6.357   7.419  0.1299  0.4155  1.7937
   61MOL0     H 7996   2.822   6.334   7.480  2.1163 -2.0178  0.7407
   61MOL0     H 7997   2.770   6.456   7.281 -0.0120  2.3136 -0.4111
   61MOL0     H 7998   2.915   6.571   7.318  0.8161  1.2293  3.0937
   61MOL0     H 7999   2.797   6.675   7.471  3.3140 -2.7957 -0.8277
   61MOL0     H 8000   2.672   6.548   7.486 -0.8435 -0.7457 -0.4488
   61MOL0     H 8001   2.595   6.617   7.250 -1.3177 -0.8026  1.7427
   61MOL0     H 8002   2.548   6.721   7.386 -3.0035 -2.2589 -1.6798
   61MOL0     H 8003   2.797   6.771   7.225 -0.3108 -0.1339 -1.2648
   61MOL0     H 8004   2.710   6.887   7.322  2.0445 -0.4562 -1.4984
   61MOL0     H 8005   2.713   6.700   7.002  0.4423  0.0641  2.0999
   61MOL0     H 8006   2.453   6.848   6.775  0.2393 -0.4312 -1.1806
   61MOL0     H 8007   2.591   6.727   6.764 -0.4682 -0.4553 -1.5550
   61MOL0     H 8008   2.588   7.031   6.757  0.7549 -1.2305  1.1339
   61MOL0     H 8009   2.596   6.934   6.611  1.0679 -0.4671 -0.9458
   61MOL0     H 8010   2.791   6.931   6.836  0.3785 -0.2947  0.5891
   61MOL0     H 8011   2.799   6.830   6.680 -0.1713 -2.2318  2.5828
   61MOL0     H 8012   2.935   7.074   6.715 -0.2125  0.6436  0.4956
   61MOL0     H 8013   2.778   7.141   6.670 -3.3358 -1.5082 -0.1651
   61MOL0     H 8014   2.927   6.936   6.281 -3.6393  3.1187 -0.4492
   61MOL0     H 8015   3.154   6.978   6.169  0.6312  2.7416 -0.7453
   61MOL0     H 8016   3.609   7.074   6.149 -1.6710  0.2229 -0.3505
   61MOL0     H 8017   3.854   7.140   6.130  1.6667  0.2631  1.2850
   61MOL0     H 8018   3.981   7.529   6.327 -1.3376 -0.5097 -0.1409
   61MOL0     H 8019   4.061   7.543   6.168  0.9526  1.2893  1.1547
   61MOL0     H 8020   4.203   7.353   6.236  3.0529  2.4868  1.5090
   61MOL0     H 8021   4.130   7.337   6.391  0.0526 -0.5336 -0.4948
   61MOL0     H 8022   4.234   7.567   6.454 -0.0843  3.0473 -1.9934
   61MOL0     H 8023   4.268   7.572   6.276 -4.1129 -0.2715  0.4382
   61MOL0     H 8024   4.438   7.398   6.292  1.5493  1.8877  0.3637
   61MOL0     H 8025   4.476   7.527   6.404  3.0983 -2.1258  0.9057
   61MOL0     H 8026   4.519   7.310   6.481  0.5165  1.3205  0.3031
   61MOL0     H 8027   4.344   7.261   6.470 -0.9136  0.9516  2.8408
   61MOL0     H 8028   4.292   7.438   6.645  0.0145 -0.2652 -0.8432
   61MOL0     H 8029   4.466   7.477   6.663 -0.8968 -0.0308  1.7202
   61MOL0     H 8030   4.364   7.364   6.828 -0.6807  1.4978 -2.0147
   61MOL0     H 8031   4.356   7.215   6.731 -1.8820  1.2388 -0.1204
   61MOL0     H 8032   4.597   7.252   6.682 -1.6574 -1.5844 -0.9441
   61MOL0     H 8033   4.555   7.191   6.848 -3.5975 -0.2744 -0.8722
   61MOL0     H 8034   3.764   7.505   6.335 -0.8204 -1.4849  3.0190
   61MOL0     H 8035   3.523   7.448   6.345 -2.1867 -2.7339  0.6992
   61MOL0     H 8036   3.272   7.236   6.475  0.4007 -0.1588  0.3249
   61MOL0     H 8037   3.073   7.181   6.611  1.6923  0.2186  0.2504
   61MOL0     H 8038   3.416   6.285   7.744 -0.4354 -0.8987  1.5212
   61MOL0     H 8039   3.599   6.274   7.890  0.3582 -0.8196 -0.6951
   61MOL0     H 8040   3.954   6.243   8.259 -0.7973  0.4554  1.9954
   61MOL0     H 8041   4.157   6.322   8.368  1.7994  1.9279 -0.3275
   61MOL0     H 8042   4.365   6.437   8.329 -1.0209  0.3902 -0.2124
   61MOL0     H 8043   4.304   6.424   8.497 -2.8824 -2.7312 -1.2787
   61MOL0     H 8044   4.415   6.618   8.560 -1.7968 -1.5573 -0.0782
   61MOL0     H 8045   4.542   6.518   8.482  2.2859  3.6842 -1.0267
   61MOL0     H 8046   4.415   6.749   8.350  0.6318  0.6047 -0.2393
   61MOL0     H 8047   4.551   6.645   8.286  1.5814 -0.5968  0.7115
   61MOL0     H 8048   4.579   6.875   8.425 -0.6990 -0.7884 -0.1786
   61MOL0     H 8049   4.587   6.778   8.554  2.1533  0.0726  0.3272
   61MOL0     H 8050   4.955   6.673   8.358 -0.8472  2.2790 -4.2244
   61MOL0     H 8051   4.058   6.736   8.242 -0.2709  0.1375  0.6739
   61MOL0     H 8052   3.897   6.641   8.100 -2.4274 -1.3507 -0.0375
   62MOL0     O 8053   2.312   2.043   6.064 -0.9604 -0.1809  0.5374
   62MOL0     C 8054   2.392   1.951   6.071 -0.0429 -0.0430 -0.1565
   62MOL0     O 8055   2.369   1.825   6.032 -0.4776  0.0827 -0.1098
   62MOL0     C 8056   2.263   1.808   5.947  0.6338  0.0038  0.1598
   62MOL0     C 8057   2.283   1.794   5.808 -0.3832  0.4906 -0.4496
   62MOL0     C 8058   2.176   1.757   5.727 -0.2598 -0.7972 -0.2262
   62MOL0     C 8059   2.048   1.752   5.775  0.6383 -0.5869  0.0277
   62MOL0     O 8060   1.933   1.718   5.710 -0.4541  0.8656  0.1749
   62MOL0     C 8061   1.941   1.617   5.597 -0.4572 -0.0447 -0.0620
   62MOL0     C 8062   1.899   1.484   5.648  0.0680 -0.1923  0.0811
   62MOL0     C 8063   1.858   1.386   5.541  0.1532  0.2538  0.5791
   62MOL0     C 8064   1.807   1.257   5.605 -0.7607 -1.5585 -0.4406
   62MOL0     C 8065   1.777   1.153   5.505  0.0678  0.2756  0.1857
   62MOL0     C 8066   1.704   1.036   5.563  0.9868 -0.4746  0.1723
   62MOL0     C 8067   1.660   0.932   5.461 -0.4837 -0.4262  1.1168
   62MOL0     C 8068   1.598   0.813   5.518 -0.5532  0.1892 -0.5599
   62MOL0     N 8069   1.475   0.841   5.588 -0.1728  0.3843  0.5624
   62MOL0     C 8070   1.350   0.844   5.523  0.1108  0.1441  0.0569
   62MOL0     C 8071   1.269   0.898   5.619 -0.2353 -0.6641 -0.6589
   62MOL0     C 8072   1.130   0.948   5.598  1.0945  0.1516  0.2798
   62MOL0     C 8073   1.051   0.851   5.503  0.4451  0.4639  0.0081
   62MOL0     C 8074   0.916   0.904   5.454 -0.2062 -0.4300 -0.2566
   62MOL0     C 8075   0.924   1.021   5.360  0.5125 -0.2245 -0.2497
   62MOL0     O 8076   0.786   1.053   5.333 -0.1429  0.4650  0.4933
   62MOL0     C 8077   0.760   1.148   5.234  0.3171 -0.0882 -0.4771
   62MOL0     C 8078   0.631   1.185   5.218  0.4243  0.8361 -0.0808
   62MOL0     C 8079   0.589   1.289   5.131  1.2498 -0.1575 -0.8856
   62MOL0     C 8080   0.684   1.351   5.051 -1.1471  0.2712  0.2930
   62MOL0     C 8081   0.643   1.463   4.974  0.6349 -0.0810  0.7055
   62MOL0     O 8082   0.517   1.505   4.977 -0.1740  0.0236  0.2091
   62MOL0     C 8083   0.493   1.622   4.909 -0.3199 -0.0560 -1.0974
   62MOL0     C 8084   0.480   1.621   4.773  0.3328 -0.4206  0.1538
   62MOL0     C 8085   0.473   1.745   4.709 -0.2545  0.3844 -0.4349
   62MOL0     C 8086   0.466   1.868   4.779  0.4457 -0.5475  0.0799
   62MOL0     O 8087   0.451   1.992   4.722 -0.7859  0.4295  1.1128
   62MOL0     C 8088   0.443   1.999   4.571  0.7411  0.7005  0.0089
   62MOL0     C 8089   0.411   2.140   4.522  0.4336 -0.4502 -0.7554
   62MOL0     C 8090   0.290   2.206   4.591  0.2269 -0.0814 -0.4589
   62MOL0     C 8091   0.157   2.133   4.561  1.0554 -0.0712  0.0429
   62MOL0     C 8092   0.057   2.171   4.673  0.3852 -0.2397  0.5674
   62MOL0     C 8093  -0.088   2.179   4.638 -0.3223 -0.5895  1.2505
   62MOL0     C 8094  -0.180   2.128   4.746 -0.5015  0.2136 -0.6264
   62MOL0     C 8095  -0.323   2.180   4.720 -0.5763  0.6064  0.2683
   62MOL0    Cl 8096  -0.439   2.109   4.836 -0.0986  0.4673 -0.0978
   62MOL0     C 8097   0.469   1.859   4.915 -0.0855  0.4205  0.2531
   62MOL0     C 8098   0.487   1.743   4.986 -0.6386  0.9324  0.1622
   62MOL0     O 8099   0.721   1.514   4.897 -0.5221 -0.0524 -0.3665
   62MOL0     C 8100   0.821   1.317   5.064  0.5863  0.2566 -0.1461
   62MOL0     C 8101   0.857   1.218   5.161  0.6718 -0.4037  0.1207
   62MOL0     N 8102   1.332   0.904   5.743 -0.0246 -0.6530 -0.0299
   62MOL0     N 8103   1.461   0.874   5.718 -0.2378 -0.3103 -0.0728
   62MOL0     C 8104   2.022   1.773   5.911 -0.4363 -0.2884 -0.3582
   62MOL0     C 8105   2.129   1.799   5.999 -0.6923 -0.5856  0.7395
   62MOL0     C 8106   2.531   1.978   6.131  0.5579 -0.2334 -0.0478
   62MOL0     C 8107   2.645   1.911   6.075  0.4967 -0.6272 -0.7447
   62MOL0     C 8108   2.768   1.941   6.131 -0.2353 -0.0562 -0.3189
   62MOL0     C 8109   2.783   2.028   6.239 -0.0279 -0.3348  0.5049
   62MOL0     O 8110   2.905   2.039   6.299 -0.3418 -0.6437 -0.3091
   62MOL0     C 8111   2.936   2.072   6.442 -0.5179 -0.1528  0.2934
   62MOL0     C 8112   3.064   2.007   6.478  0.6863  1.1358  0.5524
   62MOL0     C 8113   3.057   1.846   6.479  0.9007  0.0290 -0.3633
   62MOL0     C 8114   3.181   1.781   6.539  0.6738  0.0379  0.2626
   62MOL0     C 8115   3.205   1.824   6.676  0.3507  0.3546 -0.2005
   62MOL0     C 8116   3.231   1.872   6.787  0.9118  1.0246  0.1972
   62MOL0     C 8117   2.671   2.087   6.296 -0.1493 -0.6762 -0.3311
   62MOL0     C 8118   2.544   2.057   6.242  0.6606 -0.1436  0.2880
   62MOL0     H 8119   2.380   1.808   5.762  0.1489 -0.9546  0.1821
   62MOL0     H 8120   2.179   1.742   5.619  0.4786 -3.8150  0.1370
   62MOL0     H 8121   2.032   1.621   5.537  0.4648 -0.9406  1.2065
   62MOL0     H 8122   1.856   1.642   5.534 -1.5369  1.2087  1.7858
   62MOL0     H 8123   1.823   1.498   5.725  0.3774 -0.6968  0.4845
   62MOL0     H 8124   1.986   1.434   5.693 -0.2149 -0.6328  0.1413
   62MOL0     H 8125   1.940   1.353   5.476 -0.6253 -1.2838  0.3500
   62MOL0     H 8126   1.773   1.426   5.485 -0.1726  2.7594  2.6591
   62MOL0     H 8127   1.886   1.218   5.670 -1.9870 -0.1012  2.0530
   62MOL0     H 8128   1.720   1.298   5.656 -0.1841  1.8844 -1.9147
   62MOL0     H 8129   1.872   1.118   5.462  0.6765  1.2237  0.7419
   62MOL0     H 8130   1.718   1.197   5.424 -3.2266 -1.4748  1.4368
   62MOL0     H 8131   1.610   1.074   5.602  0.6328 -1.4766  0.3407
   62MOL0     H 8132   1.756   0.986   5.646  3.5226  0.1039 -0.9650
   62MOL0     H 8133   1.587   0.981   5.396 -2.4813 -0.5092  3.1665
   62MOL0     H 8134   1.752   0.906   5.408 -1.7776  0.8178 -1.9592
   62MOL0     H 8135   1.665   0.775   5.596  0.9932 -0.5118 -2.1392
   62MOL0     H 8136   1.577   0.744   5.436 -1.1535  1.6420 -1.6885
   62MOL0     H 8137   1.331   0.818   5.420  1.7569  0.1214 -0.2642
   62MOL0     H 8138   1.145   1.051   5.565  2.6529  0.4735  1.8072
   62MOL0     H 8139   1.079   0.957   5.695  2.8768  3.8757  1.0842
   62MOL0     H 8140   1.037   0.749   5.540 -1.1141  0.5857 -0.1920
   62MOL0     H 8141   1.124   0.849   5.422 -0.1415  1.6510 -0.5691
   62MOL0     H 8142   0.859   0.823   5.408 -1.8671  1.5250 -1.8421
   62MOL0     H 8143   0.858   0.938   5.541  0.1824  0.4914 -0.3487
   62MOL0     H 8144   0.971   0.983   5.268  0.1281 -2.9598  0.6105
   62MOL0     H 8145   0.979   1.105   5.403 -0.4372 -0.0283  0.6009
   62MOL0     H 8146   0.552   1.138   5.275 -0.0737 -1.6121 -2.5822
   62MOL0     H 8147   0.484   1.307   5.115  1.2918  1.1247  0.0921
   62MOL0     H 8148   0.484   1.525   4.723  0.9304  0.2412 -1.1302
   62MOL0     H 8149   0.473   1.732   4.601  1.0603 -0.6589 -0.3411
   62MOL0     H 8150   0.360   1.933   4.546  2.1138 -1.0606 -0.0879
   62MOL0     H 8151   0.529   1.955   4.519  0.6757  0.3711  0.1797
   62MOL0     H 8152   0.394   2.147   4.414  1.5794 -2.9275 -1.1655
   62MOL0     H 8153   0.504   2.194   4.543  0.2186  0.5462 -2.2043
   62MOL0     H 8154   0.293   2.314   4.580  0.8266  0.3370  2.8734
   62MOL0     H 8155   0.307   2.186   4.697  1.5167  0.8659 -0.4687
   62MOL0     H 8156   0.115   2.165   4.465  0.0500 -0.2451  0.4148
   62MOL0     H 8157   0.161   2.024   4.568 -1.5087 -0.2638 -0.3192
   62MOL0     H 8158   0.085   2.270   4.708  0.6228 -0.2680  0.4558
   62MOL0     H 8159   0.057   2.100   4.757 -0.9929 -1.7996 -0.6612
   62MOL0     H 8160  -0.101   2.117   4.549 -0.9751  0.9988  0.1831
   62MOL0     H 8161  -0.119   2.278   4.603  0.8516 -1.3450 -2.3319
   62MOL0     H 8162  -0.191   2.021   4.728 -1.1866 -0.0638  1.2431
   62MOL0     H 8163  -0.149   2.141   4.850 -0.5476  1.7027 -0.7782
   62MOL0     H 8164  -0.356   2.170   4.616  2.2491 -0.2640 -0.6338
   62MOL0     H 8165  -0.328   2.287   4.745  2.0413  0.4145  1.9039
   62MOL0     H 8166   0.478   1.955   4.966 -0.1888 -0.1238  1.3091
   62MOL0     H 8167   0.507   1.740   5.092 -0.5526 -3.5407  0.2380
   62MOL0     H 8168   0.899   1.355   5.000 -1.2339  2.2130 -1.3288
   62MOL0     H 8169   0.964   1.201   5.169  1.2369  1.6675 -1.9896
   62MOL0     H 8170   1.923   1.791   5.950  0.5870  3.6444  0.9046
   62MOL0     H 8171   2.124   1.825   6.104  1.9556 -1.2418  1.1043
   62MOL0     H 8172   2.644   1.834   5.998 -1.1210  0.5815 -1.9942
   62MOL0     H 8173   2.856   1.886   6.101  0.8559  1.8947 -0.8685
   62MOL0     H 8174   2.851   2.038   6.502 -2.3819 -0.0233 -2.0978
   62MOL0     H 8175   2.946   2.180   6.453  2.0456 -0.3673  0.4756
   62MOL0     H 8176   3.143   2.040   6.411 -2.1099  3.9697 -1.6398
   62MOL0     H 8177   3.098   2.042   6.576  2.0251 -0.7008  0.8043
   62MOL0     H 8178   3.041   1.818   6.374 -3.7881 -0.5080  0.2799
   62MOL0     H 8179   2.967   1.813   6.533 -0.3150  2.0805 -1.0127
   62MOL0     H 8180   3.176   1.673   6.523  0.6792  0.2919 -1.6523
   62MOL0     H 8181   3.267   1.819   6.484  0.1044 -2.1833 -2.4086
   62MOL0     H 8182   3.252   1.906   6.886  1.1725 -2.7737  1.6047
   62MOL0     H 8183   2.671   2.159   6.378 -1.8540 -1.6275  0.5404
   62MOL0     H 8184   2.458   2.099   6.293  0.5007  0.8970 -0.8104
   63MOL0     O 8185   8.751   0.118   8.138 -0.2471 -0.6355 -0.2679
   63MOL0     C 8186   8.813   0.211   8.086 -0.4864  0.6893 -0.2521
   63MOL0     O 8187   8.768   0.327   8.041  0.5925 -0.0434  0.1155
   63MOL0     C 8188   8.631   0.356   8.045 -0.1931  0.3753 -0.3444
   63MOL0     C 8189   8.590   0.454   8.135 -0.5774  0.1749  0.1372
   63MOL0     C 8190   8.452   0.471   8.152 -0.2760  0.1651 -0.2759
   63MOL0     C 8191   8.353   0.396   8.086  0.1021 -0.3170  0.1310
   63MOL0     O 8192   8.224   0.417   8.120  0.0776  0.3741 -0.1701
   63MOL0     C 8193   8.131   0.410   8.010 -0.3033 -0.2008 -0.8789
   63MOL0     C 8194   8.009   0.496   8.055  0.5879  0.5686  0.0368
   63MOL0     C 8195   7.892   0.466   7.962 -0.2260  0.5284 -0.1214
   63MOL0     C 8196   7.764   0.547   7.986  0.5381 -0.8195  1.5528
   63MOL0     C 8197   7.700   0.592   7.858 -0.7261 -0.4475  1.0177
   63MOL0     C 8198   7.590   0.690   7.874  0.4350  0.2916  0.0835
   63MOL0     C 8199   7.561   0.758   7.733  0.2910 -0.7615 -0.2824
   63MOL0     C 8200   7.479   0.888   7.758  0.8005 -0.4394 -0.3313
   63MOL0     N 8201   7.433   0.942   7.620 -0.5668 -0.5954 -0.5293
   63MOL0     C 8202   7.306   0.966   7.586  0.0669 -0.3052 -0.5034
   63MOL0     C 8203   7.319   1.018   7.456 -0.3817  0.8935  0.1240
   63MOL0     C 8204   7.217   1.084   7.366 -0.2638  0.6579 -0.1341
   63MOL0     C 8205   7.078   1.102   7.428 -0.1701  0.4356  0.1444
   63MOL0     C 8206   6.988   1.140   7.306 -0.2649 -0.1117 -0.2315
   63MOL0     C 8207   6.847   1.169   7.334 -1.2072  0.4208  0.7987
   63MOL0     O 8208   6.828   1.278   7.426 -0.0723 -0.4200 -0.0114
   63MOL0     C 8209   6.775   1.393   7.369 -0.4596  0.3951  0.8396
   63MOL0     C 8210   6.799   1.437   7.241  0.0793 -0.0195  0.2303
   63MOL0     C 8211   6.733   1.558   7.196  0.3595  0.0306  0.7551
   63MOL0     C 8212   6.671   1.645   7.285 -0.5607  0.2581 -0.3056
   63MOL0     C 8213   6.600   1.770   7.241  0.1753 -0.8745 -0.5124
   63MOL0     O 8214   6.604   1.801   7.107  0.0766  0.3756 -0.2614
   63MOL0     C 8215   6.531   1.906   7.055  0.1855  0.3382  0.1814
   63MOL0     C 8216   6.564   1.944   6.919 -0.0876  0.2384 -0.7439
   63MOL0     C 8217   6.487   2.028   6.851  0.0895  0.4422  0.0159
   63MOL0     C 8218   6.377   2.086   6.914 -0.1220  0.6325  0.0273
   63MOL0     O 8219   6.299   2.169   6.843  0.1862 -0.5003  0.1827
   63MOL0     C 8220   6.208   2.254   6.920  0.3472  0.3207 -0.5817
   63MOL0     C 8221   6.130   2.353   6.840  0.2523 -0.1965 -0.5077
   63MOL0     C 8222   6.045   2.444   6.927 -0.2687 -0.1877  0.9927
   63MOL0     C 8223   5.942   2.372   7.014 -0.5037 -1.0059  0.2753
   63MOL0     C 8224   5.861   2.468   7.104  0.0639 -0.4489  0.6217
   63MOL0     C 8225   5.805   2.586   7.034  0.5844  0.5758 -0.2494
   63MOL0     C 8226   5.708   2.666   7.117  0.4087 -0.5321 -0.2062
   63MOL0     C 8227   5.624   2.752   7.018 -0.7907  0.2026 -0.0261
   63MOL0    Cl 8228   5.721   2.868   6.920 -0.0314  0.5890  0.2492
   63MOL0     C 8229   6.344   2.048   7.044  0.1233 -0.5441 -0.4661
   63MOL0     C 8230   6.418   1.959   7.117  0.1651  0.3648  0.5880
   63MOL0     O 8231   6.561   1.849   7.325 -0.1696 -0.0399 -0.5368
   63MOL0     C 8232   6.682   1.610   7.422  0.5969  0.3424  0.3430
   63MOL0     C 8233   6.730   1.489   7.460 -0.1742  0.7730  0.2895
   63MOL0     N 8234   7.454   1.012   7.416 -0.8662  0.1380  0.8139
   63MOL0     N 8235   7.517   0.961   7.514 -0.1675  0.4261 -0.5068
   63MOL0     C 8236   8.388   0.293   8.004 -0.0142 -0.0628  0.3832
   63MOL0     C 8237   8.527   0.274   7.987 -0.3466 -0.6558  0.9014
   63MOL0     C 8238   8.960   0.201   8.079  0.6418 -0.0979 -0.0376
   63MOL0     C 8239   9.046   0.303   8.040  0.2105  0.5956  0.6733
   63MOL0     C 8240   9.174   0.290   8.021  0.1442 -0.4657 -1.0669
   63MOL0     C 8241   9.238   0.169   8.059  0.1847 -0.2550  0.4270
   63MOL0     O 8242   9.371   0.139   8.064  0.1564 -0.5077  0.0223
   63MOL0     C 8243   9.467   0.234   8.003  0.3195  0.0107  0.0898
   63MOL0     C 8244   9.493   0.359   8.088  0.3205  0.3282 -0.5726
   63MOL0     C 8245   9.629   0.414   8.047 -0.0972 -0.2620  0.0018
   63MOL0     C 8246   9.660   0.550   8.112 -0.0288  0.0041  0.4798
   63MOL0     C 8247   9.801   0.581   8.083 -0.1867  0.0957 -0.6517
   63MOL0     C 8248   9.915   0.594   8.037  0.7119  0.9803  0.4754
   63MOL0     C 8249   9.164   0.065   8.121  0.7589  0.5252  0.7527
   63MOL0     C 8250   9.025   0.084   8.132  0.2387  0.4615  0.3840
   63MOL0     H 8251   8.665   0.507   8.193 -1.0863 -0.3013  1.2458
   63MOL0     H 8252   8.407   0.548   8.213 -1.7087 -0.0332 -1.0424
   63MOL0     H 8253   8.101   0.305   8.005 -1.4635  0.0710 -0.2212
   63MOL0     H 8254   8.169   0.433   7.911  0.8990 -1.5493 -0.7643
   63MOL0     H 8255   8.034   0.603   8.047 -0.1298  0.5822 -2.7089
   63MOL0     H 8256   7.990   0.472   8.160  0.3312  0.1810 -0.1007
   63MOL0     H 8257   7.858   0.363   7.963 -2.0100  1.0830 -0.6785
   63MOL0     H 8258   7.924   0.498   7.863 -0.9903 -0.4274 -0.6900
   63MOL0     H 8259   7.688   0.485   8.033 -1.7508 -0.8025 -1.7684
   63MOL0     H 8260   7.795   0.638   8.040 -1.1458  1.8322 -1.5706
   63MOL0     H 8261   7.658   0.508   7.802  1.3693 -1.3272  0.6820
   63MOL0     H 8262   7.772   0.639   7.790  0.4122 -0.6260  2.0712
   63MOL0     H 8263   7.617   0.772   7.940 -0.1078 -2.5742  4.2226
   63MOL0     H 8264   7.503   0.636   7.914  1.8489 -2.6688 -0.5380
   63MOL0     H 8265   7.653   0.803   7.696  0.5166  1.2330  2.4378
   63MOL0     H 8266   7.502   0.694   7.665  1.2479 -1.0267 -0.8864
   63MOL0     H 8267   7.535   0.966   7.811 -0.7426  0.4815  0.0219
   63MOL0     H 8268   7.394   0.862   7.822  0.3970  1.2021 -0.1582
   63MOL0     H 8269   7.213   0.959   7.642  1.3253  1.9733  2.0801
   63MOL0     H 8270   7.216   1.020   7.277  0.7422  1.7342 -0.9447
   63MOL0     H 8271   7.255   1.183   7.341  1.3440  1.0892  3.4366
   63MOL0     H 8272   7.075   1.188   7.496  0.4583  0.4179  0.2019
   63MOL0     H 8273   7.036   1.014   7.478  2.7485 -0.9444  0.3466
   63MOL0     H 8274   7.033   1.232   7.266 -0.1403  0.0398  0.2587
   63MOL0     H 8275   7.006   1.059   7.234 -0.2593 -1.1137  0.8786
   63MOL0     H 8276   6.811   1.073   7.372  1.4545 -0.9500  0.1296
   63MOL0     H 8277   6.793   1.194   7.242  0.2722 -0.0653 -0.2389
   63MOL0     H 8278   6.850   1.380   7.165 -1.3867  0.1645 -0.9378
   63MOL0     H 8279   6.728   1.581   7.090 -0.8895 -0.2596  0.7293
   63MOL0     H 8280   6.660   1.920   6.876 -0.9074  0.5785 -2.8916
   63MOL0     H 8281   6.502   2.051   6.746 -1.0665  4.7859  0.6143
   63MOL0     H 8282   6.262   2.303   7.001  0.2478 -0.8866  0.2420
   63MOL0     H 8283   6.130   2.195   6.968 -0.0237  0.7179 -0.6851
   63MOL0     H 8284   6.054   2.306   6.778 -2.4563 -0.2720  2.5803
   63MOL0     H 8285   6.199   2.417   6.784 -0.4367  2.5460  1.5064
   63MOL0     H 8286   6.001   2.507   6.850 -0.3704 -1.6292 -0.1757
   63MOL0     H 8287   6.123   2.498   6.982  0.3294  0.1426 -0.1403
   63MOL0     H 8288   5.873   2.316   6.951  0.0346 -1.4189  0.0519
   63MOL0     H 8289   5.992   2.296   7.074  0.1281  0.4076  1.6196
   63MOL0     H 8290   5.929   2.503   7.182  1.6184  1.5666 -1.5084
   63MOL0     H 8291   5.781   2.404   7.142  0.7919 -1.7523  0.0477
   63MOL0     H 8292   5.752   2.547   6.946 -1.6965  1.2536  0.7481
   63MOL0     H 8293   5.883   2.657   7.004  0.9441  0.2261 -0.1384
   63MOL0     H 8294   5.644   2.602   7.178 -0.6658  1.1907  0.5546
   63MOL0     H 8295   5.754   2.744   7.178 -0.9948  0.4427 -0.3297
   63MOL0     H 8296   5.539   2.802   7.066 -0.8375 -0.2216  0.3408
   63MOL0     H 8297   5.580   2.698   6.934  0.1779  2.2423 -1.9252
   63MOL0     H 8298   6.260   2.084   7.102 -0.4389  1.1062 -2.1997
   63MOL0     H 8299   6.384   1.930   7.216  0.3468 -0.1743  0.4958
   63MOL0     H 8300   6.651   1.670   7.507  0.1471  0.6472 -0.0366
   63MOL0     H 8301   6.730   1.461   7.565 -0.1878 -0.2775  0.0241
   63MOL0     H 8302   8.322   0.240   7.936 -1.9355  1.9590  0.5274
   63MOL0     H 8303   8.560   0.189   7.928 -0.6425 -1.9791  2.5661
   63MOL0     H 8304   9.005   0.401   8.018  1.1842  1.0361  0.7950
   63MOL0     H 8305   9.232   0.376   7.991  0.3822  0.4551  1.7233
   63MOL0     H 8306   9.430   0.277   7.909 -0.5401 -0.0478  0.3966
   63MOL0     H 8307   9.561   0.183   7.978  0.2483  1.2905 -3.3564
   63MOL0     H 8308   9.407   0.427   8.086  0.0374  0.4067  4.0399
   63MOL0     H 8309   9.503   0.330   8.193  0.1812 -0.3935 -0.7469
   63MOL0     H 8310   9.624   0.436   7.940 -1.4297 -1.4991 -0.2083
   63MOL0     H 8311   9.705   0.335   8.054 -0.3571 -0.4083  1.7237
   63MOL0     H 8312   9.599   0.637   8.088 -0.7895 -0.4214  0.8088
   63MOL0     H 8313   9.653   0.534   8.220 -1.6229  0.1734  0.4237
   63MOL0     H 8314  10.011   0.608   7.993  1.4288  1.2963  2.0620
   63MOL0     H 8315   9.212  -0.028   8.146 -1.8457 -1.6932 -1.7161
   63MOL0     H 8316   8.971  -0.002   8.171  1.6153 -0.0538  1.2300
   64MOL0     O 8317   5.084   3.130   7.510 -0.0320 -0.2244  0.0748
   64MOL0     C 8318   5.088   3.077   7.625 -0.2817  0.2412  1.2767
   64MOL0     O 8319   4.982   3.020   7.693 -0.0128  0.3437 -0.0383
   64MOL0     C 8320   4.858   3.035   7.633  0.6380  0.0549  0.6489
   64MOL0     C 8321   4.824   2.946   7.525 -0.3602 -0.4812 -0.5041
   64MOL0     C 8322   4.708   2.971   7.456  1.2678 -0.8897  0.2365
   64MOL0     C 8323   4.624   3.088   7.484 -0.3073  0.0984  0.3080
   64MOL0     O 8324   4.520   3.110   7.400 -0.1005  0.4213 -0.3181
   64MOL0     C 8325   4.416   3.214   7.423 -0.1654 -0.4415  0.2800
   64MOL0     C 8326   4.287   3.179   7.344  0.2732  0.2199  0.1487
   64MOL0     C 8327   4.199   3.294   7.304  0.1464 -0.3078  0.3094
   64MOL0     C 8328   4.105   3.235   7.200  0.8127 -1.1180 -0.1766
   64MOL0     C 8329   4.004   3.337   7.159  0.0483 -0.2844 -0.9524
   64MOL0     C 8330   3.908   3.273   7.058 -0.7684 -0.8265  0.0764
   64MOL0     C 8331   3.796   3.195   7.117  0.8708  0.1888  0.2707
   64MOL0     C 8332   3.704   3.144   7.006 -0.4821  0.0140  0.0715
   64MOL0     N 8333   3.598   3.050   7.049  0.2195  0.6065 -0.9870
   64MOL0     C 8334   3.505   3.005   6.964 -0.6363 -0.6334  0.8151
   64MOL0     C 8335   3.448   2.902   7.022  0.2018 -0.6163 -0.6039
   64MOL0     C 8336   3.339   2.814   6.963 -0.9137 -0.5737 -0.2477
   64MOL0     C 8337   3.202   2.886   6.982 -0.0237  0.2600 -0.8482
   64MOL0     C 8338   3.092   2.793   6.960  0.3320  0.3100  0.6107
   64MOL0     C 8339   2.961   2.860   6.990  1.2112 -0.3647  0.5742
   64MOL0     O 8340   2.952   2.950   6.876 -0.2888  0.2258 -0.2304
   64MOL0     C 8341   2.835   2.943   6.803 -0.0603 -0.5244  0.9484
   64MOL0     C 8342   2.762   2.826   6.768 -0.7412  0.2737 -1.0029
   64MOL0     C 8343   2.676   2.828   6.667  1.0405  0.1955  0.6264
   64MOL0     C 8344   2.633   2.950   6.611 -0.6339 -1.1509  1.3494
   64MOL0     C 8345   2.534   2.942   6.501  0.1072  0.3800  0.0714
   64MOL0     O 8346   2.514   3.052   6.429  0.0907 -0.2803  0.5962
   64MOL0     C 8347   2.421   3.047   6.321  1.6129  0.0747 -0.3202
   64MOL0     C 8348   2.473   3.052   6.188  0.0998 -0.2772 -0.5065
   64MOL0     C 8349   2.387   3.055   6.076  0.3043  0.1218 -0.0798
   64MOL0     C 8350   2.246   3.073   6.101  0.7211  0.4405 -0.7102
   64MOL0     O 8351   2.175   3.104   5.980 -0.1470  0.4942 -0.5268
   64MOL0     C 8352   2.036   3.087   5.980 -0.6715 -0.8977  0.0030
   64MOL0     C 8353   1.981   3.055   5.844  0.1929  0.4609  0.5012
   64MOL0     C 8354   1.826   3.005   5.844  0.4904  0.5346 -0.1657
   64MOL0     C 8355   1.783   2.984   5.698 -0.9100 -0.1923  0.7257
   64MOL0     C 8356   1.638   2.940   5.679  0.6138 -0.2995  0.1399
   64MOL0     C 8357   1.585   2.964   5.533  0.6446 -0.0409  0.5797
   64MOL0     C 8358   1.443   2.913   5.504  0.2506 -0.0174  0.4245
   64MOL0     C 8359   1.405   2.770   5.549  0.1695  0.1465  0.1519
   64MOL0    Cl 8360   1.244   2.722   5.463  0.3627 -0.3143  0.0069
   64MOL0     C 8361   2.188   3.066   6.232  0.0201  0.0672  0.9162
   64MOL0     C 8362   2.278   3.049   6.341  0.8226 -0.2834 -0.2336
   64MOL0     O 8363   2.485   2.832   6.474 -0.1884  0.8141 -0.4324
   64MOL0     C 8364   2.707   3.069   6.636 -0.2737  0.3727 -0.3102
   64MOL0     C 8365   2.807   3.064   6.735 -0.3199  0.1211  0.9466
   64MOL0     N 8366   3.501   2.884   7.150  0.3976  0.2853  0.0391
   64MOL0     N 8367   3.580   2.981   7.164  0.2631  0.9026 -1.1495
   64MOL0     C 8368   4.669   3.181   7.577 -0.0278 -0.3356  0.3248
   64MOL0     C 8369   4.782   3.152   7.652 -1.2689  0.0486 -1.1381
   64MOL0     C 8370   5.219   3.068   7.693 -0.1563 -0.0579 -0.3262
   64MOL0     C 8371   5.224   3.025   7.832 -0.0132  0.5049  0.5603
   64MOL0     C 8372   5.347   3.022   7.897 -0.9594 -0.0999  0.2681
   64MOL0     C 8373   5.462   3.032   7.833  0.3460 -0.6659  0.0553
   64MOL0     O 8374   5.574   3.031   7.911  0.0660 -0.1416  0.1996
   64MOL0     C 8375   5.703   3.033   7.855 -0.5110  0.0312 -0.0476
   64MOL0     C 8376   5.807   2.974   7.955 -0.4878  0.2985  0.1094
   64MOL0     C 8377   5.957   2.988   7.904 -0.2143  0.2678 -0.1820
   64MOL0     C 8378   5.991   2.907   7.779 -1.1075 -0.3486 -0.1315
   64MOL0     C 8379   5.989   2.762   7.803 -0.8771 -0.5953  0.0863
   64MOL0     C 8380   5.984   2.641   7.813 -0.4127 -0.0798 -0.3365
   64MOL0     C 8381   5.458   3.068   7.692 -0.2535 -0.7218 -0.4390
   64MOL0     C 8382   5.333   3.102   7.628 -0.2968 -0.2055 -0.0233
   64MOL0     H 8383   4.876   2.857   7.493 -0.5620 -0.1145 -1.8945
   64MOL0     H 8384   4.665   2.896   7.390 -1.3278  0.2607  0.4662
   64MOL0     H 8385   4.468   3.307   7.400  3.0335 -2.3285 -0.8167
   64MOL0     H 8386   4.392   3.218   7.530 -1.4474  1.2040 -0.0295
   64MOL0     H 8387   4.231   3.106   7.402 -0.3272  2.6459  2.8537
   64MOL0     H 8388   4.327   3.126   7.257 -0.4152 -0.3681  0.1843
   64MOL0     H 8389   4.259   3.371   7.255 -0.1572 -1.0951 -1.3587
   64MOL0     H 8390   4.142   3.328   7.392 -0.2229 -0.6459  0.2047
   64MOL0     H 8391   4.168   3.204   7.115  2.6484 -0.5467  0.9240
   64MOL0     H 8392   4.062   3.141   7.235  1.1581 -1.1805  0.0924
   64MOL0     H 8393   4.059   3.417   7.107  1.1593  1.7151  2.9404
   64MOL0     H 8394   3.943   3.382   7.238 -0.1786  1.1163 -1.8825
   64MOL0     H 8395   3.970   3.202   7.001  0.9635 -2.1171  3.3042
   64MOL0     H 8396   3.874   3.348   6.987 -0.3447  1.1506  1.8832
   64MOL0     H 8397   3.836   3.112   7.176  1.6102 -1.1285 -1.9608
   64MOL0     H 8398   3.729   3.257   7.178 -1.0573  0.2235 -1.7272
   64MOL0     H 8399   3.766   3.087   6.936 -0.3681  0.9583 -0.6296
   64MOL0     H 8400   3.674   3.230   6.944  3.3556  1.4779 -0.0041
   64MOL0     H 8401   3.496   3.030   6.859 -0.6416 -1.9420  0.4819
   64MOL0     H 8402   3.356   2.717   7.011 -1.4396 -0.6000 -0.1089
   64MOL0     H 8403   3.351   2.800   6.855 -1.6866 -0.4403 -0.3617
   64MOL0     H 8404   3.196   2.969   6.911 -1.5384  0.2430 -0.7690
   64MOL0     H 8405   3.194   2.929   7.083 -0.7552 -0.9067 -0.3911
   64MOL0     H 8406   3.090   2.758   6.857 -0.0833  1.0084  0.3780
   64MOL0     H 8407   3.085   2.711   7.032 -1.2841 -2.0017 -2.0029
   64MOL0     H 8408   2.971   2.916   7.083 -0.6006  1.6752 -0.3790
   64MOL0     H 8409   2.880   2.787   6.995  0.8802  0.0505  1.3445
   64MOL0     H 8410   2.797   2.730   6.803  0.9345  0.6148 -1.6194
   64MOL0     H 8411   2.633   2.733   6.637  0.9647  0.2124  0.6810
   64MOL0     H 8412   2.580   3.041   6.173 -0.0441  0.7755 -2.6007
   64MOL0     H 8413   2.430   3.056   5.976 -1.8223 -0.5694 -1.0659
   64MOL0     H 8414   1.996   3.178   6.025  0.8880 -0.2134  0.0736
   64MOL0     H 8415   2.005   2.996   6.032 -5.2845 -0.0397 -0.7871
   64MOL0     H 8416   2.040   2.968   5.814  0.0899  0.1925  1.0716
   64MOL0     H 8417   2.000   3.135   5.771  0.4721 -1.0100 -1.0865
   64MOL0     H 8418   1.765   3.079   5.897 -0.7772  0.0694 -0.9463
   64MOL0     H 8419   1.812   2.914   5.902 -0.7487 -0.5049 -2.0002
   64MOL0     H 8420   1.799   3.079   5.647  2.9184  0.3050  2.5410
   64MOL0     H 8421   1.843   2.905   5.652 -3.1923 -0.9801 -1.1012
   64MOL0     H 8422   1.579   2.985   5.759  0.7400 -1.2888  0.8013
   64MOL0     H 8423   1.646   2.832   5.691  2.7778 -0.1414  0.4331
   64MOL0     H 8424   1.655   2.920   5.462  0.2910  0.8767 -0.3629
   64MOL0     H 8425   1.589   3.072   5.518 -0.8852  0.4934  3.3053
   64MOL0     H 8426   1.370   2.973   5.559 -0.1976 -1.0576  1.0018
   64MOL0     H 8427   1.418   2.911   5.398 -1.3351  0.4055  0.7624
   64MOL0     H 8428   1.382   2.770   5.656  0.2236  0.7612  0.1673
   64MOL0     H 8429   1.475   2.694   5.514  2.5517  2.1973  0.1375
   64MOL0     H 8430   2.081   3.078   6.239  0.1472  0.8924  1.5295
   64MOL0     H 8431   2.248   3.054   6.445  0.7634 -2.1294 -0.1264
   64MOL0     H 8432   2.687   3.162   6.583 -0.1763 -0.7374 -2.3919
   64MOL0     H 8433   2.871   3.147   6.765  1.1587 -1.0409  1.1408
   64MOL0     H 8434   4.632   3.283   7.588 -2.6675 -1.1630 -0.0918
   64MOL0     H 8435   4.822   3.222   7.724 -0.4775 -3.7149  2.4554
   64MOL0     H 8436   5.128   3.006   7.877 -0.5979 -1.9043 -1.4429
   64MOL0     H 8437   5.356   2.992   8.001  1.4292  2.6837  1.0069
   64MOL0     H 8438   5.727   3.131   7.815  0.1322  0.4396  1.2769
   64MOL0     H 8439   5.692   2.964   7.771  0.1416 -0.7938  0.5298
   64MOL0     H 8440   5.805   3.024   8.053 -1.7074  0.8482 -0.1782
   64MOL0     H 8441   5.770   2.873   7.973 -2.7425  0.5325 -2.5673
   64MOL0     H 8442   6.028   2.949   7.978 -0.2486 -2.9189 -1.6550
   64MOL0     H 8443   5.985   3.093   7.891 -0.3177  0.2281 -0.7564
   64MOL0     H 8444   5.915   2.933   7.706  0.2064  0.3184 -1.3158
   64MOL0     H 8445   6.092   2.929   7.742 -0.3093 -1.2149  1.4136
   64MOL0     H 8446   5.972   2.535   7.821  4.1800 -0.9055 -1.4615
   64MOL0     H 8447   5.548   3.084   7.634  0.0109  1.1429  0.4225
   64MOL0     H 8448   5.325   3.145   7.529 -2.0070  3.3990  1.4932
   65MOL0     O 8449   6.824   2.793   3.361  0.1578 -0.2631 -0.3285
   65MOL0     C 8450   6.838   2.720   3.457  0.6953  0.0389 -0.0507
   65MOL0     O 8451   6.768   2.608   3.476 -0.1481 -0.6901  0.3958
   65MOL0     C 8452   6.668   2.587   3.393  0.0296 -0.0045  0.2511
   65MOL0     C 8453   6.552   2.665   3.373 -0.4529  0.5896 -0.9276
   65MOL0     C 8454   6.450   2.629   3.282  0.2254  0.1052  0.0196
   65MOL0     C 8455   6.467   2.505   3.218  1.0745 -0.2357 -0.6684
   65MOL0     O 8456   6.384   2.458   3.119 -0.1251 -0.9596 -0.0406
   65MOL0     C 8457   6.245   2.491   3.116  0.0353  0.4238  0.2240
   65MOL0     C 8458   6.182   2.401   3.218 -0.1020 -0.0495 -0.2400
   65MOL0     C 8459   6.027   2.416   3.226 -0.0479  0.0685  0.7630
   65MOL0     C 8460   5.947   2.308   3.308 -0.7021  0.4222  0.0005
   65MOL0     C 8461   5.798   2.301   3.271 -0.4386 -0.1234  0.2146
   65MOL0     C 8462   5.760   2.235   3.137 -0.3893  0.3852 -0.2424
   65MOL0     C 8463   5.609   2.224   3.124  0.1282  0.0052 -0.3654
   65MOL0     C 8464   5.539   2.140   3.224 -0.7144 -0.0136  0.3316
   65MOL0     N 8465   5.396   2.135   3.198  0.4738 -0.1744 -0.4692
   65MOL0     C 8466   5.299   2.212   3.252  0.3168  0.2898 -0.5106
   65MOL0     C 8467   5.171   2.157   3.224  0.0311  0.3746  0.3449
   65MOL0     C 8468   5.038   2.210   3.271  0.3997  0.3880 -1.2622
   65MOL0     C 8469   5.030   2.300   3.394 -0.9852 -0.3738  0.3268
   65MOL0     C 8470   4.915   2.393   3.382 -0.0806 -0.2962  0.3287
   65MOL0     C 8471   4.779   2.335   3.405 -0.2231 -0.0913 -0.5737
   65MOL0     O 8472   4.686   2.442   3.430  0.0430 -0.1474  0.1545
   65MOL0     C 8473   4.551   2.418   3.450 -0.6807 -0.0025 -0.2510
   65MOL0     C 8474   4.474   2.539   3.456  0.9828  0.4022  0.8357
   65MOL0     C 8475   4.344   2.535   3.499 -0.0767  0.0245  0.1755
   65MOL0     C 8476   4.300   2.408   3.538  0.7384  0.6708  0.0596
   65MOL0     C 8477   4.162   2.403   3.599  0.3296 -0.1451  0.2634
   65MOL0     O 8478   4.133   2.284   3.658  0.5013 -0.0595  0.3534
   65MOL0     C 8479   4.001   2.261   3.696 -0.0201  0.2337 -1.3901
   65MOL0     C 8480   3.887   2.301   3.625 -0.6316  0.3232 -0.6753
   65MOL0     C 8481   3.762   2.274   3.671  0.0916 -0.5855 -0.8486
   65MOL0     C 8482   3.751   2.191   3.783 -0.0381  0.7932  0.3651
   65MOL0     O 8483   3.635   2.157   3.843 -0.1346  0.5047  0.8825
   65MOL0     C 8484   3.518   2.151   3.756  0.3366  0.2779 -0.3582
   65MOL0     C 8485   3.406   2.096   3.835 -1.1286 -0.3794 -0.2059
   65MOL0     C 8486   3.269   2.126   3.762  0.6519 -0.2013  0.2745
   65MOL0     C 8487   3.160   2.091   3.858  1.2936  0.5646  0.3431
   65MOL0     C 8488   3.029   2.114   3.778  1.2840 -0.2653  0.6026
   65MOL0     C 8489   2.902   2.065   3.857  0.8625  1.0416 -0.9611
   65MOL0     C 8490   2.790   2.068   3.760  0.4224  0.0599 -0.0994
   65MOL0     C 8491   2.660   2.066   3.848 -0.3944  0.2706  0.3023
   65MOL0    Cl 8492   2.651   1.925   3.952 -0.2873 -0.0236  0.3022
   65MOL0     C 8493   3.861   2.136   3.851  0.1497  0.0531  0.1681
   65MOL0     C 8494   3.989   2.183   3.811  0.1745  1.2156 -0.3612
   65MOL0     O 8495   4.095   2.506   3.602 -0.4981  0.6070 -0.1602
   65MOL0     C 8496   4.371   2.288   3.519 -0.1327  0.1759  0.1893
   65MOL0     C 8497   4.498   2.302   3.478  1.0741  0.5301 -0.2749
   65MOL0     N 8498   5.201   2.048   3.155  0.1731  1.0026  0.6663
   65MOL0     N 8499   5.327   2.037   3.140  0.1999 -0.0759  0.4700
   65MOL0     C 8500   6.575   2.427   3.244 -0.5770  0.2370  1.2882
   65MOL0     C 8501   6.675   2.465   3.329  0.2748 -0.5393 -0.6621
   65MOL0     C 8502   6.953   2.753   3.544  0.2249  1.0044 -0.3438
   65MOL0     C 8503   6.966   2.692   3.673  1.2990  0.3124 -0.4954
   65MOL0     C 8504   7.067   2.733   3.754  0.2713 -0.6354  1.1297
   65MOL0     C 8505   7.155   2.840   3.719  0.6485  0.7783 -0.9988
   65MOL0     O 8506   7.244   2.865   3.816 -0.6354  0.4613  0.2947
   65MOL0     C 8507   7.336   2.981   3.791 -0.3774  0.0394  0.2088
   65MOL0     C 8508   7.338   3.088   3.900 -0.5526 -0.2493  0.2824
   65MOL0     C 8509   7.416   3.222   3.860 -0.6264  0.8657  0.4325
   65MOL0     C 8510   7.416   3.322   3.976  0.4809  0.5133  1.2829
   65MOL0     C 8511   7.285   3.387   3.969 -0.2582 -0.1477  0.7402
   65MOL0     C 8512   7.195   3.469   3.975 -0.8411 -0.1095 -0.0203
   65MOL0     C 8513   7.152   2.884   3.586  0.5843 -0.7215  0.1842
   65MOL0     C 8514   7.048   2.847   3.501  1.0834 -0.4345  0.0422
   65MOL0     H 8515   6.549   2.758   3.427 -3.1706  0.8491 -1.3985
   65MOL0     H 8516   6.368   2.697   3.262  1.0599  1.2396  0.3673
   65MOL0     H 8517   6.204   2.480   3.015  1.1900  3.0160 -0.5859
   65MOL0     H 8518   6.218   2.594   3.142 -2.3143  0.9895 -3.6189
   65MOL0     H 8519   6.222   2.424   3.317 -1.6361  5.4709 -0.5436
   65MOL0     H 8520   6.204   2.296   3.195  2.7317  0.0819  1.4397
   65MOL0     H 8521   5.989   2.408   3.123 -0.9331  2.7071  0.8173
   65MOL0     H 8522   5.997   2.517   3.254 -0.1777  0.5921 -1.1208
   65MOL0     H 8523   5.996   2.211   3.296  1.0393  1.5602 -3.4064
   65MOL0     H 8524   5.950   2.328   3.416  0.0528  0.2705  0.0121
   65MOL0     H 8525   5.744   2.396   3.271 -3.0286 -1.4603  1.9282
   65MOL0     H 8526   5.758   2.242   3.354 -0.1660 -0.1061  0.3574
   65MOL0     H 8527   5.808   2.138   3.121 -1.2208 -0.1789  0.5892
   65MOL0     H 8528   5.779   2.294   3.047 -1.9164 -1.3415 -1.7648
   65MOL0     H 8529   5.574   2.326   3.108  1.2652  0.3159 -0.9435
   65MOL0     H 8530   5.593   2.179   3.026  1.0465 -2.2198  0.4293
   65MOL0     H 8531   5.545   2.184   3.324 -0.0507 -2.9530  1.6896
   65MOL0     H 8532   5.595   2.047   3.236 -1.9367 -0.4516  4.4705
   65MOL0     H 8533   5.318   2.292   3.322  0.6050 -2.1256  2.3868
   65MOL0     H 8534   4.975   2.125   3.297  0.8447  0.2674 -0.5521
   65MOL0     H 8535   4.984   2.252   3.186  0.1023 -0.2124 -1.3748
   65MOL0     H 8536   5.121   2.360   3.406 -1.5015  0.3218  0.8200
   65MOL0     H 8537   5.021   2.226   3.474  0.2754  1.0125  1.8370
   65MOL0     H 8538   4.929   2.471   3.458  2.9806 -1.5408  1.1828
   65MOL0     H 8539   4.918   2.443   3.284  2.2413  2.6076  1.7085
   65MOL0     H 8540   4.798   2.289   3.502 -1.7729  0.5630  0.0757
   65MOL0     H 8541   4.747   2.265   3.327  1.3885 -1.7015  0.1456
   65MOL0     H 8542   4.522   2.632   3.424 -0.6926  0.8313 -0.5904
   65MOL0     H 8543   4.296   2.628   3.530  0.6931  0.9894 -1.4039
   65MOL0     H 8544   3.902   2.357   3.533  0.6257  0.4216 -0.4283
   65MOL0     H 8545   3.669   2.308   3.626 -0.8195 -1.8247  0.0418
   65MOL0     H 8546   3.538   2.102   3.661  0.4257  0.9910 -0.7120
   65MOL0     H 8547   3.492   2.252   3.723 -0.9985  0.6709  1.6690
   65MOL0     H 8548   3.406   2.158   3.926 -2.1955  0.0993 -0.5129
   65MOL0     H 8549   3.412   1.989   3.854  1.4850 -0.3985 -0.7122
   65MOL0     H 8550   3.265   2.063   3.673 -0.0609 -1.3670  1.1058
   65MOL0     H 8551   3.255   2.228   3.724 -0.3787 -0.7763 -0.9622
   65MOL0     H 8552   3.152   1.983   3.874  0.3079  0.1994 -2.2213
   65MOL0     H 8553   3.152   2.138   3.957 -1.5884 -0.3196  0.6537
   65MOL0     H 8554   3.035   2.059   3.684  0.3437 -2.1834  1.6220
   65MOL0     H 8555   3.027   2.222   3.759 -0.0205  0.0873  2.5096
   65MOL0     H 8556   2.868   2.121   3.944 -3.4640 -1.0369 -1.0915
   65MOL0     H 8557   2.914   1.960   3.887  1.5241  1.8952  2.1951
   65MOL0     H 8558   2.787   2.160   3.701 -3.4246 -0.0448 -0.3233
   65MOL0     H 8559   2.792   1.978   3.697  4.1658 -0.2148  0.1782
   65MOL0     H 8560   2.576   2.066   3.778  1.2130 -0.7496 -1.7484
   65MOL0     H 8561   2.670   2.154   3.912  3.6432  1.9364 -2.2872
   65MOL0     H 8562   3.856   2.083   3.945 -1.5114 -2.1268 -1.0583
   65MOL0     H 8563   4.079   2.145   3.859  0.2205  1.1898 -0.4694
   65MOL0     H 8564   4.337   2.190   3.551  1.8596 -1.6356 -2.7447
   65MOL0     H 8565   4.560   2.213   3.469  2.5383  1.3081  1.4639
   65MOL0     H 8566   6.571   2.332   3.192  0.4903  0.4742  0.7533
   65MOL0     H 8567   6.762   2.412   3.368  0.8291  3.0507  3.9100
   65MOL0     H 8568   6.895   2.618   3.706 -0.9434  2.2583 -0.7159
   65MOL0     H 8569   7.070   2.682   3.850 -1.7995 -2.1273  0.4730
   65MOL0     H 8570   7.314   3.033   3.697  3.8338 -0.8522 -1.4725
   65MOL0     H 8571   7.433   2.931   3.794  0.0412  0.8064 -0.1037
   65MOL0     H 8572   7.232   3.111   3.914 -0.7285 -0.9826  0.2010
   65MOL0     H 8573   7.373   3.059   4.000 -0.0697  1.7974  0.7543
   65MOL0     H 8574   7.372   3.267   3.770  1.4293  0.4374 -0.8576
   65MOL0     H 8575   7.522   3.196   3.862 -0.5363  1.1998  3.1940
   65MOL0     H 8576   7.432   3.278   4.075  1.1075 -0.7999  0.6211
   65MOL0     H 8577   7.489   3.401   3.956 -0.5209  1.7974  2.4703
   65MOL0     H 8578   7.109   3.530   3.994 -0.7221  0.2193 -0.5019
   65MOL0     H 8579   7.237   2.937   3.545  3.2927 -0.9300  4.7703
   65MOL0     H 8580   7.051   2.895   3.403  0.3888 -1.0772 -0.3050
   66MOL0     O 8581   8.473   8.432   2.539  0.1192  0.5132  0.1182
   66MOL0     C 8582   8.540   8.437   2.644  0.0319 -0.6522 -0.0620
   66MOL0     O 8583   8.503   8.502   2.754  0.2245 -0.8364  0.1183
   66MOL0     C 8584   8.368   8.542   2.772  0.8750 -0.5713 -0.6923
   66MOL0     C 8585   8.320   8.531   2.900 -0.4623  0.0803 -1.0783
   66MOL0     C 8586   8.179   8.560   2.918 -0.3545  0.2812  0.2044
   66MOL0     C 8587   8.088   8.591   2.819 -0.4939 -0.2261  0.3224
   66MOL0     O 8588   7.959   8.593   2.848  0.8048  0.3416 -0.2860
   66MOL0     C 8589   7.920   8.721   2.905  0.5656 -0.3751 -0.6408
   66MOL0     C 8590   7.794   8.703   2.988  0.0641 -0.0889  0.9357
   66MOL0     C 8591   7.667   8.683   2.903  0.0511  0.1359 -0.0256
   66MOL0     C 8592   7.561   8.624   3.007 -0.8674 -0.2426 -1.0549
   66MOL0     C 8593   7.416   8.642   2.979 -0.1993 -0.5135  0.8867
   66MOL0     C 8594   7.319   8.598   3.091  0.2373  0.2288 -0.5439
   66MOL0     C 8595   7.185   8.680   3.091  0.0094 -0.0153  0.4571
   66MOL0     C 8596   7.125   8.649   3.237  0.4252 -0.2273 -1.1007
   66MOL0     N 8597   6.988   8.708   3.246  0.0571 -0.0565  0.0516
   66MOL0     C 8598   6.862   8.641   3.235 -0.5661 -0.4692  0.7024
   66MOL0     C 8599   6.773   8.737   3.270  0.1859 -0.2313  0.6005
   66MOL0     C 8600   6.623   8.721   3.284 -0.0189 -0.3470 -0.7398
   66MOL0     C 8601   6.569   8.788   3.409 -0.5981  0.0569  0.2407
   66MOL0     C 8602   6.596   8.685   3.526  0.5732 -0.2092  0.1709
   66MOL0     C 8603   6.481   8.678   3.625 -0.5047  0.4112  0.1132
   66MOL0     O 8604   6.536   8.604   3.733  0.6459  0.0549  0.4221
   66MOL0     C 8605   6.449   8.566   3.830  0.5013 -0.2325  0.1193
   66MOL0     C 8606   6.495   8.528   3.955 -0.8752 -0.2797  0.3714
   66MOL0     C 8607   6.418   8.489   4.060 -0.3460 -0.4683  0.1877
   66MOL0     C 8608   6.279   8.504   4.042 -0.3300  0.2515  0.3451
   66MOL0     C 8609   6.185   8.476   4.154  0.5300 -0.4660 -1.0144
   66MOL0     O 8610   6.057   8.509   4.133 -0.4793 -0.2851 -0.0838
   66MOL0     C 8611   5.964   8.506   4.243 -1.0840  0.3577  0.0945
   66MOL0     C 8612   5.904   8.625   4.283 -0.0122 -0.2243  0.0412
   66MOL0     C 8613   5.821   8.636   4.398 -0.0134  0.3399 -0.5959
   66MOL0     C 8614   5.791   8.521   4.461 -0.1024  1.0732  0.1060
   66MOL0     O 8615   5.709   8.529   4.566 -0.0166 -0.3055 -0.1561
   66MOL0     C 8616   5.570   8.481   4.549  0.4025 -0.1153  0.0791
   66MOL0     C 8617   5.475   8.590   4.499 -0.2345  0.8469  0.2720
   66MOL0     C 8618   5.326   8.557   4.499 -0.7292  0.1909 -0.0484
   66MOL0     C 8619   5.292   8.455   4.386  0.7758  0.2890  0.6236
   66MOL0     C 8620   5.140   8.436   4.379 -0.4584  0.7765  0.5344
   66MOL0     C 8621   5.094   8.350   4.270  0.5017 -0.4067  0.4020
   66MOL0     C 8622   4.932   8.344   4.269 -0.2975 -0.2228  0.1002
   66MOL0     C 8623   4.883   8.279   4.147  0.4140  0.4375  0.1165
   66MOL0    Cl 8624   4.896   8.112   4.159  0.6359  0.2440 -0.3969
   66MOL0     C 8625   5.844   8.394   4.416  0.9640 -0.8206 -0.4823
   66MOL0     C 8626   5.932   8.386   4.318 -0.0948 -0.5873  0.0216
   66MOL0     O 8627   6.230   8.434   4.260  0.3878 -0.1835  0.7585
   66MOL0     C 8628   6.226   8.559   3.928  0.0756  0.1011  0.5257
   66MOL0     C 8629   6.307   8.590   3.820  0.8995  1.2445  0.1901
   66MOL0     N 8630   6.845   8.846   3.324 -0.0462  0.3441 -0.0871
   66MOL0     N 8631   6.968   8.826   3.313 -1.3235 -0.0785  0.3278
   66MOL0     C 8632   8.137   8.616   2.692 -0.2520  0.6571  0.1327
   66MOL0     C 8633   8.281   8.590   2.673  0.0127  0.5021  0.6757
   66MOL0     C 8634   8.675   8.378   2.641  0.4785  0.0215 -0.3746
   66MOL0     C 8635   8.734   8.304   2.545  0.3836 -0.1339 -0.0417
   66MOL0     C 8636   8.852   8.232   2.565  0.5234 -0.5187  0.7245
   66MOL0     C 8637   8.914   8.236   2.691 -0.3732  0.0161  0.2464
   66MOL0     O 8638   9.028   8.165   2.723  0.5562  0.0017 -0.1654
   66MOL0     C 8639   9.074   8.064   2.631  0.0380 -0.3739 -0.0121
   66MOL0     C 8640   9.196   7.992   2.696 -1.0410 -0.0234 -0.0101
   66MOL0     C 8641   9.228   7.863   2.616  0.2249 -0.1880 -0.0181
   66MOL0     C 8642   9.361   7.798   2.646 -0.5617  0.1325 -0.2997
   66MOL0     C 8643   9.465   7.827   2.545 -0.0333  0.6411  0.7527
   66MOL0     C 8644   9.534   7.840   2.444  0.6030 -0.8271 -0.6010
   66MOL0     C 8645   8.868   8.324   2.787  0.6930  0.7022  0.7523
   66MOL0     C 8646   8.745   8.398   2.766  0.0156 -0.0526 -0.0946
   66MOL0     H 8647   8.389   8.505   2.979 -1.3825 -1.9655 -0.8789
   66MOL0     H 8648   8.137   8.553   3.019 -1.3552 -4.0950 -0.2994
   66MOL0     H 8649   7.908   8.793   2.824 -0.1718 -1.0929 -1.1944
   66MOL0     H 8650   8.000   8.752   2.972 -0.4012 -1.1962  0.9608
   66MOL0     H 8651   7.776   8.800   3.034 -3.3744  0.8267 -1.8336
   66MOL0     H 8652   7.811   8.623   3.061 -1.6332  0.3199  1.8302
   66MOL0     H 8653   7.692   8.611   2.825  0.3906  0.0882  0.1231
   66MOL0     H 8654   7.635   8.778   2.859  0.2269  0.4458  0.5058
   66MOL0     H 8655   7.579   8.519   3.029 -0.4730 -0.0932 -0.6253
   66MOL0     H 8656   7.585   8.678   3.100  3.9457 -1.3600 -1.3831
   66MOL0     H 8657   7.393   8.584   2.889 -1.0514 -0.1124  0.8393
   66MOL0     H 8658   7.401   8.750   2.967  2.1827 -0.2826 -1.1327
   66MOL0     H 8659   7.364   8.624   3.187 -2.2982  3.1692  0.0080
   66MOL0     H 8660   7.294   8.491   3.097 -0.3254  0.4548  2.2321
   66MOL0     H 8661   7.206   8.784   3.067  1.6146  0.1163  2.1503
   66MOL0     H 8662   7.119   8.642   3.013 -0.7533 -0.9258  1.5026
   66MOL0     H 8663   7.182   8.703   3.313 -0.6727  4.2447 -3.1280
   66MOL0     H 8664   7.117   8.543   3.264 -2.6772  0.8259  3.3819
   66MOL0     H 8665   6.833   8.538   3.218 -2.5641  0.4542 -2.1492
   66MOL0     H 8666   6.582   8.620   3.281  0.4215 -0.5631  0.1713
   66MOL0     H 8667   6.590   8.773   3.194 -0.3000 -2.1998 -1.7536
   66MOL0     H 8668   6.464   8.799   3.381  0.4118  1.9260 -3.3773
   66MOL0     H 8669   6.613   8.882   3.443 -1.0451  0.3768 -0.0458
   66MOL0     H 8670   6.625   8.585   3.494  0.9775 -0.1413  0.3162
   66MOL0     H 8671   6.683   8.733   3.572 -1.5897  2.3219  1.9295
   66MOL0     H 8672   6.403   8.617   3.579  0.1170 -0.7175  0.5157
   66MOL0     H 8673   6.448   8.780   3.650 -1.9714  0.7017 -2.6147
   66MOL0     H 8674   6.602   8.512   3.967 -0.7205 -0.3026 -0.8773
   66MOL0     H 8675   6.473   8.452   4.146 -0.2429  1.1603  0.8577
   66MOL0     H 8676   5.921   8.719   4.230 -2.2073  1.3274  1.8998
   66MOL0     H 8677   5.789   8.734   4.433  0.3099  1.1763 -2.5330
   66MOL0     H 8678   5.532   8.446   4.645 -0.6301  0.6413 -0.0370
   66MOL0     H 8679   5.567   8.394   4.482  1.1510 -2.0374  2.3950
   66MOL0     H 8680   5.511   8.615   4.399 -2.9889  2.3078 -0.4528
   66MOL0     H 8681   5.480   8.678   4.564 -1.0423 -0.2752  1.9290
   66MOL0     H 8682   5.271   8.651   4.490 -2.4754 -0.7035  0.6513
   66MOL0     H 8683   5.296   8.522   4.599  0.4091  0.5626  0.4452
   66MOL0     H 8684   5.321   8.500   4.291 -2.6497  0.5916 -0.4049
   66MOL0     H 8685   5.337   8.356   4.399  0.6049 -0.4279 -3.0077
   66MOL0     H 8686   5.098   8.535   4.358  0.2677  1.0720  0.4445
   66MOL0     H 8687   5.097   8.402   4.473 -1.7195  1.3938  0.2061
   66MOL0     H 8688   5.132   8.248   4.278  0.7890 -0.2496  1.1224
   66MOL0     H 8689   5.121   8.391   4.172  0.6402 -1.4107  0.0109
   66MOL0     H 8690   4.893   8.294   4.358  0.6311 -0.1504  0.5649
   66MOL0     H 8691   4.898   8.448   4.268 -0.6072 -0.3223  0.2447
   66MOL0     H 8692   4.939   8.307   4.057  0.1197 -3.1629 -1.3736
   66MOL0     H 8693   4.783   8.316   4.124  0.2390 -0.3134 -0.3804
   66MOL0     H 8694   5.813   8.305   4.471 -0.2201 -0.7321 -0.9683
   66MOL0     H 8695   5.969   8.291   4.280 -0.8628 -0.6895 -0.5082
   66MOL0     H 8696   6.122   8.591   3.919 -0.0088 -0.0554  0.9505
   66MOL0     H 8697   6.270   8.625   3.724  0.6150 -1.3484 -0.7263
   66MOL0     H 8698   8.079   8.657   2.610  0.6630  0.5908 -0.5621
   66MOL0     H 8699   8.315   8.605   2.571 -0.6896 -0.6593  0.2492
   66MOL0     H 8700   8.681   8.291   2.451  4.0715 -0.5289 -2.2764
   66MOL0     H 8701   8.895   8.165   2.491  2.5131 -1.1699  2.3623
   66MOL0     H 8702   9.115   8.115   2.543  0.6951  2.6068  1.8866
   66MOL0     H 8703   8.995   7.992   2.607  0.8749 -1.3199  0.0199
   66MOL0     H 8704   9.279   8.063   2.702 -0.3216 -0.9362  1.1929
   66MOL0     H 8705   9.169   7.972   2.800  0.9098 -1.4060  0.2984
   66MOL0     H 8706   9.227   7.895   2.511 -2.5808  1.4933  0.4332
   66MOL0     H 8707   9.148   7.790   2.625 -0.5431  0.9086  3.1818
   66MOL0     H 8708   9.388   7.824   2.748 -1.5626  1.6557 -0.3976
   66MOL0     H 8709   9.340   7.690   2.649  0.4696 -0.1077  3.5743
   66MOL0     H 8710   9.604   7.865   2.367  1.3147 -1.0094 -0.0232
   66MOL0     H 8711   8.916   8.358   2.879 -0.9482  2.1972  1.1216
   66MOL0     H 8712   8.725   8.456   2.855 -0.1142 -0.2149 -0.0184
   67MOL0     O 8713   2.098   8.612   5.729 -0.2602 -0.3469  0.0377
   67MOL0     C 8714   2.170   8.609   5.830  0.1267  0.3769  0.2520
   67MOL0     O 8715   2.141   8.545   5.945  0.2941  0.4926 -0.7033
   67MOL0     C 8716   2.017   8.502   5.971 -0.4855 -1.2186 -0.2093
   67MOL0     C 8717   1.910   8.583   5.958  0.3086  0.5656  0.4572
   67MOL0     C 8718   1.779   8.540   5.994 -0.8448 -0.2919  0.5089
   67MOL0     C 8719   1.763   8.404   6.042 -0.3911  0.2981  0.0715
   67MOL0     O 8720   1.644   8.345   6.096 -0.2823 -0.7426  0.4924
   67MOL0     C 8721   1.540   8.437   6.126 -0.1318 -0.1876  0.5654
   67MOL0     C 8722   1.428   8.354   6.175 -0.1119  0.0265  0.8169
   67MOL0     C 8723   1.287   8.430   6.178 -0.2053  0.8709  0.2198
   67MOL0     C 8724   1.170   8.336   6.222 -1.0593 -0.1346 -0.5535
   67MOL0     C 8725   1.036   8.402   6.197  0.5921 -0.4483  0.3953
   67MOL0     C 8726   0.927   8.301   6.242 -0.6621  0.6217  0.3947
   67MOL0     C 8727   0.792   8.318   6.187  0.3175  0.0403  0.4195
   67MOL0     C 8728   0.719   8.184   6.166 -0.8521  0.2297 -0.4977
   67MOL0     N 8729   0.578   8.176   6.120 -0.2730 -0.1079  0.5889
   67MOL0     C 8730   0.498   8.063   6.109 -0.2517  0.4694 -0.3639
   67MOL0     C 8731   0.394   8.083   6.029  0.4726 -0.9201  0.4030
   67MOL0     C 8732   0.281   7.995   5.981  0.3548  0.3115 -0.4900
   67MOL0     C 8733   0.144   8.043   6.035 -0.3482  0.1218  0.3134
   67MOL0     C 8734   0.041   7.939   6.028 -0.0440 -0.0688  0.2935
   67MOL0     C 8735   0.004   7.902   5.883 -0.0089  0.1173 -0.7006
   67MOL0     O 8736  -0.109   7.986   5.833 -0.1817  0.3056 -0.1143
   67MOL0     C 8737  -0.242   7.956   5.868  0.0068 -0.0254  0.0141
   67MOL0     C 8738  -0.291   7.834   5.920 -1.1548 -0.0994  0.2773
   67MOL0     C 8739  -0.428   7.812   5.936 -0.2429  0.2476  0.3973
   67MOL0     C 8740  -0.520   7.905   5.887  0.3123 -0.1052  0.3329
   67MOL0     C 8741  -0.664   7.875   5.890 -0.2915  0.6852  0.3773
   67MOL0     O 8742  -0.753   7.966   5.915  0.3285 -0.3801  0.5625
   67MOL0     C 8743  -0.886   7.929   5.914 -0.8333 -0.7539  0.2994
   67MOL0     C 8744  -0.963   7.960   5.805 -0.8697  0.3457 -0.1856
   67MOL0     C 8745  -1.095   7.947   5.797  0.6686  1.1410  0.5265
   67MOL0     C 8746  -1.163   7.906   5.910 -0.1681  0.6955  0.0898
   67MOL0     O 8747  -1.297   7.897   5.925  0.7187  0.8183 -0.1415
   67MOL0     C 8748  -1.381   7.931   5.810  0.1771 -0.5615  0.7875
   67MOL0     C 8749  -1.532   7.930   5.845 -0.6266 -0.5330 -0.9470
   67MOL0     C 8750  -1.577   7.785   5.849 -0.1088  0.9785  0.8060
   67MOL0     C 8751  -1.721   7.773   5.891  0.0799 -0.0011 -0.1779
   67MOL0     C 8752  -1.821   7.830   5.793 -0.3152  0.7102 -0.0565
   67MOL0     C 8753  -1.972   7.787   5.817  0.1749  0.3090 -0.2766
   67MOL0     C 8754  -2.022   7.865   5.947 -0.3930  0.6506 -0.5796
   67MOL0     C 8755  -2.170   7.883   5.956 -0.3870  0.5720 -1.6626
   67MOL0    Cl 8756  -2.250   7.732   5.947  0.0136 -0.3843 -0.4811
   67MOL0     C 8757  -1.088   7.859   6.025 -0.7043 -0.8956 -0.4357
   67MOL0     C 8758  -0.944   7.873   6.022  0.3464  0.3803 -0.6611
   67MOL0     O 8759  -0.692   7.760   5.858 -0.3828 -0.1681 -0.7735
   67MOL0     C 8760  -0.475   8.031   5.842  0.2834  0.4888 -0.0185
   67MOL0     C 8761  -0.337   8.058   5.840  0.3166  0.0049 -0.0378
   67MOL0     N 8762   0.403   8.219   6.006  0.3110  0.5904 -0.7349
   67MOL0     N 8763   0.511   8.269   6.048 -0.1811 -0.3205  0.1655
   67MOL0     C 8764   1.877   8.320   6.053 -0.4389 -0.0312  0.8467
   67MOL0     C 8765   2.004   8.374   6.021  0.0684  0.1361  0.9354
   67MOL0     C 8766   2.296   8.681   5.809  0.5975 -0.0902 -0.6359
   67MOL0     C 8767   2.395   8.663   5.910  1.0123 -0.0998  0.0812
   67MOL0     C 8768   2.518   8.733   5.895  0.3046  0.0956 -0.0770
   67MOL0     C 8769   2.541   8.822   5.785 -0.6389  0.5848 -1.0271
   67MOL0     O 8770   2.653   8.893   5.764 -0.4660 -0.4066 -0.3514
   67MOL0     C 8771   2.734   8.913   5.883 -0.2334  0.3163  0.1268
   67MOL0     C 8772   2.825   9.033   5.857 -0.6416 -0.8734  0.1198
   67MOL0     C 8773   2.904   9.062   5.981 -1.0876 -0.1190  0.3670
   67MOL0     C 8774   3.000   8.948   6.034 -0.0873 -0.3402 -1.2626
   67MOL0     C 8775   3.112   8.925   5.948  0.1492  0.0117 -0.2801
   67MOL0     C 8776   3.204   8.913   5.870  0.0686  0.3396  0.3843
   67MOL0     C 8777   2.440   8.836   5.687  0.5161 -0.1208  0.1425
   67MOL0     C 8778   2.315   8.771   5.702  0.6036 -1.5072 -0.2600
   67MOL0     H 8779   1.918   8.684   5.919 -0.0618  0.4883  0.1811
   67MOL0     H 8780   1.701   8.613   5.977  0.9410  2.0423  1.6907
   67MOL0     H 8781   1.505   8.493   6.039  1.8535  0.9555  0.4549
   67MOL0     H 8782   1.578   8.516   6.192 -0.6124  0.0041  0.6177
   67MOL0     H 8783   1.441   8.316   6.277 -1.0404  0.1200  0.9742
   67MOL0     H 8784   1.413   8.268   6.110  2.5328  1.5577 -2.0915
   67MOL0     H 8785   1.269   8.484   6.085 -1.4399 -0.6009 -0.4399
   67MOL0     H 8786   1.301   8.511   6.250  1.5543  1.5868 -0.8627
   67MOL0     H 8787   1.180   8.240   6.171 -2.5623 -1.1012  0.8650
   67MOL0     H 8788   1.182   8.309   6.327 -0.9039 -3.5602 -1.3362
   67MOL0     H 8789   1.024   8.429   6.092 -1.6971 -1.7076  0.2640
   67MOL0     H 8790   1.013   8.493   6.252 -0.2665  0.6489 -1.6594
   67MOL0     H 8791   0.920   8.302   6.351  0.5936 -1.1733  0.5419
   67MOL0     H 8792   0.957   8.199   6.214 -4.0600 -0.6191  0.8444
   67MOL0     H 8793   0.723   8.380   6.245 -1.0268  0.3808 -1.4199
   67MOL0     H 8794   0.811   8.365   6.090  1.6133  0.8319  1.0403
   67MOL0     H 8795   0.725   8.122   6.256 -1.0687 -0.4711 -0.9581
   67MOL0     H 8796   0.777   8.125   6.095  0.2189 -1.1862  1.4809
   67MOL0     H 8797   0.524   7.968   6.155 -0.4263  1.0696  1.0179
   67MOL0     H 8798   0.308   7.892   6.004 -0.5036  0.5978  2.1445
   67MOL0     H 8799   0.286   7.995   5.871  0.3442 -2.0638 -0.5400
   67MOL0     H 8800   0.107   8.119   5.965  1.7999  1.5696  0.6596
   67MOL0     H 8801   0.156   8.078   6.138  4.6455  2.2827 -0.7155
   67MOL0     H 8802   0.086   7.855   6.081  2.2129 -0.2236 -1.6686
   67MOL0     H 8803  -0.058   7.961   6.069 -2.3388 -0.5152 -4.3407
   67MOL0     H 8804  -0.022   7.797   5.864 -1.3250  0.4430 -0.8497
   67MOL0     H 8805   0.092   7.927   5.824  2.0785 -0.2804  2.0427
   67MOL0     H 8806  -0.223   7.755   5.947  1.4087  1.5621 -0.9029
   67MOL0     H 8807  -0.465   7.719   5.979  0.6439 -0.6955 -0.7973
   67MOL0     H 8808  -0.895   7.977   5.723  0.0785  0.8147  0.6702
   67MOL0     H 8809  -1.147   7.979   5.708  0.7645 -3.1881 -1.3404
   67MOL0     H 8810  -1.360   7.860   5.729 -0.3307  3.2602 -3.0068
   67MOL0     H 8811  -1.364   8.036   5.786 -0.3183 -0.5901  0.3171
   67MOL0     H 8812  -1.595   7.976   5.768 -1.1037  0.5666  0.0568
   67MOL0     H 8813  -1.549   7.986   5.937  0.6254 -1.9983  0.2083
   67MOL0     H 8814  -1.508   7.729   5.912  0.1360 -2.8277 -2.4572
   67MOL0     H 8815  -1.564   7.736   5.752  3.4029  1.3044  1.0022
   67MOL0     H 8816  -1.741   7.666   5.905 -0.5831  0.2526  0.9221
   67MOL0     H 8817  -1.742   7.835   5.978 -2.3432  0.5731 -1.1142
   67MOL0     H 8818  -1.804   7.797   5.690  0.3726  1.1283 -0.0771
   67MOL0     H 8819  -1.815   7.939   5.796  1.1010  0.6296  0.5705
   67MOL0     H 8820  -1.968   7.678   5.826 -0.4112  0.2816 -0.3627
   67MOL0     H 8821  -2.030   7.805   5.727 -1.2038  0.9303  0.7069
   67MOL0     H 8822  -1.977   7.806   6.026 -0.5582 -0.8721 -1.5710
   67MOL0     H 8823  -1.976   7.963   5.941 -0.6035  0.7681 -0.2695
   67MOL0     H 8824  -2.202   7.952   5.877  0.1670  1.1636 -1.3788
   67MOL0     H 8825  -2.185   7.929   6.054  1.0965 -0.7822 -0.7554
   67MOL0     H 8826  -1.144   7.826   6.113 -1.5838  3.9480  1.1391
   67MOL0     H 8827  -0.890   7.834   6.107 -3.0814  1.6228  2.3599
   67MOL0     H 8828  -0.550   8.095   5.797 -0.0523 -0.3431 -0.6639
   67MOL0     H 8829  -0.296   8.147   5.794  2.6290 -2.3160 -2.8773
   67MOL0     H 8830   1.859   8.219   6.090 -1.2927  1.0753  3.6850
   67MOL0     H 8831   2.092   8.311   6.033 -1.5201 -2.3178  0.3404
   67MOL0     H 8832   2.371   8.601   5.997 -0.8997 -0.2420 -0.5037
   67MOL0     H 8833   2.588   8.710   5.974  0.9088  0.1813 -0.5836
   67MOL0     H 8834   2.785   8.822   5.915 -2.9232 -1.2497  0.3248
   67MOL0     H 8835   2.672   8.942   5.968 -0.3802  1.5885 -0.3890
   67MOL0     H 8836   2.897   9.015   5.777 -0.5326  0.1109 -0.0219
   67MOL0     H 8837   2.751   9.108   5.828 -2.4081 -3.3814 -2.3364
   67MOL0     H 8838   2.838   9.081   6.066 -0.7716 -0.3710  0.6711
   67MOL0     H 8839   2.967   9.147   5.950 -1.2654 -0.7667 -1.9769
   67MOL0     H 8840   3.036   8.993   6.127 -2.7663 -1.0887  0.2354
   67MOL0     H 8841   2.951   8.856   6.066  2.6620 -1.8901 -1.2391
   67MOL0     H 8842   3.280   8.904   5.796 -2.0252  0.5949 -1.9241
   67MOL0     H 8843   2.454   8.913   5.612  0.3568 -1.6473 -1.4917
   67MOL0     H 8844   2.238   8.776   5.625  0.0263 -2.4643  0.2352
   68MOL0     O 8845   0.368   0.683   0.447  0.3691  0.4562  0.3527
   68MOL0     C 8846   0.460   0.663   0.369  0.1870  1.1829 -0.3661
   68MOL0     O 8847   0.474   0.721   0.247 -0.3250  0.5666 -0.6294
   68MOL0     C 8848   0.379   0.789   0.185  0.3242 -0.3632 -0.4819
   68MOL0     C 8849   0.300   0.888   0.249  0.3016 -0.1780  0.2213
   68MOL0     C 8850   0.203   0.957   0.174 -0.0946 -0.2676 -0.4900
   68MOL0     C 8851   0.185   0.931   0.034  0.9993 -1.1012 -0.0310
   68MOL0     O 8852   0.089   1.013  -0.027 -0.8814 -0.3669  0.4338
   68MOL0     C 8853   0.028   0.965  -0.154 -0.4464  0.1396 -0.9685
   68MOL0     C 8854  -0.106   1.046  -0.203  1.0065  0.6778 -0.2177
   68MOL0     C 8855  -0.185   0.978  -0.306 -0.4688  0.1759 -0.3543
   68MOL0     C 8856  -0.301   1.060  -0.355  0.1770 -1.0359  0.1287
   68MOL0     C 8857  -0.388   0.999  -0.463  0.4276 -0.8082 -0.2134
   68MOL0     C 8858  -0.447   0.865  -0.416 -0.9122  0.1800 -0.2223
   68MOL0     C 8859  -0.551   0.823  -0.508 -0.1239 -0.3473  0.3409
   68MOL0     C 8860  -0.618   0.698  -0.450 -0.8042  0.0713  0.2024
   68MOL0     N 8861  -0.527   0.575  -0.463 -0.6227  0.0448 -0.6548
   68MOL0     C 8862  -0.421   0.553  -0.376 -0.2596  0.4857  0.6463
   68MOL0     C 8863  -0.347   0.456  -0.433  0.2275 -0.8226  0.6309
   68MOL0     C 8864  -0.228   0.392  -0.383 -0.0879 -0.3147 -0.5847
   68MOL0     C 8865  -0.126   0.342  -0.491  0.3790  0.6691 -0.4535
   68MOL0     C 8866   0.004   0.304  -0.420  0.3757 -0.0280 -0.5477
   68MOL0     C 8867   0.124   0.277  -0.516 -0.2305  0.8444  0.9968
   68MOL0     O 8868   0.152   0.133  -0.518  0.2935 -0.0761  0.4392
   68MOL0     C 8869   0.247   0.078  -0.442 -0.4088 -0.2710  0.2781
   68MOL0     C 8870   0.304  -0.047  -0.476  0.4738 -0.4398  0.4022
   68MOL0     C 8871   0.406  -0.113  -0.401 -0.2881 -0.2300  0.1148
   68MOL0     C 8872   0.454  -0.051  -0.280 -1.3665 -0.6925  0.3435
   68MOL0     C 8873   0.567  -0.115  -0.206  0.0538  0.3762  0.2414
   68MOL0     O 8874   0.621  -0.221  -0.262 -0.2162  0.1939 -0.0450
   68MOL0     C 8875   0.720  -0.292  -0.206  0.6193 -0.6549  0.5968
   68MOL0     C 8876   0.856  -0.246  -0.213  0.0065 -0.4289  0.7740
   68MOL0     C 8877   0.956  -0.314  -0.145  0.8383 -0.2728  0.8691
   68MOL0     C 8878   0.925  -0.438  -0.082 -0.1295 -0.4510  0.3447
   68MOL0     O 8879   1.014  -0.506  -0.002  0.9511  0.2296 -0.4894
   68MOL0     C 8880   1.134  -0.539  -0.078 -0.1846  0.0856  0.6069
   68MOL0     C 8881   1.213  -0.649  -0.002  0.2129  0.3483 -0.1392
   68MOL0     C 8882   1.223  -0.632   0.150 -0.5006  0.2745  0.8471
   68MOL0     C 8883   1.290  -0.506   0.197 -0.0770 -0.2438 -0.2650
   68MOL0     C 8884   1.430  -0.500   0.141 -0.4950 -0.0043  0.3355
   68MOL0     C 8885   1.530  -0.420   0.218 -0.1291 -0.7212 -0.9352
   68MOL0     C 8886   1.668  -0.455   0.168 -0.2485 -0.0300  0.0074
   68MOL0     C 8887   1.761  -0.354   0.237 -0.8573 -0.0081  0.3761
   68MOL0    Cl 8888   1.774  -0.195   0.143 -0.3028  0.0102  0.3003
   68MOL0     C 8889   0.803  -0.495  -0.087 -0.7389  0.4232  0.4481
   68MOL0     C 8890   0.701  -0.424  -0.162 -0.8419 -0.7451 -0.5221
   68MOL0     O 8891   0.604  -0.050  -0.107  0.5900  0.6406 -0.2052
   68MOL0     C 8892   0.384   0.069  -0.239 -0.8492  0.8031 -0.3476
   68MOL0     C 8893   0.287   0.132  -0.318 -0.9775  0.3207 -0.3027
   68MOL0     N 8894  -0.407   0.418  -0.549 -0.8507 -0.1602  0.6489
   68MOL0     N 8895  -0.514   0.488  -0.568 -0.8361  0.2824 -0.3588
   68MOL0     C 8896   0.261   0.834  -0.026  0.6458 -0.7061  0.2785
   68MOL0     C 8897   0.356   0.767   0.043 -0.2662  0.9627  0.2492
   68MOL0     C 8898   0.563   0.564   0.419  0.5392 -0.2981 -0.2000
   68MOL0     C 8899   0.679   0.532   0.344  0.8177 -0.2147  0.3760
   68MOL0     C 8900   0.766   0.424   0.382  0.3171  0.1766 -0.0129
   68MOL0     C 8901   0.742   0.361   0.504  0.0016  0.2027  0.9960
   68MOL0     O 8902   0.829   0.261   0.540  0.3207  0.1648  0.7070
   68MOL0     C 8903   0.807   0.177   0.656 -0.2026 -0.5719  0.5561
   68MOL0     C 8904   0.900   0.048   0.665 -0.4114  0.3232 -1.0210
   68MOL0     C 8905   0.919  -0.011   0.529  0.1647 -0.1188  0.6968
   68MOL0     C 8906   1.010  -0.136   0.542  0.0040 -0.4373  0.4178
   68MOL0     C 8907   1.148  -0.100   0.516  0.3743 -0.3509 -0.0672
   68MOL0     C 8908   1.270  -0.092   0.509  0.0731 -0.7293 -1.0118
   68MOL0     C 8909   0.629   0.397   0.582  0.8544 -0.4215  0.3234
   68MOL0     C 8910   0.535   0.502   0.538 -0.6103  0.0246 -0.1488
   68MOL0     H 8911   0.314   0.908   0.355  2.9568 -0.3502 -0.0371
   68MOL0     H 8912   0.134   1.030   0.213 -0.0633  0.4069 -1.6578
   68MOL0     H 8913   0.001   0.860  -0.141 -0.0856  0.2566  0.9029
   68MOL0     H 8914   0.106   0.959  -0.231  0.2887 -0.4481 -0.1882
   68MOL0     H 8915  -0.079   1.144  -0.243 -0.3156  1.6784  1.2241
   68MOL0     H 8916  -0.169   1.056  -0.114  4.3306 -0.9063  2.5478
   68MOL0     H 8917  -0.224   0.886  -0.261 -0.0586  1.2005  2.2901
   68MOL0     H 8918  -0.122   0.938  -0.386 -2.5764 -1.0705 -1.4763
   68MOL0     H 8919  -0.363   1.095  -0.272  0.3748 -0.3096 -0.0197
   68MOL0     H 8920  -0.267   1.154  -0.399 -0.1631 -2.2220 -2.8932
   68MOL0     H 8921  -0.328   0.981  -0.552  1.0827  0.0568  0.0450
   68MOL0     H 8922  -0.468   1.068  -0.491  0.5914 -0.0269  1.1616
   68MOL0     H 8923  -0.494   0.878  -0.318 -2.0485 -1.0624 -0.5682
   68MOL0     H 8924  -0.366   0.793  -0.402 -1.8496 -1.2010 -1.5980
   68MOL0     H 8925  -0.615   0.910  -0.524  0.0243 -0.6017 -1.9571
   68MOL0     H 8926  -0.517   0.796  -0.609 -3.3612  1.4031 -1.3766
   68MOL0     H 8927  -0.705   0.667  -0.508  0.4336 -0.7657 -1.2949
   68MOL0     H 8928  -0.646   0.709  -0.345  1.4831 -2.3346  1.2103
   68MOL0     H 8929  -0.383   0.602  -0.287 -1.0117 -2.1214  2.5208
   68MOL0     H 8930  -0.259   0.317  -0.310  0.9553 -0.3518 -0.1743
   68MOL0     H 8931  -0.175   0.466  -0.322 -0.8141  0.1818 -0.5390
   68MOL0     H 8932  -0.110   0.424  -0.561 -0.4665  2.8312  1.7262
   68MOL0     H 8933  -0.161   0.255  -0.548  0.9918  1.6062 -2.3431
   68MOL0     H 8934   0.027   0.386  -0.352 -2.2376  0.3848 -0.0509
   68MOL0     H 8935  -0.024   0.216  -0.361  0.8903 -0.6798 -1.2621
   68MOL0     H 8936   0.209   0.336  -0.479  1.4679  0.2484 -1.6708
   68MOL0     H 8937   0.107   0.322  -0.614 -3.1287  0.2057  1.1059
   68MOL0     H 8938   0.257  -0.096  -0.560 -1.0371  2.4044 -0.5446
   68MOL0     H 8939   0.443  -0.211  -0.430  2.5112  0.8286 -0.2149
   68MOL0     H 8940   0.881  -0.158  -0.271 -2.9641 -0.4365 -0.7265
   68MOL0     H 8941   1.056  -0.271  -0.138 -0.3922  2.8805  0.4653
   68MOL0     H 8942   1.197  -0.450  -0.072  1.4669 -1.0333  0.4768
   68MOL0     H 8943   1.106  -0.574  -0.178  0.0667  2.4492 -0.3542
   68MOL0     H 8944   1.315  -0.642  -0.042  0.9531 -0.7034  1.4762
   68MOL0     H 8945   1.170  -0.746  -0.026  0.8510  0.1131 -0.3571
   68MOL0     H 8946   1.282  -0.715   0.188  1.8492  1.1136 -0.7314
   68MOL0     H 8947   1.125  -0.631   0.198 -1.3670  0.9052 -0.8460
   68MOL0     H 8948   1.246  -0.409   0.173  0.4371  0.1017  0.1620
   68MOL0     H 8949   1.293  -0.506   0.306  3.3977 -2.5387 -0.1871
   68MOL0     H 8950   1.439  -0.468   0.036  0.4642 -0.1655  0.3582
   68MOL0     H 8951   1.473  -0.601   0.144 -2.0829 -0.7591 -0.8586
   68MOL0     H 8952   1.520  -0.431   0.326  0.6858  1.9234 -0.5163
   68MOL0     H 8953   1.512  -0.316   0.190  1.0942 -0.7630 -2.0049
   68MOL0     H 8954   1.701  -0.552   0.204  3.0027  1.4478  1.4705
   68MOL0     H 8955   1.682  -0.455   0.059 -2.1209  0.1414 -0.2669
   68MOL0     H 8956   1.860  -0.401   0.238 -0.9100 -0.3431 -2.4674
   68MOL0     H 8957   1.725  -0.322   0.335 -1.0536  1.6111 -0.1934
   68MOL0     H 8958   0.791  -0.591  -0.037 -1.0038  0.8704  1.2614
   68MOL0     H 8959   0.603  -0.461  -0.191  0.0841 -1.5317 -2.8780
   68MOL0     H 8960   0.418   0.100  -0.140 -0.6290  1.4108 -0.6092
   68MOL0     H 8961   0.239   0.212  -0.264  1.7979  0.5378  2.1240
   68MOL0     H 8962   0.255   0.805  -0.131  1.6182 -0.2316  0.0827
   68MOL0     H 8963   0.431   0.706  -0.006 -0.2835  2.4041 -1.7448
   68MOL0     H 8964   0.690   0.580   0.247 -0.3838  0.3990  0.5369
   68MOL0     H 8965   0.855   0.398   0.325  0.7423  2.3860 -0.4556
   68MOL0     H 8966   0.707   0.133   0.650 -0.6461  0.6011 -2.6788
   68MOL0     H 8967   0.807   0.233   0.749 -0.6229 -0.5319  0.5337
   68MOL0     H 8968   1.001   0.068   0.703 -1.2057 -0.7730  1.9396
   68MOL0     H 8969   0.848  -0.019   0.734 -2.5659  1.1958 -1.7206
   68MOL0     H 8970   0.964   0.063   0.462 -1.6997  0.1368 -0.3418
   68MOL0     H 8971   0.822  -0.038   0.486  0.1939  1.2299 -0.2817
   68MOL0     H 8972   0.983  -0.177   0.640 -2.1411  1.7276  0.8318
   68MOL0     H 8973   0.985  -0.215   0.471  1.2760 -0.6496  0.1920
   68MOL0     H 8974   1.376  -0.104   0.522  0.5185  0.4126 -3.1841
   68MOL0     H 8975   0.598   0.338   0.667  0.6533 -0.8090 -0.0164
   68MOL0     H 8976   0.440   0.513   0.590 -0.4806 -2.3731  0.7383
   69MOL0     O 8977   3.409  10.876   8.373  0.9940 -0.6247 -0.2268
   69MOL0     C 8978   3.433  10.760   8.382 -0.4025  0.4035  0.6929
   69MOL0     O 8979   3.347  10.655   8.420  0.0757 -0.1447 -0.1358
   69MOL0     C 8980   3.215  10.674   8.460  0.1961 -0.4824 -0.1782
   69MOL0     C 8981   3.113  10.587   8.418  0.0370  0.0597  0.4813
   69MOL0     C 8982   2.983  10.603   8.468 -0.1115 -0.1051  0.1906
   69MOL0     C 8983   2.948  10.713   8.547 -0.6844  0.5835  0.7985
   69MOL0     O 8984   2.829  10.748   8.602  0.1333 -0.1143  0.9064
   69MOL0     C 8985   2.759  10.847   8.522  0.2924 -0.2270  0.0015
   69MOL0     C 8986   2.606  10.805   8.537 -0.2741 -0.4576 -0.1133
   69MOL0     C 8987   2.572  10.669   8.469  0.5376 -0.0411  0.2462
   69MOL0     C 8988   2.428  10.627   8.499  0.1700 -1.0388 -0.1177
   69MOL0     C 8989   2.333  10.729   8.428  0.1317  0.8782  0.4301
   69MOL0     C 8990   2.195  10.662   8.393  1.1189 -0.7922  0.1146
   69MOL0     C 8991   2.100  10.627   8.510 -0.4051 -0.1176 -0.0719
   69MOL0     C 8992   1.960  10.635   8.463  0.1633 -0.2279 -0.8606
   69MOL0     N 8993   1.868  10.584   8.562  0.1753  0.8162  0.5977
   69MOL0     C 8994   1.839  10.655   8.671 -0.3833 -0.2522 -0.1085
   69MOL0     C 8995   1.800  10.567   8.758  0.2877  0.1055 -0.4182
   69MOL0     C 8996   1.759  10.591   8.904 -0.5973  0.2211  0.3430
   69MOL0     C 8997   1.615  10.629   8.933  0.5203  0.1747  0.3888
   69MOL0     C 8998   1.594  10.626   9.086  1.0887  0.1045  0.2910
   69MOL0     C 8999   1.450  10.592   9.125  0.5976  0.6149  0.3509
   69MOL0     O 9000   1.362  10.698   9.084 -0.0345  0.4060  0.6387
   69MOL0     C 9001   1.231  10.686   9.133  0.0455 -0.0342 -0.5734
   69MOL0     C 9002   1.182  10.574   9.206  0.1161  0.0272  0.0999
   69MOL0     C 9003   1.049  10.579   9.260  0.3976  0.9283 -0.3446
   69MOL0     C 9004   0.975  10.700   9.247 -0.0331 -0.2019 -0.3106
   69MOL0     C 9005   0.835  10.695   9.310 -0.3101  0.1997  0.9180
   69MOL0     O 9006   0.771  10.814   9.318 -0.9181 -0.5643  0.1508
   69MOL0     C 9007   0.638  10.795   9.354 -0.5919 -1.2897  0.5917
   69MOL0     C 9008   0.542  10.835   9.256 -0.3844  0.2318 -0.3627
   69MOL0     C 9009   0.410  10.843   9.293 -0.3875 -0.2318  0.1044
   69MOL0     C 9010   0.370  10.818   9.424  0.3069  0.2798 -0.1433
   69MOL0     O 9011   0.238  10.821   9.461  0.6986 -0.1264  0.4672
   69MOL0     C 9012   0.131  10.858   9.371 -0.1791  0.1158 -0.2824
   69MOL0     C 9013  -0.001  10.882   9.446  0.1676 -0.1163  0.6009
   69MOL0     C 9014  -0.054  10.754   9.502  0.6702 -0.5911  0.4887
   69MOL0     C 9015  -0.171  10.710   9.416 -0.7664  0.3041  0.5411
   69MOL0     C 9016  -0.235  10.584   9.474 -0.1115 -0.8024 -0.5088
   69MOL0     C 9017  -0.344  10.537   9.379  0.3391  0.6246 -0.2491
   69MOL0     C 9018  -0.402  10.396   9.430 -0.4329  0.0540  0.5305
   69MOL0     C 9019  -0.515  10.333   9.343 -0.5437  0.6033  0.3896
   69MOL0    Cl 9020  -0.663  10.433   9.350 -0.4497  0.0664  0.3732
   69MOL0     C 9021   0.467  10.772   9.520  1.2391 -1.4640 -0.8723
   69MOL0     C 9022   0.599  10.766   9.483 -0.3440  0.0465 -1.0675
   69MOL0     O 9023   0.792  10.591   9.341 -0.9365  0.1833 -0.0222
   69MOL0     C 9024   1.028  10.816   9.185  0.3390 -0.3639  0.2897
   69MOL0     C 9025   1.152  10.804   9.118  0.1428  0.3900  0.6470
   69MOL0     N 9026   1.793  10.442   8.704 -0.1269  0.1482  0.4019
   69MOL0     N 9027   1.834  10.455   8.585 -0.4235 -0.2265  0.6359
   69MOL0     C 9028   3.047  10.803   8.580  0.5636  0.0483 -1.3405
   69MOL0     C 9029   3.178  10.784   8.541 -0.3582 -0.4839  0.1562
   69MOL0     C 9030   3.563  10.714   8.353 -0.3926 -0.4643  0.6171
   69MOL0     C 9031   3.617  10.589   8.405  0.0755  0.7321  0.2478
   69MOL0     C 9032   3.731  10.534   8.352 -0.3013  0.4500  0.0019
   69MOL0     C 9033   3.797  10.595   8.250 -0.2247 -0.7806  0.8242
   69MOL0     O 9034   3.927  10.560   8.210 -0.2775  0.3417 -0.2365
   69MOL0     C 9035   3.931  10.436   8.149  0.4359  0.0405 -0.6183
   69MOL0     C 9036   4.058  10.434   8.066  0.3210  0.4373  0.4197
   69MOL0     C 9037   4.047  10.538   7.951  0.1726 -0.4610  0.1169
   69MOL0     C 9038   4.134  10.504   7.828  0.0368  1.0977  0.1397
   69MOL0     C 9039   4.268  10.522   7.872  0.2536  0.6297  0.0359
   69MOL0     C 9040   4.379  10.503   7.930  0.1095  0.1878 -0.3926
   69MOL0     C 9041   3.752  10.717   8.202  0.1051 -0.0063 -0.4414
   69MOL0     C 9042   3.639  10.780   8.255 -0.4599 -0.7412 -0.6169
   69MOL0     H 9043   3.118  10.507   8.345  2.3314 -0.7706  1.4505
   69MOL0     H 9044   2.904  10.540   8.430 -0.0107 -1.2699  1.8089
   69MOL0     H 9045   2.794  10.842   8.418 -1.9911  0.1138 -0.8498
   69MOL0     H 9046   2.774  10.948   8.561 -0.8364 -0.5432  1.3217
   69MOL0     H 9047   2.558  10.878   8.471  2.0033  1.9220  0.6926
   69MOL0     H 9048   2.581  10.807   8.643  0.4750 -3.2533  0.1932
   69MOL0     H 9049   2.640  10.590   8.503  1.3324  0.5105 -0.0408
   69MOL0     H 9050   2.581  10.692   8.362 -1.6418 -1.1516 -0.2474
   69MOL0     H 9051   2.421  10.524   8.465  1.5421 -1.2536  0.2108
   69MOL0     H 9052   2.396  10.610   8.602 -1.3867  3.7252  0.4371
   69MOL0     H 9053   2.381  10.754   8.332  0.2126  0.9968  0.5007
   69MOL0     H 9054   2.328  10.823   8.483 -0.1760  1.3603 -0.4007
   69MOL0     H 9055   2.221  10.569   8.341 -0.6592 -2.9410  2.7642
   69MOL0     H 9056   2.146  10.732   8.326 -0.4642 -0.8580  1.1515
   69MOL0     H 9057   2.110  10.521   8.537  2.0089 -0.7324 -2.8248
   69MOL0     H 9058   2.120  10.699   8.590 -2.4895  3.0488 -2.1946
   69MOL0     H 9059   1.947  10.560   8.384 -3.7666 -0.4999 -0.1636
   69MOL0     H 9060   1.930  10.736   8.432 -2.1894 -0.0821  1.5040
   69MOL0     H 9061   1.885  10.753   8.679  0.7249 -0.7202 -0.5377
   69MOL0     H 9062   1.826  10.666   8.948 -1.1615 -0.3896  2.3844
   69MOL0     H 9063   1.785  10.494   8.949  1.2664 -0.0850 -1.2701
   69MOL0     H 9064   1.544  10.563   8.882 -1.3287  1.1150  1.6524
   69MOL0     H 9065   1.594  10.731   8.897  2.5219  0.9536  1.2860
   69MOL0     H 9066   1.646  10.542   9.132 -3.3399 -2.2314  1.6819
   69MOL0     H 9067   1.621  10.727   9.118 -0.7807  0.1136  1.9947
   69MOL0     H 9068   1.448  10.572   9.233  2.5304  0.3227  0.3822
   69MOL0     H 9069   1.421  10.498   9.078  0.2455  0.2523  1.2593
   69MOL0     H 9070   1.230  10.478   9.218  1.7481  0.3189 -3.0802
   69MOL0     H 9071   1.016  10.489   9.311 -0.5682  1.4751  0.0155
   69MOL0     H 9072   0.558  10.868   9.155  2.1674 -0.3624 -0.2259
   69MOL0     H 9073   0.340  10.878   9.218  0.9543 -3.2082 -2.7832
   69MOL0     H 9074   0.120  10.776   9.300  3.4633 -0.3428 -0.4898
   69MOL0     H 9075   0.145  10.957   9.327 -3.3887  0.5610 -0.5883
   69MOL0     H 9076  -0.072  10.928   9.376  1.5747  0.2282 -0.6441
   69MOL0     H 9077   0.026  10.959   9.519  1.5338 -0.6424  0.6677
   69MOL0     H 9078  -0.063  10.749   9.611  1.5368 -0.5884  0.5690
   69MOL0     H 9079   0.016  10.673   9.481  1.3166  0.8572 -3.7308
   69MOL0     H 9080  -0.241  10.793   9.401 -2.7969 -1.0811  1.8037
   69MOL0     H 9081  -0.131  10.697   9.315 -2.8945  3.5105 -0.8877
   69MOL0     H 9082  -0.276  10.611   9.572 -1.8583  0.2640 -1.5054
   69MOL0     H 9083  -0.156  10.509   9.484  0.3674 -0.5733 -2.2837
   69MOL0     H 9084  -0.296  10.516   9.283  0.5582 -0.4168  0.0796
   69MOL0     H 9085  -0.432  10.599   9.357 -0.5203  0.1975  1.7929
   69MOL0     H 9086  -0.317  10.326   9.431  0.4561  0.9938 -1.8031
   69MOL0     H 9087  -0.442  10.401   9.531 -1.1731 -0.5118  0.2788
   69MOL0     H 9088  -0.530  10.232   9.383 -0.2277  0.3221 -0.1896
   69MOL0     H 9089  -0.466  10.318   9.247  2.0740  0.8196  1.6241
   69MOL0     H 9090   0.431  10.755   9.622  0.7816 -1.6929 -1.0684
   69MOL0     H 9091   0.673  10.757   9.562  0.0456  0.1022 -1.4250
   69MOL0     H 9092   0.977  10.911   9.170 -0.2432 -0.6451  0.4304
   69MOL0     H 9093   1.201  10.885   9.065  1.3963 -0.2871  0.7392
   69MOL0     H 9094   3.028  10.897   8.631 -0.1573 -1.1178  0.6376
   69MOL0     H 9095   3.246  10.861   8.574 -0.9699  0.9821 -1.8137
   69MOL0     H 9096   3.577  10.537   8.492  0.1414  2.2360  1.2212
   69MOL0     H 9097   3.767  10.439   8.391 -1.6714  0.2971  0.9561
   69MOL0     H 9098   3.849  10.422   8.078 -2.7703  0.8933  2.6234
   69MOL0     H 9099   3.934  10.365   8.232  2.1441  0.3073 -0.4050
   69MOL0     H 9100   4.139  10.457   8.136 -0.5453 -0.1897  1.6561
   69MOL0     H 9101   4.086  10.334   8.033  1.3733  0.9115 -0.2230
   69MOL0     H 9102   4.076  10.634   7.996 -0.9290  0.0993 -0.3429
   69MOL0     H 9103   3.944  10.550   7.917  0.1748 -2.3220 -0.6321
   69MOL0     H 9104   4.123  10.396   7.811 -0.5651  1.4337 -1.7677
   69MOL0     H 9105   4.121  10.562   7.737  1.8417 -0.2235 -1.0315
   69MOL0     H 9106   4.483  10.492   7.955  0.3560  0.4361 -1.2559
   69MOL0     H 9107   3.803  10.783   8.132  2.0951  2.1096  2.7603
   69MOL0     H 9108   3.600  10.872   8.212 -1.3739 -2.0433 -2.7359
   70MOL0     O 9109   9.737   7.860   2.131  0.0905  0.1985 -0.5011
   70MOL0     C 9110   9.777   7.754   2.080  0.2130  0.4039 -0.5447
   70MOL0     O 9111   9.700   7.656   2.002  0.8198  0.0300  0.1856
   70MOL0     C 9112   9.566   7.680   1.977 -0.1537  0.3246 -0.1786
   70MOL0     C 9113   9.465   7.694   2.075 -0.8652 -0.4466 -0.6151
   70MOL0     C 9114   9.336   7.736   2.047 -0.4156  0.0336 -0.4882
   70MOL0     C 9115   9.303   7.759   1.907  0.2741  1.0318 -1.2782
   70MOL0     O 9116   9.180   7.797   1.858 -0.0866 -0.3647 -0.1060
   70MOL0     C 9117   9.070   7.822   1.951  1.2451  0.4312 -0.0717
   70MOL0     C 9118   8.977   7.697   1.955 -0.8959  0.5049  0.0201
   70MOL0     C 9119   8.874   7.677   1.856 -0.0465  0.4901  0.5049
   70MOL0     C 9120   8.780   7.559   1.886  0.3726  0.1371 -0.0036
   70MOL0     C 9121   8.863   7.434   1.900  0.6964  0.4405 -0.1790
   70MOL0     C 9122   8.772   7.310   1.896 -1.0207  0.4637 -0.1123
   70MOL0     C 9123   8.843   7.175   1.920  0.5443 -0.8024 -1.2036
   70MOL0     C 9124   8.960   7.149   1.833  1.0645 -0.7991  1.1299
   70MOL0     N 9125   9.040   7.043   1.892 -0.2817  0.4662  0.8428
   70MOL0     C 9126   9.174   7.039   1.935  0.3444 -0.2218  0.3411
   70MOL0     C 9127   9.189   6.910   1.961 -0.4218  0.7361 -0.1154
   70MOL0     C 9128   9.310   6.835   2.022  0.6026 -0.4828  0.4990
   70MOL0     C 9129   9.438   6.879   1.946 -0.0302  0.1081 -0.4608
   70MOL0     C 9130   9.552   6.800   2.022  0.3472 -0.4872  1.1958
   70MOL0     C 9131   9.685   6.855   1.976 -0.3456 -0.5329 -0.5205
   70MOL0     O 9132   9.787   6.782   2.037 -0.5103 -0.1918 -0.6756
   70MOL0     C 9133   9.918   6.837   2.021  0.0651 -0.4591  0.0021
   70MOL0     C 9134  10.015   6.751   2.077  0.7806  1.0347  0.6423
   70MOL0     C 9135  10.153   6.788   2.072 -0.0894  0.0883 -0.3533
   70MOL0     C 9136  10.186   6.916   2.016 -0.7763 -0.0312 -0.3601
   70MOL0     C 9137  10.330   6.957   2.021 -0.0011 -0.3590 -0.0977
   70MOL0     O 9138  10.409   6.900   2.118  0.3458  0.1338  1.2852
   70MOL0     C 9139  10.542   6.904   2.122 -0.4821  0.8925 -0.1170
   70MOL0     C 9140  10.588   6.928   2.254  0.0946 -0.1182  0.8396
   70MOL0     C 9141  10.726   6.950   2.279 -0.3380  0.5813  0.0293
   70MOL0     C 9142  10.818   6.928   2.175  0.6710  0.3476  0.6875
   70MOL0     O 9143  10.956   6.947   2.180 -0.4978  0.0539  0.1473
   70MOL0     C 9144  11.026   6.973   2.306  0.0328 -0.0119  0.8525
   70MOL0     C 9145  11.174   6.942   2.294  0.6555  0.6257  0.1529
   70MOL0     C 9146  11.245   7.003   2.169 -0.2854 -0.3544 -0.1292
   70MOL0     C 9147  11.398   6.963   2.165 -0.4377  0.4733  0.6529
   70MOL0     C 9148  11.460   6.948   2.030 -0.4593  0.0026  1.0250
   70MOL0     C 9149  11.606   6.893   2.033  0.6948 -0.3637  0.0253
   70MOL0     C 9150  11.689   6.993   2.112 -0.5977 -0.0986 -0.5069
   70MOL0     C 9151  11.840   6.964   2.096 -1.0105  0.3788 -0.6634
   70MOL0    Cl 9152  11.893   6.811   2.146 -0.1248 -0.1745  0.1037
   70MOL0     C 9153  10.772   6.912   2.044 -0.0651 -0.5606 -0.2463
   70MOL0     C 9154  10.633   6.901   2.015 -0.7714 -0.8901 -0.2618
   70MOL0     O 9155  10.361   7.038   1.936 -0.5913  0.4435 -0.2830
   70MOL0     C 9156  10.085   6.998   1.963 -0.4265 -0.3883  0.0686
   70MOL0     C 9157   9.952   6.959   1.964 -0.3008  0.3466 -0.1280
   70MOL0     N 9158   9.073   6.838   1.942 -0.0605 -0.7865  0.2921
   70MOL0     N 9159   8.989   6.919   1.894  0.3913  0.5673 -0.1164
   70MOL0     C 9160   9.404   7.739   1.811 -0.3009 -0.1148  0.2279
   70MOL0     C 9161   9.534   7.695   1.843  0.6048  0.7377  0.3116
   70MOL0     C 9162   9.918   7.723   2.078  0.1364 -0.4036 -0.0453
   70MOL0     C 9163   9.974   7.608   2.019 -1.0474 -0.0868 -0.8498
   70MOL0     C 9164  10.118   7.581   2.035  0.7122 -0.4228  0.0183
   70MOL0     C 9165  10.200   7.676   2.095 -0.4370 -0.1558 -0.1291
   70MOL0     O 9166  10.331   7.659   2.115  0.1909  0.4583 -0.3985
   70MOL0     C 9167  10.411   7.698   2.005 -0.7597  0.2291 -0.0421
   70MOL0     C 9168  10.553   7.729   2.045  0.9144 -0.9495 -0.2845
   70MOL0     C 9169  10.650   7.775   1.932  0.6319 -0.1152  0.2452
   70MOL0     C 9170  10.756   7.869   1.978  0.6961 -0.0512  0.4323
   70MOL0     C 9171  10.855   7.896   1.879 -1.4276  0.0880  0.0713
   70MOL0     C 9172  10.951   7.935   1.811 -0.4442 -0.3112  0.8764
   70MOL0     C 9173  10.139   7.794   2.143  0.4573 -0.4762 -0.2636
   70MOL0     C 9174  10.001   7.815   2.141 -0.0875  0.0347  0.0250
   70MOL0     H 9175   9.505   7.694   2.176 -0.6597  1.8603 -0.6476
   70MOL0     H 9176   9.263   7.728   2.127 -1.2433  1.4761 -1.0541
   70MOL0     H 9177   9.013   7.911   1.922 -0.1654 -0.4397 -0.0508
   70MOL0     H 9178   9.107   7.844   2.051 -0.7944  0.5533  0.7008
   70MOL0     H 9179   8.928   7.701   2.053 -0.0392 -1.1849  0.5443
   70MOL0     H 9180   9.044   7.611   1.950 -3.5844 -1.6473 -1.9335
   70MOL0     H 9181   8.908   7.670   1.752  1.2510  0.0269  0.9297
   70MOL0     H 9182   8.808   7.763   1.848  0.3153  0.7488  0.2423
   70MOL0     H 9183   8.730   7.579   1.981 -0.8384  2.6642 -1.0886
   70MOL0     H 9184   8.700   7.551   1.812 -0.9747 -0.2161  1.4429
   70MOL0     H 9185   8.917   7.421   1.994  0.8181 -0.7085 -0.4002
   70MOL0     H 9186   8.937   7.420   1.820  0.6977 -1.1356  0.0836
   70MOL0     H 9187   8.722   7.300   1.800  1.4920 -4.3874 -1.2085
   70MOL0     H 9188   8.697   7.317   1.975 -1.4637 -0.6908 -0.4182
   70MOL0     H 9189   8.878   7.175   2.024 -0.4215  1.7524 -0.7981
   70MOL0     H 9190   8.764   7.100   1.911  0.4786 -0.9759  0.4936
   70MOL0     H 9191   9.025   7.237   1.828  0.8783 -0.7196 -0.2280
   70MOL0     H 9192   8.939   7.127   1.728  3.9737 -4.2509  1.0463
   70MOL0     H 9193   9.224   7.135   1.949 -3.2489  2.1786 -1.7830
   70MOL0     H 9194   9.303   6.726   2.016  0.9908 -0.6964  3.1074
   70MOL0     H 9195   9.321   6.867   2.126  0.8342  1.8969 -0.1884
   70MOL0     H 9196   9.432   6.984   1.975  1.0520 -0.2692  1.2590
   70MOL0     H 9197   9.429   6.862   1.838 -1.6937 -1.0111 -0.1882
   70MOL0     H 9198   9.538   6.816   2.130  1.8100  1.4429  1.1611
   70MOL0     H 9199   9.543   6.693   2.006 -0.5999 -0.4812  1.6398
   70MOL0     H 9200   9.686   6.954   2.023 -1.4576 -1.2413  1.0806
   70MOL0     H 9201   9.687   6.864   1.867 -3.4396 -0.6090 -0.6743
   70MOL0     H 9202   9.985   6.654   2.116 -2.9557  1.8276  0.1144
   70MOL0     H 9203  10.230   6.720   2.107  0.9533 -1.1528 -4.5568
   70MOL0     H 9204  10.525   6.933   2.342  2.0525  0.9292  2.2729
   70MOL0     H 9205  10.754   6.970   2.382  1.7655  0.9835 -0.5821
   70MOL0     H 9206  10.991   6.905   2.384 -0.1694 -0.5323  0.3159
   70MOL0     H 9207  11.011   7.077   2.335 -2.8631  0.0926 -0.6757
   70MOL0     H 9208  11.177   6.833   2.280 -1.8555  0.6890 -1.4211
   70MOL0     H 9209  11.239   6.964   2.379  2.9873 -1.3985 -0.9619
   70MOL0     H 9210  11.238   7.112   2.167 -1.8577 -0.4382 -1.9270
   70MOL0     H 9211  11.193   6.965   2.080 -0.2715  0.5490 -0.5266
   70MOL0     H 9212  11.456   7.044   2.211 -0.8894  1.6596 -0.7774
   70MOL0     H 9213  11.407   6.870   2.221 -1.1584 -1.2577 -1.8958
   70MOL0     H 9214  11.454   7.040   1.972  1.1539 -1.0825 -1.0104
   70MOL0     H 9215  11.401   6.872   1.977  0.1160 -0.3256  0.8457
   70MOL0     H 9216  11.630   6.883   1.927  1.8890 -2.8060  0.4578
   70MOL0     H 9217  11.622   6.794   2.078  4.2738 -0.8140 -1.9020
   70MOL0     H 9218  11.663   7.098   2.095 -1.0037  0.0441  0.8171
   70MOL0     H 9219  11.668   6.983   2.219  0.3537  2.5225 -0.0220
   70MOL0     H 9220  11.896   7.042   2.147  0.0151 -0.0595 -1.0992
   70MOL0     H 9221  11.870   6.969   1.991 -2.5919  1.6778 -1.0952
   70MOL0     H 9222  10.843   6.917   1.961  0.8092  1.1286  0.5471
   70MOL0     H 9223  10.592   6.912   1.915  1.3268 -1.1075 -1.1926
   70MOL0     H 9224  10.124   7.097   1.941  0.5767 -1.0595 -1.3415
   70MOL0     H 9225   9.876   7.023   1.919 -2.9324 -2.2533  0.3674
   70MOL0     H 9226   9.383   7.766   1.708  0.6064  0.7068  0.2396
   70MOL0     H 9227   9.615   7.694   1.771  1.6814 -0.9289  1.4751
   70MOL0     H 9228   9.918   7.536   1.960 -0.4159 -0.3808 -1.0928
   70MOL0     H 9229  10.165   7.495   1.990  1.1541  0.2049 -0.7463
   70MOL0     H 9230  10.367   7.786   1.957  0.2901 -0.6386 -2.7784
   70MOL0     H 9231  10.423   7.622   1.927  3.4657  0.8490 -0.2060
   70MOL0     H 9232  10.544   7.806   2.122  1.7801 -1.4101  0.2948
   70MOL0     H 9233  10.602   7.640   2.086  0.0609 -0.7808  1.1519
   70MOL0     H 9234  10.597   7.837   1.859 -0.5166 -0.5459  0.6990
   70MOL0     H 9235  10.687   7.683   1.884  0.6897 -0.3790  0.7895
   70MOL0     H 9236  10.710   7.960   2.017  1.6869  1.0167 -0.8059
   70MOL0     H 9237  10.808   7.822   2.062 -0.0203 -1.4421  0.1326
   70MOL0     H 9238  11.032   7.958   1.745 -1.9697 -0.6982 -1.2118
   70MOL0     H 9239  10.200   7.847   2.216  0.6043 -0.7886 -0.1575
   70MOL0     H 9240   9.959   7.911   2.170 -0.4613  0.3917 -1.6055
   71MOL0     O 9241   3.771   8.997   7.910  0.2629  0.0350  0.0885
   71MOL0     C 9242   3.792   9.086   7.829 -0.0112  0.5845  0.1354
   71MOL0     O 9243   3.700   9.165   7.767  0.8900 -0.2184 -0.3572
   71MOL0     C 9244   3.569   9.138   7.777 -0.7318 -0.0027 -0.5017
   71MOL0     C 9245   3.512   9.058   7.682 -1.0638  0.5636 -0.8226
   71MOL0     C 9246   3.372   9.047   7.682 -0.3672 -0.2729  0.9819
   71MOL0     C 9247   3.293   9.102   7.779 -0.0631  0.1217 -0.5743
   71MOL0     O 9248   3.163   9.064   7.775  0.3424 -0.3838 -0.3009
   71MOL0     C 9249   3.068   9.087   7.881 -0.7773 -0.5901 -0.0454
   71MOL0     C 9250   2.987   9.212   7.839  0.5839 -0.6467  0.0212
   71MOL0     C 9251   2.839   9.200   7.892 -0.1822 -0.2910 -0.3332
   71MOL0     C 9252   2.762   9.096   7.805 -0.3534 -0.1667 -0.4806
   71MOL0     C 9253   2.627   9.082   7.879  0.0162 -0.0755 -0.4060
   71MOL0     C 9254   2.530   8.988   7.799  0.2783  0.0330 -0.8780
   71MOL0     C 9255   2.402   8.960   7.880 -0.5613 -0.3274  0.5468
   71MOL0     C 9256   2.289   8.934   7.781 -0.8043 -1.0249 -0.2007
   71MOL0     N 9257   2.160   8.968   7.836 -0.5287 -0.1213  0.2914
   71MOL0     C 9258   2.107   8.896   7.943 -0.5820  0.6481  0.6062
   71MOL0     C 9259   1.991   8.964   7.966  0.0841 -1.1165  0.8484
   71MOL0     C 9260   1.899   8.939   8.078  0.0922  0.4939  0.0621
   71MOL0     C 9261   1.764   8.897   8.013 -0.3303 -0.2055 -0.9064
   71MOL0     C 9262   1.655   8.891   8.119 -0.6618  0.4447 -0.5102
   71MOL0     C 9263   1.516   8.917   8.081  0.2018  0.6849  0.5812
   71MOL0     O 9264   1.429   8.919   8.196 -0.3281  0.1176 -0.0156
   71MOL0     C 9265   1.296   8.940   8.165 -0.1175  0.5533  0.5225
   71MOL0     C 9266   1.247   8.969   8.031  0.5828 -0.2707  0.4265
   71MOL0     C 9267   1.108   8.982   8.011  0.4156 -0.7618  0.3070
   71MOL0     C 9268   1.014   8.977   8.107 -0.2819  0.2367  0.4696
   71MOL0     C 9269   0.870   8.996   8.082 -0.2569 -0.8003  0.1919
   71MOL0     O 9270   0.786   8.943   8.170 -0.4195  0.9717  0.0185
   71MOL0     C 9271   0.652   8.962   8.136  0.7967 -0.3629 -1.4109
   71MOL0     C 9272   0.585   9.083   8.173 -0.6548 -0.1895 -0.4774
   71MOL0     C 9273   0.453   9.098   8.145 -0.2688 -0.7808  0.1273
   71MOL0     C 9274   0.397   9.007   8.058  0.4000 -0.7742  0.1076
   71MOL0     O 9275   0.272   9.046   8.019 -0.2382 -0.0449 -0.2412
   71MOL0     C 9276   0.191   8.947   7.964  0.6039  1.4368 -0.1130
   71MOL0     C 9277   0.065   9.009   7.913  0.4143 -0.0636 -0.3471
   71MOL0     C 9278  -0.028   9.062   8.035 -0.3207  0.9249 -0.7496
   71MOL0     C 9279  -0.165   9.080   7.967  0.0954  0.3222 -1.2066
   71MOL0     C 9280  -0.267   9.157   8.036 -0.7854  0.1062 -0.4963
   71MOL0     C 9281  -0.408   9.133   7.982  0.5994  0.1345  0.1581
   71MOL0     C 9282  -0.500   9.231   8.054  0.2298 -0.2264  0.0782
   71MOL0     C 9283  -0.644   9.233   8.005 -0.3578  0.4260  0.4000
   71MOL0    Cl 9284  -0.711   9.073   7.988 -0.2005  0.4509 -0.1108
   71MOL0     C 9285   0.457   8.879   8.043  0.1937 -0.6081  0.5949
   71MOL0     C 9286   0.587   8.853   8.085  0.3793 -0.5824  0.1650
   71MOL0     O 9287   0.844   9.048   7.971 -0.0589 -0.0700  0.0993
   71MOL0     C 9288   1.063   8.949   8.236  0.5756  0.9223  0.1376
   71MOL0     C 9289   1.205   8.931   8.265  0.8456  0.0943 -0.0955
   71MOL0     N 9290   1.982   9.069   7.880 -0.0357 -0.0990  0.0490
   71MOL0     N 9291   2.087   9.080   7.805  0.2930 -0.3835 -0.1737
   71MOL0     C 9292   3.351   9.194   7.869  1.0627  0.3892 -0.2319
   71MOL0     C 9293   3.486   9.208   7.876  0.1374 -0.3981 -0.0077
   71MOL0     C 9294   3.929   9.127   7.798 -0.3989  0.2017  0.7017
   71MOL0     C 9295   3.962   9.228   7.705  0.5592  0.6446 -0.4389
   71MOL0     C 9296   4.098   9.255   7.688 -0.0622  0.0041  0.0309
   71MOL0     C 9297   4.199   9.178   7.754  0.1691 -0.8757 -0.1310
   71MOL0     O 9298   4.330   9.190   7.720 -0.4988 -0.2077 -0.0461
   71MOL0     C 9299   4.364   9.240   7.590 -0.3781 -0.8303  0.2710
   71MOL0     C 9300   4.522   9.231   7.586  0.0598  0.3180 -0.2724
   71MOL0     C 9301   4.569   9.085   7.580 -1.0715  0.0307  0.9715
   71MOL0     C 9302   4.725   9.077   7.609  0.2681 -0.1353 -0.1037
   71MOL0     C 9303   4.794   8.963   7.564 -0.5884 -0.4043  0.2727
   71MOL0     C 9304   4.839   8.855   7.544 -0.2458  0.7819 -0.1216
   71MOL0     C 9305   4.162   9.093   7.842  0.0383 -0.5570 -0.2982
   71MOL0     C 9306   4.027   9.070   7.872 -0.8316  0.2684 -0.1501
   71MOL0     H 9307   3.574   8.993   7.621 -0.4619 -1.2712  1.5944
   71MOL0     H 9308   3.330   8.981   7.607  0.2529  1.5963 -1.1083
   71MOL0     H 9309   3.123   9.106   7.974 -0.8493  0.5140 -0.2099
   71MOL0     H 9310   3.011   8.995   7.898  0.3614 -1.6230 -1.4920
   71MOL0     H 9311   2.987   9.227   7.731  0.6413 -0.8983 -0.0151
   71MOL0     H 9312   3.031   9.296   7.892  2.1503 -1.9155  0.8164
   71MOL0     H 9313   2.791   9.297   7.875  1.2594  0.5239  0.1204
   71MOL0     H 9314   2.836   9.185   8.000 -1.8635  1.1137 -0.1293
   71MOL0     H 9315   2.750   9.137   7.705  0.1972 -0.7580 -0.7950
   71MOL0     H 9316   2.810   8.998   7.802 -1.7443 -0.9457  1.0959
   71MOL0     H 9317   2.584   9.183   7.883 -2.3099 -1.0207 -0.0330
   71MOL0     H 9318   2.641   9.044   7.980  1.7880  1.6148  0.0459
   71MOL0     H 9319   2.573   8.888   7.785 -2.5371 -1.5632  0.7891
   71MOL0     H 9320   2.518   9.013   7.694  1.9117  2.4051 -0.5598
   71MOL0     H 9321   2.425   8.874   7.944  0.5193 -1.0658 -0.7914
   71MOL0     H 9322   2.382   9.058   7.925 -2.3692  1.6280 -3.8922
   71MOL0     H 9323   2.296   8.830   7.749 -0.3448 -1.2764  0.6826
   71MOL0     H 9324   2.304   9.010   7.703 -0.0175  1.3282  2.1011
   71MOL0     H 9325   2.150   8.812   7.996  1.2394  0.5105 -0.9665
   71MOL0     H 9326   1.883   9.027   8.142 -0.2304  0.1232  0.5072
   71MOL0     H 9327   1.938   8.853   8.134  0.5632 -0.4081 -1.6036
   71MOL0     H 9328   1.775   8.804   7.956  0.3672 -0.4646 -0.3670
   71MOL0     H 9329   1.730   8.981   7.953 -1.8836 -0.3300 -0.2479
   71MOL0     H 9330   1.649   8.789   8.157  0.2684  0.6393  0.2183
   71MOL0     H 9331   1.674   8.949   8.210  0.0222 -1.3911  0.5614
   71MOL0     H 9332   1.498   8.829   8.019  4.1434 -0.7497  1.1922
   71MOL0     H 9333   1.506   9.008   8.021  0.0547  1.7224  2.1394
   71MOL0     H 9334   1.316   8.983   7.949  0.0416  2.1372  0.3017
   71MOL0     H 9335   1.085   9.013   7.910  0.2080 -0.3784  0.4719
   71MOL0     H 9336   0.636   9.163   8.225  0.9694 -1.9266  0.7609
   71MOL0     H 9337   0.399   9.186   8.178  0.5909 -0.6372  1.1876
   71MOL0     H 9338   0.155   8.878   8.042  2.2441  1.2085  0.4862
   71MOL0     H 9339   0.243   8.889   7.887  1.5854 -1.0209  2.2045
   71MOL0     H 9340   0.010   8.951   7.837  4.1742 -1.9281 -1.8836
   71MOL0     H 9341   0.096   9.100   7.862  1.9387 -0.4279 -0.1115
   71MOL0     H 9342   0.021   9.146   8.084  1.9280 -1.3534  1.1820
   71MOL0     H 9343  -0.034   8.988   8.116 -0.3618  1.5789 -0.1413
   71MOL0     H 9344  -0.147   9.130   7.872  1.3502  0.6497 -0.8141
   71MOL0     H 9345  -0.215   8.983   7.956 -1.1104  0.8275 -0.4714
   71MOL0     H 9346  -0.247   9.263   8.018  0.9210 -0.3643 -1.6075
   71MOL0     H 9347  -0.265   9.132   8.143  1.2560  0.9658 -0.2866
   71MOL0     H 9348  -0.439   9.032   8.011 -3.1592  1.4003  1.0348
   71MOL0     H 9349  -0.415   9.148   7.873 -0.7630 -1.2368  0.0232
   71MOL0     H 9350  -0.499   9.216   8.162  3.0634  0.0728  0.1801
   71MOL0     H 9351  -0.461   9.330   8.029 -0.5755 -0.0387 -0.4656
   71MOL0     H 9352  -0.655   9.276   7.906 -1.3058 -1.6646 -0.4675
   71MOL0     H 9353  -0.691   9.295   8.082  0.9289 -0.3908  1.9142
   71MOL0     H 9354   0.409   8.788   8.008  1.9115 -1.9647  1.6211
   71MOL0     H 9355   0.628   8.753   8.084  0.8387 -0.3941  0.1797
   71MOL0     H 9356   1.006   8.949   8.328  0.1061 -3.6178  0.0691
   71MOL0     H 9357   1.229   8.917   8.370 -1.7494  3.5668  1.1512
   71MOL0     H 9358   3.296   9.256   7.939  1.7199  1.3884 -0.5739
   71MOL0     H 9359   3.535   9.276   7.945 -0.0148 -0.7516  0.4569
   71MOL0     H 9360   3.895   9.276   7.635  1.0064  1.6688 -0.1838
   71MOL0     H 9361   4.111   9.330   7.610 -2.6422 -0.1592 -0.6790
   71MOL0     H 9362   4.343   9.346   7.573  1.6866  0.0429  2.5465
   71MOL0     H 9363   4.314   9.182   7.512 -1.3917 -1.7117  1.5048
   71MOL0     H 9364   4.554   9.290   7.499  0.0714  2.3043  1.0094
   71MOL0     H 9365   4.562   9.278   7.676 -0.7905 -0.9404  0.7922
   71MOL0     H 9366   4.546   9.058   7.477  1.2108  2.6230 -0.3582
   71MOL0     H 9367   4.514   9.018   7.647 -2.1689  1.6729  1.7939
   71MOL0     H 9368   4.768   9.163   7.557 -0.2813 -0.5019 -1.2016
   71MOL0     H 9369   4.735   9.090   7.717 -0.6986  1.2589 -0.1548
   71MOL0     H 9370   4.887   8.766   7.509  1.8088  2.1614 -0.9646
   71MOL0     H 9371   4.235   9.045   7.906  1.5982 -1.6862 -2.7816
   71MOL0     H 9372   4.008   9.005   7.956  1.2841  0.9028  0.8862
   72MOL0     O 9373   4.410  10.019   8.327  0.0474  0.0715 -0.2557
   72MOL0     C 9374   4.493  10.015   8.413  0.0598  0.2372 -0.0806
   72MOL0     O 9375   4.536  10.121   8.507  0.5299  0.0665  0.2454
   72MOL0     C 9376   4.436  10.208   8.540 -0.2032  0.5553 -0.7067
   72MOL0     C 9377   4.393  10.298   8.448  0.5204 -0.2714  0.5300
   72MOL0     C 9378   4.300  10.399   8.477 -0.2462 -0.1865  0.0399
   72MOL0     C 9379   4.242  10.412   8.612 -0.3080 -0.6836  1.0642
   72MOL0     O 9380   4.140  10.498   8.644  0.3644  1.1420  0.8885
   72MOL0     C 9381   4.070  10.572   8.541 -0.4055  0.6629 -0.6408
   72MOL0     C 9382   3.948  10.647   8.614 -0.7433  0.1858  0.5524
   72MOL0     C 9383   3.921  10.790   8.561  0.3626 -0.1597 -0.2974
   72MOL0     C 9384   3.841  10.870   8.655  0.5954 -1.1969 -0.5039
   72MOL0     C 9385   3.687  10.844   8.637 -0.3945  0.3203  0.2666
   72MOL0     C 9386   3.609  10.887   8.760 -0.0141  0.0020  0.4587
   72MOL0     C 9387   3.458  10.900   8.743 -1.2834 -0.1486 -0.3400
   72MOL0     C 9388   3.400  10.944   8.882 -1.1898 -0.7799  0.4489
   72MOL0     N 9389   3.262  10.973   8.873  0.4092  0.3602  0.0088
   72MOL0     C 9390   3.175  10.873   8.904  0.2488  0.3481 -0.4760
   72MOL0     C 9391   3.051  10.924   8.890 -0.6955  0.6717 -0.0487
   72MOL0     C 9392   2.927  10.855   8.931  0.6271 -0.4669 -0.5038
   72MOL0     C 9393   2.802  10.947   8.904  0.1834  0.9606  0.3456
   72MOL0     C 9394   2.673  10.869   8.930 -0.0213  0.1297 -0.9771
   72MOL0     C 9395   2.563  10.969   8.917 -0.1661  0.1641  0.4309
   72MOL0     O 9396   2.446  10.899   8.876 -1.1660  0.1920  0.4561
   72MOL0     C 9397   2.326  10.963   8.874 -0.1512 -0.5986 -0.9783
   72MOL0     C 9398   2.221  10.884   8.840 -0.5742  0.9363  0.0947
   72MOL0     C 9399   2.088  10.915   8.867 -0.5628 -0.2293 -0.8647
   72MOL0     C 9400   2.054  11.048   8.901 -1.7352  0.2417  0.7033
   72MOL0     C 9401   1.910  11.080   8.910 -0.3934 -0.3670 -0.5075
   72MOL0     O 9402   1.890  11.224   8.935  0.3323  0.5172  0.5126
   72MOL0     C 9403   1.769  11.284   8.963 -0.1494  0.2996  0.4685
   72MOL0     C 9404   1.755  11.418   8.936  0.9428 -0.3628  0.1962
   72MOL0     C 9405   1.633  11.477   8.939 -0.0167 -0.1041  0.4782
   72MOL0     C 9406   1.513  11.399   8.966 -0.6677 -0.3193 -0.5428
   72MOL0     O 9407   1.390  11.461   8.953 -0.9714  0.4651  0.2186
   72MOL0     C 9408   1.313  11.409   8.849  0.7526 -0.0212  0.4729
   72MOL0     C 9409   1.162  11.456   8.871 -0.2499  0.4409  0.0497
   72MOL0     C 9410   1.093  11.433   9.007 -0.9709  0.1890 -0.5091
   72MOL0     C 9411   1.086  11.279   9.041 -0.0248 -0.0786 -0.5498
   72MOL0     C 9412   1.001  11.198   8.941  0.2184  0.2751  0.2170
   72MOL0     C 9413   0.850  11.253   8.919 -0.3895 -0.2611  0.6628
   72MOL0     C 9414   0.760  11.158   8.828 -0.0608 -0.3049  0.5305
   72MOL0     C 9415   0.630  11.219   8.799 -0.1414 -0.9364 -0.8925
   72MOL0    Cl 9416   0.526  11.191   8.956  0.4707 -0.1935 -0.1601
   72MOL0     C 9417   1.530  11.260   9.005  0.1580 -0.4054  1.1068
   72MOL0     C 9418   1.659  11.201   9.008 -0.0439 -0.0429 -0.3760
   72MOL0     O 9419   1.822  10.996   8.892  0.0287  0.7115 -1.1080
   72MOL0     C 9420   2.164  11.140   8.917 -0.2337 -0.7081  0.1011
   72MOL0     C 9421   2.301  11.094   8.912 -0.0105 -0.2158  0.3171
   72MOL0     N 9422   3.067  11.049   8.849 -0.1099 -0.4097 -0.9262
   72MOL0     N 9423   3.193  11.077   8.835  0.4324 -0.0990 -0.8880
   72MOL0     C 9424   4.287  10.319   8.704  0.2399  1.1245 -0.2835
   72MOL0     C 9425   4.384  10.220   8.666  0.4320 -1.0332  0.8242
   72MOL0     C 9426   4.576   9.893   8.417  0.6639  0.2392 -0.0613
   72MOL0     C 9427   4.683   9.871   8.512 -0.3256 -0.9470 -0.0970
   72MOL0     C 9428   4.753   9.757   8.514 -0.1756 -0.6891  0.0379
   72MOL0     C 9429   4.745   9.663   8.412 -0.4309 -0.4233 -0.5623
   72MOL0     O 9430   4.826   9.554   8.417 -0.0868  0.7002 -0.4187
   72MOL0     C 9431   4.828   9.458   8.315  0.1072  0.7301  0.7022
   72MOL0     C 9432   4.948   9.359   8.341 -0.4884  0.1774  0.2552
   72MOL0     C 9433   5.083   9.427   8.302  0.6184 -0.1612  0.9247
   72MOL0     C 9434   5.203   9.343   8.309 -0.8935  0.3999  0.3807
   72MOL0     C 9435   5.196   9.230   8.206 -0.1618  0.0099 -0.5210
   72MOL0     C 9436   5.210   9.127   8.143  0.2732 -0.0996  0.3997
   72MOL0     C 9437   4.639   9.684   8.323 -0.0922 -0.7477 -0.2570
   72MOL0     C 9438   4.561   9.800   8.317 -0.6580  0.1394 -0.1031
   72MOL0     H 9439   4.423  10.287   8.344  1.0005 -0.8956  0.7266
   72MOL0     H 9440   4.268  10.473   8.404  0.7682  0.7888  0.5563
   72MOL0     H 9441   4.035  10.505   8.462 -0.6442  2.9348 -2.5907
   72MOL0     H 9442   4.134  10.655   8.510 -2.5549  2.4336 -0.5818
   72MOL0     H 9443   3.970  10.661   8.721  0.0927  1.9080  0.1839
   72MOL0     H 9444   3.853  10.595   8.598  1.3170 -4.4689  1.5495
   72MOL0     H 9445   3.863  10.786   8.468 -2.7925  0.7740  1.4807
   72MOL0     H 9446   4.020  10.834   8.550  0.4735 -0.5131 -0.7296
   72MOL0     H 9447   3.866  10.854   8.761  0.6852  1.8046  0.0081
   72MOL0     H 9448   3.867  10.973   8.630 -1.1577 -0.6991 -0.4127
   72MOL0     H 9449   3.675  10.740   8.607  1.5996 -0.1030  0.8444
   72MOL0     H 9450   3.661  10.909   8.552  2.3299  1.0609 -0.0861
   72MOL0     H 9451   3.649  10.986   8.783  1.6737 -0.2633 -1.1764
   72MOL0     H 9452   3.621  10.809   8.837 -3.8139  1.6012  2.9882
   72MOL0     H 9453   3.464  10.981   8.670  2.2468 -1.4393 -1.6893
   72MOL0     H 9454   3.413  10.809   8.703 -0.4957  0.0126 -1.6396
   72MOL0     H 9455   3.454  11.032   8.920  1.1715 -0.2413 -3.5494
   72MOL0     H 9456   3.423  10.860   8.948 -0.7598 -2.4538 -1.7083
   72MOL0     H 9457   3.176  10.768   8.932 -2.5379  0.1151 -0.9263
   72MOL0     H 9458   2.926  10.833   9.038 -1.7126 -0.0801 -0.3796
   72MOL0     H 9459   2.909  10.762   8.877  0.7605 -0.6042 -0.3082
   72MOL0     H 9460   2.808  10.968   8.796 -1.9582  0.4242  0.0824
   72MOL0     H 9461   2.808  11.038   8.965  0.8571  0.9626  0.2904
   72MOL0     H 9462   2.667  10.787   8.858 -1.9375 -1.5165  0.9048
   72MOL0     H 9463   2.674  10.824   9.030 -2.4430  1.8183 -0.0938
   72MOL0     H 9464   2.597  11.033   8.834  2.9683 -0.7756  0.8682
   72MOL0     H 9465   2.550  11.033   9.004  2.2291 -1.7866  2.3822
   72MOL0     H 9466   2.247  10.787   8.798  1.0643  0.4612  2.0340
   72MOL0     H 9467   2.001  10.852   8.853 -0.3880 -0.4446 -0.9920
   72MOL0     H 9468   1.843  11.475   8.907  0.4620  0.5371  0.4554
   72MOL0     H 9469   1.606  11.579   8.915 -1.6525 -0.7869 -0.7638
   72MOL0     H 9470   1.304  11.300   8.835 -2.6628  0.0422  1.0991
   72MOL0     H 9471   1.345  11.453   8.755 -0.3274  0.5455  0.3478
   72MOL0     H 9472   1.101  11.408   8.793  0.5453  2.9730 -2.3225
   72MOL0     H 9473   1.163  11.563   8.845  1.6917  0.8575  1.6227
   72MOL0     H 9474   0.990  11.468   8.996 -0.9145  0.2566 -0.8463
   72MOL0     H 9475   1.138  11.502   9.079  0.4795 -0.9974 -0.2483
   72MOL0     H 9476   1.189  11.242   9.036  0.0686  0.0548  0.2090
   72MOL0     H 9477   1.047  11.276   9.143 -1.3556  0.7289 -1.0028
   72MOL0     H 9478   0.993  11.101   8.991  0.5215  1.0508  1.8626
   72MOL0     H 9479   1.056  11.178   8.850  1.6895  3.6350  0.2256
   72MOL0     H 9480   0.867  11.345   8.863 -0.4658  0.0658  1.1624
   72MOL0     H 9481   0.798  11.272   9.014 -1.4266  0.5860 -0.0558
   72MOL0     H 9482   0.815  11.144   8.734 -1.6387 -0.2458 -0.4409
   72MOL0     H 9483   0.744  11.058   8.870 -1.4685 -1.3731 -2.3175
   72MOL0     H 9484   0.575  11.177   8.715  1.6085 -1.4647 -1.8345
   72MOL0     H 9485   0.624  11.325   8.773 -1.5983 -0.6855  0.3113
   72MOL0     H 9486   1.444  11.199   9.031 -2.6469  2.6629 -0.2129
   72MOL0     H 9487   1.670  11.098   9.038 -2.3290 -0.0233  0.7098
   72MOL0     H 9488   2.139  11.243   8.942 -0.5663 -0.7837  0.0893
   72MOL0     H 9489   2.377  11.170   8.928  1.9571 -1.8959 -0.6433
   72MOL0     H 9490   4.250  10.321   8.806  2.1299 -0.5479  0.4994
   72MOL0     H 9491   4.411  10.158   8.752 -0.2286 -0.7695  1.2286
   72MOL0     H 9492   4.695   9.947   8.589 -0.2881  0.7948 -1.7400
   72MOL0     H 9493   4.820   9.731   8.595 -0.2550  0.8485  0.6422
   72MOL0     H 9494   4.833   9.505   8.217 -0.3017  0.4915  0.5654
   72MOL0     H 9495   4.734   9.403   8.316 -1.1257  2.7718  0.9615
   72MOL0     H 9496   4.946   9.318   8.442  0.5883 -0.4696  0.0297
   72MOL0     H 9497   4.942   9.274   8.272 -0.9697  0.3703  0.0575
   72MOL0     H 9498   5.102   9.504   8.377 -1.7033  1.9916 -0.5292
   72MOL0     H 9499   5.077   9.463   8.199  4.7310 -2.3646 -0.2964
   72MOL0     H 9500   5.287   9.408   8.282 -1.0833  0.8623  0.8767
   72MOL0     H 9501   5.209   9.308   8.412 -1.4723 -0.7767  0.0281
   72MOL0     H 9502   5.241   9.048   8.076  1.3471 -0.3188  1.1312
   72MOL0     H 9503   4.638   9.615   8.239 -1.8746  0.6133 -1.4327
   72MOL0     H 9504   4.491   9.803   8.234 -2.6309 -0.9205  1.4101
   73MOL0     O 9505   9.271   9.907   4.438  0.1446  0.0509  0.0608
   73MOL0     C 9506   9.273   9.956   4.326  0.0674  0.4051  0.9021
   73MOL0     O 9507   9.170  10.005   4.255 -0.9990  0.1895  0.2101
   73MOL0     C 9508   9.059  10.038   4.325  0.0864  0.1001 -0.0721
   73MOL0     C 9509   9.040  10.172   4.375 -1.2008 -0.3170  1.0255
   73MOL0     C 9510   8.929  10.205   4.445 -0.4782 -0.1876  0.2504
   73MOL0     C 9511   8.830  10.112   4.475 -0.1365 -0.5272 -0.7624
   73MOL0     O 9512   8.718  10.158   4.543  0.1926 -0.0404  0.0533
   73MOL0     C 9513   8.597  10.090   4.502 -0.2935 -0.8608  0.2407
   73MOL0     C 9514   8.479  10.184   4.504 -0.1964  0.0396 -0.3716
   73MOL0     C 9515   8.341  10.107   4.483 -0.0780  0.0141 -0.8676
   73MOL0     C 9516   8.260  10.073   4.607 -0.2193  0.7057  0.3421
   73MOL0     C 9517   8.140   9.995   4.570  0.7882  0.3222 -0.3536
   73MOL0     C 9518   8.023  10.027   4.665  0.8501 -0.0523  0.8316
   73MOL0     C 9519   7.903   9.929   4.672 -0.6208 -0.3112 -0.2071
   73MOL0     C 9520   7.842   9.949   4.531 -0.6140  0.0250 -0.6964
   73MOL0     N 9521   7.729   9.848   4.519 -0.1007  0.2373 -0.0099
   73MOL0     C 9522   7.722   9.757   4.416  0.0370 -0.0471  0.6884
   73MOL0     C 9523   7.582   9.724   4.421  0.3879  0.0637 -1.0912
   73MOL0     C 9524   7.508   9.620   4.352 -0.8251  0.1824 -0.3707
   73MOL0     C 9525   7.408   9.678   4.254  1.3577  0.3665 -0.1883
   73MOL0     C 9526   7.276   9.712   4.317  0.7685  0.5211 -0.6438
   73MOL0     C 9527   7.152   9.679   4.232  0.2124 -0.7698 -0.4517
   73MOL0     O 9528   7.034   9.719   4.305 -0.5092  0.6776 -0.2566
   73MOL0     C 9529   6.913   9.679   4.252 -0.5497 -0.2264 -0.7866
   73MOL0     C 9530   6.898   9.570   4.162 -0.8153 -0.5523 -0.5703
   73MOL0     C 9531   6.768   9.534   4.143  0.2327  0.7595  0.1933
   73MOL0     C 9532   6.648   9.593   4.180 -0.5905  0.2323 -0.0421
   73MOL0     C 9533   6.517   9.539   4.137 -0.3076  0.1157  0.2902
   73MOL0     O 9534   6.401   9.556   4.218 -0.2856 -0.4634  0.0288
   73MOL0     C 9535   6.288   9.511   4.165 -0.1600  0.5958 -0.2613
   73MOL0     C 9536   6.237   9.385   4.216  0.2751  1.0378  0.2990
   73MOL0     C 9537   6.102   9.346   4.191 -0.0558 -0.4925  0.3564
   73MOL0     C 9538   6.023   9.436   4.109  0.4891  0.9082 -0.0232
   73MOL0     O 9539   5.885   9.430   4.091 -0.8539  0.0034  0.0371
   73MOL0     C 9540   5.839   9.298   4.086  0.2156  0.2092 -0.1992
   73MOL0     C 9541   5.687   9.296   4.062 -0.2077  0.4354 -0.1865
   73MOL0     C 9542   5.664   9.324   3.910 -0.1826  0.9495 -0.8672
   73MOL0     C 9543   5.519   9.343   3.884  0.4924 -0.2020  0.2720
   73MOL0     C 9544   5.439   9.209   3.897 -0.4622 -0.1348  0.9608
   73MOL0     C 9545   5.295   9.246   3.921  0.4065  0.9735 -0.0511
   73MOL0     C 9546   5.209   9.127   3.961 -0.4586  0.8231  0.3186
   73MOL0     C 9547   5.061   9.146   4.005 -0.4865 -1.0482  1.2123
   73MOL0    Cl 9548   4.966   9.152   3.865 -0.0635 -0.0122 -0.3285
   73MOL0     C 9549   6.073   9.555   4.065 -0.4494 -0.2523  0.6700
   73MOL0     C 9550   6.211   9.596   4.092  0.8112  0.0707 -0.1600
   73MOL0     O 9551   6.519   9.468   4.041  0.0029  0.1842  0.0992
   73MOL0     C 9552   6.664   9.701   4.267 -0.3562  0.0184  0.3933
   73MOL0     C 9553   6.795   9.743   4.304  0.2509  0.6423 -0.3693
   73MOL0     N 9554   7.517   9.802   4.513 -0.1019  0.1756  0.1551
   73MOL0     N 9555   7.605   9.868   4.570  0.0153 -0.2756  0.1283
   73MOL0     C 9556   8.851   9.980   4.437  0.0999  0.4635  0.1600
   73MOL0     C 9557   8.964   9.936   4.359  1.3017 -0.1932  0.5636
   73MOL0     C 9558   9.396   9.936   4.250  0.1104 -0.2908 -0.3956
   73MOL0     C 9559   9.489   9.844   4.290 -0.0676 -0.1097  0.4870
   73MOL0     C 9560   9.611   9.837   4.219  0.9687 -0.0624 -0.1086
   73MOL0     C 9561   9.647   9.912   4.104  0.1635  0.2997 -0.3063
   73MOL0     O 9562   9.753   9.870   4.035 -0.5049 -0.6077 -0.2052
   73MOL0     C 9563   9.814   9.961   3.939  0.3225 -0.1798 -0.4679
   73MOL0     C 9564   9.949   9.901   3.900 -0.1983  0.3733 -0.3004
   73MOL0     C 9565  10.016  10.007   3.814  0.1974  0.6573  0.0115
   73MOL0     C 9566  10.164   9.989   3.804  0.3215 -0.6652  0.2158
   73MOL0     C 9567  10.225  10.070   3.696  0.1911  0.3886 -0.8869
   73MOL0     C 9568  10.273  10.129   3.604  0.0187  0.3830  0.1262
   73MOL0     C 9569   9.555  10.016   4.072  0.5882  0.3879  0.2272
   73MOL0     C 9570   9.432  10.034   4.146  0.0872 -0.2798  0.1611
   73MOL0     H 9571   9.112  10.249   4.348 -1.3731  0.2102  2.0457
   73MOL0     H 9572   8.912  10.306   4.481 -1.6499 -0.7587  1.3780
   73MOL0     H 9573   8.588  10.018   4.584  0.6556  0.9271  2.0170
   73MOL0     H 9574   8.601  10.044   4.403 -3.9674  3.0451 -2.0816
   73MOL0     H 9575   8.492  10.257   4.424  0.9966 -0.2536 -0.4572
   73MOL0     H 9576   8.486  10.234   4.601 -0.2147 -0.0915 -0.3026
   73MOL0     H 9577   8.367  10.013   4.435  2.3627 -1.1576  2.4206
   73MOL0     H 9578   8.278  10.171   4.420  1.8106 -0.0066 -2.9065
   73MOL0     H 9579   8.318  10.017   4.681  2.1173 -0.0018 -1.8601
   73MOL0     H 9580   8.220  10.165   4.651 -2.5342  1.0491 -2.2271
   73MOL0     H 9581   8.167   9.889   4.583 -1.2111 -0.1794 -0.0804
   73MOL0     H 9582   8.120  10.010   4.463  2.0509 -1.1327 -0.8447
   73MOL0     H 9583   7.983  10.126   4.645 -2.1139 -1.2887  0.1923
   73MOL0     H 9584   8.055  10.032   4.770 -0.4678  1.5310  1.1884
   73MOL0     H 9585   7.930   9.824   4.686  0.5357 -0.0298 -0.2406
   73MOL0     H 9586   7.839   9.962   4.754 -1.9312  1.2756 -1.7847
   73MOL0     H 9587   7.917   9.925   4.455  0.0528 -1.1378  0.2748
   73MOL0     H 9588   7.809  10.051   4.512  3.6226  1.8930  0.9768
   73MOL0     H 9589   7.804   9.718   4.356 -0.7117  0.9301 -1.0647
   73MOL0     H 9590   7.466   9.559   4.433 -1.6169  2.2099  0.8266
   73MOL0     H 9591   7.572   9.561   4.286  0.2561  0.9291 -0.0230
   73MOL0     H 9592   7.388   9.609   4.172 -2.2580  2.5382 -1.3685
   73MOL0     H 9593   7.448   9.773   4.217 -0.1354  1.7630  1.5679
   73MOL0     H 9594   7.272   9.647   4.405 -0.1445  2.0979  0.5694
   73MOL0     H 9595   7.280   9.819   4.342  2.8757  0.6866 -1.5583
   73MOL0     H 9596   7.151   9.572   4.212  0.4251 -0.5014 -2.0058
   73MOL0     H 9597   7.152   9.737   4.139  0.7074  2.2179  1.2732
   73MOL0     H 9598   6.974   9.507   4.117 -1.1735 -0.7971 -0.8375
   73MOL0     H 9599   6.758   9.446   4.080 -0.3570 -0.6529  2.1483
   73MOL0     H 9600   6.303   9.321   4.274 -0.2776 -0.0831 -0.2579
   73MOL0     H 9601   6.080   9.247   4.228  2.4874 -0.3036  2.6375
   73MOL0     H 9602   5.859   9.245   4.180  1.0399 -0.4205 -0.7196
   73MOL0     H 9603   5.894   9.241   4.011  1.3226  0.2221  0.5792
   73MOL0     H 9604   5.645   9.380   4.119 -2.1804 -0.9860  0.5410
   73MOL0     H 9605   5.644   9.199   4.088  3.3115 -1.3214 -0.2917
   73MOL0     H 9606   5.694   9.237   3.851  1.4248  0.0775  1.1313
   73MOL0     H 9607   5.721   9.412   3.882  2.7467 -1.2374 -2.2727
   73MOL0     H 9608   5.485   9.423   3.951 -0.5191  0.0148 -0.4756
   73MOL0     H 9609   5.499   9.374   3.781  1.4904  1.0349  0.4360
   73MOL0     H 9610   5.471   9.156   3.987  0.8158  1.9888  1.8360
   73MOL0     H 9611   5.458   9.148   3.808  3.9245 -0.9404  2.2138
   73MOL0     H 9612   5.236   9.288   3.839 -1.0126 -1.1731 -0.2237
   73MOL0     H 9613   5.291   9.320   4.002  0.6824  0.3636  0.5318
   73MOL0     H 9614   5.206   9.050   3.884 -2.6307 -0.4103  1.5557
   73MOL0     H 9615   5.263   9.075   4.040  0.1814  2.2451  0.8603
   73MOL0     H 9616   5.053   9.234   4.070  3.5264  2.0525 -2.0077
   73MOL0     H 9617   5.034   9.063   4.071  1.2460 -3.7623 -1.2822
   73MOL0     H 9618   6.023   9.630   4.005  2.2019  0.9218 -0.2534
   73MOL0     H 9619   6.247   9.694   4.060 -2.5150  1.9110  1.2530
   73MOL0     H 9620   6.580   9.761   4.301  0.9012  0.1021  3.7051
   73MOL0     H 9621   6.805   9.833   4.365  0.8873  0.9073 -0.8482
   73MOL0     H 9622   8.765   9.915   4.445 -1.0494  1.7630 -1.0889
   73MOL0     H 9623   8.987   9.834   4.329 -0.3310  0.2273 -2.5156
   73MOL0     H 9624   9.479   9.778   4.376 -1.5340  0.5441  0.8528
   73MOL0     H 9625   9.682   9.757   4.240  1.6751  1.3230  3.6009
   73MOL0     H 9626   9.833  10.058   3.987  0.5432 -0.2520 -0.4088
   73MOL0     H 9627   9.743   9.978   3.858 -0.6182 -1.5733  0.0381
   73MOL0     H 9628  10.007   9.877   3.990 -0.5077 -1.3955 -0.5454
   73MOL0     H 9629   9.947   9.806   3.847  5.8028 -1.7121  2.3255
   73MOL0     H 9630   9.998  10.103   3.863  2.3311 -0.6785  3.7957
   73MOL0     H 9631   9.966  10.009   3.717 -2.0972 -2.3767  0.9764
   73MOL0     H 9632  10.207  10.007   3.904  1.4694 -2.8617  0.1670
   73MOL0     H 9633  10.188   9.883   3.799 -0.1752 -0.7526 -0.3766
   73MOL0     H 9634  10.320  10.185   3.525  1.0972  1.8566  1.7505
   73MOL0     H 9635   9.568  10.080   3.985 -1.9760 -0.4303 -0.8728
   73MOL0     H 9636   9.372  10.121   4.119  1.7034  0.8142 -0.0352
   74MOL0     O 9637  11.020   6.861   3.343  0.1750 -0.0926 -0.9751
   74MOL0     C 9638  11.046   6.796   3.238 -0.3702 -0.2081  0.7588
   74MOL0     O 9639  10.955   6.732   3.156 -0.1970  0.1362 -0.0756
   74MOL0     C 9640  10.817   6.757   3.168 -0.3247  0.0072 -0.6068
   74MOL0     C 9641  10.746   6.734   3.286  0.0541  0.5938  0.7294
   74MOL0     C 9642  10.608   6.769   3.291  0.0171 -0.3240 -0.3221
   74MOL0     C 9643  10.551   6.833   3.175 -0.3177  0.0503 -0.0321
   74MOL0     O 9644  10.422   6.850   3.187  0.1693 -0.3138  0.3917
   74MOL0     C 9645  10.350   6.910   3.085  0.1293 -0.0640  0.0612
   74MOL0     C 9646  10.198   6.912   3.127 -0.5480 -0.6972 -0.0867
   74MOL0     C 9647  10.187   6.957   3.279 -0.2452  0.0906 -0.7638
   74MOL0     C 9648  10.045   7.005   3.313  0.3264 -0.0616 -0.4271
   74MOL0     C 9649   9.950   6.889   3.346  0.3235  0.1840 -0.5584
   74MOL0     C 9650   9.812   6.955   3.390 -0.3974  0.3083  0.1727
   74MOL0     C 9651   9.694   6.866   3.384  0.0291  0.6796  0.9848
   74MOL0     C 9652   9.566   6.939   3.439 -0.6779  0.4088  0.0193
   74MOL0     N 9653   9.442   6.846   3.438  0.4205  1.1175 -0.2075
   74MOL0     C 9654   9.361   6.811   3.327 -0.1676  0.0788 -0.1233
   74MOL0     C 9655   9.285   6.712   3.377  0.5147  0.4236 -0.5783
   74MOL0     C 9656   9.173   6.643   3.305 -1.0297 -0.4348  0.2596
   74MOL0     C 9657   9.047   6.699   3.363  0.0990 -0.6780  0.1485
   74MOL0     C 9658   8.911   6.692   3.289  0.1680 -0.0824  0.1669
   74MOL0     C 9659   8.909   6.775   3.161 -0.3432  0.0056  0.4433
   74MOL0     O 9660   8.856   6.905   3.209  0.2695 -0.4120  0.1018
   74MOL0     C 9661   8.720   6.922   3.216 -0.0544  0.2388  0.3387
   74MOL0     C 9662   8.680   7.029   3.295 -0.1198 -0.4492 -0.6466
   74MOL0     C 9663   8.554   7.084   3.288  0.2776  0.3839 -0.1266
   74MOL0     C 9664   8.452   7.011   3.220  0.6607 -0.7251  0.1899
   74MOL0     C 9665   8.311   7.056   3.201  0.1526 -0.6498  1.0737
   74MOL0     O 9666   8.250   7.010   3.085  0.5749 -0.4080  0.1456
   74MOL0     C 9667   8.116   7.034   3.061  0.2805 -0.1048 -0.5702
   74MOL0     C 9668   8.044   6.949   2.974 -0.1221  0.2817  0.6800
   74MOL0     C 9669   7.908   6.969   2.949  0.4194  0.3962  0.4403
   74MOL0     C 9670   7.839   7.073   3.010  1.0386  0.8021  0.1976
   74MOL0     O 9671   7.701   7.093   3.001 -0.0382  0.3025 -0.2447
   74MOL0     C 9672   7.625   7.028   2.894  0.1167  0.2332 -0.2751
   74MOL0     C 9673   7.484   7.075   2.886  0.3242  0.0160  0.0810
   74MOL0     C 9674   7.410   7.040   3.017 -0.2831  0.8459  0.7196
   74MOL0     C 9675   7.260   7.082   3.013  0.1406 -0.2846 -0.0816
   74MOL0     C 9676   7.191   7.066   3.148 -0.2758 -0.1769 -0.1968
   74MOL0     C 9677   7.052   7.128   3.156 -0.1706  0.5931  0.1194
   74MOL0     C 9678   6.957   7.095   3.035 -0.2138  0.2843  0.1176
   74MOL0     C 9679   6.837   7.186   3.038  0.2888  0.7239 -0.0526
   74MOL0    Cl 9680   6.894   7.346   3.007  0.4734  0.1241 -0.2636
   74MOL0     C 9681   7.914   7.172   3.074 -0.1328  0.0177  0.0131
   74MOL0     C 9682   8.048   7.147   3.104 -0.2130 -0.1935  0.2951
   74MOL0     O 9683   8.267   7.118   3.293  0.9015  0.0448  0.3901
   74MOL0     C 9684   8.491   6.896   3.144 -0.7585 -0.0635 -0.3458
   74MOL0     C 9685   8.620   6.854   3.144  0.3492 -0.5314 -0.1487
   74MOL0     N 9686   9.313   6.694   3.512 -0.2231  0.2694 -0.3116
   74MOL0     N 9687   9.403   6.777   3.550  0.4414 -0.2009  0.9934
   74MOL0     C 9688  10.624   6.854   3.058  0.7766  0.4146 -0.2074
   74MOL0     C 9689  10.757   6.826   3.055  0.3627  0.5092 -0.0585
   74MOL0     C 9690  11.183   6.781   3.213  0.3474 -0.2932  0.1023
   74MOL0     C 9691  11.279   6.816   3.310  0.2069 -0.0889  0.1244
   74MOL0     C 9692  11.415   6.801   3.279 -0.4917 -0.0700 -0.1724
   74MOL0     C 9693  11.456   6.742   3.160  0.4216 -0.1129 -0.1632
   74MOL0     O 9694  11.592   6.721   3.152  0.1114 -0.2957  0.2112
   74MOL0     C 9695  11.654   6.645   3.046  0.9520 -0.0426  0.1642
   74MOL0     C 9696  11.803   6.675   3.056  0.1319  0.3562  0.0238
   74MOL0     C 9697  11.835   6.817   3.048  0.1747 -0.3931 -0.2200
   74MOL0     C 9698  11.973   6.861   3.095  0.1634  0.2699 -0.3477
   74MOL0     C 9699  12.082   6.771   3.048  0.0448 -0.0053  0.6346
   74MOL0     C 9700  12.169   6.699   2.998  0.7943 -0.0004  0.8590
   74MOL0     C 9701  11.360   6.686   3.072  0.3112 -0.3661 -0.4423
   74MOL0     C 9702  11.222   6.712   3.095  0.1693 -0.0030  0.3310
   74MOL0     H 9703  10.798   6.690   3.370 -0.5614  0.0312  0.8245
   74MOL0     H 9704  10.537   6.748   3.371  1.6029  0.1756  1.2800
   74MOL0     H 9705  10.366   6.849   2.995 -0.1074  1.8365 -1.3390
   74MOL0     H 9706  10.384   7.012   3.060 -1.0483 -0.2165 -2.5217
   74MOL0     H 9707  10.160   6.812   3.102  0.0625 -0.2398 -3.1723
   74MOL0     H 9708  10.148   6.980   3.058  1.5586 -0.6758 -1.6779
   74MOL0     H 9709  10.261   7.037   3.293  3.1736 -3.0154  0.3582
   74MOL0     H 9710  10.215   6.881   3.352  2.5713  1.1817 -0.5606
   74MOL0     H 9711  10.055   7.067   3.402  0.3615 -0.4375 -0.1687
   74MOL0     H 9712  10.004   7.059   3.227  0.7673  0.0939 -0.5403
   74MOL0     H 9713   9.984   6.837   3.436  0.2546  0.5540 -0.3135
   74MOL0     H 9714   9.937   6.817   3.265  2.7031 -0.4496 -0.4648
   74MOL0     H 9715   9.796   7.040   3.325 -3.6687  0.0847  0.5587
   74MOL0     H 9716   9.817   7.001   3.489 -2.3759 -2.6073  1.7900
   74MOL0     H 9717   9.684   6.837   3.279 -0.3962 -1.1813  1.5014
   74MOL0     H 9718   9.713   6.768   3.430  0.0784  0.9713  1.5975
   74MOL0     H 9719   9.556   7.035   3.386  3.5939  1.1445  0.1287
   74MOL0     H 9720   9.591   6.968   3.542  1.7595  3.5712 -1.2494
   74MOL0     H 9721   9.365   6.849   3.226 -2.2911 -1.1460 -0.7422
   74MOL0     H 9722   9.175   6.536   3.325 -2.3295 -0.7457 -1.0647
   74MOL0     H 9723   9.181   6.657   3.197 -0.9931  2.3998  0.5419
   74MOL0     H 9724   9.057   6.803   3.396  1.3393 -0.5050 -0.7202
   74MOL0     H 9725   9.031   6.646   3.458  0.4886  0.0414  0.6271
   74MOL0     H 9726   8.900   6.588   3.260 -0.6330 -0.7073  2.5346
   74MOL0     H 9727   8.828   6.720   3.355 -1.4213  3.2633 -2.8666
   74MOL0     H 9728   8.849   6.724   3.084 -2.7346  3.9897 -0.6449
   74MOL0     H 9729   9.006   6.783   3.111 -0.9472 -2.9783 -1.5144
   74MOL0     H 9730   8.751   7.087   3.354 -0.3015 -0.8826  0.0109
   74MOL0     H 9731   8.532   7.175   3.343 -3.7760 -0.0373 -0.7342
   74MOL0     H 9732   8.110   6.877   2.926 -0.7158  1.5372 -2.2676
   74MOL0     H 9733   7.854   6.907   2.878  0.8111 -0.7940  1.1408
   74MOL0     H 9734   7.635   6.920   2.900 -0.5104  0.2123  0.5967
   74MOL0     H 9735   7.675   7.047   2.798  0.8317  1.4692  0.3153
   74MOL0     H 9736   7.431   7.034   2.799  0.7078  4.5865 -2.6338
   74MOL0     H 9737   7.475   7.184   2.878 -3.2877  0.0802  2.4311
   74MOL0     H 9738   7.455   7.090   3.103 -0.4567 -1.8404  2.4715
   74MOL0     H 9739   7.417   6.933   3.037  2.4146  0.7614 -0.2135
   74MOL0     H 9740   7.255   7.189   2.990 -1.1364 -0.6776 -1.8513
   74MOL0     H 9741   7.201   7.022   2.944 -0.6862 -0.8473  1.0863
   74MOL0     H 9742   7.258   7.104   3.224  2.9625 -0.2897 -2.7778
   74MOL0     H 9743   7.183   6.958   3.168 -0.9463 -0.3649 -1.3732
   74MOL0     H 9744   7.060   7.237   3.159  1.9421  0.5867 -2.2261
   74MOL0     H 9745   7.000   7.098   3.248  0.0763  2.3135  0.8619
   74MOL0     H 9746   7.003   7.129   2.943 -2.5829  1.6501 -0.6564
   74MOL0     H 9747   6.930   6.989   3.030 -0.6517  0.4533 -2.0290
   74MOL0     H 9748   6.781   7.183   3.132  0.8276  1.4482  0.3033
   74MOL0     H 9749   6.756   7.156   2.971 -0.9907 -3.0795  2.8267
   74MOL0     H 9750   7.854   7.256   3.109 -0.1341  0.0747 -0.1234
   74MOL0     H 9751   8.099   7.225   3.160  0.1248 -1.5015  1.8613
   74MOL0     H 9752   8.425   6.843   3.076 -0.9361  0.6328 -0.7197
   74MOL0     H 9753   8.664   6.780   3.078  2.2083 -0.7296  1.2438
   74MOL0     H 9754  10.578   6.886   2.965  2.6505  0.3115 -1.2326
   74MOL0     H 9755  10.813   6.849   2.965 -0.1465  1.6843 -0.1008
   74MOL0     H 9756  11.255   6.859   3.407 -0.0036 -2.5151  1.2499
   74MOL0     H 9757  11.487   6.840   3.350 -0.8067 -0.5326  0.4112
   74MOL0     H 9758  11.611   6.674   2.950  0.2129 -2.0722 -0.1533
   74MOL0     H 9759  11.637   6.540   3.070  0.0159  0.3573  1.3669
   74MOL0     H 9760  11.837   6.639   3.153  1.8681 -1.7054 -1.2629
   74MOL0     H 9761  11.859   6.615   2.983  1.5300  0.5678  0.8679
   74MOL0     H 9762  11.766   6.868   3.116 -0.6844 -1.0112 -0.6003
   74MOL0     H 9763  11.824   6.856   2.946 -0.9729 -4.1756 -1.7245
   74MOL0     H 9764  11.989   6.967   3.076 -0.1768  0.6125  1.1493
   74MOL0     H 9765  11.985   6.844   3.202  3.8652 -3.6854 -1.0932
   74MOL0     H 9766  12.232   6.637   2.937 -2.0707 -1.4416 -0.8495
   74MOL0     H 9767  11.385   6.629   2.983 -1.2855 -1.1282 -0.4344
   74MOL0     H 9768  11.152   6.678   3.020 -0.5149 -0.0602  0.9844
   75MOL0     O 9769  10.375   6.144   7.145 -0.3566 -0.3102  0.2642
   75MOL0     C 9770  10.371   6.180   7.030 -0.1235  0.5978 -0.6148
   75MOL0     O 9771  10.257   6.195   6.956 -0.1821 -0.8332  0.1520
   75MOL0     C 9772  10.129   6.198   7.011 -0.1769 -0.1512  0.2439
   75MOL0     C 9773  10.025   6.221   6.925 -0.4090 -0.2243  0.1881
   75MOL0     C 9774   9.892   6.234   6.963 -0.4946  1.4284  0.2363
   75MOL0     C 9775   9.857   6.234   7.099 -0.0919 -0.6302 -0.3309
   75MOL0     O 9776   9.721   6.242   7.129 -0.1906 -0.3101 -0.0316
   75MOL0     C 9777   9.692   6.247   7.270 -0.5797  0.1125  0.9248
   75MOL0     C 9778   9.547   6.293   7.285 -0.2312  0.2119  0.1036
   75MOL0     C 9779   9.448   6.189   7.227  0.0389  0.3981 -0.4302
   75MOL0     C 9780   9.304   6.234   7.274 -0.2204  0.2848 -0.0912
   75MOL0     C 9781   9.197   6.158   7.200  0.3895  0.1838 -0.1569
   75MOL0     C 9782   9.065   6.173   7.266 -0.1635 -0.0709 -0.3066
   75MOL0     C 9783   8.958   6.124   7.171 -1.4020 -0.4799 -0.1999
   75MOL0     C 9784   8.815   6.167   7.212 -0.1894 -0.3974 -0.2562
   75MOL0     N 9785   8.712   6.103   7.125  0.7164  0.0981 -0.5005
   75MOL0     C 9786   8.624   6.165   7.042 -0.6089 -1.4674  0.9746
   75MOL0     C 9787   8.534   6.070   7.008  0.2483  0.4414 -0.2462
   75MOL0     C 9788   8.416   6.087   6.920 -0.7831 -0.0048  0.2259
   75MOL0     C 9789   8.310   6.187   6.962 -0.2309 -0.1129  0.0150
   75MOL0     C 9790   8.219   6.207   6.842 -0.9561  0.1484  0.3024
   75MOL0     C 9791   8.100   6.300   6.863 -1.0703  0.3437 -0.9637
   75MOL0     O 9792   8.036   6.317   6.735  0.3696  0.3830  0.3432
   75MOL0     C 9793   7.916   6.383   6.729  0.1880 -0.1054 -0.1846
   75MOL0     C 9794   7.859   6.458   6.837 -0.3884  0.4448  0.2239
   75MOL0     C 9795   7.749   6.534   6.820  0.7120 -0.0600 -0.4651
   75MOL0     C 9796   7.687   6.540   6.694 -1.1911  0.2857 -0.3487
   75MOL0     C 9797   7.559   6.602   6.673 -0.5894 -0.1708  0.6871
   75MOL0     O 9798   7.527   6.634   6.546 -0.3351 -0.5816  0.1185
   75MOL0     C 9799   7.435   6.730   6.513  0.4084  0.2660  0.7305
   75MOL0     C 9800   7.469   6.816   6.398  1.3941 -0.5675 -0.5587
   75MOL0     C 9801   7.365   6.897   6.345  0.0798  0.2535 -0.7546
   75MOL0     C 9802   7.239   6.903   6.403 -0.1371 -0.7090  0.6476
   75MOL0     O 9803   7.143   6.985   6.344  0.2185 -0.8664 -0.0769
   75MOL0     C 9804   7.009   6.943   6.368  0.1055 -0.0553  0.4153
   75MOL0     C 9805   6.924   7.018   6.265 -0.7999 -0.3881  0.2320
   75MOL0     C 9806   6.775   7.030   6.306 -0.4837 -0.4584 -0.4831
   75MOL0     C 9807   6.674   7.062   6.198 -0.7216  0.2569 -0.2654
   75MOL0     C 9808   6.538   7.028   6.243  0.0314 -0.4811  0.1298
   75MOL0     C 9809   6.439   7.103   6.146 -0.5342  0.5145 -0.4074
   75MOL0     C 9810   6.301   7.081   6.209  0.2969 -0.5801 -0.1657
   75MOL0     C 9811   6.181   7.115   6.127 -0.0918  0.4229  0.2512
   75MOL0    Cl 9812   6.022   7.064   6.205 -0.1725  0.0046  0.5539
   75MOL0     C 9813   7.207   6.828   6.512 -0.1790  0.9229 -0.2082
   75MOL0     C 9814   7.305   6.745   6.571  0.5910 -0.5438  0.2802
   75MOL0     O 9815   7.498   6.638   6.773 -0.0395 -0.6427 -0.1035
   75MOL0     C 9816   7.736   6.462   6.587 -0.6751 -0.3111 -0.8232
   75MOL0     C 9817   7.850   6.386   6.607  0.6951  0.0412  0.1610
   75MOL0     N 9818   8.574   5.958   7.077  0.5085 -0.6287 -0.6686
   75MOL0     N 9819   8.671   5.981   7.148  0.6285  0.5201  0.2799
   75MOL0     C 9820   9.965   6.223   7.190 -0.2159  0.1163 -0.4623
   75MOL0     C 9821  10.096   6.201   7.141 -0.3287  0.3569 -0.3921
   75MOL0     C 9822  10.500   6.194   6.963 -0.5907  0.4117  0.5802
   75MOL0     C 9823  10.509   6.262   6.847  0.1324  0.1374 -0.0621
   75MOL0     C 9824  10.629   6.256   6.770  0.1588  0.0369  0.2771
   75MOL0     C 9825  10.737   6.185   6.821  0.0717 -0.3537 -0.0763
   75MOL0     O 9826  10.852   6.169   6.748 -0.6767  0.5120  0.4500
   75MOL0     C 9827  10.902   6.258   6.657  0.3723 -0.0455  0.6207
   75MOL0     C 9828  10.974   6.368   6.743 -0.7844  0.3036 -0.4067
   75MOL0     C 9829  11.058   6.466   6.667 -0.0386 -0.4863 -0.3854
   75MOL0     C 9830  10.963   6.571   6.590  0.6329  0.7567 -0.4214
   75MOL0     C 9831  10.869   6.639   6.679  1.1462 -0.6618  0.7257
   75MOL0     C 9832  10.788   6.697   6.758  0.1281 -0.2286  1.0675
   75MOL0     C 9833  10.725   6.120   6.946  0.7742 -0.1845 -0.4477
   75MOL0     C 9834  10.609   6.120   7.017  0.9032 -0.2406 -0.3572
   75MOL0     H 9835  10.043   6.222   6.818  1.9257  1.0068  0.5448
   75MOL0     H 9836   9.820   6.246   6.883  1.4666  1.3914 -1.6374
   75MOL0     H 9837   9.763   6.318   7.314  2.5919 -1.0209 -1.8542
   75MOL0     H 9838   9.697   6.149   7.317  0.2442 -0.5310 -0.4536
   75MOL0     H 9839   9.523   6.398   7.263  2.6053  0.6034 -1.5355
   75MOL0     H 9840   9.530   6.299   7.393  1.1443  0.9332  0.3109
   75MOL0     H 9841   9.472   6.088   7.260  0.9072  1.0530  1.0631
   75MOL0     H 9842   9.451   6.180   7.118 -0.9977 -4.1799 -0.2782
   75MOL0     H 9843   9.297   6.215   7.382  0.8326 -0.2866 -0.1160
   75MOL0     H 9844   9.290   6.341   7.260  0.2304  0.1201 -2.0184
   75MOL0     H 9845   9.218   6.052   7.180  2.9207  1.1450 -3.3755
   75MOL0     H 9846   9.201   6.197   7.098 -3.5940  0.6557 -0.2678
   75MOL0     H 9847   9.054   6.282   7.272  0.1739  0.1000 -2.2045
   75MOL0     H 9848   9.059   6.131   7.367 -1.1982  0.2155 -0.2327
   75MOL0     H 9849   8.975   6.157   7.068  2.1322  2.1159  1.0506
   75MOL0     H 9850   8.957   6.015   7.181 -1.9059 -0.5780 -1.1702
   75MOL0     H 9851   8.802   6.276   7.203  3.3128  0.1156 -0.6265
   75MOL0     H 9852   8.809   6.136   7.316 -1.7829 -1.2814 -0.5779
   75MOL0     H 9853   8.634   6.270   7.018  3.6008 -1.9468 -0.2779
   75MOL0     H 9854   8.371   5.988   6.907 -1.1828  0.2696 -0.4972
   75MOL0     H 9855   8.458   6.119   6.824  0.0365 -0.0566  0.5530
   75MOL0     H 9856   8.358   6.278   6.999  0.9864 -1.0303  0.7564
   75MOL0     H 9857   8.244   6.155   7.043 -0.3392  0.1456  0.0301
   75MOL0     H 9858   8.284   6.255   6.767 -1.3422  1.1750  0.6095
   75MOL0     H 9859   8.187   6.107   6.810  2.0619 -1.7523  2.6134
   75MOL0     H 9860   8.123   6.395   6.910  0.4152 -0.1505 -0.6340
   75MOL0     H 9861   8.028   6.252   6.930  0.2728  2.0149  1.8705
   75MOL0     H 9862   7.907   6.461   6.935 -0.6764  2.9254  0.3613
   75MOL0     H 9863   7.701   6.585   6.903  1.4191 -0.9942  0.5413
   75MOL0     H 9864   7.572   6.816   6.363  1.6090  0.2400  0.0518
   75MOL0     H 9865   7.384   6.950   6.252  4.2864  1.4346  0.5859
   75MOL0     H 9866   6.978   6.979   6.467  0.6482  0.2389  0.4806
   75MOL0     H 9867   7.000   6.835   6.357 -1.0496  0.1515 -1.0129
   75MOL0     H 9868   6.933   6.966   6.169  2.9018 -0.7198  0.6187
   75MOL0     H 9869   6.966   7.114   6.233  0.5466 -0.8099  0.6602
   75MOL0     H 9870   6.768   7.097   6.393 -1.1792  0.3204 -1.1176
   75MOL0     H 9871   6.755   6.930   6.347 -1.9219 -0.0533 -0.1301
   75MOL0     H 9872   6.691   7.164   6.161  0.6074 -0.1599 -0.8564
   75MOL0     H 9873   6.692   6.979   6.129 -0.3179 -1.4914  1.8324
   75MOL0     H 9874   6.522   7.068   6.344  1.1943 -0.5270  0.3455
   75MOL0     H 9875   6.516   6.921   6.235 -2.5488  0.0522 -1.2115
   75MOL0     H 9876   6.436   7.043   6.055  0.3554 -3.3385  1.8603
   75MOL0     H 9877   6.464   7.209   6.140  3.7285 -0.2258  0.7316
   75MOL0     H 9878   6.292   6.974   6.235 -1.8365 -0.4285 -0.0874
   75MOL0     H 9879   6.295   7.142   6.300 -1.0006 -2.2017  0.8954
   75MOL0     H 9880   6.183   7.058   6.033  1.8241 -0.1278  0.5811
   75MOL0     H 9881   6.167   7.221   6.107  0.6131  0.3443 -0.7602
   75MOL0     H 9882   7.114   6.819   6.565 -0.4319  0.6279 -0.6927
   75MOL0     H 9883   7.281   6.693   6.664 -2.9479 -0.4979 -0.4427
   75MOL0     H 9884   7.690   6.459   6.489  0.5923  0.7020 -1.4780
   75MOL0     H 9885   7.888   6.323   6.527  0.5078 -0.2046  0.2650
   75MOL0     H 9886   9.961   6.217   7.299  2.6025 -0.9963 -0.3470
   75MOL0     H 9887  10.173   6.192   7.216 -2.2096 -2.0545  1.4052
   75MOL0     H 9888  10.428   6.315   6.799 -0.6550 -2.0710 -1.3432
   75MOL0     H 9889  10.633   6.301   6.671  3.4305 -1.8630 -0.6093
   75MOL0     H 9890  10.827   6.310   6.597 -0.4040  0.0901  1.6660
   75MOL0     H 9891  10.976   6.210   6.593  1.7537  1.8177  0.7373
   75MOL0     H 9892  10.895   6.412   6.805 -0.5788  0.2626 -0.1094
   75MOL0     H 9893  11.032   6.321   6.824 -0.2314  0.3230 -0.7866
   75MOL0     H 9894  11.122   6.415   6.594 -0.4119  0.2617 -1.2649
   75MOL0     H 9895  11.123   6.527   6.729  0.0521 -0.0211 -0.9327
   75MOL0     H 9896  11.024   6.647   6.539 -0.7936  2.2866  0.0665
   75MOL0     H 9897  10.914   6.516   6.509  2.6516 -1.5512 -0.2103
   75MOL0     H 9898  10.712   6.749   6.812 -0.1696 -0.6430  1.0555
   75MOL0     H 9899  10.811   6.061   6.979  0.7598 -0.5001 -0.9705
   75MOL0     H 9900  10.601   6.057   7.105  1.0214  0.9337  0.5322
   76MOL0     O 9901   9.189   8.199   6.537 -0.1196  0.0520 -0.7367
   76MOL0     C 9902   9.216   8.150   6.427  0.2553 -0.0652 -0.0202
   76MOL0     O 9903   9.132   8.154   6.325 -0.1420 -0.4994  0.3215
   76MOL0     C 9904   8.995   8.171   6.324  0.1254 -0.1417  0.3993
   76MOL0     C 9905   8.940   8.198   6.198 -0.1059  0.1201  0.3876
   76MOL0     C 9906   8.805   8.224   6.176  0.5571 -0.1735 -0.6365
   76MOL0     C 9907   8.720   8.228   6.288  0.4398 -0.2747  0.1895
   76MOL0     O 9908   8.591   8.261   6.262  0.7146 -0.0651  0.1427
   76MOL0     C 9909   8.489   8.217   6.356 -0.2662 -0.6626  0.2931
   76MOL0     C 9910   8.348   8.266   6.329 -0.1835 -0.3790 -0.2477
   76MOL0     C 9911   8.333   8.422   6.319  0.0352  0.4558 -0.2816
   76MOL0     C 9912   8.196   8.475   6.336 -0.3883  0.1027  0.0362
   76MOL0     C 9913   8.090   8.404   6.241 -0.2817  0.3855  0.3050
   76MOL0     C 9914   7.956   8.473   6.237  0.5015  0.8457  0.1754
   76MOL0     C 9915   7.854   8.384   6.150  0.3510 -0.0924  0.2283
   76MOL0     C 9916   7.740   8.471   6.088  0.4316  0.3472 -0.1260
   76MOL0     N 9917   7.657   8.394   5.986  0.5742  0.1921 -0.5608
   76MOL0     C 9918   7.579   8.281   6.007 -0.4276  0.1199 -0.5850
   76MOL0     C 9919   7.502   8.274   5.904 -0.3332  0.5688  0.3563
   76MOL0     C 9920   7.390   8.169   5.897  0.2086 -1.0671  0.5606
   76MOL0     C 9921   7.264   8.252   5.891  0.3145 -0.4394 -0.3977
   76MOL0     C 9922   7.214   8.278   5.754  0.4025  0.3028 -0.6825
   76MOL0     C 9923   7.158   8.157   5.684 -0.3883  0.2149 -0.4698
   76MOL0     O 9924   7.084   8.195   5.564 -0.2135 -0.0274 -0.7404
   76MOL0     C 9925   7.147   8.213   5.433  0.0558 -0.1425 -0.0185
   76MOL0     C 9926   7.059   8.221   5.317 -0.3786 -0.9759 -0.2786
   76MOL0     C 9927   7.114   8.250   5.188 -0.4158 -0.2518  0.3705
   76MOL0     C 9928   7.262   8.253   5.179  0.7457  0.1537  0.5067
   76MOL0     C 9929   7.326   8.283   5.051 -0.5741  0.5099 -0.2062
   76MOL0     O 9930   7.457   8.317   5.053  0.3128  0.8315  0.4874
   76MOL0     C 9931   7.517   8.370   4.944 -0.2326  0.3869 -0.0256
   76MOL0     C 9932   7.466   8.488   4.883 -0.7828 -0.3396  0.2352
   76MOL0     C 9933   7.557   8.535   4.783 -0.2906  0.4927  0.9767
   76MOL0     C 9934   7.675   8.473   4.740 -0.0913 -0.4316 -0.9644
   76MOL0     O 9935   7.760   8.512   4.636 -0.3949 -0.5855  0.1339
   76MOL0     C 9936   7.822   8.639   4.646  0.7534  0.0835  0.6483
   76MOL0     C 9937   7.975   8.641   4.635 -0.1580 -0.4030 -1.0177
   76MOL0     C 9938   8.035   8.564   4.754 -0.8769  0.5065  0.6134
   76MOL0     C 9939   8.185   8.556   4.725  0.1869 -0.2578  0.1355
   76MOL0     C 9940   8.253   8.463   4.831 -0.5008  0.7517 -0.5822
   76MOL0     C 9941   8.409   8.482   4.818 -0.0176 -0.7362 -0.0817
   76MOL0     C 9942   8.476   8.367   4.879  0.1617  0.4327 -0.7691
   76MOL0     C 9943   8.628   8.389   4.884  0.0084  0.0507 -0.4564
   76MOL0    Cl 9944   8.659   8.529   4.998  0.2351 -0.0211  0.3312
   76MOL0     C 9945   7.720   8.363   4.813 -0.0598 -0.3690 -0.0017
   76MOL0     C 9946   7.640   8.311   4.908 -0.1562 -0.3326  0.5205
   76MOL0     O 9947   7.260   8.281   4.952 -0.0868 -0.7626  0.6501
   76MOL0     C 9948   7.336   8.238   5.297  0.3112  0.0199  0.6105
   76MOL0     C 9949   7.286   8.217   5.416  0.4652  0.5092 -0.1693
   76MOL0     N 9950   7.551   8.364   5.807  0.1224 -0.3032 -0.0989
   76MOL0     N 9951   7.652   8.419   5.852  0.0907  0.7671 -0.4185
   76MOL0     C 9952   8.776   8.208   6.414  0.9932  0.4281  0.0570
   76MOL0     C 9953   8.902   8.183   6.436 -0.5008 -0.1471 -0.0501
   76MOL0     C 9954   9.346   8.087   6.409 -0.3676 -0.6183 -0.5841
   76MOL0     C 9955   9.401   8.089   6.276 -0.7920  1.2985 -0.0718
   76MOL0     C 9956   9.527   8.040   6.251  0.5971 -1.2448 -0.1372
   76MOL0     C 9957   9.599   7.983   6.354 -0.2303  0.2896  0.1987
   76MOL0     O 9958   9.723   7.927   6.325 -0.0706  0.1713  0.2777
   76MOL0     C 9959   9.753   7.796   6.379  0.2879 -0.4894 -0.1687
   76MOL0     C 9960   9.879   7.736   6.328 -0.2507 -0.0883  0.1079
   76MOL0     C 9961   9.897   7.590   6.368  0.0356 -0.7222 -0.4490
   76MOL0     C 9962   9.829   7.487   6.273  0.1374 -0.6179 -0.1855
   76MOL0     C 9963   9.682   7.503   6.280  0.1263 -0.2595  0.1256
   76MOL0     C 9964   9.562   7.514   6.290 -0.4788 -0.4124  0.1574
   76MOL0     C 9965   9.544   7.984   6.484 -0.3973  0.4180  0.0309
   76MOL0     C 9966   9.425   8.044   6.513  0.5967 -0.4169  0.1952
   76MOL0     H 9967   9.005   8.178   6.113  1.6447 -1.5549  2.0130
   76MOL0     H 9968   8.766   8.246   6.077 -0.7696  1.7750  0.2633
   76MOL0     H 9969   8.510   8.243   6.460 -1.2570  1.0077  0.1198
   76MOL0     H 9970   8.490   8.108   6.346  1.1233 -0.5991 -0.4285
   76MOL0     H 9971   8.278   8.230   6.406 -0.3711  0.0308 -0.2221
   76MOL0     H 9972   8.329   8.232   6.227 -1.8801  2.7344 -1.0915
   76MOL0     H 9973   8.360   8.457   6.218  1.1128  3.7185  1.0089
   76MOL0     H 9974   8.397   8.473   6.392  0.1509  0.5397 -0.4380
   76MOL0     H 9975   8.161   8.463   6.439  1.0981 -0.5699  0.4923
   76MOL0     H 9976   8.209   8.580   6.311  2.7305 -0.6806 -2.1735
   76MOL0     H 9977   8.072   8.304   6.281 -3.3077  1.5278  2.1932
   76MOL0     H 9978   8.136   8.401   6.142  1.2519 -1.9550  1.0045
   76MOL0     H 9979   7.971   8.574   6.199  1.1767 -0.1323 -2.3936
   76MOL0     H 9980   7.912   8.485   6.336  1.5488 -1.5296  1.0104
   76MOL0     H 9981   7.895   8.316   6.074 -0.9284 -2.6355  1.6879
   76MOL0     H 9982   7.810   8.313   6.220 -1.1751 -0.2607 -0.8417
   76MOL0     H 9983   7.788   8.562   6.049  0.2719  0.4767 -0.0234
   76MOL0     H 9984   7.668   8.498   6.166 -0.2582  2.3741 -1.3965
   76MOL0     H 9985   7.582   8.219   6.096  0.1883 -0.8877 -1.2951
   76MOL0     H 9986   7.394   8.097   5.979  1.5380 -2.0446 -0.3054
   76MOL0     H 9987   7.385   8.106   5.807 -1.4512  2.3087 -1.9344
   76MOL0     H 9988   7.288   8.350   5.934  0.5954 -1.0062  0.7690
   76MOL0     H 9989   7.184   8.212   5.954 -2.7787  3.8682 -1.1486
   76MOL0     H 9990   7.125   8.341   5.752 -1.0495 -1.6787 -0.7173
   76MOL0     H 9991   7.293   8.332   5.700  2.0708  0.8316  2.1075
   76MOL0     H 9992   7.094   8.108   5.758  0.0941  0.5953  0.2035
   76MOL0     H 9993   7.239   8.087   5.660  0.1284  1.2589 -1.8735
   76MOL0     H 9994   6.952   8.204   5.307 -0.8704  2.7420 -3.2627
   76MOL0     H 9995   7.057   8.254   5.096  2.4353 -0.2571 -1.5255
   76MOL0     H 9996   7.389   8.551   4.925  0.4403  2.0442 -0.9210
   76MOL0     H 9997   7.532   8.630   4.737 -2.3110 -1.0806 -1.4198
   76MOL0     H 9998   7.791   8.699   4.733 -0.7652  0.3538 -0.0470
   76MOL0     H 9999   7.782   8.697   4.562  0.9137 -1.6751 -0.6835
   76MOL0     H10000   8.003   8.747   4.636 -0.8905 -0.1948 -1.2723
   76MOL0     H10001   8.009   8.603   4.538  0.5900  1.9346 -1.7367
   76MOL0     H10002   7.993   8.463   4.756  0.9340 -0.2915  1.5861
   76MOL0     H10003   8.018   8.607   4.854  1.8088  0.3474  1.2161
   76MOL0     H10004   8.203   8.516   4.625  2.7287 -0.0635  0.4432
   76MOL0     H10005   8.233   8.654   4.736  0.1351 -0.1719 -0.3728
   76MOL0     H10006   8.231   8.358   4.812 -0.7291  0.8059 -0.6158
   76MOL0     H10007   8.230   8.490   4.935  1.5168 -1.9607  0.6926
   76MOL0     H10008   8.447   8.572   4.867  0.4943 -0.5203 -0.8641
   76MOL0     H10009   8.439   8.503   4.715 -1.5756 -0.0143 -0.4213
   76MOL0     H10010   8.439   8.357   4.981 -1.1180  0.0845 -1.2484
   76MOL0     H10011   8.447   8.273   4.831 -0.0372 -0.7871  1.6013
   76MOL0     H10012   8.669   8.413   4.786  1.8532 -0.1473  0.2399
   76MOL0     H10013   8.675   8.303   4.932  0.6153 -0.2760 -1.6264
   76MOL0     H10014   7.815   8.315   4.794  0.4529  0.2585  0.8845
   76MOL0     H10015   7.681   8.226   4.961  1.3634 -2.2301 -3.3291
   76MOL0     H10016   7.444   8.243   5.293  0.3328 -0.7080 -2.5042
   76MOL0     H10017   7.360   8.206   5.496  0.9354  1.7626 -0.4080
   76MOL0     H10018   8.717   8.224   6.503 -2.0958  2.4469 -2.1549
   76MOL0     H10019   8.937   8.163   6.536 -1.7323 -1.3459  0.1666
   76MOL0     H10020   9.341   8.125   6.194 -0.3987  1.3321 -0.3492
   76MOL0     H10021   9.569   8.041   6.151  0.6441 -0.1737 -0.1198
   76MOL0     H10022   9.669   7.742   6.333 -1.6709  1.2739  1.1561
   76MOL0     H10023   9.752   7.790   6.488  1.6275 -3.3429 -0.2033
   76MOL0     H10024   9.874   7.754   6.220  2.8827 -2.4795 -0.5982
   76MOL0     H10025   9.964   7.794   6.366 -1.8672 -0.0322  4.0933
   76MOL0     H10026   9.857   7.583   6.469  1.4392 -1.2332  0.0956
   76MOL0     H10027  10.005   7.572   6.361  0.2019  0.6213 -2.0741
   76MOL0     H10028   9.859   7.494   6.168  2.2677  2.1316  0.4864
   76MOL0     H10029   9.853   7.386   6.308  1.3730 -0.2962 -0.0662
   76MOL0     H10030   9.459   7.542   6.291 -0.3293  0.1381  0.0817
   76MOL0     H10031   9.613   7.970   6.567  3.6445  0.3693 -3.0027
   76MOL0     H10032   9.397   8.042   6.617 -1.7559  0.4423 -0.3703
   77MOL0     O10033   0.305   3.198   2.501 -0.0413  0.0509 -0.5773
   77MOL0     C10034   0.373   3.106   2.461 -0.2767 -0.0398  0.5287
   77MOL0     O10035   0.329   2.978   2.423  0.8959 -0.3900 -0.6539
   77MOL0     C10036   0.197   2.967   2.386 -0.6295 -0.8945  0.1932
   77MOL0     C10037   0.182   2.917   2.259  0.1044 -0.1014  0.8901
   77MOL0     C10038   0.057   2.875   2.207 -0.1495 -0.0916 -0.2872
   77MOL0     C10039  -0.059   2.908   2.290 -0.3066 -0.6796  0.1876
   77MOL0     O10040  -0.193   2.905   2.254  0.2092  0.3301  0.7287
   77MOL0     C10041  -0.219   2.840   2.130 -0.4766  0.1746  0.2223
   77MOL0     C10042  -0.362   2.795   2.116  1.4172  0.8486  0.2384
   77MOL0     C10043  -0.427   2.729   2.234  0.9539  0.7271 -0.1352
   77MOL0     C10044  -0.580   2.711   2.209 -0.3023  0.2239 -0.5168
   77MOL0     C10045  -0.663   2.675   2.333 -0.0137 -0.8962  0.5482
   77MOL0     C10046  -0.806   2.733   2.324 -0.3606  0.2652 -0.1082
   77MOL0     C10047  -0.897   2.668   2.430 -0.2249 -0.0488  0.0951
   77MOL0     C10048  -0.901   2.752   2.559 -0.0064  0.6305 -0.0681
   77MOL0     N10049  -0.954   2.891   2.544  0.9159  0.8188  0.8146
   77MOL0     C10050  -1.078   2.931   2.492  0.3692  1.0220  1.0352
   77MOL0     C10051  -1.073   3.063   2.492 -0.4859 -0.3176 -0.2307
   77MOL0     C10052  -1.176   3.167   2.456  1.1740 -0.0723  0.7021
   77MOL0     C10053  -1.211   3.253   2.576  0.2541  1.1362  0.3595
   77MOL0     C10054  -1.177   3.402   2.559 -0.5106  1.2098 -0.6322
   77MOL0     C10055  -1.251   3.494   2.668 -0.1631  0.2755  0.5542
   77MOL0     O10056  -1.396   3.483   2.648  0.0709  0.0750 -0.2406
   77MOL0     C10057  -1.478   3.578   2.690 -0.2850  0.6470 -0.1166
   77MOL0     C10058  -1.445   3.692   2.765 -0.6327  1.0927 -0.4067
   77MOL0     C10059  -1.550   3.789   2.787 -0.3735  0.1192 -0.1014
   77MOL0     C10060  -1.682   3.765   2.751 -0.0194 -0.0679 -0.3716
   77MOL0     C10061  -1.780   3.869   2.769  0.7408  0.6249  0.2695
   77MOL0     O10062  -1.916   3.842   2.736  0.4925 -0.6945  0.3899
   77MOL0     C10063  -2.020   3.937   2.736 -0.4463  0.4860 -0.7887
   77MOL0     C10064  -2.142   3.879   2.731  0.1361  0.1449  0.0591
   77MOL0     C10065  -2.262   3.957   2.741  0.3025  0.5230  0.2747
   77MOL0     C10066  -2.261   4.097   2.733  0.3205  0.2594  0.4432
   77MOL0     O10067  -2.371   4.190   2.719  0.4900  0.0661  0.7698
   77MOL0     C10068  -2.494   4.125   2.676  0.4971 -0.1287 -0.4521
   77MOL0     C10069  -2.600   4.233   2.638 -0.0889 -0.9550 -0.5476
   77MOL0     C10070  -2.734   4.159   2.597 -0.0536 -0.4002 -1.0249
   77MOL0     C10071  -2.845   4.255   2.569 -0.3193  0.2428 -0.1502
   77MOL0     C10072  -2.976   4.177   2.531 -0.1228  0.8813  0.1885
   77MOL0     C10073  -3.101   4.267   2.534 -1.3443  1.2601  0.6305
   77MOL0     C10074  -3.227   4.204   2.472 -1.1908 -0.2150 -0.1224
   77MOL0     C10075  -3.329   4.315   2.457 -0.1402  0.2681  0.1177
   77MOL0    Cl10076  -3.335   4.427   2.604  0.3351  0.1289 -0.1460
   77MOL0     C10077  -2.132   4.155   2.737  0.5094  0.5507 -1.2768
   77MOL0     C10078  -2.010   4.074   2.741  0.6026 -0.0442  0.2829
   77MOL0     O10079  -1.742   3.975   2.814 -0.2473  0.3564  0.0052
   77MOL0     C10080  -1.717   3.642   2.697  0.0806  0.7178  0.9665
   77MOL0     C10081  -1.616   3.550   2.663 -0.0184  0.3949 -0.9145
   77MOL0     N10082  -0.943   3.100   2.515 -0.4993 -0.4677 -0.5869
   77MOL0     N10083  -0.871   2.999   2.550  0.5630  0.0023 -0.7160
   77MOL0     C10084  -0.039   2.955   2.417 -0.4076  0.1274 -0.0675
   77MOL0     C10085   0.088   2.975   2.475  0.3316 -0.2787  0.8166
   77MOL0     C10086   0.522   3.126   2.472 -0.0913 -0.6134  0.4394
   77MOL0     C10087   0.580   3.232   2.550  0.2059  0.1173  0.1302
   77MOL0     C10088   0.718   3.241   2.571 -0.3070  0.0513  0.4238
   77MOL0     C10089   0.801   3.137   2.520  0.1760 -0.0442  0.3819
   77MOL0     O10090   0.931   3.115   2.546  0.6806 -0.2539  0.1483
   77MOL0     C10091   1.010   3.227   2.598  0.0004  0.5526  0.7570
   77MOL0     C10092   1.152   3.212   2.540  0.4272 -0.7972  0.0249
   77MOL0     C10093   1.231   3.094   2.596  0.0403  0.9339 -0.5071
   77MOL0     C10094   1.387   3.125   2.584  0.7916 -0.9907  0.9671
   77MOL0     C10095   1.456   2.995   2.584  0.8625 -0.7403 -0.0059
   77MOL0     C10096   1.525   2.898   2.602  0.4737 -0.0293  0.5210
   77MOL0     C10097   0.739   3.035   2.440 -0.1476  0.2606  0.0593
   77MOL0     C10098   0.606   3.034   2.418 -0.1711  0.3303  0.3360
   77MOL0     H10099   0.268   2.918   2.192  0.3631  0.6637  1.2264
   77MOL0     H10100   0.047   2.836   2.106 -0.0056 -0.3687 -0.1965
   77MOL0     H10101  -0.156   2.751   2.132 -0.8150 -0.0554  2.0630
   77MOL0     H10102  -0.190   2.902   2.044 -0.4909  0.1907  0.2290
   77MOL0     H10103  -0.385   2.725   2.035  2.4354 -1.7341  2.0430
   77MOL0     H10104  -0.399   2.896   2.096  4.0761  2.2276  1.7571
   77MOL0     H10105  -0.413   2.788   2.325  0.0495 -2.2782  2.1263
   77MOL0     H10106  -0.383   2.632   2.262 -1.3161 -0.1533  0.6044
   77MOL0     H10107  -0.613   2.804   2.163 -0.3383  0.7710  0.5725
   77MOL0     H10108  -0.599   2.630   2.138 -0.4245  1.5295 -2.0312
   77MOL0     H10109  -0.631   2.717   2.429 -3.6398 -0.7968  1.8721
   77MOL0     H10110  -0.665   2.566   2.345 -3.4041 -1.0261 -0.1384
   77MOL0     H10111  -0.846   2.700   2.228  0.8735  2.0511 -1.3123
   77MOL0     H10112  -0.812   2.842   2.332 -4.2688  0.0105  4.0737
   77MOL0     H10113  -1.003   2.653   2.405  0.0723 -0.6588 -0.8690
   77MOL0     H10114  -0.854   2.570   2.455 -0.4413  0.7571  4.3319
   77MOL0     H10115  -0.802   2.762   2.605  0.1380  1.9100 -0.6043
   77MOL0     H10116  -0.963   2.705   2.636 -1.7522  0.1804 -1.6694
   77MOL0     H10117  -1.165   2.876   2.457 -1.8373  1.9996  4.4996
   77MOL0     H10118  -1.271   3.116   2.438  1.4679 -0.6894  0.8903
   77MOL0     H10119  -1.146   3.235   2.376 -0.5432  3.0820  2.5217
   77MOL0     H10120  -1.145   3.234   2.661 -0.0378  0.2360  0.3957
   77MOL0     H10121  -1.315   3.235   2.604 -0.0634  0.8138 -0.9521
   77MOL0     H10122  -1.069   3.407   2.575 -1.0283  4.0640  3.2787
   77MOL0     H10123  -1.203   3.426   2.455 -4.1051 -3.5068 -1.1553
   77MOL0     H10124  -1.218   3.596   2.645  0.3188  0.4688  2.0213
   77MOL0     H10125  -1.218   3.469   2.769 -0.4566  0.1105  0.6113
   77MOL0     H10126  -1.341   3.706   2.794 -0.2113 -1.8576 -0.1307
   77MOL0     H10127  -1.522   3.882   2.835  1.8854 -1.3152  1.5495
   77MOL0     H10128  -2.137   3.771   2.740  1.6104  0.2695  1.1394
   77MOL0     H10129  -2.353   3.898   2.739  0.8710 -0.3610  0.3104
   77MOL0     H10130  -2.542   4.074   2.760  2.8320 -3.6686 -1.0475
   77MOL0     H10131  -2.474   4.055   2.594  0.7884 -2.1600  1.2845
   77MOL0     H10132  -2.556   4.299   2.563 -0.2013  2.2652  1.9565
   77MOL0     H10133  -2.632   4.293   2.724 -1.1514 -1.8015 -0.3264
   77MOL0     H10134  -2.773   4.091   2.674 -3.0203 -0.1305 -2.1644
   77MOL0     H10135  -2.714   4.101   2.506  1.7355 -0.5934 -0.5433
   77MOL0     H10136  -2.864   4.315   2.658  0.2014 -1.2762  1.0291
   77MOL0     H10137  -2.823   4.334   2.497  4.0973  1.3038  1.9817
   77MOL0     H10138  -2.989   4.088   2.594  2.1548  1.2708  1.3111
   77MOL0     H10139  -2.970   4.127   2.434 -0.9630  1.0531  0.0349
   77MOL0     H10140  -3.066   4.352   2.475  0.8882  0.5569  0.8356
   77MOL0     H10141  -3.127   4.292   2.637 -1.2091 -0.2354  1.0639
   77MOL0     H10142  -3.208   4.161   2.373  0.1832 -0.3269  0.1733
   77MOL0     H10143  -3.266   4.123   2.535  1.1853 -0.3226  1.3225
   77MOL0     H10144  -3.430   4.274   2.452  1.0751 -2.9933 -0.7482
   77MOL0     H10145  -3.301   4.380   2.373  1.9063  0.8898  1.2137
   77MOL0     H10146  -2.130   4.263   2.741 -1.0259  0.5676  1.2239
   77MOL0     H10147  -1.913   4.118   2.763  1.0152 -0.0257 -1.4522
   77MOL0     H10148  -1.821   3.633   2.669  1.2699 -1.9964 -3.8132
   77MOL0     H10149  -1.639   3.456   2.615 -1.3732  0.5954 -0.6961
   77MOL0     H10150  -0.133   2.957   2.470 -2.1994 -0.8316 -2.9950
   77MOL0     H10151   0.107   2.989   2.581  1.4801 -4.8925  1.4362
   77MOL0     H10152   0.511   3.306   2.589  2.5358  3.1446 -1.0651
   77MOL0     H10153   0.767   3.313   2.636  2.3304 -1.2655  0.0036
   77MOL0     H10154   1.014   3.212   2.707 -0.1041 -2.3400  0.4548
   77MOL0     H10155   0.974   3.325   2.566  1.1052  0.7747  0.1572
   77MOL0     H10156   1.146   3.204   2.431 -0.4037 -0.7478  0.0555
   77MOL0     H10157   1.211   3.300   2.564  0.3315 -0.7388  0.0475
   77MOL0     H10158   1.202   3.011   2.531 -1.8045 -0.2203  1.6692
   77MOL0     H10159   1.193   3.074   2.696 -1.7781  1.1552 -1.1036
   77MOL0     H10160   1.409   3.172   2.487  1.1530 -2.1908  0.4397
   77MOL0     H10161   1.422   3.195   2.660  0.8209 -0.1896  0.2375
   77MOL0     H10162   1.591   2.815   2.616  0.3075 -0.2715 -0.0799
   77MOL0     H10163   0.808   2.962   2.399  0.0904  0.9020 -0.7174
   77MOL0     H10164   0.567   2.941   2.378  1.2087 -1.1447  2.2035
   78MOL0     O10165   8.678   6.383   5.272 -0.4281  0.5005 -0.2274
   78MOL0     C10166   8.791   6.419   5.310  0.4428  0.0730 -0.2958
   78MOL0     O10167   8.817   6.523   5.392  0.0938  0.3490 -0.4505
   78MOL0     C10168   8.716   6.602   5.437 -0.2591 -0.7010 -0.4765
   78MOL0     C10169   8.716   6.736   5.404  0.8644 -0.3229  0.1167
   78MOL0     C10170   8.612   6.825   5.447 -0.8617 -0.8033 -0.3427
   78MOL0     C10171   8.512   6.774   5.534 -0.5230 -0.6105 -0.4172
   78MOL0     O10172   8.408   6.856   5.582 -0.0080  0.6555  0.3908
   78MOL0     C10173   8.396   6.985   5.540 -0.1906 -0.4100 -0.5017
   78MOL0     C10174   8.271   7.047   5.608  0.1900  0.3463  1.0178
   78MOL0     C10175   8.136   6.977   5.584  0.3191 -0.4549 -0.4008
   78MOL0     C10176   8.023   7.057   5.661  0.2379 -0.1242  0.4816
   78MOL0     C10177   7.900   6.974   5.636 -0.3865 -0.5451 -0.1414
   78MOL0     C10178   7.807   7.047   5.527 -0.0411  0.6530  0.2432
   78MOL0     C10179   7.671   6.977   5.500 -0.0499  0.6420 -0.0062
   78MOL0     C10180   7.673   6.825   5.459 -0.2339  0.0185 -0.1049
   78MOL0     N10181   7.546   6.780   5.392  0.0445  0.6023 -0.6262
   78MOL0     C10182   7.503   6.805   5.263  0.3878  0.7588  0.5644
   78MOL0     C10183   7.375   6.760   5.263  0.1529  0.2624 -0.5651
   78MOL0     C10184   7.282   6.771   5.148 -0.3722 -0.5222  0.3011
   78MOL0     C10185   7.131   6.720   5.178 -0.4270 -0.0718  0.4050
   78MOL0     C10186   7.052   6.687   5.047 -0.2473  0.1828 -0.1397
   78MOL0     C10187   6.899   6.659   5.087  0.0306 -0.1918  0.8031
   78MOL0     O10188   6.820   6.619   4.971  0.0585  0.2935 -0.0113
   78MOL0     C10189   6.690   6.567   4.989 -0.4574  0.9836  0.2001
   78MOL0     C10190   6.620   6.585   5.106  0.8488  0.1142  1.2676
   78MOL0     C10191   6.493   6.521   5.124 -0.6323 -0.3915  0.0666
   78MOL0     C10192   6.435   6.437   5.024  0.6550 -0.1483 -0.3977
   78MOL0     C10193   6.296   6.386   5.043  0.5536  0.0737  0.6415
   78MOL0     O10194   6.219   6.358   4.932 -0.6560  0.1013 -0.0975
   78MOL0     C10195   6.081   6.338   4.954  0.0990  0.3794 -0.8014
   78MOL0     C10196   5.999   6.437   4.906 -0.0715  0.5813 -0.1763
   78MOL0     C10197   5.863   6.420   4.920 -0.2785  0.5533  0.5626
   78MOL0     C10198   5.807   6.303   4.967 -0.2185  0.3094 -0.8904
   78MOL0     O10199   5.671   6.296   4.981 -0.0732  1.0541 -0.4396
   78MOL0     C10200   5.610   6.182   5.048 -0.7867 -0.5733 -0.7353
   78MOL0     C10201   5.454   6.196   5.056 -0.2253 -0.2769 -0.3596
   78MOL0     C10202   5.423   6.322   5.143 -0.0490  0.7480  0.5162
   78MOL0     C10203   5.270   6.316   5.167 -1.0666  0.3167  0.3706
   78MOL0     C10204   5.187   6.394   5.046 -0.4303  0.6663 -0.9492
   78MOL0     C10205   5.052   6.433   5.113  0.1392  0.3742  0.9736
   78MOL0     C10206   4.949   6.471   4.996 -0.8873  0.0073 -0.1001
   78MOL0     C10207   4.815   6.522   5.040 -1.1248 -0.5582 -0.1133
   78MOL0    Cl10208   4.834   6.665   5.155  0.0937 -0.0910 -0.3784
   78MOL0     C10209   5.896   6.205   5.011  0.2832  0.3580 -1.3630
   78MOL0     C10210   6.035   6.222   5.010 -0.4996 -0.0961  0.5229
   78MOL0     O10211   6.273   6.360   5.161 -0.1815  1.1332 -0.1553
   78MOL0     C10212   6.509   6.410   4.911 -0.7002  0.2281 -0.7934
   78MOL0     C10213   6.634   6.467   4.893  0.2432 -0.9807 -0.0202
   78MOL0     N10214   7.359   6.701   5.387 -0.3671 -0.4773  0.5148
   78MOL0     N10215   7.453   6.709   5.461  0.8524  0.0885 -0.2972
   78MOL0     C10216   8.501   6.635   5.560  0.2327  0.1214  0.0990
   78MOL0     C10217   8.610   6.550   5.518  0.0270 -0.1900  0.2834
   78MOL0     C10218   8.908   6.372   5.232 -0.6360  0.5800 -0.4589
   78MOL0     C10219   9.041   6.413   5.277  0.3533 -0.5388  0.4461
   78MOL0     C10220   9.151   6.373   5.205  0.1523  1.0236  0.0322
   78MOL0     C10221   9.142   6.304   5.086 -0.4148  0.2907 -0.3889
   78MOL0     O10222   9.263   6.285   5.018 -0.3282  0.3098 -0.0347
   78MOL0     C10223   9.270   6.263   4.878  0.5144  0.4174  0.8574
   78MOL0     C10224   9.399   6.188   4.830 -0.5059 -0.8364  0.4220
   78MOL0     C10225   9.495   6.306   4.813  0.4230 -0.0179 -0.1600
   78MOL0     C10226   9.623   6.261   4.757  0.2554  0.2394 -1.4060
   78MOL0     C10227   9.710   6.378   4.726  0.7187 -0.5817  1.2762
   78MOL0     C10228   9.785   6.469   4.695 -0.1108 -0.2930 -0.2463
   78MOL0     C10229   9.015   6.262   5.039  0.6975 -0.9648 -0.6514
   78MOL0     C10230   8.897   6.289   5.117 -0.3194 -1.0264  0.5340
   78MOL0     H10231   8.811   6.758   5.356  0.3185 -0.0628 -0.8785
   78MOL0     H10232   8.614   6.931   5.423  0.5923 -1.0434 -1.4486
   78MOL0     H10233   8.374   6.992   5.433 -2.4670  0.4762 -0.0269
   78MOL0     H10234   8.490   7.034   5.570 -0.7234  0.2721  0.1036
   78MOL0     H10235   8.256   7.152   5.581 -1.4040  0.4136  2.0487
   78MOL0     H10236   8.278   7.051   5.717 -0.5394  2.7866  1.0349
   78MOL0     H10237   8.149   6.876   5.623 -0.2669 -0.2205  0.4383
   78MOL0     H10238   8.111   6.970   5.478 -1.0724 -0.0081 -0.1279
   78MOL0     H10239   8.059   7.069   5.764  2.1308  0.5902 -0.2321
   78MOL0     H10240   8.005   7.158   5.623 -2.3611 -0.4188  0.7235
   78MOL0     H10241   7.844   6.982   5.730  1.5958 -1.0482  1.1330
   78MOL0     H10242   7.904   6.867   5.615 -1.8330 -1.1890  2.4750
   78MOL0     H10243   7.873   7.046   5.440  0.8820 -0.2799  0.9345
   78MOL0     H10244   7.786   7.146   5.566  0.4185  0.7550  0.2357
   78MOL0     H10245   7.609   6.982   5.590 -1.1329  0.3313 -0.7218
   78MOL0     H10246   7.616   7.041   5.430  0.1157  0.0769 -0.6629
   78MOL0     H10247   7.701   6.768   5.549 -0.5098  0.3901  0.2187
   78MOL0     H10248   7.756   6.793   5.395 -0.2960 -1.1558  0.3711
   78MOL0     H10249   7.567   6.828   5.179  0.2136  1.1488  0.5367
   78MOL0     H10250   7.320   6.731   5.053 -0.8339  1.2167 -0.6640
   78MOL0     H10251   7.278   6.879   5.132  0.7099 -0.5630 -0.3427
   78MOL0     H10252   7.072   6.790   5.238 -0.5313  0.1299  0.0733
   78MOL0     H10253   7.144   6.628   5.234  1.4217  0.0558  0.2346
   78MOL0     H10254   7.043   6.775   4.982 -1.3844 -0.6813 -1.2057
   78MOL0     H10255   7.112   6.611   4.996 -1.6858 -0.1782 -1.3576
   78MOL0     H10256   6.858   6.740   5.148  1.9521 -0.3276  2.3450
   78MOL0     H10257   6.885   6.571   5.151 -3.8320 -0.9551 -0.7665
   78MOL0     H10258   6.644   6.651   5.189  1.6169 -1.6924  2.5480
   78MOL0     H10259   6.430   6.556   5.205 -0.6267 -0.8197  0.2595
   78MOL0     H10260   6.045   6.531   4.881  2.2313 -1.0545 -2.6003
   78MOL0     H10261   5.799   6.505   4.895 -1.7175 -0.8330 -0.7391
   78MOL0     H10262   5.653   6.177   5.148 -0.3270  1.6444 -0.7876
   78MOL0     H10263   5.626   6.088   4.993 -2.1058 -1.5623  0.4994
   78MOL0     H10264   5.418   6.102   5.099 -0.3270 -0.4144 -0.7472
   78MOL0     H10265   5.421   6.219   4.955 -1.9979  0.1342  0.2775
   78MOL0     H10266   5.454   6.413   5.091  2.9027 -0.4752 -0.0567
   78MOL0     H10267   5.476   6.327   5.238  0.1678  0.0168  0.4418
   78MOL0     H10268   5.237   6.212   5.172 -0.6482  0.2023  0.7294
   78MOL0     H10269   5.251   6.369   5.261 -2.3392  2.0990 -0.7971
   78MOL0     H10270   5.164   6.322   4.967  0.1701 -2.4178  1.4661
   78MOL0     H10271   5.243   6.478   5.005  0.3900  0.1885 -0.8220
   78MOL0     H10272   5.068   6.518   5.180 -1.6889  1.0947  0.5738
   78MOL0     H10273   5.014   6.345   5.166  0.7402  0.1300  1.0051
   78MOL0     H10274   5.003   6.549   4.942 -0.3027 -0.9540 -0.9416
   78MOL0     H10275   4.935   6.395   4.917 -0.1295 -1.3209  1.0038
   78MOL0     H10276   4.752   6.447   5.089 -2.3029 -1.0574 -2.2266
   78MOL0     H10277   4.757   6.563   4.957  0.0092  1.0920 -0.1345
   78MOL0     H10278   5.863   6.115   5.062 -0.0297  1.6672  0.8553
   78MOL0     H10279   6.096   6.134   5.030 -1.6361 -0.6501  1.7672
   78MOL0     H10280   6.469   6.352   4.829  3.0193 -1.9624 -1.2977
   78MOL0     H10281   6.694   6.443   4.806 -0.5937 -0.1936 -0.8425
   78MOL0     H10282   8.418   6.588   5.612 -0.1860 -1.8606 -2.1205
   78MOL0     H10283   8.598   6.449   5.554 -0.1642 -0.2452  0.0646
   78MOL0     H10284   9.046   6.471   5.369 -3.9525  0.7660  0.0843
   78MOL0     H10285   9.246   6.400   5.251 -1.4684  3.1761  2.3996
   78MOL0     H10286   9.249   6.355   4.823 -1.0181 -0.6965 -0.5253
   78MOL0     H10287   9.201   6.187   4.839  0.9317  1.3298 -1.8868
   78MOL0     H10288   9.428   6.108   4.900 -0.1669 -0.6194  0.5347
   78MOL0     H10289   9.384   6.138   4.734 -0.0780  1.4353 -0.8881
   78MOL0     H10290   9.515   6.367   4.901  1.7411  0.4391 -0.7436
   78MOL0     H10291   9.466   6.377   4.734  0.9431 -0.5497 -0.8464
   78MOL0     H10292   9.670   6.200   4.835 -2.3216 -0.1399 -0.0507
   78MOL0     H10293   9.602   6.202   4.667 -0.9837 -0.8636 -0.4231
   78MOL0     H10294   9.826   6.561   4.659  1.5170 -1.4854 -1.5784
   78MOL0     H10295   9.022   6.204   4.947 -0.2582 -2.1067 -0.0351
   78MOL0     H10296   8.804   6.246   5.079 -0.7391 -2.4304  2.9166
   79MOL0     O10297   7.761   6.909   5.086 -0.2123 -0.3855 -0.6769
   79MOL0     C10298   7.747   7.030   5.069  0.3793 -0.4129 -0.0351
   79MOL0     O10299   7.650   7.088   4.993 -0.0371 -0.1191 -0.2004
   79MOL0     C10300   7.543   7.021   4.942  0.1981 -0.3104 -0.3175
   79MOL0     C10301   7.541   6.895   4.870  0.4994 -0.4803  0.3389
   79MOL0     C10302   7.418   6.845   4.815 -0.3544 -0.3059 -0.0751
   79MOL0     C10303   7.301   6.925   4.824 -0.2163  0.3022 -0.0324
   79MOL0     O10304   7.191   6.865   4.787  0.3241 -0.5577 -0.1230
   79MOL0     C10305   7.135   6.934   4.672 -0.0950 -0.0227  0.7592
   79MOL0     C10306   7.055   6.857   4.571  0.2841  0.5011 -0.1614
   79MOL0     C10307   6.921   6.801   4.614 -0.0363  0.5918  0.3884
   79MOL0     C10308   6.843   6.754   4.486 -0.3921 -0.0309 -1.1116
   79MOL0     C10309   6.697   6.733   4.529  1.2350 -0.1827  0.6921
   79MOL0     C10310   6.626   6.669   4.399  0.5225  0.2120 -0.8395
   79MOL0     C10311   6.476   6.631   4.430 -0.2596 -0.4896 -0.0008
   79MOL0     C10312   6.441   6.530   4.548 -0.0248  0.3868  0.2559
   79MOL0     N10313   6.295   6.515   4.567 -1.0277  0.1990 -0.0749
   79MOL0     C10314   6.221   6.409   4.530  1.2924 -0.7112 -0.5194
   79MOL0     C10315   6.084   6.451   4.536  1.1150  0.5374  0.3159
   79MOL0     C10316   5.973   6.370   4.468 -0.0042 -0.6771  1.1065
   79MOL0     C10317   5.844   6.443   4.495 -0.8599 -1.0872  0.1301
   79MOL0     C10318   5.725   6.348   4.494  0.2241 -0.2259  0.2838
   79MOL0     C10319   5.706   6.275   4.629  0.2382 -0.2781  0.2606
   79MOL0     O10320   5.588   6.192   4.654 -0.5985 -0.0232  0.2428
   79MOL0     C10321   5.465   6.242   4.658  0.7511  1.0017 -0.3232
   79MOL0     C10322   5.420   6.375   4.634 -0.6443  0.6883  0.0794
   79MOL0     C10323   5.277   6.411   4.630 -0.5512 -0.3696 -0.5003
   79MOL0     C10324   5.184   6.312   4.667 -1.4321 -0.2312  0.3973
   79MOL0     C10325   5.036   6.351   4.672 -0.5903 -0.0058  0.5117
   79MOL0     O10326   4.944   6.252   4.673 -0.1817  0.0818  0.1919
   79MOL0     C10327   4.811   6.293   4.668  0.0161  0.1407  0.8502
   79MOL0     C10328   4.729   6.269   4.786 -0.0130  0.4578  0.6650
   79MOL0     C10329   4.592   6.309   4.788  0.1018 -0.6351  0.0382
   79MOL0     C10330   4.531   6.353   4.666 -0.7897 -0.8410 -0.3751
   79MOL0     O10331   4.397   6.383   4.670 -0.5257 -0.3882 -1.1102
   79MOL0     C10332   4.314   6.373   4.555  0.1708  1.3218  0.5352
   79MOL0     C10333   4.173   6.379   4.596  0.2083  0.5069  0.9892
   79MOL0     C10334   4.120   6.521   4.617  0.6426  0.1934  0.0528
   79MOL0     C10335   3.976   6.519   4.665 -0.2190 -0.1987 -0.0590
   79MOL0     C10336   3.910   6.657   4.675  0.3329 -0.3211 -0.6637
   79MOL0     C10337   3.764   6.628   4.705 -0.5890 -0.4318 -0.0172
   79MOL0     C10338   3.682   6.750   4.712 -0.0230  0.2383  0.4449
   79MOL0     C10339   3.535   6.708   4.728  0.3689  0.2097 -0.1938
   79MOL0    Cl10340   3.440   6.856   4.778 -0.3622 -0.6496 -0.4227
   79MOL0     C10341   4.615   6.371   4.553  0.3092  0.1968  0.0135
   79MOL0     C10342   4.750   6.341   4.550  0.0838  0.3420 -0.2548
   79MOL0     O10343   5.006   6.469   4.660 -0.3968 -0.1592 -0.6934
   79MOL0     C10344   5.232   6.181   4.691  0.3738  0.7150 -0.2252
   79MOL0     C10345   5.362   6.146   4.688 -0.3930  0.7425 -0.3416
   79MOL0     N10346   6.092   6.584   4.575 -0.1357  0.6667  0.6309
   79MOL0     N10347   6.213   6.619   4.605 -0.6107 -0.0962  0.0302
   79MOL0     C10348   7.306   7.053   4.883 -0.4485 -0.1156 -0.0084
   79MOL0     C10349   7.429   7.096   4.939 -0.3121 -0.7515  0.1810
   79MOL0     C10350   7.849   7.114   5.137 -0.1927  0.5371 -0.2653
   79MOL0     C10351   7.806   7.236   5.195 -0.4796 -0.2360 -0.8096
   79MOL0     C10352   7.904   7.314   5.260  0.3194 -0.8174  0.1432
   79MOL0     C10353   8.044   7.287   5.256  0.2457  0.1120  0.1138
   79MOL0     O10354   8.143   7.379   5.293 -0.0042  0.2440 -0.1568
   79MOL0     C10355   8.121   7.483   5.380  0.1581 -0.6497  0.3221
   79MOL0     C10356   8.248   7.561   5.417  0.3993 -0.2945 -0.3733
   79MOL0     C10357   8.206   7.687   5.486 -0.4696 -0.0582  0.3502
   79MOL0     C10358   8.330   7.750   5.551 -0.7861  0.0846 -0.1475
   79MOL0     C10359   8.309   7.899   5.552 -0.0150  0.8767  0.5153
   79MOL0     C10360   8.308   8.020   5.553 -0.1728 -0.2216  0.0522
   79MOL0     C10361   8.085   7.171   5.185  0.0939 -1.0501  0.0709
   79MOL0     C10362   7.989   7.088   5.135  0.4419  1.1441 -0.3966
   79MOL0     H10363   7.635   6.840   4.869  0.5082 -0.4753  0.7750
   79MOL0     H10364   7.418   6.744   4.778 -0.5647 -0.5133  0.4800
   79MOL0     H10365   7.216   6.976   4.612 -2.3536  3.6723 -0.0149
   79MOL0     H10366   7.072   7.018   4.704  1.8990  0.7863  2.9071
   79MOL0     H10367   7.107   6.771   4.529 -1.8179 -1.0021  0.1578
   79MOL0     H10368   7.036   6.925   4.487 -1.7123  0.8234  0.5154
   79MOL0     H10369   6.861   6.879   4.661  0.1924 -0.1966  2.0769
   79MOL0     H10370   6.937   6.716   4.682 -1.2711 -1.2422 -1.5043
   79MOL0     H10371   6.854   6.819   4.399 -0.9435  2.2021  0.3926
   79MOL0     H10372   6.882   6.657   4.453  0.2283 -0.0877 -0.2650
   79MOL0     H10373   6.655   6.827   4.567  0.9332 -0.8531  2.0714
   79MOL0     H10374   6.697   6.665   4.615  1.5006 -1.8755 -0.6106
   79MOL0     H10375   6.685   6.581   4.371  2.0300  1.6068 -2.2071
   79MOL0     H10376   6.643   6.746   4.323  3.1425 -0.1720 -0.7552
   79MOL0     H10377   6.422   6.726   4.444  0.1465 -0.5037  1.9121
   79MOL0     H10378   6.435   6.593   4.336 -0.5988 -1.3167  0.4755
   79MOL0     H10379   6.486   6.560   4.643  0.7008  1.7240 -0.4805
   79MOL0     H10380   6.477   6.432   4.515  0.9731  1.5468 -2.3883
   79MOL0     H10381   6.250   6.313   4.489  2.0301 -0.3560 -0.8412
   79MOL0     H10382   5.964   6.273   4.519  0.5724 -0.5484  1.4649
   79MOL0     H10383   6.001   6.351   4.365  1.4710 -0.5627  1.4734
   79MOL0     H10384   5.843   6.520   4.417  2.7523 -2.3829 -1.3838
   79MOL0     H10385   5.844   6.494   4.592  2.0668  0.7231 -0.6862
   79MOL0     H10386   5.637   6.407   4.465 -0.0441 -0.4439  0.6493
   79MOL0     H10387   5.749   6.270   4.421  0.7921 -1.2911  1.5884
   79MOL0     H10388   5.697   6.356   4.702 -1.3321  0.0837 -0.3134
   79MOL0     H10389   5.796   6.215   4.651  2.5010  2.5269 -0.7531
   79MOL0     H10390   5.498   6.446   4.610 -0.3835  1.5939  3.2639
   79MOL0     H10391   5.257   6.517   4.614  1.2886  0.5145  2.3515
   79MOL0     H10392   4.778   6.235   4.876  0.2472  0.3312  0.4769
   79MOL0     H10393   4.533   6.304   4.879 -1.3478  3.9812 -0.3806
   79MOL0     H10394   4.338   6.276   4.511  1.8190  2.1369 -0.4454
   79MOL0     H10395   4.337   6.440   4.472 -1.6682 -1.0232 -2.0858
   79MOL0     H10396   4.144   6.318   4.682 -0.4958 -1.2775 -0.4515
   79MOL0     H10397   4.112   6.342   4.513  1.4784 -0.3605  0.4162
   79MOL0     H10398   4.133   6.580   4.526  1.4538  0.5302  0.3731
   79MOL0     H10399   4.180   6.566   4.696  0.4707 -1.5576  1.2379
   79MOL0     H10400   3.916   6.455   4.599 -1.9022 -1.5804  2.6653
   79MOL0     H10401   3.963   6.464   4.758 -0.1175 -0.6791 -0.3234
   79MOL0     H10402   3.926   6.718   4.585 -0.9848 -2.2121 -2.2521
   79MOL0     H10403   3.949   6.722   4.754 -2.2040  0.4711  0.0396
   79MOL0     H10404   3.758   6.577   4.801 -2.4593  2.0429  1.2811
   79MOL0     H10405   3.723   6.564   4.626  1.7563 -2.3985  0.2392
   79MOL0     H10406   3.717   6.828   4.781  2.6144  0.7912 -1.3412
   79MOL0     H10407   3.683   6.801   4.615  0.7663  0.2003  0.4247
   79MOL0     H10408   3.519   6.632   4.805  0.2816  0.6179  0.1963
   79MOL0     H10409   3.500   6.646   4.645 -0.5261  4.4691 -3.3071
   79MOL0     H10410   4.573   6.398   4.457  1.1742  2.2290  0.1360
   79MOL0     H10411   4.816   6.364   4.467  1.4695  0.3145  0.8054
   79MOL0     H10412   5.153   6.111   4.712 -2.4444  2.4726 -3.7379
   79MOL0     H10413   5.382   6.041   4.702 -2.1977  0.2678 -1.1109
   79MOL0     H10414   7.217   7.114   4.873  1.0392  1.8327 -3.4164
   79MOL0     H10415   7.435   7.192   4.989  1.8324 -1.4465  1.3571
   79MOL0     H10416   7.701   7.265   5.195 -0.2177  0.9447  1.5779
   79MOL0     H10417   7.864   7.403   5.308  1.6714  0.2847 -0.7163
   79MOL0     H10418   8.076   7.446   5.472 -0.5262  1.1524  0.7557
   79MOL0     H10419   8.044   7.550   5.340  0.4721  0.6216  1.7649
   79MOL0     H10420   8.311   7.496   5.478 -0.7746 -1.2164 -0.1004
   79MOL0     H10421   8.319   7.588   5.338  2.1617 -0.8702  0.9257
   79MOL0     H10422   8.135   7.672   5.568  0.5854 -0.8322  1.1602
   79MOL0     H10423   8.168   7.760   5.415 -2.0709  1.2461  2.4111
   79MOL0     H10424   8.347   7.709   5.651  0.8609  0.8359 -0.0869
   79MOL0     H10425   8.422   7.736   5.493  1.5094  1.0360  2.9841
   79MOL0     H10426   8.300   8.127   5.558  1.4927  0.0517 -1.6637
   79MOL0     H10427   8.191   7.154   5.172  0.6466  1.5050  0.7642
   79MOL0     H10428   8.001   6.992   5.084 -1.5650  1.2696 -1.1697
   80MOL0     O10429   9.975   1.982   0.150  0.1345  0.3279  0.4139
   80MOL0     C10430  10.033   1.971   0.046 -0.5771  0.0571  0.7803
   80MOL0     O10431   9.967   1.975  -0.074 -0.0683  0.0037 -0.2482
   80MOL0     C10432   9.829   1.996  -0.073  0.6315 -0.0463 -0.2447
   80MOL0     C10433   9.766   2.112  -0.124 -0.2980 -0.3048  0.4308
   80MOL0     C10434   9.626   2.123  -0.145 -0.0567 -0.8939 -0.2529
   80MOL0     C10435   9.548   2.017  -0.108 -0.2360 -0.0139 -0.6407
   80MOL0     O10436   9.411   2.028  -0.136 -0.0746  0.5580  0.2154
   80MOL0     C10437   9.322   1.927  -0.090 -0.5773 -1.1778  0.8600
   80MOL0     C10438   9.184   1.981  -0.067  0.1371 -0.0924 -0.4609
   80MOL0     C10439   9.104   1.870   0.006 -0.2740 -0.2344  0.7845
   80MOL0     C10440   8.950   1.877  -0.021  0.2456  0.8460 -0.1097
   80MOL0     C10441   8.873   1.769   0.053  0.2825  0.7407 -0.4953
   80MOL0     C10442   8.796   1.674  -0.039  0.1579  0.0084 -0.3322
   80MOL0     C10443   8.721   1.562   0.034 -0.0607 -0.1951  0.9193
   80MOL0     C10444   8.643   1.469  -0.057 -0.1955 -0.3816  0.8882
   80MOL0     N10445   8.541   1.390   0.021  0.5172 -0.2404 -0.7595
   80MOL0     C10446   8.546   1.254   0.044  0.5401  0.4381 -0.4895
   80MOL0     C10447   8.428   1.228   0.098  0.5549 -0.5352  0.0469
   80MOL0     C10448   8.369   1.098   0.131 -0.3393  1.1308 -0.1383
   80MOL0     C10449   8.259   1.036   0.041 -0.0829 -0.2168 -0.2182
   80MOL0     C10450   8.119   1.102   0.050  0.3156 -0.0626  0.8185
   80MOL0     C10451   8.037   1.062  -0.066 -0.5025 -0.6930  1.0551
   80MOL0     O10452   7.934   1.156  -0.080  0.1724 -0.4767 -0.0442
   80MOL0     C10453   7.815   1.159  -0.008  0.1811 -0.1201  1.1446
   80MOL0     C10454   7.711   1.236  -0.067 -0.5700  0.2677  1.2231
   80MOL0     C10455   7.578   1.231  -0.022 -0.4321 -0.2325 -0.5435
   80MOL0     C10456   7.549   1.145   0.083  0.8428  1.1943 -0.3276
   80MOL0     C10457   7.402   1.130   0.124  0.3310 -0.0390  0.3895
   80MOL0     O10458   7.321   1.245   0.094 -0.5749 -0.2340  0.0866
   80MOL0     C10459   7.191   1.255   0.129  0.1715  0.1184  0.0647
   80MOL0     C10460   7.091   1.251   0.034 -0.3037  0.0787  0.6085
   80MOL0     C10461   6.964   1.251   0.075  1.0008 -0.7860  0.4088
   80MOL0     C10462   6.925   1.231   0.212 -0.2262  0.1753  0.9604
   80MOL0     O10463   6.789   1.217   0.247 -0.4077  0.4339 -0.3927
   80MOL0     C10464   6.679   1.225   0.147  0.3738 -0.5618  0.5270
   80MOL0     C10465   6.550   1.184   0.213  1.0332 -0.1862 -0.1034
   80MOL0     C10466   6.429   1.187   0.127 -0.1027  0.4914  0.5815
   80MOL0     C10467   6.307   1.171   0.214 -0.5278  0.6188 -0.5419
   80MOL0     C10468   6.177   1.151   0.130 -0.2605 -0.1675  0.5165
   80MOL0     C10469   6.076   1.131   0.239 -0.4534  0.4633  0.7061
   80MOL0     C10470   5.945   1.108   0.167 -0.1734  0.2398  1.0463
   80MOL0     C10471   5.834   1.083   0.273  0.5668 -0.6840  0.3124
   80MOL0    Cl10472   5.671   1.068   0.193  0.3171 -0.5774  0.1026
   80MOL0     C10473   7.031   1.209   0.301 -0.2129 -0.3838  0.0270
   80MOL0     C10474   7.164   1.223   0.264  1.1710 -0.8105  0.2389
   80MOL0     O10475   7.360   1.035   0.182 -0.7143  0.4160 -0.3362
   80MOL0     C10476   7.651   1.071   0.146 -0.3288 -0.0735  0.1111
   80MOL0     C10477   7.770   1.075   0.095  0.0413  0.3495 -0.2950
   80MOL0     N10478   8.356   1.345   0.120  0.4145 -0.3778 -0.3302
   80MOL0     N10479   8.424   1.441   0.067  0.4858 -0.6878  0.0853
   80MOL0     C10480   9.608   1.898  -0.059 -0.1899  0.5418  0.3455
   80MOL0     C10481   9.747   1.891  -0.043  0.4224  0.1935 -0.8591
   80MOL0     C10482  10.177   1.951   0.056  0.3909 -0.3216 -0.1746
   80MOL0     C10483  10.255   2.002   0.162  0.5144  0.1243 -0.6249
   80MOL0     C10484  10.395   1.976   0.169  0.7766  0.0743 -0.6804
   80MOL0     C10485  10.455   1.888   0.073 -0.3631  0.8608  0.5195
   80MOL0     O10486  10.592   1.853   0.103 -0.0764 -0.1599 -0.0708
   80MOL0     C10487  10.661   1.765   0.009 -0.4066  1.1293  0.5337
   80MOL0     C10488  10.807   1.770   0.046 -0.0952 -0.3115  0.3650
   80MOL0     C10489  10.842   1.696   0.177  0.4527 -0.5473 -0.0584
   80MOL0     C10490  10.988   1.723   0.213 -0.7620 -0.3722  0.0933
   80MOL0     C10491  11.042   1.640   0.321 -0.1005 -0.2276 -0.9612
   80MOL0     C10492  11.082   1.595   0.428 -0.0492 -0.5755 -0.4060
   80MOL0     C10493  10.387   1.849  -0.040  0.8638 -0.5436  0.5029
   80MOL0     C10494  10.247   1.890  -0.052  0.6225  0.3073 -0.0109
   80MOL0     H10495   9.835   2.192  -0.148  0.2078 -0.6386  0.7553
   80MOL0     H10496   9.590   2.213  -0.194 -0.8724 -0.8436  0.4264
   80MOL0     H10497   9.351   1.879   0.003  1.9249  0.7497  1.1944
   80MOL0     H10498   9.322   1.854  -0.172  1.8913 -0.8446  0.4823
   80MOL0     H10499   9.123   2.010  -0.154 -2.3099 -3.4397 -0.1029
   80MOL0     H10500   9.172   2.062   0.005 -1.4052 -0.9411  0.3103
   80MOL0     H10501   9.124   1.860   0.113  0.7555  1.3871  0.7733
   80MOL0     H10502   9.131   1.772  -0.032 -0.1547  0.1546 -0.1557
   80MOL0     H10503   8.918   1.980  -0.001 -2.4759 -0.4371  2.9179
   80MOL0     H10504   8.945   1.850  -0.127 -1.2592 -1.2508  0.4376
   80MOL0     H10505   8.794   1.812   0.116 -0.7316  0.8041 -1.7623
   80MOL0     H10506   8.947   1.717   0.114  1.5095  0.0300 -2.5020
   80MOL0     H10507   8.874   1.631  -0.101  3.6170  3.3100  1.3199
   80MOL0     H10508   8.721   1.731  -0.095 -0.8322 -1.4376 -0.5254
   80MOL0     H10509   8.798   1.510   0.090  1.0246  0.1327 -0.2202
   80MOL0     H10510   8.659   1.606   0.112  2.0795  2.1216  1.4512
   80MOL0     H10511   8.727   1.413  -0.099  0.0682 -0.4335  1.4678
   80MOL0     H10512   8.596   1.527  -0.137 -1.4228 -0.2047  1.7035
   80MOL0     H10513   8.614   1.177   0.007 -0.9510 -1.7578  1.1143
   80MOL0     H10514   8.338   1.104   0.236  3.6805 -0.4500  1.3107
   80MOL0     H10515   8.451   1.026   0.132  1.6359  3.2979  0.5547
   80MOL0     H10516   8.237   0.934   0.077 -3.0286  0.6068  0.6518
   80MOL0     H10517   8.294   1.037  -0.062 -0.3471 -0.1671 -0.3085
   80MOL0     H10518   8.063   1.076   0.141  1.7046 -0.2830  1.6486
   80MOL0     H10519   8.138   1.210   0.048  2.0245 -0.3481 -0.2571
   80MOL0     H10520   7.983   0.970  -0.043 -0.4816 -0.3259  2.7409
   80MOL0     H10521   8.091   1.049  -0.160 -0.3433 -0.9146  1.1735
   80MOL0     H10522   7.740   1.289  -0.157 -1.4155 -1.8888 -0.4119
   80MOL0     H10523   7.503   1.287  -0.077  1.8523  0.4994 -3.1410
   80MOL0     H10524   7.114   1.264  -0.072  2.4663 -0.3561  1.0684
   80MOL0     H10525   6.900   1.268  -0.011 -1.5644 -0.9518  2.1783
   80MOL0     H10526   6.698   1.151   0.068  1.4094  1.7063 -1.4922
   80MOL0     H10527   6.664   1.323   0.100  1.7986 -0.3382  0.4980
   80MOL0     H10528   6.531   1.266   0.282  0.5466  2.0057 -2.6877
   80MOL0     H10529   6.559   1.089   0.266  0.5363  0.6262  1.5033
   80MOL0     H10530   6.444   1.103   0.058 -0.7410  1.1390 -0.3606
   80MOL0     H10531   6.418   1.280   0.072  1.5837 -1.4077 -3.4190
   80MOL0     H10532   6.324   1.085   0.279  0.5065  0.5873 -0.8249
   80MOL0     H10533   6.301   1.262   0.274 -0.2769 -0.0034  0.4395
   80MOL0     H10534   6.182   1.061   0.067 -2.7373 -2.5561  3.4272
   80MOL0     H10535   6.145   1.242   0.077 -0.0407  0.0129  0.6951
   80MOL0     H10536   6.061   1.211   0.312 -3.5263  1.2270 -0.6011
   80MOL0     H10537   6.086   1.038   0.295 -3.7638 -0.3679  0.1433
   80MOL0     H10538   5.909   1.198   0.116  1.1184  0.5875  0.6998
   80MOL0     H10539   5.953   1.019   0.104 -3.3723  0.5993 -0.0554
   80MOL0     H10540   5.844   1.175   0.331  3.0093  1.3470 -3.0030
   80MOL0     H10541   5.864   0.997   0.334  0.9063 -0.6967  0.1293
   80MOL0     H10542   7.003   1.202   0.405 -0.1070  1.4791  0.2083
   80MOL0     H10543   7.250   1.235   0.330  1.0278 -0.3570  0.3468
   80MOL0     H10544   7.632   1.001   0.226  1.5293 -1.6217 -0.7305
   80MOL0     H10545   7.837   0.994   0.121 -3.3475 -2.2386  1.0707
   80MOL0     H10546   9.549   1.810  -0.036  3.1315 -1.2371  2.9763
   80MOL0     H10547   9.796   1.796  -0.023 -2.0619 -1.1453 -0.7722
   80MOL0     H10548  10.212   2.060   0.243 -1.5451  1.1833 -2.3822
   80MOL0     H10549  10.461   2.016   0.246  3.6191  3.3336 -4.3866
   80MOL0     H10550  10.653   1.805  -0.092  0.6819 -0.1732 -0.1007
   80MOL0     H10551  10.626   1.662   0.018  2.1097 -0.0991 -2.3148
   80MOL0     H10552  10.865   1.726  -0.035 -1.0708 -2.0179  0.5444
   80MOL0     H10553  10.837   1.875   0.055 -0.4496  0.0622 -2.1929
   80MOL0     H10554  10.819   1.590   0.164 -2.8683  0.2069 -1.4149
   80MOL0     H10555  10.774   1.733   0.254 -1.3997  0.6011 -2.0927
   80MOL0     H10556  11.044   1.706   0.121  0.2717  0.8613  0.4633
   80MOL0     H10557  10.985   1.828   0.244 -1.3483 -1.2840  3.5930
   80MOL0     H10558  11.126   1.553   0.516  1.8923 -1.1359 -1.5779
   80MOL0     H10559  10.426   1.799  -0.128 -1.3278  1.4498 -1.7778
   80MOL0     H10560  10.189   1.868  -0.141 -1.5162 -2.3584  1.8626
   81MOL0     O10561   3.328   6.447   2.221 -0.0926 -0.5709  0.2711
   81MOL0     C10562   3.313   6.414   2.103 -0.3495 -0.1740 -0.0083
   81MOL0     O10563   3.192   6.408   2.038  0.3490 -0.6962  0.0186
   81MOL0     C10564   3.081   6.469   2.100 -0.5252  0.0910  0.7819
   81MOL0     C10565   3.067   6.605   2.121  0.1056 -0.7210 -0.7889
   81MOL0     C10566   2.956   6.658   2.184 -0.6872  0.1005 -0.4291
   81MOL0     C10567   2.847   6.568   2.224 -0.8961  0.0414  1.1717
   81MOL0     O10568   2.725   6.623   2.273 -1.0276  0.0615  0.0877
   81MOL0     C10569   2.721   6.768   2.291 -0.1666 -0.0349  0.6343
   81MOL0     C10570   2.598   6.804   2.375  0.2743 -0.2833  1.0991
   81MOL0     C10571   2.632   6.946   2.430 -0.2955 -0.5303 -0.2244
   81MOL0     C10572   2.511   7.028   2.474 -0.5694  0.0899  0.4619
   81MOL0     C10573   2.413   6.948   2.571 -0.1134 -0.8449 -0.4511
   81MOL0     C10574   2.497   6.921   2.696  0.3716 -0.0538 -0.2954
   81MOL0     C10575   2.422   6.863   2.815  0.1172 -0.6950 -0.6775
   81MOL0     C10576   2.363   6.973   2.904 -0.7531  0.3820 -0.7174
   81MOL0     N10577   2.479   7.007   2.991  0.2663 -0.2251 -0.0809
   81MOL0     C10578   2.554   6.926   3.075 -0.1589 -0.4369  0.0946
   81MOL0     C10579   2.666   6.999   3.104  0.8130 -0.5847  0.8697
   81MOL0     C10580   2.785   6.943   3.174 -0.2786  1.3367 -0.4406
   81MOL0     C10581   2.874   6.895   3.058  0.3843 -0.3954 -0.4676
   81MOL0     C10582   3.015   6.961   3.075  1.1861  0.6046 -0.4608
   81MOL0     C10583   3.018   7.102   3.016  0.7828  0.2808  0.1723
   81MOL0     O10584   3.136   7.163   3.066  0.0868 -0.7793  0.2406
   81MOL0     C10585   3.263   7.140   3.000  0.6112 -0.0897  0.0986
   81MOL0     C10586   3.289   7.045   2.903  0.1827 -0.8075 -0.3093
   81MOL0     C10587   3.417   7.011   2.864 -0.0630 -0.3435 -0.2463
   81MOL0     C10588   3.525   7.084   2.913 -0.6018 -0.2067 -0.3951
   81MOL0     C10589   3.665   7.065   2.864 -0.4377  0.1433  0.5819
   81MOL0     O10590   3.678   6.975   2.764 -0.8582 -0.4092  0.4340
   81MOL0     C10591   3.791   6.956   2.685 -0.8940  0.4298  0.5041
   81MOL0     C10592   3.782   6.923   2.553  0.0285  0.1460 -0.4417
   81MOL0     C10593   3.895   6.895   2.479  1.0781 -0.3515 -0.5819
   81MOL0     C10594   4.021   6.902   2.534 -0.6448 -0.1651  0.7366
   81MOL0     O10595   4.124   6.904   2.443 -0.4497 -0.3059 -0.8658
   81MOL0     C10596   4.262   6.884   2.489 -0.2674 -0.2548 -0.3153
   81MOL0     C10597   4.355   6.910   2.372  0.3142  0.6637  0.5076
   81MOL0     C10598   4.506   6.882   2.402 -0.8818 -0.2340  0.3350
   81MOL0     C10599   4.599   6.909   2.281 -0.3230  0.8373  0.4961
   81MOL0     C10600   4.750   6.884   2.307 -0.2014 -0.1035 -0.9422
   81MOL0     C10601   4.848   6.949   2.203 -0.0816  0.4663  0.0587
   81MOL0     C10602   4.845   6.868   2.076  0.2932 -0.1821  0.2891
   81MOL0     C10603   4.912   6.734   2.073  0.4938  0.6663  0.0876
   81MOL0    Cl10604   4.898   6.670   1.902 -0.2894  0.6431 -0.2639
   81MOL0     C10605   4.035   6.930   2.671  0.2796  0.5010  0.2431
   81MOL0     C10606   3.921   6.957   2.737 -0.4139 -0.4889 -0.7632
   81MOL0     O10607   3.759   7.135   2.908 -0.2499  0.8806 -0.4688
   81MOL0     C10608   3.503   7.182   3.014 -0.1313 -0.1143  0.0806
   81MOL0     C10609   3.377   7.220   3.049  0.4575  0.0964 -0.3866
   81MOL0     N10610   2.649   7.131   3.058  0.1382  0.2565  0.1387
   81MOL0     N10611   2.538   7.126   2.994  0.0637 -0.0907  0.1601
   81MOL0     C10612   2.866   6.434   2.201  0.3813 -0.3583 -0.3598
   81MOL0     C10613   2.977   6.384   2.138 -0.1440  0.3063  0.6050
   81MOL0     C10614   3.422   6.378   2.019 -0.1389  0.3805  0.1303
   81MOL0     C10615   3.402   6.343   1.880 -0.0994 -0.3546  0.5389
   81MOL0     C10616   3.505   6.293   1.806  0.2874 -0.1356 -0.7178
   81MOL0     C10617   3.634   6.287   1.864  0.1540  0.2012  0.0394
   81MOL0     O10618   3.743   6.255   1.786  0.4382  0.2464  0.0757
   81MOL0     C10619   3.845   6.174   1.849 -0.2634 -0.0481 -0.7359
   81MOL0     C10620   3.922   6.099   1.739  1.1390 -0.0337  1.3906
   81MOL0     C10621   4.059   6.054   1.793  1.0359 -0.4532 -0.9735
   81MOL0     C10622   4.139   5.959   1.709  0.5828 -0.9319  0.3787
   81MOL0     C10623   4.268   5.935   1.772  0.1390 -0.7034 -0.4995
   81MOL0     C10624   4.369   5.908   1.837  0.1432  0.7345 -1.0175
   81MOL0     C10625   3.658   6.328   2.000  0.0249 -0.5283 -0.3207
   81MOL0     C10626   3.546   6.361   2.083  0.1046 -0.4426 -0.7630
   81MOL0     H10627   3.143   6.662   2.069 -0.1911  0.3973 -0.0370
   81MOL0     H10628   2.954   6.767   2.181 -0.9608  0.1017 -4.2173
   81MOL0     H10629   2.730   6.809   2.190 -2.7920 -1.5456 -0.3227
   81MOL0     H10630   2.803   6.792   2.358 -1.2854  2.0022  1.3328
   81MOL0     H10631   2.589   6.739   2.462 -0.8742  0.6965  1.7434
   81MOL0     H10632   2.511   6.799   2.310  1.8948  0.1163 -1.2548
   81MOL0     H10633   2.678   7.013   2.357 -2.0586  2.0078  0.8643
   81MOL0     H10634   2.701   6.932   2.514  0.5625 -0.3101 -0.8783
   81MOL0     H10635   2.543   7.126   2.511 -0.7347  0.4373 -0.2983
   81MOL0     H10636   2.462   7.045   2.378  1.6209 -1.7800 -1.1164
   81MOL0     H10637   2.380   6.859   2.518 -0.3463  0.0125 -1.7810
   81MOL0     H10638   2.330   7.014   2.599  1.5352  1.1729 -0.0319
   81MOL0     H10639   2.543   7.018   2.715  2.1659 -0.9997  0.4335
   81MOL0     H10640   2.574   6.850   2.665  1.2008  1.2442 -1.3151
   81MOL0     H10641   2.342   6.793   2.787  2.3730 -4.0264  0.6276
   81MOL0     H10642   2.493   6.795   2.863  0.8345 -0.3384 -1.2137
   81MOL0     H10643   2.277   6.947   2.966 -0.9899  1.5953 -0.5191
   81MOL0     H10644   2.346   7.058   2.837 -2.4829 -0.6630 -1.6643
   81MOL0     H10645   2.531   6.823   3.100 -4.1066 -0.1173 -1.5216
   81MOL0     H10646   2.753   6.863   3.241  4.4218  0.6137  1.3460
   81MOL0     H10647   2.833   7.019   3.238 -1.0131  1.4802 -0.0459
   81MOL0     H10648   2.834   6.923   2.961 -1.6283  0.3161  0.5083
   81MOL0     H10649   2.882   6.786   3.061  1.4776 -0.3049  1.4402
   81MOL0     H10650   3.041   6.950   3.181 -0.2626 -0.3876 -0.1683
   81MOL0     H10651   3.090   6.908   3.017  2.1265  1.6282 -0.2210
   81MOL0     H10652   2.932   7.152   3.061  1.3215 -1.1615  3.0924
   81MOL0     H10653   3.016   7.102   2.907  0.9402  0.4353  0.1683
   81MOL0     H10654   3.204   7.006   2.847 -0.3901 -0.2709  0.1764
   81MOL0     H10655   3.427   6.928   2.795  1.5196 -0.4896  0.1234
   81MOL0     H10656   3.681   6.925   2.514 -0.4178 -1.2240  0.5728
   81MOL0     H10657   3.883   6.867   2.375 -0.8617 -2.4220  0.1179
   81MOL0     H10658   4.282   6.782   2.523 -0.7549 -0.4049 -0.4668
   81MOL0     H10659   4.291   6.959   2.562 -1.6354  2.3007 -2.2114
   81MOL0     H10660   4.336   7.010   2.332 -0.4564 -0.4403 -2.1213
   81MOL0     H10661   4.322   6.844   2.290  0.7981 -0.5437  1.2684
   81MOL0     H10662   4.501   6.776   2.425 -0.8856 -0.6617 -1.4806
   81MOL0     H10663   4.538   6.939   2.490 -0.0606  1.0754 -0.7601
   81MOL0     H10664   4.574   6.863   2.185 -0.5787  2.9377 -0.5035
   81MOL0     H10665   4.591   7.017   2.265 -0.3081  0.5720 -1.5685
   81MOL0     H10666   4.760   6.780   2.338 -2.1394  0.4576  2.0953
   81MOL0     H10667   4.761   6.957   2.388 -2.6307 -0.2466 -0.3973
   81MOL0     H10668   4.949   6.965   2.243  0.7191 -2.2307 -0.6666
   81MOL0     H10669   4.817   7.048   2.171  0.5674  0.5883 -0.2087
   81MOL0     H10670   4.748   6.864   2.027  0.0015 -0.0052  0.8503
   81MOL0     H10671   4.896   6.933   2.003 -0.5839 -1.3419 -1.4377
   81MOL0     H10672   4.868   6.662   2.143 -0.8100  0.2733 -1.1092
   81MOL0     H10673   5.019   6.745   2.094  0.9627 -4.6499  2.0393
   81MOL0     H10674   4.127   6.925   2.728 -0.3992 -0.7904  1.2818
   81MOL0     H10675   3.928   6.972   2.844  0.6569 -1.9467 -0.5955
   81MOL0     H10676   3.585   7.232   3.063 -0.4705 -1.5631  2.2885
   81MOL0     H10677   3.358   7.292   3.127  0.2860 -0.8912  0.5160
   81MOL0     H10678   2.780   6.376   2.229 -0.9071  1.6128 -0.0462
   81MOL0     H10679   2.990   6.276   2.129  1.2552  0.5520 -0.6741
   81MOL0     H10680   3.306   6.344   1.830  1.3446  0.1020 -2.3906
   81MOL0     H10681   3.503   6.251   1.706  0.7952  2.3548 -1.8642
   81MOL0     H10682   3.801   6.116   1.930  0.9800 -0.6544 -0.4600
   81MOL0     H10683   3.906   6.247   1.903 -1.3839 -2.3853  4.2150
   81MOL0     H10684   3.868   6.011   1.703  0.9355  0.9390 -0.8204
   81MOL0     H10685   3.944   6.162   1.653  0.8439 -2.1922 -0.3640
   81MOL0     H10686   4.032   6.005   1.887 -3.1875  2.0597 -0.6038
   81MOL0     H10687   4.121   6.142   1.807 -0.1363  0.5667 -1.9505
   81MOL0     H10688   4.084   5.865   1.714 -2.7601  0.8876  0.5963
   81MOL0     H10689   4.157   5.983   1.604 -0.0978 -1.1955  0.1980
   81MOL0     H10690   4.443   5.885   1.911 -1.6069 -1.0787  0.2755
   81MOL0     H10691   3.754   6.325   2.051 -1.2590 -1.0012  2.2925
   81MOL0     H10692   3.568   6.379   2.188 -1.0056  1.2832 -0.7771
   82MOL0     O10693   4.929   5.020   4.768  0.2238 -0.0476 -0.0775
   82MOL0     C10694   4.990   5.088   4.688  1.1596 -0.1837  0.4971
   82MOL0     O10695   4.947   5.128   4.563 -0.3185  0.5286 -0.1269
   82MOL0     C10696   4.812   5.101   4.538 -0.4934 -0.1884  0.1558
   82MOL0     C10697   4.767   4.992   4.463 -0.6869 -0.4977 -0.0916
   82MOL0     C10698   4.637   4.996   4.422  0.6540  0.1702 -0.4869
   82MOL0     C10699   4.543   5.094   4.474  0.3238 -0.1255 -0.5353
   82MOL0     O10700   4.410   5.098   4.439 -0.0970  0.4574  0.7055
   82MOL0     C10701   4.346   4.978   4.397 -0.1108  0.0645  0.1456
   82MOL0     C10702   4.196   5.006   4.397 -1.5310  0.5118 -0.0308
   82MOL0     C10703   4.107   4.899   4.342  0.6732 -0.1688 -0.3226
   82MOL0     C10704   3.961   4.950   4.368 -0.6106  0.5429  0.3257
   82MOL0     C10705   3.860   4.862   4.297  0.9989 -0.0651  0.3014
   82MOL0     C10706   3.895   4.716   4.278  0.0003 -0.1488 -0.5480
   82MOL0     C10707   3.781   4.641   4.205  0.3637 -0.2093 -0.3072
   82MOL0     C10708   3.829   4.505   4.160  0.2960  0.2050  1.3006
   82MOL0     N10709   3.717   4.424   4.119 -0.2696  0.4797  0.4002
   82MOL0     C10710   3.683   4.300   4.174  0.0640  0.5626  0.0313
   82MOL0     C10711   3.579   4.253   4.100  0.2527 -0.9690  0.1895
   82MOL0     C10712   3.538   4.113   4.097  0.7172  0.7387  0.4108
   82MOL0     C10713   3.394   4.090   4.129  0.2417 -0.0915 -0.6179
   82MOL0     C10714   3.294   4.129   4.011 -0.3578 -0.2397  0.1735
   82MOL0     C10715   3.155   4.136   4.069 -0.3600  0.0194  0.4907
   82MOL0     O10716   3.143   4.260   4.149 -0.7254 -0.5390 -0.3528
   82MOL0     C10717   3.017   4.311   4.181 -0.6780 -0.4682 -0.0226
   82MOL0     C10718   2.893   4.237   4.182  0.1872  0.8110  0.5413
   82MOL0     C10719   2.769   4.308   4.193 -0.6459  1.0997  0.3593
   82MOL0     C10720   2.770   4.451   4.194  0.2660 -0.4170  0.2190
   82MOL0     C10721   2.632   4.514   4.199  0.5285 -0.1734 -0.2160
   82MOL0     O10722   2.517   4.445   4.181 -0.6064 -0.0540 -0.7829
   82MOL0     C10723   2.381   4.483   4.199  0.7838 -0.6761 -0.0458
   82MOL0     C10724   2.286   4.413   4.128 -0.3387  0.4787 -0.4266
   82MOL0     C10725   2.149   4.432   4.143  0.6116 -0.0548 -0.6523
   82MOL0     C10726   2.100   4.529   4.229 -0.4534 -0.0095 -0.0878
   82MOL0     O10727   1.962   4.542   4.240 -0.3518  0.0329 -0.5321
   82MOL0     C10728   1.900   4.565   4.371 -0.1123  0.2226 -0.5929
   82MOL0     C10729   1.747   4.553   4.346 -0.6722 -0.6308 -0.4056
   82MOL0     C10730   1.650   4.576   4.451 -0.2838 -0.8482 -0.5291
   82MOL0     C10731   1.636   4.454   4.536  0.4177  0.5966 -0.9010
   82MOL0     C10732   1.563   4.482   4.665  0.2025  0.2666  0.2738
   82MOL0     C10733   1.410   4.520   4.649 -0.0266 -0.8820 -0.1189
   82MOL0     C10734   1.342   4.569   4.775  0.1910 -0.8181 -0.8232
   82MOL0     C10735   1.191   4.596   4.746  0.0179 -0.3331 -0.0216
   82MOL0    Cl10736   1.098   4.670   4.880 -0.2233  0.7487 -0.1985
   82MOL0     C10737   2.196   4.606   4.306 -0.8746 -0.2518  0.2295
   82MOL0     C10738   2.338   4.582   4.290 -0.7735 -0.1184  0.2393
   82MOL0     O10739   2.637   4.634   4.221 -0.5638  0.4677 -0.2866
   82MOL0     C10740   2.887   4.526   4.194 -0.2484  1.0216 -0.5204
   82MOL0     C10741   3.008   4.455   4.183  0.1515  0.1753 -0.0705
   82MOL0     N10742   3.540   4.356   4.010 -0.5406 -0.0908 -0.2837
   82MOL0     N10743   3.625   4.454   4.019 -1.1317  1.1733 -1.1483
   82MOL0     C10744   4.597   5.200   4.540  0.5311 -0.0849 -0.9184
   82MOL0     C10745   4.728   5.203   4.583  0.0498  0.1134  1.0221
   82MOL0     C10746   5.123   5.131   4.728 -0.5940  0.1348 -0.7611
   82MOL0     C10747   5.206   5.211   4.649  0.5431  0.9652 -0.6883
   82MOL0     C10748   5.334   5.249   4.690  0.3517 -0.3008  1.1254
   82MOL0     C10749   5.383   5.202   4.813  0.3885 -0.5648 -0.4291
   82MOL0     O10750   5.512   5.229   4.859 -0.1824  0.0301 -0.4099
   82MOL0     C10751   5.571   5.146   4.953  0.1621 -0.3051 -0.2961
   82MOL0     C10752   5.726   5.179   4.945  0.0702 -0.5548  0.9252
   82MOL0     C10753   5.753   5.324   4.962 -0.9470  0.2038  0.7404
   82MOL0     C10754   5.901   5.371   4.955  0.5859 -0.2567 -0.3448
   82MOL0     C10755   5.915   5.496   5.018  0.9311 -0.2306 -0.7492
   82MOL0     C10756   5.919   5.614   5.053  0.2479  0.0966 -0.0890
   82MOL0     C10757   5.307   5.104   4.886 -0.3488  0.0465  0.4380
   82MOL0     C10758   5.176   5.075   4.849  0.1168  0.6559  0.3585
   82MOL0     H10759   4.838   4.918   4.428 -0.8582 -0.8797  0.3620
   82MOL0     H10760   4.618   4.940   4.331  1.9083  1.3395 -1.5108
   82MOL0     H10761   4.363   4.903   4.474 -2.6726 -0.2878  0.4505
   82MOL0     H10762   4.389   4.939   4.304 -2.6527 -1.7461 -0.3704
   82MOL0     H10763   4.182   5.103   4.347  1.2718  1.3603  0.6631
   82MOL0     H10764   4.170   5.017   4.502 -4.7505 -0.8128 -0.5675
   82MOL0     H10765   4.124   4.808   4.401  3.5456 -0.3705 -1.2765
   82MOL0     H10766   4.131   4.861   4.242 -1.1083 -0.3141 -0.7190
   82MOL0     H10767   3.941   4.949   4.476  2.6768 -0.4793  1.0401
   82MOL0     H10768   3.956   5.050   4.323 -4.0953 -0.0402 -0.8488
   82MOL0     H10769   3.838   4.906   4.199 -1.6230 -0.5797  0.5942
   82MOL0     H10770   3.765   4.867   4.351  1.8315  0.9008  1.7658
   82MOL0     H10771   3.906   4.670   4.377 -0.3727  1.2335  0.1646
   82MOL0     H10772   3.987   4.703   4.220 -0.7408  0.7373 -1.9736
   82MOL0     H10773   3.690   4.644   4.265 -2.0110  1.8037 -3.6609
   82MOL0     H10774   3.768   4.690   4.108  0.1245  1.3526  0.4891
   82MOL0     H10775   3.880   4.446   4.238 -0.9869  0.0401  2.0599
   82MOL0     H10776   3.894   4.513   4.073 -1.7820 -1.7390 -0.5503
   82MOL0     H10777   3.748   4.242   4.238  0.3061 -0.4761 -1.1046
   82MOL0     H10778   3.590   4.048   4.169  0.0258 -1.3575 -0.8864
   82MOL0     H10779   3.555   4.074   3.996 -0.4239 -1.2629  0.9493
   82MOL0     H10780   3.369   4.145   4.220 -1.2247 -0.8671 -0.5026
   82MOL0     H10781   3.379   3.984   4.154  0.7204 -0.2897 -1.1577
   82MOL0     H10782   3.326   4.221   3.962 -1.3991  0.4118  0.6994
   82MOL0     H10783   3.300   4.058   3.927 -1.0142 -1.5955  1.2302
   82MOL0     H10784   3.134   4.044   4.125 -1.2427 -0.7431 -1.0376
   82MOL0     H10785   3.087   4.152   3.985 -0.4442  0.1709  0.5855
   82MOL0     H10786   2.890   4.129   4.189 -0.0531  0.8875  2.1390
   82MOL0     H10787   2.671   4.261   4.197  0.3178 -1.0168  0.3387
   82MOL0     H10788   2.332   4.334   4.069 -1.1609 -0.0978 -0.3194
   82MOL0     H10789   2.086   4.358   4.093 -0.3685  2.2391 -3.0764
   82MOL0     H10790   1.935   4.660   4.413  1.5210 -1.8319  3.1938
   82MOL0     H10791   1.929   4.480   4.434  2.4437  1.1718 -0.3871
   82MOL0     H10792   1.733   4.455   4.300 -0.7187 -0.5319 -0.6014
   82MOL0     H10793   1.729   4.628   4.268 -1.2970  0.4098  0.7059
   82MOL0     H10794   1.556   4.600   4.401  0.7693  2.9068 -0.9682
   82MOL0     H10795   1.674   4.660   4.516 -0.8233 -1.5795  0.6428
   82MOL0     H10796   1.579   4.374   4.488  2.1514 -0.1787 -1.7662
   82MOL0     H10797   1.738   4.420   4.559 -0.3094 -1.2831 -0.2969
   82MOL0     H10798   1.612   4.565   4.716  0.3437  1.2247 -1.3244
   82MOL0     H10799   1.569   4.389   4.721  0.1295  1.0195  1.5600
   82MOL0     H10800   1.352   4.436   4.611 -0.0921 -1.1057  0.4637
   82MOL0     H10801   1.412   4.603   4.577  0.2921 -0.2810  0.5699
   82MOL0     H10802   1.351   4.496   4.856 -0.3095  0.0668  0.0537
   82MOL0     H10803   1.390   4.660   4.812  0.6284 -1.0296 -0.8593
   82MOL0     H10804   1.141   4.499   4.732  1.5456 -0.8236 -2.7441
   82MOL0     H10805   1.187   4.657   4.656  1.1428 -2.2129 -1.4254
   82MOL0     H10806   2.172   4.689   4.371 -0.3609  0.1196 -0.0391
   82MOL0     H10807   2.414   4.642   4.340 -1.7537  1.2088  0.2096
   82MOL0     H10808   2.883   4.635   4.200  2.1173  1.0920  2.6605
   82MOL0     H10809   3.102   4.508   4.174 -0.6485  1.6521 -0.1005
   82MOL0     H10810   4.533   5.284   4.566 -0.3038 -0.7279 -0.8411
   82MOL0     H10811   4.771   5.292   4.629 -2.9369  2.1629  0.1474
   82MOL0     H10812   5.168   5.256   4.558  2.9427 -0.1649 -2.3747
   82MOL0     H10813   5.390   5.321   4.631  1.5169 -0.2664  2.2254
   82MOL0     H10814   5.566   5.038   4.937  1.1670 -0.1991 -1.4751
   82MOL0     H10815   5.535   5.173   5.053 -2.3476  1.0427 -1.4929
   82MOL0     H10816   5.771   5.134   5.034 -2.9927  1.0131  3.4919
   82MOL0     H10817   5.777   5.162   4.850  0.2562  2.3548  0.3855
   82MOL0     H10818   5.705   5.352   5.057 -1.9803  2.4442 -0.3939
   82MOL0     H10819   5.702   5.387   4.889  0.3347  1.1680  0.6540
   82MOL0     H10820   5.961   5.299   5.012  0.6094  0.5247  0.6409
   82MOL0     H10821   5.938   5.377   4.852  0.3799 -1.4850 -0.5049
   82MOL0     H10822   5.916   5.718   5.079 -1.5256 -0.1927  1.0287
   82MOL0     H10823   5.348   5.054   4.973  0.1582 -3.4217 -1.6343
   82MOL0     H10824   5.118   5.021   4.923  2.9660 -1.3539  1.2856
   83MOL0     O10825   3.863   1.192   2.155 -0.0890 -0.6647  0.1394
   83MOL0     C10826   3.950   1.275   2.156  0.5173  0.4375  0.0786
   83MOL0     O10827   3.935   1.408   2.187  0.8478  0.2770 -0.6841
   83MOL0     C10828   3.805   1.447   2.186  0.7580  0.3014 -0.0401
   83MOL0     C10829   3.745   1.486   2.300 -0.5358 -1.0151  0.0282
   83MOL0     C10830   3.636   1.577   2.316  0.1975  0.7277  0.8363
   83MOL0     C10831   3.577   1.624   2.199  0.2446 -0.5828  0.5912
   83MOL0     O10832   3.467   1.697   2.209  0.7586 -0.9745 -0.2487
   83MOL0     C10833   3.424   1.774   2.093  0.3783 -0.5214 -0.8646
   83MOL0     C10834   3.315   1.868   2.141  0.8190  0.5354 -0.3963
   83MOL0     C10835   3.201   1.790   2.219 -0.1742 -0.6156  0.0051
   83MOL0     C10836   3.078   1.882   2.222 -1.1806 -0.4045  0.5271
   83MOL0     C10837   2.969   1.832   2.318  0.2475  0.8198 -0.1850
   83MOL0     C10838   2.889   1.709   2.251 -0.7697 -0.1640 -0.3883
   83MOL0     C10839   2.797   1.644   2.353 -0.1003 -0.4481 -0.6666
   83MOL0     C10840   2.718   1.528   2.302 -0.1945  0.0033 -0.6775
   83MOL0     N10841   2.797   1.410   2.270 -0.4619  0.5607 -0.1326
   83MOL0     C10842   2.859   1.312   2.350 -0.7442 -0.4699  0.0057
   83MOL0     C10843   2.948   1.248   2.273 -0.9389  0.2537 -0.8089
   83MOL0     C10844   3.011   1.116   2.321  0.2335  0.1053  0.1233
   83MOL0     C10845   2.916   0.998   2.344 -0.2026 -0.0284  0.7043
   83MOL0     C10846   2.868   0.936   2.206  0.4844 -0.2115  0.8179
   83MOL0     C10847   2.795   0.801   2.229  0.3277  0.1543 -0.3812
   83MOL0     O10848   2.689   0.831   2.319 -0.6839  0.5336 -0.5111
   83MOL0     C10849   2.558   0.785   2.298  0.0241 -1.2397  0.5720
   83MOL0     C10850   2.461   0.825   2.385 -0.6610 -0.2084 -0.6464
   83MOL0     C10851   2.323   0.795   2.362 -0.7128  1.2489 -1.0065
   83MOL0     C10852   2.285   0.704   2.267 -0.4911 -0.0099 -0.6575
   83MOL0     C10853   2.149   0.662   2.251  0.3308 -1.3434  0.8998
   83MOL0     O10854   2.074   0.681   2.367  0.1574  0.6778  0.3414
   83MOL0     C10855   1.945   0.653   2.380 -0.2696  0.8106 -0.5703
   83MOL0     C10856   1.846   0.660   2.281 -0.2677  0.5435  0.7046
   83MOL0     C10857   1.705   0.664   2.310  0.2674  0.9209 -0.0548
   83MOL0     C10858   1.666   0.638   2.451  1.1312  0.0836  0.7569
   83MOL0     O10859   1.527   0.648   2.460  0.1575 -0.3097  0.1487
   83MOL0     C10860   1.482   0.577   2.580  0.0961 -0.0664 -0.2172
   83MOL0     C10861   1.337   0.596   2.561 -0.0174 -0.6437  0.0663
   83MOL0     C10862   1.252   0.568   2.688  0.1358 -0.4808 -0.5211
   83MOL0     C10863   1.098   0.568   2.644  0.2013 -0.7195  1.1162
   83MOL0     C10864   1.015   0.660   2.738  0.3566 -0.0962  0.1110
   83MOL0     C10865   0.860   0.638   2.714 -0.2880  0.0931 -0.5712
   83MOL0     C10866   0.804   0.493   2.746  0.2289  0.7557  0.3851
   83MOL0     C10867   0.655   0.487   2.761 -0.2577  0.1024  1.0547
   83MOL0    Cl10868   0.555   0.538   2.619  0.1077 -0.0348 -0.1291
   83MOL0     C10869   1.767   0.625   2.546  0.1990  0.6691  0.6448
   83MOL0     C10870   1.898   0.632   2.512 -0.1431 -0.3752 -0.5590
   83MOL0     O10871   2.109   0.614   2.142  0.4627  0.2865  0.7315
   83MOL0     C10872   2.383   0.654   2.184  0.9011  0.1065 -0.5141
   83MOL0     C10873   2.515   0.692   2.198 -0.6638 -0.2250  0.1590
   83MOL0     N10874   2.936   1.293   2.142 -0.0091  0.5734 -0.4703
   83MOL0     N10875   2.852   1.393   2.141 -0.7021  0.1045 -0.3013
   83MOL0     C10876   3.631   1.577   2.069  0.3866 -0.3337  0.5592
   83MOL0     C10877   3.746   1.497   2.066  0.4401 -0.4500 -0.1707
   83MOL0     C10878   4.089   1.233   2.120  0.3059 -0.0165  0.2586
   83MOL0     C10879   4.182   1.334   2.096  0.4804  0.7403  0.6753
   83MOL0     C10880   4.317   1.302   2.066 -0.1335  0.7479  0.4261
   83MOL0     C10881   4.346   1.157   2.058  0.5107 -0.7610 -0.4803
   83MOL0     O10882   4.470   1.127   2.014  0.0274 -0.4769 -0.1377
   83MOL0     C10883   4.518   0.994   2.005  0.5058 -0.6327  0.7187
   83MOL0     C10884   4.667   1.005   1.999  0.1144 -0.2520 -0.0498
   83MOL0     C10885   4.728   0.871   1.986  0.0149 -0.1866 -0.0841
   83MOL0     C10886   4.882   0.870   1.992 -0.4527  0.4084  0.6146
   83MOL0     C10887   4.948   0.939   1.879 -0.1400  0.3016 -0.5843
   83MOL0     C10888   4.998   0.981   1.780 -0.2300 -0.2451 -0.3487
   83MOL0     C10889   4.253   1.058   2.069 -0.9001  0.1155 -0.5738
   83MOL0     C10890   4.120   1.093   2.107  0.2249 -0.0616 -0.6704
   83MOL0     H10891   3.774   1.451   2.399 -1.9666  0.2748  0.9407
   83MOL0     H10892   3.600   1.611   2.412 -3.0402 -0.9345  0.3359
   83MOL0     H10893   3.373   1.715   2.017 -1.0703  1.4627 -1.5082
   83MOL0     H10894   3.507   1.821   2.040 -1.2359  1.4671 -1.7539
   83MOL0     H10895   3.260   1.921   2.063 -1.8400 -1.6296 -0.1515
   83MOL0     H10896   3.353   1.948   2.205 -0.4789 -0.3467  1.5796
   83MOL0     H10897   3.226   1.769   2.324 -0.5046  0.1846  0.2558
   83MOL0     H10898   3.183   1.695   2.167 -0.0344  1.0324 -3.2896
   83MOL0     H10899   3.103   1.986   2.242  3.1152 -1.4115  1.3582
   83MOL0     H10900   3.039   1.883   2.120 -0.1991  0.3532  0.1370
   83MOL0     H10901   2.898   1.911   2.346  0.9564  0.7692  1.9650
   83MOL0     H10902   3.019   1.800   2.410  0.6883  0.0888 -0.6666
   83MOL0     H10903   2.959   1.643   2.199  1.8159  0.5885  1.8344
   83MOL0     H10904   2.824   1.747   2.172  2.4470 -1.1661 -3.8277
   83MOL0     H10905   2.861   1.611   2.435 -2.9149 -0.5933  1.6281
   83MOL0     H10906   2.730   1.717   2.399 -0.8742 -2.1276  1.0078
   83MOL0     H10907   2.667   1.559   2.210  0.1411  0.1402 -0.8191
   83MOL0     H10908   2.636   1.500   2.369 -0.6359  0.7436 -0.9056
   83MOL0     H10909   2.840   1.295   2.456 -0.3778  0.8622  0.3029
   83MOL0     H10910   3.052   1.140   2.420  2.3350 -0.6991 -0.4831
   83MOL0     H10911   3.093   1.090   2.253 -1.3206 -0.9629 -1.4209
   83MOL0     H10912   2.826   1.026   2.399 -1.3566 -1.2502 -0.4725
   83MOL0     H10913   2.971   0.921   2.398  1.4954  0.8856  0.3419
   83MOL0     H10914   2.798   1.003   2.155 -1.3537 -4.0592 -2.2421
   83MOL0     H10915   2.958   0.927   2.145  0.3709  0.5762  0.5259
   83MOL0     H10916   2.861   0.726   2.275  1.0857  1.2540  0.3665
   83MOL0     H10917   2.752   0.764   2.136 -0.6877 -0.3075  0.2535
   83MOL0     H10918   2.473   0.885   2.475  0.7376 -1.9683  0.4234
   83MOL0     H10919   2.255   0.845   2.430 -1.7369 -0.7781 -0.4668
   83MOL0     H10920   1.865   0.693   2.179 -0.3916  0.7785  0.7557
   83MOL0     H10921   1.628   0.672   2.234  1.0467  1.2882 -0.8275
   83MOL0     H10922   1.519   0.640   2.661  1.2152  0.9832 -1.4907
   83MOL0     H10923   1.517   0.474   2.595 -1.2572 -0.0052  5.5061
   83MOL0     H10924   1.308   0.527   2.481 -0.6982 -1.1950  0.7662
   83MOL0     H10925   1.322   0.698   2.524  0.7683 -0.3292  0.5835
   83MOL0     H10926   1.261   0.659   2.748 -2.3505  0.3399 -1.2451
   83MOL0     H10927   1.279   0.476   2.739  0.5969 -0.8834 -1.4630
   83MOL0     H10928   1.077   0.612   2.547  0.5072 -0.6730  1.0700
   83MOL0     H10929   1.047   0.472   2.653 -1.9929  0.5514  4.0702
   83MOL0     H10930   1.034   0.766   2.721  0.2335 -0.1083 -0.0998
   83MOL0     H10931   1.033   0.629   2.842  1.6169 -2.4278 -0.7273
   83MOL0     H10932   0.837   0.667   2.611 -0.5618  0.6253 -0.3634
   83MOL0     H10933   0.811   0.713   2.775  1.3536 -0.1331  1.1175
   83MOL0     H10934   0.822   0.426   2.662 -2.0062  0.8533 -0.2281
   83MOL0     H10935   0.853   0.452   2.835  0.1879  0.5686  0.3213
   83MOL0     H10936   0.630   0.545   2.851  4.5487  1.9000  1.5299
   83MOL0     H10937   0.629   0.383   2.780  1.0316 -0.2926  0.7413
   83MOL0     H10938   1.755   0.595   2.649 -0.2227  1.9785  0.9957
   83MOL0     H10939   1.970   0.626   2.593 -1.2769  4.6148  1.1748
   83MOL0     H10940   2.350   0.578   2.115 -1.3472  0.1738  0.4261
   83MOL0     H10941   2.594   0.658   2.132 -1.5626  1.3627 -1.8781
   83MOL0     H10942   3.587   1.610   1.975 -0.3644 -0.3485  0.8974
   83MOL0     H10943   3.807   1.486   1.977 -2.0318 -1.3861 -1.8917
   83MOL0     H10944   4.150   1.437   2.094  1.1705  0.9529 -0.0332
   83MOL0     H10945   4.384   1.387   2.063  0.7459  0.0317 -1.8132
   83MOL0     H10946   4.502   0.943   1.909  0.0581 -0.5170  0.7283
   83MOL0     H10947   4.478   0.930   2.084 -4.5930  0.8197 -0.2999
   83MOL0     H10948   4.716   1.065   1.922  3.1824 -1.5925  0.6615
   83MOL0     H10949   4.696   1.050   2.095 -1.5463  1.8003 -0.4335
   83MOL0     H10950   4.695   0.830   1.890 -0.3428 -1.0701  0.4076
   83MOL0     H10951   4.678   0.811   2.062  0.7211 -0.1620  0.4069
   83MOL0     H10952   4.910   0.921   2.085  1.0127 -3.4136  2.4902
   83MOL0     H10953   4.917   0.767   1.981 -3.6726 -0.7281  0.0265
   83MOL0     H10954   5.048   1.016   1.691 -1.2506  0.8995 -0.5019
   83MOL0     H10955   4.277   0.953   2.053 -2.2924 -0.4351  0.7228
   83MOL0     H10956   4.053   1.011   2.134 -0.6288  0.5498 -0.9201
   84MOL0     O10957   5.654   3.515   3.369 -0.3883  0.2106 -0.2547
   84MOL0     C10958   5.680   3.444   3.275 -0.0847  0.3821  0.3002
   84MOL0     O10959   5.598   3.349   3.217 -0.2905 -0.3305  0.1420
   84MOL0     C10960   5.464   3.327   3.236 -0.2971 -0.8244 -0.4259
   84MOL0     C10961   5.393   3.393   3.334 -0.6218 -0.8606 -0.1991
   84MOL0     C10962   5.266   3.344   3.378 -0.2088 -0.3978  0.7734
   84MOL0     C10963   5.205   3.245   3.300  0.2838 -0.1100  0.3334
   84MOL0     O10964   5.076   3.211   3.341  0.1804  0.2762  0.9224
   84MOL0     C10965   5.008   3.111   3.263 -0.1929  0.9902 -0.3418
   84MOL0     C10966   4.882   3.078   3.338  0.0957  0.2323 -1.1294
   84MOL0     C10967   4.773   3.018   3.250 -0.5638  0.3444 -1.3341
   84MOL0     C10968   4.638   2.995   3.302 -0.0936 -0.1139  0.1116
   84MOL0     C10969   4.542   2.918   3.205 -0.2255 -0.5368 -0.7078
   84MOL0     C10970   4.413   2.897   3.282  0.4216 -0.7108 -0.7012
   84MOL0     C10971   4.313   2.831   3.196 -0.0431 -0.0106 -0.0803
   84MOL0     C10972   4.175   2.848   3.262 -0.6941  0.0844 -0.0700
   84MOL0     N10973   4.082   2.751   3.190 -0.0900 -0.3737 -0.0315
   84MOL0     C10974   4.023   2.649   3.259  0.2850  0.0464 -0.2355
   84MOL0     C10975   3.954   2.576   3.166  0.0206 -0.5246  0.2148
   84MOL0     C10976   3.861   2.460   3.213 -0.4721 -0.3641  0.3443
   84MOL0     C10977   3.716   2.510   3.220 -0.0902  0.6802  0.2593
   84MOL0     C10978   3.634   2.394   3.280  0.0882 -0.2511 -0.7020
   84MOL0     C10979   3.491   2.432   3.307 -0.2861  1.3780  0.0331
   84MOL0     O10980   3.412   2.320   3.364  0.1004 -0.1394 -0.3021
   84MOL0     C10981   3.281   2.345   3.384  0.6311  0.9508 -0.1674
   84MOL0     C10982   3.212   2.463   3.358  0.1867  0.2354  1.2520
   84MOL0     C10983   3.070   2.478   3.381  0.3105  0.2113 -0.5613
   84MOL0     C10984   2.992   2.359   3.408 -0.2523 -0.3322  0.5475
   84MOL0     C10985   2.843   2.360   3.420 -0.9069  0.5801  0.5283
   84MOL0     O10986   2.786   2.239   3.423  0.1165  0.7416 -0.4939
   84MOL0     C10987   2.654   2.226   3.405  0.0941 -0.2467 -0.6572
   84MOL0     C10988   2.570   2.189   3.504 -0.1002 -0.0758  0.4739
   84MOL0     C10989   2.434   2.160   3.477  0.0200  0.4108 -0.1389
   84MOL0     C10990   2.375   2.187   3.349  0.2054  0.0690  0.0166
   84MOL0     O10991   2.239   2.174   3.325  0.1145  0.6687 -0.3012
   84MOL0     C10992   2.192   2.189   3.193 -0.0590 -0.0395 -0.1509
   84MOL0     C10993   2.041   2.223   3.202  0.6249 -0.4120 -0.1594
   84MOL0     C10994   2.023   2.355   3.283 -0.0662 -0.4889  0.5193
   84MOL0     C10995   1.879   2.373   3.298 -0.0025  0.0881 -0.3126
   84MOL0     C10996   1.855   2.490   3.394  0.0323  0.0254  1.0835
   84MOL0     C10997   1.715   2.525   3.404  0.8648  0.2926  0.9365
   84MOL0     C10998   1.674   2.637   3.494 -0.4077 -0.0158  0.3090
   84MOL0     C10999   1.528   2.634   3.531  0.4996  0.0799  1.3224
   84MOL0    Cl11000   1.435   2.653   3.369 -0.1144 -0.3722  0.1873
   84MOL0     C11001   2.470   2.214   3.249 -0.1735  0.4450  0.2729
   84MOL0     C11002   2.601   2.232   3.281  0.0318 -0.0374  0.9807
   84MOL0     O11003   2.787   2.467   3.444 -0.0877  0.2442  0.8992
   84MOL0     C11004   3.064   2.244   3.430  0.7515 -0.3792 -0.3417
   84MOL0     C11005   3.200   2.235   3.423 -0.2803  0.2772 -0.0294
   84MOL0     N11006   3.980   2.634   3.040  1.0145  0.1442 -0.0254
   84MOL0     N11007   4.059   2.736   3.053 -0.9227 -0.3920 -1.3560
   84MOL0     C11008   5.269   3.209   3.180  0.3321  0.1639  0.4416
   84MOL0     C11009   5.400   3.233   3.156 -0.4138  0.0761  0.8324
   84MOL0     C11010   5.820   3.471   3.213  0.5145 -0.9443  0.7007
   84MOL0     C11011   5.898   3.575   3.250 -0.6386 -1.2369 -0.8726
   84MOL0     C11012   6.004   3.616   3.170  0.2945 -0.3509 -0.3345
   84MOL0     C11013   6.036   3.540   3.049 -0.2835 -0.6830 -0.1694
   84MOL0     O11014   6.150   3.565   2.982 -0.3655 -1.0122  0.5585
   84MOL0     C11015   6.142   3.674   2.886 -0.8888 -0.7937  0.3875
   84MOL0     C11016   6.280   3.720   2.838  0.2163  0.1225  0.1748
   84MOL0     C11017   6.348   3.782   2.966  1.5348  0.2793  0.2114
   84MOL0     C11018   6.492   3.804   2.954 -0.7035  0.1678  0.5751
   84MOL0     C11019   6.530   3.911   2.858  0.0467 -0.2211  0.1414
   84MOL0     C11020   6.548   4.002   2.779 -0.2063  0.5021  1.0507
   84MOL0     C11021   5.966   3.421   3.021 -0.1379  0.5293  0.0684
   84MOL0     C11022   5.859   3.389   3.100 -0.0655  0.2054  0.0610
   84MOL0     H11023   5.437   3.469   3.398 -0.1221 -0.3929 -1.0883
   84MOL0     H11024   5.226   3.392   3.467 -0.5591 -1.4408  1.1842
   84MOL0     H11025   5.077   3.027   3.258 -1.4242 -0.4027  2.9753
   84MOL0     H11026   4.991   3.138   3.159  2.7875  1.2215 -0.8512
   84MOL0     H11027   4.844   3.167   3.390  3.2008  2.4682 -2.3401
   84MOL0     H11028   4.907   3.001   3.411 -1.5579  0.1503 -0.6115
   84MOL0     H11029   4.806   2.933   3.191  1.7650  0.0443  0.2504
   84MOL0     H11030   4.748   3.097   3.179 -2.4267  1.4253  0.4218
   84MOL0     H11031   4.649   2.929   3.389  0.4211  1.3922  1.2289
   84MOL0     H11032   4.585   3.084   3.339 -0.4968  0.4516 -1.7128
   84MOL0     H11033   4.580   2.816   3.192 -0.1801 -0.6990  0.5591
   84MOL0     H11034   4.529   2.982   3.117  0.2714  0.6011  0.0219
   84MOL0     H11035   4.371   2.990   3.321 -2.4352 -1.7237 -1.1734
   84MOL0     H11036   4.430   2.830   3.367  1.9712  0.6283  0.1090
   84MOL0     H11037   4.313   2.874   3.096  1.1787 -1.2210 -0.6292
   84MOL0     H11038   4.337   2.725   3.193  0.8732  0.2031 -2.4194
   84MOL0     H11039   4.138   2.950   3.245 -2.0919 -0.2689  0.7487
   84MOL0     H11040   4.185   2.826   3.368 -1.0044  2.1692  0.4449
   84MOL0     H11041   4.033   2.623   3.364  0.8098  0.9471 -0.0540
   84MOL0     H11042   3.899   2.420   3.307 -0.6652 -1.5953 -0.0777
   84MOL0     H11043   3.854   2.370   3.151 -1.3755  0.1695 -0.3594
   84MOL0     H11044   3.684   2.529   3.117  0.2070 -0.2410 -0.0091
   84MOL0     H11045   3.704   2.603   3.277  0.7113  1.1626 -0.3337
   84MOL0     H11046   3.627   2.308   3.213 -0.1485 -1.8609  1.3049
   84MOL0     H11047   3.669   2.354   3.376 -2.4777 -1.3386 -0.1459
   84MOL0     H11048   3.455   2.465   3.209  2.6557 -0.1385 -1.7106
   84MOL0     H11049   3.483   2.512   3.380  0.1534 -0.6860  2.4780
   84MOL0     H11050   3.270   2.548   3.323 -0.9831  1.3790  2.0021
   84MOL0     H11051   3.024   2.574   3.361  2.0625  0.7789 -2.2404
   84MOL0     H11052   2.608   2.174   3.604  2.3085 -0.3808 -0.4102
   84MOL0     H11053   2.370   2.135   3.560  0.0711  2.1225  0.4500
   84MOL0     H11054   2.211   2.089   3.154  1.3673 -0.0398  0.4663
   84MOL0     H11055   2.244   2.270   3.141  3.0008  2.4228  5.7131
   84MOL0     H11056   1.992   2.142   3.257 -0.0058 -0.0893 -0.2388
   84MOL0     H11057   1.995   2.245   3.105 -2.3195  3.5383  1.8619
   84MOL0     H11058   2.063   2.435   3.219 -3.6395  2.7746  1.9475
   84MOL0     H11059   2.066   2.360   3.383  1.8258 -0.1108 -0.2648
   84MOL0     H11060   1.843   2.397   3.197  2.6241  1.2078 -1.0717
   84MOL0     H11061   1.834   2.282   3.339  1.9311 -1.3844 -1.2921
   84MOL0     H11062   1.899   2.583   3.356 -3.1363  1.6940  1.1684
   84MOL0     H11063   1.898   2.466   3.492  1.9936 -1.2056 -0.0138
   84MOL0     H11064   1.673   2.441   3.460 -1.0374  0.8015  0.3584
   84MOL0     H11065   1.676   2.537   3.303  2.3400 -1.3384  0.1087
   84MOL0     H11066   1.728   2.616   3.587 -1.8609 -1.7228  0.8265
   84MOL0     H11067   1.707   2.737   3.463 -0.7505  0.0935  0.2942
   84MOL0     H11068   1.509   2.716   3.600  1.9722  2.0113 -0.4279
   84MOL0     H11069   1.521   2.542   3.590  0.0999  0.7585  2.3563
   84MOL0     H11070   2.432   2.232   3.149 -1.3490 -1.2261  0.3806
   84MOL0     H11071   2.672   2.265   3.206  0.0923  2.3366  1.9827
   84MOL0     H11072   3.006   2.158   3.463 -1.2942  1.9629  2.6015
   84MOL0     H11073   3.243   2.136   3.434 -1.9120 -0.3235  1.3174
   84MOL0     H11074   5.222   3.136   3.115 -1.0599  0.8412  0.6498
   84MOL0     H11075   5.456   3.189   3.074  1.1325 -0.8664  2.3182
   84MOL0     H11076   5.876   3.634   3.338  1.6300 -1.1682 -0.2784
   84MOL0     H11077   6.050   3.710   3.197 -1.4504  0.6645 -0.6919
   84MOL0     H11078   6.088   3.761   2.923 -0.1980 -0.4842  0.6907
   84MOL0     H11079   6.083   3.649   2.798  2.3968  1.8921 -2.8507
   84MOL0     H11080   6.341   3.634   2.806  1.9321  0.1921  2.9265
   84MOL0     H11081   6.269   3.787   2.753  0.8536  3.2136  2.3693
   84MOL0     H11082   6.334   3.718   3.054  0.9561 -1.5488 -1.1324
   84MOL0     H11083   6.301   3.879   2.981 -2.4036 -0.8889 -2.6341
   84MOL0     H11084   6.535   3.841   3.047  0.8337  1.6073 -0.6342
   84MOL0     H11085   6.537   3.709   2.926  0.4010  1.2140 -1.5066
   84MOL0     H11086   6.577   4.077   2.709  1.5798 -0.0609  1.1355
   84MOL0     H11087   5.998   3.344   2.951 -1.8047 -2.1719  2.0830
   84MOL0     H11088   5.788   3.309   3.081 -0.9141 -0.3401  4.5524
   85MOL0     O11089   3.567   8.644   5.474 -0.0022 -0.9689 -0.2149
   85MOL0     C11090   3.522   8.650   5.357 -0.6260  0.3370  0.8613
   85MOL0     O11091   3.437   8.560   5.302 -0.2525 -0.5273  0.9463
   85MOL0     C11092   3.359   8.480   5.380 -1.1679  0.1349 -0.3443
   85MOL0     C11093   3.415   8.392   5.481 -0.4079 -0.0846 -0.5009
   85MOL0     C11094   3.338   8.308   5.556 -0.1045  0.5497 -0.9377
   85MOL0     C11095   3.203   8.305   5.534 -0.3756 -1.1711 -0.5659
   85MOL0     O11096   3.129   8.244   5.635  0.6967  0.5937  0.4982
   85MOL0     C11097   2.988   8.230   5.610 -0.4839 -0.6514 -0.0170
   85MOL0     C11098   2.941   8.140   5.719 -1.4804 -0.0635  1.2394
   85MOL0     C11099   2.788   8.110   5.711  1.0461 -0.6974  0.3338
   85MOL0     C11100   2.746   7.998   5.804  0.4642  0.4221  0.0524
   85MOL0     C11101   2.591   7.968   5.806 -0.4124 -0.2108  0.3677
   85MOL0     C11102   2.561   7.879   5.920  0.1254 -0.1434 -0.5453
   85MOL0     C11103   2.411   7.887   5.954 -0.3260  0.6863 -0.7127
   85MOL0     C11104   2.373   8.001   6.050 -0.0395  0.0109 -0.1105
   85MOL0     N11105   2.235   7.986   6.106 -0.3386  0.7736 -0.2233
   85MOL0     C11106   2.208   7.952   6.235 -0.1111 -0.6820 -0.0757
   85MOL0     C11107   2.069   7.943   6.241  0.3633  0.4891  0.0493
   85MOL0     C11108   1.977   7.918   6.364 -0.1154 -0.7196 -0.9385
   85MOL0     C11109   1.835   7.865   6.329  0.0482 -0.0891  0.0483
   85MOL0     C11110   1.766   7.821   6.459  0.8215 -0.5201  0.4188
   85MOL0     C11111   1.712   7.937   6.556  0.1583  0.0488  0.3872
   85MOL0     O11112   1.634   8.031   6.478  0.0243  0.1164  0.1448
   85MOL0     C11113   1.502   8.005   6.467  0.1460  0.4433  0.1850
   85MOL0     C11114   1.424   7.984   6.579 -0.2305 -0.5413 -0.0551
   85MOL0     C11115   1.289   7.967   6.578 -0.0642 -0.0160  0.2768
   85MOL0     C11116   1.221   7.992   6.461  0.3745  0.1502 -0.5936
   85MOL0     C11117   1.069   7.974   6.464  0.2939 -0.4480 -0.3650
   85MOL0     O11118   1.008   7.947   6.589  0.2911  0.2470 -0.9618
   85MOL0     C11119   0.873   7.909   6.577  0.1390 -0.2726  0.4009
   85MOL0     C11120   0.835   7.774   6.577 -0.2874 -0.3180  0.3893
   85MOL0     C11121   0.696   7.738   6.563 -0.7133  0.0688 -0.3113
   85MOL0     C11122   0.602   7.838   6.548 -0.6997 -0.2544  0.6040
   85MOL0     O11123   0.473   7.794   6.525  0.2647  0.2562  0.0931
   85MOL0     C11124   0.358   7.878   6.521 -1.0665  0.5522  0.5023
   85MOL0     C11125   0.253   7.822   6.436  0.6189 -0.3259  0.8749
   85MOL0     C11126   0.113   7.870   6.464 -0.3276 -1.0222  0.6270
   85MOL0     C11127   0.017   7.767   6.403  0.4419  0.6847 -0.2868
   85MOL0     C11128  -0.120   7.783   6.464 -0.0704  0.4083 -0.5698
   85MOL0     C11129  -0.205   7.891   6.404  0.6802 -0.4336  0.5323
   85MOL0     C11130  -0.342   7.893   6.471 -0.7054  0.3189 -0.6670
   85MOL0     C11131  -0.437   7.996   6.415  0.6120  0.7689  0.2305
   85MOL0    Cl11132  -0.500   7.936   6.261 -0.3254  0.0418 -0.0191
   85MOL0     C11133   0.644   7.976   6.561  0.1950 -0.2937  0.5011
   85MOL0     C11134   0.778   8.009   6.570  0.0237  0.4582 -0.2240
   85MOL0     O11135   1.015   7.972   6.350  0.0463  0.3393 -0.6632
   85MOL0     C11136   1.300   8.022   6.344 -1.1001 -0.2610 -0.3835
   85MOL0     C11137   1.440   8.014   6.344  0.7946 -0.2750  0.0116
   85MOL0     N11138   2.018   7.990   6.122  0.2361 -0.5741  1.0260
   85MOL0     N11139   2.118   8.021   6.044 -0.3826  0.2356  0.2660
   85MOL0     C11140   3.145   8.395   5.443  0.3616  0.2055 -0.0338
   85MOL0     C11141   3.223   8.481   5.367 -0.2722  0.2230 -0.3797
   85MOL0     C11142   3.574   8.768   5.268  0.0539  0.2399  0.5219
   85MOL0     C11143   3.512   8.796   5.143  0.6519  0.0620  0.1105
   85MOL0     C11144   3.555   8.903   5.067 -0.4327 -0.6588  0.2814
   85MOL0     C11145   3.665   8.986   5.105 -0.0010  0.4978  0.3888
   85MOL0     O11146   3.706   9.091   5.018 -0.0803  0.4220 -0.3489
   85MOL0     C11147   3.818   9.169   5.052  0.5486 -0.2121 -0.0070
   85MOL0     C11148   3.799   9.291   4.960 -0.8605  0.1328  0.0024
   85MOL0     C11149   3.831   9.259   4.815  0.0475 -0.4865  0.8996
   85MOL0     C11150   3.982   9.231   4.784  0.3833 -0.1457  0.2359
   85MOL0     C11151   4.007   9.257   4.643  0.0148 -0.4741  0.6284
   85MOL0     C11152   4.021   9.289   4.530 -0.4986  0.5642 -0.8733
   85MOL0     C11153   3.736   8.949   5.225  0.2773 -0.1687  0.3894
   85MOL0     C11154   3.691   8.844   5.305  0.2505  0.2711  1.0641
   85MOL0     H11155   3.520   8.411   5.500 -0.6341 -0.1390  0.9621
   85MOL0     H11156   3.376   8.256   5.643 -0.0331  0.0526 -1.2645
   85MOL0     H11157   2.968   8.191   5.510 -1.1769 -1.6239  0.4808
   85MOL0     H11158   2.931   8.323   5.617  0.7253  0.1126  0.0592
   85MOL0     H11159   2.973   8.184   5.814  2.6859 -0.4387  0.2066
   85MOL0     H11160   3.006   8.053   5.711 -0.6606  0.6849 -0.7296
   85MOL0     H11161   2.753   8.099   5.608  1.0149 -0.9420  0.3697
   85MOL0     H11162   2.738   8.198   5.753  0.3813 -1.7902  1.9198
   85MOL0     H11163   2.804   7.905   5.795 -1.9434 -1.0457 -1.4207
   85MOL0     H11164   2.771   8.043   5.900 -0.3158  0.6356  0.1563
   85MOL0     H11165   2.557   7.910   5.720 -0.4488  0.7666 -0.2990
   85MOL0     H11166   2.536   8.062   5.807  0.8219  0.5361  1.3286
   85MOL0     H11167   2.626   7.899   6.005  1.0927 -1.1594 -1.0332
   85MOL0     H11168   2.590   7.776   5.900 -1.3594 -0.9959  1.3975
   85MOL0     H11169   2.354   7.887   5.861  1.8291  0.3925 -2.1208
   85MOL0     H11170   2.377   7.795   6.003 -2.0187  2.0916  0.8888
   85MOL0     H11171   2.368   8.092   5.990  1.2519  1.8675  2.3800
   85MOL0     H11172   2.435   8.020   6.139 -1.9121 -2.0210  1.7577
   85MOL0     H11173   2.278   7.920   6.311  1.3709 -0.5427 -1.3226
   85MOL0     H11174   1.956   8.007   6.424  0.1490  0.2856 -2.2925
   85MOL0     H11175   2.030   7.859   6.439  1.5038 -1.6347 -2.7153
   85MOL0     H11176   1.838   7.774   6.269 -1.1395 -0.4423  0.4885
   85MOL0     H11177   1.780   7.944   6.276  2.4380 -1.0716 -4.3667
   85MOL0     H11178   1.681   7.755   6.438 -0.6410  1.6238 -0.8692
   85MOL0     H11179   1.833   7.761   6.521 -1.2931 -2.1593  1.2341
   85MOL0     H11180   1.793   7.995   6.600 -1.7617  2.4725  0.9668
   85MOL0     H11181   1.656   7.890   6.638 -0.9720  1.4266  0.4456
   85MOL0     H11182   1.471   7.970   6.677  0.9588 -0.3727 -0.5803
   85MOL0     H11183   1.233   7.942   6.668  0.3296 -2.6138 -0.1403
   85MOL0     H11184   0.919   7.711   6.605  0.8749  1.3462  0.8272
   85MOL0     H11185   0.677   7.632   6.557  1.4258 -0.3151 -1.3269
   85MOL0     H11186   0.386   7.979   6.491 -0.2755 -0.0415 -0.8515
   85MOL0     H11187   0.335   7.870   6.628 -2.0368 -0.5634  0.2475
   85MOL0     H11188   0.267   7.714   6.435  2.0184 -0.1604  0.5573
   85MOL0     H11189   0.278   7.853   6.334 -1.8211 -0.1780  0.2707
   85MOL0     H11190   0.100   7.962   6.406 -0.3390 -1.7754 -0.6086
   85MOL0     H11191   0.085   7.877   6.569 -0.1719 -0.8888  0.6586
   85MOL0     H11192   0.014   7.783   6.294 -3.2550  0.2856 -0.3731
   85MOL0     H11193   0.052   7.665   6.424  2.8443  0.4037 -4.3771
   85MOL0     H11194  -0.104   7.808   6.569 -0.3864  0.9177 -0.6367
   85MOL0     H11195  -0.172   7.689   6.448  1.6978 -0.9880  1.3462
   85MOL0     H11196  -0.222   7.881   6.297 -2.2075  3.2787  0.4528
   85MOL0     H11197  -0.154   7.987   6.411  0.6977 -0.3849 -0.2546
   85MOL0     H11198  -0.378   7.790   6.474  0.3715 -0.0541  0.3374
   85MOL0     H11199  -0.333   7.922   6.576  1.2586 -0.1791 -0.6649
   85MOL0     H11200  -0.390   8.092   6.391  0.9123  0.5762  0.0450
   85MOL0     H11201  -0.521   8.002   6.485 -1.6575  0.8291 -2.3242
   85MOL0     H11202   0.576   8.060   6.557  0.1067 -0.2463  2.2912
   85MOL0     H11203   0.810   8.113   6.572 -1.5241  0.9790  2.3081
   85MOL0     H11204   1.249   8.041   6.250 -3.0155 -1.2838  0.4033
   85MOL0     H11205   1.489   8.019   6.247 -1.3894  1.7593 -1.1069
   85MOL0     H11206   3.036   8.399   5.439  0.1755  0.1648  2.6584
   85MOL0     H11207   3.186   8.560   5.302  2.0595  0.4522 -1.5344
   85MOL0     H11208   3.434   8.730   5.107  0.7701 -1.2632  2.1404
   85MOL0     H11209   3.516   8.930   4.969 -1.0210  0.6131  0.8402
   85MOL0     H11210   3.912   9.114   5.047 -0.1760 -1.3889 -1.3839
   85MOL0     H11211   3.807   9.212   5.152  0.3114 -0.7326  0.1925
   85MOL0     H11212   3.695   9.325   4.965  0.5434  5.0050  0.9679
   85MOL0     H11213   3.861   9.374   4.995  1.8320 -1.4544 -0.6969
   85MOL0     H11214   3.799   9.339   4.748 -0.9364 -2.5842 -1.2805
   85MOL0     H11215   3.778   9.174   4.773  1.1329 -0.0734 -1.4447
   85MOL0     H11216   4.044   9.299   4.845  1.6280 -1.0753  0.0517
   85MOL0     H11217   4.006   9.127   4.810 -1.0293 -1.1515 -2.1842
   85MOL0     H11218   4.030   9.327   4.431 -2.7564 -0.4368 -1.5178
   85MOL0     H11219   3.826   9.008   5.239 -0.4780  0.8015  1.3651
   85MOL0     H11220   3.749   8.818   5.393 -0.3389 -1.2560  1.0196
   86MOL0     O11221   3.609   0.190   6.719  0.2915 -0.0860  0.0977
   86MOL0     C11222   3.642   0.259   6.626 -1.3857  0.2206  0.2736
   86MOL0     O11223   3.561   0.325   6.537  0.2131 -0.0706 -0.0384
   86MOL0     C11224   3.429   0.310   6.574  0.2927 -1.4135 -0.3949
   86MOL0     C11225   3.369   0.409   6.652 -0.6793  0.7436  0.8855
   86MOL0     C11226   3.232   0.402   6.673 -0.1126  0.7086 -0.1998
   86MOL0     C11227   3.145   0.302   6.634 -0.3804  0.2373  0.1282
   86MOL0     O11228   3.011   0.297   6.656 -1.2423 -0.0826 -0.6378
   86MOL0     C11229   2.951   0.416   6.596 -0.9607  0.0398  0.1750
   86MOL0     C11230   2.810   0.373   6.563  0.3729  0.3255  0.4793
   86MOL0     C11231   2.729   0.329   6.680 -0.2487 -0.3189  0.1335
   86MOL0     C11232   2.580   0.302   6.635 -0.7548 -0.3816  0.0597
   86MOL0     C11233   2.504   0.227   6.751  0.9011  0.4194 -0.0174
   86MOL0     C11234   2.354   0.234   6.716  0.2362  0.9938 -0.0241
   86MOL0     C11235   2.260   0.134   6.780  0.2470  1.3057  0.5035
   86MOL0     C11236   2.235   0.174   6.924  0.3924  0.7402  0.7388
   86MOL0     N11237   2.117   0.099   6.977  0.3501 -1.2398  0.5386
   86MOL0     C11238   1.983   0.134   6.954  0.1941  0.8983  0.8627
   86MOL0     C11239   1.919   0.022   7.004  0.3079  0.1899 -0.1063
   86MOL0     C11240   1.774   0.013   7.022 -0.5160  0.0791  0.6576
   86MOL0     C11241   1.716  -0.124   7.038 -0.7055 -0.7682  0.3542
   86MOL0     C11242   1.572  -0.106   7.066 -0.0972 -0.4854 -0.5201
   86MOL0     C11243   1.481  -0.053   6.964  0.4477  0.3854  0.1712
   86MOL0     O11244   1.359  -0.130   6.954  1.1080 -0.0101 -0.5779
   86MOL0     C11245   1.276  -0.098   6.849  0.1314 -0.1136 -0.2169
   86MOL0     C11246   1.308  -0.008   6.741 -0.0677  0.1733 -0.5371
   86MOL0     C11247   1.211   0.001   6.626 -0.9276 -0.4040 -1.0626
   86MOL0     C11248   1.085  -0.058   6.640  0.1677 -0.2777  0.3323
   86MOL0     C11249   0.979  -0.035   6.539 -0.1383 -0.6440 -1.4525
   86MOL0     O11250   0.853  -0.093   6.572 -0.9446 -0.1420 -0.0635
   86MOL0     C11251   0.762  -0.102   6.475 -0.3310 -0.4384  0.3391
   86MOL0     C11252   0.643  -0.041   6.490  0.6319  0.4204 -0.1297
   86MOL0     C11253   0.542  -0.059   6.397 -0.1193  0.0753 -0.1972
   86MOL0     C11254   0.560  -0.139   6.281  0.7807  0.5120  0.2222
   86MOL0     O11255   0.466  -0.161   6.182 -0.2202  0.1928 -0.3742
   86MOL0     C11256   0.366  -0.068   6.168  0.3689 -0.0137  0.2487
   86MOL0     C11257   0.273  -0.100   6.052  0.0288  0.6008  1.0173
   86MOL0     C11258   0.152  -0.011   6.033  0.0683  0.5107 -0.1028
   86MOL0     C11259   0.061  -0.060   5.919  0.0260  0.0826 -0.1876
   86MOL0     C11260  -0.075  -0.000   5.934 -0.4362 -0.2949 -0.1960
   86MOL0     C11261  -0.187  -0.077   5.871 -0.0999 -0.0758 -0.0615
   86MOL0     C11262  -0.323  -0.031   5.931 -0.2160 -0.8313  0.1276
   86MOL0     C11263  -0.423  -0.148   5.937 -0.5311  0.4645 -0.1179
   86MOL0    Cl11264  -0.572  -0.100   6.004  0.2688 -0.1249  0.3397
   86MOL0     C11265   0.687  -0.186   6.259 -0.1174  0.3032  0.1656
   86MOL0     C11266   0.787  -0.177   6.360 -0.6981  0.1028  0.0881
   86MOL0     O11267   1.006   0.024   6.435  0.4339  0.1708 -0.0242
   86MOL0     C11268   1.059  -0.151   6.745 -0.1112 -0.6941 -0.1974
   86MOL0     C11269   1.153  -0.161   6.849  1.1005 -0.2796 -0.5799
   86MOL0     N11270   2.014  -0.074   7.061  0.0428  0.1151 -0.0547
   86MOL0     N11271   2.128  -0.018   7.043 -0.5163 -0.5861 -0.0345
   86MOL0     C11272   3.213   0.203   6.555  0.8760 -0.0328 -1.1603
   86MOL0     C11273   3.344   0.218   6.515 -0.0964  0.2412 -0.0701
   86MOL0     C11274   3.785   0.283   6.602  0.5702 -0.8329  0.8710
   86MOL0     C11275   3.888   0.203   6.664  0.3203  0.1504 -0.2047
   86MOL0     C11276   4.019   0.227   6.634  0.2066  0.0177  0.6309
   86MOL0     C11277   4.055   0.344   6.573 -0.0705 -0.4816 -0.1351
   86MOL0     O11278   4.187   0.377   6.578  0.2576  0.0391 -0.7928
   86MOL0     C11279   4.223   0.487   6.492  0.3570 -0.6179 -0.0594
   86MOL0     C11280   4.379   0.480   6.475 -0.0034 -0.1043 -0.4279
   86MOL0     C11281   4.431   0.342   6.425  0.3856  0.0215  0.1660
   86MOL0     C11282   4.556   0.301   6.508  0.8353  0.3496  0.5780
   86MOL0     C11283   4.673   0.387   6.468 -0.6174  0.1543  0.1222
   86MOL0     C11284   4.771   0.452   6.434 -0.1302  0.3013 -0.2498
   86MOL0     C11285   3.956   0.434   6.536 -0.2024  0.2504  0.7777
   86MOL0     C11286   3.824   0.397   6.537 -0.6289 -0.2652  0.4560
   86MOL0     H11287   3.431   0.493   6.683  1.8960 -1.4455  2.1652
   86MOL0     H11288   3.184   0.471   6.742 -0.3997  0.4154 -0.1032
   86MOL0     H11289   3.008   0.443   6.507  1.0173 -2.2132  0.6507
   86MOL0     H11290   2.952   0.503   6.663  2.8422  0.2033  0.1071
   86MOL0     H11291   2.821   0.295   6.488  4.5391  1.7513 -0.6687
   86MOL0     H11292   2.764   0.458   6.512 -2.2369 -0.1132  1.9487
   86MOL0     H11293   2.732   0.414   6.749  0.6362  0.4584 -0.8373
   86MOL0     H11294   2.770   0.241   6.731 -2.4836 -1.5291  0.0050
   86MOL0     H11295   2.533   0.396   6.606 -1.1173 -0.5383  0.1335
   86MOL0     H11296   2.583   0.233   6.550 -1.5144 -0.9171  0.4538
   86MOL0     H11297   2.535   0.276   6.843 -2.5227  0.5090  1.2357
   86MOL0     H11298   2.526   0.121   6.762  1.0546  0.7031  3.6262
   86MOL0     H11299   2.340   0.216   6.609 -4.6318  0.9794  0.3523
   86MOL0     H11300   2.307   0.332   6.735 -0.0714  0.6932  0.7954
   86MOL0     H11301   2.161   0.136   6.734  0.3848  2.2354  0.2154
   86MOL0     H11302   2.303   0.035   6.768 -1.6777  0.6877 -1.9209
   86MOL0     H11303   2.221   0.282   6.934  1.2383  0.9344 -0.0943
   86MOL0     H11304   2.320   0.142   6.985  0.3836 -0.4942  0.1267
   86MOL0     H11305   1.944   0.223   6.906 -2.7812 -0.3458  0.7424
   86MOL0     H11306   1.736   0.041   6.923  3.0462 -1.8004 -1.4631
   86MOL0     H11307   1.746   0.082   7.102  2.9030  1.0055  1.2002
   86MOL0     H11308   1.753  -0.183   7.122 -0.5559 -1.0710  0.0787
   86MOL0     H11309   1.732  -0.185   6.949  0.5711 -1.6763  1.1852
   86MOL0     H11310   1.540  -0.198   7.117  1.1339 -0.0884  1.0476
   86MOL0     H11311   1.565  -0.030   7.145  0.1990 -1.6043  0.6188
   86MOL0     H11312   1.523  -0.065   6.864 -0.8228 -3.2114 -0.0374
   86MOL0     H11313   1.459   0.054   6.978  1.3924  1.3885 -4.2781
   86MOL0     H11314   1.407   0.030   6.721 -0.5014  3.3386  2.4186
   86MOL0     H11315   1.238   0.057   6.537 -2.9666 -0.9071 -2.0397
   86MOL0     H11316   0.619   0.009   6.583 -1.0826 -0.9559  0.2132
   86MOL0     H11317   0.447  -0.012   6.422 -0.1948  1.7152 -3.1230
   86MOL0     H11318   0.402   0.033   6.145 -0.7634 -0.1803 -2.6426
   86MOL0     H11319   0.302  -0.064   6.257  1.7073 -0.8288  1.2805
   86MOL0     H11320   0.242  -0.204   6.060 -2.2329  1.2671  1.5128
   86MOL0     H11321   0.330  -0.093   5.959 -0.1278  0.9733  0.9493
   86MOL0     H11322   0.173   0.096   6.024  0.7568  0.3645 -0.2797
   86MOL0     H11323   0.096  -0.006   6.126 -1.0201 -0.2905 -0.6941
   86MOL0     H11324   0.107  -0.016   5.831  0.2722  1.4788  0.6047
   86MOL0     H11325   0.058  -0.169   5.912 -2.4845 -0.0501  1.4132
   86MOL0     H11326  -0.078   0.100   5.891 -2.2875 -0.0078  0.5046
   86MOL0     H11327  -0.099   0.005   6.041  0.3427 -4.8866  0.4079
   86MOL0     H11328  -0.164  -0.173   5.916 -2.3080 -1.4854 -1.7329
   86MOL0     H11329  -0.178  -0.100   5.764 -0.5831 -1.6279  0.2174
   86MOL0     H11330  -0.311   0.002   6.035 -1.4117 -1.0976  0.3572
   86MOL0     H11331  -0.348   0.060   5.875  3.8649  0.0991 -0.5581
   86MOL0     H11332  -0.367  -0.221   5.996  0.2977  1.6968  0.6673
   86MOL0     H11333  -0.445  -0.195   5.841 -1.6167 -0.6904  0.6724
   86MOL0     H11334   0.713  -0.234   6.165 -0.7843  1.9558 -0.9147
   86MOL0     H11335   0.890  -0.206   6.342 -0.7543  0.7528 -1.4570
   86MOL0     H11336   0.973  -0.217   6.749 -0.1339 -0.7057 -0.8179
   86MOL0     H11337   1.126  -0.229   6.929 -1.2343 -0.9293 -1.8323
   86MOL0     H11338   3.142   0.123   6.535 -0.4831  0.5482  1.0025
   86MOL0     H11339   3.374   0.130   6.460 -2.4011 -0.6947  0.0509
   86MOL0     H11340   3.859   0.113   6.717 -1.2574  0.3962 -0.6016
   86MOL0     H11341   4.092   0.159   6.675 -0.7922 -0.6652  1.3073
   86MOL0     H11342   4.198   0.589   6.523  2.3392  0.8701 -2.8646
   86MOL0     H11343   4.169   0.478   6.398 -2.1957  0.1523  1.2460
   86MOL0     H11344   4.411   0.551   6.398 -1.9356 -0.8976 -2.0880
   86MOL0     H11345   4.430   0.511   6.566 -0.5929  1.1684 -0.5189
   86MOL0     H11346   4.451   0.338   6.317 -0.0947 -3.7044  0.0913
   86MOL0     H11347   4.359   0.261   6.434 -0.0812 -0.3008 -4.3081
   86MOL0     H11348   4.540   0.300   6.616  1.8731 -1.5746  0.7759
   86MOL0     H11349   4.579   0.197   6.482  1.0419  0.4722  0.2598
   86MOL0     H11350   4.861   0.505   6.408 -0.1708  0.4410 -0.1113
   86MOL0     H11351   3.971   0.539   6.513 -2.3011  0.2285 -1.0577
   86MOL0     H11352   3.759   0.469   6.490  0.4932 -0.6635 -1.8357
   87MOL0     O11353   7.079   7.878   0.538 -0.2387  0.5307 -0.3798
   87MOL0     C11354   7.084   7.852   0.417  0.1014 -0.0878 -1.0582
   87MOL0     O11355   6.974   7.870   0.333 -0.3488  0.0981 -0.3155
   87MOL0     C11356   6.867   7.933   0.383 -0.2626 -0.1802  0.1132
   87MOL0     C11357   6.831   8.061   0.340  0.0020  0.0529  0.5361
   87MOL0     C11358   6.717   8.123   0.389  0.7598 -0.6735  0.5576
   87MOL0     C11359   6.626   8.058   0.477  0.4074  0.2115 -0.1000
   87MOL0     O11360   6.502   8.109   0.508  0.1977 -0.1422  0.4145
   87MOL0     C11361   6.420   8.053   0.611 -0.1981 -0.5386  0.2081
   87MOL0     C11362   6.321   8.153   0.666 -0.2364  0.1548 -0.4377
   87MOL0     C11363   6.192   8.169   0.576 -0.8243  0.6881 -0.7158
   87MOL0     C11364   6.068   8.199   0.657 -0.3639  0.3909 -0.0700
   87MOL0     C11365   5.950   8.207   0.562  0.1419 -0.2793  0.0607
   87MOL0     C11366   5.821   8.269   0.618 -0.1727 -0.2009  0.8749
   87MOL0     C11367   5.708   8.277   0.514  0.4347 -0.7919 -0.8468
   87MOL0     C11368   5.571   8.338   0.568  0.2909  0.3046 -0.1782
   87MOL0     N11369   5.510   8.242   0.668 -0.9639 -0.4678  0.4186
   87MOL0     C11370   5.422   8.133   0.632  1.3022  0.0835 -0.7392
   87MOL0     C11371   5.372   8.094   0.756 -0.4143 -0.4462 -0.3518
   87MOL0     C11372   5.278   7.971   0.771 -0.0258  0.3396  0.9502
   87MOL0     C11373   5.130   8.022   0.772  0.2369  0.1647  0.1793
   87MOL0     C11374   5.106   8.117   0.887  0.1053 -0.4157 -0.1525
   87MOL0     C11375   4.960   8.117   0.927 -0.1353  0.2042  0.2776
   87MOL0     O11376   4.875   8.171   0.825 -0.1391  0.2615 -0.4560
   87MOL0     C11377   4.739   8.184   0.849  0.0055  0.1935 -0.0941
   87MOL0     C11378   4.664   8.139   0.957 -0.1214 -0.1808  0.2561
   87MOL0     C11379   4.523   8.157   0.967 -0.6795 -0.5565  0.4378
   87MOL0     C11380   4.455   8.234   0.871  0.0472 -0.5272  1.1951
   87MOL0     C11381   4.314   8.271   0.879  0.4622 -1.0437 -0.1577
   87MOL0     O11382   4.253   8.199   0.976  0.0590 -0.5307  0.0178
   87MOL0     C11383   4.119   8.225   1.007 -0.3819 -0.7138  0.2649
   87MOL0     C11384   4.025   8.119   1.005 -0.3168 -0.2642  0.7240
   87MOL0     C11385   3.886   8.141   1.019 -1.1839 -0.0626  0.5740
   87MOL0     C11386   3.847   8.270   1.054 -0.9802  0.4217  0.0887
   87MOL0     O11387   3.712   8.300   1.073 -0.1334  0.7143  0.4505
   87MOL0     C11388   3.620   8.251   0.969  0.2788  0.1777  0.7372
   87MOL0     C11389   3.475   8.314   0.998  0.2564  0.1496  0.2520
   87MOL0     C11390   3.390   8.247   1.113  0.5114  0.5497  0.1356
   87MOL0     C11391   3.353   8.098   1.092 -0.1637 -0.2515 -0.6253
   87MOL0     C11392   3.230   8.053   1.172  0.3089 -0.4165 -0.2747
   87MOL0     C11393   3.226   7.902   1.156 -0.3132 -0.9111  0.3709
   87MOL0     C11394   3.110   7.835   1.229  0.5213 -0.1721 -0.0555
   87MOL0     C11395   3.124   7.682   1.233 -0.4994  0.5625  0.3881
   87MOL0    Cl11396   3.011   7.599   1.321 -0.2924  0.0495 -0.1336
   87MOL0     C11397   3.941   8.366   1.076 -0.4034 -0.6175  0.5221
   87MOL0     C11398   4.075   8.351   1.045  0.4763  0.9006 -0.0945
   87MOL0     O11399   4.263   8.352   0.799  0.2150  0.5148 -0.1324
   87MOL0     C11400   4.531   8.282   0.765  0.1657 -0.3144 -0.3681
   87MOL0     C11401   4.668   8.256   0.753  0.1811 -0.2978  0.0836
   87MOL0     N11402   5.418   8.187   0.854  0.3283 -0.1952  0.9248
   87MOL0     N11403   5.502   8.277   0.807 -0.4366  0.0392  0.7364
   87MOL0     C11404   6.668   7.935   0.519 -0.2058  0.4121  0.5979
   87MOL0     C11405   6.780   7.867   0.473  0.2236 -1.1044 -0.7837
   87MOL0     C11406   7.199   7.788   0.340 -0.3674  0.5987 -0.0656
   87MOL0     C11407   7.198   7.776   0.197 -0.4216  0.1724  0.5991
   87MOL0     C11408   7.311   7.731   0.132 -0.0181  0.6138  0.4888
   87MOL0     C11409   7.428   7.701   0.194  0.0375 -0.3221  0.0477
   87MOL0     O11410   7.535   7.654   0.124 -0.4165  0.2508  0.1869
   87MOL0     C11411   7.660   7.699   0.174 -0.4484 -0.6397 -0.0929
   87MOL0     C11412   7.775   7.655   0.081 -0.0844  0.2643  1.1204
   87MOL0     C11413   7.802   7.504   0.087 -0.0410  0.2669  0.2511
   87MOL0     C11414   7.937   7.482   0.009 -0.2263  1.1048  0.2789
   87MOL0     C11415   7.940   7.335  -0.019  0.9962 -0.6738 -0.6007
   87MOL0     C11416   7.940   7.213  -0.041 -0.3900  0.0652  0.6203
   87MOL0     C11417   7.426   7.714   0.337 -0.1202 -0.1149 -0.4514
   87MOL0     C11418   7.317   7.752   0.410 -0.1895 -0.2289 -0.4762
   87MOL0     H11419   6.892   8.112   0.266  1.2507 -3.9993 -1.5071
   87MOL0     H11420   6.682   8.221   0.358  2.2231 -0.5971 -1.0063
   87MOL0     H11421   6.487   8.049   0.698 -1.6391  0.1496  1.4029
   87MOL0     H11422   6.367   7.960   0.587 -0.3377 -1.2614  2.9521
   87MOL0     H11423   6.372   8.248   0.681  2.2030 -0.9861 -0.9425
   87MOL0     H11424   6.287   8.114   0.763 -1.4731 -1.1534 -1.3406
   87MOL0     H11425   6.190   8.080   0.513  3.6899  1.1165 -1.8382
   87MOL0     H11426   6.205   8.244   0.497  1.1269  0.2726 -0.8379
   87MOL0     H11427   6.057   8.117   0.728  1.4460 -0.0131 -0.1992
   87MOL0     H11428   6.091   8.288   0.716  0.1173  0.4080 -0.2804
   87MOL0     H11429   5.945   8.100   0.537  0.0552 -0.4241  0.6822
   87MOL0     H11430   5.983   8.260   0.472 -0.1125  2.3037  1.3939
   87MOL0     H11431   5.846   8.375   0.630  1.4124 -0.3138 -0.9398
   87MOL0     H11432   5.789   8.234   0.717 -3.0501 -0.4423 -0.0557
   87MOL0     H11433   5.742   8.332   0.426  1.6321 -1.8065 -1.0418
   87MOL0     H11434   5.692   8.175   0.478  0.6118 -0.8046 -0.8942
   87MOL0     H11435   5.508   8.366   0.484  1.8671  2.4311 -0.7444
   87MOL0     H11436   5.593   8.432   0.619 -0.1962  0.0029  0.6092
   87MOL0     H11437   5.392   8.094   0.535 -0.8070 -0.4641  0.0707
   87MOL0     H11438   5.298   7.910   0.860  2.5273 -2.6821 -1.4770
   87MOL0     H11439   5.289   7.902   0.687  3.9598  1.0463  0.7135
   87MOL0     H11440   5.071   7.932   0.790  0.3006 -0.2912 -1.6459
   87MOL0     H11441   5.099   8.076   0.681 -0.7859 -1.9560 -0.8231
   87MOL0     H11442   5.156   8.096   0.981 -0.3166  0.0784  0.1881
   87MOL0     H11443   5.123   8.219   0.849 -0.5216 -0.4341 -0.5143
   87MOL0     H11444   4.953   8.165   1.025 -1.6656 -0.1747  0.3626
   87MOL0     H11445   4.939   8.013   0.950  1.5507  0.0904  1.5082
   87MOL0     H11446   4.715   8.102   1.045 -0.2117 -3.2970 -0.8958
   87MOL0     H11447   4.476   8.130   1.061  0.1301 -1.7738  0.5240
   87MOL0     H11448   4.069   8.021   0.990 -0.6770 -0.4266  0.7318
   87MOL0     H11449   3.826   8.051   1.012  1.9686 -2.3239  0.5272
   87MOL0     H11450   3.605   8.143   0.959 -0.3918  0.1337  2.0463
   87MOL0     H11451   3.653   8.291   0.872 -0.2399  0.5656  0.7114
   87MOL0     H11452   3.413   8.310   0.908 -1.0697  2.2790  0.9794
   87MOL0     H11453   3.491   8.421   1.016  0.7055  0.4474 -1.7531
   87MOL0     H11454   3.297   8.305   1.123 -0.0703 -0.4432  0.6177
   87MOL0     H11455   3.437   8.267   1.210  0.5195 -0.6326  0.3862
   87MOL0     H11456   3.327   8.084   0.986 -0.3701  0.8827 -0.7294
   87MOL0     H11457   3.441   8.036   1.113 -0.5556  0.2776  3.1628
   87MOL0     H11458   3.137   8.093   1.131  1.2321  1.6680 -0.4997
   87MOL0     H11459   3.241   8.086   1.276  0.0697 -0.0329 -0.3682
   87MOL0     H11460   3.306   7.862   1.219 -1.3991 -1.6660  1.3068
   87MOL0     H11461   3.236   7.862   1.054  4.3055 -0.8602  0.6041
   87MOL0     H11462   3.112   7.867   1.334  1.0374 -3.0352  0.8810
   87MOL0     H11463   3.021   7.856   1.168  0.0277  0.2291  0.7813
   87MOL0     H11464   3.225   7.657   1.268  0.4559 -1.0221 -3.0584
   87MOL0     H11465   3.132   7.650   1.129 -0.3750  1.1472  0.2112
   87MOL0     H11466   3.907   8.464   1.108 -1.8486 -0.3185 -1.7186
   87MOL0     H11467   4.141   8.436   1.060  1.9034  0.3231 -2.5130
   87MOL0     H11468   4.483   8.338   0.685  1.7025  3.2863  1.0224
   87MOL0     H11469   4.726   8.299   0.672  1.6565 -0.0686  1.2240
   87MOL0     H11470   6.604   7.864   0.571  0.9373 -1.3647 -0.3098
   87MOL0     H11471   6.808   7.767   0.507  2.0666 -0.4123 -0.1227
   87MOL0     H11472   7.111   7.811   0.143  0.1546  1.4001  0.4229
   87MOL0     H11473   7.296   7.728   0.025 -0.6779  0.0626  0.5878
   87MOL0     H11474   7.683   7.644   0.266 -1.3869 -3.2481 -1.3145
   87MOL0     H11475   7.661   7.806   0.197  2.1365 -0.0192 -2.4815
   87MOL0     H11476   7.763   7.691  -0.022 -1.0511 -0.7835  0.8419
   87MOL0     H11477   7.864   7.701   0.124  1.1088 -1.2382  0.3552
   87MOL0     H11478   7.717   7.443   0.054 -1.4263  0.3514  3.3208
   87MOL0     H11479   7.817   7.476   0.192  0.2299  2.1492  0.7474
   87MOL0     H11480   7.942   7.537  -0.085 -1.2790 -1.4646 -1.3925
   87MOL0     H11481   8.026   7.495   0.071 -0.0338  0.9948  0.0253
   87MOL0     H11482   7.943   7.106  -0.048 -1.8294 -0.0728  1.7352
   87MOL0     H11483   7.508   7.680   0.399 -1.3681 -1.7602  0.3642
   87MOL0     H11484   7.322   7.758   0.518 -0.9596 -1.6034 -0.3365
   88MOL0     O11485   9.109   8.287   8.695 -0.9723 -0.1302 -0.2282
   88MOL0     C11486   9.183   8.190   8.704 -0.0756 -0.7479 -0.0027
   88MOL0     O11487   9.161   8.068   8.648 -0.6467 -0.2203 -0.2271
   88MOL0     C11488   9.047   8.055   8.574 -0.7532 -0.1427  0.3660
   88MOL0     C11489   9.013   8.132   8.465  0.4795  0.4382 -0.1478
   88MOL0     C11490   8.907   8.093   8.387  0.3667 -0.4943  0.6181
   88MOL0     C11491   8.830   7.981   8.418 -0.6355 -0.1521  0.5963
   88MOL0     O11492   8.717   7.958   8.342 -0.2866  0.1249 -0.0440
   88MOL0     C11493   8.742   7.921   8.209  0.1788  0.7155  0.0522
   88MOL0     C11494   8.598   7.908   8.143 -0.2948 -0.5184  0.2941
   88MOL0     C11495   8.516   7.796   8.208 -0.5469 -0.7456  0.5211
   88MOL0     C11496   8.375   7.794   8.139  0.3539 -0.7730 -1.2537
   88MOL0     C11497   8.273   7.706   8.216  0.0209  0.5436  0.6841
   88MOL0     C11498   8.139   7.694   8.159  0.1402  0.2030 -0.1018
   88MOL0     C11499   8.023   7.619   8.229 -0.5337 -1.0418 -0.4504
   88MOL0     C11500   7.914   7.581   8.126  0.3029 -0.2873  0.3561
   88MOL0     N11501   7.848   7.687   8.065 -0.1113 -0.4973 -0.7056
   88MOL0     C11502   7.745   7.749   8.129  0.3522 -0.2467 -0.7332
   88MOL0     C11503   7.717   7.844   8.037 -0.4811  0.0411  0.2421
   88MOL0     C11504   7.606   7.936   8.049  0.2760  0.3599  0.2566
   88MOL0     C11505   7.496   7.904   7.948 -0.0656  0.1230  0.4792
   88MOL0     C11506   7.372   7.979   7.996  0.7281 -0.7300 -0.5935
   88MOL0     C11507   7.277   7.984   7.883  0.3509  0.4722  0.1589
   88MOL0     O11508   7.154   7.919   7.915 -0.0389 -0.0909 -0.0987
   88MOL0     C11509   7.038   7.994   7.898 -0.2390 -0.1610 -0.0124
   88MOL0     C11510   6.970   8.039   8.009  0.4589  0.2595 -0.1076
   88MOL0     C11511   6.855   8.115   7.993  0.0781 -0.1525 -0.3538
   88MOL0     C11512   6.810   8.144   7.860  0.2449  0.1984 -0.7827
   88MOL0     C11513   6.681   8.220   7.850  0.4593 -0.1686 -0.0437
   88MOL0     O11514   6.626   8.224   7.726 -0.1965  0.0420 -0.2835
   88MOL0     C11515   6.522   8.308   7.714 -0.6021  0.2249  0.0816
   88MOL0     C11516   6.515   8.399   7.612 -0.0502 -0.3271 -0.2930
   88MOL0     C11517   6.395   8.472   7.579 -0.9868 -0.4200  1.1919
   88MOL0     C11518   6.279   8.446   7.657  0.1825 -0.0473  0.8914
   88MOL0     O11519   6.160   8.513   7.637  1.1797 -0.3172 -0.1772
   88MOL0     C11520   6.162   8.638   7.567  0.3111 -0.7495 -0.2652
   88MOL0     C11521   6.028   8.715   7.594 -0.6722 -0.6573 -0.1758
   88MOL0     C11522   5.931   8.671   7.491 -0.3079 -0.3174 -0.3171
   88MOL0     C11523   5.791   8.700   7.544  0.4962 -0.1092 -0.3631
   88MOL0     C11524   5.676   8.625   7.455  0.1504 -0.8266 -0.4790
   88MOL0     C11525   5.528   8.678   7.467 -0.8442 -0.4275 -0.0571
   88MOL0     C11526   5.438   8.634   7.356 -0.8229  0.3449  0.5202
   88MOL0     C11527   5.302   8.705   7.376 -0.4493  0.8194  0.0118
   88MOL0    Cl11528   5.218   8.624   7.515  0.2898  0.0169  0.0672
   88MOL0     C11529   6.281   8.361   7.757 -0.3990 -0.5519 -0.0730
   88MOL0     C11530   6.403   8.288   7.785  1.2384  0.0512 -0.3159
   88MOL0     O11531   6.642   8.284   7.950 -0.1239  0.5600 -0.1602
   88MOL0     C11532   6.888   8.106   7.751  0.2505  0.8155  0.1373
   88MOL0     C11533   6.999   8.022   7.770 -0.0216  0.5085 -0.1344
   88MOL0     N11534   7.816   7.852   7.936 -0.1017  0.3797 -0.1703
   88MOL0     N11535   7.894   7.761   7.960  0.0604 -0.0677  0.2220
   88MOL0     C11536   8.859   7.916   8.534  0.4093  0.1444  0.1244
   88MOL0     C11537   8.967   7.945   8.612 -0.0692 -0.4377 -0.6618
   88MOL0     C11538   9.301   8.207   8.792 -0.0031 -0.0851  1.4478
   88MOL0     C11539   9.345   8.337   8.824 -0.4476  0.6121 -0.2921
   88MOL0     C11540   9.470   8.358   8.885 -0.9564 -0.3352  0.4931
   88MOL0     C11541   9.545   8.249   8.925 -0.3653  0.2689 -0.1972
   88MOL0     O11542   9.672   8.252   8.982  0.2569  0.7042  0.1928
   88MOL0     C11543   9.772   8.339   8.922 -0.2470 -0.0500 -0.1796
   88MOL0     C11544   9.812   8.283   8.783 -0.1055  0.2151 -0.0591
   88MOL0     C11545   9.930   8.360   8.731 -1.2313 -0.8284 -0.1243
   88MOL0     C11546   9.961   8.339   8.585 -0.1760 -0.2098 -0.6906
   88MOL0     C11547  10.097   8.319   8.551  1.0069  0.1595 -0.1246
   88MOL0     C11548  10.211   8.314   8.520  0.4567 -0.7689  0.6467
   88MOL0     C11549   9.501   8.119   8.896  1.2170 -0.9330  0.0721
   88MOL0     C11550   9.384   8.090   8.824 -0.2852 -0.4958 -0.2354
   88MOL0     H11551   9.067   8.224   8.443  0.5635  0.0483 -1.6724
   88MOL0     H11552   8.869   8.160   8.311  2.3826 -1.7378 -1.6490
   88MOL0     H11553   8.802   7.830   8.219 -0.5786  0.4086  2.4956
   88MOL0     H11554   8.802   7.998   8.159  0.5844  0.5273  0.2504
   88MOL0     H11555   8.612   7.888   8.036 -1.5017 -0.9565  0.1993
   88MOL0     H11556   8.534   7.996   8.151 -1.6670 -1.4365 -0.1102
   88MOL0     H11557   8.498   7.820   8.313  0.0207  1.3354  0.1806
   88MOL0     H11558   8.571   7.701   8.204  1.6547  0.5120 -0.5945
   88MOL0     H11559   8.324   7.891   8.140 -0.3474 -1.1277 -1.4137
   88MOL0     H11560   8.369   7.754   8.037 -0.0279 -3.1881 -0.3520
   88MOL0     H11561   8.272   7.743   8.320 -0.6487  0.6477  0.6422
   88MOL0     H11562   8.326   7.611   8.225  1.0544  0.8961 -1.1795
   88MOL0     H11563   8.164   7.646   8.064  1.1379  0.7446 -0.1266
   88MOL0     H11564   8.093   7.788   8.127 -1.7292 -0.7728 -0.4355
   88MOL0     H11565   8.065   7.539   8.290  0.2279  0.5769  1.2280
   88MOL0     H11566   7.980   7.686   8.304  1.2771 -2.3122  1.8642
   88MOL0     H11567   7.841   7.515   8.173 -0.5951  0.7474  0.4525
   88MOL0     H11568   7.962   7.527   8.044 -1.3466  1.5962 -1.9932
   88MOL0     H11569   7.680   7.714   8.208 -0.7581  0.9188 -1.0894
   88MOL0     H11570   7.637   8.039   8.032 -0.2631  0.3621 -0.8045
   88MOL0     H11571   7.563   7.942   8.149 -0.8253 -1.6841 -0.0356
   88MOL0     H11572   7.480   7.796   7.943  1.4108 -0.0468 -1.7145
   88MOL0     H11573   7.526   7.933   7.847  0.8949 -1.3810  0.3033
   88MOL0     H11574   7.320   7.928   8.078  2.3679  0.9317  1.5865
   88MOL0     H11575   7.397   8.079   8.032  0.5250 -1.2586  1.1400
   88MOL0     H11576   7.316   7.935   7.794 -0.8499  0.4898 -0.3953
   88MOL0     H11577   7.259   8.090   7.860  0.7409  0.4268 -0.3693
   88MOL0     H11578   6.997   7.997   8.105 -0.6816 -0.7374 -0.1986
   88MOL0     H11579   6.802   8.154   8.079  1.3936  0.2217  0.3207
   88MOL0     H11580   6.605   8.403   7.552 -0.7180 -2.8788 -1.6080
   88MOL0     H11581   6.398   8.539   7.493 -2.5830 -0.7605  0.8404
   88MOL0     H11582   6.171   8.621   7.459  0.5791  0.6891 -0.4814
   88MOL0     H11583   6.249   8.696   7.597  0.6825 -0.1026 -2.3898
   88MOL0     H11584   6.040   8.823   7.598  0.3273 -0.7795  0.5481
   88MOL0     H11585   5.995   8.684   7.694  0.1807 -3.9634 -0.8024
   88MOL0     H11586   5.937   8.565   7.467 -3.5185 -0.6233 -0.2364
   88MOL0     H11587   5.953   8.734   7.404  1.9694 -2.3417 -1.3139
   88MOL0     H11588   5.780   8.686   7.652  0.6994  0.6081 -0.2475
   88MOL0     H11589   5.762   8.805   7.541 -0.7289 -0.3394  1.4665
   88MOL0     H11590   5.675   8.516   7.471  0.0633 -0.8135 -0.3891
   88MOL0     H11591   5.701   8.640   7.349  1.5987  1.0667  0.0952
   88MOL0     H11592   5.541   8.786   7.480 -0.7078 -0.4280 -0.1951
   88MOL0     H11593   5.480   8.651   7.562 -0.4160  2.9281  1.2475
   88MOL0     H11594   5.480   8.662   7.259 -0.9655  3.0955  1.1938
   88MOL0     H11595   5.425   8.525   7.358 -0.3047  0.2792  2.9862
   88MOL0     H11596   5.248   8.702   7.281 -1.3518  2.3452  0.4486
   88MOL0     H11597   5.315   8.811   7.399  2.1168  0.3034  1.3962
   88MOL0     H11598   6.188   8.340   7.809 -1.2279  2.7522  0.0110
   88MOL0     H11599   6.390   8.213   7.863 -0.2577  1.0189  0.4353
   88MOL0     H11600   6.859   8.138   7.652 -1.8820 -0.4701  0.2735
   88MOL0     H11601   7.059   7.976   7.693 -0.0318 -0.1496  0.2432
   88MOL0     H11602   8.793   7.836   8.569  1.6068 -0.0202  2.1832
   88MOL0     H11603   8.985   7.908   8.712 -1.0157 -0.2128 -0.3960
   88MOL0     H11604   9.286   8.416   8.778  0.1021  0.3447 -1.5128
   88MOL0     H11605   9.521   8.453   8.896 -3.6465  1.1781  0.5273
   88MOL0     H11606   9.854   8.353   8.994 -1.1818 -0.6146  1.0205
   88MOL0     H11607   9.734   8.439   8.898 -3.4798 -1.2767 -0.6664
   88MOL0     H11608   9.850   8.180   8.793 -1.0144 -0.0919  0.3589
   88MOL0     H11609   9.725   8.283   8.717 -1.8500 -0.7902  2.0816
   88MOL0     H11610  10.020   8.334   8.787 -1.7516 -1.0455  0.6256
   88MOL0     H11611   9.918   8.468   8.747  0.2571 -0.4445 -1.4230
   88MOL0     H11612   9.891   8.269   8.538 -2.6873  2.1292 -0.6815
   88MOL0     H11613   9.937   8.433   8.536  1.4342  0.6446  0.0841
   88MOL0     H11614  10.312   8.305   8.487  0.1999 -2.0074  0.1434
   88MOL0     H11615   9.566   8.036   8.920 -0.1425 -1.6512  1.4993
   88MOL0     H11616   9.361   7.992   8.785 -0.4455  0.4641 -2.7625
   89MOL0     O11617   6.299   3.284   1.037  0.8875  0.6233  0.4425
   89MOL0     C11618   6.321   3.385   1.091  0.2833 -0.5218 -0.3081
   89MOL0     O11619   6.234   3.492   1.105  0.0928 -0.2005  0.1664
   89MOL0     C11620   6.133   3.505   1.009 -0.9307 -0.0016 -0.5846
   89MOL0     C11621   6.021   3.574   1.053  0.2739 -0.6400 -0.0746
   89MOL0     C11622   5.922   3.602   0.955 -0.3765  0.9371  0.7635
   89MOL0     C11623   5.935   3.560   0.817  0.4317  0.5877 -1.5812
   89MOL0     O11624   5.851   3.589   0.720  0.2360 -0.2968 -0.1142
   89MOL0     C11625   5.843   3.731   0.690 -0.8172  0.4567 -0.3339
   89MOL0     C11626   5.747   3.763   0.570  0.4234 -0.4424 -0.2899
   89MOL0     C11627   5.610   3.702   0.587  0.2444  0.7704  0.1958
   89MOL0     C11628   5.502   3.721   0.482 -0.9457 -0.3802 -0.3204
   89MOL0     C11629   5.361   3.679   0.520  0.5353  0.1815 -0.2825
   89MOL0     C11630   5.249   3.725   0.424  0.2762  0.1474  0.0476
   89MOL0     C11631   5.125   3.717   0.499  0.1934  0.9126 -0.2741
   89MOL0     C11632   5.019   3.730   0.386  0.3609  0.6194 -0.3139
   89MOL0     N11633   4.880   3.716   0.438  0.2903 -0.0718  0.4904
   89MOL0     C11634   4.807   3.825   0.481 -0.0737  1.0030 -0.7696
   89MOL0     C11635   4.685   3.777   0.483  0.7099  0.2071 -0.6389
   89MOL0     C11636   4.562   3.856   0.527  0.3427  0.5425  0.0500
   89MOL0     C11637   4.478   3.769   0.618  0.2365 -0.0736  0.9839
   89MOL0     C11638   4.359   3.847   0.669  0.4114 -0.4139  0.0899
   89MOL0     C11639   4.283   3.762   0.772 -0.6192  0.7300 -0.5387
   89MOL0     O11640   4.144   3.793   0.766  1.0882 -0.0873  0.1545
   89MOL0     C11641   4.062   3.734   0.850 -0.2800  0.0463  0.8011
   89MOL0     C11642   3.972   3.644   0.795 -0.0549 -0.0902 -0.1830
   89MOL0     C11643   3.913   3.553   0.883  0.3470  0.1081  0.2309
   89MOL0     C11644   3.936   3.551   1.023 -0.5016 -0.5576 -0.0245
   89MOL0     C11645   3.871   3.445   1.116 -0.8597 -0.2400 -1.5499
   89MOL0     O11646   3.810   3.343   1.055  0.2304 -0.0999  0.0394
   89MOL0     C11647   3.753   3.239   1.133 -0.3521  0.6624  0.6468
   89MOL0     C11648   3.820   3.131   1.189 -0.2812 -0.0178  0.9160
   89MOL0     C11649   3.746   3.026   1.254 -1.0559  0.2222  0.7651
   89MOL0     C11650   3.611   3.024   1.253  0.0906  1.1653  0.2922
   89MOL0     O11651   3.533   2.920   1.305 -0.5195  0.4997  0.0290
   89MOL0     C11652   3.551   2.909   1.448  0.2904 -0.0630 -0.0402
   89MOL0     C11653   3.455   3.001   1.523 -0.2313 -0.6328  0.1120
   89MOL0     C11654   3.310   2.956   1.534  0.0450 -0.1112 -0.3714
   89MOL0     C11655   3.211   3.057   1.607 -0.7115 -0.0591 -0.8540
   89MOL0     C11656   3.058   3.026   1.580 -0.0188  0.0093  0.6560
   89MOL0     C11657   3.012   2.882   1.600  0.6277 -0.2731 -0.3446
   89MOL0     C11658   2.875   2.867   1.541  0.1425  0.9028  0.1137
   89MOL0     C11659   2.803   2.760   1.605  0.5102 -0.1613 -0.6496
   89MOL0    Cl11660   2.715   2.815   1.756  0.1413 -0.4841  0.3316
   89MOL0     C11661   3.544   3.119   1.180 -0.7350 -0.4127 -0.2254
   89MOL0     C11662   3.612   3.222   1.115 -0.7511 -0.5031 -0.6460
   89MOL0     O11663   3.876   3.458   1.236 -0.4820 -0.7011  0.1560
   89MOL0     C11664   4.016   3.651   1.074 -0.1685 -0.2627 -0.3405
   89MOL0     C11665   4.087   3.741   0.988  0.0004 -0.3347 -0.0257
   89MOL0     N11666   4.677   3.652   0.432  0.7845  0.5135  0.3414
   89MOL0     N11667   4.790   3.611   0.405  0.1642 -1.1909 -0.0169
   89MOL0     C11668   6.043   3.485   0.788  0.3144 -0.2695  0.3057
   89MOL0     C11669   6.151   3.460   0.876 -0.4401 -0.0349  0.4058
   89MOL0     C11670   6.453   3.386   1.153 -1.0499  0.5297 -1.0559
   89MOL0     C11671   6.540   3.270   1.168  0.0993 -0.3971 -0.5666
   89MOL0     C11672   6.669   3.289   1.220 -0.4080 -0.1393  0.8337
   89MOL0     C11673   6.729   3.412   1.247  0.0901 -0.1911  0.1759
   89MOL0     O11674   6.861   3.415   1.286 -0.3174  0.0709  0.1589
   89MOL0     C11675   6.946   3.329   1.213 -0.8098  0.1656 -0.4733
   89MOL0     C11676   7.089   3.380   1.230  0.1257  0.1591  0.6405
   89MOL0     C11677   7.111   3.519   1.156 -0.7795  0.6993 -0.4753
   89MOL0     C11678   7.247   3.582   1.209  0.9815  0.9411 -0.1018
   89MOL0     C11679   7.371   3.523   1.150 -0.5598  0.2948 -0.1705
   89MOL0     C11680   7.465   3.462   1.097  0.3054 -0.2058 -0.8756
   89MOL0     C11681   6.646   3.519   1.237  0.6739 -0.9345 -0.4441
   89MOL0     C11682   6.506   3.507   1.201 -0.7380 -0.1954  0.6146
   89MOL0     H11683   6.015   3.619   1.152  1.6618  1.3908 -0.8421
   89MOL0     H11684   5.831   3.660   0.969 -1.6349 -0.1926 -1.9298
   89MOL0     H11685   5.944   3.763   0.662 -0.7956 -1.6695 -3.1055
   89MOL0     H11686   5.816   3.797   0.773  1.4153 -1.7399  2.3174
   89MOL0     H11687   5.771   3.713   0.476 -2.6429  1.9499 -2.5229
   89MOL0     H11688   5.750   3.871   0.554  0.8856 -0.5665 -1.0896
   89MOL0     H11689   5.566   3.746   0.677  1.5537  1.2950  0.5942
   89MOL0     H11690   5.627   3.594   0.591  1.6440  0.9510 -0.4071
   89MOL0     H11691   5.504   3.826   0.452  2.3477  0.2475  1.6588
   89MOL0     H11692   5.525   3.668   0.389  1.1236 -2.0004  1.0178
   89MOL0     H11693   5.342   3.729   0.615 -1.2879  0.1278 -0.5694
   89MOL0     H11694   5.358   3.570   0.533  0.4190  0.4611  2.8927
   89MOL0     H11695   5.247   3.657   0.339 -0.7843 -0.0366  0.2072
   89MOL0     H11696   5.258   3.829   0.391 -1.1614 -0.6493 -3.3212
   89MOL0     H11697   5.112   3.626   0.558  1.6071  1.1856  0.5180
   89MOL0     H11698   5.125   3.805   0.564  1.7688  0.5129  0.3192
   89MOL0     H11699   5.039   3.649   0.316  2.6806  2.5379 -2.0209
   89MOL0     H11700   5.031   3.823   0.329  1.4331  0.9249  0.3734
   89MOL0     H11701   4.845   3.918   0.523  1.0550 -0.8119  2.5815
   89MOL0     H11702   4.497   3.867   0.439 -2.3745  2.3903  2.1402
   89MOL0     H11703   4.590   3.952   0.570 -0.6697  0.8911 -0.0357
   89MOL0     H11704   4.542   3.729   0.698  0.5894 -0.6873  0.4091
   89MOL0     H11705   4.437   3.683   0.564  1.0599 -0.8965  1.6100
   89MOL0     H11706   4.373   3.947   0.712 -2.4444  1.3593 -2.7127
   89MOL0     H11707   4.309   3.861   0.573  2.3937 -1.3586 -1.1516
   89MOL0     H11708   4.319   3.765   0.875  0.1952 -0.1906 -0.7784
   89MOL0     H11709   4.293   3.657   0.741  0.4815 -0.0846  2.2880
   89MOL0     H11710   3.949   3.638   0.689  0.3089  3.2402 -0.5414
   89MOL0     H11711   3.851   3.471   0.849  0.0578 -0.7379  2.5955
   89MOL0     H11712   3.927   3.112   1.198 -0.3098 -0.6905  0.0181
   89MOL0     H11713   3.803   2.947   1.302  0.6084 -0.4478 -2.1060
   89MOL0     H11714   3.658   2.921   1.468  1.2045 -1.6745 -3.2981
   89MOL0     H11715   3.523   2.808   1.478  0.9334  0.3423  2.1114
   89MOL0     H11716   3.460   3.093   1.463  1.7217  0.0806  1.2632
   89MOL0     H11717   3.492   3.036   1.620 -1.3525  0.4594  0.1722
   89MOL0     H11718   3.315   2.863   1.592  1.3795  1.0811  1.5674
   89MOL0     H11719   3.280   2.929   1.433  1.2798  1.3462 -1.1639
   89MOL0     H11720   3.230   3.037   1.713 -1.2473  1.2355 -0.5053
   89MOL0     H11721   3.240   3.160   1.585  0.8814 -1.1608 -4.8564
   89MOL0     H11722   3.030   3.039   1.475  0.5198 -0.7460  0.4095
   89MOL0     H11723   2.996   3.085   1.649 -1.6690 -0.7417 -0.1259
   89MOL0     H11724   3.014   2.859   1.707  1.0305  1.1489 -0.0215
   89MOL0     H11725   3.071   2.805   1.550  0.2029 -1.3527  0.7401
   89MOL0     H11726   2.820   2.961   1.549 -0.5718  0.4214  1.0048
   89MOL0     H11727   2.890   2.830   1.439 -4.0404  0.0968 -0.3842
   89MOL0     H11728   2.884   2.690   1.627  1.0756  1.3723  2.6635
   89MOL0     H11729   2.722   2.721   1.542  0.8150  0.2430 -1.3021
   89MOL0     H11730   3.436   3.113   1.165 -0.9055  1.7581 -0.1891
   89MOL0     H11731   3.572   3.303   1.055  0.8768  0.7786 -0.0796
   89MOL0     H11732   4.024   3.649   1.182  0.4517 -1.1234 -0.3911
   89MOL0     H11733   4.160   3.808   1.031  0.7640 -1.1415 -0.0374
   89MOL0     H11734   6.044   3.440   0.689 -0.7080 -2.0770  1.0630
   89MOL0     H11735   6.242   3.415   0.839  0.9529  1.4041  1.9691
   89MOL0     H11736   6.511   3.168   1.145 -1.9821  0.2400 -1.0424
   89MOL0     H11737   6.730   3.199   1.220  0.7789  0.5668 -1.7299
   89MOL0     H11738   6.915   3.323   1.108  1.9217  2.8006 -1.5821
   89MOL0     H11739   6.952   3.229   1.256 -0.2959 -0.2253 -1.4136
   89MOL0     H11740   7.121   3.370   1.334 -0.8104 -1.7848  0.7849
   89MOL0     H11741   7.146   3.309   1.168  1.7378  1.4551  0.5655
   89MOL0     H11742   7.030   3.585   1.190  1.2384  3.5823 -0.8824
   89MOL0     H11743   7.108   3.520   1.047  2.9921  1.5617 -0.7019
   89MOL0     H11744   7.249   3.691   1.212  0.3361  1.0552 -2.0571
   89MOL0     H11745   7.248   3.565   1.317 -1.7443  1.7721  0.1417
   89MOL0     H11746   7.545   3.413   1.045 -0.7158 -2.4408 -0.4405
   89MOL0     H11747   6.685   3.617   1.265  0.5311 -1.3467  1.3584
   89MOL0     H11748   6.442   3.594   1.195 -2.3910 -1.4337 -1.1323
   90MOL0     O11749   5.016   8.095  10.091  0.3200 -0.0644  0.2489
   90MOL0     C11750   5.075   8.072  10.193 -0.0880  0.3369  0.0195
   90MOL0     O11751   5.022   8.085  10.318  0.4183 -0.0463 -0.3612
   90MOL0     C11752   4.884   8.106  10.332  0.2422 -0.5698 -0.4185
   90MOL0     C11753   4.857   8.167  10.454 -0.6767  0.1110 -0.3446
   90MOL0     C11754   4.721   8.191  10.489 -0.7647  1.0534  0.2919
   90MOL0     C11755   4.618   8.132  10.415  1.4321  0.5502 -0.2123
   90MOL0     O11756   4.487   8.129  10.445 -0.1320  0.3860 -0.0429
   90MOL0     C11757   4.425   8.198  10.552 -0.3524 -0.5751 -0.8173
   90MOL0     C11758   4.279   8.180  10.538 -0.0298  0.1276 -0.0999
   90MOL0     C11759   4.219   8.257  10.417 -0.2177  0.3067 -0.2545
   90MOL0     C11760   4.222   8.407  10.437 -0.7457 -0.0577 -0.0505
   90MOL0     C11761   4.134   8.480  10.332 -0.2155 -0.1902  0.3704
   90MOL0     C11762   4.171   8.628  10.322  0.1933 -0.6534  1.3258
   90MOL0     C11763   4.114   8.701  10.195  0.0136  0.1263 -0.3636
   90MOL0     C11764   4.138   8.851  10.207  0.9033 -0.5114 -0.2248
   90MOL0     N11765   4.016   8.930  10.202  0.5796  1.2377 -0.0079
   90MOL0     C11766   3.905   8.893  10.277 -0.1727  0.5064 -0.1809
   90MOL0     C11767   3.823   9.000  10.268 -0.5183 -0.2180 -0.3260
   90MOL0     C11768   3.690   9.019  10.333 -0.2590  0.3039 -0.4478
   90MOL0     C11769   3.582   9.076  10.240 -0.5284 -0.1288 -0.6441
   90MOL0     C11770   3.445   9.045  10.301 -0.0798  0.7809  0.5491
   90MOL0     C11771   3.328   9.118  10.233 -0.4899 -0.6633  0.3384
   90MOL0     O11772   3.215   9.034  10.251 -0.7848 -0.2524  0.6731
   90MOL0     C11773   3.082   9.069  10.272  0.8021  0.3019  0.8559
   90MOL0     C11774   3.024   9.194  10.255  0.6585  0.6717  0.4003
   90MOL0     C11775   2.886   9.209  10.274 -0.2963 -0.2463  0.8358
   90MOL0     C11776   2.806   9.105  10.318 -0.1916  0.4514  0.2372
   90MOL0     C11777   2.662   9.131  10.323  0.2816  0.4460  0.1918
   90MOL0     O11778   2.616   9.242  10.278  0.3413  0.6005 -0.2347
   90MOL0     C11779   2.493   9.253  10.226 -0.3356  0.8739 -0.3515
   90MOL0     C11780   2.394   9.316  10.291 -0.8508 -0.7550  0.2639
   90MOL0     C11781   2.262   9.341  10.239  0.4915 -0.6402  0.2200
   90MOL0     C11782   2.239   9.294  10.107 -0.5270  0.6661  0.2006
   90MOL0     O11783   2.117   9.318  10.058 -0.0085 -0.5906  0.0816
   90MOL0     C11784   2.076   9.254   9.937 -0.0550  0.1726  1.0771
   90MOL0     C11785   2.120   9.356   9.824 -0.5884 -0.0682  0.5541
   90MOL0     C11786   2.100   9.291   9.686 -0.1099 -0.2981 -0.5737
   90MOL0     C11787   2.155   9.387   9.585 -0.2387  0.4241 -0.3027
   90MOL0     C11788   2.113   9.337   9.447 -0.6368  0.0198  0.1145
   90MOL0     C11789   1.960   9.350   9.415 -1.2239  0.2946 -0.4806
   90MOL0     C11790   1.961   9.317   9.262  0.6487  0.2607 -0.3768
   90MOL0     C11791   1.823   9.345   9.204  0.7853 -0.6196  0.4869
   90MOL0    Cl11792   1.701   9.219   9.246 -0.2389 -0.7129 -0.1269
   90MOL0     C11793   2.341   9.227  10.037 -1.0284 -0.4066  0.3721
   90MOL0     C11794   2.470   9.212  10.096  0.7868  0.3628  0.2512
   90MOL0     O11795   2.591   9.037  10.350  0.8231 -0.0986 -0.3160
   90MOL0     C11796   2.867   8.980  10.344 -0.6042 -0.4033 -0.1980
   90MOL0     C11797   3.001   8.959  10.315 -0.4252  0.5652 -0.5201
   90MOL0     N11798   3.895   9.102  10.206 -0.1421 -0.0899 -0.0101
   90MOL0     N11799   4.009   9.058  10.159  0.5582 -0.2800  0.0675
   90MOL0     C11800   4.650   8.061  10.294  0.7140 -1.2024  0.4608
   90MOL0     C11801   4.781   8.053  10.245 -0.3434 -0.3398  0.7216
   90MOL0     C11802   5.221   8.044  10.193  0.9558  0.0705  0.5262
   90MOL0     C11803   5.292   8.064  10.314  0.6714 -0.3708 -0.3814
   90MOL0     C11804   5.426   8.044  10.315  0.3698 -0.1288 -0.1684
   90MOL0     C11805   5.497   8.000  10.200  0.4249  0.2535 -0.4727
   90MOL0     O11806   5.625   7.970  10.227 -0.7408  0.7240 -0.1860
   90MOL0     C11807   5.704   7.913  10.119  0.7369 -0.7939 -0.2479
   90MOL0     C11808   5.841   7.898  10.155  0.1782 -0.7461  0.1825
   90MOL0     C11809   5.901   7.997  10.265  0.0822  0.0432  0.9058
   90MOL0     C11810   6.051   7.985  10.282 -0.1220 -0.4947 -0.4412
   90MOL0     C11811   6.110   8.071  10.387  0.4191 -0.3081  1.2638
   90MOL0     C11812   6.146   8.135  10.486  0.6555 -0.2745 -0.0320
   90MOL0     C11813   5.434   7.990  10.077 -0.3072 -0.5809 -0.6674
   90MOL0     C11814   5.298   8.018  10.075 -0.2117 -0.0828  0.5297
   90MOL0     H11815   4.943   8.202  10.510 -0.5175 -0.1688 -0.4098
   90MOL0     H11816   4.705   8.231  10.588 -3.6925 -1.7450  1.1005
   90MOL0     H11817   4.451   8.304  10.550 -3.4379  0.2783 -0.8742
   90MOL0     H11818   4.466   8.161  10.647  0.7119  0.8661 -0.6787
   90MOL0     H11819   4.228   8.213  10.629  1.8935  1.8754  0.4376
   90MOL0     H11820   4.270   8.075  10.510 -2.4430  0.0840  0.6206
   90MOL0     H11821   4.117   8.216  10.414  0.1250 -0.6973  0.9238
   90MOL0     H11822   4.268   8.225  10.325 -0.9558  0.4362 -0.7071
   90MOL0     H11823   4.205   8.431  10.543 -1.3815  0.0228 -0.1685
   90MOL0     H11824   4.324   8.445  10.422 -1.1804  1.3033  0.3088
   90MOL0     H11825   4.027   8.473  10.353 -0.2741  3.2470  1.7989
   90MOL0     H11826   4.155   8.428  10.238 -1.2454  0.6448 -0.3401
   90MOL0     H11827   4.278   8.647  10.320 -0.3768  4.2128 -1.5251
   90MOL0     H11828   4.134   8.687  10.406 -0.3768 -1.1147  1.4084
   90MOL0     H11829   4.171   8.680  10.104  0.6401  2.6591 -0.6385
   90MOL0     H11830   4.014   8.660  10.181 -0.1449  0.6513 -0.7997
   90MOL0     H11831   4.211   8.871  10.128  0.3327  3.6224  0.1051
   90MOL0     H11832   4.186   8.868  10.304  1.5596  0.0558 -0.6343
   90MOL0     H11833   3.884   8.797  10.323 -2.3620  0.4276 -1.2003
   90MOL0     H11834   3.691   9.078  10.426 -2.0493  0.0652 -0.2414
   90MOL0     H11835   3.664   8.917  10.361 -2.4262  0.5836 -1.3050
   90MOL0     H11836   3.589   9.038  10.138 -0.1776  1.2927 -1.1644
   90MOL0     H11837   3.586   9.185  10.236 -3.6206  0.0844 -0.8149
   90MOL0     H11838   3.422   8.938  10.292  1.4006  0.5122 -0.6690
   90MOL0     H11839   3.440   9.060  10.409  0.1879 -3.0864  1.2457
   90MOL0     H11840   3.355   9.119  10.127  1.3318 -1.4535  0.7632
   90MOL0     H11841   3.325   9.219  10.275  1.2824 -0.0522 -0.8757
   90MOL0     H11842   3.085   9.274  10.214  0.9030  0.2249 -0.1135
   90MOL0     H11843   2.850   9.305  10.240 -0.4627 -0.5132  0.2449
   90MOL0     H11844   2.427   9.341  10.391 -1.0861 -2.2375  0.7353
   90MOL0     H11845   2.178   9.392  10.285 -1.7481  0.0068 -4.0341
   90MOL0     H11846   1.967   9.246   9.927 -0.5182  5.1874 -1.1189
   90MOL0     H11847   2.121   9.158   9.912  0.6146  0.8180 -0.3322
   90MOL0     H11848   2.226   9.379   9.830 -1.1937  2.7675  1.9896
   90MOL0     H11849   2.062   9.448   9.833 -2.3530 -1.1556  0.8020
   90MOL0     H11850   2.000   9.256   9.661  0.9510 -2.7185 -1.8420
   90MOL0     H11851   2.170   9.207   9.685 -0.6672 -0.7738 -1.5866
   90MOL0     H11852   2.102   9.482   9.600 -1.5186 -0.3259  0.0444
   90MOL0     H11853   2.264   9.400   9.592 -0.0308 -1.1704 -0.1795
   90MOL0     H11854   2.139   9.231   9.442 -2.2155 -0.4596  1.0761
   90MOL0     H11855   2.170   9.391   9.370  0.8336  0.4980  1.4784
   90MOL0     H11856   1.932   9.452   9.442  4.3167  2.3886 -1.3490
   90MOL0     H11857   1.901   9.283   9.477 -0.5762  2.6773  2.9668
   90MOL0     H11858   2.028   9.372   9.194 -2.5854  0.8322 -3.3909
   90MOL0     H11859   1.979   9.210   9.243 -2.4406 -0.2805 -0.7405
   90MOL0     H11860   1.816   9.349   9.095 -1.0584 -1.0896  0.5495
   90MOL0     H11861   1.798   9.447   9.236  0.7368 -0.0343 -1.2984
   90MOL0     H11862   2.340   9.189   9.935  3.0921 -1.6317  0.6039
   90MOL0     H11863   2.556   9.166  10.047 -0.8672 -1.2431 -1.2728
   90MOL0     H11864   2.803   8.896  10.372 -0.8725 -0.5380 -1.1906
   90MOL0     H11865   3.049   8.864  10.336 -2.0949 -0.1947  0.0285
   90MOL0     H11866   4.574   8.030  10.222  1.2728 -1.4729 -0.0248
   90MOL0     H11867   4.799   7.991  10.158  2.0403 -2.5102  2.5868
   90MOL0     H11868   5.251   8.101  10.408 -2.3448 -0.0781 -1.6920
   90MOL0     H11869   5.479   8.053  10.409  1.0993 -1.3902 -0.4264
   90MOL0     H11870   5.697   7.975  10.029 -1.7592 -2.3206 -1.2094
   90MOL0     H11871   5.669   7.814  10.089  1.9661 -0.8656 -1.5743
   90MOL0     H11872   5.847   7.795  10.193  1.0853 -0.3038  1.2977
   90MOL0     H11873   5.908   7.913  10.070 -2.4502  0.6466 -1.7709
   90MOL0     H11874   5.854   7.983  10.363 -0.1499  3.5526  1.4533
   90MOL0     H11875   5.883   8.102  10.238  0.4379  0.2841  1.5634
   90MOL0     H11876   6.083   7.885  10.315  5.6212  1.3919  0.9765
   90MOL0     H11877   6.107   7.996  10.189  2.6044  0.9297  1.2188
   90MOL0     H11878   6.189   8.193  10.565 -1.4802 -1.5124  2.1900
   90MOL0     H11879   5.479   7.953   9.985 -0.4162  0.0319 -0.9722
   90MOL0     H11880   5.228   7.994   9.995 -0.3016 -0.2840  0.6657
   91MOL0     O11881   6.457   3.419   3.775  0.1082 -0.4421  0.1244
   91MOL0     C11882   6.445   3.541   3.761  0.3161  0.1983 -0.2956
   91MOL0     O11883   6.333   3.606   3.720  0.6909  1.0494 -0.1301
   91MOL0     C11884   6.217   3.524   3.704  0.0622 -0.7023  0.6897
   91MOL0     C11885   6.170   3.450   3.819 -0.7574  0.5578  0.0542
   91MOL0     C11886   6.045   3.391   3.813  0.3149 -0.2654 -0.1004
   91MOL0     C11887   5.970   3.382   3.691  0.2354  0.4099 -0.7756
   91MOL0     O11888   5.846   3.315   3.700 -0.2746 -0.1318  0.0777
   91MOL0     C11889   5.802   3.242   3.580 -0.6109 -0.0696  0.6021
   91MOL0     C11890   5.674   3.180   3.619 -0.3663  0.4800  0.0955
   91MOL0     C11891   5.646   3.056   3.536  0.7980  0.1985 -0.3850
   91MOL0     C11892   5.531   2.980   3.599 -0.2296 -0.4030 -0.6946
   91MOL0     C11893   5.517   2.837   3.536  0.6339  0.0621 -0.2868
   91MOL0     C11894   5.434   2.847   3.407  0.5522  0.0035 -0.1405
   91MOL0     C11895   5.402   2.711   3.351 -0.4869 -0.3684  0.1131
   91MOL0     C11896   5.290   2.649   3.432  0.5667  0.3595  0.7828
   91MOL0     N11897   5.157   2.716   3.441  1.2170  0.2412  0.2052
   91MOL0     C11898   5.091   2.728   3.566 -0.9834 -0.1224 -0.3702
   91MOL0     C11899   4.967   2.748   3.535  0.4229 -0.0635 -0.5654
   91MOL0     C11900   4.857   2.773   3.635 -0.7080  0.7715 -0.6435
   91MOL0     C11901   4.831   2.910   3.699  0.8742  0.2318  0.0042
   91MOL0     C11902   4.763   2.899   3.841  0.2042 -0.2829 -0.0526
   91MOL0     C11903   4.615   2.856   3.838  0.7738 -0.1523 -0.4265
   91MOL0     O11904   4.549   2.950   3.753 -0.4897 -0.4865  0.0480
   91MOL0     C11905   4.416   2.926   3.725 -0.3047 -0.2229  0.9353
   91MOL0     C11906   4.361   3.001   3.619 -0.1592 -0.2366  0.1337
   91MOL0     C11907   4.228   2.991   3.585  0.3127 -0.0140 -0.5493
   91MOL0     C11908   4.139   2.906   3.664 -0.3621  0.3506  0.1967
   91MOL0     C11909   3.996   2.896   3.627  0.1934 -0.2672  0.4562
   91MOL0     O11910   3.911   2.831   3.711 -0.7083  0.2214 -0.2854
   91MOL0     C11911   3.784   2.813   3.682 -0.2110  0.2259  0.1590
   91MOL0     C11912   3.741   2.684   3.664 -0.2917 -0.1482  0.1667
   91MOL0     C11913   3.613   2.657   3.614 -0.0673  0.0497  0.0002
   91MOL0     C11914   3.522   2.763   3.601 -0.0159  0.2146 -0.6693
   91MOL0     O11915   3.395   2.720   3.582  0.1056 -0.1762 -1.0145
   91MOL0     C11916   3.286   2.819   3.600  0.2973  0.8615 -0.0549
   91MOL0     C11917   3.153   2.752   3.625 -0.2911  0.5146 -0.0451
   91MOL0     C11918   3.036   2.855   3.639  0.1431 -0.3051 -0.0145
   91MOL0     C11919   2.923   2.807   3.727  0.5190 -0.3993 -0.2366
   91MOL0     C11920   2.793   2.883   3.684 -0.2039  0.3558 -0.5044
   91MOL0     C11921   2.717   2.800   3.587 -0.1612  0.1274  0.8053
   91MOL0     C11922   2.572   2.848   3.562  0.0104 -0.3019 -1.1347
   91MOL0     C11923   2.560   2.941   3.445 -0.5914  0.0061  0.7498
   91MOL0    Cl11924   2.646   3.100   3.470 -0.2146 -0.1787  0.1352
   91MOL0     C11925   3.565   2.893   3.619  0.6641  0.4866 -0.3249
   91MOL0     C11926   3.697   2.910   3.656 -0.7122 -0.7277 -0.3631
   91MOL0     O11927   3.963   2.938   3.517 -0.2312 -0.4437  0.0619
   91MOL0     C11928   4.195   2.843   3.774 -0.2734 -0.0608 -0.2804
   91MOL0     C11929   4.329   2.849   3.803  0.1449  0.4796 -0.2038
   91MOL0     N11930   4.950   2.746   3.405 -0.3087  0.2529 -0.5676
   91MOL0     N11931   5.064   2.719   3.346  0.1118  0.1974 -0.3058
   91MOL0     C11932   6.023   3.446   3.580 -0.6384 -0.1481  0.6111
   91MOL0     C11933   6.144   3.520   3.586  0.0043 -0.0316  0.4137
   91MOL0     C11934   6.557   3.621   3.805 -0.0675 -0.2834 -0.6563
   91MOL0     C11935   6.551   3.755   3.792 -0.8479  0.6795  0.0577
   91MOL0     C11936   6.655   3.838   3.836 -1.6241  0.5240 -0.8566
   91MOL0     C11937   6.775   3.777   3.880  0.1662 -0.9383  0.4800
   91MOL0     O11938   6.881   3.846   3.926  0.5554  0.1313  0.0019
   91MOL0     C11939   6.921   3.817   4.065 -0.2071  0.1250 -0.0570
   91MOL0     C11940   7.007   3.923   4.127  0.0849 -0.7007 -0.8288
   91MOL0     C11941   7.132   3.949   4.038  0.0952  0.2641 -0.6497
   91MOL0     C11942   7.200   4.089   4.079 -0.5631  0.1391  0.1529
   91MOL0     C11943   7.263   4.105   4.212 -0.3550  0.2159  0.2921
   91MOL0     C11944   7.310   4.116   4.324  0.1025 -0.1070 -0.1446
   91MOL0     C11945   6.781   3.646   3.881  0.7299  0.3333 -0.0640
   91MOL0     C11946   6.678   3.564   3.848  1.0792  0.6765  0.3298
   91MOL0     H11947   6.221   3.456   3.915 -2.2169 -1.0860  0.9743
   91MOL0     H11948   6.007   3.340   3.900 -0.0217 -0.6045 -0.4443
   91MOL0     H11949   5.876   3.167   3.550 -0.6089  0.2866 -0.3100
   91MOL0     H11950   5.782   3.308   3.495  2.7545 -1.0896 -1.1381
   91MOL0     H11951   5.587   3.247   3.614 -1.1609 -0.1992  2.7985
   91MOL0     H11952   5.687   3.147   3.722  3.1228  0.4489 -0.2673
   91MOL0     H11953   5.735   2.993   3.531  0.9902 -0.1028  3.5046
   91MOL0     H11954   5.622   3.084   3.433  2.8736 -1.0684 -1.2663
   91MOL0     H11955   5.549   2.972   3.706 -0.6771 -2.1711 -0.7261
   91MOL0     H11956   5.436   3.035   3.603  0.0336 -0.0004  0.2825
   91MOL0     H11957   5.455   2.773   3.599  1.0811 -1.7946 -1.6662
   91MOL0     H11958   5.614   2.791   3.512  0.6402 -1.3099  2.0955
   91MOL0     H11959   5.483   2.900   3.325 -2.1166  0.6991 -1.4210
   91MOL0     H11960   5.346   2.907   3.433  1.2969  0.4549  1.4317
   91MOL0     H11961   5.361   2.725   3.250 -1.3525  0.1823  0.5238
   91MOL0     H11962   5.494   2.653   3.346  0.4098  1.0809 -2.7974
   91MOL0     H11963   5.329   2.621   3.530  0.6750 -2.5657  0.0078
   91MOL0     H11964   5.277   2.548   3.391  0.4885  0.4144  0.6729
   91MOL0     H11965   5.137   2.727   3.664  0.7556 -0.4784 -1.1491
   91MOL0     H11966   4.875   2.702   3.717 -3.9093  2.0585  1.3489
   91MOL0     H11967   4.771   2.741   3.575  0.4101 -2.5399 -0.7165
   91MOL0     H11968   4.763   2.959   3.629 -0.0498 -1.3221 -0.2322
   91MOL0     H11969   4.920   2.973   3.709  0.4665  0.4204  4.2516
   91MOL0     H11970   4.814   2.819   3.895 -1.2006 -0.9396  0.3619
   91MOL0     H11971   4.778   2.988   3.902 -3.3734 -0.1538  0.8951
   91MOL0     H11972   4.575   2.856   3.940 -0.9342 -1.2988 -1.0572
   91MOL0     H11973   4.608   2.758   3.790 -0.6358  0.9128 -2.5535
   91MOL0     H11974   4.420   3.070   3.559 -1.2736 -0.1734 -0.9330
   91MOL0     H11975   4.200   3.049   3.498  0.3632  0.1635 -0.4496
   91MOL0     H11976   3.820   2.610   3.678  0.2221  0.3023 -0.3102
   91MOL0     H11977   3.579   2.557   3.594 -0.3569  0.2598 -0.5631
   91MOL0     H11978   3.272   2.871   3.505 -0.0670  0.7175 -0.0852
   91MOL0     H11979   3.296   2.903   3.669  1.9552  3.0700 -2.7774
   91MOL0     H11980   3.174   2.689   3.711  0.9740 -0.3353 -0.9384
   91MOL0     H11981   3.126   2.685   3.543  1.5498 -0.3391 -0.0042
   91MOL0     H11982   3.004   2.893   3.542 -2.7640 -1.2191  0.4876
   91MOL0     H11983   3.076   2.939   3.697 -1.8456  0.2942  0.5461
   91MOL0     H11984   2.912   2.700   3.711  1.4068 -1.0446  2.7904
   91MOL0     H11985   2.947   2.823   3.833  1.3401  0.0542 -0.4865
   91MOL0     H11986   2.822   2.980   3.644 -0.8306  0.2945 -1.1395
   91MOL0     H11987   2.733   2.895   3.775  3.6052 -0.7820  2.3955
   91MOL0     H11988   2.717   2.697   3.624 -0.1320 -0.8467 -1.7199
   91MOL0     H11989   2.767   2.798   3.491 -0.2101 -0.2265  0.7859
   91MOL0     H11990   2.505   2.764   3.545 -0.1944 -0.4026  0.0545
   91MOL0     H11991   2.519   2.893   3.647 -0.9091 -1.0856 -1.2803
   91MOL0     H11992   2.458   2.970   3.417 -0.1811 -0.7425 -1.7986
   91MOL0     H11993   2.596   2.883   3.360  1.4347 -1.9858  2.8344
   91MOL0     H11994   3.486   2.967   3.612 -0.3426 -0.6929 -1.6306
   91MOL0     H11995   3.733   3.012   3.671 -1.5958 -0.3675 -0.6437
   91MOL0     H11996   4.130   2.793   3.845  4.3030 -3.0501  2.2607
   91MOL0     H11997   4.356   2.797   3.894  3.2318  0.1135 -1.2115
   91MOL0     H11998   5.954   3.454   3.497 -0.7546  0.2656  0.7499
   91MOL0     H11999   6.177   3.583   3.505  1.6453 -1.3949 -0.0414
   91MOL0     H12000   6.457   3.801   3.759 -0.1444  1.4101 -1.0099
   91MOL0     H12001   6.661   3.946   3.832 -1.4050  0.4977 -1.3394
   91MOL0     H12002   6.982   3.726   4.064  0.5028  0.5972 -0.0586
   91MOL0     H12003   6.826   3.807   4.118 -1.5130  0.1402 -2.2586
   91MOL0     H12004   6.947   4.012   4.146 -0.4504 -1.3314  0.6004
   91MOL0     H12005   7.044   3.891   4.225  2.2924  0.6659 -1.1572
   91MOL0     H12006   7.086   3.969   3.941 -2.1015  4.1602  0.9619
   91MOL0     H12007   7.203   3.866   4.030  0.1967  0.2425  0.3138
   91MOL0     H12008   7.274   4.115   4.003 -1.5602  1.9714 -0.2478
   91MOL0     H12009   7.117   4.160   4.085  1.2770  2.2945  1.5773
   91MOL0     H12010   7.358   4.117   4.420 -1.0136 -1.3884  0.4604
   91MOL0     H12011   6.861   3.584   3.919  1.9791  2.5344  1.0830
   91MOL0     H12012   6.678   3.456   3.856 -0.9600  0.6176  0.0998
   92MOL0     O12013   9.197   4.976   7.155  0.3666 -0.4417 -0.7011
   92MOL0     C12014   9.165   5.075   7.216  0.6662  0.1423 -0.4014
   92MOL0     O12015   9.035   5.121   7.231 -0.2515  0.2500 -0.1749
   92MOL0     C12016   8.929   5.064   7.160 -0.1417  0.0022  0.2269
   92MOL0     C12017   8.947   5.016   7.029  0.1900 -0.1441  0.1911
   92MOL0     C12018   8.839   4.953   6.963 -0.1892 -0.3871 -0.4650
   92MOL0     C12019   8.714   4.935   7.025 -0.6817  0.5220 -0.7066
   92MOL0     O12020   8.605   4.900   6.949 -0.3285 -0.6573 -0.2426
   92MOL0     C12021   8.484   4.940   7.001  0.3465 -0.5971  0.0893
   92MOL0     C12022   8.374   4.891   6.915  0.7222 -0.0104 -0.8527
   92MOL0     C12023   8.241   4.844   6.995  0.4096  1.3775  0.5729
   92MOL0     C12024   8.155   4.759   6.898 -0.8046 -0.0111  0.3625
   92MOL0     C12025   8.039   4.689   6.967 -0.0522  0.0746  0.5580
   92MOL0     C12026   7.994   4.569   6.878 -0.3233 -0.5412  0.2901
   92MOL0     C12027   7.907   4.465   6.952  0.4577 -0.1460  0.1802
   92MOL0     C12028   7.910   4.315   6.878 -0.5743 -0.4664  0.5050
   92MOL0     N12029   7.860   4.328   6.736  0.3104 -0.7533 -0.0700
   92MOL0     C12030   7.906   4.270   6.626  0.0064  0.4465  0.2244
   92MOL0     C12031   7.803   4.272   6.534 -0.6056 -1.1172 -0.2330
   92MOL0     C12032   7.805   4.211   6.395 -0.9270  0.5169  0.0467
   92MOL0     C12033   7.794   4.062   6.407 -0.0125  0.4311 -0.6505
   92MOL0     C12034   7.799   3.984   6.266 -0.2317  0.1755  0.3037
   92MOL0     C12035   7.693   3.884   6.256  0.2117  0.4819 -0.6381
   92MOL0     O12036   7.566   3.946   6.236  0.4806 -0.2690  0.1098
   92MOL0     C12037   7.450   3.876   6.213  0.2631  0.7460  0.0257
   92MOL0     C12038   7.344   3.932   6.141  0.0035  0.8338 -0.5673
   92MOL0     C12039   7.222   3.857   6.124 -1.0434 -0.2079  0.0409
   92MOL0     C12040   7.205   3.726   6.175  0.2267  0.1518  0.2516
   92MOL0     C12041   7.067   3.658   6.175  0.1038 -0.4645  0.2627
   92MOL0     O12042   6.957   3.721   6.128 -0.1932 -0.1003 -0.1719
   92MOL0     C12043   6.833   3.671   6.127  0.5777 -0.4682  0.1492
   92MOL0     C12044   6.771   3.563   6.190 -0.0548  1.5115 -0.1797
   92MOL0     C12045   6.635   3.535   6.191 -0.5456  0.3421 -0.5556
   92MOL0     C12046   6.545   3.622   6.138 -0.4107 -0.0517  0.2244
   92MOL0     O12047   6.413   3.612   6.150 -0.2077  0.5302 -0.4375
   92MOL0     C12048   6.355   3.511   6.242  0.8869  0.0346  0.2777
   92MOL0     C12049   6.203   3.536   6.260 -0.5038 -0.4006  0.8512
   92MOL0     C12050   6.138   3.580   6.134 -0.6844 -0.2218 -0.3847
   92MOL0     C12051   5.987   3.547   6.138 -0.0337  0.5151 -0.1243
   92MOL0     C12052   5.914   3.637   6.241  0.4379  0.1205  0.0754
   92MOL0     C12053   5.775   3.591   6.276  0.6653  0.1200  0.2775
   92MOL0     C12054   5.665   3.611   6.173 -0.2481  0.4173  0.2138
   92MOL0     C12055   5.539   3.557   6.244 -0.3384  1.2342  0.5781
   92MOL0    Cl12056   5.379   3.574   6.155 -0.2737 -0.2768 -0.3685
   92MOL0     C12057   6.596   3.744   6.089  0.0445 -0.0223 -0.1784
   92MOL0     C12058   6.737   3.762   6.062 -0.7088 -0.4139 -0.6558
   92MOL0     O12059   7.063   3.543   6.222 -0.5043  0.0569 -0.1903
   92MOL0     C12060   7.313   3.670   6.242 -0.5679 -0.2071  0.1828
   92MOL0     C12061   7.425   3.748   6.263 -0.4644  0.1726 -0.1179
   92MOL0     N12062   7.697   4.351   6.590 -1.1929  0.0262 -0.0704
   92MOL0     N12063   7.733   4.380   6.705 -0.7229  0.1925  0.5445
   92MOL0     C12064   8.710   4.965   7.165 -0.0937  0.1950 -0.4751
   92MOL0     C12065   8.813   5.034   7.231  0.8984  0.1784  0.6368
   92MOL0     C12066   9.278   5.163   7.251 -0.2931 -0.7520 -0.6632
   92MOL0     C12067   9.249   5.285   7.321 -0.6889 -0.4916 -0.0618
   92MOL0     C12068   9.358   5.375   7.338 -0.9039 -0.2927 -0.6775
   92MOL0     C12069   9.489   5.340   7.302 -0.0165 -0.3163  0.1239
   92MOL0     O12070   9.585   5.426   7.343  0.8085 -0.4907  0.8243
   92MOL0     C12071   9.728   5.388   7.335 -0.5471 -0.3928  0.4801
   92MOL0     C12072   9.769   5.342   7.474  0.3183 -0.5201  0.7164
   92MOL0     C12073   9.719   5.414   7.602  0.4466  0.3229 -0.0752
   92MOL0     C12074   9.740   5.566   7.603  0.4533  0.4890  0.2147
   92MOL0     C12075   9.875   5.590   7.638 -0.1397 -0.1070 -0.0800
   92MOL0     C12076   9.982   5.625   7.664  0.9908  0.5123 -0.3653
   92MOL0     C12077   9.507   5.228   7.231  0.1884  0.9427 -0.3892
   92MOL0     C12078   9.405   5.138   7.205 -0.4725 -0.5532 -0.3143
   92MOL0     H12079   9.043   5.013   6.979  0.1407  2.5209 -0.2209
   92MOL0     H12080   8.843   4.928   6.858 -2.5596  3.7241 -1.7563
   92MOL0     H12081   8.478   5.048   7.021  2.7758 -0.5526  0.9996
   92MOL0     H12082   8.474   4.878   7.090  0.5800 -1.2573 -0.3355
   92MOL0     H12083   8.415   4.802   6.866 -0.7017  0.4003 -2.9208
   92MOL0     H12084   8.344   4.960   6.835 -1.7825 -1.5307 -1.3492
   92MOL0     H12085   8.179   4.926   7.032  0.4246  2.8376 -2.3763
   92MOL0     H12086   8.271   4.774   7.074  0.0855  1.1639  0.5065
   92MOL0     H12087   8.134   4.830   6.817  1.5801  0.3036 -0.0705
   92MOL0     H12088   8.224   4.685   6.857 -3.4954 -0.9427 -2.8954
   92MOL0     H12089   7.952   4.756   6.964 -0.9797 -1.0690  1.0563
   92MOL0     H12090   8.052   4.646   7.067  0.4250 -1.5531 -0.1752
   92MOL0     H12091   8.085   4.512   6.860  0.7507  1.4643 -0.9765
   92MOL0     H12092   7.953   4.609   6.785  2.3523  1.1111 -0.2859
   92MOL0     H12093   7.941   4.458   7.056 -0.6046 -0.9407  0.4856
   92MOL0     H12094   7.805   4.504   6.950  0.5978  0.3668  1.7558
   92MOL0     H12095   7.849   4.249   6.941 -1.0123 -0.4579  0.0953
   92MOL0     H12096   8.015   4.285   6.880 -0.3404  0.3453  1.3990
   92MOL0     H12097   8.003   4.227   6.606 -1.1158 -1.8647 -0.5790
   92MOL0     H12098   7.904   4.230   6.353  0.5768 -2.8124  1.7200
   92MOL0     H12099   7.718   4.253   6.343 -0.1209  1.5518 -0.5019
   92MOL0     H12100   7.704   4.032   6.463  1.6315 -1.9195  0.9425
   92MOL0     H12101   7.877   4.041   6.475 -1.2403 -2.8310  0.0532
   92MOL0     H12102   7.786   4.056   6.185 -0.3327 -1.9586 -1.6543
   92MOL0     H12103   7.898   3.939   6.249 -0.3090  0.7027 -1.8160
   92MOL0     H12104   7.692   3.810   6.336 -2.5008 -0.0002 -1.0067
   92MOL0     H12105   7.711   3.827   6.165  1.9519 -0.6812  0.3890
   92MOL0     H12106   7.341   4.030   6.095 -0.6622  1.5383  0.9082
   92MOL0     H12107   7.150   3.891   6.050  0.7314  1.3264 -1.0643
   92MOL0     H12108   6.842   3.504   6.247 -1.0883 -0.4319 -0.8007
   92MOL0     H12109   6.609   3.440   6.238 -0.7542 -0.2798 -1.8703
   92MOL0     H12110   6.407   3.506   6.339  0.6801  0.7571  0.4302
   92MOL0     H12111   6.369   3.410   6.201 -0.1937  0.5057 -1.3111
   92MOL0     H12112   6.204   3.612   6.339  2.7438  1.7700 -1.0292
   92MOL0     H12113   6.160   3.443   6.296  2.1293 -1.9953  0.1702
   92MOL0     H12114   6.190   3.535   6.049  1.0907  0.6039  0.2155
   92MOL0     H12115   6.144   3.689   6.124 -2.3674 -0.0334  0.4209
   92MOL0     H12116   5.947   3.567   6.038 -2.3421 -1.8482  0.2328
   92MOL0     H12117   5.967   3.443   6.164 -0.3221  1.0068  1.7762
   92MOL0     H12118   5.895   3.739   6.209 -0.9727  0.6562  2.3786
   92MOL0     H12119   5.970   3.634   6.336  0.8118  0.1072 -0.1412
   92MOL0     H12120   5.745   3.634   6.373  0.4279 -0.0329  0.2737
   92MOL0     H12121   5.779   3.481   6.280  0.8300  0.1024 -0.3991
   92MOL0     H12122   5.654   3.717   6.152  0.2481  0.1629 -1.4415
   92MOL0     H12123   5.685   3.559   6.079  0.4714  0.2043  0.4793
   92MOL0     H12124   5.531   3.603   6.343  0.8001 -1.5915  2.0923
   92MOL0     H12125   5.558   3.451   6.263  1.3913  1.1433 -1.2886
   92MOL0     H12126   6.531   3.821   6.048  1.8085  2.4916  1.4641
   92MOL0     H12127   6.780   3.855   6.028  2.4613 -0.8249  1.7421
   92MOL0     H12128   7.294   3.570   6.279  0.7375 -0.0792  1.2381
   92MOL0     H12129   7.505   3.708   6.324 -0.0912  2.6530  1.1281
   92MOL0     H12130   8.626   4.936   7.227 -0.8201 -0.4695 -1.7228
   92MOL0     H12131   8.810   5.056   7.338  1.6388 -0.4265  0.7917
   92MOL0     H12132   9.151   5.312   7.360 -0.9640  0.0127 -1.0824
   92MOL0     H12133   9.350   5.476   7.376  0.5043 -1.2683  2.5586
   92MOL0     H12134   9.801   5.468   7.320  0.3953 -1.5766 -1.5125
   92MOL0     H12135   9.751   5.315   7.257 -0.7724  0.1345 -0.0875
   92MOL0     H12136   9.722   5.243   7.481  0.4376 -0.5483  1.1335
   92MOL0     H12137   9.877   5.328   7.482  0.0180 -2.6297  2.1993
   92MOL0     H12138   9.772   5.372   7.688  0.9156  1.6000  0.2792
   92MOL0     H12139   9.614   5.384   7.614  0.7399 -0.8352 -0.2303
   92MOL0     H12140   9.711   5.604   7.504 -2.3554 -0.3320  0.6177
   92MOL0     H12141   9.668   5.615   7.670  2.5182 -0.2263  3.1564
   92MOL0     H12142  10.082   5.662   7.676  1.0073  0.0037  1.2635
   92MOL0     H12143   9.601   5.196   7.187  0.5758  0.6278  0.6472
   92MOL0     H12144   9.416   5.053   7.139 -1.9740 -0.9213 -0.1358
   93MOL0     O12145   1.642   6.853  10.244  0.0664 -0.3524  0.8933
   93MOL0     C12146   1.761   6.839  10.284 -1.1017 -0.3414 -0.6261
   93MOL0     O12147   1.799   6.849  10.418 -1.2692  0.3430  0.4119
   93MOL0     C12148   1.696   6.893  10.500 -0.6768 -0.3623  0.2926
   93MOL0     C12149   1.690   7.028  10.544 -0.3821 -0.6888 -0.3092
   93MOL0     C12150   1.594   7.064  10.630 -0.0011 -0.3537 -0.0225
   93MOL0     C12151   1.493   6.975  10.680  1.1035 -0.1362 -0.3307
   93MOL0     O12152   1.392   7.025  10.759  0.3456 -0.3392  0.0750
   93MOL0     C12153   1.313   6.931  10.841 -0.2160 -1.1473 -0.5404
   93MOL0     C12154   1.217   7.018  10.916  0.0756 -0.7043  0.0537
   93MOL0     C12155   1.108   6.943  10.990 -0.9096  1.0376 -0.7683
   93MOL0     C12156   1.015   7.038  11.073 -1.1491 -1.1746 -0.4299
   93MOL0     C12157   0.898   6.965  11.143  0.1391  0.3017  0.0735
   93MOL0     C12158   0.817   7.060  11.234  0.2462  0.6270 -0.7103
   93MOL0     C12159   0.722   7.151  11.165 -1.0813 -0.6421 -1.3431
   93MOL0     C12160   0.598   7.095  11.109 -0.1370 -0.9202 -0.1362
   93MOL0     N12161   0.499   7.070  11.214  0.2703  0.7425  0.1192
   93MOL0     C12162   0.385   7.142  11.225 -0.0824 -0.5646 -0.8433
   93MOL0     C12163   0.317   7.091  11.327  0.1652 -0.4469 -0.3262
   93MOL0     C12164   0.198   7.135  11.401 -0.0032  0.2341  0.2053
   93MOL0     C12165   0.085   7.031  11.390 -0.0132 -0.5180  0.7315
   93MOL0     C12166   0.042   7.003  11.244  0.1493 -0.3903 -0.1915
   93MOL0     C12167  -0.081   6.923  11.237  0.1936  0.4949  0.7708
   93MOL0     O12168  -0.199   6.994  11.279 -0.1331 -0.0019 -0.4839
   93MOL0     C12169  -0.302   6.925  11.344 -0.1212 -0.5398  0.0352
   93MOL0     C12170  -0.331   6.791  11.322  0.2126 -0.2725  0.3540
   93MOL0     C12171  -0.443   6.736  11.389 -0.3092  0.4653  0.8237
   93MOL0     C12172  -0.525   6.810  11.467 -0.1646 -1.4770 -0.5896
   93MOL0     C12173  -0.644   6.762  11.533 -0.1664  0.5739 -0.3048
   93MOL0     O12174  -0.678   6.639  11.487  0.0695 -0.4235 -0.3069
   93MOL0     C12175  -0.803   6.586  11.517 -0.0706  0.1539 -0.1523
   93MOL0     C12176  -0.929   6.651  11.505  0.2678  0.4475 -0.5542
   93MOL0     C12177  -1.051   6.585  11.525 -0.0717 -0.8179 -0.0818
   93MOL0     C12178  -1.058   6.448  11.562 -0.4470  0.4520  0.1797
   93MOL0     O12179  -1.171   6.361  11.563 -0.1569 -0.1952 -0.4629
   93MOL0     C12180  -1.296   6.420  11.512 -0.3188  0.1705 -0.3738
   93MOL0     C12181  -1.304   6.446  11.362 -0.1790 -0.1021 -0.0487
   93MOL0     C12182  -1.269   6.328  11.276 -0.3471 -0.0923 -0.3536
   93MOL0     C12183  -1.235   6.373  11.137  0.1692 -0.3938  0.1061
   93MOL0     C12184  -1.367   6.392  11.054 -0.7103  0.4785  0.0005
   93MOL0     C12185  -1.311   6.404  10.907  0.8222 -0.2790  0.4029
   93MOL0     C12186  -1.419   6.435  10.805  0.2006  0.3366 -0.2973
   93MOL0     C12187  -1.366   6.434  10.661 -0.4240 -0.1082  0.5142
   93MOL0    Cl12188  -1.496   6.486  10.543  0.1866 -0.0835 -0.1454
   93MOL0     C12189  -0.937   6.383  11.576  0.3196  0.1280  0.1231
   93MOL0     C12190  -0.815   6.449  11.546  0.0723 -0.0219 -0.0344
   93MOL0     O12191  -0.705   6.824  11.624 -0.1297 -0.4853  0.0994
   93MOL0     C12192  -0.490   6.941  11.491  0.0010 -0.9020 -0.5743
   93MOL0     C12193  -0.382   6.996  11.425 -0.1454 -0.9110 -0.1298
   93MOL0     N12194   0.395   6.986  11.377 -0.0344  0.4583 -0.6367
   93MOL0     N12195   0.493   6.962  11.305 -0.9645  0.0169  0.2312
   93MOL0     C12196   1.503   6.842  10.636  0.0926  1.2032  0.5799
   93MOL0     C12197   1.603   6.799  10.547  0.4451 -0.4058  0.9056
   93MOL0     C12198   1.853   6.770  10.191  0.8075 -0.0822  0.3907
   93MOL0     C12199   1.806   6.715  10.064 -0.2538  0.5243 -0.7159
   93MOL0     C12200   1.890   6.649   9.984  0.1943  0.6290  0.2790
   93MOL0     C12201   2.022   6.646  10.005 -0.8275  0.3163  0.4498
   93MOL0     O12202   2.097   6.573   9.920  1.0723  0.3692  0.3241
   93MOL0     C12203   2.235   6.595   9.919 -0.0426  0.5204 -0.8477
   93MOL0     C12204   2.306   6.502   9.818  0.2335 -0.0800  0.3460
   93MOL0     C12205   2.253   6.525   9.672 -0.8487  0.0891 -0.1580
   93MOL0     C12206   2.345   6.454   9.567 -0.3291 -0.0871  0.4339
   93MOL0     C12207   2.316   6.310   9.569  0.6086 -0.0854  0.2477
   93MOL0     C12208   2.279   6.199   9.566  0.2300  0.7693 -0.7460
   93MOL0     C12209   2.066   6.694  10.131  0.0378  0.3882 -0.1391
   93MOL0     C12210   1.987   6.757  10.223  0.1826 -0.9895  0.9082
   93MOL0     H12211   1.769   7.100  10.525  0.5970 -0.6443  3.3230
   93MOL0     H12212   1.598   7.169  10.656 -2.2336 -0.1485 -0.2708
   93MOL0     H12213   1.366   6.877  10.920 -1.2437 -0.7500  0.4520
   93MOL0     H12214   1.267   6.865  10.767  0.0670 -0.2862 -1.5002
   93MOL0     H12215   1.169   7.085  10.844  1.1319 -0.7615 -0.7453
   93MOL0     H12216   1.274   7.069  10.994  1.4823 -2.6245  0.3592
   93MOL0     H12217   1.154   6.867  11.054 -0.7656  0.9268 -1.0006
   93MOL0     H12218   1.048   6.875  10.928  0.0966 -3.0266  2.2971
   93MOL0     H12219   1.081   7.094  11.140  1.7411  0.8061 -4.5119
   93MOL0     H12220   0.973   7.113  11.005 -2.1547  0.0285  1.4249
   93MOL0     H12221   0.930   6.877  11.200 -1.1765  0.2174  0.7321
   93MOL0     H12222   0.830   6.929  11.065 -0.2432 -0.1525  0.6033
   93MOL0     H12223   0.880   7.113  11.307 -1.8823  1.6230  0.5079
   93MOL0     H12224   0.756   6.992  11.294  0.6369  0.3209 -0.6575
   93MOL0     H12225   0.705   7.224  11.245 -1.7099 -0.1751 -1.8950
   93MOL0     H12226   0.779   7.197  11.083 -2.6801 -0.9710 -2.6816
   93MOL0     H12227   0.620   7.011  11.042 -0.1457 -0.2815 -0.9520
   93MOL0     H12228   0.554   7.167  11.039  0.0954 -1.2087 -0.5843
   93MOL0     H12229   0.360   7.228  11.163  0.3445  1.8369  2.0789
   93MOL0     H12230   0.160   7.229  11.361 -1.8386 -0.3810  0.3763
   93MOL0     H12231   0.226   7.143  11.506  0.6308  1.7000 -0.0518
   93MOL0     H12232  -0.001   7.078  11.437  2.2617  0.2615  4.4766
   93MOL0     H12233   0.110   6.938  11.442  2.0172  0.8393  2.3714
   93MOL0     H12234   0.028   7.095  11.187 -0.0142 -0.8737 -0.9436
   93MOL0     H12235   0.128   6.955  11.197  1.1566 -0.3081  1.4763
   93MOL0     H12236  -0.058   6.838  11.303  0.4785 -0.5081 -0.5655
   93MOL0     H12237  -0.098   6.882  11.137 -0.9848  1.9996  0.3139
   93MOL0     H12238  -0.265   6.729  11.263 -3.1583 -0.9329 -3.1305
   93MOL0     H12239  -0.455   6.630  11.372 -0.6974  0.6542 -0.1244
   93MOL0     H12240  -0.929   6.756  11.477  2.9671  0.9944  1.1489
   93MOL0     H12241  -1.131   6.650  11.492  1.9165  1.1767 -1.2531
   93MOL0     H12242  -1.315   6.513  11.566  0.2742  0.2222 -0.2537
   93MOL0     H12243  -1.369   6.343  11.540 -1.9693  1.7957 -0.0563
   93MOL0     H12244  -1.249   6.536  11.333  0.9831 -0.3191  1.4107
   93MOL0     H12245  -1.411   6.465  11.345 -0.0130 -0.4861 -1.6627
   93MOL0     H12246  -1.352   6.257  11.265 -1.4646  1.1673 -0.3407
   93MOL0     H12247  -1.178   6.284  11.317  2.5692  0.8584 -5.0909
   93MOL0     H12248  -1.174   6.463  11.130  0.0048 -0.3382 -0.7615
   93MOL0     H12249  -1.172   6.297  11.090  0.7041 -0.6674  1.2337
   93MOL0     H12250  -1.429   6.478  11.082 -1.9724  1.1260 -4.1032
   93MOL0     H12251  -1.431   6.304  11.056 -0.8037  0.5246  2.3516
   93MOL0     H12252  -1.272   6.309  10.870 -2.6711 -1.6648 -0.1709
   93MOL0     H12253  -1.231   6.478  10.899  1.5673 -1.0913  0.2509
   93MOL0     H12254  -1.488   6.351  10.814  1.3041 -0.8805 -2.4365
   93MOL0     H12255  -1.465   6.532  10.826  3.0951  1.7160  0.2483
   93MOL0     H12256  -1.336   6.331  10.643 -0.6204 -0.4724  2.1390
   93MOL0     H12257  -1.277   6.497  10.647 -0.6531  0.1759  0.3105
   93MOL0     H12258  -0.945   6.276  11.593  0.2565 -0.4950 -3.1699
   93MOL0     H12259  -0.730   6.381  11.546 -0.6916 -0.9976  0.1733
   93MOL0     H12260  -0.537   7.014  11.556 -0.1339 -0.6932 -0.9041
   93MOL0     H12261  -0.349   7.099  11.439  1.3559 -1.1493 -1.5179
   93MOL0     H12262   1.441   6.759  10.669 -1.2613  2.8293  2.2640
   93MOL0     H12263   1.605   6.696  10.515 -1.5757 -0.8026  1.8704
   93MOL0     H12264   1.702   6.727  10.037 -1.1641 -0.2947  2.0921
   93MOL0     H12265   1.841   6.605   9.897 -2.0577  1.2208  1.1665
   93MOL0     H12266   2.283   6.576  10.015  1.6397  3.6730 -0.9373
   93MOL0     H12267   2.262   6.699   9.902 -0.5005  0.5300 -1.5702
   93MOL0     H12268   2.413   6.524   9.824  0.6303 -0.9258 -2.4673
   93MOL0     H12269   2.294   6.398   9.848 -0.6478  0.1325  0.7718
   93MOL0     H12270   2.244   6.631   9.644 -1.0064 -0.2834 -1.5978
   93MOL0     H12271   2.152   6.488   9.650 -0.8793 -0.0814  0.2589
   93MOL0     H12272   2.317   6.502   9.473 -1.9486 -0.4263  0.7118
   93MOL0     H12273   2.452   6.473   9.580 -0.2135  0.8480 -1.6064
   93MOL0     H12274   2.241   6.099   9.567  0.2035  0.7820  0.1360
   93MOL0     H12275   2.172   6.687  10.154 -0.2857  0.9498  1.6527
   93MOL0     H12276   2.037   6.783  10.316  2.9844  1.7082 -1.1123
   94MOL0     O12277   3.787   3.374   4.018  0.4570  0.5691 -0.0231
   94MOL0     C12278   3.828   3.312   3.924  0.5754 -0.2001  0.2906
   94MOL0     O12279   3.761   3.222   3.847  0.3142 -0.1464 -0.0525
   94MOL0     C12280   3.624   3.218   3.857  0.5924  0.2354 -0.3544
   94MOL0     C12281   3.541   3.324   3.817 -0.1401 -0.2906  0.2936
   94MOL0     C12282   3.405   3.315   3.833 -0.1248 -0.2947  0.4170
   94MOL0     C12283   3.340   3.200   3.878  0.2604 -1.4490  0.1598
   94MOL0     O12284   3.200   3.195   3.873 -0.0253 -0.9010  0.0424
   94MOL0     C12285   3.150   3.115   3.979  0.4155  1.0473 -0.3746
   94MOL0     C12286   3.006   3.162   4.009  1.0605 -0.1871 -0.2996
   94MOL0     C12287   2.978   3.127   4.153 -0.1189 -0.0443  0.1592
   94MOL0     C12288   2.974   2.973   4.157  0.3677  0.0693 -0.4035
   94MOL0     C12289   2.922   2.909   4.286 -0.5023  0.3724 -0.1942
   94MOL0     C12290   2.801   2.977   4.356  0.0010  0.0829  0.2769
   94MOL0     C12291   2.669   2.961   4.282  0.8966  0.1919 -0.7954
   94MOL0     C12292   2.556   3.026   4.358  0.2050  0.1820 -0.8190
   94MOL0     N12293   2.435   2.936   4.362  0.5605 -0.2203  0.1153
   94MOL0     C12294   2.318   2.962   4.291  0.3461  0.2453  0.6082
   94MOL0     C12295   2.242   2.852   4.316  0.7266 -0.3639  0.1567
   94MOL0     C12296   2.106   2.825   4.272 -0.1863 -0.6314 -0.4448
   94MOL0     C12297   2.048   2.684   4.303 -0.8279  0.1451 -0.1406
   94MOL0     C12298   1.907   2.680   4.245 -0.0257 -0.5535  0.0945
   94MOL0     C12299   1.813   2.574   4.305 -0.2277  0.5351 -0.3461
   94MOL0     O12300   1.684   2.556   4.250 -0.2014 -0.9882  0.2823
   94MOL0     C12301   1.579   2.650   4.250 -0.1043 -0.0213  0.1627
   94MOL0     C12302   1.468   2.621   4.174 -0.5312 -0.5393 -0.1259
   94MOL0     C12303   1.356   2.719   4.168 -1.2038 -0.1502  0.8983
   94MOL0     C12304   1.361   2.842   4.236 -0.3217  0.4180  0.5712
   94MOL0     C12305   1.252   2.941   4.218  0.7536  0.2386 -0.1422
   94MOL0     O12306   1.164   2.917   4.121  0.3211  0.2716  0.5763
   94MOL0     C12307   1.071   3.003   4.065  0.0370  0.3764  0.3857
   94MOL0     C12308   0.985   2.942   3.977 -0.2338 -0.4754 -0.0302
   94MOL0     C12309   0.890   3.009   3.906 -0.0946  0.0811  0.2242
   94MOL0     C12310   0.880   3.148   3.920  0.2028 -0.5962  0.6971
   94MOL0     O12311   0.790   3.209   3.834 -0.4362  0.2706 -0.5039
   94MOL0     C12312   0.804   3.354   3.817 -0.4997  0.2644 -0.0084
   94MOL0     C12313   0.728   3.406   3.690  0.4052  0.3234 -0.1248
   94MOL0     C12314   0.601   3.330   3.652  0.5219 -0.1621  0.2906
   94MOL0     C12315   0.544   3.398   3.529  0.6935  0.2995  0.4845
   94MOL0     C12316   0.405   3.332   3.492 -0.2774  0.3230 -0.4428
   94MOL0     C12317   0.295   3.398   3.578 -0.1566 -0.7452  0.6058
   94MOL0     C12318   0.251   3.529   3.512 -0.8263 -0.2812  0.2668
   94MOL0     C12319   0.129   3.600   3.567 -0.5530 -0.5633  0.2294
   94MOL0    Cl12320   0.087   3.712   3.445  0.0433  0.3430  0.2687
   94MOL0     C12321   0.958   3.215   4.018 -0.5962  0.0321 -0.1832
   94MOL0     C12322   1.055   3.147   4.094 -0.0080  0.5131  0.6517
   94MOL0     O12323   1.261   3.038   4.287  0.4858  0.3353  1.1797
   94MOL0     C12324   1.479   2.863   4.319 -0.1459 -0.9231 -0.2855
   94MOL0     C12325   1.579   2.772   4.327 -1.0251  0.8640 -0.1111
   94MOL0     N12326   2.315   2.766   4.396  0.1550 -0.4085  0.1230
   94MOL0     N12327   2.436   2.817   4.417 -0.9989 -0.3477 -0.5345
   94MOL0     C12328   3.426   3.094   3.921  0.2654 -0.7981 -0.0108
   94MOL0     C12329   3.566   3.107   3.917  0.1315  0.2567  0.2450
   94MOL0     C12330   3.972   3.335   3.901 -1.7153  0.0190  0.3543
   94MOL0     C12331   4.064   3.236   3.866  0.5100  0.9526 -0.6908
   94MOL0     C12332   4.200   3.257   3.848 -0.7375  1.0767 -0.0355
   94MOL0     C12333   4.258   3.386   3.864 -0.4099 -0.0240  0.7545
   94MOL0     O12334   4.390   3.415   3.841  0.1709  0.0457  0.1064
   94MOL0     C12335   4.484   3.308   3.811 -0.5356 -0.6818  0.1316
   94MOL0     C12336   4.626   3.359   3.789  0.5954 -0.1564 -0.1390
   94MOL0     C12337   4.708   3.256   3.714  0.0742  0.3731  0.6571
   94MOL0     C12338   4.855   3.305   3.711  0.3931 -0.5126 -0.0145
   94MOL0     C12339   4.883   3.415   3.621  0.8450  0.2669 -0.0852
   94MOL0     C12340   4.908   3.510   3.550  0.9184  0.2182 -0.1329
   94MOL0     C12341   4.175   3.490   3.900  0.0779 -1.3241 -0.3493
   94MOL0     C12342   4.035   3.468   3.917 -0.1314  0.1282  0.1796
   94MOL0     H12343   3.586   3.413   3.776  0.2114  1.0773  3.3376
   94MOL0     H12344   3.337   3.395   3.804  0.8469  0.5636  0.4540
   94MOL0     H12345   3.212   3.116   4.069  0.9210  1.0382 -0.7119
   94MOL0     H12346   3.158   3.014   3.939 -0.7563  0.9295 -0.3327
   94MOL0     H12347   2.933   3.114   3.942  0.5298 -0.1853  0.2730
   94MOL0     H12348   2.992   3.271   4.010 -0.4503 -0.3489 -0.4921
   94MOL0     H12349   2.880   3.169   4.179 -1.5596 -3.2629  0.3773
   94MOL0     H12350   3.052   3.162   4.225 -1.1814 -0.4057  1.4688
   94MOL0     H12351   2.914   2.933   4.075 -1.9008  2.2058  0.1167
   94MOL0     H12352   3.079   2.942   4.150  1.0137  2.1348 -0.4836
   94MOL0     H12353   3.002   2.924   4.359 -1.9665  0.1631  1.5324
   94MOL0     H12354   2.914   2.801   4.271 -3.9114  0.7077 -1.6655
   94MOL0     H12355   2.807   3.084   4.375 -1.5109 -0.0367  1.6400
   94MOL0     H12356   2.790   2.937   4.457  0.6547  2.6885  1.4469
   94MOL0     H12357   2.671   2.989   4.176 -0.1955 -0.0410 -0.8817
   94MOL0     H12358   2.651   2.853   4.279  1.3572  0.1237 -1.1829
   94MOL0     H12359   2.539   3.118   4.301 -0.0166 -0.8285 -2.4360
   94MOL0     H12360   2.600   3.039   4.458 -0.5654 -0.6835 -0.3493
   94MOL0     H12361   2.282   3.035   4.220  1.8037  1.8787  1.4870
   94MOL0     H12362   2.113   2.856   4.167 -0.9968 -0.1452 -0.3666
   94MOL0     H12363   2.043   2.900   4.320 -0.0346  0.2760 -1.6230
   94MOL0     H12364   2.035   2.664   4.410 -2.1179 -0.0906 -0.3262
   94MOL0     H12365   2.111   2.606   4.259  0.8723 -0.3444  2.8392
   94MOL0     H12366   1.854   2.772   4.269 -1.4204 -1.1053 -0.7694
   94MOL0     H12367   1.916   2.664   4.137  0.9874 -2.8771  0.4578
   94MOL0     H12368   1.802   2.590   4.413  1.9081  1.3342 -0.1947
   94MOL0     H12369   1.867   2.480   4.296  3.0609  1.9196  2.5612
   94MOL0     H12370   1.460   2.528   4.118  0.0544 -1.2724  0.9836
   94MOL0     H12371   1.266   2.703   4.110 -3.6406 -1.7116  4.6950
   94MOL0     H12372   0.989   2.837   3.951 -1.0182 -0.0283 -2.1041
   94MOL0     H12373   0.832   2.962   3.828 -0.2686 -3.1050  2.1202
   94MOL0     H12374   0.904   3.396   3.828 -0.6202  0.2748  1.3102
   94MOL0     H12375   0.757   3.397   3.906  1.3797  3.1553 -0.2775
   94MOL0     H12376   0.805   3.397   3.613  0.7546 -1.4070  0.3765
   94MOL0     H12377   0.715   3.514   3.705 -3.5059 -0.0715  0.3401
   94MOL0     H12378   0.531   3.332   3.737  0.5621 -2.2161  0.4231
   94MOL0     H12379   0.612   3.222   3.639  0.1309 -0.3733  1.5569
   94MOL0     H12380   0.543   3.508   3.535 -0.9871  0.2621  1.3997
   94MOL0     H12381   0.615   3.373   3.450 -1.1021 -0.5962 -0.9050
   94MOL0     H12382   0.417   3.229   3.526  1.3014 -0.1983 -2.4019
   94MOL0     H12383   0.371   3.331   3.389  1.2434 -0.9218 -0.9661
   94MOL0     H12384   0.315   3.418   3.684 -0.5681  0.5697  0.4500
   94MOL0     H12385   0.212   3.329   3.594 -1.1719  0.4590  0.7335
   94MOL0     H12386   0.331   3.602   3.526 -1.9950  1.0583  0.1778
   94MOL0     H12387   0.238   3.510   3.405  0.1773  3.2042 -0.5987
   94MOL0     H12388   0.164   3.644   3.661  0.1346 -0.3628 -0.1136
   94MOL0     H12389   0.045   3.536   3.596 -0.6590  0.1133  1.5062
   94MOL0     H12390   0.951   3.320   4.042  0.2442  0.1925 -0.6043
   94MOL0     H12391   1.127   3.193   4.161 -1.0713  1.9916  0.8370
   94MOL0     H12392   1.482   2.958   4.371 -2.2204 -1.7839  1.5223
   94MOL0     H12393   1.660   2.788   4.398  0.1703 -4.3217  0.0691
   94MOL0     H12394   3.397   2.996   3.958  2.3044 -1.0348  1.1389
   94MOL0     H12395   3.622   3.018   3.945 -0.5576 -0.0693  0.5861
   94MOL0     H12396   4.019   3.138   3.849 -3.7782  2.5486  0.2193
   94MOL0     H12397   4.257   3.175   3.803  0.0640  1.2316  0.6786
   94MOL0     H12398   4.463   3.249   3.721  1.3099  1.4311 -1.8116
   94MOL0     H12399   4.477   3.243   3.899 -3.6021 -0.2779  0.2853
   94MOL0     H12400   4.617   3.452   3.732  0.3122  0.7945  1.4099
   94MOL0     H12401   4.661   3.390   3.888 -2.9845  2.8789  0.4008
   94MOL0     H12402   4.670   3.255   3.612  0.9312 -0.9799  0.3368
   94MOL0     H12403   4.702   3.156   3.758 -0.0748  0.1713  0.1762
   94MOL0     H12404   4.891   3.319   3.813 -1.2663  1.4096  0.3707
   94MOL0     H12405   4.912   3.217   3.680  1.0695  0.1822 -0.8079
   94MOL0     H12406   4.934   3.582   3.476  2.6251 -2.0127 -1.8431
   94MOL0     H12407   4.199   3.594   3.919 -0.1244 -1.2118 -0.6873
   94MOL0     H12408   3.968   3.552   3.932 -2.0015 -0.5876 -3.2139
   95MOL0     O12409  10.694  10.083   6.231 -0.7107 -0.8213  0.3146
   95MOL0     C12410  10.698  10.037   6.118 -0.1982  0.4123 -0.5728
   95MOL0     O12411  10.590  10.019   6.033 -0.5623  0.4935 -0.3964
   95MOL0     C12412  10.471  10.092   6.074 -0.5750  0.6192 -0.3389
   95MOL0     C12413  10.357  10.014   6.100 -0.6024  0.4474 -0.2443
   95MOL0     C12414  10.237  10.077   6.137 -0.6605  0.1897  0.7344
   95MOL0     C12415  10.237  10.218   6.130 -0.0667  0.0106 -0.9004
   95MOL0     O12416  10.130  10.299   6.160 -0.2763 -0.2096 -0.0221
   95MOL0     C12417   9.997  10.250   6.177 -0.8552  0.2670 -0.8667
   95MOL0     C12418   9.911  10.369   6.224 -0.1478  0.0283 -0.0371
   95MOL0     C12419   9.904  10.481   6.112  0.1065  0.5765 -0.8628
   95MOL0     C12420   9.843  10.439   5.982  0.3899  0.1096 -0.0482
   95MOL0     C12421   9.753  10.550   5.923  0.2771  0.0783  0.8925
   95MOL0     C12422   9.719  10.528   5.779 -0.1023  0.1608  0.3733
   95MOL0     C12423   9.630  10.628   5.714 -0.2063 -0.0497 -0.0198
   95MOL0     C12424   9.642  10.635   5.560 -0.4797  0.4559 -0.7893
   95MOL0     N12425   9.667  10.509   5.491 -0.3781 -0.3345  0.0770
   95MOL0     C12426   9.568  10.417   5.465 -0.4232 -0.0135  0.2973
   95MOL0     C12427   9.633  10.331   5.384 -0.2014 -1.1423  0.0470
   95MOL0     C12428   9.566  10.202   5.333 -0.3551 -0.1758 -0.6868
   95MOL0     C12429   9.570  10.204   5.176  0.3151  0.4068 -0.2057
   95MOL0     C12430   9.581  10.058   5.129 -0.4526  1.5128  0.1182
   95MOL0     C12431   9.436   9.997   5.099 -0.0709 -0.4723 -0.3271
   95MOL0     O12432   9.367   9.954   5.218 -0.1615  0.4869  0.0828
   95MOL0     C12433   9.245   9.894   5.201  0.0136 -0.2617 -0.4822
   95MOL0     C12434   9.194   9.840   5.324 -0.0912  0.3044 -0.2314
   95MOL0     C12435   9.068   9.772   5.315 -0.4605 -0.9811 -0.8412
   95MOL0     C12436   8.989   9.757   5.196 -0.2255 -0.1303  0.7339
   95MOL0     C12437   8.855   9.695   5.185  0.4372 -0.1797  1.0200
   95MOL0     O12438   8.815   9.635   5.294  0.3167 -0.4622 -0.3356
   95MOL0     C12439   8.680   9.623   5.333  0.3468  0.5593  0.8957
   95MOL0     C12440   8.576   9.706   5.293  0.3921 -0.0440 -0.8894
   95MOL0     C12441   8.449   9.699   5.356 -0.1130  0.8793  0.0671
   95MOL0     C12442   8.422   9.611   5.456  0.1902 -0.5782  0.1814
   95MOL0     O12443   8.298   9.590   5.517 -0.3385 -0.1541 -0.2421
   95MOL0     C12444   8.181   9.637   5.449  0.6307 -0.1374  0.6318
   95MOL0     C12445   8.065   9.596   5.544  0.4364  0.2406  0.0366
   95MOL0     C12446   7.939   9.622   5.454 -0.3028 -0.0790  0.0953
   95MOL0     C12447   7.810   9.567   5.521  0.3356 -0.3652 -0.1272
   95MOL0     C12448   7.686   9.628   5.468 -0.5812  1.1649  0.7011
   95MOL0     C12449   7.571   9.579   5.559  0.2484 -0.2096 -0.6742
   95MOL0     C12450   7.443   9.665   5.528 -1.2075 -0.2767 -0.4036
   95MOL0     C12451   7.309   9.614   5.596 -0.4015  0.0495  0.0085
   95MOL0    Cl12452   7.314   9.642   5.770 -0.0554  0.2602 -0.0642
   95MOL0     C12453   8.523   9.523   5.489 -0.0140 -0.1231 -0.1724
   95MOL0     C12454   8.656   9.533   5.437  0.5728  0.3561 -0.0414
   95MOL0     O12455   8.787   9.701   5.081 -0.0136 -0.1906 -0.2359
   95MOL0     C12456   9.038   9.821   5.084 -0.4999  0.6750 -0.1961
   95MOL0     C12457   9.169   9.881   5.086  0.2842 -0.8295 -0.0238
   95MOL0     N12458   9.758  10.380   5.358 -0.6913  0.9050  0.0856
   95MOL0     N12459   9.781  10.483   5.418 -0.4240 -0.5078 -0.3634
   95MOL0     C12460  10.356  10.292   6.108 -0.0472  0.3321 -0.2124
   95MOL0     C12461  10.474  10.227   6.091  0.6025  0.6292  0.3968
   95MOL0     C12462  10.835  10.030   6.056  0.8259  0.0177  0.4880
   95MOL0     C12463  10.849  10.058   5.926  0.2345 -0.3779  0.3889
   95MOL0     C12464  10.974  10.047   5.860 -0.2373  0.4671  0.1920
   95MOL0     C12465  11.086  10.010   5.930 -0.9802  0.2632 -0.1824
   95MOL0     O12466  11.217  10.002   5.881  0.0110 -0.2457  0.6552
   95MOL0     C12467  11.238   9.999   5.735 -0.7985 -0.0159 -0.6413
   95MOL0     C12468  11.256  10.131   5.659  0.2329 -0.5303 -0.5175
   95MOL0     C12469  11.324  10.254   5.725  0.2888  0.3846 -0.2516
   95MOL0     C12470  11.472  10.240   5.754  0.1433  0.3954  0.8533
   95MOL0     C12471  11.542  10.241   5.623  0.8209  0.0805 -0.7690
   95MOL0     C12472  11.607  10.240   5.520  0.0584 -0.1110 -0.7359
   95MOL0     C12473  11.064   9.976   6.067 -0.3598  0.1208  0.2691
   95MOL0     C12474  10.943   9.993   6.126  0.0009 -0.5668  0.7157
   95MOL0     H12475  10.378   9.908   6.094  1.3400  0.7296  0.8934
   95MOL0     H12476  10.150  10.013   6.150 -0.9805  0.3010 -0.6889
   95MOL0     H12477  10.000  10.183   6.263 -1.4621  1.2533 -0.0504
   95MOL0     H12478   9.954  10.216   6.082  0.0613 -0.2633 -1.1074
   95MOL0     H12479   9.951  10.411   6.317 -0.4865  1.0273 -0.3352
   95MOL0     H12480   9.811  10.331   6.246 -0.1317 -4.5377 -5.4884
   95MOL0     H12481  10.001  10.530   6.096  0.2023  1.3143  1.5413
   95MOL0     H12482   9.849  10.566   6.152  1.0329  0.9667 -0.3886
   95MOL0     H12483   9.918  10.420   5.904 -1.1480 -0.4808 -1.4502
   95MOL0     H12484   9.783  10.348   5.987  1.2566 -0.6362 -2.0319
   95MOL0     H12485   9.803  10.646   5.937  1.3823 -0.6553  2.0993
   95MOL0     H12486   9.657  10.541   5.974 -0.8517 -2.1174 -1.3852
   95MOL0     H12487   9.667  10.432   5.771 -2.5229  1.4521 -0.1540
   95MOL0     H12488   9.803  10.534   5.710 -0.8222 -1.5240 -0.7176
   95MOL0     H12489   9.524  10.604   5.731 -0.0766 -0.1222  0.7338
   95MOL0     H12490   9.642  10.722   5.770 -1.8582 -1.3543  2.7515
   95MOL0     H12491   9.730  10.699   5.547  0.1524 -0.4790 -1.2605
   95MOL0     H12492   9.561  10.691   5.513  2.4316  3.3564 -2.8227
   95MOL0     H12493   9.463  10.412   5.489 -0.8158  3.0180 -0.3841
   95MOL0     H12494   9.465  10.196   5.373  0.8985 -2.2928  2.6190
   95MOL0     H12495   9.622  10.120   5.378  1.4808  2.2876  1.9462
   95MOL0     H12496   9.661  10.246   5.131  0.6039  0.6116  0.5685
   95MOL0     H12497   9.476  10.247   5.142 -0.9262 -2.0067 -0.0769
   95MOL0     H12498   9.641  10.057   5.038 -0.1803 -3.1518  0.1079
   95MOL0     H12499   9.630   9.988   5.198 -3.4145 -3.6853 -2.4296
   95MOL0     H12500   9.450   9.907   5.039 -1.9096 -2.4753  2.0422
   95MOL0     H12501   9.370  10.069   5.049  1.6172  0.3786 -1.4609
   95MOL0     H12502   9.247   9.848   5.418 -0.4637 -1.7125  0.1935
   95MOL0     H12503   9.023   9.734   5.406 -1.9321  2.9779  0.2965
   95MOL0     H12504   8.605   9.780   5.219  3.1028  1.4505  1.4947
   95MOL0     H12505   8.370   9.764   5.319 -0.7700  0.7347  1.1734
   95MOL0     H12506   8.184   9.590   5.350  2.5532 -3.9503  2.2878
   95MOL0     H12507   8.187   9.746   5.457  3.3407 -0.2611  1.2973
   95MOL0     H12508   8.073   9.657   5.635  0.3576 -2.8291  2.2723
   95MOL0     H12509   8.079   9.491   5.573  3.7968  0.9296  1.4970
   95MOL0     H12510   7.952   9.568   5.360  1.8966  1.2885 -0.4464
   95MOL0     H12511   7.925   9.728   5.431 -1.0503 -0.5469 -1.7686
   95MOL0     H12512   7.801   9.459   5.505 -0.8492 -0.2673 -0.1987
   95MOL0     H12513   7.800   9.585   5.628 -1.1114 -0.2050 -0.2756
   95MOL0     H12514   7.669   9.601   5.363  0.2704 -0.7013  0.9897
   95MOL0     H12515   7.700   9.736   5.478 -0.1817  1.4407 -1.9011
   95MOL0     H12516   7.600   9.585   5.665  0.9769  0.3948 -0.8956
   95MOL0     H12517   7.542   9.476   5.538 -0.7432  0.1854 -1.2944
   95MOL0     H12518   7.462   9.771   5.548  0.2616 -0.5355 -0.3651
   95MOL0     H12519   7.426   9.666   5.420 -0.6824  1.7657 -0.5116
   95MOL0     H12520   7.295   9.511   5.563  1.2346 -0.5212  1.0016
   95MOL0     H12521   7.222   9.677   5.573 -1.3570 -0.3241  2.3074
   95MOL0     H12522   8.500   9.454   5.570  2.7414  0.1721  0.9694
   95MOL0     H12523   8.729   9.462   5.475 -0.0855 -0.6705 -0.6394
   95MOL0     H12524   8.985   9.826   4.989 -0.1089  1.9153 -0.3593
   95MOL0     H12525   9.205   9.939   5.001  0.3485 -2.1268 -0.8999
   95MOL0     H12526  10.341  10.400   6.104  2.0066  0.6536 -0.3373
   95MOL0     H12527  10.569  10.279   6.078  2.2330 -2.1650  0.1367
   95MOL0     H12528  10.773  10.100   5.861  0.9416  2.9366  1.5127
   95MOL0     H12529  10.988  10.077   5.756  0.4927  1.0656  0.4597
   95MOL0     H12530  11.163   9.940   5.681  0.7195 -1.4066 -1.3180
   95MOL0     H12531  11.335   9.953   5.713  0.5052  0.4063  3.3904
   95MOL0     H12532  11.318  10.114   5.571  1.6518  2.9922 -0.3890
   95MOL0     H12533  11.160  10.155   5.613 -1.4754 -1.7179  2.1426
   95MOL0     H12534  11.261  10.276   5.812 -0.9734  1.4236 -1.3989
   95MOL0     H12535  11.311  10.335   5.653  0.9389 -1.9618 -3.1848
   95MOL0     H12536  11.503  10.323   5.819 -0.1493 -1.3941  3.4500
   95MOL0     H12537  11.482  10.150   5.815  2.0291 -1.7304 -2.3373
   95MOL0     H12538  11.662  10.243   5.427 -1.1691  2.3450 -1.4514
   95MOL0     H12539  11.147   9.940   6.127 -0.6468  0.9021  1.1522
   95MOL0     H12540  10.933   9.948   6.225  1.3888 -1.7769  0.3464
   96MOL0     O12541   4.336  10.867   8.917 -0.3200  0.8484  0.2129
   96MOL0     C12542   4.289  10.926   8.816 -0.3891  0.5323 -0.3025
   96MOL0     O12543   4.355  10.931   8.688 -0.1332 -0.3717 -0.0657
   96MOL0     C12544   4.438  10.838   8.642  0.1403  0.9110 -0.0512
   96MOL0     C12545   4.418  10.701   8.667 -0.8219 -0.5978 -0.2146
   96MOL0     C12546   4.527  10.612   8.627 -0.3728 -0.0171  0.1092
   96MOL0     C12547   4.642  10.663   8.557 -0.0481 -0.6010  0.5989
   96MOL0     O12548   4.744  10.578   8.535 -1.1196 -0.0387  0.1225
   96MOL0     C12549   4.870  10.642   8.497  0.4984  0.2480 -0.1348
   96MOL0     C12550   4.973  10.533   8.471 -0.8330 -0.0684 -0.5539
   96MOL0     C12551   5.110  10.596   8.449 -0.2233  0.3263 -0.1526
   96MOL0     C12552   5.133  10.638   8.300 -0.7431 -0.0794 -0.2023
   96MOL0     C12553   5.223  10.770   8.278 -0.3869  0.9848 -0.7687
   96MOL0     C12554   5.356  10.764   8.341  0.2787 -0.6307 -0.2508
   96MOL0     C12555   5.447  10.878   8.320  0.5062  0.2085  0.3290
   96MOL0     C12556   5.386  11.020   8.302 -0.8758  1.0312  0.6804
   96MOL0     N12557   5.317  11.058   8.420  0.2628 -0.4763  0.0282
   96MOL0     C12558   5.184  11.111   8.422 -0.7182 -0.2502 -0.5711
   96MOL0     C12559   5.170  11.117   8.559  0.9425  0.4217  0.3939
   96MOL0     C12560   5.042  11.130   8.643  0.7497  0.0126 -0.5183
   96MOL0     C12561   4.989  10.993   8.696  0.0885 -0.2535  0.2593
   96MOL0     C12562   4.928  11.014   8.835  0.6713 -0.5710  0.5223
   96MOL0     C12563   4.784  11.065   8.830  1.5134  0.0986 -0.3451
   96MOL0     O12564   4.769  11.170   8.731  0.0347  0.4806 -0.4744
   96MOL0     C12565   4.646  11.228   8.741  0.4723  0.1381  0.1514
   96MOL0     C12566   4.632  11.349   8.681 -0.3584 -0.3964  0.6411
   96MOL0     C12567   4.506  11.430   8.695 -0.1416 -0.2100  0.7972
   96MOL0     C12568   4.400  11.373   8.766 -0.8892 -0.0763 -0.6880
   96MOL0     C12569   4.280  11.455   8.781  0.1002 -0.8507  0.0480
   96MOL0     O12570   4.254  11.564   8.697  0.0254  0.3736  0.7432
   96MOL0     C12571   4.130  11.616   8.687  0.8936  0.1126 -0.4049
   96MOL0     C12572   4.027  11.553   8.621 -0.2909  0.7914  0.1930
   96MOL0     C12573   3.904  11.610   8.601  0.4349  0.1943  0.6042
   96MOL0     C12574   3.880  11.734   8.656 -0.3924 -0.4205  0.5049
   96MOL0     O12575   3.757  11.797   8.646  0.6797  0.2427 -0.2803
   96MOL0     C12576   3.635  11.733   8.594 -0.1276  0.0549  0.0939
   96MOL0     C12577   3.592  11.786   8.461  0.7022 -0.2238  0.1852
   96MOL0     C12578   3.450  11.737   8.433  0.4643  1.3842 -0.0229
   96MOL0     C12579   3.417  11.775   8.287  0.4918  0.2754 -0.2544
   96MOL0     C12580   3.264  11.797   8.254 -0.2313 -0.0085  0.0606
   96MOL0     C12581   3.181  11.868   8.360  0.2436 -0.2161 -0.3705
   96MOL0     C12582   3.039  11.906   8.302 -0.8024 -0.2606 -0.1410
   96MOL0     C12583   2.962  11.942   8.432 -0.7192  0.7400  0.8915
   96MOL0    Cl12584   2.798  12.004   8.377  0.0000  0.2373 -0.3003
   96MOL0     C12585   3.977  11.807   8.726 -0.0802  0.2418 -0.4872
   96MOL0     C12586   4.100  11.742   8.742  0.6737  0.1697 -0.6301
   96MOL0     O12587   4.200  11.406   8.863  0.0008 -0.0402  0.4649
   96MOL0     C12588   4.423  11.244   8.827  0.3772  0.4699  0.4500
   96MOL0     C12589   4.542  11.175   8.804  0.4873  0.4897  0.5780
   96MOL0     N12590   5.283  11.086   8.633  0.1758 -0.1099  0.9848
   96MOL0     N12591   5.368  11.054   8.547 -0.1161 -0.1503  0.2315
   96MOL0     C12592   4.637  10.805   8.526 -0.1664 -0.3684  0.1276
   96MOL0     C12593   4.540  10.889   8.566  0.2346 -0.2647  0.3116
   96MOL0     C12594   4.164  11.011   8.834  0.0494  0.4647 -1.1226
   96MOL0     C12595   4.106  11.090   8.730  0.2972 -0.0926 -0.0256
   96MOL0     C12596   3.992  11.164   8.754 -0.0500  0.0287 -0.3689
   96MOL0     C12597   3.932  11.170   8.884 -0.2868 -0.1293  0.6619
   96MOL0     O12598   3.820  11.244   8.915 -0.1478  0.6065  0.1073
   96MOL0     C12599   3.796  11.366   8.841  0.1850 -0.8782  0.9743
   96MOL0     C12600   3.655  11.418   8.865  0.4246 -0.5799  0.4360
   96MOL0     C12601   3.554  11.324   8.805 -0.8590 -0.4549 -0.0330
   96MOL0     C12602   3.407  11.362   8.816  0.1215  0.6859  0.4642
   96MOL0     C12603   3.369  11.498   8.773  0.3334  0.0891  0.6009
   96MOL0     C12604   3.332  11.606   8.754 -0.0952  0.3233  0.4629
   96MOL0     C12605   3.996  11.102   8.983  1.2057 -0.0590 -0.3357
   96MOL0     C12606   4.106  11.021   8.965 -0.0183 -1.2493 -0.5876
   96MOL0     H12607   4.327  10.667   8.713 -0.1970 -0.5247  1.1157
   96MOL0     H12608   4.525  10.504   8.632  0.1238  0.0008  0.9475
   96MOL0     H12609   4.911  10.712   8.571  2.2902 -0.4228 -0.4474
   96MOL0     H12610   4.860  10.693   8.400 -2.1151  3.8938  1.7680
   96MOL0     H12611   4.938  10.476   8.384  0.7628 -0.9561 -0.6661
   96MOL0     H12612   4.970  10.457   8.550 -3.4915 -1.1645 -1.5867
   96MOL0     H12613   5.183  10.519   8.476  1.8362  2.3627  0.3179
   96MOL0     H12614   5.119  10.688   8.506 -4.0131  0.9818 -0.3253
   96MOL0     H12615   5.188  10.553   8.257 -0.8119 -1.2332  1.8258
   96MOL0     H12616   5.047  10.653   8.235  1.0674  1.3904 -2.4294
   96MOL0     H12617   5.169  10.852   8.325  0.3775  1.4909 -0.7555
   96MOL0     H12618   5.221  10.795   8.171 -3.5496  1.6012 -0.6624
   96MOL0     H12619   5.408  10.675   8.305  0.9842 -1.1202  1.8352
   96MOL0     H12620   5.351  10.746   8.449 -2.5427 -2.2961 -0.5483
   96MOL0     H12621   5.530  10.886   8.391  4.0639 -3.2184 -2.9128
   96MOL0     H12622   5.498  10.862   8.224  2.5487 -0.5502  1.4618
   96MOL0     H12623   5.329  11.024   8.208 -1.0008  2.2031  0.7994
   96MOL0     H12624   5.465  11.093   8.285 -0.3670  0.6540  1.3509
   96MOL0     H12625   5.110  11.123   8.343 -1.1720  0.2412 -0.0715
   96MOL0     H12626   4.971  11.169   8.569 -0.2627  1.1795  0.9865
   96MOL0     H12627   5.045  11.201   8.727 -0.6318 -0.8385  0.2952
   96MOL0     H12628   5.074  10.927   8.715 -0.7935 -0.9817  1.8828
   96MOL0     H12629   4.923  10.948   8.621  0.0319 -2.5135  1.5734
   96MOL0     H12630   4.925  10.921   8.892  0.6919 -1.2985 -0.6353
   96MOL0     H12631   4.996  11.076   8.894  1.3413  1.2037 -1.9725
   96MOL0     H12632   4.751  11.108   8.925 -0.8296  0.3149 -1.2083
   96MOL0     H12633   4.719  10.980   8.806  0.9338  0.3682  0.2346
   96MOL0     H12634   4.712  11.392   8.623  0.8196 -2.6181  0.5185
   96MOL0     H12635   4.503  11.528   8.648 -0.9363 -1.3313 -1.6535
   96MOL0     H12636   4.052  11.457   8.576 -1.6371 -1.4610  3.7864
   96MOL0     H12637   3.838  11.538   8.554  0.8091 -0.8184  1.5945
   96MOL0     H12638   3.554  11.754   8.665  0.8575  2.5870  0.5634
   96MOL0     H12639   3.645  11.625   8.590 -1.4204 -0.2238  2.4904
   96MOL0     H12640   3.657  11.755   8.379  1.4460  1.9320 -0.1193
   96MOL0     H12641   3.600  11.895   8.472  0.0614 -0.4533  5.0945
   96MOL0     H12642   3.377  11.774   8.506  0.5458  2.6196 -0.5339
   96MOL0     H12643   3.446  11.628   8.432  0.2069  1.3921 -0.0056
   96MOL0     H12644   3.466  11.867   8.255  1.7345 -0.4690 -0.5769
   96MOL0     H12645   3.464  11.701   8.221 -0.9207  1.2720 -2.4966
   96MOL0     H12646   3.223  11.696   8.247 -0.6893  0.1718  0.0459
   96MOL0     H12647   3.259  11.858   8.163  0.4484 -0.2002 -0.1078
   96MOL0     H12648   3.241  11.955   8.387 -0.0750  0.1795 -0.9374
   96MOL0     H12649   3.166  11.815   8.455 -3.8051 -0.2860 -0.8659
   96MOL0     H12650   3.059  11.985   8.229  0.5715 -1.6910 -1.3779
   96MOL0     H12651   2.996  11.818   8.253 -0.5188 -0.6611  0.3136
   96MOL0     H12652   3.013  12.007   8.503  3.0241 -0.8102 -0.1199
   96MOL0     H12653   2.954  11.843   8.479 -0.3851 -0.4379 -1.3549
   96MOL0     H12654   3.966  11.911   8.755  3.6744  0.9657 -1.0494
   96MOL0     H12655   4.185  11.785   8.794  1.2868  0.2138 -1.6491
   96MOL0     H12656   4.336  11.202   8.877  1.0347 -3.5658 -1.3833
   96MOL0     H12657   4.543  11.078   8.852  1.7956  0.1002 -0.1832
   96MOL0     H12658   4.718  10.843   8.464 -1.0649  1.0485 -0.2044
   96MOL0     H12659   4.546  10.996   8.547 -0.5183 -0.2354  0.2057
   96MOL0     H12660   4.154  11.092   8.633 -1.4873 -0.9669 -0.9908
   96MOL0     H12661   3.953  11.223   8.671  0.1719  2.5232  1.1707
   96MOL0     H12662   3.807  11.355   8.733 -1.9275  1.5133  0.4519
   96MOL0     H12663   3.876  11.437   8.866  0.8001 -1.7903  1.7077
   96MOL0     H12664   3.631  11.426   8.972 -1.3037 -0.4165  0.0742
   96MOL0     H12665   3.647  11.518   8.820  1.1689 -0.7474 -0.0718
   96MOL0     H12666   3.572  11.222   8.841 -1.6868 -0.1499  1.2997
   96MOL0     H12667   3.577  11.338   8.699 -2.3949  2.8447 -0.0553
   96MOL0     H12668   3.341  11.288   8.770  0.7327  0.2521  0.2654
   96MOL0     H12669   3.387  11.353   8.923 -0.7026  1.7872  0.4131
   96MOL0     H12670   3.303  11.709   8.747 -2.3414 -0.3172 -0.7095
   96MOL0     H12671   3.968  11.116   9.087  1.1687  0.1926 -0.3794
   96MOL0     H12672   4.159  10.981   9.051  1.1970  0.1898 -0.6201
   97MOL0     O12673   2.961   7.446   6.566 -0.4778  0.4096  0.8159
   97MOL0     C12674   2.952   7.436   6.441  0.5940  0.2702  0.5365
   97MOL0     O12675   2.850   7.381   6.373  0.4195 -0.3389  0.7620
   97MOL0     C12676   2.737   7.328   6.428  0.3895  0.3036 -0.5560
   97MOL0     C12677   2.670   7.379   6.536  0.0361 -0.6078 -0.5033
   97MOL0     C12678   2.548   7.330   6.574 -0.1611 -0.4417  0.1435
   97MOL0     C12679   2.490   7.220   6.503  0.3049 -0.6516 -0.6363
   97MOL0     O12680   2.368   7.195   6.552  0.1295  0.1351 -0.0538
   97MOL0     C12681   2.279   7.101   6.485 -0.0607 -0.4525  0.5677
   97MOL0     C12682   2.162   7.093   6.578  1.0051  0.3243  0.4313
   97MOL0     C12683   2.203   7.002   6.700  1.2327 -0.4192 -0.2508
   97MOL0     C12684   2.096   6.989   6.809  0.5085 -0.8372  0.3517
   97MOL0     C12685   1.952   6.968   6.757 -0.7695 -0.3814  0.4505
   97MOL0     C12686   1.852   6.930   6.865 -0.8707 -0.0523  0.2317
   97MOL0     C12687   1.783   7.048   6.925  0.0669 -0.1697 -0.4496
   97MOL0     C12688   1.681   6.994   7.027  0.2932 -0.3729  0.4229
   97MOL0     N12689   1.596   7.103   7.078 -0.7782 -0.0095  0.6786
   97MOL0     C12690   1.488   7.173   7.021 -0.2228 -0.9886 -0.0691
   97MOL0     C12691   1.452   7.273   7.111  0.4064 -0.4889  0.4305
   97MOL0     C12692   1.345   7.381   7.092  0.2150  0.6260  0.3787
   97MOL0     C12693   1.209   7.317   7.136 -0.0955  0.1260 -0.6480
   97MOL0     C12694   1.097   7.417   7.122  0.1616 -1.2994 -0.1313
   97MOL0     C12695   0.966   7.370   7.176  0.1968  0.5367  0.3402
   97MOL0     O12696   0.910   7.271   7.084  0.1506  0.3496 -0.0945
   97MOL0     C12697   0.788   7.213   7.117  0.2393 -0.7580 -0.4131
   97MOL0     C12698   0.707   7.266   7.215 -0.3489 -0.2054 -0.9315
   97MOL0     C12699   0.580   7.203   7.237 -0.3593 -0.0423  0.8339
   97MOL0     C12700   0.530   7.092   7.157  0.2077 -0.7028  0.2576
   97MOL0     C12701   0.402   7.036   7.187 -0.0326 -0.7279  0.0798
   97MOL0     O12702   0.288   7.120   7.199 -0.0986 -0.1581 -0.0023
   97MOL0     C12703   0.165   7.058   7.213  0.2244  0.1369 -0.7338
   97MOL0     C12704   0.072   7.059   7.106 -0.4671 -0.7288  0.0704
   97MOL0     C12705  -0.036   6.980   7.112  0.2140  0.1285 -0.3788
   97MOL0     C12706  -0.070   6.908   7.226 -1.0382 -0.1754  0.5132
   97MOL0     O12707  -0.180   6.828   7.240 -0.1680 -0.2438  0.0521
   97MOL0     C12708  -0.245   6.792   7.121  0.1160  0.2935  0.2493
   97MOL0     C12709  -0.357   6.680   7.131 -0.8689 -0.7747 -0.1873
   97MOL0     C12710  -0.480   6.727   7.223  0.4182 -0.6181  0.2867
   97MOL0     C12711  -0.608   6.740   7.144  0.4719  0.3829  0.3138
   97MOL0     C12712  -0.661   6.612   7.072  0.2353 -0.3957  0.2109
   97MOL0     C12713  -0.799   6.633   7.016  0.1493 -0.2618 -0.2080
   97MOL0     C12714  -0.819   6.756   6.920  0.2849  0.1769 -0.0397
   97MOL0     C12715  -0.955   6.743   6.858  0.7172  0.7209  0.3988
   97MOL0    Cl12716  -0.945   6.846   6.711  0.1616  0.1085  0.0983
   97MOL0     C12717   0.020   6.903   7.330 -0.2532  0.4846  1.2251
   97MOL0     C12718   0.134   6.988   7.326  0.5878  0.0652  0.4418
   97MOL0     O12719   0.395   6.916   7.198 -0.3001  0.0648  0.3680
   97MOL0     C12720   0.615   7.042   7.058  0.1432 -0.3894  1.0316
   97MOL0     C12721   0.735   7.103   7.037  0.5436 -0.7964 -0.1087
   97MOL0     N12722   1.527   7.260   7.215 -0.1944 -0.2322  0.5627
   97MOL0     N12723   1.620   7.169   7.194  0.3051  0.2193  0.5456
   97MOL0     C12724   2.555   7.169   6.387 -0.0697 -0.0211  0.5381
   97MOL0     C12725   2.684   7.224   6.352 -0.2702 -0.0417 -0.1278
   97MOL0     C12726   3.071   7.474   6.368 -0.4683  0.2570 -0.5585
   97MOL0     C12727   3.177   7.538   6.439  0.0302  0.2551  0.9987
   97MOL0     C12728   3.292   7.576   6.375  0.1923 -0.7444  0.4999
   97MOL0     C12729   3.304   7.575   6.231  0.8106  0.2799  0.0421
   97MOL0     O12730   3.420   7.607   6.165 -1.2883 -0.0440 -0.0201
   97MOL0     C12731   3.412   7.696   6.051 -0.3090  0.0683  0.0394
   97MOL0     C12732   3.553   7.752   6.028 -0.6571  0.6162 -0.0144
   97MOL0     C12733   3.638   7.636   5.961  0.2736  0.2631 -0.0774
   97MOL0     C12734   3.789   7.662   5.996 -0.0827  1.5304  0.2276
   97MOL0     C12735   3.840   7.785   5.940 -0.0874 -0.7861  0.7150
   97MOL0     C12736   3.894   7.881   5.895  0.2764 -0.5119 -0.3213
   97MOL0     C12737   3.198   7.512   6.157 -0.6919 -0.5464 -0.7564
   97MOL0     C12738   3.086   7.464   6.224 -0.3656  0.2674  0.1887
   97MOL0     H12739   2.707   7.459   6.600  1.1036 -1.1990 -0.3555
   97MOL0     H12740   2.505   7.361   6.669  0.3479 -1.0503  0.5781
   97MOL0     H12741   2.319   6.999   6.474  1.9085  0.4133 -0.9203
   97MOL0     H12742   2.256   7.126   6.381 -0.2038 -1.0869  0.4421
   97MOL0     H12743   2.089   7.040   6.517  0.1470  3.4782 -1.4993
   97MOL0     H12744   2.115   7.181   6.623  0.7603 -0.7427  2.3900
   97MOL0     H12745   2.285   7.053   6.751 -0.7481  2.5250  0.2542
   97MOL0     H12746   2.232   6.900   6.673  1.1037 -1.7074  3.8324
   97MOL0     H12747   2.131   6.902   6.865  0.0181 -1.4392 -0.2650
   97MOL0     H12748   2.091   7.071   6.882  1.5974 -0.9760  0.6005
   97MOL0     H12749   1.946   6.890   6.681 -2.2469 -0.9986  1.1584
   97MOL0     H12750   1.914   7.061   6.715 -0.7632  0.3057  1.8928
   97MOL0     H12751   1.896   6.859   6.935  0.9297  0.1290 -0.6541
   97MOL0     H12752   1.778   6.873   6.808 -1.8369  0.8128  0.5808
   97MOL0     H12753   1.847   7.121   6.974 -1.9233  1.3081  0.0572
   97MOL0     H12754   1.735   7.105   6.845  0.8672 -0.3753 -1.1001
   97MOL0     H12755   1.742   6.945   7.104  3.0269  0.1359 -1.2613
   97MOL0     H12756   1.614   6.918   6.986 -0.0464  0.3343 -0.3657
   97MOL0     H12757   1.437   7.132   6.934 -2.3145 -1.4732  1.3273
   97MOL0     H12758   1.345   7.411   6.987  2.0854 -0.2954  0.0722
   97MOL0     H12759   1.370   7.477   7.138  4.5193 -0.8538  1.6353
   97MOL0     H12760   1.216   7.292   7.242  2.5856 -1.2349 -1.0533
   97MOL0     H12761   1.190   7.224   7.083 -1.8284 -0.1983  0.4616
   97MOL0     H12762   1.125   7.507   7.176  1.0499 -1.8866  0.4147
   97MOL0     H12763   1.094   7.440   7.015  0.9033  0.5543  0.2176
   97MOL0     H12764   0.901   7.454   7.199 -0.9600 -0.5148  1.0529
   97MOL0     H12765   0.987   7.318   7.270  0.8639 -2.5118 -1.3471
   97MOL0     H12766   0.737   7.344   7.284  0.2043 -1.8086  0.7103
   97MOL0     H12767   0.525   7.234   7.325 -0.2011 -1.4384  1.4576
   97MOL0     H12768   0.105   7.110   7.015 -0.5475  0.0486  0.4719
   97MOL0     H12769  -0.112   6.991   7.036 -0.4287 -2.9371 -0.3107
   97MOL0     H12770  -0.164   6.768   7.052 -0.9941 -0.6062 -0.7879
   97MOL0     H12771  -0.296   6.882   7.083  0.4281  1.4485  2.3955
   97MOL0     H12772  -0.330   6.583   7.173 -1.4773 -0.1652  1.6840
   97MOL0     H12773  -0.399   6.664   7.031 -0.3583 -1.2445 -0.3326
   97MOL0     H12774  -0.455   6.826   7.262 -2.5127  1.7319 -3.1944
   97MOL0     H12775  -0.500   6.656   7.304 -2.2623 -1.6375 -1.1450
   97MOL0     H12776  -0.687   6.761   7.217 -1.4586 -2.5300 -0.7752
   97MOL0     H12777  -0.595   6.830   7.083  1.8679  1.0141  1.4849
   97MOL0     H12778  -0.652   6.524   7.136  1.9859 -0.9820 -0.7621
   97MOL0     H12779  -0.601   6.583   6.985  0.3406 -2.0501  0.8107
   97MOL0     H12780  -0.876   6.627   7.093 -1.3787 -1.6380 -1.7696
   97MOL0     H12781  -0.810   6.540   6.960  1.8960  0.0535 -1.1321
   97MOL0     H12782  -0.815   6.850   6.977  0.3202 -0.8946  1.7828
   97MOL0     H12783  -0.744   6.760   6.841 -0.2992  3.6784 -0.5896
   97MOL0     H12784  -1.031   6.793   6.920  0.3341  0.6160  0.0221
   97MOL0     H12785  -0.981   6.641   6.832 -1.5626  1.5210 -0.7289
   97MOL0     H12786  -0.009   6.837   7.412 -0.2060 -1.1302  0.0025
   97MOL0     H12787   0.204   7.003   7.407  0.1908  0.1345  0.7781
   97MOL0     H12788   0.591   6.952   7.002 -1.1783 -1.4789  3.1805
   97MOL0     H12789   0.794   7.070   6.952 -0.6949  1.6742 -2.0287
   97MOL0     H12790   2.521   7.080   6.336  0.8148 -1.1676  1.8600
   97MOL0     H12791   2.739   7.171   6.274 -1.0791  0.3272 -0.9674
   97MOL0     H12792   3.174   7.554   6.546 -0.0934  0.8543  0.9057
   97MOL0     H12793   3.372   7.618   6.435  0.1923  1.3481 -0.8448
   97MOL0     H12794   3.347   7.780   6.077 -1.0569 -0.3065 -0.5625
   97MOL0     H12795   3.366   7.646   5.965  0.2257 -0.1206 -0.1437
   97MOL0     H12796   3.555   7.840   5.964  0.7633  0.4118 -0.2843
   97MOL0     H12797   3.598   7.788   6.121 -0.1915  1.4336 -0.5505
   97MOL0     H12798   3.626   7.636   5.852 -0.5347  0.9345 -0.0012
   97MOL0     H12799   3.616   7.535   5.997  1.5259  0.0830  0.2432
   97MOL0     H12800   3.809   7.648   6.103 -2.3455  1.3595  0.6852
   97MOL0     H12801   3.850   7.583   5.950  2.8087  2.2070  2.5735
   97MOL0     H12802   3.944   7.964   5.847 -2.0757  1.1163 -0.1441
   97MOL0     H12803   3.184   7.491   6.051 -0.7024 -4.4387 -0.1233
   97MOL0     H12804   3.002   7.416   6.174  1.9964 -3.1974 -0.8482
   98MOL0     O12805   1.885   9.885   4.803  0.7304 -0.1808 -0.3119
   98MOL0     C12806   1.937   9.978   4.867 -0.0421  0.5102  0.4715
   98MOL0     O12807   1.867  10.066   4.942  0.2610  0.2107  0.2286
   98MOL0     C12808   1.733  10.063   4.931  0.3111  0.1330 -0.4343
   98MOL0     C12809   1.663   9.984   5.023  0.1326 -1.3886  0.2200
   98MOL0     C12810   1.524   9.978   5.016  0.3443 -0.2325 -0.0635
   98MOL0     C12811   1.445  10.050   4.913 -0.0261 -0.0295 -0.4819
   98MOL0     O12812   1.309  10.043   4.905  0.1264 -0.4043  0.1201
   98MOL0     C12813   1.239  10.163   4.870  0.8715 -0.0887  0.1179
   98MOL0     C12814   1.115  10.148   4.954  0.1985  0.2151  0.1716
   98MOL0     C12815   1.137  10.171   5.103  0.2451  0.2155 -0.5952
   98MOL0     C12816   1.012  10.136   5.191  0.3001 -0.0747  0.4065
   98MOL0     C12817   1.011  10.173   5.343 -0.0442 -0.4350 -0.0058
   98MOL0     C12818   0.896  10.105   5.422  0.6538 -0.1433 -0.6959
   98MOL0     C12819   0.942  10.089   5.567  0.6115 -0.0403 -0.5663
   98MOL0     C12820   0.968  10.214   5.650 -0.7432  0.2328  1.1966
   98MOL0     N12821   0.854  10.297   5.662 -0.3032 -0.0191 -0.1129
   98MOL0     C12822   0.771  10.301   5.762 -0.0708  0.9677 -0.5385
   98MOL0     C12823   0.691  10.410   5.741  0.1516  0.0401  0.5803
   98MOL0     C12824   0.590  10.459   5.833  0.2822 -0.1013  0.2168
   98MOL0     C12825   0.649  10.507   5.968  0.3814  0.9388  0.7428
   98MOL0     C12826   0.550  10.563   6.061  0.6622 -0.3598 -0.1711
   98MOL0     C12827   0.502  10.698   6.013 -0.3187  0.2570 -0.2792
   98MOL0     O12828   0.418  10.760   6.114  0.1605  0.6063 -0.4530
   98MOL0     C12829   0.276  10.758   6.108 -0.0369  0.1260 -0.5387
   98MOL0     C12830   0.213  10.841   6.206 -0.1801  0.4036 -0.2314
   98MOL0     C12831   0.078  10.849   6.217 -0.2939 -0.9952  0.2992
   98MOL0     C12832   0.005  10.802   6.110 -0.2878 -0.2992 -0.0207
   98MOL0     C12833  -0.141  10.819   6.115  0.2622  0.0677 -0.3803
   98MOL0     O12834  -0.212  10.741   6.032  0.5075  0.2922  0.8216
   98MOL0     C12835  -0.348  10.726   6.038 -0.0945  0.4515  0.2583
   98MOL0     C12836  -0.416  10.693   6.163  0.3779  0.1180  0.2942
   98MOL0     C12837  -0.550  10.656   6.160 -0.1842 -1.3125  0.2759
   98MOL0     C12838  -0.627  10.686   6.045 -0.0205 -0.2019 -0.5294
   98MOL0     O12839  -0.764  10.662   6.063  0.1072  0.1487 -0.1995
   98MOL0     C12840  -0.855  10.692   5.952  0.5211  0.0645 -0.4487
   98MOL0     C12841  -0.995  10.681   6.005  0.6772 -0.9728 -0.5345
   98MOL0     C12842  -1.094  10.742   5.905  0.9096 -0.1272  0.2264
   98MOL0     C12843  -1.089  10.676   5.763  0.5121  0.4135  0.1353
   98MOL0     C12844  -1.195  10.724   5.664 -0.7946 -0.3578 -0.5312
   98MOL0     C12845  -1.210  10.648   5.539  1.0890  0.8554  0.0181
   98MOL0     C12846  -1.088  10.663   5.453 -0.9516  0.5787 -0.1376
   98MOL0     C12847  -1.095  10.591   5.323 -0.7054  0.3373  0.7273
   98MOL0    Cl12848  -1.135  10.415   5.342 -0.0522  0.1969  0.0655
   98MOL0     C12849  -0.567  10.730   5.930  0.9190 -0.0822 -0.0399
   98MOL0     C12850  -0.426  10.739   5.929 -0.0003 -0.0222 -0.3671
   98MOL0     O12851  -0.194  10.889   6.194 -0.3731 -0.2712  0.0310
   98MOL0     C12852   0.067  10.730   6.003 -0.0786  0.4361 -0.3004
   98MOL0     C12853   0.206  10.702   5.997  0.1549  0.3057  0.2672
   98MOL0     N12854   0.735  10.473   5.629  0.0452  0.1341  0.0485
   98MOL0     N12855   0.825  10.394   5.580 -0.3057 -0.5805  0.3196
   98MOL0     C12856   1.520  10.125   4.821  1.4071  0.0093 -0.1584
   98MOL0     C12857   1.660  10.131   4.831 -0.4053  1.0473 -1.3932
   98MOL0     C12858   2.081   9.998   4.857 -0.1000  0.4931 -1.0020
   98MOL0     C12859   2.162   9.896   4.800 -0.2734 -0.0096 -0.2930
   98MOL0     C12860   2.298   9.909   4.804  0.0142  0.1920  0.2847
   98MOL0     C12861   2.368  10.012   4.865 -0.3491 -0.2087  1.0024
   98MOL0     O12862   2.502  10.020   4.858 -0.2275  0.9365  0.0998
   98MOL0     C12863   2.557  10.013   4.995  0.3700 -0.2740 -0.4592
   98MOL0     C12864   2.703  10.025   4.988 -1.2823  0.4744  0.6264
   98MOL0     C12865   2.775  10.071   5.127  0.2085  0.0422  0.8648
   98MOL0     C12866   2.929  10.110   5.110  0.0640  0.4013  0.7130
   98MOL0     C12867   2.966  10.190   5.218 -0.4847  0.7994 -0.8450
   98MOL0     C12868   3.009  10.249   5.316  0.5629 -0.2054  0.6912
   98MOL0     C12869   2.290  10.120   4.913 -0.3646 -0.3953  0.8114
   98MOL0     C12870   2.150  10.112   4.915  0.0838  0.2936 -0.1305
   98MOL0     H12871   1.716   9.920   5.092 -1.2988 -0.4437  2.2970
   98MOL0     H12872   1.483   9.914   5.093  1.2314  0.7879  1.2966
   98MOL0     H12873   1.209  10.160   4.765 -1.8264 -1.5318  0.8445
   98MOL0     H12874   1.292  10.256   4.893  1.0927  1.1318 -4.4733
   98MOL0     H12875   1.085  10.045   4.932 -0.4288  0.6884 -1.3297
   98MOL0     H12876   1.044  10.215   4.906  0.6102 -1.6494 -3.3543
   98MOL0     H12877   1.158  10.277   5.114  0.7251 -0.0409  1.2364
   98MOL0     H12878   1.220  10.109   5.137 -1.1921 -1.7526 -0.4533
   98MOL0     H12879   0.922  10.166   5.137  0.5780 -1.2912 -0.7761
   98MOL0     H12880   1.005  10.028   5.178  2.3333 -0.0163 -1.9061
   98MOL0     H12881   1.000  10.281   5.353 -2.5483 -0.7986  2.0157
   98MOL0     H12882   1.102  10.141   5.394 -1.2365 -2.5286  0.9446
   98MOL0     H12883   0.877  10.005   5.383  0.9641 -0.6216  0.3597
   98MOL0     H12884   0.800  10.158   5.420 -0.1876 -1.5783  0.5375
   98MOL0     H12885   0.862  10.038   5.623 -1.6766  1.2199 -2.4998
   98MOL0     H12886   1.026  10.021   5.583 -0.4874 -1.0744  1.3269
   98MOL0     H12887   1.045  10.279   5.609 -2.0609 -0.0278 -2.0183
   98MOL0     H12888   0.996  10.179   5.750 -0.3609 -0.7912  0.7486
   98MOL0     H12889   0.771  10.223   5.838  0.4960 -0.9275 -2.3932
   98MOL0     H12890   0.526  10.372   5.846  1.9297 -1.0763  2.2649
   98MOL0     H12891   0.517  10.529   5.790 -2.0403 -2.3118  0.2834
   98MOL0     H12892   0.739  10.566   5.953  0.3105  2.1277  4.1513
   98MOL0     H12893   0.685  10.416   6.018  1.1167  0.3300 -0.8290
   98MOL0     H12894   0.462  10.501   6.078  0.6252 -0.1418  0.4750
   98MOL0     H12895   0.594  10.570   6.161 -3.6140 -0.2839  1.9097
   98MOL0     H12896   0.468  10.705   5.909 -2.3811  4.7755  0.4464
   98MOL0     H12897   0.592  10.758   6.000 -0.2912  0.3979  0.4899
   98MOL0     H12898   0.273  10.872   6.291 -2.4953  0.4953  1.4692
   98MOL0     H12899   0.032  10.899   6.302 -0.1666 -0.9369  0.3333
   98MOL0     H12900  -0.353  10.690   6.251  0.6689  0.5790  0.1057
   98MOL0     H12901  -0.601  10.631   6.253 -0.3795 -0.9095  0.2806
   98MOL0     H12902  -0.835  10.626   5.866 -2.1115 -0.9562 -0.3881
   98MOL0     H12903  -0.846  10.796   5.920 -2.8424  0.4221 -0.6563
   98MOL0     H12904  -1.008  10.725   6.105 -2.7274 -1.3453 -0.7134
   98MOL0     H12905  -1.023  10.575   6.009 -0.5354 -0.8015 -3.0675
   98MOL0     H12906  -1.091  10.850   5.893  0.4198 -0.1442 -0.0427
   98MOL0     H12907  -1.188  10.711   5.950  0.4876 -0.1818 -0.6641
   98MOL0     H12908  -0.990  10.684   5.717  0.5844  0.1601  0.2475
   98MOL0     H12909  -1.108  10.569   5.764  0.0156  0.4751 -0.9894
   98MOL0     H12910  -1.172  10.829   5.644  0.6709 -0.2372  1.5239
   98MOL0     H12911  -1.285  10.722   5.727  2.1310  2.8695  4.3907
   98MOL0     H12912  -1.298  10.686   5.487  0.2939 -1.4430 -0.4435
   98MOL0     H12913  -1.243  10.546   5.562 -0.9344  1.8911  2.2074
   98MOL0     H12914  -1.062  10.765   5.425 -0.2145  0.5518  0.4118
   98MOL0     H12915  -1.010  10.624   5.519 -0.0605  0.4380 -1.2393
   98MOL0     H12916  -1.003  10.600   5.264 -0.1360  0.6031  1.6497
   98MOL0     H12917  -1.182  10.632   5.271  1.8627  2.5448 -2.2076
   98MOL0     H12918  -0.623  10.753   5.840  0.9620 -1.8234 -0.5464
   98MOL0     H12919  -0.377  10.766   5.836  1.9520  1.3462  0.9727
   98MOL0     H12920   0.001  10.692   5.926 -0.4086  1.1504 -0.3736
   98MOL0     H12921   0.239  10.651   5.907 -1.9571  0.8931 -0.9057
   98MOL0     H12922   1.474  10.181   4.740  0.4840  1.7616  1.4946
   98MOL0     H12923   1.710  10.198   4.761 -1.1387  1.7148 -1.2927
   98MOL0     H12924   2.125   9.801   4.763  0.5865 -0.4590 -0.0303
   98MOL0     H12925   2.363   9.828   4.773  1.7241 -0.0413  3.9467
   98MOL0     H12926   2.528   9.926   5.055 -0.6947 -0.1989 -0.8517
   98MOL0     H12927   2.522  10.096   5.056 -0.5152 -2.0833  1.6508
   98MOL0     H12928   2.753   9.933   4.957 -1.0954  0.9803 -0.6362
   98MOL0     H12929   2.715  10.105   4.914  0.9648  0.6406  1.1149
   98MOL0     H12930   2.773   9.994   5.205 -1.9362 -0.2835  0.5446
   98MOL0     H12931   2.724  10.164   5.155 -2.3901 -0.0372 -2.9114
   98MOL0     H12932   2.997  10.025   5.107 -0.2386  0.1754 -0.2773
   98MOL0     H12933   2.942  10.170   5.019 -1.0541 -1.9744 -1.1253
   98MOL0     H12934   3.045  10.266   5.415 -1.9811  2.8353  1.2368
   98MOL0     H12935   2.346  10.208   4.943 -0.5629 -0.4998  1.4996
   98MOL0     H12936   2.086  10.193   4.948 -1.0025 -0.7092  0.2633
   99MOL0     O12937  10.227   6.424   0.771  0.1738 -0.2331 -0.2319
   99MOL0     C12938  10.302   6.501   0.709 -0.3590 -1.0024 -0.0062
   99MOL0     O12939  10.263   6.626   0.667  0.7118  0.3274  0.1579
   99MOL0     C12940  10.131   6.676   0.692 -0.0478 -0.6580  0.0441
   99MOL0     C12941  10.125   6.807   0.736 -0.4305  0.0396  0.3376
   99MOL0     C12942  10.007   6.876   0.755  0.6026  0.0755  0.8331
   99MOL0     C12943   9.884   6.811   0.729  0.2129  0.2904  0.6191
   99MOL0     O12944   9.759   6.874   0.721 -0.1524 -0.1745 -0.2697
   99MOL0     C12945   9.748   7.018   0.739  0.4775 -0.2747 -0.4249
   99MOL0     C12946   9.609   7.083   0.760 -0.1566 -0.0291 -0.5445
   99MOL0     C12947   9.530   7.109   0.630 -0.4227  1.1097  0.8197
   99MOL0     C12948   9.425   6.999   0.594 -0.5402  0.1582 -0.0676
   99MOL0     C12949   9.296   7.014   0.676 -0.6968 -0.1280  0.7278
   99MOL0     C12950   9.170   6.953   0.604  0.7126  0.2738  0.0618
   99MOL0     C12951   9.047   6.968   0.687  0.2518  0.2571  0.6493
   99MOL0     C12952   8.918   6.926   0.620 -0.2414  0.0555  0.0259
   99MOL0     N12953   8.811   6.956   0.705 -0.0519 -0.3749 -0.4227
   99MOL0     C12954   8.769   6.885   0.814  0.8956  0.7519 -0.0420
   99MOL0     C12955   8.646   6.935   0.855 -0.8856  0.1660  0.2721
   99MOL0     C12956   8.572   6.882   0.968 -0.4514 -0.0412 -0.3769
   99MOL0     C12957   8.441   6.955   1.000  0.1923 -0.8100  0.9735
   99MOL0     C12958   8.352   6.897   1.109 -0.1020  0.5764 -0.7658
   99MOL0     C12959   8.304   6.760   1.076  0.7532 -1.0188 -0.0282
   99MOL0     O12960   8.213   6.706   1.180 -0.2936 -0.1401 -0.2012
   99MOL0     C12961   8.077   6.683   1.158  0.3478 -0.7743 -0.1349
   99MOL0     C12962   8.010   6.704   1.035  0.3735  0.8310 -0.6142
   99MOL0     C12963   7.875   6.666   1.026  0.0684 -0.9604 -0.2614
   99MOL0     C12964   7.802   6.605   1.135 -0.5563  0.4082 -0.1715
   99MOL0     C12965   7.670   6.546   1.123  0.2397  0.1622 -0.6034
   99MOL0     O12966   7.625   6.457   1.220 -0.2831 -0.4829 -0.0575
   99MOL0     C12967   7.515   6.383   1.191  0.1126 -0.7481 -0.1047
   99MOL0     C12968   7.517   6.247   1.224 -0.8392  0.8644 -0.5446
   99MOL0     C12969   7.413   6.163   1.201 -0.0781  0.2925  0.0691
   99MOL0     C12970   7.290   6.211   1.160  0.3771 -0.5216  0.5732
   99MOL0     O12971   7.189   6.113   1.160  0.3955 -0.1925 -0.0294
   99MOL0     C12972   7.045   6.145   1.138 -0.9311 -0.5822 -0.4564
   99MOL0     C12973   6.983   6.251   1.228  0.6469  0.4870  0.1624
   99MOL0     C12974   6.832   6.232   1.222 -0.0746 -0.5314  0.3876
   99MOL0     C12975   6.775   6.311   1.344 -0.1222  0.1817 -0.4683
   99MOL0     C12976   6.631   6.360   1.343  0.3571 -0.1790  1.1945
   99MOL0     C12977   6.623   6.494   1.423  0.3344 -0.0384 -0.2167
   99MOL0     C12978   6.477   6.547   1.423 -0.7259  0.1736 -0.5679
   99MOL0     C12979   6.382   6.505   1.538 -0.6458 -0.8093 -0.3053
   99MOL0    Cl12980   6.418   6.621   1.674  0.1925  0.0623 -0.3233
   99MOL0     C12981   7.277   6.347   1.124 -1.1393  0.3317  0.3040
   99MOL0     C12982   7.397   6.430   1.132 -0.3863 -0.2976  0.1958
   99MOL0     O12983   7.613   6.575   1.022 -0.2499 -0.4351 -0.2666
   99MOL0     C12984   7.871   6.599   1.255 -0.5250 -0.1415 -0.1879
   99MOL0     C12985   8.006   6.640   1.269 -0.2401 -0.2593  0.4877
   99MOL0     N12986   8.623   7.040   0.766 -0.1885 -1.0903 -0.2031
   99MOL0     N12987   8.718   7.047   0.679  0.2896 -0.6147  1.1680
   99MOL0     C12988   9.891   6.679   0.691  0.3229 -0.2952 -0.1183
   99MOL0     C12989  10.011   6.610   0.661  0.3662 -0.1524  0.0911
   99MOL0     C12990  10.445   6.463   0.678  0.4859 -0.4374 -0.4578
   99MOL0     C12991  10.514   6.354   0.731 -0.4145  0.0348 -0.3288
   99MOL0     C12992  10.651   6.323   0.690  0.8921 -0.1215 -0.3273
   99MOL0     C12993  10.718   6.416   0.610 -0.7139  0.2028  0.3252
   99MOL0     O12994  10.850   6.395   0.573 -0.2864 -0.4855 -0.5100
   99MOL0     C12995  10.946   6.317   0.654  0.2690 -0.0078 -0.4761
   99MOL0     C12996  10.961   6.181   0.585  0.8748 -1.0246  0.3650
   99MOL0     C12997  11.057   6.186   0.468  0.3709 -0.0965 -0.6056
   99MOL0     C12998  11.207   6.200   0.519 -0.0451  0.9016 -0.2771
   99MOL0     C12999  11.293   6.198   0.406 -0.1079 -1.1004  0.1139
   99MOL0     C13000  11.358   6.180   0.307 -0.5414  0.0000 -1.0226
   99MOL0     C13001  10.648   6.528   0.567 -0.4837  0.2973 -0.8216
   99MOL0     C13002  10.517   6.545   0.593  0.4319 -0.3351  0.1796
   99MOL0     H13003  10.221   6.846   0.767  0.5939 -1.0045 -1.3939
   99MOL0     H13004  10.009   6.984   0.759 -2.3408  0.4522 -2.1982
   99MOL0     H13005   9.799   7.066   0.655 -1.6184  2.7940 -0.1233
   99MOL0     H13006   9.794   7.039   0.836 -0.6081 -0.3283  0.1183
   99MOL0     H13007   9.631   7.179   0.806  0.3939  0.0972 -1.0520
   99MOL0     H13008   9.553   7.030   0.838  1.2696  1.3110  1.4654
   99MOL0     H13009   9.605   7.113   0.550 -2.7010 -4.5851 -2.1372
   99MOL0     H13010   9.484   7.209   0.631 -3.1784 -0.0199 -1.1246
   99MOL0     H13011   9.409   7.001   0.486  0.6922  1.4690 -0.2677
   99MOL0     H13012   9.456   6.899   0.624  1.9354 -0.1475 -3.0956
   99MOL0     H13013   9.272   7.120   0.672 -0.8497 -0.1879 -0.5142
   99MOL0     H13014   9.328   6.975   0.773  2.5571  1.5290  0.4817
   99MOL0     H13015   9.195   6.849   0.582  1.9178  0.1779  1.6832
   99MOL0     H13016   9.146   7.001   0.508  2.1530 -0.4792 -0.7161
   99MOL0     H13017   9.059   6.919   0.784 -1.2120  0.1286  0.7738
   99MOL0     H13018   9.044   7.076   0.703 -2.5887  0.0045  2.4788
   99MOL0     H13019   8.921   6.820   0.594 -0.6929  0.7007 -3.0615
   99MOL0     H13020   8.907   6.980   0.525  3.4217 -0.4926 -0.8699
   99MOL0     H13021   8.801   6.788   0.852 -0.5556  0.4350  0.4612
   99MOL0     H13022   8.638   6.883   1.055  1.4693  3.0672 -1.6622
   99MOL0     H13023   8.541   6.780   0.944 -0.4878 -1.1502  3.6880
   99MOL0     H13024   8.389   6.972   0.905  0.6921 -0.5616  0.7409
   99MOL0     H13025   8.472   7.055   1.031  0.7286 -0.5391 -0.3526
   99MOL0     H13026   8.405   6.893   1.204 -0.6574  1.1821 -0.4159
   99MOL0     H13027   8.273   6.970   1.130  0.5886  0.9497  0.7019
   99MOL0     H13028   8.384   6.685   1.084  0.0440 -1.7564  0.3565
   99MOL0     H13029   8.267   6.753   0.974  1.0734  2.9520 -0.5677
   99MOL0     H13030   8.049   6.769   0.957 -1.8262 -0.7689 -3.2211
   99MOL0     H13031   7.816   6.686   0.937  1.5591 -1.0175 -1.3038
   99MOL0     H13032   7.602   6.206   1.278  0.5654  2.3003 -1.5821
   99MOL0     H13033   7.417   6.056   1.217  2.1813  0.2705 -0.3140
   99MOL0     H13034   6.992   6.051   1.155  1.7373 -2.2346 -0.7567
   99MOL0     H13035   7.036   6.172   1.033 -0.0947  1.1570 -0.1253
   99MOL0     H13036   7.011   6.355   1.207  0.1749  0.4827 -0.4969
   99MOL0     H13037   7.010   6.232   1.332  0.3536  1.0927  0.3593
   99MOL0     H13038   6.798   6.129   1.233  3.9715 -2.4955 -2.8533
   99MOL0     H13039   6.792   6.271   1.128  1.3876 -1.3341 -0.6191
   99MOL0     H13040   6.797   6.247   1.430  1.2112  0.7564 -0.3738
   99MOL0     H13041   6.838   6.398   1.361 -1.3272  0.5508  2.8173
   99MOL0     H13042   6.567   6.284   1.389 -0.3264 -1.0486 -1.0605
   99MOL0     H13043   6.590   6.366   1.242 -3.5661 -1.3945  2.5389
   99MOL0     H13044   6.694   6.559   1.371  1.7232  1.6896  3.4715
   99MOL0     H13045   6.675   6.486   1.519 -0.5000  2.0029  0.4570
   99MOL0     H13046   6.476   6.655   1.441 -3.1841  0.2706 -0.9486
   99MOL0     H13047   6.426   6.524   1.328 -0.5747  0.0981 -0.6304
   99MOL0     H13048   6.406   6.403   1.571  2.7977  0.3379  1.2289
   99MOL0     H13049   6.279   6.522   1.507 -0.7483 -1.2622 -0.2275
   99MOL0     H13050   7.182   6.388   1.090 -1.2196  0.5165  0.7469
   99MOL0     H13051   7.380   6.529   1.091 -3.3675 -1.0493 -0.6221
   99MOL0     H13052   7.831   6.554   1.345 -1.4465  0.3010 -0.3675
   99MOL0     H13053   8.057   6.647   1.364 -0.8175  3.0138  0.6626
   99MOL0     H13054   9.801   6.622   0.673  1.0292 -2.1316  1.7607
   99MOL0     H13055  10.012   6.507   0.628 -0.0587  0.4395 -1.8665
   99MOL0     H13056  10.459   6.285   0.794 -0.9409  0.0798 -0.7345
   99MOL0     H13057  10.691   6.228   0.722  0.1524 -0.4599 -0.3790
   99MOL0     H13058  10.913   6.304   0.757  1.1986 -1.4493 -0.3380
   99MOL0     H13059  11.035   6.379   0.661 -1.6672  2.8566  0.8337
   99MOL0     H13060  10.995   6.106   0.657  1.4872 -2.0366 -0.9341
   99MOL0     H13061  10.865   6.139   0.556  1.1213 -3.0758  2.1814
   99MOL0     H13062  11.017   6.273   0.414  1.8025  0.6443 -0.5066
   99MOL0     H13063  11.053   6.097   0.405 -1.2339 -1.9555  1.9252
   99MOL0     H13064  11.222   6.291   0.577 -0.4478 -1.4545  3.8704
   99MOL0     H13065  11.236   6.125   0.593  0.1110  1.2379  0.0028
   99MOL0     H13066  11.429   6.173   0.226 -0.8605  0.5942 -1.3618
   99MOL0     H13067  10.711   6.600   0.515  2.2514  0.0042  1.8459
   99MOL0     H13068  10.472   6.624   0.534 -2.8347 -2.4521 -0.4073
  100MOL0     O13069   2.795   1.286   5.552  0.0965  0.3946 -0.3654
  100MOL0     C13070   2.883   1.192   5.558 -0.0903 -0.2062 -0.0930
  100MOL0     O13071   2.872   1.068   5.502  0.5000 -0.2513 -0.2917
  100MOL0     C13072   2.764   1.016   5.431 -1.1196 -0.1803  0.3075
  100MOL0     C13073   2.800   0.919   5.336  0.1571 -0.3691 -0.7776
  100MOL0     C13074   2.697   0.839   5.276 -0.5922 -0.0085 -0.4098
  100MOL0     C13075   2.570   0.847   5.329 -0.0393 -0.5185  0.1960
  100MOL0     O13076   2.480   0.750   5.282  0.1127 -0.0195  0.0766
  100MOL0     C13077   2.353   0.746   5.355 -0.7433  0.5277 -0.0593
  100MOL0     C13078   2.302   0.598   5.341  0.2516 -0.3107 -0.9076
  100MOL0     C13079   2.172   0.583   5.421  0.7911  0.5497  1.1940
  100MOL0     C13080   2.054   0.626   5.333  0.0224  0.0187  0.4339
  100MOL0     C13081   1.930   0.541   5.349 -0.3666 -0.0651  0.1397
  100MOL0     C13082   1.819   0.579   5.251  0.5184  1.0308 -0.3309
  100MOL0     C13083   1.736   0.444   5.238  0.1121  0.8616  1.0664
  100MOL0     C13084   1.626   0.453   5.145  0.3149 -0.2570  0.0769
  100MOL0     N13085   1.515   0.517   5.198 -0.5745  0.4339 -0.3694
  100MOL0     C13086   1.395   0.459   5.246 -0.3077 -0.4029 -0.8666
  100MOL0     C13087   1.318   0.562   5.258 -0.9230 -0.8684  0.6472
  100MOL0     C13088   1.177   0.551   5.299 -1.2238  1.0195 -0.4812
  100MOL0     C13089   1.083   0.660   5.225 -0.2686  0.3766 -0.3209
  100MOL0     C13090   1.072   0.622   5.079  0.3506 -0.0235 -0.3029
  100MOL0     C13091   1.029   0.742   4.997 -0.4807  0.5802  0.1220
  100MOL0     O13092   0.911   0.807   5.054 -0.2396 -0.7494  0.5105
  100MOL0     C13093   0.787   0.777   4.999  0.3591 -0.0758  0.1622
  100MOL0     C13094   0.761   0.658   4.921 -0.6970 -0.1160 -0.3274
  100MOL0     C13095   0.632   0.630   4.871  0.0896  0.0208  0.0161
  100MOL0     C13096   0.531   0.727   4.881 -0.3965  0.0110 -0.3472
  100MOL0     C13097   0.401   0.704   4.825 -0.8218 -0.8674 -0.4766
  100MOL0     O13098   0.383   0.592   4.751  0.1856 -0.5303 -0.2077
  100MOL0     C13099   0.264   0.558   4.684  0.2463  0.0380  0.6243
  100MOL0     C13100   0.271   0.472   4.566  0.0984  0.8099  0.3159
  100MOL0     C13101   0.163   0.426   4.492  0.6079  0.7287 -0.3371
  100MOL0     C13102   0.035   0.480   4.526  0.6511 -0.5451 -0.3794
  100MOL0     O13103  -0.077   0.467   4.450 -0.1999 -0.4035 -0.9854
  100MOL0     C13104  -0.064   0.395   4.327 -0.5431  0.2244  0.5002
  100MOL0     C13105  -0.096   0.246   4.341  0.8090  0.0900 -0.1651
  100MOL0     C13106  -0.245   0.235   4.389  0.2937  0.4633 -0.3232
  100MOL0     C13107  -0.293   0.091   4.396 -0.0895  0.2058  0.3258
  100MOL0     C13108  -0.447   0.072   4.408  0.1135  0.6318  0.0786
  100MOL0     C13109  -0.492  -0.071   4.396  0.5527  0.7488 -0.3042
  100MOL0     C13110  -0.639  -0.083   4.441 -0.0191  0.3655  0.0663
  100MOL0     C13111  -0.682  -0.231   4.431 -0.6096 -0.6634  0.4068
  100MOL0    Cl13112  -0.607  -0.313   4.575 -0.1649  0.3189  0.4417
  100MOL0     C13113   0.025   0.568   4.636 -0.6871 -0.3711 -0.6102
  100MOL0     C13114   0.135   0.594   4.715  0.8511 -0.8527 -0.6732
  100MOL0     O13115   0.314   0.779   4.845 -0.4487 -0.5056 -0.1318
  100MOL0     C13116   0.563   0.850   4.943  0.2488  1.1699  0.1488
  100MOL0     C13117   0.682   0.870   5.009 -0.3724 -0.3667 -1.0535
  100MOL0     N13118   1.378   0.678   5.218 -0.0793  0.5425 -0.2681
  100MOL0     N13119   1.501   0.656   5.184  1.0111  0.9345  0.8372
  100MOL0     C13120   2.542   0.937   5.424  0.1028  0.2819 -0.1396
  100MOL0     C13121   2.635   1.022   5.475 -0.0013 -0.6930 -0.5244
  100MOL0     C13122   3.019   1.230   5.591  0.6077 -0.7423  0.3109
  100MOL0     C13123   3.074   1.364   5.566 -0.2740 -0.5320 -0.0700
  100MOL0     C13124   3.208   1.405   5.597  0.7552 -0.6470  0.1804
  100MOL0     C13125   3.278   1.309   5.678  0.3523 -0.6253 -0.5367
  100MOL0     O13126   3.406   1.335   5.715  1.1203  0.0906 -0.6949
  100MOL0     C13127   3.451   1.468   5.690 -0.2699 -0.5118 -0.5275
  100MOL0     C13128   3.596   1.486   5.742  0.0964 -0.1767 -0.0191
  100MOL0     C13129   3.609   1.459   5.889  1.0778  0.5261 -0.4445
  100MOL0     C13130   3.677   1.560   5.972 -0.2921  0.3830 -0.4093
  100MOL0     C13131   3.824   1.542   5.956  0.1944 -0.4496 -0.2950
  100MOL0     C13132   3.942   1.526   5.950 -0.0736  0.5425 -0.6552
  100MOL0     C13133   3.227   1.183   5.713  0.2329 -0.0774  0.3606
  100MOL0     C13134   3.100   1.145   5.673  0.0095  0.8395  0.1128
  100MOL0     H13135   2.905   0.910   5.308  0.2249  0.1153 -0.6970
  100MOL0     H13136   2.721   0.766   5.199 -0.0633 -0.1427 -0.1250
  100MOL0     H13137   2.284   0.822   5.317 -2.3384 -0.6915  0.2987
  100MOL0     H13138   2.376   0.770   5.459  2.6595 -1.1402 -0.2981
  100MOL0     H13139   2.382   0.534   5.380 -1.1423 -1.6227 -0.0844
  100MOL0     H13140   2.293   0.585   5.233 -1.5846  1.3172 -0.9997
  100MOL0     H13141   2.172   0.639   5.515 -1.1478 -1.6244  2.5896
  100MOL0     H13142   2.169   0.478   5.452  0.1176 -0.0039 -0.6040
  100MOL0     H13143   2.015   0.723   5.364  0.1368  0.2367 -0.0902
  100MOL0     H13144   2.077   0.632   5.226 -0.1630 -0.2347  0.3794
  100MOL0     H13145   1.893   0.558   5.451 -3.0777  0.6547 -0.8596
  100MOL0     H13146   1.971   0.444   5.321  1.8662  1.3547 -1.8578
  100MOL0     H13147   1.866   0.626   5.165 -0.2030  1.7040 -0.3735
  100MOL0     H13148   1.755   0.661   5.284  1.4525  0.9038  1.9822
  100MOL0     H13149   1.800   0.368   5.192  0.6521  1.0261  1.5350
  100MOL0     H13150   1.704   0.410   5.336  0.2331  1.4702  1.3242
  100MOL0     H13151   1.594   0.358   5.101 -0.1699  0.3811 -1.0015
  100MOL0     H13152   1.656   0.512   5.058 -2.5550  0.5367 -0.4706
  100MOL0     H13153   1.386   0.358   5.286  3.2469 -0.7946 -0.6996
  100MOL0     H13154   1.174   0.565   5.407 -0.2363  2.8009 -0.6486
  100MOL0     H13155   1.137   0.453   5.272 -3.3035  0.8250  2.7714
  100MOL0     H13156   1.124   0.761   5.235  2.1023 -0.7026  2.1830
  100MOL0     H13157   0.986   0.658   5.275 -1.0328  0.4313 -1.7274
  100MOL0     H13158   1.171   0.593   5.041  1.8699  2.7444  1.2075
  100MOL0     H13159   1.010   0.534   5.060  3.9373 -2.5712 -1.4057
  100MOL0     H13160   1.026   0.720   4.889 -0.9053 -4.3592  0.8821
  100MOL0     H13161   1.112   0.811   5.014 -0.4146  0.7134 -0.7020
  100MOL0     H13162   0.833   0.579   4.905 -1.1151 -0.5412 -0.1439
  100MOL0     H13163   0.609   0.536   4.822 -1.4610 -0.7733  2.1318
  100MOL0     H13164   0.371   0.435   4.548 -0.3218 -0.8671  1.1630
  100MOL0     H13165   0.184   0.349   4.419 -2.8734 -0.3941 -0.3251
  100MOL0     H13166   0.031   0.414   4.276 -0.7457  1.6959  0.6376
  100MOL0     H13167  -0.134   0.443   4.258  0.0899 -0.0350 -0.3453
  100MOL0     H13168  -0.038   0.208   4.426  0.2810  1.9541  1.1123
  100MOL0     H13169  -0.076   0.192   4.248  2.5201  0.3536  0.0108
  100MOL0     H13170  -0.315   0.288   4.323  0.3177  0.1492 -0.6018
  100MOL0     H13171  -0.258   0.282   4.487  2.3007 -1.4012  0.9062
  100MOL0     H13172  -0.259   0.037   4.307 -2.2146 -0.8589  0.0717
  100MOL0     H13173  -0.252   0.048   4.488  0.7028 -0.0487 -0.1449
  100MOL0     H13174  -0.482   0.127   4.320  0.9835 -0.4570 -0.9783
  100MOL0     H13175  -0.503   0.116   4.491 -0.9793 -1.6696  0.6166
  100MOL0     H13176  -0.437  -0.135   4.465 -2.4676  1.5379  3.1562
  100MOL0     H13177  -0.486  -0.092   4.288 -2.0850  1.5378 -0.6644
  100MOL0     H13178  -0.651  -0.049   4.544 -1.1186  1.5806 -0.4228
  100MOL0     H13179  -0.707  -0.023   4.379 -0.8052  0.6131  1.1455
  100MOL0     H13180  -0.671  -0.275   4.332  0.0209 -3.4168  1.6216
  100MOL0     H13181  -0.790  -0.238   4.446 -0.3473 -0.1193  3.3069
  100MOL0     H13182  -0.073   0.609   4.658 -0.5158 -0.5991  0.6648
  100MOL0     H13183   0.110   0.655   4.801  0.2581 -3.7473  1.3724
  100MOL0     H13184   0.490   0.929   4.932 -0.3272  0.6829  0.3858
  100MOL0     H13185   0.705   0.965   5.057 -0.9075 -0.7430 -0.0137
  100MOL0     H13186   2.445   0.941   5.473  0.0918 -0.3910 -0.1046
  100MOL0     H13187   2.609   1.084   5.560  1.5251  1.9953 -1.8861
  100MOL0     H13188   3.010   1.429   5.507  1.3875 -1.9242 -3.6741
  100MOL0     H13189   3.241   1.500   5.555 -0.2993 -0.2229  0.2891
  100MOL0     H13190   3.386   1.542   5.738 -1.2774 -0.9741 -1.1378
  100MOL0     H13191   3.452   1.483   5.581 -0.7680 -1.5369 -0.6817
  100MOL0     H13192   3.660   1.412   5.693 -0.7740 -0.5051 -0.6977
  100MOL0     H13193   3.623   1.588   5.715 -0.5577 -0.5059 -2.0856
  100MOL0     H13194   3.628   1.352   5.903 -2.4535 -0.4444 -1.9800
  100MOL0     H13195   3.505   1.462   5.920  0.2452 -2.5028 -2.4773
  100MOL0     H13196   3.628   1.657   5.954 -2.2853 -0.1190  1.8208
  100MOL0     H13197   3.661   1.530   6.075 -3.6789  2.5278 -0.1248
  100MOL0     H13198   4.048   1.536   5.936 -0.0117  0.3757 -0.3058
  100MOL0     H13199   3.289   1.115   5.770  0.1325 -1.8994 -1.5848
  100MOL0     H13200   3.059   1.051   5.708  1.0007 -0.1006 -1.1743
  101MOL0     O13201   4.568   0.065  10.456 -0.0815  1.1134 -0.5527
  101MOL0     C13202   4.585  -0.024  10.375 -0.5358  0.5592 -0.0537
  101MOL0     O13203   4.511  -0.130  10.343  0.1859 -0.4230  0.6718
  101MOL0     C13204   4.374  -0.120  10.363 -0.6285 -0.7670  0.1401
  101MOL0     C13205   4.309  -0.092  10.481 -0.5765  0.1379 -0.5937
  101MOL0     C13206   4.169  -0.101  10.503 -0.2286 -1.1193 -0.7157
  101MOL0     C13207   4.088  -0.134  10.390 -0.5379 -1.0169 -0.0536
  101MOL0     O13208   3.951  -0.144  10.398 -0.7191 -0.2354  0.1008
  101MOL0     C13209   3.889  -0.020  10.433  0.5295  0.1801 -0.2100
  101MOL0     C13210   3.734  -0.036  10.453 -0.7112 -0.0984  0.0869
  101MOL0     C13211   3.659  -0.079  10.340  0.1176 -0.0845 -0.8562
  101MOL0     C13212   3.511  -0.073  10.379  1.0145  0.0130 -0.1481
  101MOL0     C13213   3.428  -0.093  10.246 -0.9090  0.0312 -0.0571
  101MOL0     C13214   3.418  -0.247  10.223 -0.0881 -0.1467  0.1506
  101MOL0     C13215   3.289  -0.283  10.160 -0.2388  0.6396 -0.3165
  101MOL0     C13216   3.267  -0.432  10.136  0.6710  0.2984 -0.3005
  101MOL0     N13217   3.141  -0.446  10.063 -0.1614  0.6665 -0.0124
  101MOL0     C13218   3.021  -0.402  10.109  0.2262  0.7349  0.2274
  101MOL0     C13219   2.947  -0.379   9.997 -0.1255  0.1518 -0.5242
  101MOL0     C13220   2.810  -0.320   9.975 -0.2085 -0.0025  0.2010
  101MOL0     C13221   2.810  -0.177   9.906  0.0941  0.5494 -0.2525
  101MOL0     C13222   2.686  -0.153   9.819 -0.2164 -0.7998 -0.6748
  101MOL0     C13223   2.552  -0.169   9.885  0.4394 -0.2703  0.3170
  101MOL0     O13224   2.445  -0.158   9.782  0.4010 -0.3051  0.1063
  101MOL0     C13225   2.315  -0.172   9.831 -0.3818  0.3224 -0.2558
  101MOL0     C13226   2.293  -0.229   9.960 -0.4681  0.1055 -0.2862
  101MOL0     C13227   2.159  -0.242  10.005 -0.3132  0.0549 -0.1338
  101MOL0     C13228   2.052  -0.202   9.921 -0.1730  0.0107  0.7071
  101MOL0     C13229   1.912  -0.217   9.965 -0.3608  0.1337 -0.2202
  101MOL0     O13230   1.812  -0.205   9.876  0.9085  0.0229  0.6224
  101MOL0     C13231   1.688  -0.176   9.929 -0.3687  0.3082 -0.4238
  101MOL0     C13232   1.615  -0.279   9.999  0.0551 -1.1244  0.2540
  101MOL0     C13233   1.491  -0.246  10.054 -0.1738 -0.8194 -0.1437
  101MOL0     C13234   1.442  -0.111  10.036 -1.3423 -0.2628 -0.2875
  101MOL0     O13235   1.323  -0.075  10.087  0.4701 -0.6532 -0.0532
  101MOL0     C13236   1.267  -0.129  10.209  0.0564 -0.2035 -0.1456
  101MOL0     C13237   1.136  -0.221  10.202 -0.0186 -0.6634  0.6121
  101MOL0     C13238   1.060  -0.218  10.328  0.3695 -0.0402  0.1135
  101MOL0     C13239   0.928  -0.286  10.308 -0.0470 -0.0928  0.1096
  101MOL0     C13240   0.867  -0.321  10.443 -0.6732  0.2114 -0.0482
  101MOL0     C13241   0.735  -0.400  10.418 -0.0516 -0.3750  0.1670
  101MOL0     C13242   0.688  -0.464  10.547 -0.0935 -0.5213 -0.1625
  101MOL0     C13243   0.579  -0.569  10.523 -0.6979 -0.7093  0.2683
  101MOL0    Cl13244   0.652  -0.713  10.450  0.1269 -0.3364  0.0636
  101MOL0     C13245   1.517  -0.016   9.961  0.1252 -0.3772  0.3958
  101MOL0     C13246   1.645  -0.045   9.908 -0.2994  0.4779 -0.4119
  101MOL0     O13247   1.898  -0.250  10.084  0.3270 -0.3740 -0.5546
  101MOL0     C13248   2.080  -0.139   9.793 -0.6239  0.1870 -0.2095
  101MOL0     C13249   2.214  -0.120   9.757 -0.0823  0.3942  0.1784
  101MOL0     N13250   3.022  -0.415   9.886  0.0092 -0.2136 -0.0958
  101MOL0     N13251   3.139  -0.463   9.930 -0.2750  0.7163  0.3595
  101MOL0     C13252   4.150  -0.139  10.267  0.2803  0.2836 -0.2904
  101MOL0     C13253   4.287  -0.127  10.254 -0.8346  0.6068 -0.4730
  101MOL0     C13254   4.713  -0.021  10.301  0.0746  0.7018  0.0107
  101MOL0     C13255   4.737  -0.114  10.199 -0.1655 -0.3473 -0.0894
  101MOL0     C13256   4.861  -0.123  10.141  0.0140  0.0433 -0.4330
  101MOL0     C13257   4.965  -0.035  10.182 -0.3162  0.0393  0.6486
  101MOL0     O13258   5.096  -0.036  10.141 -1.1546  0.9847 -0.4415
  101MOL0     C13259   5.150  -0.155  10.076 -0.0217 -0.1423 -0.2313
  101MOL0     C13260   5.294  -0.163  10.087 -0.1082  0.2552 -0.0159
  101MOL0     C13261   5.365  -0.033  10.027 -0.4200  0.4342  0.0970
  101MOL0     C13262   5.516  -0.064  10.001 -0.1651  0.5270  0.0882
  101MOL0     C13263   5.580   0.054   9.952 -0.0023 -0.7067  0.7437
  101MOL0     C13264   5.652   0.148   9.924  1.0771 -0.3903  0.5380
  101MOL0     C13265   4.939   0.060  10.291 -0.4404  0.3843 -0.3491
  101MOL0     C13266   4.814   0.065  10.350  0.4099  0.1413  0.1967
  101MOL0     H13267   4.372  -0.081  10.569 -0.1591 -3.6060 -0.2554
  101MOL0     H13268   4.119  -0.065  10.592  0.2442  2.6365 -1.7593
  101MOL0     H13269   3.906   0.051  10.351 -1.8307  0.9083 -0.1189
  101MOL0     H13270   3.935   0.021  10.524 -0.8140  0.1770  0.4817
  101MOL0     H13271   3.703   0.067  10.474 -2.4533 -0.0092 -2.5415
  101MOL0     H13272   3.709  -0.099  10.539  0.0688  1.2507  1.3551
  101MOL0     H13273   3.693  -0.181  10.317  2.4231  0.1980  0.9301
  101MOL0     H13274   3.682  -0.017  10.253 -0.9108 -0.0317 -1.0932
  101MOL0     H13275   3.482  -0.129  10.468  0.9214  1.2578  0.6292
  101MOL0     H13276   3.491   0.030  10.410  1.1100  0.1980 -0.6955
  101MOL0     H13277   3.453  -0.035  10.156  0.6362 -1.5179 -0.7029
  101MOL0     H13278   3.326  -0.059  10.266 -1.3453 -1.3873  0.2032
  101MOL0     H13279   3.435  -0.308  10.313  2.6190 -0.8094 -0.7083
  101MOL0     H13280   3.505  -0.278  10.165 -1.5890 -1.4840 -1.5175
  101MOL0     H13281   3.204  -0.249  10.220 -1.6507 -2.7354 -0.1886
  101MOL0     H13282   3.288  -0.228  10.065  0.8049  1.2211 -0.0074
  101MOL0     H13283   3.246  -0.485  10.230 -2.0764  0.8044 -0.5331
  101MOL0     H13284   3.357  -0.474  10.091  0.9011  2.0986 -1.6313
  101MOL0     H13285   2.988  -0.371  10.208  0.1336 -1.9437  1.1197
  101MOL0     H13286   2.757  -0.308  10.070  1.6948 -1.2100  1.4888
  101MOL0     H13287   2.753  -0.390   9.913 -2.3829  0.2096  1.8067
  101MOL0     H13288   2.899  -0.168   9.842 -0.5875  1.7143 -1.0696
  101MOL0     H13289   2.821  -0.101   9.983 -0.5889 -0.9462  1.3672
  101MOL0     H13290   2.684  -0.049   9.785  4.1410 -0.3495 -0.1255
  101MOL0     H13291   2.696  -0.218   9.731  2.9242  0.0462 -1.0393
  101MOL0     H13292   2.517  -0.107   9.968 -1.9358 -1.6539  0.4284
  101MOL0     H13293   2.552  -0.272   9.920 -2.9785 -0.0036  1.4851
  101MOL0     H13294   2.366  -0.264  10.032 -2.5892 -0.6279  1.6106
  101MOL0     H13295   2.152  -0.287  10.104  0.5545  0.1431 -0.0213
  101MOL0     H13296   1.653  -0.377  10.026 -2.4982 -1.3848  3.6444
  101MOL0     H13297   1.441  -0.318  10.118  0.4178  0.1335  1.4580
  101MOL0     H13298   1.236  -0.039  10.263  1.0756  1.6859 -2.5031
  101MOL0     H13299   1.349  -0.182  10.258  0.7665 -1.8078 -2.8080
  101MOL0     H13300   1.164  -0.324  10.179 -1.1349 -1.1737  1.3987
  101MOL0     H13301   1.083  -0.176  10.118 -0.0333  0.5951  1.2712
  101MOL0     H13302   1.039  -0.115  10.360 -2.5685 -0.6009  0.3330
  101MOL0     H13303   1.117  -0.266  10.408  2.8047 -1.0193 -2.0745
  101MOL0     H13304   0.870  -0.215  10.249  0.0155 -1.7222 -2.0563
  101MOL0     H13305   0.935  -0.373  10.242  1.2239 -1.2771  1.7115
  101MOL0     H13306   0.853  -0.227  10.496  0.3655  1.0860 -1.2725
  101MOL0     H13307   0.938  -0.377  10.504  1.1997  2.0323 -0.4346
  101MOL0     H13308   0.744  -0.475  10.340  0.3667 -1.0839  0.8843
  101MOL0     H13309   0.662  -0.325  10.386 -1.5994 -1.9882 -0.2222
  101MOL0     H13310   0.767  -0.511  10.606 -1.0559  1.9986  3.4438
  101MOL0     H13311   0.658  -0.386  10.617  2.5936 -2.1797  3.1635
  101MOL0     H13312   0.505  -0.519  10.460 -1.6741 -0.8518  1.2716
  101MOL0     H13313   0.534  -0.595  10.619  1.6679 -0.8852  1.3975
  101MOL0     H13314   1.483   0.088   9.965  1.3487  0.0099  1.2391
  101MOL0     H13315   1.698   0.031   9.852 -1.2401  0.6075 -1.1580
  101MOL0     H13316   2.001  -0.098   9.731  0.0984  1.7962 -0.1171
  101MOL0     H13317   2.226  -0.064   9.665 -0.9064 -0.4588 -0.4669
  101MOL0     H13318   4.092  -0.145  10.176 -0.0055  0.1947 -0.1015
  101MOL0     H13319   4.342  -0.136  10.161 -1.1342 -1.3842 -0.5027
  101MOL0     H13320   4.654  -0.171  10.159  1.2023 -2.5149 -0.0541
  101MOL0     H13321   4.874  -0.193  10.059 -1.9721 -1.8708  0.7359
  101MOL0     H13322   5.122  -0.140   9.972 -1.1209  3.4118  0.4453
  101MOL0     H13323   5.098  -0.246  10.106 -2.7851  1.4115  0.0298
  101MOL0     H13324   5.313  -0.167  10.194 -4.0666  1.4091  0.8957
  101MOL0     H13325   5.331  -0.255  10.041  0.6849 -0.7993  2.5686
  101MOL0     H13326   5.348   0.051  10.095  0.5009 -1.3571  2.6627
  101MOL0     H13327   5.321  -0.014   9.929 -2.1984 -0.5099  0.6603
  101MOL0     H13328   5.565  -0.089  10.096 -0.1868 -0.0598 -0.0562
  101MOL0     H13329   5.548  -0.150   9.942 -0.0770  0.7938 -0.2528
  101MOL0     H13330   5.715   0.227   9.888  0.7705 -0.6580 -0.6410
  101MOL0     H13331   5.005   0.133  10.338 -0.8125  0.2962  0.3252
  101MOL0     H13332   4.789   0.128  10.434 -1.2355  2.6837 -2.0331
  102MOL0     O13333   4.500   4.577   1.868 -1.0667 -0.2855  0.4611
  102MOL0     C13334   4.460   4.523   1.764 -0.6197  1.1521  0.2125
  102MOL0     O13335   4.342   4.551   1.695  0.3738 -0.2135 -0.4102
  102MOL0     C13336   4.267   4.655   1.741  0.7899  0.3136  0.2022
  102MOL0     C13337   4.165   4.641   1.837  0.1683 -0.5439 -0.2091
  102MOL0     C13338   4.087   4.750   1.867  0.5959 -0.1157 -0.0941
  102MOL0     C13339   4.108   4.875   1.815  0.2085 -0.1721  0.6120
  102MOL0     O13340   4.027   4.976   1.877 -0.0219  0.0487  0.9501
  102MOL0     C13341   4.031   5.112   1.823 -0.0759  0.2308  1.1035
  102MOL0     C13342   3.940   5.208   1.911 -0.0466  0.0050  0.6072
  102MOL0     C13343   3.802   5.208   1.868  0.5289  0.8276  0.2476
  102MOL0     C13344   3.720   5.294   1.969 -0.1728 -0.5588 -0.1042
  102MOL0     C13345   3.568   5.284   1.942  0.9075  0.0854  0.2964
  102MOL0     C13346   3.520   5.345   1.810  0.6464  0.0667  0.6886
  102MOL0     C13347   3.370   5.364   1.831  0.3875  0.0660  0.4656
  102MOL0     C13348   3.310   5.432   1.701  0.1306  0.0471 -0.0727
  102MOL0     N13349   3.180   5.498   1.728 -0.1611  0.5341  0.6881
  102MOL0     C13350   3.151   5.562   1.841  0.0454  0.7962  0.3232
  102MOL0     C13351   3.025   5.612   1.821 -0.9650 -1.0235 -0.3800
  102MOL0     C13352   2.947   5.700   1.916 -0.0880 -1.1638 -0.9198
  102MOL0     C13353   3.022   5.739   2.047 -0.5106  0.2053 -0.3755
  102MOL0     C13354   2.935   5.837   2.118  0.2778 -0.8611 -1.3160
  102MOL0     C13355   2.811   5.783   2.176  0.1124 -0.1783 -0.6644
  102MOL0     O13356   2.855   5.677   2.262  0.4329 -0.3620  0.4539
  102MOL0     C13357   2.766   5.610   2.338 -0.2769  0.5110  0.6908
  102MOL0     C13358   2.651   5.664   2.400  0.8301 -0.6168  0.2672
  102MOL0     C13359   2.567   5.578   2.475 -0.1638 -0.1328  0.1771
  102MOL0     C13360   2.584   5.439   2.471  0.4999 -0.4404  0.1301
  102MOL0     C13361   2.483   5.357   2.544  0.3444 -0.7970 -0.2421
  102MOL0     O13362   2.373   5.417   2.599 -0.0897  0.2309  0.5315
  102MOL0     C13363   2.293   5.371   2.701  0.1944 -0.7403 -0.0795
  102MOL0     C13364   2.162   5.416   2.703  1.0610  0.6265 -0.0521
  102MOL0     C13365   2.072   5.386   2.810  0.2462  0.6550  0.1827
  102MOL0     C13366   2.110   5.297   2.909 -0.2560  0.0206  0.1183
  102MOL0     O13367   2.030   5.258   3.013  0.0718 -0.1234  0.9456
  102MOL0     C13368   1.896   5.221   2.976 -0.5199 -0.1419  0.2894
  102MOL0     C13369   1.816   5.179   3.097  1.0063 -0.0659 -0.2948
  102MOL0     C13370   1.664   5.140   3.065 -0.2907 -0.4329  0.0765
  102MOL0     C13371   1.580   5.099   3.187 -0.3060 -0.0935  0.7765
  102MOL0     C13372   1.433   5.061   3.134 -0.0660  0.0853 -0.5301
  102MOL0     C13373   1.354   5.002   3.249  0.0207 -0.2308  0.3650
  102MOL0     C13374   1.203   4.991   3.207  0.7986 -0.6724  0.4243
  102MOL0     C13375   1.125   4.896   3.308  0.6813  0.1119  0.9644
  102MOL0    Cl13376   0.959   4.909   3.259 -0.1377 -0.2391 -0.5285
  102MOL0     C13377   2.250   5.265   2.914 -0.3507  0.1508 -0.1757
  102MOL0     C13378   2.343   5.299   2.807 -0.4604  0.1208 -0.2140
  102MOL0     O13379   2.513   5.237   2.557 -0.8613 -0.1638 -0.1753
  102MOL0     C13380   2.700   5.388   2.407 -0.1170 -0.7433 -0.0096
  102MOL0     C13381   2.787   5.473   2.337  0.4119 -0.3587 -0.2587
  102MOL0     N13382   2.989   5.590   1.690  0.3593  0.1589 -0.1945
  102MOL0     N13383   3.075   5.516   1.636 -0.6562  0.3816 -0.1887
  102MOL0     C13384   4.204   4.892   1.714 -0.3376 -0.2987 -0.5002
  102MOL0     C13385   4.284   4.780   1.685 -0.5300 -0.8121  0.0928
  102MOL0     C13386   4.564   4.449   1.688 -0.0552 -0.1745  0.6848
  102MOL0     C13387   4.546   4.417   1.551  0.4499  0.2914  0.3021
  102MOL0     C13388   4.639   4.327   1.488  0.6788  0.7284  1.0060
  102MOL0     C13389   4.752   4.279   1.554  0.4118  0.0716 -0.6040
  102MOL0     O13390   4.843   4.190   1.501  0.3224  0.4194 -0.3010
  102MOL0     C13391   4.864   4.159   1.359 -0.1180  0.1889 -0.3439
  102MOL0     C13392   4.766   4.055   1.304 -0.1779 -0.2949  0.6571
  102MOL0     C13393   4.806   3.982   1.180  0.9049 -0.7804  0.2807
  102MOL0     C13394   4.711   3.865   1.139 -0.7075 -0.1016  0.5710
  102MOL0     C13395   4.695   3.763   1.243  0.0372 -0.0231 -0.1029
  102MOL0     C13396   4.682   3.672   1.324 -0.5055 -0.0814  0.1348
  102MOL0     C13397   4.762   4.313   1.680  0.0424  0.0369 -0.2664
  102MOL0     C13398   4.681   4.402   1.744 -0.1835 -0.5715  0.2051
  102MOL0     H13399   4.155   4.549   1.894  1.2987 -0.5330  0.0498
  102MOL0     H13400   4.002   4.740   1.935  2.2072  1.4571  2.2979
  102MOL0     H13401   3.978   5.125   1.729 -2.7887  3.5407  2.8351
  102MOL0     H13402   4.133   5.153   1.817 -0.4519  0.9995 -0.5151
  102MOL0     H13403   3.992   5.304   1.917  0.5748 -0.3197  0.5320
  102MOL0     H13404   3.940   5.164   2.012 -1.0146  0.8770  1.0018
  102MOL0     H13405   3.755   5.110   1.869 -3.0495  2.3863  1.2044
  102MOL0     H13406   3.797   5.260   1.772 -1.0407  0.5138  0.1417
  102MOL0     H13407   3.729   5.255   2.071 -0.9088  3.3943  1.6818
  102MOL0     H13408   3.755   5.398   1.973  0.1864 -0.6941  0.5024
  102MOL0     H13409   3.520   5.350   2.014 -0.3442  0.9527 -1.2766
  102MOL0     H13410   3.538   5.179   1.956  2.9755 -0.4340  1.3395
  102MOL0     H13411   3.546   5.278   1.728 -0.4833 -1.0682  1.2291
  102MOL0     H13412   3.562   5.445   1.795 -1.1637  0.6877 -0.5532
  102MOL0     H13413   3.325   5.264   1.836  0.3575 -0.0917 -1.9365
  102MOL0     H13414   3.351   5.426   1.919 -0.1197 -0.7256  0.9236
  102MOL0     H13415   3.295   5.353   1.628 -0.1372 -0.4814  0.5450
  102MOL0     H13416   3.386   5.491   1.649 -0.1157 -1.6093 -2.4212
  102MOL0     H13417   3.206   5.551   1.934  3.2657 -1.8977 -1.6760
  102MOL0     H13418   2.865   5.637   1.952 -1.7756  1.7607  0.7024
  102MOL0     H13419   2.907   5.789   1.866  0.6329 -0.0163  0.4825
  102MOL0     H13420   3.123   5.775   2.027 -0.7507 -0.0632 -2.3343
  102MOL0     H13421   3.035   5.645   2.100  2.5404  1.0544  0.5892
  102MOL0     H13422   2.994   5.866   2.205 -1.8829  0.3098 -0.1628
  102MOL0     H13423   2.911   5.924   2.056 -4.3355 -0.6455  0.3964
  102MOL0     H13424   2.752   5.748   2.090 -2.6278 -2.5129  1.9572
  102MOL0     H13425   2.759   5.865   2.227  0.6731  0.7576 -1.5565
  102MOL0     H13426   2.636   5.771   2.391  0.1232 -0.6393  1.0289
  102MOL0     H13427   2.480   5.614   2.529 -1.0943 -2.2392  0.1761
  102MOL0     H13428   2.143   5.497   2.634 -1.9338  1.4656  1.5890
  102MOL0     H13429   1.973   5.428   2.796  0.5498  1.5133  0.5792
  102MOL0     H13430   1.882   5.136   2.909 -2.6103  0.8230 -0.5657
  102MOL0     H13431   1.851   5.310   2.932 -1.4824  0.3108  2.1014
  102MOL0     H13432   1.823   5.254   3.177  1.3479 -4.3157  4.0987
  102MOL0     H13433   1.868   5.093   3.140 -0.2257 -1.6258 -1.7997
  102MOL0     H13434   1.672   5.067   2.984 -1.0029 -0.1580 -0.2503
  102MOL0     H13435   1.625   5.227   3.011  1.6433 -0.7463 -1.9921
  102MOL0     H13436   1.625   5.008   3.228  0.2187  0.2098  0.8821
  102MOL0     H13437   1.574   5.171   3.269  1.2830  0.3299  0.5632
  102MOL0     H13438   1.435   4.998   3.045 -1.2157 -1.3339  0.3969
  102MOL0     H13439   1.393   5.157   3.101  0.8770  0.1662 -1.4782
  102MOL0     H13440   1.369   5.067   3.336 -2.1631  0.6868  0.1179
  102MOL0     H13441   1.397   4.906   3.280  1.5971  0.1270 -0.6208
  102MOL0     H13442   1.154   5.088   3.217 -0.4645 -1.1272 -0.9338
  102MOL0     H13443   1.202   4.954   3.104  0.4362  0.0900  0.1509
  102MOL0     H13444   1.145   4.934   3.408  0.9179 -1.0310  1.3679
  102MOL0     H13445   1.153   4.791   3.299 -0.2659 -0.1306  0.7226
  102MOL0     H13446   2.267   5.189   2.989  0.5402  2.1878  1.8176
  102MOL0     H13447   2.444   5.261   2.823 -0.9823 -0.6971  1.3575
  102MOL0     H13448   2.732   5.285   2.415  0.6505 -0.5268 -0.2136
  102MOL0     H13449   2.870   5.430   2.282 -1.5597 -0.6960 -3.2468
  102MOL0     H13450   4.215   4.991   1.670  1.0943 -0.6603 -1.0077
  102MOL0     H13451   4.364   4.808   1.616  0.3449  2.1748  2.1105
  102MOL0     H13452   4.457   4.431   1.490  1.5377 -2.1109 -2.0563
  102MOL0     H13453   4.628   4.288   1.387  0.8652  3.2585 -0.0557
  102MOL0     H13454   4.965   4.118   1.352  0.9638  2.3035  1.4990
  102MOL0     H13455   4.865   4.244   1.291 -1.5474  0.6419  0.1469
  102MOL0     H13456   4.755   3.980   1.383 -2.9525 -2.9519 -1.9843
  102MOL0     H13457   4.667   4.098   1.292  0.9551  2.1058 -0.9840
  102MOL0     H13458   4.910   3.949   1.177  2.3708  3.2408 -0.2991
  102MOL0     H13459   4.805   4.055   1.098 -1.1455  1.3098  2.0280
  102MOL0     H13460   4.620   3.917   1.108 -0.4253 -0.4954 -0.9604
  102MOL0     H13461   4.745   3.814   1.049  0.1893  2.4189 -0.6339
  102MOL0     H13462   4.683   3.583   1.383 -4.7941  0.2402  1.0534
  102MOL0     H13463   4.854   4.286   1.731 -0.0557 -0.4503 -0.3452
  102MOL0     H13464   4.712   4.435   1.842 -1.8550  0.5391  0.4102
  103MOL0     O13465   3.108   8.253   0.364 -0.4361  0.0008  0.0141
  103MOL0     C13466   3.216   8.280   0.303 -0.4166  0.7897  0.5973
  103MOL0     O13467   3.233   8.259   0.173  0.5186 -0.0583 -0.4108
  103MOL0     C13468   3.127   8.220   0.097 -0.5582  0.2404 -0.7751
  103MOL0     C13469   3.050   8.109   0.121 -0.5084  0.7537 -0.2571
  103MOL0     C13470   2.934   8.097   0.053 -0.6651 -0.2137 -0.2041
  103MOL0     C13471   2.895   8.191  -0.047  0.6438  0.2251 -0.4546
  103MOL0     O13472   2.774   8.182  -0.112  0.1420  0.3250 -0.3940
  103MOL0     C13473   2.743   8.056  -0.168 -0.0137  0.2464  0.1727
  103MOL0     C13474   2.668   8.086  -0.300  0.4080 -0.7015  0.1826
  103MOL0     C13475   2.524   8.138  -0.295  0.2721  0.1109 -0.0620
  103MOL0     C13476   2.439   8.086  -0.416 -0.8488  0.0157 -1.0654
  103MOL0     C13477   2.289   8.110  -0.396 -0.0055  0.5204  0.5862
  103MOL0     C13478   2.221   8.106  -0.536 -0.5416 -0.0708 -0.2899
  103MOL0     C13479   2.078   8.118  -0.520 -0.5493  0.0505  0.2787
  103MOL0     C13480   2.007   8.149  -0.646 -0.2053  0.8648  0.5957
  103MOL0     N13481   1.866   8.141  -0.630  0.1507 -0.1927  0.4777
  103MOL0     C13482   1.783   8.249  -0.648  0.3218 -0.5427 -0.6793
  103MOL0     C13483   1.660   8.203  -0.626  0.5880  0.6116 -0.8679
  103MOL0     C13484   1.533   8.279  -0.655  0.8174 -0.2948  0.4113
  103MOL0     C13485   1.497   8.258  -0.797  1.2404 -1.0230 -0.0207
  103MOL0     C13486   1.362   8.343  -0.821 -0.1196  0.3686 -0.2580
  103MOL0     C13487   1.239   8.246  -0.837 -1.0988 -0.6068  0.3176
  103MOL0     O13488   1.131   8.331  -0.878  0.1566  0.4984  0.6699
  103MOL0     C13489   1.006   8.279  -0.897 -0.5477 -0.0017  0.1961
  103MOL0     C13490   0.915   8.365  -0.941  0.3070 -0.1678 -0.0438
  103MOL0     C13491   0.781   8.327  -0.956  0.0468  0.3170  0.0508
  103MOL0     C13492   0.734   8.195  -0.915 -0.3847 -1.2258 -0.1394
  103MOL0     C13493   0.595   8.156  -0.936  0.8357  0.1762 -0.0518
  103MOL0     O13494   0.496   8.261  -0.949 -0.4842  0.2434  0.1327
  103MOL0     C13495   0.362   8.226  -0.983 -0.1999 -0.9315  0.0456
  103MOL0     C13496   0.277   8.337  -1.003 -0.7508 -0.2629 -0.1955
  103MOL0     C13497   0.144   8.327  -1.015  0.0848  0.3676  0.5139
  103MOL0     C13498   0.080   8.205  -1.020  0.2595  0.1042  0.2153
  103MOL0     O13499  -0.060   8.207  -1.037  0.3391  0.3497  0.2818
  103MOL0     C13500  -0.121   8.103  -0.957 -0.0440  0.0772  0.4493
  103MOL0     C13501  -0.269   8.105  -0.946  0.3404  0.1404 -0.7061
  103MOL0     C13502  -0.330   7.994  -0.854 -0.3741  0.7027 -0.0350
  103MOL0     C13503  -0.480   8.026  -0.809 -0.3275 -0.1097  0.4974
  103MOL0     C13504  -0.533   7.898  -0.744  0.1826 -0.4435  0.6688
  103MOL0     C13505  -0.674   7.914  -0.697  0.2075 -0.7803  0.8102
  103MOL0     C13506  -0.719   7.779  -0.640  0.1019 -0.3280 -0.8328
  103MOL0     C13507  -0.865   7.759  -0.652  0.1555 -0.3270  0.3898
  103MOL0    Cl13508  -0.924   7.650  -0.512  0.3840 -0.3134  0.2204
  103MOL0     C13509   0.156   8.092  -1.026 -0.4612  0.2213 -0.2003
  103MOL0     C13510   0.300   8.098  -1.008  0.8190 -0.0612 -0.0525
  103MOL0     O13511   0.570   8.036  -0.916 -1.1032  0.0056 -0.1865
  103MOL0     C13512   0.834   8.103  -0.866  0.3446 -0.5134  0.3813
  103MOL0     C13513   0.964   8.150  -0.850  0.6547 -0.2802  0.8466
  103MOL0     N13514   1.662   8.058  -0.607 -0.1423 -0.7017 -0.7093
  103MOL0     N13515   1.793   8.028  -0.599  0.1978 -1.8140  0.1668
  103MOL0     C13516   2.968   8.305  -0.065 -1.0834 -0.0260 -0.2651
  103MOL0     C13517   3.090   8.313   0.000 -0.1578  0.5141 -0.2914
  103MOL0     C13518   3.342   8.323   0.380  0.0913  0.5387 -0.1259
  103MOL0     C13519   3.467   8.330   0.315  0.3009  0.7247 -0.0075
  103MOL0     C13520   3.587   8.360   0.376  0.0882  0.1699 -0.0188
  103MOL0     C13521   3.577   8.392   0.513  0.4260  0.0251 -0.7031
  103MOL0     O13522   3.690   8.427   0.589  0.6756  0.1823 -0.5705
  103MOL0     C13523   3.816   8.410   0.533  0.2762 -0.3493  0.4574
  103MOL0     C13524   3.914   8.385   0.650 -0.1621  0.9558  0.2507
  103MOL0     C13525   3.954   8.513   0.728  0.2390  0.2755 -0.0915
  103MOL0     C13526   3.849   8.590   0.803 -0.5738  0.6188  0.4910
  103MOL0     C13527   3.916   8.685   0.887 -0.1701  1.1046 -0.6213
  103MOL0     C13528   3.979   8.758   0.962 -0.4577  0.5124 -0.4164
  103MOL0     C13529   3.454   8.394   0.578 -0.1788  0.1767  0.2462
  103MOL0     C13530   3.334   8.355   0.515 -1.2763  0.3004 -1.2809
  103MOL0     H13531   3.079   8.051   0.208  0.3563  2.4719  0.6503
  103MOL0     H13532   2.867   8.014   0.071  3.2712 -3.6160  0.1245
  103MOL0     H13533   2.676   8.012  -0.094  2.1822 -0.4292  1.8779
  103MOL0     H13534   2.827   7.988  -0.181 -0.7975 -1.0335  1.4963
  103MOL0     H13535   2.658   7.992  -0.355 -1.6845  0.5391 -1.7599
  103MOL0     H13536   2.729   8.150  -0.364 -0.5548  0.1979  0.1431
  103MOL0     H13537   2.528   8.247  -0.293  0.6981  0.2065  4.3719
  103MOL0     H13538   2.475   8.105  -0.203  0.8158  0.3637  0.3190
  103MOL0     H13539   2.474   8.144  -0.502  0.3401 -0.1254 -0.7050
  103MOL0     H13540   2.451   7.977  -0.422 -3.2105 -0.2919 -0.9348
  103MOL0     H13541   2.271   8.197  -0.332  1.0066  0.5915  0.7943
  103MOL0     H13542   2.253   8.024  -0.339 -1.1878  0.4298 -0.2517
  103MOL0     H13543   2.247   8.007  -0.577 -2.2429 -1.4340  1.7052
  103MOL0     H13544   2.259   8.190  -0.595 -3.4904  1.5842 -0.0020
  103MOL0     H13545   2.050   8.033  -0.457  1.1444  0.7105  2.0451
  103MOL0     H13546   2.056   8.209  -0.463 -2.4863 -0.9995  1.3161
  103MOL0     H13547   2.036   8.071  -0.717  0.6184  0.9932  0.7861
  103MOL0     H13548   2.052   8.236  -0.696 -0.3634  0.2930 -0.5859
  103MOL0     H13549   1.803   8.351  -0.678 -2.4266 -0.0141 -1.0543
  103MOL0     H13550   1.555   8.382  -0.625  2.6331 -0.9132  1.3889
  103MOL0     H13551   1.454   8.244  -0.588  1.8528  1.2548  2.5347
  103MOL0     H13552   1.484   8.149  -0.803 -0.3813 -0.9206  1.0174
  103MOL0     H13553   1.578   8.293  -0.862 -1.1165  1.2711 -1.9591
  103MOL0     H13554   1.356   8.420  -0.744  4.1012  1.9927 -1.2649
  103MOL0     H13555   1.380   8.393  -0.917 -0.5198  2.7929  0.8605
  103MOL0     H13556   1.225   8.188  -0.745 -0.6643  2.6212  2.5967
  103MOL0     H13557   1.251   8.169  -0.913 -1.3655 -0.1110 -0.2356
  103MOL0     H13558   0.934   8.470  -0.962  0.0429  0.4449  2.5515
  103MOL0     H13559   0.720   8.413  -0.984  0.3639 -0.1181 -2.2043
  103MOL0     H13560   0.333   8.428  -0.985  0.0033 -1.1928  2.7482
  103MOL0     H13561   0.083   8.417  -1.019 -0.6291  0.0054  2.2802
  103MOL0     H13562  -0.098   8.112  -0.850  0.7895  1.2470  0.1992
  103MOL0     H13563  -0.099   8.004  -0.998  2.9156 -0.9520  3.9354
  103MOL0     H13564  -0.310   8.098  -1.047 -1.3862  0.9135 -0.1086
  103MOL0     H13565  -0.293   8.204  -0.905 -2.5556 -1.4872  2.0282
  103MOL0     H13566  -0.254   7.979  -0.777  4.2364 -2.6153 -4.5700
  103MOL0     H13567  -0.330   7.909  -0.922  1.6161  0.4486  0.2450
  103MOL0     H13568  -0.470   8.110  -0.740 -0.5732  0.1526  0.2155
  103MOL0     H13569  -0.529   8.065  -0.899  2.1152  0.7736 -0.5353
  103MOL0     H13570  -0.460   7.866  -0.668  1.4004  3.1055  1.1823
  103MOL0     H13571  -0.542   7.815  -0.815  4.1914  1.6302 -2.6788
  103MOL0     H13572  -0.739   7.945  -0.779  0.8646 -0.9524  0.2147
  103MOL0     H13573  -0.672   7.987  -0.615 -1.2653 -0.3839  0.5252
  103MOL0     H13574  -0.679   7.694  -0.696 -1.2290  0.3783 -2.9433
  103MOL0     H13575  -0.691   7.764  -0.535  1.0709 -0.0942 -1.0491
  103MOL0     H13576  -0.879   7.705  -0.746 -1.2942 -0.3573  0.5947
  103MOL0     H13577  -0.928   7.848  -0.661 -0.5218 -0.9088 -0.9786
  103MOL0     H13578   0.108   7.998  -1.049 -0.3864  0.2876 -0.6349
  103MOL0     H13579   0.353   8.003  -1.012 -0.3287 -0.8385  1.8220
  103MOL0     H13580   0.809   8.002  -0.837 -2.6756 -0.0088 -0.0611
  103MOL0     H13581   1.036   8.090  -0.796 -1.8572 -1.9384  2.5494
  103MOL0     H13582   2.936   8.375  -0.142  0.7794  1.7361  0.4651
  103MOL0     H13583   3.154   8.399  -0.019  1.8454 -1.1325 -1.3606
  103MOL0     H13584   3.464   8.302   0.210  0.2849 -1.3139  0.5107
  103MOL0     H13585   3.679   8.382   0.324  1.0047  1.0418  1.8572
  103MOL0     H13586   3.845   8.493   0.468 -0.4844 -2.5055 -2.9403
  103MOL0     H13587   3.820   8.319   0.472  1.8991  0.9717 -1.5725
  103MOL0     H13588   3.869   8.307   0.712 -1.4396  1.6106  0.1840
  103MOL0     H13589   4.006   8.341   0.611 -1.2207  0.2469 -1.6516
  103MOL0     H13590   4.004   8.573   0.652 -0.8369 -1.1967 -2.0845
  103MOL0     H13591   4.036   8.487   0.796  0.1568 -0.7249 -0.3570
  103MOL0     H13592   3.786   8.645   0.733  0.5040  2.1549  0.6896
  103MOL0     H13593   3.786   8.527   0.868  0.0729  0.6057  1.1196
  103MOL0     H13594   4.037   8.824   1.023 -0.2616  1.1122 -1.2444
  103MOL0     H13595   3.448   8.419   0.684  1.7498  1.8615  0.0221
  103MOL0     H13596   3.238   8.356   0.567 -0.9159 -1.7326 -0.4468
  104MOL0     O13597   9.450   5.304   4.659 -0.6081 -0.6959 -0.1771
  104MOL0     C13598   9.351   5.233   4.681  0.2188  0.6860  1.5266
  104MOL0     O13599   9.362   5.096   4.680  0.0629 -0.3556 -0.3869
  104MOL0     C13600   9.493   5.042   4.694 -0.4256 -0.2598  0.0295
  104MOL0     C13601   9.529   4.970   4.811  0.6244  0.5262  0.4710
  104MOL0     C13602   9.655   4.902   4.805 -0.5827  0.1653 -0.2477
  104MOL0     C13603   9.744   4.922   4.704  1.2753  0.1272  0.5426
  104MOL0     O13604   9.847   4.845   4.717 -0.4956  0.4083  0.4394
  104MOL0     C13605   9.938   4.860   4.602 -0.4483  0.5077 -0.3601
  104MOL0     C13606  10.053   4.748   4.603  0.3566  0.0858  0.3972
  104MOL0     C13607  10.133   4.775   4.476  0.6944 -0.6357 -0.1496
  104MOL0     C13608  10.274   4.735   4.466  0.0140 -0.6072 -0.3116
  104MOL0     C13609  10.317   4.591   4.505 -0.5701 -0.6796 -0.7346
  104MOL0     C13610  10.250   4.491   4.423  0.5155  1.2377  0.2539
  104MOL0     C13611  10.296   4.485   4.273 -0.2183 -0.5844 -0.4461
  104MOL0     C13612  10.201   4.419   4.173  0.1354  0.0251 -0.2798
  104MOL0     N13613  10.087   4.495   4.136  0.1000  0.1409  0.1095
  104MOL0     C13614  10.078   4.613   4.065 -0.2854 -0.1555 -0.0316
  104MOL0     C13615   9.949   4.654   4.078 -0.5518 -0.5048  0.1940
  104MOL0     C13616   9.882   4.760   3.995  0.1512 -0.1815 -0.1177
  104MOL0     C13617   9.866   4.893   4.066 -0.4997  0.5443 -0.6813
  104MOL0     C13618   9.787   4.893   4.203 -0.9930 -0.5171 -0.0310
  104MOL0     C13619   9.643   4.862   4.186 -1.1255  0.1775  0.1487
  104MOL0     O13620   9.566   4.947   4.278  0.3523 -0.2869 -0.1765
  104MOL0     C13621   9.429   4.940   4.262 -0.0545 -0.6280  0.3021
  104MOL0     C13622   9.364   4.820   4.231 -0.5209  0.1654  0.1770
  104MOL0     C13623   9.228   4.809   4.233 -0.3639 -0.3578  0.5802
  104MOL0     C13624   9.152   4.920   4.251  0.8405 -0.5919 -0.2983
  104MOL0     C13625   9.002   4.915   4.234  0.2316 -0.3369  0.2736
  104MOL0     O13626   8.942   4.797   4.198 -0.7868  0.0770 -0.5168
  104MOL0     C13627   8.836   4.802   4.118  0.7617  0.4807  0.4621
  104MOL0     C13628   8.846   4.749   3.989 -0.5768  0.1817 -0.0688
  104MOL0     C13629   8.737   4.758   3.906  0.1407  0.1514 -0.3329
  104MOL0     C13630   8.615   4.817   3.952  0.1678 -0.5005  0.5981
  104MOL0     O13631   8.498   4.821   3.870 -0.3489  0.2215 -0.8455
  104MOL0     C13632   8.505   4.809   3.724  0.1501  0.0434  0.5085
  104MOL0     C13633   8.357   4.802   3.668  0.5296 -0.0900  0.2785
  104MOL0     C13634   8.257   4.915   3.695 -0.7230 -0.6583 -0.1124
  104MOL0     C13635   8.111   4.884   3.660  0.4581  0.3897 -0.3016
  104MOL0     C13636   8.013   5.007   3.665 -0.5231  0.5153 -0.2575
  104MOL0     C13637   7.855   4.976   3.675  0.6646 -0.9300 -0.6465
  104MOL0     C13638   7.816   4.913   3.544 -1.1106  0.3293  0.7173
  104MOL0     C13639   7.669   4.908   3.529  0.4288 -0.0990 -0.2168
  104MOL0    Cl13640   7.591   5.057   3.534 -0.4046 -0.4444  0.0036
  104MOL0     C13641   8.608   4.876   4.083  0.2340 -0.7418  0.0799
  104MOL0     C13642   8.720   4.880   4.156 -0.5059 -0.3306 -0.7352
  104MOL0     O13643   8.943   5.022   4.241  0.0658 -0.5931 -0.4540
  104MOL0     C13644   9.217   5.045   4.275 -0.2413 -0.8037  0.3246
  104MOL0     C13645   9.356   5.057   4.280 -0.0633  0.1006  0.2782
  104MOL0     N13646   9.875   4.564   4.151 -0.2119  0.7606 -0.8354
  104MOL0     N13647   9.965   4.470   4.189 -0.1836 -0.4128  0.1657
  104MOL0     C13648   9.703   4.999   4.588  0.3270 -0.1202  0.1016
  104MOL0     C13649   9.582   5.058   4.587  0.1560 -0.0023 -0.3772
  104MOL0     C13650   9.220   5.289   4.668  0.1828  0.2952  0.3664
  104MOL0     C13651   9.105   5.206   4.636  0.4054 -0.7282  0.5003
  104MOL0     C13652   8.983   5.268   4.625  0.3577  0.3896 -0.0560
  104MOL0     C13653   8.957   5.404   4.649 -0.3386  0.6514  0.2719
  104MOL0     O13654   8.832   5.463   4.621 -0.2326  0.1472  0.5996
  104MOL0     C13655   8.724   5.383   4.569 -0.1543 -0.1470 -0.1575
  104MOL0     C13656   8.730   5.378   4.420 -0.5298 -0.2111  0.5472
  104MOL0     C13657   8.599   5.324   4.353  0.1727  0.0808 -0.5292
  104MOL0     C13658   8.632   5.328   4.199 -0.4109 -0.1541 -0.2302
  104MOL0     C13659   8.516   5.291   4.118  0.0672  0.1172 -0.8553
  104MOL0     C13660   8.432   5.238   4.057  0.0266  0.2062  0.7640
  104MOL0     C13661   9.075   5.481   4.666 -0.1436  0.4611  0.4205
  104MOL0     C13662   9.201   5.432   4.683 -0.0719 -0.0979 -0.1576
  104MOL0     H13663   9.465   4.959   4.898 -1.4079  0.5575 -0.9447
  104MOL0     H13664   9.681   4.836   4.887 -0.1699 -2.8518 -2.6321
  104MOL0     H13665   9.984   4.959   4.608 -1.2356  0.8345  0.4433
  104MOL0     H13666   9.877   4.843   4.513 -2.2154 -0.7954  1.0225
  104MOL0     H13667  10.007   4.649   4.599  1.0806 -0.3960  2.7535
  104MOL0     H13668  10.116   4.754   4.691 -0.5423 -1.3961  1.1794
  104MOL0     H13669  10.134   4.881   4.449  0.5682 -0.3237  1.0233
  104MOL0     H13670  10.079   4.716   4.401 -1.0865 -0.8357  1.2373
  104MOL0     H13671  10.292   4.747   4.359 -1.0423  0.9589 -0.3399
  104MOL0     H13672  10.344   4.800   4.518  0.4119 -0.0509 -1.5126
  104MOL0     H13673  10.306   4.571   4.612  1.3525  0.6795 -0.2325
  104MOL0     H13674  10.421   4.574   4.477 -0.5455  1.4350 -2.1328
  104MOL0     H13675  10.141   4.494   4.427  0.2869 -0.2916 -2.4954
  104MOL0     H13676  10.272   4.389   4.455  2.2172  0.9613 -1.5938
  104MOL0     H13677  10.322   4.582   4.229  1.6638 -0.7315  0.2711
  104MOL0     H13678  10.392   4.434   4.264  1.7509  2.3509  1.8027
  104MOL0     H13679  10.166   4.330   4.226  1.3918 -1.2878 -1.5514
  104MOL0     H13680  10.265   4.398   4.087  1.9631  0.3776  0.9449
  104MOL0     H13681  10.151   4.658   3.998 -0.2826 -2.6798 -1.8804
  104MOL0     H13682   9.781   4.726   3.967 -0.2502 -0.7482  1.8427
  104MOL0     H13683   9.931   4.771   3.898  1.9583  1.0182  0.8819
  104MOL0     H13684   9.818   4.963   3.998  1.2026  0.2010 -2.3376
  104MOL0     H13685   9.974   4.913   4.072 -0.2465 -0.3688 -1.7909
  104MOL0     H13686   9.846   4.835   4.274  1.6794  0.6827 -1.1231
  104MOL0     H13687   9.796   4.991   4.252  0.3467 -1.4782  1.7502
  104MOL0     H13688   9.631   4.755   4.201  0.3573 -0.2362 -1.3386
  104MOL0     H13689   9.616   4.888   4.084 -2.7835  3.7899  1.3192
  104MOL0     H13690   9.415   4.727   4.207 -0.5502  0.6995 -2.1447
  104MOL0     H13691   9.182   4.712   4.215 -0.1576 -0.1293 -1.4403
  104MOL0     H13692   8.935   4.700   3.953 -2.2565 -0.3505 -3.9706
  104MOL0     H13693   8.742   4.723   3.803 -1.6020  1.7086 -0.9958
  104MOL0     H13694   8.558   4.715   3.705  0.7731  0.5836 -0.5109
  104MOL0     H13695   8.554   4.898   3.683 -1.0157  0.5629  0.2070
  104MOL0     H13696   8.319   4.703   3.697  2.7964 -1.1410 -0.0913
  104MOL0     H13697   8.358   4.800   3.559 -1.0328  2.8437  0.1339
  104MOL0     H13698   8.291   5.004   3.641  2.3444 -1.0662  0.9515
  104MOL0     H13699   8.267   4.938   3.802 -1.1910  1.2943 -0.4606
  104MOL0     H13700   8.099   4.838   3.562 -0.5424  3.2494 -1.6233
  104MOL0     H13701   8.071   4.824   3.742  0.5407  0.3410 -0.2971
  104MOL0     H13702   8.037   5.058   3.571 -1.0911 -0.3287 -0.8768
  104MOL0     H13703   8.047   5.063   3.752 -0.4466  2.8904 -1.7179
  104MOL0     H13704   7.811   5.074   3.691  0.6394 -1.5170  4.0964
  104MOL0     H13705   7.834   4.912   3.761 -2.1768 -0.1707 -0.7035
  104MOL0     H13706   7.858   4.979   3.468 -3.5011 -0.2047 -1.1640
  104MOL0     H13707   7.856   4.812   3.535 -1.2071  0.3709 -0.2616
  104MOL0     H13708   7.629   4.837   3.602 -2.6042 -0.2551 -1.8542
  104MOL0     H13709   7.646   4.865   3.431 -1.1575  0.9648 -0.3392
  104MOL0     H13710   8.524   4.911   4.141  1.0543 -1.8080  2.0083
  104MOL0     H13711   8.734   4.931   4.250  0.3446  1.6014 -1.8340
  104MOL0     H13712   9.163   5.137   4.292  0.0559 -0.4661 -0.4821
  104MOL0     H13713   9.408   5.146   4.314 -1.1899 -0.4833  3.9728
  104MOL0     H13714   9.763   5.006   4.498 -2.9829 -0.4217 -2.3348
  104MOL0     H13715   9.550   5.121   4.504  0.9250  0.2395 -0.4990
  104MOL0     H13716   9.120   5.101   4.613  1.6648 -0.2773 -0.9823
  104MOL0     H13717   8.902   5.205   4.590  0.2754  1.8261 -2.7162
  104MOL0     H13718   8.630   5.431   4.597 -1.0290 -2.4159  1.0934
  104MOL0     H13719   8.722   5.284   4.616 -1.7096  1.1187  2.7692
  104MOL0     H13720   8.746   5.480   4.385  1.4988 -0.7267 -0.1830
  104MOL0     H13721   8.823   5.328   4.391  1.4587  1.7658  3.0721
  104MOL0     H13722   8.504   5.371   4.379 -0.3102 -1.4796  0.6290
  104MOL0     H13723   8.595   5.222   4.391 -3.3188 -0.2151 -1.3727
  104MOL0     H13724   8.656   5.431   4.173 -2.4662  1.1725  2.5708
  104MOL0     H13725   8.718   5.265   4.177 -0.1259 -0.3588  1.3763
  104MOL0     H13726   8.354   5.182   4.009 -0.3650  3.1688 -2.4552
  104MOL0     H13727   9.062   5.588   4.677 -1.5415  0.4290 -0.7628
  104MOL0     H13728   9.275   5.503   4.717 -1.5993  1.2824  0.4073
  105MOL0     O13729  10.572   5.311   6.048 -0.4573 -0.4138 -0.2347
  105MOL0     C13730  10.669   5.296   6.121  0.2788  0.0842 -0.1280
  105MOL0     O13731  10.671   5.224   6.239 -0.0900 -0.3892  0.7643
  105MOL0     C13732  10.573   5.128   6.249  0.5285  0.1994  0.1668
  105MOL0     C13733  10.574   5.025   6.149  0.9107  0.5837  0.6355
  105MOL0     C13734  10.479   4.925   6.145  1.1143  0.1553 -0.3291
  105MOL0     C13735  10.365   4.933   6.236 -0.5247  0.0068  0.1277
  105MOL0     O13736  10.256   4.853   6.235 -0.1377  0.0634 -0.1812
  105MOL0     C13737  10.269   4.732   6.159  0.5833 -0.8399  0.1380
  105MOL0     C13738  10.145   4.646   6.207  0.2048 -0.0416  0.2544
  105MOL0     C13739  10.140   4.522   6.124  0.9484 -0.2972  0.4026
  105MOL0     C13740  10.013   4.442   6.169 -0.1272  0.8912  0.2488
  105MOL0     C13741   9.978   4.334   6.059  0.8259  0.7997  0.0675
  105MOL0     C13742   9.849   4.254   6.095 -0.6126 -0.0852  0.2342
  105MOL0     C13743   9.846   4.186   6.232 -0.4457  0.2189  0.3896
  105MOL0     C13744   9.959   4.082   6.235 -0.6341  0.7794 -0.2723
  105MOL0     N13745   9.925   3.956   6.157 -0.2517 -0.3957  0.1087
  105MOL0     C13746   9.813   3.875   6.175  0.1498  0.1207  0.3835
  105MOL0     C13747   9.840   3.769   6.093  0.8602  0.0015 -0.0155
  105MOL0     C13748   9.746   3.652   6.081  0.2887  0.8249  0.5356
  105MOL0     C13749   9.685   3.630   5.945  0.0943  0.5236  0.4702
  105MOL0     C13750   9.603   3.498   5.932  0.8858  0.8302  0.1459
  105MOL0     C13751   9.492   3.473   6.039  0.2720  0.0338 -0.2532
  105MOL0     O13752   9.415   3.350   6.003  0.6236  0.2555 -0.2226
  105MOL0     C13753   9.283   3.351   6.036  0.1531  0.1764 -0.3532
  105MOL0     C13754   9.244   3.293   6.159  0.3410  0.3830 -0.8079
  105MOL0     C13755   9.109   3.297   6.197  0.4180 -0.3119  0.7444
  105MOL0     C13756   9.016   3.364   6.117 -0.1835  0.3603 -2.0645
  105MOL0     C13757   8.874   3.357   6.155  0.3571  0.2745 -0.2266
  105MOL0     O13758   8.785   3.394   6.058  0.4180 -0.0387 -0.5548
  105MOL0     C13759   8.647   3.380   6.070 -0.0927  0.2018  0.5692
  105MOL0     C13760   8.590   3.259   6.036  0.0924 -1.2386 -0.0754
  105MOL0     C13761   8.454   3.235   6.060 -0.0645 -0.1063 -0.2182
  105MOL0     C13762   8.381   3.329   6.140 -0.1668  0.2282  0.2717
  105MOL0     O13763   8.260   3.302   6.191 -0.0238  0.0178 -0.3961
  105MOL0     C13764   8.202   3.171   6.178 -0.1043 -0.0079  0.8346
  105MOL0     C13765   8.108   3.159   6.286  0.3263  0.0738  0.1020
  105MOL0     C13766   8.027   3.027   6.280  0.6822 -0.0118 -0.7437
  105MOL0     C13767   7.947   3.006   6.411 -0.6013 -1.0382 -0.1926
  105MOL0     C13768   7.865   2.888   6.402  0.7514 -0.8323  0.5857
  105MOL0     C13769   7.766   2.886   6.526  0.3416 -0.7011  0.3707
  105MOL0     C13770   7.642   2.961   6.512  0.5967  0.7667 -0.4464
  105MOL0     C13771   7.539   2.924   6.615  0.3341 -0.4628 -0.6864
  105MOL0    Cl13772   7.555   3.014   6.762  0.2264  0.4363  0.0806
  105MOL0     C13773   8.440   3.447   6.185 -0.6191  0.5813 -0.7856
  105MOL0     C13774   8.573   3.475   6.144  0.0024 -0.0713  0.1270
  105MOL0     O13775   8.844   3.311   6.268 -0.2964  0.6606  0.1078
  105MOL0     C13776   9.054   3.422   6.001  0.2441 -0.1683  0.4616
  105MOL0     C13777   9.186   3.424   5.963  0.8503  0.4595  0.2572
  105MOL0     N13778   9.963   3.792   6.029  0.3732  0.1250 -0.1391
  105MOL0     N13779  10.004   3.908   6.065 -0.0468 -0.2334 -1.5097
  105MOL0     C13780  10.361   5.044   6.329  0.0507  0.6329  0.3934
  105MOL0     C13781  10.465   5.139   6.333 -0.2289  0.4569  0.3051
  105MOL0     C13782  10.776   5.387   6.091  0.0183 -0.2533  0.3443
  105MOL0     C13783  10.876   5.420   6.184 -0.2185 -0.2540  0.6745
  105MOL0     C13784  10.990   5.482   6.148  0.2379  0.2880 -1.1803
  105MOL0     C13785  10.999   5.531   6.018 -0.0081  0.5282 -0.5270
  105MOL0     O13786  11.121   5.592   5.993 -0.1658  0.3295 -0.2565
  105MOL0     C13787  11.170   5.599   5.863 -0.4754 -0.5084  0.5734
  105MOL0     C13788  11.221   5.468   5.811 -0.5890 -0.7394  0.1322
  105MOL0     C13789  11.220   5.477   5.659 -0.2473  0.7447  0.3230
  105MOL0     C13790  11.294   5.352   5.598  0.0520 -0.0282  0.5163
  105MOL0     C13791  11.302   5.360   5.451 -0.9670 -0.2240 -0.0027
  105MOL0     C13792  11.300   5.345   5.330  0.4491  0.8663 -0.2593
  105MOL0     C13793  10.890   5.514   5.922 -0.6242  0.1115 -0.7199
  105MOL0     C13794  10.788   5.432   5.963 -0.1434  0.1654  0.3730
  105MOL0     H13795  10.647   5.036   6.070 -0.2368  1.2251 -0.3684
  105MOL0     H13796  10.478   4.848   6.069 -0.6082 -0.5578  0.3480
  105MOL0     H13797  10.359   4.676   6.186  1.9044  0.6090 -1.0853
  105MOL0     H13798  10.262   4.743   6.051  0.3965 -2.2488 -0.0095
  105MOL0     H13799  10.053   4.697   6.179 -2.2784 -4.8036 -1.3861
  105MOL0     H13800  10.144   4.629   6.315  2.7711 -1.9009  0.0984
  105MOL0     H13801  10.233   4.463   6.129 -0.5928 -3.1155 -1.3955
  105MOL0     H13802  10.122   4.555   6.022  0.9838 -3.0929 -0.6088
  105MOL0     H13803  10.032   4.386   6.261 -0.0219 -1.3778 -1.0791
  105MOL0     H13804   9.932   4.512   6.189 -0.1275  1.2392 -0.8967
  105MOL0     H13805  10.053   4.254   6.058 -1.2680 -1.2784 -0.9850
  105MOL0     H13806   9.963   4.371   5.957  0.8438 -2.4489 -1.2231
  105MOL0     H13807   9.838   4.183   6.013  0.2127 -0.7958  0.7154
  105MOL0     H13808   9.764   4.323   6.088  0.4047  1.3259  1.1835
  105MOL0     H13809   9.866   4.256   6.313  2.3283 -1.8802  1.7072
  105MOL0     H13810   9.743   4.151   6.239 -1.2032  1.3568 -3.0388
  105MOL0     H13811   9.969   4.054   6.340  1.8912  2.2198 -0.0484
  105MOL0     H13812  10.058   4.122   6.210  0.2838 -1.0716  0.2749
  105MOL0     H13813   9.717   3.896   6.220 -1.3948 -0.2018 -2.5168
  105MOL0     H13814   9.658   3.670   6.143 -0.3607 -0.1998 -0.0734
  105MOL0     H13815   9.801   3.565   6.118 -0.8395 -1.2216 -2.2432
  105MOL0     H13816   9.758   3.627   5.864  1.1721  0.1370  1.4265
  105MOL0     H13817   9.612   3.706   5.918  1.2711  2.5094  2.4865
  105MOL0     H13818   9.554   3.490   5.835 -1.4531 -1.9778  1.4147
  105MOL0     H13819   9.670   3.411   5.941  0.8903  0.7869 -0.2696
  105MOL0     H13820   9.433   3.565   6.049  0.2624 -0.0391  0.4349
  105MOL0     H13821   9.538   3.469   6.139  0.3678  0.5516 -0.2721
  105MOL0     H13822   9.318   3.249   6.224 -3.2573 -2.5799  1.7491
  105MOL0     H13823   9.087   3.254   6.294 -1.1882 -0.8147  0.1975
  105MOL0     H13824   8.655   3.189   5.984  1.2802 -0.3408  0.1398
  105MOL0     H13825   8.408   3.142   6.028  3.2833 -1.5510 -1.2012
  105MOL0     H13826   8.285   3.101   6.188  0.8541  1.0060  0.1692
  105MOL0     H13827   8.150   3.172   6.082  1.6837  0.6872 -0.1816
  105MOL0     H13828   8.038   3.243   6.280  0.5733  0.1971 -1.5928
  105MOL0     H13829   8.170   3.162   6.376  2.6164 -0.4298 -1.3796
  105MOL0     H13830   8.098   2.944   6.275 -0.0354 -0.7674  0.9100
  105MOL0     H13831   7.959   3.038   6.194  1.2175 -0.3406 -1.2191
  105MOL0     H13832   8.022   2.995   6.490 -3.4601  0.6091  3.0201
  105MOL0     H13833   7.898   3.101   6.434 -1.6676 -1.2033 -1.6798
  105MOL0     H13834   7.932   2.802   6.410  1.5210 -1.0586 -4.5175
  105MOL0     H13835   7.803   2.880   6.312  0.9579  1.4915  0.1615
  105MOL0     H13836   7.821   2.913   6.616  1.0282 -1.2569  0.1257
  105MOL0     H13837   7.740   2.780   6.538 -1.0897 -0.1762  2.5498
  105MOL0     H13838   7.665   3.067   6.498  0.8229  0.7136 -0.4894
  105MOL0     H13839   7.595   2.924   6.420 -0.0473  0.2994  0.0696
  105MOL0     H13840   7.533   2.816   6.631  2.4694 -0.3425  1.3822
  105MOL0     H13841   7.440   2.960   6.583 -1.3740 -3.6638  0.5841
  105MOL0     H13842   8.383   3.513   6.249 -1.2814  0.2096 -0.9778
  105MOL0     H13843   8.626   3.560   6.186 -1.2952  1.4640 -1.1976
  105MOL0     H13844   8.978   3.465   5.936 -0.0219  0.4758  1.1963
  105MOL0     H13845   9.207   3.463   5.864 -0.5763 -0.6435 -0.5329
  105MOL0     H13846  10.281   5.057   6.401 -1.5712  0.0673 -1.2288
  105MOL0     H13847  10.455   5.221   6.402  0.9224  1.0343 -0.1975
  105MOL0     H13848  10.858   5.374   6.281 -1.2011 -1.1042  0.1068
  105MOL0     H13849  11.074   5.503   6.214 -1.8088 -0.2485  1.7954
  105MOL0     H13850  11.240   5.681   5.844 -1.4228  0.4818  1.3123
  105MOL0     H13851  11.085   5.628   5.802  0.4398 -0.5892 -0.7954
  105MOL0     H13852  11.325   5.460   5.845 -1.2025 -0.8465  2.1478
  105MOL0     H13853  11.161   5.382   5.844 -1.5253 -0.1982 -0.1585
  105MOL0     H13854  11.278   5.560   5.618  3.5574 -1.3831  0.9654
  105MOL0     H13855  11.117   5.484   5.623  0.3772 -0.7872 -2.0203
  105MOL0     H13856  11.395   5.340   5.637  0.3055  0.0876 -0.0927
  105MOL0     H13857  11.234   5.262   5.618 -0.5034  0.3934  0.7724
  105MOL0     H13858  11.326   5.321   5.229  2.1505 -2.9339  0.8930
  105MOL0     H13859  10.884   5.558   5.822  1.5523 -0.3019 -1.0776
  105MOL0     H13860  10.713   5.409   5.888  0.6859 -2.9935  0.3428
  106MOL0     O13861   3.192   4.768  10.665  0.2064  0.3093  0.8651
  106MOL0     C13862   3.293   4.716  10.712 -0.0732 -0.0003 -0.3790
  106MOL0     O13863   3.294   4.626  10.817  0.4712 -0.2771 -0.5630
  106MOL0     C13864   3.181   4.601  10.893  0.5718 -0.6158 -0.2587
  106MOL0     C13865   3.172   4.470  10.941  1.4217 -0.7227 -0.0993
  106MOL0     C13866   3.061   4.437  11.023  0.7264  0.0151  0.4156
  106MOL0     C13867   2.960   4.532  11.048 -0.3352 -0.0180  0.0891
  106MOL0     O13868   2.854   4.500  11.139  0.1295  0.8167 -0.3135
  106MOL0     C13869   2.776   4.385  11.119 -0.0920 -0.0896 -0.5386
  106MOL0     C13870   2.708   4.346  11.252  0.1068 -0.3326 -0.2935
  106MOL0     C13871   2.605   4.467  11.284 -0.8894  0.1191  0.1380
  106MOL0     C13872   2.536   4.448  11.422 -0.2004 -0.0480  0.2451
  106MOL0     C13873   2.449   4.575  11.455 -0.2439 -0.1415 -0.5259
  106MOL0     C13874   2.527   4.696  11.517  0.2974  0.4083  0.0682
  106MOL0     C13875   2.434   4.806  11.558  0.1242 -0.0380 -1.3871
  106MOL0     C13876   2.426   4.924  11.460 -0.2563  0.5910  0.5419
  106MOL0     N13877   2.400   4.892  11.320  0.0658 -0.6665  0.9215
  106MOL0     C13878   2.497   4.892  11.218 -0.2655  0.1164  0.0959
  106MOL0     C13879   2.429   4.875  11.103  0.7589  0.7073  0.0972
  106MOL0     C13880   2.483   4.866  10.961  0.8914  0.3300  0.5026
  106MOL0     C13881   2.505   4.725  10.911 -0.0396 -0.4245 -0.0143
  106MOL0     C13882   2.561   4.730  10.763  0.1631  0.1114 -0.1141
  106MOL0     C13883   2.449   4.697  10.662 -0.1815 -0.3127  0.7488
  106MOL0     O13884   2.376   4.584  10.691  0.4024  0.3809 -0.4847
  106MOL0     C13885   2.261   4.565  10.622 -0.0126  0.2014 -0.6187
  106MOL0     C13886   2.200   4.445  10.655 -0.0377 -0.8330  0.0763
  106MOL0     C13887   2.085   4.403  10.596  0.5333  0.0004 -0.6746
  106MOL0     C13888   2.016   4.483  10.508 -0.1515  0.2792 -0.6581
  106MOL0     C13889   1.878   4.452  10.474 -0.4494 -0.8798 -0.3801
  106MOL0     O13890   1.812   4.523  10.381  0.9094 -0.2955 -0.2266
  106MOL0     C13891   1.686   4.500  10.331 -0.2624 -0.2059 -0.4314
  106MOL0     C13892   1.599   4.389  10.357 -0.9616 -0.0929  0.3570
  106MOL0     C13893   1.474   4.374  10.299  0.5811  0.3252  0.3001
  106MOL0     C13894   1.435   4.473  10.205  1.1095  0.7618  0.3914
  106MOL0     O13895   1.316   4.458  10.131  0.0936  0.4225 -0.0007
  106MOL0     C13896   1.207   4.411  10.213  0.2965  0.1455 -0.2102
  106MOL0     C13897   1.062   4.424  10.158  0.5400  1.4212 -0.0330
  106MOL0     C13898   1.039   4.301  10.069  0.2782 -0.1012  0.0939
  106MOL0     C13899   0.897   4.294  10.003  1.6018 -0.2394  0.5415
  106MOL0     C13900   0.901   4.157   9.932 -0.3562 -0.1641 -0.1670
  106MOL0     C13901   0.768   4.146   9.841 -0.2026 -0.1872  0.4984
  106MOL0     C13902   0.728   3.990   9.844 -0.1058 -0.5283  0.2263
  106MOL0     C13903   0.826   3.893   9.770  0.5475 -0.7636 -0.3480
  106MOL0    Cl13904   0.768   3.898   9.599  0.1715 -0.0635 -0.0672
  106MOL0     C13905   1.512   4.580  10.179 -0.2928 -0.3974 -0.4135
  106MOL0     C13906   1.636   4.596  10.242  0.8868  0.4352  0.0976
  106MOL0     O13907   1.824   4.372  10.543  0.6434  0.4083 -0.0126
  106MOL0     C13908   2.068   4.605  10.473 -0.2549 -0.0615  0.2973
  106MOL0     C13909   2.199   4.641  10.524 -0.2509 -0.0476  0.0552
  106MOL0     N13910   2.298   4.860  11.136  0.1411  0.3121  0.7640
  106MOL0     N13911   2.280   4.866  11.260  0.3664  0.2967 -0.2841
  106MOL0     C13912   2.977   4.662  11.007 -0.2301 -0.2853  0.8730
  106MOL0     C13913   3.085   4.698  10.925 -0.1428 -0.7954  0.0299
  106MOL0     C13914   3.428   4.769  10.677 -0.0877 -0.5862  1.1387
  106MOL0     C13915   3.543   4.710  10.725 -0.5853  0.0812  0.5222
  106MOL0     C13916   3.660   4.755  10.673 -1.0102  0.2445 -0.0387
  106MOL0     C13917   3.675   4.854  10.577 -1.4043  0.0468  0.1365
  106MOL0     O13918   3.785   4.891  10.510  0.3059  0.3847  0.8503
  106MOL0     C13919   3.913   4.845  10.552 -0.3389  0.4450  0.3515
  106MOL0     C13920   4.031   4.908  10.469 -0.4181 -0.0324  0.3770
  106MOL0     C13921   4.159   4.826  10.469  0.5900 -0.3369  0.0375
  106MOL0     C13922   4.251   4.875  10.355  0.4551 -0.2867 -0.2365
  106MOL0     C13923   4.372   4.799  10.346  0.0646  0.8436  0.5124
  106MOL0     C13924   4.482   4.745  10.352 -0.1386 -0.4541 -0.0154
  106MOL0     C13925   3.560   4.924  10.551 -0.3512 -0.3290 -0.1212
  106MOL0     C13926   3.436   4.891  10.600  0.8229 -0.5306  0.2858
  106MOL0     H13927   3.243   4.389  10.926  1.4761 -0.5070 -1.0850
  106MOL0     H13928   3.055   4.337  11.063  2.7637  0.2412  1.4641
  106MOL0     H13929   2.845   4.305  11.091  0.3568 -0.6531  2.0127
  106MOL0     H13930   2.695   4.403  11.048 -0.8431 -2.0671 -0.2349
  106MOL0     H13931   2.771   4.334  11.341  0.3269  0.1336 -0.3826
  106MOL0     H13932   2.654   4.252  11.242  0.6760 -0.6123 -0.8308
  106MOL0     H13933   2.530   4.459  11.205  0.0386  0.2804 -0.7698
  106MOL0     H13934   2.648   4.567  11.273  0.5363 -0.5380 -0.5915
  106MOL0     H13935   2.476   4.357  11.411 -1.6278  0.6041  2.0275
  106MOL0     H13936   2.602   4.434  11.508  0.6446 -0.0274 -0.3947
  106MOL0     H13937   2.385   4.535  11.534  0.8617 -1.2369 -0.1479
  106MOL0     H13938   2.387   4.607  11.371  1.3262  2.0500 -0.9354
  106MOL0     H13939   2.602   4.739  11.449 -1.0708 -0.6298 -2.1757
  106MOL0     H13940   2.582   4.658  11.604  0.6004 -0.4222 -0.4739
  106MOL0     H13941   2.335   4.766  11.581  1.7383 -4.2027 -0.7510
  106MOL0     H13942   2.479   4.840  11.652 -2.4210  0.8320 -0.4021
  106MOL0     H13943   2.517   4.986  11.455 -0.9024  1.4489 -1.7360
  106MOL0     H13944   2.353   4.994  11.501 -1.0680 -0.2524  0.5593
  106MOL0     H13945   2.604   4.905  11.234 -0.7292  2.7838  1.6854
  106MOL0     H13946   2.583   4.911  10.959  0.3707  1.5192  0.2479
  106MOL0     H13947   2.410   4.926  10.907  0.9302  1.0887  1.2605
  106MOL0     H13948   2.402   4.688  10.921 -1.5334  3.0907 -0.9101
  106MOL0     H13949   2.573   4.678  10.983  0.9304 -0.1250 -0.7204
  106MOL0     H13950   2.611   4.823  10.734 -0.0390 -0.0555 -1.0181
  106MOL0     H13951   2.637   4.652  10.750 -0.4654 -0.3122 -1.4517
  106MOL0     H13952   2.492   4.681  10.563  0.8303 -0.2138  1.1612
  106MOL0     H13953   2.385   4.786  10.656 -1.8434 -1.4200  1.4231
  106MOL0     H13954   2.251   4.379  10.724  1.2279 -0.4717 -0.4778
  106MOL0     H13955   2.048   4.305  10.624  2.6546 -1.2485 -1.9602
  106MOL0     H13956   1.632   4.310  10.424  1.4882  0.2289 -0.3797
  106MOL0     H13957   1.428   4.277  10.318  5.0765 -2.2109 -0.3804
  106MOL0     H13958   1.221   4.477  10.299 -1.0591 -0.3151  0.3832
  106MOL0     H13959   1.218   4.304  10.232  0.5711  0.2523  0.2436
  106MOL0     H13960   1.050   4.516  10.100 -2.6720  1.6209  0.7349
  106MOL0     H13961   0.982   4.427  10.233  0.9238  0.3134  0.4457
  106MOL0     H13962   1.046   4.215  10.136 -1.0360 -0.4108 -0.1456
  106MOL0     H13963   1.126   4.298  10.002  2.0430 -1.8555  2.2917
  106MOL0     H13964   0.811   4.320  10.064  2.0732  1.8284  0.3926
  106MOL0     H13965   0.903   4.369   9.924 -1.4437  0.0849  0.5068
  106MOL0     H13966   0.904   4.076  10.005  0.1546 -0.0483 -0.0552
  106MOL0     H13967   0.995   4.137   9.881  0.0900 -2.0482  1.3029
  106MOL0     H13968   0.777   4.178   9.737  2.9841 -1.2244  0.3527
  106MOL0     H13969   0.688   4.202   9.891 -0.0069  0.0958  0.4970
  106MOL0     H13970   0.724   3.951   9.946 -4.2525  0.2602  0.5494
  106MOL0     H13971   0.623   3.981   9.815 -0.8487 -0.7746  2.8062
  106MOL0     H13972   0.819   3.799   9.826 -1.0222  0.3004  1.3891
  106MOL0     H13973   0.919   3.946   9.794 -0.9337  1.3696  1.1611
  106MOL0     H13974   1.485   4.647  10.098 -0.3169 -3.0134 -2.7303
  106MOL0     H13975   1.690   4.681  10.201  0.3015  0.7232 -0.0931
  106MOL0     H13976   1.999   4.662  10.413  0.3925  0.5290  0.0992
  106MOL0     H13977   2.240   4.735  10.489  0.3829  0.6080  2.3741
  106MOL0     H13978   2.901   4.738  11.023 -0.5672 -0.2376 -0.7171
  106MOL0     H13979   3.077   4.797  10.883  0.1845  1.1614  4.1421
  106MOL0     H13980   3.543   4.619  10.785 -2.1498 -1.2814 -1.4213
  106MOL0     H13981   3.736   4.690  10.714 -2.2559 -1.2592 -0.0246
  106MOL0     H13982   3.914   4.736  10.554 -1.5355  0.3929 -0.4914
  106MOL0     H13983   3.932   4.872  10.656 -1.0013 -0.2480  0.6580
  106MOL0     H13984   3.997   4.915  10.365 -1.4703 -1.3367  0.6074
  106MOL0     H13985   4.047   5.008  10.509 -0.7328 -0.5310  1.7890
  106MOL0     H13986   4.135   4.720  10.454  1.8161 -0.5097 -0.9004
  106MOL0     H13987   4.222   4.839  10.557  2.6616  0.9795 -1.5231
  106MOL0     H13988   4.204   4.872  10.257  1.4723  2.1167 -0.8644
  106MOL0     H13989   4.278   4.979  10.369 -2.9162  0.9457 -1.8009
  106MOL0     H13990   4.582   4.708  10.360 -0.6791 -2.1109 -0.4450
  106MOL0     H13991   3.566   5.008  10.482 -4.7549  0.4832  0.1832
  106MOL0     H13992   3.356   4.958  10.573  3.3080  2.5191 -0.1552
  107MOL0     O13993   6.579   6.026   3.748 -0.2207 -0.2679  0.4832
  107MOL0     C13994   6.532   6.035   3.635  0.2986 -1.0665 -0.4569
  107MOL0     O13995   6.577   6.114   3.529 -0.0992  0.0453 -0.5838
  107MOL0     C13996   6.712   6.143   3.535 -0.3958  0.4643  0.8189
  107MOL0     C13997   6.756   6.247   3.453 -0.6861 -0.6528  0.2117
  107MOL0     C13998   6.893   6.284   3.443 -0.1474  0.0866  0.9261
  107MOL0     C13999   6.985   6.214   3.512  0.5083  0.1129  0.6174
  107MOL0     O14000   7.115   6.261   3.499  0.3944  0.1455 -0.7705
  107MOL0     C14001   7.202   6.212   3.599  0.3499  0.1675 -0.0834
  107MOL0     C14002   7.335   6.293   3.587  0.1140  0.4083  0.0087
  107MOL0     C14003   7.435   6.259   3.695 -0.7383 -0.0739  0.3848
  107MOL0     C14004   7.549   6.370   3.683 -0.3029 -0.8939 -1.1024
  107MOL0     C14005   7.677   6.328   3.753 -0.3366 -0.2391 -0.4179
  107MOL0     C14006   7.767   6.449   3.755  0.4903  0.2352 -0.2430
  107MOL0     C14007   7.886   6.447   3.853 -1.2821  0.1454 -0.6678
  107MOL0     C14008   7.987   6.562   3.839  0.9034  0.3198  0.0219
  107MOL0     N14009   8.106   6.523   3.766  0.8754  0.4783 -0.1380
  107MOL0     C14010   8.228   6.498   3.823  0.3360 -0.2352 -0.2142
  107MOL0     C14011   8.309   6.489   3.716 -0.4264 -0.8527  0.1019
  107MOL0     C14012   8.451   6.441   3.717  0.3120 -0.1347 -0.5171
  107MOL0     C14013   8.491   6.346   3.601 -0.1229 -0.6395 -0.5613
  107MOL0     C14014   8.427   6.206   3.611 -0.3515 -0.5433  0.3968
  107MOL0     C14015   8.373   6.161   3.752 -0.3462 -0.4200  0.6278
  107MOL0     O14016   8.321   6.027   3.728  0.3369 -0.4156  0.4291
  107MOL0     C14017   8.187   5.990   3.749 -0.8960  0.7410 -0.3386
  107MOL0     C14018   8.133   5.881   3.679  1.6136 -0.9674  0.4459
  107MOL0     C14019   8.000   5.844   3.694 -0.7502 -0.1018  1.0887
  107MOL0     C14020   7.914   5.917   3.775  1.0487 -0.0364  0.1985
  107MOL0     C14021   7.775   5.872   3.800 -0.2728 -0.3759  0.0023
  107MOL0     O14022   7.734   5.771   3.723  0.1064 -0.0524 -0.3274
  107MOL0     C14023   7.614   5.700   3.744 -0.3880 -0.1680  0.1947
  107MOL0     C14024   7.628   5.559   3.739  0.2768  0.5769  0.1812
  107MOL0     C14025   7.514   5.479   3.762 -0.5114 -0.2291 -0.4519
  107MOL0     C14026   7.388   5.532   3.789  0.5228 -0.0205 -0.4085
  107MOL0     O14027   7.285   5.448   3.821 -0.2143 -0.2923 -0.0397
  107MOL0     C14028   7.150   5.507   3.800  0.2519 -0.1679 -0.2735
  107MOL0     C14029   7.048   5.403   3.840  0.2047  1.1130  0.2061
  107MOL0     C14030   7.035   5.291   3.737  0.0012  1.1365 -1.0481
  107MOL0     C14031   6.929   5.177   3.769  0.6916 -0.0332 -0.3435
  107MOL0     C14032   6.778   5.223   3.770  0.1917  0.4958  0.5817
  107MOL0     C14033   6.689   5.101   3.807 -0.1800 -0.1997 -0.7145
  107MOL0     C14034   6.537   5.131   3.801 -0.1383 -0.8190  0.0396
  107MOL0     C14035   6.440   5.009   3.812 -0.3314  0.4375 -0.5824
  107MOL0    Cl14036   6.454   4.910   3.658 -0.0186 -0.2505 -0.0905
  107MOL0     C14037   7.376   5.673   3.771 -0.3276  0.1346  0.2254
  107MOL0     C14038   7.487   5.755   3.756 -0.4283 -0.3797 -0.5584
  107MOL0     O14039   7.705   5.927   3.882 -0.1915  0.0402 -0.0758
  107MOL0     C14040   7.966   6.027   3.848  0.0900 -0.3443 -0.3648
  107MOL0     C14041   8.108   6.057   3.834  0.0714 -0.1781  0.2029
  107MOL0     N14042   8.234   6.505   3.603 -0.4580  0.4318 -0.0770
  107MOL0     N14043   8.111   6.527   3.634  0.2208  0.3967  0.1894
  107MOL0     C14044   6.946   6.103   3.598 -0.0860  0.0619  0.8443
  107MOL0     C14045   6.814   6.061   3.600  0.7787 -0.9023  0.5724
  107MOL0     C14046   6.408   5.970   3.611  0.6527  0.2090  0.2073
  107MOL0     C14047   6.353   5.895   3.719  1.1159 -0.9198 -0.3967
  107MOL0     C14048   6.221   5.839   3.693  0.0754  0.1779  0.2138
  107MOL0     C14049   6.155   5.854   3.570 -0.5232  0.1199 -0.1651
  107MOL0     O14050   6.038   5.795   3.552 -0.3686 -0.3537  0.0963
  107MOL0     C14051   5.928   5.883   3.563  0.1400  0.1989  0.0149
  107MOL0     C14052   5.901   5.906   3.712  0.2264  0.0598  0.2467
  107MOL0     C14053   5.846   5.783   3.785  0.0554 -0.1791  0.5930
  107MOL0     C14054   5.856   5.781   3.941  0.6859 -0.2019  0.3909
  107MOL0     C14055   5.820   5.650   3.992  0.3923 -0.5145  0.3555
  107MOL0     C14056   5.781   5.542   4.032  0.8527  0.0798  0.1404
  107MOL0     C14057   6.218   5.925   3.465  0.2544  0.2785 -0.1446
  107MOL0     C14058   6.341   5.980   3.482 -0.2531  0.4050  0.3572
  107MOL0     H14059   6.694   6.308   3.388 -1.1071  0.5080  1.6318
  107MOL0     H14060   6.916   6.373   3.385 -2.5512  0.2533  0.0822
  107MOL0     H14061   7.228   6.108   3.575 -1.0050  0.0950 -1.3467
  107MOL0     H14062   7.157   6.221   3.698  2.4124  1.2881  0.8121
  107MOL0     H14063   7.313   6.400   3.586 -0.9548  0.2296  1.5136
  107MOL0     H14064   7.392   6.260   3.500  2.0557 -1.5932  1.8841
  107MOL0     H14065   7.485   6.163   3.678 -2.2905 -0.8070 -0.1987
  107MOL0     H14066   7.384   6.252   3.792  0.6445  0.2377  1.1613
  107MOL0     H14067   7.573   6.394   3.578  0.2009  3.9279 -0.1459
  107MOL0     H14068   7.508   6.466   3.717  1.2100  0.0130 -1.7162
  107MOL0     H14069   7.712   6.238   3.702 -1.4508 -1.3863  0.7661
  107MOL0     H14070   7.642   6.302   3.853  1.6845 -1.6294 -0.0166
  107MOL0     H14071   7.706   6.535   3.785 -1.4408 -1.4350  0.8619
  107MOL0     H14072   7.802   6.468   3.653 -1.1397 -2.3132 -1.3690
  107MOL0     H14073   7.866   6.444   3.960  0.8193  2.3812 -0.1140
  107MOL0     H14074   7.949   6.358   3.844 -0.2816  0.8950 -1.1589
  107MOL0     H14075   8.020   6.597   3.937  0.7492  3.6471 -0.9808
  107MOL0     H14076   7.926   6.639   3.791 -1.7976 -2.4567 -1.3561
  107MOL0     H14077   8.244   6.477   3.929  1.2458 -0.3216 -0.3628
  107MOL0     H14078   8.465   6.395   3.816 -0.2545 -1.2858 -0.9521
  107MOL0     H14079   8.512   6.531   3.707  0.4749 -0.0521  0.9596
  107MOL0     H14080   8.600   6.347   3.591 -0.1228  2.2578 -1.0562
  107MOL0     H14081   8.457   6.388   3.506  3.1400  0.1572 -1.5301
  107MOL0     H14082   8.345   6.198   3.540 -0.5061 -2.2679  0.7247
  107MOL0     H14083   8.500   6.132   3.577 -1.3322 -2.1304  1.6234
  107MOL0     H14084   8.308   6.237   3.794  1.5465  1.9484 -0.4726
  107MOL0     H14085   8.448   6.155   3.832  1.0082 -1.8517 -0.6513
  107MOL0     H14086   8.204   5.821   3.622  2.3316  1.1862 -1.0262
  107MOL0     H14087   7.969   5.748   3.652 -0.0042  0.9025 -2.0272
  107MOL0     H14088   7.725   5.510   3.736  0.0335 -0.2310  2.8962
  107MOL0     H14089   7.521   5.371   3.768 -0.0895 -0.2240 -0.8078
  107MOL0     H14090   7.140   5.526   3.693  2.1648  1.8401 -0.1572
  107MOL0     H14091   7.120   5.600   3.849 -1.5516 -1.0518  0.4131
  107MOL0     H14092   6.953   5.456   3.846 -0.3086  0.2660 -0.2831
  107MOL0     H14093   7.051   5.363   3.942 -2.3477  2.5928  0.9528
  107MOL0     H14094   7.134   5.244   3.741  0.3000  1.8151  1.2435
  107MOL0     H14095   7.023   5.324   3.634  3.3161 -1.0615 -2.3013
  107MOL0     H14096   6.934   5.113   3.681 -0.8811  2.6519 -2.5094
  107MOL0     H14097   6.954   5.138   3.869  2.3751 -0.4764 -0.9104
  107MOL0     H14098   6.745   5.265   3.675 -2.5142  0.5123  1.4300
  107MOL0     H14099   6.761   5.302   3.844 -0.2210  1.8931 -0.9395
  107MOL0     H14100   6.712   5.059   3.905 -1.9782 -0.0795 -0.2002
  107MOL0     H14101   6.712   5.022   3.735  0.7380  0.2113 -0.8908
  107MOL0     H14102   6.509   5.204   3.878  1.0857  1.5033 -1.6174
  107MOL0     H14103   6.511   5.186   3.710  0.4806  1.5781  1.2287
  107MOL0     H14104   6.335   5.036   3.824 -0.3064  0.0306  0.7272
  107MOL0     H14105   6.460   4.947   3.900 -2.4657 -3.2744 -2.4227
  107MOL0     H14106   7.282   5.727   3.776  1.0101  2.6772 -0.0378
  107MOL0     H14107   7.474   5.862   3.749 -0.0799 -0.2534  0.5804
  107MOL0     H14108   7.901   6.074   3.921 -0.1139  0.9014 -1.3044
  107MOL0     H14109   8.155   6.133   3.896 -0.0292 -0.2678  0.3874
  107MOL0     H14110   7.017   6.041   3.651 -0.7830 -1.5927 -0.0926
  107MOL0     H14111   6.802   5.975   3.666  2.4263 -1.9693 -0.4608
  107MOL0     H14112   6.400   5.872   3.814  0.7278 -1.9924 -0.4449
  107MOL0     H14113   6.178   5.772   3.766 -1.1177 -1.0071 -1.4940
  107MOL0     H14114   5.841   5.845   3.508 -0.0189  3.7129 -2.5128
  107MOL0     H14115   5.945   5.982   3.521 -1.1283 -0.4729 -2.2493
  107MOL0     H14116   5.991   5.942   3.763  0.9561  0.7054 -1.4139
  107MOL0     H14117   5.823   5.982   3.726  0.3406  0.2883 -0.2992
  107MOL0     H14118   5.901   5.696   3.747  0.0255 -0.8524  2.0472
  107MOL0     H14119   5.746   5.760   3.746  0.8358  0.7784 -2.1881
  107MOL0     H14120   5.952   5.814   3.982  0.4107 -1.5959  2.3289
  107MOL0     H14121   5.782   5.849   3.985 -0.6775 -0.1457 -1.8175
  107MOL0     H14122   5.741   5.450   4.068 -1.4385  0.4646 -1.2182
  107MOL0     H14123   6.163   5.952   3.375  0.8160  1.5757 -0.1107
  107MOL0     H14124   6.400   6.028   3.404 -0.2960  1.1097  0.7426
  108MOL0     O14125   0.302   0.201   5.768 -0.8423 -0.1514  0.1437
  108MOL0     C14126   0.367   0.153   5.678  0.4737  0.3730 -0.0475
  108MOL0     O14127   0.335   0.146   5.538 -0.1308 -0.3005 -0.0342
  108MOL0     C14128   0.207   0.156   5.491 -0.8482 -0.4895  0.6092
  108MOL0     C14129   0.094   0.145   5.566 -0.1518 -0.9444 -1.1554
  108MOL0     C14130  -0.031   0.135   5.502  0.6260  0.4535  0.0367
  108MOL0     C14131  -0.046   0.148   5.359 -0.8061  0.3484 -0.4795
  108MOL0     O14132  -0.170   0.127   5.294 -0.2222  0.4014 -0.4444
  108MOL0     C14133  -0.286   0.083   5.368  0.4474 -0.1824 -0.9064
  108MOL0     C14134  -0.412   0.099   5.279 -0.5163 -0.4157 -0.7585
  108MOL0     C14135  -0.532   0.128   5.366 -0.3445 -0.7142 -0.0445
  108MOL0     C14136  -0.575   0.011   5.450  0.5612  0.3952  0.0709
  108MOL0     C14137  -0.688   0.046   5.534 -0.0580  0.7020 -0.4501
  108MOL0     C14138  -0.731  -0.078   5.620  0.2130 -0.6661  0.8206
  108MOL0     C14139  -0.838  -0.054   5.719 -0.6619 -0.1688  0.3674
  108MOL0     C14140  -0.886  -0.170   5.790  0.5734  0.9474 -0.1353
  108MOL0     N14141  -0.955  -0.115   5.903  0.1654 -0.2536  0.3209
  108MOL0     C14142  -0.915  -0.077   6.030  0.2227  0.3297 -0.2813
  108MOL0     C14143  -1.031  -0.038   6.092 -0.1923 -0.8113 -0.2777
  108MOL0     C14144  -1.042   0.016   6.229  0.9252 -0.0033 -0.7558
  108MOL0     C14145  -1.168  -0.022   6.309 -0.2574 -0.4662 -0.6755
  108MOL0     C14146  -1.293   0.050   6.257 -0.4114 -0.4483 -0.6863
  108MOL0     C14147  -1.414  -0.029   6.304 -0.3359 -1.0358  0.5922
  108MOL0     O14148  -1.519   0.064   6.356 -0.2017  0.1586  0.7312
  108MOL0     C14149  -1.650   0.011   6.360 -0.1095 -0.9372 -0.3486
  108MOL0     C14150  -1.719   0.077   6.457 -0.2629  0.7218 -0.3801
  108MOL0     C14151  -1.853   0.040   6.472  0.2029  0.3029  0.1122
  108MOL0     C14152  -1.909  -0.072   6.396  1.3647 -0.4009 -1.0062
  108MOL0     C14153  -2.049  -0.119   6.416 -0.6355  0.3126 -0.7388
  108MOL0     O14154  -2.103  -0.223   6.344 -0.6946  0.8642 -0.3168
  108MOL0     C14155  -2.231  -0.261   6.378 -0.2110 -0.0158 -0.7743
  108MOL0     C14156  -2.235  -0.381   6.454  0.3625  0.6275 -0.8887
  108MOL0     C14157  -2.361  -0.423   6.502  0.4265  0.0094  0.6662
  108MOL0     C14158  -2.475  -0.346   6.477  0.2945 -0.0236 -0.6462
  108MOL0     O14159  -2.600  -0.376   6.535 -0.2636  0.0809 -0.0580
  108MOL0     C14160  -2.595  -0.422   6.676 -0.0006 -0.1821  0.8218
  108MOL0     C14161  -2.739  -0.423   6.737  0.5260  0.1372  0.3714
  108MOL0     C14162  -2.856  -0.501   6.671  0.7770 -0.7540  0.5795
  108MOL0     C14163  -2.986  -0.471   6.754  0.6965 -0.3657  0.1209
  108MOL0     C14164  -3.118  -0.502   6.687 -0.7847 -0.1598  0.3232
  108MOL0     C14165  -3.131  -0.653   6.668  0.2805 -0.0888  0.2634
  108MOL0     C14166  -3.273  -0.704   6.640 -0.1065 -0.4877  0.0421
  108MOL0     C14167  -3.313  -0.665   6.493 -0.1878  0.3821  0.8049
  108MOL0    Cl14168  -3.474  -0.741   6.463 -0.4932  0.1296 -0.1123
  108MOL0     C14169  -2.466  -0.231   6.398  0.0708 -0.2741 -0.6685
  108MOL0     C14170  -2.348  -0.189   6.349 -0.5009  0.8429 -0.1728
  108MOL0     O14171  -2.111  -0.059   6.506  0.9204  0.6367 -0.5105
  108MOL0     C14172  -1.837  -0.123   6.291  0.0847  0.2848 -0.2504
  108MOL0     C14173  -1.704  -0.077   6.273  0.2279  0.5144 -0.6158
  108MOL0     N14174  -1.129  -0.050   5.996  0.3179  0.4069  0.1395
  108MOL0     N14175  -1.088  -0.097   5.889 -0.1835  0.0555 -0.2015
  108MOL0     C14176   0.071   0.164   5.287 -0.1675 -0.2260 -0.3003
  108MOL0     C14177   0.195   0.178   5.350  0.7847  0.0558  0.3306
  108MOL0     C14178   0.509   0.119   5.719  0.3669 -0.3523 -0.5380
  108MOL0     C14179   0.548   0.102   5.852 -0.8246 -0.2945  0.5115
  108MOL0     C14180   0.676   0.059   5.879  0.0347 -0.1269 -0.3992
  108MOL0     C14181   0.767   0.031   5.775  0.2922  0.1184  0.1527
  108MOL0     O14182   0.893  -0.010   5.784  0.3804  0.2371 -0.7315
  108MOL0     C14183   0.955   0.011   5.917  0.7601 -0.4494  0.7725
  108MOL0     C14184   1.110  -0.037   5.928 -0.8213  0.2053 -0.0646
  108MOL0     C14185   1.112  -0.184   5.896 -0.1921  0.9644  0.0626
  108MOL0     C14186   1.260  -0.234   5.882 -0.5322 -0.1820  0.2371
  108MOL0     C14187   1.314  -0.215   5.747 -0.0010 -0.0172 -0.5665
  108MOL0     C14188   1.347  -0.214   5.637 -0.2787 -0.3334 -1.0457
  108MOL0     C14189   0.732   0.054   5.644 -0.4391 -0.3409  0.4522
  108MOL0     C14190   0.602   0.094   5.617 -0.0969 -0.5241 -0.8381
  108MOL0     H14191   0.104   0.147   5.674 -1.4540 -0.2874 -1.0274
  108MOL0     H14192  -0.118   0.119   5.565  0.4621  0.8637 -0.0795
  108MOL0     H14193  -0.284   0.143   5.459  0.3001 -0.1980 -0.8929
  108MOL0     H14194  -0.289  -0.024   5.394 -0.7730 -0.2095 -1.1051
  108MOL0     H14195  -0.419   0.008   5.220  0.0778  0.7507 -2.7084
  108MOL0     H14196  -0.391   0.189   5.220  3.5347 -1.0715 -0.6432
  108MOL0     H14197  -0.611   0.148   5.293  1.3803 -0.0026 -1.7935
  108MOL0     H14198  -0.524   0.213   5.434 -0.3598  0.4608 -1.4690
  108MOL0     H14199  -0.604  -0.071   5.383 -3.7664  1.2648  0.6187
  108MOL0     H14200  -0.485  -0.018   5.506 -0.6479 -0.4490  1.6498
  108MOL0     H14201  -0.765   0.082   5.466  0.0492 -0.8197 -1.4284
  108MOL0     H14202  -0.658   0.128   5.600 -1.6248  3.0541 -2.4826
  108MOL0     H14203  -0.644  -0.106   5.680  1.3483  0.4308 -0.2724
  108MOL0     H14204  -0.766  -0.166   5.565  0.7456 -0.1318 -0.3927
  108MOL0     H14205  -0.791   0.020   5.785  0.3240  2.7577 -3.2823
  108MOL0     H14206  -0.918  -0.004   5.663  0.6604 -1.5622 -3.0018
  108MOL0     H14207  -0.805  -0.231   5.831  0.5890  2.1502  1.7914
  108MOL0     H14208  -0.942  -0.237   5.724 -0.2751  2.4534 -0.9940
  108MOL0     H14209  -0.818  -0.088   6.077 -0.0456 -1.3463 -0.0814
  108MOL0     H14210  -1.039   0.124   6.212  0.3647 -0.0162 -0.9639
  108MOL0     H14211  -0.959  -0.004   6.297  0.1341  0.9926  0.5763
  108MOL0     H14212  -1.159   0.006   6.415  0.7406 -2.8071 -0.0781
  108MOL0     H14213  -1.167  -0.131   6.300  2.4958 -0.4516 -1.2899
  108MOL0     H14214  -1.290   0.154   6.291 -0.4542 -0.7726  0.3718
  108MOL0     H14215  -1.285   0.053   6.148  4.4916  3.0125 -0.5586
  108MOL0     H14216  -1.393  -0.089   6.393  1.1831 -2.7348 -0.8301
  108MOL0     H14217  -1.451  -0.099   6.228 -1.9302 -1.0937  1.3779
  108MOL0     H14218  -1.673   0.152   6.519  1.0716 -1.9453  2.0721
  108MOL0     H14219  -1.906   0.077   6.559  0.3017  0.7423 -0.0120
  108MOL0     H14220  -2.152  -0.443   6.485  1.3491  0.8571 -2.9391
  108MOL0     H14221  -2.360  -0.516   6.559  0.0054 -0.6118 -0.3051
  108MOL0     H14222  -2.530  -0.351   6.728 -1.0373 -1.5911  4.3891
  108MOL0     H14223  -2.550  -0.521   6.687 -0.2318 -0.8474 -2.8429
  108MOL0     H14224  -2.764  -0.317   6.740  0.9035  0.2267  0.4109
  108MOL0     H14225  -2.738  -0.451   6.843 -2.0916  2.2628  1.0455
  108MOL0     H14226  -2.836  -0.608   6.667  0.9449 -0.7128  0.2541
  108MOL0     H14227  -2.875  -0.465   6.569  4.2139  2.8553  0.9561
  108MOL0     H14228  -2.977  -0.532   6.845 -1.9931 -1.0875 -0.0150
  108MOL0     H14229  -2.990  -0.366   6.783  2.1218 -0.7423  1.9226
  108MOL0     H14230  -3.112  -0.449   6.591  1.1810 -0.9887 -0.0746
  108MOL0     H14231  -3.208  -0.472   6.742 -0.2416  2.4362 -0.0619
  108MOL0     H14232  -3.099  -0.703   6.759 -0.0801  2.6476  2.0137
  108MOL0     H14233  -3.063  -0.678   6.586  1.2693 -0.8280  1.3026
  108MOL0     H14234  -3.267  -0.813   6.645  0.2461 -0.4150  1.6423
  108MOL0     H14235  -3.352  -0.663   6.704 -1.0935  2.4928 -2.7690
  108MOL0     H14236  -3.241  -0.703   6.419 -0.7316  0.7833  0.0548
  108MOL0     H14237  -3.317  -0.557   6.480  0.0557  0.2266 -0.7500
  108MOL0     H14238  -2.545  -0.158   6.386 -0.2389 -0.4427  0.2085
  108MOL0     H14239  -2.340  -0.103   6.283 -1.8024  0.5859 -0.6866
  108MOL0     H14240  -1.889  -0.181   6.216 -2.3996  2.2650 -0.1672
  108MOL0     H14241  -1.656  -0.120   6.186  0.3817 -1.4522  0.3849
  108MOL0     H14242   0.085   0.173   5.179  1.9059  3.1830  0.0729
  108MOL0     H14243   0.282   0.189   5.286  0.3859 -0.6179 -0.3437
  108MOL0     H14244   0.483   0.136   5.931  1.3156  1.7058  1.5446
  108MOL0     H14245   0.704   0.061   5.984 -0.0800  0.6515 -0.3758
  108MOL0     H14246   0.901  -0.035   6.000 -1.0672  2.3915  1.2884
  108MOL0     H14247   0.956   0.120   5.928 -0.2015 -0.4857  1.3134
  108MOL0     H14248   1.176   0.017   5.859  1.7395 -2.8015 -0.1675
  108MOL0     H14249   1.151  -0.011   6.026  0.1835 -1.5971  0.0346
  108MOL0     H14250   1.064  -0.203   5.799  0.4172  1.9424 -0.4450
  108MOL0     H14251   1.065  -0.241   5.977 -0.5792  2.2712  0.7733
  108MOL0     H14252   1.307  -0.172   5.958 -1.8492  1.3351 -0.1480
  108MOL0     H14253   1.273  -0.339   5.911  1.0154  0.1281  0.7635
  108MOL0     H14254   1.394  -0.211   5.540  0.1483  0.0561 -0.8268
  108MOL0     H14255   0.805   0.026   5.569 -2.0766 -0.5762 -1.1195
  108MOL0     H14256   0.577   0.106   5.512  1.6873  0.3572 -1.1941
  109MOL0     O14257   3.832   7.439   7.684  0.6230 -0.2583  0.1296
  109MOL0     C14258   3.916   7.495   7.757  0.2295 -0.6354 -0.1619
  109MOL0     O14259   3.898   7.546   7.879 -0.3801 -0.4604  0.5914
  109MOL0     C14260   3.768   7.549   7.923 -0.1168  0.4507  0.7365
  109MOL0     C14261   3.669   7.634   7.866  0.3035  0.5858  0.0497
  109MOL0     C14262   3.539   7.629   7.911  0.1273 -0.1443  0.3043
  109MOL0     C14263   3.495   7.539   8.004 -0.6345  1.0362  0.3073
  109MOL0     O14264   3.370   7.525   8.046 -0.3047 -0.4651  0.1071
  109MOL0     C14265   3.284   7.513   7.932 -0.3903  0.1965 -0.0664
  109MOL0     C14266   3.162   7.444   7.992  0.5893  1.6340  0.6443
  109MOL0     C14267   3.046   7.448   7.884  0.4645  0.8160 -0.6902
  109MOL0     C14268   2.941   7.563   7.879 -0.1514 -1.2834  0.0175
  109MOL0     C14269   2.845   7.543   7.756 -0.0988 -0.7846  0.7093
  109MOL0     C14270   2.736   7.645   7.734 -1.1068 -0.8133  0.3498
  109MOL0     C14271   2.646   7.655   7.854  1.1054  0.7547  0.1569
  109MOL0     C14272   2.556   7.520   7.866  0.1920 -0.7689  0.4994
  109MOL0     N14273   2.470   7.527   7.977  0.6964  0.2956  0.3193
  109MOL0     C14274   2.344   7.579   7.981 -0.4969 -0.2655  0.4125
  109MOL0     C14275   2.318   7.596   8.114 -0.0078  0.0129 -0.4086
  109MOL0     C14276   2.198   7.671   8.164 -0.1846  0.3452  1.0990
  109MOL0     C14277   2.072   7.605   8.113  0.6299  0.0914 -0.7028
  109MOL0     C14278   2.049   7.469   8.182  0.6234  0.0815  0.0116
  109MOL0     C14279   1.944   7.400   8.102 -0.0138  0.1050  1.1743
  109MOL0     O14280   1.905   7.280   8.175 -0.0572  0.4747  0.8553
  109MOL0     C14281   1.771   7.258   8.160 -0.5733 -0.3150  0.3863
  109MOL0     C14282   1.711   7.267   8.040  0.4760  1.0072  0.3989
  109MOL0     C14283   1.573   7.232   8.016  0.4765 -0.7977 -0.2313
  109MOL0     C14284   1.491   7.190   8.129 -0.3674 -0.3443  0.1652
  109MOL0     C14285   1.347   7.184   8.126 -0.0051  0.0181 -0.2866
  109MOL0     O14286   1.267   7.168   8.234 -0.6816 -0.2866  0.1520
  109MOL0     C14287   1.131   7.168   8.217  0.8152 -1.0118  0.1753
  109MOL0     C14288   1.047   7.077   8.279  0.1559  0.0917  1.1538
  109MOL0     C14289   0.907   7.091   8.281 -0.0946 -1.0201  0.6147
  109MOL0     C14290   0.846   7.202   8.220 -0.5608 -0.3360 -0.5101
  109MOL0     O14291   0.708   7.192   8.224 -0.6080 -0.2591 -0.0856
  109MOL0     C14292   0.626   7.309   8.171  0.1967 -0.6095  0.3144
  109MOL0     C14293   0.476   7.286   8.199  0.2020 -0.0229 -0.1089
  109MOL0     C14294   0.375   7.375   8.114 -1.0579 -0.0863 -0.5238
  109MOL0     C14295   0.232   7.330   8.141  0.5585 -0.0060  0.9194
  109MOL0     C14296   0.199   7.198   8.069 -0.1388 -0.1210  0.0198
  109MOL0     C14297   0.050   7.161   8.084 -0.0764  0.1985 -0.5596
  109MOL0     C14298  -0.041   7.232   7.985  0.2878 -0.2357 -0.5173
  109MOL0     C14299  -0.184   7.204   7.999 -0.0503 -0.0198 -0.0563
  109MOL0    Cl14300  -0.286   7.222   7.842 -0.1789  0.3861  0.4786
  109MOL0     C14301   0.926   7.299   8.158 -0.2466  0.3864 -0.1301
  109MOL0     C14302   1.066   7.284   8.162  0.5732 -0.1200  0.1972
  109MOL0     O14303   1.303   7.200   8.011  0.2503 -0.4196  0.2054
  109MOL0     C14304   1.564   7.166   8.247  1.0883 -0.4030  0.2979
  109MOL0     C14305   1.697   7.203   8.265 -0.3491 -0.0177 -0.2294
  109MOL0     N14306   2.431   7.551   8.193  0.2524  0.3355 -0.1382
  109MOL0     N14307   2.522   7.526   8.101  0.7708 -0.3265  0.0809
  109MOL0     C14308   3.598   7.467   8.073 -0.2666 -0.2027  0.1149
  109MOL0     C14309   3.730   7.473   8.037  0.9955  0.0717  0.0867
  109MOL0     C14310   4.049   7.529   7.709  0.1798 -0.2082 -0.6793
  109MOL0     C14311   4.156   7.571   7.790 -1.5008 -0.0058  0.3380
  109MOL0     C14312   4.285   7.594   7.732 -0.7268  0.0927 -0.4437
  109MOL0     C14313   4.314   7.567   7.598  0.5794  0.8791  0.0120
  109MOL0     O14314   4.441   7.572   7.545  0.2032 -0.0087  0.1980
  109MOL0     C14315   4.458   7.664   7.436  0.8079  0.4985  0.1455
  109MOL0     C14316   4.599   7.667   7.390 -0.1621  0.2780 -0.4810
  109MOL0     C14317   4.607   7.703   7.246 -0.7824 -0.5131  0.4475
  109MOL0     C14318   4.742   7.775   7.212 -0.1922 -0.2636 -0.7830
  109MOL0     C14319   4.766   7.773   7.071  0.0625 -0.2641  0.2343
  109MOL0     C14320   4.765   7.795   6.951 -0.0461 -0.1967 -1.0028
  109MOL0     C14321   4.205   7.515   7.524 -1.1815 -0.2169  0.4175
  109MOL0     C14322   4.083   7.498   7.575 -0.4503 -0.1874  0.0096
  109MOL0     H14323   3.696   7.692   7.778  2.1162 -0.5611 -0.2021
  109MOL0     H14324   3.469   7.689   7.854  1.9576  1.3518 -0.4662
  109MOL0     H14325   3.329   7.443   7.860  0.3419  1.9855 -1.4108
  109MOL0     H14326   3.251   7.606   7.886 -0.6330 -0.0860 -0.4719
  109MOL0     H14327   3.135   7.484   8.090  2.3563 -0.1593  1.9299
  109MOL0     H14328   3.188   7.339   8.009 -1.1896  0.7380 -1.6202
  109MOL0     H14329   3.000   7.354   7.916  0.5566  0.9163 -0.2603
  109MOL0     H14330   3.080   7.432   7.782  0.6833  0.7800 -0.6123
  109MOL0     H14331   2.884   7.564   7.973  0.4246  1.2328  0.3975
  109MOL0     H14332   2.988   7.661   7.892 -2.4042  0.0073 -0.9202
  109MOL0     H14333   2.801   7.442   7.758  0.6752 -1.1245  2.0045
  109MOL0     H14334   2.910   7.545   7.668 -1.0392  1.6879  0.0106
  109MOL0     H14335   2.681   7.630   7.640  0.2948 -1.6093 -0.3797
  109MOL0     H14336   2.784   7.742   7.720  1.0527 -2.2973 -5.0336
  109MOL0     H14337   2.688   7.681   7.952 -2.8232  5.0312  1.0507
  109MOL0     H14338   2.578   7.739   7.833 -0.3565 -0.5226 -0.4299
  109MOL0     H14339   2.621   7.433   7.876 -0.0998 -1.4926 -2.8371
  109MOL0     H14340   2.508   7.514   7.768  1.1352  1.5255 -0.1834
  109MOL0     H14341   2.273   7.615   7.907 -0.2541  3.0343  1.6351
  109MOL0     H14342   2.191   7.773   8.127 -2.1642  0.5451  1.9322
  109MOL0     H14343   2.195   7.668   8.274  1.8156  1.0342  1.2195
  109MOL0     H14344   2.070   7.603   8.003  0.2075 -0.6314 -0.6892
  109MOL0     H14345   1.991   7.672   8.142  2.8461  1.4200  3.2033
  109MOL0     H14346   2.137   7.404   8.183 -0.4960 -1.6305  3.3283
  109MOL0     H14347   2.020   7.488   8.286  0.1557 -0.4656 -0.0073
  109MOL0     H14348   1.975   7.378   8.000 -0.6699 -0.2163  1.0373
  109MOL0     H14349   1.858   7.468   8.099  0.8231  1.1635  0.8485
  109MOL0     H14350   1.773   7.286   7.953  2.1466 -1.4212  0.9269
  109MOL0     H14351   1.526   7.235   7.918 -4.0276 -0.9282  1.6673
  109MOL0     H14352   1.105   6.988   8.301  0.6846 -0.3287 -1.5962
  109MOL0     H14353   0.840   7.016   8.323  0.5139  0.1055  3.9186
  109MOL0     H14354   0.636   7.313   8.062  2.7594 -0.2460  0.4797
  109MOL0     H14355   0.655   7.403   8.220 -2.1717 -0.2191  1.1036
  109MOL0     H14356   0.446   7.298   8.304  1.6134 -2.3890  0.6198
  109MOL0     H14357   0.466   7.183   8.163 -1.5737  0.4680 -1.1400
  109MOL0     H14358   0.405   7.374   8.009  0.1879  0.7433 -0.1922
  109MOL0     H14359   0.387   7.477   8.152 -1.1048  0.0782 -0.9498
  109MOL0     H14360   0.201   7.308   8.243 -0.7409 -0.8197  0.3761
  109MOL0     H14361   0.174   7.409   8.091 -1.7683 -1.8420  0.5487
  109MOL0     H14362   0.263   7.126   8.121  1.9778 -0.1786 -2.4482
  109MOL0     H14363   0.235   7.207   7.966  2.9697  0.1500  1.0090
  109MOL0     H14364   0.013   7.173   8.187 -0.1432 -2.0352 -0.2840
  109MOL0     H14365   0.037   7.056   8.056 -1.1438  0.4588 -1.1026
  109MOL0     H14366  -0.026   7.340   7.992 -1.4088  0.0743 -1.3596
  109MOL0     H14367  -0.003   7.201   7.887  0.4939 -1.5752 -0.0398
  109MOL0     H14368  -0.220   7.272   8.077  0.2054 -1.4315  1.3525
  109MOL0     H14369  -0.202   7.104   8.040  2.7873 -0.2716  0.7375
  109MOL0     H14370   0.876   7.381   8.108 -0.9573  0.1559  0.1910
  109MOL0     H14371   1.122   7.366   8.117 -0.1390 -0.8019 -2.0890
  109MOL0     H14372   1.502   7.117   8.322 -0.5940  1.3446  0.1322
  109MOL0     H14373   1.753   7.185   8.357  0.6574 -2.9471 -1.3128
  109MOL0     H14374   3.566   7.409   8.159  1.1230 -0.1278  0.7090
  109MOL0     H14375   3.807   7.427   8.098 -0.6408 -1.2637  1.2401
  109MOL0     H14376   4.134   7.596   7.893 -2.0784  0.4592  0.1101
  109MOL0     H14377   4.373   7.628   7.787 -0.2039  1.0804 -1.8384
  109MOL0     H14378   4.425   7.766   7.455  0.5361  0.8038 -1.7641
  109MOL0     H14379   4.396   7.628   7.353  2.5216 -1.5292 -0.3514
  109MOL0     H14380   4.658   7.740   7.446  3.3165 -3.9844  2.1001
  109MOL0     H14381   4.651   7.571   7.399 -3.0063 -1.7689 -3.6663
  109MOL0     H14382   4.526   7.776   7.237 -0.7556 -0.4630  0.6091
  109MOL0     H14383   4.594   7.617   7.180  0.3763 -0.7883  0.5501
  109MOL0     H14384   4.754   7.878   7.245  1.6910  0.0876 -2.3876
  109MOL0     H14385   4.818   7.714   7.261 -0.0258  0.3985 -0.2136
  109MOL0     H14386   4.758   7.806   6.844 -3.3983 -3.6556 -1.3685
  109MOL0     H14387   4.217   7.479   7.422 -1.9840 -0.6423  0.4679
  109MOL0     H14388   4.011   7.462   7.501 -0.2723  1.5375 -1.0633
  110MOL0     O14389   0.254   4.053   5.092  0.0986 -0.2563  0.1265
  110MOL0     C14390   0.279   4.048   5.210 -0.9286 -0.2902  0.5926
  110MOL0     O14391   0.185   4.069   5.315 -0.3995  0.9653  0.3145
  110MOL0     C14392   0.056   4.102   5.291  0.2717 -0.3802 -0.0396
  110MOL0     C14393   0.001   4.211   5.362 -0.2975  0.7159 -0.6406
  110MOL0     C14394  -0.130   4.261   5.343 -0.3906  1.1721 -0.5126
  110MOL0     C14395  -0.205   4.203   5.254  0.8123  0.5786  0.5936
  110MOL0     O14396  -0.332   4.267   5.234 -0.3600  0.5429  0.0090
  110MOL0     C14397  -0.451   4.196   5.198 -0.2338 -0.6654 -0.1014
  110MOL0     C14398  -0.558   4.237   5.294 -0.2950 -0.5884  0.4295
  110MOL0     C14399  -0.702   4.184   5.252  0.2071  0.0231  0.1996
  110MOL0     C14400  -0.797   4.256   5.343  0.5432 -0.1016 -0.4073
  110MOL0     C14401  -0.936   4.181   5.348  0.3181 -0.5308 -0.2929
  110MOL0     C14402  -0.993   4.142   5.209 -0.3068 -0.1957  0.5123
  110MOL0     C14403  -1.149   4.146   5.192  0.7375 -0.0340 -0.0192
  110MOL0     C14404  -1.213   4.021   5.255  0.3674 -0.2079 -0.3319
  110MOL0     N14405  -1.358   4.050   5.289 -0.2250  0.3400  0.0665
  110MOL0     C14406  -1.409   4.147   5.378  1.0399  1.2018  0.0681
  110MOL0     C14407  -1.545   4.147   5.350  0.5366  0.1120 -0.0342
  110MOL0     C14408  -1.655   4.240   5.408  0.8612  0.4431 -0.0113
  110MOL0     C14409  -1.782   4.241   5.317  0.6527  0.6735 -0.3818
  110MOL0     C14410  -1.874   4.134   5.365 -0.3222 -0.4611  0.0370
  110MOL0     C14411  -2.007   4.145   5.286 -0.0081  0.7771  0.0744
  110MOL0     O14412  -2.102   4.051   5.335  0.4190 -0.1590 -0.1356
  110MOL0     C14413  -2.225   4.053   5.279  0.3529 -0.2516 -0.6165
  110MOL0     C14414  -2.273   4.143   5.183  0.3471  0.0099  0.0066
  110MOL0     C14415  -2.401   4.128   5.136  0.0540 -0.6178  0.1011
  110MOL0     C14416  -2.488   4.028   5.181 -0.1188 -0.0785  0.3203
  110MOL0     C14417  -2.623   3.997   5.113  0.0980  0.0200 -0.5783
  110MOL0     O14418  -2.654   4.072   5.003 -0.4531  0.8999  0.1632
  110MOL0     C14419  -2.779   4.075   4.942 -0.1950 -1.3080  0.4093
  110MOL0     C14420  -2.882   3.979   4.946  0.8933  0.4444  0.0089
  110MOL0     C14421  -2.996   3.987   4.866  0.3594 -0.3011  0.6275
  110MOL0     C14422  -3.018   4.101   4.790 -0.0022  0.2369 -0.8833
  110MOL0     O14423  -3.135   4.112   4.721 -0.6889 -0.5706 -0.1117
  110MOL0     C14424  -3.171   4.000   4.648  0.7705 -0.0330  0.1973
  110MOL0     C14425  -3.296   4.047   4.572  0.1019 -0.2404  0.3047
  110MOL0     C14426  -3.370   3.926   4.508 -0.8926 -0.2376  0.8757
  110MOL0     C14427  -3.293   3.839   4.396  0.5872 -0.2772 -0.0080
  110MOL0     C14428  -3.395   3.760   4.309  1.1325 -0.3200 -0.2909
  110MOL0     C14429  -3.325   3.660   4.210  0.0006 -0.5850 -0.4415
  110MOL0     C14430  -3.436   3.588   4.121  0.3084 -0.1813  0.2366
  110MOL0     C14431  -3.553   3.514   4.198  0.9106  0.1413  0.4519
  110MOL0    Cl14432  -3.501   3.409   4.321  0.0073  0.2497 -0.3547
  110MOL0     C14433  -2.924   4.204   4.797 -0.3306 -0.6842  0.1117
  110MOL0     C14434  -2.802   4.196   4.872  0.4166  0.0717  0.2281
  110MOL0     O14435  -2.692   3.914   5.170  0.0703  0.0821 -0.0630
  110MOL0     C14436  -2.447   3.945   5.283  0.3909 -0.0108  0.2789
  110MOL0     C14437  -2.317   3.963   5.336  0.4222  0.5005 -0.0164
  110MOL0     N14438  -1.575   4.048   5.249 -0.1358 -0.8531  0.3263
  110MOL0     N14439  -1.462   3.991   5.219 -0.6570 -0.0722 -0.7825
  110MOL0     C14440  -0.166   4.085   5.187  0.3561 -0.1032 -0.8740
  110MOL0     C14441  -0.031   4.035   5.207  0.3235  0.1443 -0.0877
  110MOL0     C14442   0.418   4.016   5.247 -0.3459 -0.1250 -1.8923
  110MOL0     C14443   0.458   4.034   5.378  0.6220 -0.5684 -0.5739
  110MOL0     C14444   0.594   4.031   5.427  1.6648  0.1833  0.3458
  110MOL0     C14445   0.689   3.984   5.339 -0.6917  0.3532 -0.1499
  110MOL0     O14446   0.810   3.967   5.405  0.0957  0.1912  0.5685
  110MOL0     C14447   0.908   3.889   5.342  0.4378  0.5655  0.5451
  110MOL0     C14448   0.873   3.742   5.340  0.3107 -0.2705  0.3528
  110MOL0     C14449   0.981   3.653   5.283 -0.2773 -0.1551  0.2154
  110MOL0     C14450   1.027   3.675   5.133 -0.0780 -0.9880 -0.8285
  110MOL0     C14451   0.906   3.670   5.047 -0.6520  0.6273  0.6009
  110MOL0     C14452   0.808   3.661   4.976 -0.0326 -0.4706  0.0120
  110MOL0     C14453   0.655   3.965   5.205 -0.2043  0.1991  0.0322
  110MOL0     C14454   0.523   3.972   5.170 -0.7447  0.4953 -0.3155
  110MOL0     H14455   0.075   4.257   5.427 -1.6090 -0.5223  1.8991
  110MOL0     H14456  -0.155   4.352   5.397  1.3518  0.8426  0.9454
  110MOL0     H14457  -0.436   4.088   5.212  1.2385 -0.2584  1.7282
  110MOL0     H14458  -0.480   4.221   5.096  0.4449  2.0850  0.3181
  110MOL0     H14459  -0.569   4.346   5.297 -1.6739 -0.7122  0.3315
  110MOL0     H14460  -0.537   4.202   5.396 -0.3252 -0.8634  0.3408
  110MOL0     H14461  -0.711   4.076   5.271 -1.8461  0.4427  2.1473
  110MOL0     H14462  -0.726   4.202   5.147 -3.4084 -2.0971  0.4794
  110MOL0     H14463  -0.765   4.255   5.448  0.6416 -1.2899 -0.4341
  110MOL0     H14464  -0.810   4.361   5.318  0.3664  0.2861  1.2126
  110MOL0     H14465  -1.005   4.255   5.388  0.5206  0.1456 -1.1594
  110MOL0     H14466  -0.930   4.095   5.415  2.7347 -2.8457 -3.1832
  110MOL0     H14467  -0.958   4.041   5.186 -2.1264 -0.7402 -0.0797
  110MOL0     H14468  -0.960   4.217   5.137 -1.3688 -1.0852 -0.9616
  110MOL0     H14469  -1.182   4.241   5.236 -1.6207 -2.0040  2.9287
  110MOL0     H14470  -1.174   4.152   5.086 -1.6249  2.2413  0.5664
  110MOL0     H14471  -1.163   3.991   5.347 -2.3147  1.6835  1.9306
  110MOL0     H14472  -1.199   3.939   5.184  3.3190 -2.0211  2.1371
  110MOL0     H14473  -1.349   4.210   5.443  3.5268  0.8422 -1.7272
  110MOL0     H14474  -1.631   4.346   5.418  1.2139  0.3266  0.4011
  110MOL0     H14475  -1.682   4.200   5.507 -1.8337  1.1821 -0.3766
  110MOL0     H14476  -1.755   4.218   5.213 -1.8184 -1.8843 -0.5910
  110MOL0     H14477  -1.845   4.330   5.329 -0.6441 -0.2743  0.1126
  110MOL0     H14478  -1.832   4.035   5.344 -1.3652 -1.1282  1.0011
  110MOL0     H14479  -1.896   4.152   5.470 -0.9941 -0.7963 -0.0375
  110MOL0     H14480  -1.995   4.125   5.179 -0.5531 -0.8824  0.3044
  110MOL0     H14481  -2.057   4.242   5.297 -2.6960 -0.6399  1.3719
  110MOL0     H14482  -2.207   4.212   5.131 -1.6246  0.1638 -2.5085
  110MOL0     H14483  -2.441   4.177   5.048 -1.3772 -4.5513 -1.6291
  110MOL0     H14484  -2.879   3.890   5.009 -3.5199  0.5177  0.6799
  110MOL0     H14485  -3.065   3.903   4.873 -0.5056  0.5319  2.6394
  110MOL0     H14486  -3.200   3.911   4.706  0.8119 -0.7133 -0.7946
  110MOL0     H14487  -3.095   3.965   4.577 -0.6361  1.4423 -2.1575
  110MOL0     H14488  -3.276   4.111   4.486  0.0424 -1.5069 -0.6854
  110MOL0     H14489  -3.366   4.102   4.635  0.1466 -0.4230  0.5162
  110MOL0     H14490  -3.450   3.976   4.454 -2.2069 -0.7735  2.2695
  110MOL0     H14491  -3.408   3.869   4.593 -2.9146  0.9581  0.8354
  110MOL0     H14492  -3.236   3.903   4.328 -1.1603  1.0321 -0.2810
  110MOL0     H14493  -3.227   3.765   4.442 -0.5573 -1.6238 -0.4686
  110MOL0     H14494  -3.458   3.830   4.254 -0.9861 -1.3309  0.7212
  110MOL0     H14495  -3.462   3.703   4.374  0.5266 -1.7969 -2.1221
  110MOL0     H14496  -3.277   3.578   4.265  1.6100  1.2245  1.0047
  110MOL0     H14497  -3.251   3.700   4.140  1.0396 -1.4591  0.1347
  110MOL0     H14498  -3.474   3.665   4.053 -2.6795 -1.3720  0.4253
  110MOL0     H14499  -3.386   3.511   4.062 -1.1115  1.2821 -3.1544
  110MOL0     H14500  -3.598   3.457   4.117 -1.2043  2.9399 -0.4880
  110MOL0     H14501  -3.625   3.589   4.234  1.4205  1.0752 -0.4206
  110MOL0     H14502  -2.930   4.293   4.734 -2.4985 -1.7659 -1.3390
  110MOL0     H14503  -2.723   4.271   4.876  0.7742 -0.3340  1.4407
  110MOL0     H14504  -2.508   3.869   5.332 -0.0968  1.3352  1.8432
  110MOL0     H14505  -2.290   3.909   5.426  3.9871 -0.0511 -1.2781
  110MOL0     H14506  -0.235   4.041   5.116 -0.0510  0.0979 -0.6095
  110MOL0     H14507   0.001   3.943   5.159 -2.6453 -0.9950 -0.1061
  110MOL0     H14508   0.390   4.058   5.459  3.5759 -0.8069  2.2121
  110MOL0     H14509   0.629   4.049   5.528 -0.6558 -0.4546  1.3236
  110MOL0     H14510   0.996   3.891   5.407  1.6819 -1.2245 -0.9997
  110MOL0     H14511   0.936   3.936   5.248  1.6103  0.4452  0.8135
  110MOL0     H14512   0.851   3.718   5.445  0.0396  1.5905  0.7508
  110MOL0     H14513   0.776   3.741   5.290  0.0047  4.4597  0.4276
  110MOL0     H14514   0.943   3.550   5.288  0.6045 -0.9342 -4.2864
  110MOL0     H14515   1.070   3.662   5.346  0.7208 -1.5634 -0.9032
  110MOL0     H14516   1.072   3.775   5.126 -0.9222 -0.0722  3.6818
  110MOL0     H14517   1.101   3.599   5.107  0.2193 -0.4361 -1.6258
  110MOL0     H14518   0.716   3.640   4.926 -0.5595 -0.7114  1.0504
  110MOL0     H14519   0.732   3.929   5.137  2.2883  1.9269  1.7549
  110MOL0     H14520   0.508   3.956   5.064  2.6692 -0.2791 -0.7941
  111MOL0     O14521   9.110   6.707   5.626  0.4337 -0.2663 -0.1480
  111MOL0     C14522   9.157   6.601   5.662  0.3846  0.0265 -0.2954
  111MOL0     O14523   9.284   6.554   5.632 -0.7242 -0.0288  0.3106
  111MOL0     C14524   9.380   6.637   5.568  0.0789 -0.8860 -1.2863
  111MOL0     C14525   9.443   6.596   5.454 -0.0949  0.3905 -0.1218
  111MOL0     C14526   9.525   6.673   5.384 -0.1907  0.9566  0.8246
  111MOL0     C14527   9.552   6.807   5.428  1.1185 -0.5499 -0.4858
  111MOL0     O14528   9.620   6.906   5.357  0.3143 -0.0021 -0.2519
  111MOL0     C14529   9.627   6.885   5.214  0.3350  0.4049  0.5301
  111MOL0     C14530   9.720   6.980   5.142  0.5140  0.1330 -0.4834
  111MOL0     C14531   9.870   6.951   5.148 -0.2808 -0.1035 -0.2596
  111MOL0     C14532   9.952   7.037   5.059 -0.0851 -0.4207 -0.8614
  111MOL0     C14533  10.101   7.007   5.081 -0.0614 -0.5931  0.1486
  111MOL0     C14534  10.181   7.091   4.985 -0.1849  0.1276  0.2148
  111MOL0     C14535  10.327   7.030   5.001  0.1466  0.5384  0.7795
  111MOL0     C14536  10.418   7.087   4.892 -0.0230 -0.1966 -1.0823
  111MOL0     N14537  10.564   7.055   4.909  0.7594  0.4334 -0.2686
  111MOL0     C14538  10.666   7.126   4.853  0.0867  0.0264  0.0612
  111MOL0     C14539  10.774   7.059   4.886  0.3247 -0.0024  1.0008
  111MOL0     C14540  10.915   7.109   4.840 -0.0927  0.1931 -0.4199
  111MOL0     C14541  11.035   7.018   4.862  0.2693 -0.6201  0.7204
  111MOL0     C14542  11.147   7.080   4.775 -0.0591  0.4167 -0.7885
  111MOL0     C14543  11.261   6.988   4.802 -0.0672  0.2137  0.1855
  111MOL0     O14544  11.382   7.029   4.740  0.5315 -0.7126  0.8395
  111MOL0     C14545  11.482   6.945   4.708 -0.6568  0.2142  0.3318
  111MOL0     C14546  11.481   6.805   4.723  0.9899 -0.6815 -0.3212
  111MOL0     C14547  11.589   6.728   4.701 -0.2808  0.4548 -0.0888
  111MOL0     C14548  11.702   6.793   4.640 -0.0849 -0.0792 -0.5690
  111MOL0     C14549  11.818   6.712   4.592 -0.5494  0.2312 -0.0305
  111MOL0     O14550  11.918   6.783   4.546  0.6302  0.0333  0.5671
  111MOL0     C14551  12.037   6.724   4.495 -1.4624  1.2537  0.7081
  111MOL0     C14552  12.064   6.587   4.469  0.6544  0.0117  0.2642
  111MOL0     C14553  12.197   6.540   4.442 -0.1982  0.0791 -0.7996
  111MOL0     C14554  12.305   6.622   4.440 -0.0508  0.0945 -0.5262
  111MOL0     O14555  12.433   6.572   4.417 -0.2205 -0.0897  0.5090
  111MOL0     C14556  12.538   6.658   4.397  0.4137 -0.7856 -0.1651
  111MOL0     C14557  12.669   6.577   4.347  0.0140 -0.2851  0.0449
  111MOL0     C14558  12.805   6.638   4.393  0.5233  0.2997  0.4914
  111MOL0     C14559  12.826   6.634   4.536 -0.0364 -0.2935 -0.0261
  111MOL0     C14560  12.979   6.626   4.577 -0.1410  0.3733 -0.5117
  111MOL0     C14561  12.993   6.600   4.731 -0.3009 -0.1987 -0.0277
  111MOL0     C14562  13.124   6.621   4.791  0.6151  0.3118  0.7759
  111MOL0     C14563  13.244   6.549   4.722 -0.1385  0.2346  0.0285
  111MOL0    Cl14564  13.239   6.373   4.756 -0.7063 -0.2425  0.1390
  111MOL0     C14565  12.278   6.760   4.466 -0.3481 -0.0128 -0.1597
  111MOL0     C14566  12.148   6.807   4.491  0.5752  0.2017 -0.3135
  111MOL0     O14567  11.799   6.591   4.588 -0.4982 -0.3001  0.7692
  111MOL0     C14568  11.700   6.933   4.617  0.7645  0.6604 -0.6487
  111MOL0     C14569  11.597   7.011   4.663  0.2794  0.2709  0.1620
  111MOL0     N14570  10.745   6.943   4.953  0.3331 -1.0617  0.4408
  111MOL0     N14571  10.616   6.941   4.965  0.0910  0.5432 -0.4245
  111MOL0     C14572   9.484   6.855   5.544 -0.3620 -0.3875  0.0773
  111MOL0     C14573   9.395   6.769   5.607  0.8035 -0.1401 -0.0703
  111MOL0     C14574   9.077   6.527   5.754  0.1108 -0.3932 -0.0183
  111MOL0     C14575   9.128   6.423   5.833 -0.1888  0.4464 -0.2204
  111MOL0     C14576   9.049   6.355   5.924 -0.1408  0.3372 -0.3747
  111MOL0     C14577   8.929   6.408   5.954  0.9900  0.1555  0.0962
  111MOL0     O14578   8.863   6.346   6.063 -0.0080 -1.0531  0.7572
  111MOL0     C14579   8.742   6.397   6.112  0.4803  0.1453  0.7107
  111MOL0     C14580   8.672   6.295   6.197  0.1619 -0.2859  0.2187
  111MOL0     C14581   8.532   6.353   6.241  0.2609 -0.9683 -0.5473
  111MOL0     C14582   8.437   6.248   6.294  0.3087  0.0537  0.6467
  111MOL0     C14583   8.323   6.297   6.371 -0.0359 -0.0759  0.1871
  111MOL0     C14584   8.227   6.319   6.446 -0.9599  0.2124  0.1021
  111MOL0     C14585   8.873   6.516   5.884  0.2968 -0.3644  0.2087
  111MOL0     C14586   8.941   6.566   5.776  0.6649  0.2211 -0.4289
  111MOL0     H14587   9.433   6.492   5.424  1.3366 -0.4260  2.0046
  111MOL0     H14588   9.567   6.636   5.291 -0.9327  1.9390  0.0627
  111MOL0     H14589   9.525   6.897   5.176  0.9891  0.4421 -1.3406
  111MOL0     H14590   9.652   6.783   5.183 -2.7274 -0.0680 -0.8167
  111MOL0     H14591   9.691   7.077   5.184 -2.8759 -0.6771 -0.6645
  111MOL0     H14592   9.689   6.995   5.038 -0.6093  0.6110 -0.0922
  111MOL0     H14593   9.886   6.845   5.126 -2.1548 -0.1909 -1.4770
  111MOL0     H14594   9.909   6.968   5.249  2.6342 -0.5455 -1.2197
  111MOL0     H14595   9.929   7.030   4.952  0.6239  3.2628 -1.4046
  111MOL0     H14596   9.921   7.141   5.075 -0.9194 -0.5067 -1.8100
  111MOL0     H14597  10.107   6.899   5.065 -1.7900 -0.9996  1.8575
  111MOL0     H14598  10.131   7.018   5.185  2.2472  1.2790 -0.6446
  111MOL0     H14599  10.167   7.198   5.005 -0.3889  0.4136 -1.3449
  111MOL0     H14600  10.142   7.084   4.883 -3.6795 -1.5482  1.4767
  111MOL0     H14601  10.367   7.048   5.102  1.6056 -0.0518  0.3278
  111MOL0     H14602  10.326   6.924   4.976 -1.2179  1.3608 -3.3747
  111MOL0     H14603  10.414   7.196   4.897 -2.3343 -0.2100 -1.5263
  111MOL0     H14604  10.376   7.060   4.795  1.6957 -1.5734 -1.4900
  111MOL0     H14605  10.658   7.222   4.801 -2.5977  1.1557  2.2751
  111MOL0     H14606  10.940   7.200   4.896 -0.6420 -0.7144  1.3501
  111MOL0     H14607  10.903   7.124   4.732  1.8951 -3.5487 -1.3113
  111MOL0     H14608  11.003   6.915   4.844 -1.1835 -0.0382 -0.2571
  111MOL0     H14609  11.061   7.026   4.968 -0.7315  0.8433  0.8912
  111MOL0     H14610  11.122   7.076   4.668  2.0286  1.9676 -1.3834
  111MOL0     H14611  11.165   7.181   4.810  1.9284  0.2640 -1.2551
  111MOL0     H14612  11.232   6.886   4.772 -0.5966  0.5805 -0.5959
  111MOL0     H14613  11.276   6.980   4.909  0.7909  1.6763  0.1893
  111MOL0     H14614  11.395   6.754   4.765  1.3869  1.6550  3.8818
  111MOL0     H14615  11.585   6.624   4.730 -5.6421  0.4990  0.3334
  111MOL0     H14616  11.989   6.508   4.467 -0.3723  0.9508  0.5174
  111MOL0     H14617  12.208   6.433   4.425 -3.0782 -0.7607  1.6398
  111MOL0     H14618  12.565   6.723   4.481  0.3820  0.9202 -1.4219
  111MOL0     H14619  12.506   6.731   4.322 -1.6333 -0.4361  0.9405
  111MOL0     H14620  12.657   6.576   4.239 -1.2575  0.6309  0.1620
  111MOL0     H14621  12.660   6.477   4.392  0.3743 -1.2716 -1.9642
  111MOL0     H14622  12.794   6.744   4.368 -3.1038  0.4251  2.0449
  111MOL0     H14623  12.887   6.582   4.347 -0.2534  1.0134 -1.8994
  111MOL0     H14624  12.781   6.723   4.581 -3.4863 -0.1655 -3.2097
  111MOL0     H14625  12.763   6.553   4.575  1.8710 -1.2433  1.2549
  111MOL0     H14626  13.034   6.716   4.550  0.2226  0.8250  1.5376
  111MOL0     H14627  13.028   6.556   4.509  0.7938  2.6074 -2.2461
  111MOL0     H14628  12.963   6.497   4.753 -0.0054 -0.0128  1.3378
  111MOL0     H14629  12.935   6.674   4.786  3.0823  1.7359  1.2304
  111MOL0     H14630  13.148   6.727   4.776 -0.0737  0.1312 -2.3770
  111MOL0     H14631  13.112   6.601   4.898 -0.0144 -0.7924  0.5132
  111MOL0     H14632  13.330   6.601   4.766  0.0020 -0.9788  1.2539
  111MOL0     H14633  13.250   6.564   4.614 -0.5747  2.2597  0.2392
  111MOL0     H14634  12.359   6.834   4.463 -0.1036 -0.2396  0.7343
  111MOL0     H14635  12.139   6.913   4.510 -0.4977 -0.2173  1.9538
  111MOL0     H14636  11.766   6.988   4.551  0.0294  2.2657 -0.0767
  111MOL0     H14637  11.595   7.118   4.644  0.5197  0.0617 -1.1428
  111MOL0     H14638   9.507   6.953   5.586  0.2100  0.5012 -2.1501
  111MOL0     H14639   9.344   6.806   5.695  0.6318 -0.0844 -0.1934
  111MOL0     H14640   9.232   6.393   5.827 -0.6317 -2.5026  3.2304
  111MOL0     H14641   9.084   6.260   5.965  2.2126  1.0210 -0.6483
  111MOL0     H14642   8.673   6.417   6.031  1.6075  0.2363 -0.2562
  111MOL0     H14643   8.762   6.489   6.169  1.5523  0.5530 -0.2657
  111MOL0     H14644   8.663   6.209   6.130  3.6111  0.3212 -1.2285
  111MOL0     H14645   8.733   6.270   6.284 -0.8341 -0.7978  0.7922
  111MOL0     H14646   8.495   6.403   6.150  0.4440 -0.7941 -0.5287
  111MOL0     H14647   8.541   6.429   6.319  1.6612  0.3735 -1.9173
  111MOL0     H14648   8.403   6.175   6.220 -0.1619 -0.2630  1.1707
  111MOL0     H14649   8.505   6.202   6.366 -0.4783  0.5883  1.7573
  111MOL0     H14650   8.145   6.337   6.512 -0.2461 -1.5078  1.5422
  111MOL0     H14651   8.773   6.557   5.895 -0.3163 -1.2989 -1.5275
  111MOL0     H14652   8.896   6.634   5.704  2.4427  1.0746 -0.7771
  112MOL0     O14653   4.864   2.084  10.177  0.3032 -0.4352 -0.6420
  112MOL0     C14654   4.862   2.199  10.217 -0.1690 -0.0039 -0.7907
  112MOL0     O14655   4.970   2.269  10.246  0.2555 -0.3148 -0.4890
  112MOL0     C14656   5.092   2.217  10.199 -0.5793 -0.5554  0.4219
  112MOL0     C14657   5.136   2.225  10.065 -0.4012 -0.3569 -0.4794
  112MOL0     C14658   5.269   2.188  10.021 -0.0761  0.5745 -0.3570
  112MOL0     C14659   5.361   2.156  10.124 -1.2142  0.7084  0.7355
  112MOL0     O14660   5.486   2.122  10.079  0.2560 -0.4812 -0.2994
  112MOL0     C14661   5.575   2.026  10.137 -0.7021 -0.3703  0.6160
  112MOL0     C14662   5.710   2.042  10.072 -0.2532  0.1953  0.3978
  112MOL0     C14663   5.796   2.165  10.116 -0.1541  0.1657  0.2256
  112MOL0     C14664   5.946   2.150  10.075 -0.6245  0.3375  0.1273
  112MOL0     C14665   6.042   2.271  10.105  0.5530 -0.0259 -0.4363
  112MOL0     C14666   6.183   2.269  10.045 -0.7694 -0.2278  0.1495
  112MOL0     C14667   6.195   2.254   9.889 -0.8286 -0.0228 -0.4276
  112MOL0     C14668   6.331   2.297   9.846 -0.1137 -0.9407  0.0069
  112MOL0     N14669   6.357   2.260   9.701 -0.5089  0.0249 -0.1140
  112MOL0     C14670   6.314   2.326   9.587 -0.6809 -0.1890 -0.1864
  112MOL0     C14671   6.362   2.246   9.487  0.0363  0.5760  1.1269
  112MOL0     C14672   6.332   2.253   9.336  0.4873  0.3159  0.4781
  112MOL0     C14673   6.228   2.136   9.308  0.2897  0.1024  0.1616
  112MOL0     C14674   6.095   2.136   9.388 -0.0872 -0.1112 -0.9466
  112MOL0     C14675   6.003   2.028   9.334  0.0326 -0.0027 -0.2709
  112MOL0     O14676   5.870   2.032   9.401 -0.8813  0.5643  0.1479
  112MOL0     C14677   5.773   1.952   9.369  0.7712 -0.4920  0.4502
  112MOL0     C14678   5.749   1.893   9.246  0.2615  0.5841 -0.5252
  112MOL0     C14679   5.628   1.826   9.226 -0.0102  0.1421  0.1173
  112MOL0     C14680   5.526   1.825   9.316 -0.9121  0.4234 -0.1891
  112MOL0     C14681   5.403   1.758   9.276 -0.1504 -0.6975  0.4902
  112MOL0     O14682   5.313   1.743   9.368  0.0051  0.7718 -0.1693
  112MOL0     C14683   5.183   1.713   9.344  0.6653 -0.4521 -0.6760
  112MOL0     C14684   5.119   1.628   9.438 -0.6490  0.4149  0.0928
  112MOL0     C14685   4.981   1.612   9.433 -0.9810 -0.3025 -0.4758
  112MOL0     C14686   4.903   1.667   9.334 -1.0469 -0.7922 -0.3232
  112MOL0     O14687   4.771   1.638   9.322  0.1545  0.1487  0.2802
  112MOL0     C14688   4.708   1.655   9.199 -1.1396  0.0464 -0.1986
  112MOL0     C14689   4.572   1.574   9.187  0.8371 -0.3776 -1.1504
  112MOL0     C14690   4.456   1.638   9.109 -0.0251  0.2300 -0.3469
  112MOL0     C14691   4.343   1.538   9.080 -0.3123  0.9689 -1.0731
  112MOL0     C14692   4.213   1.616   9.072  0.1252  0.2319 -0.4488
  112MOL0     C14693   4.096   1.508   9.074 -0.4243 -0.3314 -0.1430
  112MOL0     C14694   3.953   1.575   9.066  0.3397  0.1810  0.2899
  112MOL0     C14695   3.833   1.477   9.068 -0.0833 -0.0995 -0.3781
  112MOL0    Cl14696   3.829   1.367   8.928 -0.1910 -0.4900 -0.4599
  112MOL0     C14697   4.966   1.746   9.238 -0.0622  0.0783 -0.0325
  112MOL0     C14698   5.105   1.764   9.243 -1.2652  0.3710 -0.8778
  112MOL0     O14699   5.390   1.729   9.155 -0.6681  0.5977  0.6264
  112MOL0     C14700   5.542   1.885   9.440 -1.0503  0.6023 -0.1454
  112MOL0     C14701   5.669   1.953   9.465  0.0950  0.8611  0.1059
  112MOL0     N14702   6.439   2.141   9.538  0.7890  0.8121  0.4485
  112MOL0     N14703   6.439   2.153   9.668  0.5946  0.5009 -0.4068
  112MOL0     C14704   5.322   2.163  10.259 -0.4187  0.1265 -0.0995
  112MOL0     C14705   5.192   2.188  10.298 -0.3425 -0.7193 -0.2016
  112MOL0     C14706   4.734   2.274  10.224  0.3310  0.3872 -0.9523
  112MOL0     C14707   4.608   2.219  10.256  0.4532 -0.2105 -0.6955
  112MOL0     C14708   4.490   2.294  10.260 -0.6392  0.5366 -0.1008
  112MOL0     C14709   4.491   2.428  10.233  0.1924 -0.6148  0.2469
  112MOL0     O14710   4.370   2.495  10.244  0.3481  0.3616  0.0983
  112MOL0     C14711   4.349   2.622  10.175  0.1644 -0.2903 -0.8734
  112MOL0     C14712   4.203   2.626  10.137 -0.2573  0.0926  0.5047
  112MOL0     C14713   4.105   2.644  10.254  1.4557  0.3685  0.0800
  112MOL0     C14714   3.951   2.641  10.218  0.3614 -0.0123  0.5392
  112MOL0     C14715   3.905   2.725  10.101  0.0284 -0.2010  0.2905
  112MOL0     C14716   3.882   2.800  10.008 -0.7677  0.9414  0.3233
  112MOL0     C14717   4.611   2.483  10.191 -1.2077 -0.7728  0.0207
  112MOL0     C14718   4.732   2.414  10.192 -0.8817  0.3008 -0.3508
  112MOL0     H14719   5.064   2.250   9.988 -1.0260 -0.4443  0.0676
  112MOL0     H14720   5.299   2.202   9.918  1.0915  4.4095  0.3545
  112MOL0     H14721   5.535   1.928  10.110 -1.2211  0.1095 -0.3912
  112MOL0     H14722   5.580   2.025  10.247 -0.4634 -1.0686  0.6079
  112MOL0     H14723   5.695   2.054   9.965 -0.8145 -0.0390  0.4438
  112MOL0     H14724   5.779   1.960  10.093 -1.4197 -1.6833 -2.4997
  112MOL0     H14725   5.782   2.181  10.223 -2.3287 -0.9226  0.1559
  112MOL0     H14726   5.758   2.257  10.070 -0.6690  0.3626  1.0379
  112MOL0     H14727   5.991   2.058  10.115  0.2713  0.6710 -0.0872
  112MOL0     H14728   5.958   2.137   9.967  3.0486 -1.8654  0.6339
  112MOL0     H14729   6.057   2.270  10.213 -0.9201 -0.1729 -0.2059
  112MOL0     H14730   5.983   2.359  10.078  0.8534 -0.5427 -3.0204
  112MOL0     H14731   6.255   2.199  10.089  0.9262  1.1855 -0.2807
  112MOL0     H14732   6.232   2.365  10.063 -3.7531  1.5775 -0.5879
  112MOL0     H14733   6.189   2.148   9.864 -1.9446 -0.1222  0.2181
  112MOL0     H14734   6.112   2.305   9.841 -2.3152 -1.4070  0.5834
  112MOL0     H14735   6.413   2.257   9.906  1.7131  2.1594 -0.1914
  112MOL0     H14736   6.330   2.406   9.847 -3.0159 -0.8727  0.9943
  112MOL0     H14737   6.249   2.412   9.577  0.4172  0.6423 -0.3948
  112MOL0     H14738   6.422   2.243   9.274 -1.6254 -1.7670 -2.5094
  112MOL0     H14739   6.280   2.342   9.301  2.1591  0.9102 -0.6230
  112MOL0     H14740   6.266   2.034   9.301 -3.7449 -1.5262 -0.8625
  112MOL0     H14741   6.190   2.143   9.206 -2.7335 -4.8583  0.6547
  112MOL0     H14742   6.099   2.116   9.496 -2.0293 -1.3719 -1.0550
  112MOL0     H14743   6.043   2.230   9.369 -0.8764  0.0694  1.7464
  112MOL0     H14744   6.047   1.931   9.358  3.1876  0.4209 -3.4495
  112MOL0     H14745   5.997   2.033   9.225 -1.5501  0.7779 -0.1746
  112MOL0     H14746   5.816   1.901   9.162  1.0920 -0.3225  0.0326
  112MOL0     H14747   5.616   1.794   9.123 -1.9288  0.8189  0.1053
  112MOL0     H14748   5.182   1.579   9.511 -2.8919  1.2145  2.7781
  112MOL0     H14749   4.940   1.538   9.501  2.1769 -0.3171  1.6286
  112MOL0     H14750   4.763   1.632   9.108 -3.6048 -0.1670 -1.7197
  112MOL0     H14751   4.676   1.759   9.199  0.0511  0.4566 -2.0241
  112MOL0     H14752   4.547   1.557   9.292  2.4756  1.7858 -0.3196
  112MOL0     H14753   4.587   1.480   9.135 -0.2495 -0.4526 -1.3541
  112MOL0     H14754   4.496   1.673   9.013 -1.4476 -1.2873 -1.5516
  112MOL0     H14755   4.416   1.723   9.166  0.7921  0.0861  0.4691
  112MOL0     H14756   4.361   1.480   8.989  0.1616 -0.9020  0.1552
  112MOL0     H14757   4.326   1.475   9.168  3.3804  1.6329  0.2994
  112MOL0     H14758   4.198   1.663   8.974 -3.1668 -0.0364 -0.1925
  112MOL0     H14759   4.208   1.691   9.151  2.8753 -1.7173  1.7750
  112MOL0     H14760   4.102   1.437   9.157 -0.3833  0.3596  0.4501
  112MOL0     H14761   4.106   1.446   8.984 -0.2774  1.6050 -1.5046
  112MOL0     H14762   3.944   1.628   9.161 -4.1409 -2.2402  1.5044
  112MOL0     H14763   3.947   1.641   8.978 -1.4270 -1.7564 -1.1484
  112MOL0     H14764   3.735   1.526   9.065 -0.8051 -1.4917 -0.6925
  112MOL0     H14765   3.848   1.418   9.158  0.4128  0.2482 -0.2331
  112MOL0     H14766   4.913   1.789   9.154 -3.8667 -0.1117  2.0667
  112MOL0     H14767   5.150   1.824   9.165  2.4958  2.1727  2.3446
  112MOL0     H14768   5.469   1.883   9.520 -0.2393 -0.2869  0.6049
  112MOL0     H14769   5.685   1.998   9.563 -3.1140  2.2529  0.0968
  112MOL0     H14770   5.408   2.146  10.324 -0.1852 -0.7296 -0.6130
  112MOL0     H14771   5.169   2.196  10.404  0.7778  1.4034 -0.0498
  112MOL0     H14772   4.603   2.116  10.288  2.0253  0.9592  4.3204
  112MOL0     H14773   4.399   2.248  10.296  0.1178 -1.8689 -1.0730
  112MOL0     H14774   4.417   2.631  10.090  0.4398 -2.0683 -0.8849
  112MOL0     H14775   4.368   2.709  10.239  1.6845 -0.9420 -0.3926
  112MOL0     H14776   4.182   2.716  10.078  1.1622  1.0454  1.4064
  112MOL0     H14777   4.178   2.538  10.076  1.7207 -1.2310  1.4780
  112MOL0     H14778   4.109   2.747  10.290  0.0799  1.4079 -2.4518
  112MOL0     H14779   4.129   2.574  10.334  1.4021  0.6780  0.3643
  112MOL0     H14780   3.918   2.543  10.184  3.1242 -0.3278 -1.6753
  112MOL0     H14781   3.888   2.679  10.299 -1.1147 -0.6023 -0.2942
  112MOL0     H14782   3.835   2.858   9.930  0.6015  1.9374  0.1949
  112MOL0     H14783   4.622   2.588  10.165  1.7685 -0.9835  0.0127
  112MOL0     H14784   4.816   2.467  10.148 -1.6112  2.3785  0.6546
  113MOL0     O14785   0.508   8.259   4.415 -0.1655 -0.8597  0.1827
  113MOL0     C14786   0.566   8.326   4.322  0.0173 -0.8920  0.3441
  113MOL0     O14787   0.517   8.345   4.195  0.1390 -0.6499  0.6433
  113MOL0     C14788   0.379   8.318   4.189 -0.6059 -0.5657  0.2744
  113MOL0     C14789   0.344   8.226   4.099  0.1047  0.0561  1.0334
  113MOL0     C14790   0.211   8.198   4.072 -1.0099  0.0180  0.5502
  113MOL0     C14791   0.118   8.258   4.160  1.3463  1.2382  0.0469
  113MOL0     O14792  -0.017   8.227   4.149  0.6310 -0.2780 -0.8950
  113MOL0     C14793  -0.055   8.113   4.076 -0.3653  0.4954 -0.0966
  113MOL0     C14794  -0.203   8.091   4.081 -0.4473 -0.3567 -0.3833
  113MOL0     C14795  -0.264   8.041   4.213 -0.1762 -0.2753  0.2258
  113MOL0     C14796  -0.386   7.949   4.178  0.3017 -0.2491  1.3693
  113MOL0     C14797  -0.497   8.023   4.102 -0.5772  0.6448 -0.2363
  113MOL0     C14798  -0.615   7.921   4.109  0.2697 -0.4406 -0.7224
  113MOL0     C14799  -0.755   7.978   4.066 -0.1777  0.3189 -0.3963
  113MOL0     C14800  -0.870   7.883   4.069 -0.3860  0.7679  1.2649
  113MOL0     N14801  -1.000   7.949   4.037 -1.3466  0.4493  0.9307
  113MOL0     C14802  -1.088   7.990   4.127  0.1691  0.1581 -0.6990
  113MOL0     C14803  -1.194   8.035   4.053  0.4409 -0.2353  0.9421
  113MOL0     C14804  -1.331   8.066   4.101 -0.6038 -0.3543 -0.2292
  113MOL0     C14805  -1.320   8.171   4.221 -0.4595  0.3106 -0.4070
  113MOL0     C14806  -1.284   8.315   4.170 -0.3682 -0.4425  0.1237
  113MOL0     C14807  -1.355   8.425   4.255 -0.9077  0.0384 -0.6562
  113MOL0     O14808  -1.322   8.555   4.209 -0.0731 -0.0336  0.2511
  113MOL0     C14809  -1.422   8.641   4.175 -0.4676 -0.3291  0.4390
  113MOL0     C14810  -1.542   8.602   4.124  0.9628 -0.3284 -0.7895
  113MOL0     C14811  -1.636   8.705   4.088 -0.8399  0.0111 -0.1054
  113MOL0     C14812  -1.597   8.843   4.098  0.3708 -0.5521 -0.1096
  113MOL0     C14813  -1.695   8.963   4.086 -0.1190  0.1232  0.3218
  113MOL0     O14814  -1.831   8.920   4.086 -0.0614  0.1145 -0.4447
  113MOL0     C14815  -1.928   9.017   4.063  0.4120 -0.5061 -0.1506
  113MOL0     C14816  -2.017   9.046   4.163  0.4411 -0.4092 -0.8928
  113MOL0     C14817  -2.110   9.142   4.145 -0.1799 -0.3717 -0.0800
  113MOL0     C14818  -2.116   9.210   4.019  0.8506  0.3031 -0.3076
  113MOL0     O14819  -2.198   9.317   3.993  0.3298 -0.1578  0.5351
  113MOL0     C14820  -2.337   9.293   4.019 -0.1310 -0.1374  0.2708
  113MOL0     C14821  -2.417   9.413   3.947 -0.5253 -0.1503  0.5309
  113MOL0     C14822  -2.565   9.381   3.964 -0.2583 -0.2864 -0.1994
  113MOL0     C14823  -2.645   9.489   3.905  0.2841 -0.3728  0.6079
  113MOL0     C14824  -2.792   9.478   3.944  0.0285 -0.7270 -0.2368
  113MOL0     C14825  -2.865   9.606   3.906  0.2958  1.0128  0.8090
  113MOL0     C14826  -3.014   9.618   3.948  0.0288 -0.3872 -0.5170
  113MOL0     C14827  -3.115   9.525   3.895  0.4105 -0.3230  0.3221
  113MOL0    Cl14828  -3.280   9.528   3.970 -0.2972  0.2249  0.2884
  113MOL0     C14829  -2.033   9.171   3.916 -0.5095 -0.3222 -0.2699
  113MOL0     C14830  -1.936   9.076   3.941 -0.2591  0.1337  0.6104
  113MOL0     O14831  -1.661   9.081   4.082  0.7230  0.1485 -0.3372
  113MOL0     C14832  -1.468   8.873   4.135  0.2940  0.5690 -0.2207
  113MOL0     C14833  -1.383   8.776   4.181  0.8820  0.4147 -0.0013
  113MOL0     N14834  -1.168   8.022   3.920  0.1920  0.0946  0.2254
  113MOL0     N14835  -1.052   7.964   3.908 -0.1735 -0.3065  0.2652
  113MOL0     C14836   0.149   8.348   4.264 -0.1624 -0.4785  0.0537
  113MOL0     C14837   0.284   8.375   4.280  0.4247  0.3831  0.4072
  113MOL0     C14838   0.710   8.383   4.341 -0.1092 -0.0527 -0.3984
  113MOL0     C14839   0.768   8.383   4.474  0.2560 -0.3368  1.5844
  113MOL0     C14840   0.879   8.453   4.501  0.5201  0.0556 -0.1085
  113MOL0     C14841   0.947   8.516   4.399 -1.3384  0.2455  0.0267
  113MOL0     O14842   1.051   8.596   4.442  0.2898 -0.3419 -0.6587
  113MOL0     C14843   1.113   8.693   4.354  0.1523  0.5914 -0.0778
  113MOL0     C14844   1.234   8.734   4.422 -0.0855  1.0150 -0.3097
  113MOL0     C14845   1.227   8.807   4.556 -0.5471  0.8421  0.6525
  113MOL0     C14846   1.372   8.834   4.618  0.8387  0.3875  0.3010
  113MOL0     C14847   1.449   8.947   4.553  1.5071 -0.3442  1.0553
  113MOL0     C14848   1.507   9.037   4.497  0.2597  1.0127  1.1759
  113MOL0     C14849   0.901   8.508   4.264  0.4225  0.6067 -0.7302
  113MOL0     C14850   0.778   8.445   4.240 -0.3285 -0.3464 -0.5008
  113MOL0     H14851   0.422   8.179   4.040 -0.8299  2.3009 -2.2187
  113MOL0     H14852   0.193   8.120   3.998  1.2464 -2.7576  2.6596
  113MOL0     H14853  -0.006   8.031   4.129 -0.9907  0.3589  0.2832
  113MOL0     H14854  -0.027   8.111   3.970 -0.0940 -0.7337 -0.0113
  113MOL0     H14855  -0.217   8.023   3.996 -2.2766  1.9319 -2.0255
  113MOL0     H14856  -0.250   8.187   4.061  0.2196  0.7726  2.8760
  113MOL0     H14857  -0.297   8.127   4.273 -0.8486  1.1615 -2.0719
  113MOL0     H14858  -0.190   7.993   4.277  0.7191  0.5231 -0.1987
  113MOL0     H14859  -0.346   7.861   4.126 -1.7257 -0.1834 -0.4147
  113MOL0     H14860  -0.439   7.905   4.263 -0.5422 -1.9923  0.0058
  113MOL0     H14861  -0.482   8.042   3.995  0.1050  1.2445 -0.0413
  113MOL0     H14862  -0.516   8.124   4.142  4.3472  0.7088  2.7194
  113MOL0     H14863  -0.630   7.874   4.207 -0.5775  1.3357  0.0324
  113MOL0     H14864  -0.597   7.840   4.038 -2.3876 -0.5912 -1.3263
  113MOL0     H14865  -0.782   8.064   4.128 -0.0949  0.4042 -0.4767
  113MOL0     H14866  -0.751   8.017   3.964 -2.0199 -2.1995 -1.5412
  113MOL0     H14867  -0.888   7.844   4.170 -0.2513 -3.7699 -0.2677
  113MOL0     H14868  -0.851   7.798   4.003  0.8868  1.2832  0.9416
  113MOL0     H14869  -1.077   7.997   4.234 -0.0034 -0.8026 -0.6118
  113MOL0     H14870  -1.370   7.971   4.140  0.6306 -1.2593 -1.0951
  113MOL0     H14871  -1.406   8.093   4.027 -0.1971  1.6261  0.0221
  113MOL0     H14872  -1.238   8.143   4.288 -1.1500 -3.5108 -0.9208
  113MOL0     H14873  -1.411   8.162   4.281 -0.4092 -1.6490 -0.5407
  113MOL0     H14874  -1.176   8.322   4.179 -0.4467  0.0421  0.7953
  113MOL0     H14875  -1.303   8.316   4.062  5.0379 -1.8222 -1.1098
  113MOL0     H14876  -1.326   8.408   4.359 -2.3785 -0.3291 -0.2814
  113MOL0     H14877  -1.463   8.412   4.258 -0.8820 -0.2114 -0.7590
  113MOL0     H14878  -1.564   8.499   4.099  2.1338 -0.9142  0.4513
  113MOL0     H14879  -1.739   8.679   4.069 -0.4606 -1.3824 -0.3522
  113MOL0     H14880  -2.002   8.990   4.255  0.1141  2.6871  1.1787
  113MOL0     H14881  -2.174   9.176   4.225  0.3888  1.9267 -0.5090
  113MOL0     H14882  -2.348   9.291   4.128  1.3149 -2.4692  0.4257
  113MOL0     H14883  -2.357   9.193   3.980  1.1691 -0.4577  0.4037
  113MOL0     H14884  -2.403   9.420   3.838 -1.3324 -1.3885  0.3313
  113MOL0     H14885  -2.381   9.503   3.998 -0.9878  0.7301 -0.6443
  113MOL0     H14886  -2.595   9.362   4.068  2.0194 -3.5893 -0.0170
  113MOL0     H14887  -2.588   9.288   3.912  2.0015 -2.1545  1.9195
  113MOL0     H14888  -2.611   9.581   3.954 -2.5436  0.0470  1.9667
  113MOL0     H14889  -2.629   9.508   3.798 -3.5148  0.7635  0.1011
  113MOL0     H14890  -2.804   9.463   4.052  0.6743 -1.7441 -0.2953
  113MOL0     H14891  -2.842   9.403   3.882 -5.7832  3.8996 -2.1088
  113MOL0     H14892  -2.871   9.595   3.797 -3.4354 -1.0907  1.0429
  113MOL0     H14893  -2.803   9.689   3.939  1.3588 -0.1057  1.6959
  113MOL0     H14894  -3.027   9.620   4.056 -1.6467  0.1211 -0.6925
  113MOL0     H14895  -3.044   9.717   3.913  0.4652  0.0688  0.3723
  113MOL0     H14896  -3.092   9.419   3.908 -0.7571 -0.6131  0.0778
  113MOL0     H14897  -3.125   9.550   3.789 -1.4410  1.8691  0.9412
  113MOL0     H14898  -2.041   9.224   3.821 -0.7583  2.0230  0.9948
  113MOL0     H14899  -1.872   9.033   3.863 -1.9500 -0.5614 -0.4486
  113MOL0     H14900  -1.441   8.977   4.120  1.1962  0.2745 -0.6936
  113MOL0     H14901  -1.284   8.797   4.221  0.6788  0.1996  0.6271
  113MOL0     H14902   0.062   8.382   4.319 -0.9845 -0.9775 -0.9063
  113MOL0     H14903   0.319   8.440   4.359  0.0378 -0.1931  1.0666
  113MOL0     H14904   0.703   8.347   4.553 -0.8935 -0.0130  0.8149
  113MOL0     H14905   0.896   8.459   4.608 -1.7636 -1.2755  0.3942
  113MOL0     H14906   1.051   8.780   4.335 -1.3405 -0.0763  1.4566
  113MOL0     H14907   1.146   8.649   4.260  2.8087 -0.3310  1.1588
  113MOL0     H14908   1.297   8.644   4.428  0.3852  1.2053 -1.8942
  113MOL0     H14909   1.288   8.796   4.350 -1.0086  1.4068 -0.6779
  113MOL0     H14910   1.180   8.734   4.623 -3.1013 -0.4426 -2.2561
  113MOL0     H14911   1.159   8.893   4.555 -3.6910 -1.4217 -1.7191
  113MOL0     H14912   1.343   8.874   4.715  0.2736  1.6015 -0.3445
  113MOL0     H14913   1.437   8.747   4.630  1.1797  0.0726 -2.8303
  113MOL0     H14914   1.559   9.114   4.443  2.2550 -1.2218 -0.2745
  113MOL0     H14915   0.958   8.562   4.189  3.2777 -1.3565 -0.1590
  113MOL0     H14916   0.741   8.440   4.137  0.2479 -1.6846 -0.6682
  114MOL0     O14917   0.789   0.139   8.612  0.3717 -0.1093  0.4002
  114MOL0     C14918   0.886   0.203   8.567  0.3990 -0.2476 -0.6245
  114MOL0     O14919   0.887   0.334   8.535 -0.6916 -0.2367  0.4653
  114MOL0     C14920   0.769   0.408   8.550  0.0859 -0.1575 -0.1199
  114MOL0     C14921   0.704   0.424   8.674 -0.2752  0.5118 -0.4590
  114MOL0     C14922   0.579   0.493   8.694  0.6206  0.3621  0.2747
  114MOL0     C14923   0.520   0.532   8.574  0.4574 -0.3755  0.4684
  114MOL0     O14924   0.396   0.582   8.564  1.0103 -0.1397 -0.0735
  114MOL0     C14925   0.291   0.536   8.637  0.5500 -0.0638 -0.9156
  114MOL0     C14926   0.161   0.600   8.576 -0.4310 -0.2495 -0.5919
  114MOL0     C14927   0.095   0.527   8.463 -0.7528 -0.6012  0.5484
  114MOL0     C14928   0.197   0.489   8.349 -0.4227 -0.0847  0.3750
  114MOL0     C14929   0.127   0.405   8.247  0.6975 -0.4895  0.0054
  114MOL0     C14930   0.023   0.464   8.169 -0.3006  0.5987  0.3445
  114MOL0     C14931   0.050   0.602   8.103  0.9656 -0.9822 -0.1750
  114MOL0     C14932   0.137   0.599   7.984 -0.9335  0.2332  0.2834
  114MOL0     N14933   0.149   0.742   7.942 -0.5970  0.9002  0.0099
  114MOL0     C14934   0.057   0.798   7.851  0.0846  0.5009  0.3196
  114MOL0     C14935   0.087   0.931   7.864  0.5466 -0.5266  0.2526
  114MOL0     C14936   0.019   1.042   7.785 -0.5905  0.5240 -0.5333
  114MOL0     C14937  -0.136   1.037   7.784 -0.9533  0.0092 -0.6234
  114MOL0     C14938  -0.189   1.044   7.926 -0.6148 -0.0731  0.4771
  114MOL0     C14939  -0.346   1.034   7.907 -0.2093  0.9007 -1.3229
  114MOL0     O14940  -0.382   0.916   7.841  0.2890  0.4217  0.1143
  114MOL0     C14941  -0.516   0.886   7.826 -0.1880 -0.1370  0.5471
  114MOL0     C14942  -0.543   0.763   7.774  0.0672 -0.6392  0.2261
  114MOL0     C14943  -0.678   0.727   7.749 -0.4915 -0.0555 -0.7319
  114MOL0     C14944  -0.780   0.782   7.821  0.3537  0.0943  0.0778
  114MOL0     C14945  -0.911   0.719   7.825  0.1583  0.1303 -0.2372
  114MOL0     O14946  -0.930   0.600   7.765  0.1854  0.6609 -0.1041
  114MOL0     C14947  -1.055   0.553   7.752 -0.7280 -0.2848 -0.4854
  114MOL0     C14948  -1.168   0.607   7.698 -1.0055 -0.3175  0.2577
  114MOL0     C14949  -1.285   0.536   7.691  0.2153 -0.5488 -0.4013
  114MOL0     C14950  -1.297   0.404   7.731 -0.6646  0.4100 -0.1551
  114MOL0     O14951  -1.401   0.322   7.719 -0.0636  0.0909 -0.6364
  114MOL0     C14952  -1.442   0.292   7.585  0.8944  0.4371 -0.0419
  114MOL0     C14953  -1.522   0.155   7.566 -0.3930  0.9073 -0.1939
  114MOL0     C14954  -1.653   0.158   7.641 -0.5681 -1.3126 -0.0918
  114MOL0     C14955  -1.728   0.035   7.602 -0.5376 -0.1019  0.1767
  114MOL0     C14956  -1.858   0.046   7.690  0.2159  0.8854 -0.2788
  114MOL0     C14957  -1.933  -0.077   7.691 -0.0799  0.1553 -0.8387
  114MOL0     C14958  -2.048  -0.062   7.801 -0.2234  0.6677 -0.4183
  114MOL0     C14959  -2.146  -0.177   7.792  0.1384 -0.4232 -0.4901
  114MOL0    Cl14960  -2.227  -0.162   7.633  0.0129 -0.0619 -0.2266
  114MOL0     C14961  -1.181   0.347   7.778  1.3176 -0.7514 -0.3686
  114MOL0     C14962  -1.062   0.417   7.797 -0.3123  0.1912 -0.6182
  114MOL0     O14963  -1.001   0.782   7.884 -0.3398 -0.3099  0.0549
  114MOL0     C14964  -0.749   0.913   7.870  0.6639  0.1715  0.1530
  114MOL0     C14965  -0.620   0.963   7.880  0.2728  0.0322  0.6247
  114MOL0     N14966   0.194   0.953   7.948 -0.0227  0.0854 -0.1972
  114MOL0     N14967   0.227   0.840   7.995  0.5022  0.3950 -0.3610
  114MOL0     C14968   0.581   0.528   8.449 -0.4588 -0.2549  0.8280
  114MOL0     C14969   0.703   0.459   8.438 -0.1179  0.4018  0.2362
  114MOL0     C14970   1.016   0.133   8.543  0.0679 -0.1913 -0.1981
  114MOL0     C14971   1.132   0.210   8.529 -0.6450 -0.3253  0.3240
  114MOL0     C14972   1.253   0.148   8.519 -0.6897  0.7827 -0.1408
  114MOL0     C14973   1.262   0.013   8.522 -0.0337  0.2075 -0.4164
  114MOL0     O14974   1.377  -0.063   8.513  0.4826  0.4756  0.6627
  114MOL0     C14975   1.508   0.002   8.526 -0.9934 -0.1697  0.0445
  114MOL0     C14976   1.613  -0.107   8.550 -0.4260 -0.0307  0.3065
  114MOL0     C14977   1.732  -0.044   8.627 -0.5946 -0.5434 -0.4374
  114MOL0     C14978   1.778   0.098   8.561  0.0672  0.4811  0.4525
  114MOL0     C14979   1.922   0.118   8.608 -0.5220  0.1952  0.7835
  114MOL0     C14980   2.040   0.121   8.640  0.9617 -0.1636  0.6279
  114MOL0     C14981   1.151  -0.062   8.556  0.8075 -0.7302 -0.2553
  114MOL0     C14982   1.020  -0.007   8.566  0.3175  0.0499 -0.2696
  114MOL0     H14983   0.752   0.384   8.763 -0.3286 -0.5640 -0.9059
  114MOL0     H14984   0.534   0.508   8.791  0.5434 -0.4580  0.3723
  114MOL0     H14985   0.292   0.556   8.745 -0.9272 -0.5689 -0.7892
  114MOL0     H14986   0.280   0.428   8.637 -2.4206  0.1289  1.1888
  114MOL0     H14987   0.189   0.702   8.551 -1.1759  0.0798 -0.1285
  114MOL0     H14988   0.075   0.604   8.645 -0.2066 -1.1219 -0.2489
  114MOL0     H14989   0.018   0.591   8.418  0.8632  0.7372 -0.4478
  114MOL0     H14990   0.046   0.433   8.488 -2.6001  0.3348  0.6067
  114MOL0     H14991   0.241   0.583   8.316  0.6704 -0.6188  0.2674
  114MOL0     H14992   0.278   0.427   8.387  0.3888  0.9326  0.3239
  114MOL0     H14993   0.086   0.315   8.295 -3.3128  0.8659 -0.4633
  114MOL0     H14994   0.200   0.369   8.174  1.8357  0.0414  0.8506
  114MOL0     H14995  -0.053   0.477   8.247 -0.2721  0.1609  0.4477
  114MOL0     H14996  -0.010   0.394   8.092  0.4486 -2.5532  2.6905
  114MOL0     H14997  -0.050   0.638   8.078  1.7388  1.8499  0.4543
  114MOL0     H14998   0.085   0.679   8.172  2.7871 -1.4683 -0.5119
  114MOL0     H14999   0.091   0.543   7.902 -2.5288  0.1016  1.2205
  114MOL0     H15000   0.221   0.533   8.005 -2.3634 -1.2957  1.4643
  114MOL0     H15001  -0.014   0.739   7.794  1.3665 -1.1976  0.3753
  114MOL0     H15002   0.060   1.036   7.683  2.1203  0.7285  0.4607
  114MOL0     H15003   0.053   1.137   7.827  2.0046 -0.6443  0.1921
  114MOL0     H15004  -0.170   0.946   7.736 -0.5612  0.5055 -1.8901
  114MOL0     H15005  -0.174   1.124   7.730  0.3003  0.1109 -1.3749
  114MOL0     H15006  -0.145   0.964   7.986  2.3618  0.7594 -0.4113
  114MOL0     H15007  -0.159   1.139   7.970  2.3679 -0.4040 -0.5695
  114MOL0     H15008  -0.383   1.125   7.858 -1.2751  1.6967  0.8480
  114MOL0     H15009  -0.388   1.040   8.007  2.5680 -0.4740  0.0338
  114MOL0     H15010  -0.468   0.700   7.729 -0.1496  1.2182 -2.9664
  114MOL0     H15011  -0.695   0.632   7.699 -1.4883 -0.2605 -0.0363
  114MOL0     H15012  -1.181   0.714   7.685 -2.9412 -0.6896 -1.4787
  114MOL0     H15013  -1.372   0.594   7.660 -2.3388 -2.9692  1.6147
  114MOL0     H15014  -1.362   0.297   7.511 -1.5918  1.8914 -2.8470
  114MOL0     H15015  -1.513   0.373   7.565  0.5073 -0.2410 -1.6037
  114MOL0     H15016  -1.458   0.079   7.610 -1.2212 -0.5306 -1.3714
  114MOL0     H15017  -1.536   0.134   7.459  0.9910  2.0569 -0.6248
  114MOL0     H15018  -1.705   0.251   7.616 -0.2310 -0.9500  0.5302
  114MOL0     H15019  -1.630   0.175   7.746 -1.4029 -0.6372 -0.0085
  114MOL0     H15020  -1.743   0.030   7.494 -0.8508  1.2845  0.1379
  114MOL0     H15021  -1.677  -0.057   7.632 -1.3772 -0.6972 -0.1659
  114MOL0     H15022  -1.924   0.121   7.645 -1.1338 -0.3280 -0.4030
  114MOL0     H15023  -1.829   0.085   7.787  0.7773  1.1646 -0.5542
  114MOL0     H15024  -1.867  -0.153   7.734 -0.4646  0.3521  0.1275
  114MOL0     H15025  -1.958  -0.114   7.591  2.0199 -3.4530 -0.1950
  114MOL0     H15026  -2.001  -0.061   7.899 -0.7450  0.6898 -0.1609
  114MOL0     H15027  -2.107   0.030   7.794 -1.0022  0.2022 -0.0959
  114MOL0     H15028  -2.205  -0.178   7.883  1.8365  0.8960  0.7058
  114MOL0     H15029  -2.086  -0.268   7.800  4.4015  2.1195  0.1206
  114MOL0     H15030  -1.180   0.243   7.810  0.1751 -1.1000 -1.3721
  114MOL0     H15031  -0.976   0.365   7.835 -1.0981 -1.5677 -1.1675
  114MOL0     H15032  -0.836   0.970   7.899  0.4404 -0.4312  0.6805
  114MOL0     H15033  -0.590   1.063   7.908  4.2592 -0.6686 -0.5240
  114MOL0     H15034   0.526   0.572   8.366 -0.3763 -1.6109  0.0210
  114MOL0     H15035   0.746   0.423   8.345  2.3436 -1.6824  2.0333
  114MOL0     H15036   1.131   0.318   8.528  0.9366 -0.2439 -2.2132
  114MOL0     H15037   1.340   0.206   8.489 -0.9039  1.5120  0.6077
  114MOL0     H15038   1.515   0.066   8.614  2.0057  0.1966 -0.3646
  114MOL0     H15039   1.534   0.062   8.438 -0.3430 -0.8835 -0.2512
  114MOL0     H15040   1.567  -0.186   8.611 -0.9038  0.3907  0.4937
  114MOL0     H15041   1.648  -0.147   8.454 -2.7162 -0.6458 -0.3436
  114MOL0     H15042   1.817  -0.113   8.626 -0.4928 -0.4322  0.2684
  114MOL0     H15043   1.705  -0.033   8.732 -0.6536 -2.7963 -0.1691
  114MOL0     H15044   1.759   0.097   8.453 -1.4180 -2.0582  0.6532
  114MOL0     H15045   1.708   0.174   8.597  0.5541  1.6086 -0.8716
  114MOL0     H15046   2.135   0.132   8.686  1.5789  2.9667 -1.0940
  114MOL0     H15047   1.162  -0.170   8.562  1.8573 -0.5444  1.8682
  114MOL0     H15048   0.938  -0.073   8.591  1.8305 -1.4767  0.9671
  115MOL0     O15049   6.726   6.882   9.736  0.0671 -0.0357 -0.5039
  115MOL0     C15050   6.789   6.983   9.700 -0.2199  0.2746  0.8491
  115MOL0     O15051   6.735   7.082   9.637 -0.2707 -0.2676  0.0671
  115MOL0     C15052   6.596   7.080   9.610 -0.9170 -0.1974 -0.9135
  115MOL0     C15053   6.534   6.972   9.542 -0.0156 -0.3842  0.0044
  115MOL0     C15054   6.395   6.977   9.516 -0.1570 -0.9145 -0.1355
  115MOL0     C15055   6.321   7.101   9.544 -1.3828 -0.0874 -0.1448
  115MOL0     O15056   6.195   7.122   9.501 -0.1090 -0.0176 -0.3027
  115MOL0     C15057   6.126   7.014   9.434  0.2741 -0.5728  0.6000
  115MOL0     C15058   5.991   7.059   9.387 -0.9952  0.1716  0.5908
  115MOL0     C15059   5.912   6.936   9.330 -0.1674  0.6804 -1.3266
  115MOL0     C15060   5.780   6.994   9.284  0.3639 -0.3033  0.2239
  115MOL0     C15061   5.702   6.890   9.207 -0.8631  0.5788  0.0493
  115MOL0     C15062   5.561   6.937   9.182  0.8380 -0.7595 -0.5532
  115MOL0     C15063   5.489   6.873   9.069 -1.1446 -0.6726 -0.1652
  115MOL0     C15064   5.367   6.949   9.035 -0.8376  0.1756  0.2548
  115MOL0     N15065   5.307   6.902   8.913  0.2411 -0.0985 -0.7921
  115MOL0     C15066   5.176   6.878   8.900 -0.9858 -0.6994  0.2044
  115MOL0     C15067   5.154   6.872   8.767  0.4698 -0.0235 -0.3287
  115MOL0     C15068   5.033   6.825   8.701 -0.0333  0.3789 -0.1938
  115MOL0     C15069   4.943   6.946   8.669 -0.3905  0.0534  0.1780
  115MOL0     C15070   4.992   7.050   8.562  0.1381 -0.4677 -0.1757
  115MOL0     C15071   4.899   7.168   8.554 -0.2604  0.5378 -0.2213
  115MOL0     O15072   4.923   7.261   8.657 -0.3608 -0.3518 -0.1986
  115MOL0     C15073   4.825   7.353   8.653 -0.7042 -0.5019 -0.6805
  115MOL0     C15074   4.830   7.463   8.560  0.1802 -0.5610  0.1415
  115MOL0     C15075   4.735   7.566   8.565 -0.0550 -0.0600  0.4792
  115MOL0     C15076   4.632   7.568   8.653  0.2394  0.1752 -0.6722
  115MOL0     C15077   4.526   7.673   8.633  0.1455  0.0920 -0.4336
  115MOL0     O15078   4.452   7.697   8.744 -0.0253  0.2167 -0.1397
  115MOL0     C15079   4.339   7.777   8.743  1.6702  0.2923 -1.0919
  115MOL0     C15080   4.220   7.743   8.814 -0.4801 -0.2586  0.3934
  115MOL0     C15081   4.099   7.812   8.799  0.6669  0.4050  0.9257
  115MOL0     C15082   4.106   7.933   8.726  0.2517  0.2561  0.3596
  115MOL0     O15083   4.010   8.029   8.723  0.5457 -0.1289  0.6112
  115MOL0     C15084   3.909   8.018   8.821  0.5730 -0.0525  0.0730
  115MOL0     C15085   3.814   8.130   8.821 -1.0056  0.2077 -0.7545
  115MOL0     C15086   3.697   8.098   8.915  0.2880 -0.8018  0.1122
  115MOL0     C15087   3.662   8.222   9.005 -0.2127 -0.2044 -0.4310
  115MOL0     C15088   3.555   8.199   9.109 -0.7149 -0.0387  0.7718
  115MOL0     C15089   3.425   8.160   9.035 -0.3211 -0.1181 -0.5552
  115MOL0     C15090   3.305   8.120   9.119 -0.2602 -0.4355  0.0317
  115MOL0     C15091   3.236   8.256   9.164  0.7215  0.3350 -0.3820
  115MOL0    Cl15092   3.175   8.353   9.025 -0.0420  0.0599 -0.1481
  115MOL0     C15093   4.225   7.976   8.667 -0.9784  0.1464  0.1373
  115MOL0     C15094   4.348   7.903   8.686  0.2589 -0.0564  2.1040
  115MOL0     O15095   4.516   7.727   8.529  0.0085  0.3898  0.6184
  115MOL0     C15096   4.628   7.460   8.753 -0.9668  1.2789  0.3545
  115MOL0     C15097   4.722   7.355   8.745 -0.7869 -0.3946 -0.5010
  115MOL0     N15098   5.277   6.879   8.701  0.7930  0.0262  0.0368
  115MOL0     N15099   5.368   6.895   8.791  0.2563 -0.6536  0.6411
  115MOL0     C15100   6.392   7.215   9.582 -0.1455  0.7423  0.2076
  115MOL0     C15101   6.524   7.201   9.625  0.6786 -0.2439  0.1890
  115MOL0     C15102   6.935   6.977   9.726 -0.2147 -0.3252 -0.3693
  115MOL0     C15103   7.001   7.099   9.725 -0.5899 -0.3358  1.1341
  115MOL0     C15104   7.137   7.108   9.751  0.0701  0.1471  0.2185
  115MOL0     C15105   7.206   6.988   9.787  0.3483 -0.9027 -0.6597
  115MOL0     O15106   7.332   6.994   9.833 -0.1375 -0.0122  0.1013
  115MOL0     C15107   7.438   7.010   9.739  0.1365 -0.0392  0.1897
  115MOL0     C15108   7.562   7.059   9.804 -0.5435  0.6497 -0.8407
  115MOL0     C15109   7.537   7.196   9.865 -0.2858 -0.1500 -0.2985
  115MOL0     C15110   7.618   7.230   9.988  1.1264  0.4021  1.0757
  115MOL0     C15111   7.616   7.375  10.023  0.6625  0.7819 -0.1617
  115MOL0     C15112   7.622   7.490  10.050 -0.4583 -0.0756 -0.8845
  115MOL0     C15113   7.143   6.862   9.778  0.3949  0.3577 -0.9458
  115MOL0     C15114   7.011   6.858   9.741 -0.3481 -0.3333 -0.4676
  115MOL0     H15115   6.580   6.878   9.513 -3.1580 -1.6477 -1.4135
  115MOL0     H15116   6.354   6.890   9.465 -0.3241 -0.8802 -0.0593
  115MOL0     H15117   6.113   6.936   9.510 -0.9005  0.2115  1.2399
  115MOL0     H15118   6.185   6.969   9.353 -0.2247  1.1942 -0.8225
  115MOL0     H15119   6.015   7.116   9.296 -2.4141 -1.3133 -0.7822
  115MOL0     H15120   5.935   7.116   9.462  0.3727  2.3713  0.0388
  115MOL0     H15121   5.897   6.854   9.400 -1.7812  1.5360 -0.6115
  115MOL0     H15122   5.966   6.893   9.245  0.4265 -1.3675  0.0053
  115MOL0     H15123   5.725   7.027   9.372 -0.9780 -1.5952 -0.0890
  115MOL0     H15124   5.798   7.072   9.209  1.4479  0.8470  1.6318
  115MOL0     H15125   5.698   6.799   9.269  1.8519  1.0395  1.0614
  115MOL0     H15126   5.751   6.867   9.112  1.3168 -1.3147  1.5040
  115MOL0     H15127   5.581   7.043   9.163  0.2385 -0.1495  1.9316
  115MOL0     H15128   5.503   6.938   9.274 -0.4002  0.0260 -1.3194
  115MOL0     H15129   5.557   6.875   8.984  1.4019 -1.8884  1.7032
  115MOL0     H15130   5.454   6.771   9.089  0.4495 -1.4806 -1.2318
  115MOL0     H15131   5.392   7.054   9.017  1.5665 -0.5146 -0.7380
  115MOL0     H15132   5.293   6.942   9.116 -0.3814  0.1786  0.6789
  115MOL0     H15133   5.100   6.854   8.974 -0.2048  1.2629  1.7321
  115MOL0     H15134   4.981   6.765   8.776 -0.9835  3.1496  1.5216
  115MOL0     H15135   5.061   6.762   8.616  2.6426  2.4509 -0.9866
  115MOL0     H15136   4.913   6.999   8.760 -1.3375 -2.9734  1.7837
  115MOL0     H15137   4.856   6.897   8.624  1.5132 -3.6369  0.1143
  115MOL0     H15138   5.092   7.087   8.587  0.4907 -0.5476 -1.3780
  115MOL0     H15139   4.996   6.997   8.466  0.3203 -0.7542 -0.0125
  115MOL0     H15140   4.793   7.145   8.563 -0.4591  0.3604 -2.3655
  115MOL0     H15141   4.915   7.205   8.452  0.1442 -1.8651 -1.1055
  115MOL0     H15142   4.912   7.474   8.490  1.2558  1.4877  1.6175
  115MOL0     H15143   4.743   7.628   8.477  1.7010  0.8873  1.2529
  115MOL0     H15144   4.228   7.648   8.866  0.9747 -0.0131  0.6599
  115MOL0     H15145   4.011   7.781   8.856  0.1337 -0.2231 -0.1953
  115MOL0     H15146   3.954   8.010   8.921  1.2451 -0.2189 -0.2386
  115MOL0     H15147   3.860   7.920   8.821  1.4806 -0.6580  3.6448
  115MOL0     H15148   3.776   8.146   8.720 -0.7324  0.1553 -0.8659
  115MOL0     H15149   3.872   8.215   8.861  1.4121 -1.6601 -0.0001
  115MOL0     H15150   3.719   8.018   8.985  1.9363  1.0734  1.8758
  115MOL0     H15151   3.615   8.072   8.847 -1.0029  0.9430  0.9266
  115MOL0     H15152   3.749   8.261   9.059  0.1078  2.2159 -2.4573
  115MOL0     H15153   3.641   8.309   8.941  2.6987  0.2761 -0.8787
  115MOL0     H15154   3.532   8.283   9.176 -0.9242 -1.0527  2.0141
  115MOL0     H15155   3.596   8.122   9.176  2.8153  3.1662  2.6536
  115MOL0     H15156   3.455   8.067   8.987  0.9985  0.1728 -0.3536
  115MOL0     H15157   3.398   8.240   8.966  2.0951  0.1026 -1.3293
  115MOL0     H15158   3.236   8.063   9.057  1.5946 -2.6427 -0.1417
  115MOL0     H15159   3.323   8.056   9.206 -0.0876 -3.0941 -1.8535
  115MOL0     H15160   3.300   8.322   9.223 -1.2855  0.7660  1.4568
  115MOL0     H15161   3.159   8.220   9.232  0.9227 -0.4056 -0.5388
  115MOL0     H15162   4.236   8.056   8.595 -0.7604 -0.5325 -0.5917
  115MOL0     H15163   4.446   7.920   8.642 -0.2706 -0.2247  0.8177
  115MOL0     H15164   4.549   7.467   8.827 -3.1147 -0.5026 -1.6017
  115MOL0     H15165   4.717   7.277   8.820  0.8285  3.1579  3.7448
  115MOL0     H15166   6.341   7.311   9.584 -1.5885  0.0817 -1.7589
  115MOL0     H15167   6.565   7.294   9.664  0.8453  0.3598 -1.3561
  115MOL0     H15168   6.954   7.196   9.711 -1.3009 -0.9162 -0.7725
  115MOL0     H15169   7.191   7.201   9.764  0.3234  0.1682 -0.9016
  115MOL0     H15170   7.408   7.071   9.653 -0.1235  0.9188  0.9403
  115MOL0     H15171   7.454   6.914   9.688  1.4491  1.1014 -1.6336
  115MOL0     H15172   7.586   6.996   9.889 -0.0252  0.9064 -0.7914
  115MOL0     H15173   7.651   7.048   9.741 -0.3160 -1.0618 -0.2615
  115MOL0     H15174   7.434   7.221   9.893  0.2170 -0.2963  1.8495
  115MOL0     H15175   7.572   7.265   9.788  0.6759  0.1221  0.3710
  115MOL0     H15176   7.585   7.172  10.074 -0.5080 -1.0322 -0.4369
  115MOL0     H15177   7.722   7.206   9.963  0.7266  1.9236 -2.8224
  115MOL0     H15178   7.647   7.590  10.078  1.8773 -0.7182 -0.4098
  115MOL0     H15179   7.189   6.767   9.805  1.2317  0.5612 -1.6119
  115MOL0     H15180   6.953   6.767   9.749 -0.9833  0.1443  0.4926
  116MOL0     O15181   2.567   7.444   9.862  0.7616 -0.3487  0.1601
  116MOL0     C15182   2.548   7.526   9.954 -0.2295  0.4915 -0.4817
  116MOL0     O15183   2.422   7.558  10.008  0.1522  0.0985  0.2363
  116MOL0     C15184   2.306   7.509   9.962 -0.0579  0.3668 -0.4626
  116MOL0     C15185   2.252   7.585   9.861  0.1707 -0.3794  0.4059
  116MOL0     C15186   2.129   7.544   9.802 -0.1407  0.1379  0.6930
  116MOL0     C15187   2.046   7.451   9.867  0.9882  0.4236 -0.1002
  116MOL0     O15188   1.916   7.426   9.844 -0.5988  0.4604 -0.0291
  116MOL0     C15189   1.853   7.505   9.740  0.0662 -0.1201  0.2706
  116MOL0     C15190   1.712   7.460   9.727  0.1871  0.1508  0.2977
  116MOL0     C15191   1.611   7.531   9.823 -0.4989  0.6758 -0.0377
  116MOL0     C15192   1.476   7.463   9.795  0.2617 -0.9649 -0.1090
  116MOL0     C15193   1.373   7.538   9.880  0.6021 -0.2579 -0.6671
  116MOL0     C15194   1.233   7.480   9.843 -0.1743 -0.1542  0.5406
  116MOL0     C15195   1.127   7.573   9.902 -0.2621  0.7668  0.5514
  116MOL0     C15196   0.999   7.505   9.880  0.4935 -0.4785 -0.4941
  116MOL0     N15197   0.976   7.383   9.966 -1.0271  0.0115  0.0318
  116MOL0     C15198   0.932   7.267   9.907 -1.1316  0.5600 -0.4846
  116MOL0     C15199   0.874   7.196  10.007 -0.3051 -0.5331 -0.5629
  116MOL0     C15200   0.823   7.060  10.004 -0.3191 -0.8187 -0.4943
  116MOL0     C15201   0.668   7.055   9.968 -0.0750  0.0237  0.5718
  116MOL0     C15202   0.663   7.087   9.819 -0.4324 -0.5926 -0.7684
  116MOL0     C15203   0.533   7.025   9.760  0.0445  0.5529  0.2625
  116MOL0     O15204   0.425   7.063   9.846  0.2162  0.1226 -0.6088
  116MOL0     C15205   0.318   6.972   9.837  0.4818  0.0407 -0.5575
  116MOL0     C15206   0.231   6.975   9.947  0.4383  0.3037  0.0421
  116MOL0     C15207   0.111   6.904   9.957  0.7358  0.6138 -0.1621
  116MOL0     C15208   0.063   6.832   9.849 -0.0948  0.7122 -0.6102
  116MOL0     C15209  -0.070   6.768   9.847  0.7811  0.0118 -0.1582
  116MOL0     O15210  -0.175   6.821   9.930 -0.7562 -0.1936 -0.3017
  116MOL0     C15211  -0.287   6.741   9.924 -1.0840 -0.2402 -0.1017
  116MOL0     C15212  -0.323   6.668  10.031  0.2155 -0.2801 -0.4625
  116MOL0     C15213  -0.442   6.592  10.037 -0.2528  0.3342  0.7152
  116MOL0     C15214  -0.519   6.595   9.921  0.3511  0.4190  0.5530
  116MOL0     O15215  -0.644   6.529   9.906 -0.2338 -0.2042  0.1069
  116MOL0     C15216  -0.729   6.512  10.021  0.6447  0.1650 -0.5516
  116MOL0     C15217  -0.870   6.507   9.969  0.0741  0.0667 -0.5034
  116MOL0     C15218  -0.973   6.527  10.080  0.0505 -0.3136  0.0653
  116MOL0     C15219  -1.115   6.495  10.030 -0.0694  0.2451  0.6805
  116MOL0     C15220  -1.205   6.478  10.156  0.4259 -0.0319  0.7108
  116MOL0     C15221  -1.353   6.441  10.118  0.5933 -0.5976 -0.0008
  116MOL0     C15222  -1.447   6.460  10.240  0.0970  1.0047 -0.1753
  116MOL0     C15223  -1.600   6.454  10.206  0.0191  0.6105  0.5148
  116MOL0    Cl15224  -1.643   6.601  10.131  0.3400  0.1121  0.1874
  116MOL0     C15225  -0.476   6.660   9.805  0.6383  0.0938  0.4120
  116MOL0     C15226  -0.363   6.733   9.812  0.4259  0.0999 -0.1737
  116MOL0     O15227  -0.084   6.683   9.763  0.2708 -0.6536 -0.3570
  116MOL0     C15228   0.151   6.816   9.747 -0.2717  0.1845  0.2609
  116MOL0     C15229   0.274   6.886   9.736 -0.2985 -0.1938  0.2386
  116MOL0     N15230   0.870   7.280  10.124 -0.0727 -0.6628  0.5561
  116MOL0     N15231   0.925   7.392  10.087 -0.1824  0.2382  0.1527
  116MOL0     C15232   2.092   7.395   9.984  0.5481 -0.5445  0.4826
  116MOL0     C15233   2.227   7.414  10.030  0.8929 -0.5789  0.5777
  116MOL0     C15234   2.662   7.584  10.010 -0.5550  0.4339  0.0886
  116MOL0     C15235   2.802   7.570   9.977  0.0522  0.6292 -0.3378
  116MOL0     C15236   2.903   7.644  10.032 -0.1728 -0.3942  0.4026
  116MOL0     C15237   2.877   7.728  10.142  1.1362  1.1227  0.2466
  116MOL0     O15238   2.985   7.801  10.189 -0.4544  0.1191  0.4912
  116MOL0     C15239   2.976   7.844  10.321 -0.9876 -0.5721  0.0175
  116MOL0     C15240   3.095   7.930  10.363  0.1884  0.8122 -0.0028
  116MOL0     C15241   3.228   7.854  10.311  0.6537  0.4505 -0.4299
  116MOL0     C15242   3.348   7.951  10.342 -0.1282  0.2862 -0.3604
  116MOL0     C15243   3.474   7.902  10.288 -0.9034 -0.5162 -0.5444
  116MOL0     C15244   3.586   7.877  10.244 -0.5748  0.0582 -0.1765
  116MOL0     C15245   2.741   7.741  10.186 -0.1872 -0.1158  0.6889
  116MOL0     C15246   2.641   7.666  10.123  0.2478  1.1378 -0.4456
  116MOL0     H15247   2.306   7.663   9.808 -1.8172  0.8073  0.0152
  116MOL0     H15248   2.094   7.593   9.711  0.6777 -0.0252  0.2776
  116MOL0     H15249   1.908   7.491   9.647 -0.3938  0.9713 -0.1759
  116MOL0     H15250   1.856   7.614   9.749 -2.0530  0.4739 -3.9191
  116MOL0     H15251   1.704   7.352   9.741  0.1593  0.1604  0.3552
  116MOL0     H15252   1.680   7.500   9.631 -0.0761  1.9155  1.0711
  116MOL0     H15253   1.601   7.639   9.811  1.1463  0.9530  0.7656
  116MOL0     H15254   1.645   7.517   9.926  2.1245 -0.1351 -0.9546
  116MOL0     H15255   1.458   7.475   9.688  1.5436  0.9081 -0.1676
  116MOL0     H15256   1.479   7.354   9.800  0.1996 -0.9473  0.4205
  116MOL0     H15257   1.377   7.646   9.867 -3.1743  0.1032 -0.1561
  116MOL0     H15258   1.391   7.526   9.987  1.7292 -4.5648 -1.1593
  116MOL0     H15259   1.233   7.378   9.884 -0.6679  0.5766  2.4621
  116MOL0     H15260   1.232   7.491   9.734  0.7697  1.3094  0.6566
  116MOL0     H15261   1.143   7.586  10.010 -0.5102 -0.5680  0.7733
  116MOL0     H15262   1.131   7.672   9.855  2.4403  0.9611  1.0623
  116MOL0     H15263   0.975   7.476   9.777 -0.3561  1.0965 -0.7837
  116MOL0     H15264   0.925   7.574   9.921  2.3829  1.0654  0.4862
  116MOL0     H15265   0.950   7.232   9.806 -1.1801 -1.0361  0.0260
  116MOL0     H15266   0.846   7.019  10.103  3.1251  0.0826 -0.8014
  116MOL0     H15267   0.884   7.007   9.931  0.7638 -2.6527  1.6306
  116MOL0     H15268   0.620   7.131  10.031  1.5735 -0.8850  3.0671
  116MOL0     H15269   0.633   6.953   9.987 -0.4741 -0.5793 -2.8475
  116MOL0     H15270   0.665   7.195   9.806  2.7008 -0.7135 -2.1807
  116MOL0     H15271   0.746   7.042   9.764  0.1853  0.6533 -0.8677
  116MOL0     H15272   0.557   6.919   9.747 -1.4665  0.3020 -0.7170
  116MOL0     H15273   0.507   7.060   9.660 -0.3666 -0.1560  0.1108
  116MOL0     H15274   0.266   7.030  10.034 -0.4657  1.2203 -0.1545
  116MOL0     H15275   0.053   6.905  10.048 -1.9272 -0.4193 -1.7358
  116MOL0     H15276  -0.262   6.678  10.120 -0.7209  5.3950 -0.0228
  116MOL0     H15277  -0.460   6.521  10.118  0.1188 -1.9403 -1.0701
  116MOL0     H15278  -0.724   6.607  10.075 -1.5969  0.7139 -1.2117
  116MOL0     H15279  -0.701   6.438  10.097 -2.6614 -1.6992 -0.9542
  116MOL0     H15280  -0.876   6.402   9.938 -0.6543  0.1656 -0.7104
  116MOL0     H15281  -0.879   6.576   9.886 -0.6900 -0.4802 -0.8829
  116MOL0     H15282  -0.954   6.629  10.115 -1.0976 -0.3330  0.7869
  116MOL0     H15283  -0.951   6.456  10.161 -2.7921 -1.2587  0.1157
  116MOL0     H15284  -1.142   6.575   9.961 -0.5397  1.8077  2.5931
  116MOL0     H15285  -1.103   6.397   9.983 -0.7637 -0.4664  1.9159
  116MOL0     H15286  -1.216   6.573  10.209  0.8505  0.0477  0.6591
  116MOL0     H15287  -1.172   6.400  10.225 -0.1834  1.8431  3.2529
  116MOL0     H15288  -1.360   6.341  10.076  0.1957 -0.3088 -0.6294
  116MOL0     H15289  -1.381   6.507  10.036 -1.8917  2.0348  2.6951
  116MOL0     H15290  -1.429   6.376  10.308  0.2372  1.2581  0.1037
  116MOL0     H15291  -1.425   6.560  10.279 -0.4998  1.9537 -2.1439
  116MOL0     H15292  -1.656   6.460  10.300  0.4277  1.0801  0.7385
  116MOL0     H15293  -1.637   6.371  10.146 -2.0971  2.3710 -0.7607
  116MOL0     H15294  -0.531   6.653   9.712 -0.0307 -2.4125  0.9403
  116MOL0     H15295  -0.331   6.787   9.724 -2.2977  0.9463 -0.7186
  116MOL0     H15296   0.110   6.758   9.665  0.7287  1.1732 -0.9609
  116MOL0     H15297   0.334   6.878   9.646 -0.4306  1.0801  0.0157
  116MOL0     H15298   2.029   7.331  10.044 -0.0214 -0.4558 -0.0107
  116MOL0     H15299   2.271   7.357  10.111  1.4646 -0.2290  0.5160
  116MOL0     H15300   2.822   7.492   9.904 -0.3829  0.8604 -0.7054
  116MOL0     H15301   3.005   7.638   9.995 -0.1419  1.4276  0.0983
  116MOL0     H15302   2.958   7.755  10.383 -0.3777 -0.3616  0.5020
  116MOL0     H15303   2.888   7.904  10.344 -0.6689 -0.8961  2.3123
  116MOL0     H15304   3.090   8.019  10.300  2.1525  1.0576  0.1362
  116MOL0     H15305   3.104   7.960  10.468  1.1042 -2.0042  0.8286
  116MOL0     H15306   3.210   7.843  10.204 -1.5969 -0.2071 -0.0325
  116MOL0     H15307   3.255   7.759  10.358 -0.4915  0.7137  0.8065
  116MOL0     H15308   3.330   8.048  10.296 -1.2219 -0.3936 -1.4183
  116MOL0     H15309   3.351   7.970  10.450 -0.4433 -0.6026 -0.1842
  116MOL0     H15310   3.681   7.838  10.212 -0.2920 -0.0658  0.7740
  116MOL0     H15311   2.699   7.799  10.267  0.3076  1.1597  0.0642
  116MOL0     H15312   2.544   7.671  10.171  0.2775 -2.6093  0.2843
  117MOL0     O15313   8.765  10.296   4.870  0.9477  0.0885 -0.2880
  117MOL0     C15314   8.751  10.176   4.871  0.2937 -0.4898 -0.1827
  117MOL0     O15315   8.849  10.085   4.858  0.0381  0.6271  0.2750
  117MOL0     C15316   8.977  10.127   4.844 -0.2077  0.7488 -0.3571
  117MOL0     C15317   9.052  10.095   4.730  0.7255  0.4179 -0.2208
  117MOL0     C15318   9.176  10.138   4.708 -0.1889 -0.7962  0.2073
  117MOL0     C15319   9.243  10.211   4.815  0.3796  0.1024  0.2590
  117MOL0     O15320   9.365  10.272   4.790 -0.3647  0.1620 -0.4739
  117MOL0     C15321   9.480  10.190   4.769 -0.8706 -0.3912  0.7345
  117MOL0     C15322   9.600  10.276   4.809 -0.2938 -0.3288  0.2749
  117MOL0     C15323   9.730  10.193   4.783 -0.5559  0.5645  0.2378
  117MOL0     C15324   9.763  10.147   4.636 -0.3634  0.3148 -0.6592
  117MOL0     C15325   9.864  10.026   4.621 -0.4432 -0.6652  0.4628
  117MOL0     C15326   9.888  10.002   4.472  0.3569  0.2383 -0.2521
  117MOL0     C15327   9.992   9.891   4.444  0.0757 -0.3769  0.5916
  117MOL0     C15328  10.002   9.862   4.299  0.2232 -0.2537  1.5581
  117MOL0     N15329  10.110   9.778   4.268  0.8683 -0.7784 -0.7037
  117MOL0     C15330  10.243   9.810   4.264 -0.8770  0.2406 -0.3462
  117MOL0     C15331  10.292   9.692   4.215  0.3533  0.4247  0.2167
  117MOL0     C15332  10.436   9.654   4.207  0.5618  0.3117 -0.3699
  117MOL0     C15333  10.450   9.569   4.333  0.3441  0.8571 -0.5669
  117MOL0     C15334  10.588   9.502   4.340 -0.0203  0.6129 -0.0027
  117MOL0     C15335  10.624   9.428   4.212  0.3422  0.2574  0.3882
  117MOL0     O15336  10.729   9.331   4.248  0.2789  0.5889 -0.1970
  117MOL0     C15337  10.832   9.304   4.166 -0.2985 -0.2959  0.5880
  117MOL0     C15338  10.944   9.268   4.227 -0.4367  0.1561 -0.7144
  117MOL0     C15339  11.070   9.254   4.164 -0.1987  0.2598 -0.9906
  117MOL0     C15340  11.080   9.266   4.025 -0.4916 -0.1367 -0.0875
  117MOL0     C15341  11.209   9.255   3.952 -0.0564  0.1026  0.1179
  117MOL0     O15342  11.306   9.190   4.024 -0.5931  0.6595  0.7770
  117MOL0     C15343  11.432   9.181   3.958  0.6705  0.6173  0.4466
  117MOL0     C15344  11.505   9.286   3.914  0.1615 -0.9399 -0.1199
  117MOL0     C15345  11.630   9.272   3.852  0.2409 -0.3864 -0.2936
  117MOL0     C15346  11.687   9.146   3.852 -0.3726 -0.6025  0.2529
  117MOL0     O15347  11.810   9.143   3.800  0.2954 -1.7561 -0.0857
  117MOL0     C15348  11.884   9.022   3.793 -0.5030  1.2339  0.0207
  117MOL0     C15349  12.017   9.040   3.717 -0.4634 -0.3975 -0.3868
  117MOL0     C15350  12.050   9.185   3.677 -0.1963 -0.0174  0.7817
  117MOL0     C15351  12.175   9.183   3.587 -0.7288  0.1792  0.5389
  117MOL0     C15352  12.232   9.325   3.574  0.2268 -0.0723  0.0178
  117MOL0     C15353  12.140   9.411   3.478  0.3096  0.1078  0.5734
  117MOL0     C15354  12.215   9.538   3.425 -0.2065 -0.2470 -0.1293
  117MOL0     C15355  12.113   9.635   3.369  0.2618 -0.5044 -0.5621
  117MOL0    Cl15356  12.013   9.721   3.485 -0.3262  0.4213 -0.0768
  117MOL0     C15357  11.619   9.040   3.890  0.3235  0.2549  0.3740
  117MOL0     C15358  11.488   9.055   3.942 -1.3507  0.2036  0.2620
  117MOL0     O15359  11.214   9.289   3.835  0.7680  0.0649  0.1105
  117MOL0     C15360  10.962   9.304   3.957 -0.9102 -0.0709  0.2420
  117MOL0     C15361  10.838   9.326   4.033  0.2544  0.3531  0.6115
  117MOL0     N15362  10.192   9.601   4.195  0.1263 -0.1892 -0.7740
  117MOL0     N15363  10.080   9.656   4.227 -0.0945 -0.0104 -0.6776
  117MOL0     C15364   9.168  10.242   4.930 -0.3238  0.2043 -0.3221
  117MOL0     C15365   9.038  10.196   4.947  0.4468  0.2188 -0.4261
  117MOL0     C15366   8.608  10.135   4.918 -0.3612  0.0193  0.1689
  117MOL0     C15367   8.497  10.221   4.909 -0.1753  0.1317 -0.0487
  117MOL0     C15368   8.372  10.171   4.937 -0.7123  0.0563  0.3009
  117MOL0     C15369   8.340  10.040   4.970  0.3204  0.4056 -0.6597
  117MOL0     O15370   8.216  10.007   5.013 -0.0958 -0.0622  0.2256
  117MOL0     C15371   8.174   9.869   5.019  1.0304  0.2369  0.2284
  117MOL0     C15372   8.030   9.859   5.052 -0.8271  0.0777 -0.9798
  117MOL0     C15373   7.995   9.707   5.050 -0.0012 -0.7017  0.3170
  117MOL0     C15374   7.846   9.678   5.085 -0.4986  0.0345  0.5649
  117MOL0     C15375   7.756   9.717   4.976 -0.3135 -0.4489  0.0196
  117MOL0     C15376   7.675   9.739   4.884 -0.7497 -0.3738  0.7161
  117MOL0     C15377   8.448   9.950   4.972 -0.1362 -1.3134 -0.4718
  117MOL0     C15378   8.579  10.001   4.953  1.2460  0.0603  0.6543
  117MOL0     H15379   9.009  10.048   4.642 -0.2654  0.6171  0.1453
  117MOL0     H15380   9.219  10.120   4.610  3.0544 -0.6820  1.4724
  117MOL0     H15381   9.488  10.167   4.663  0.0330 -0.2691  0.7686
  117MOL0     H15382   9.479  10.093   4.818 -0.2031 -0.9200 -0.2719
  117MOL0     H15383   9.588  10.275   4.918 -2.1006 -3.2637  0.1698
  117MOL0     H15384   9.590  10.373   4.761 -0.8352 -0.3114  0.4214
  117MOL0     H15385   9.727  10.096   4.833 -0.8401  0.5999  0.2929
  117MOL0     H15386   9.823  10.244   4.808 -0.1975  1.0485 -1.8566
  117MOL0     H15387   9.674  10.120   4.578 -0.9033 -2.6509  1.2990
  117MOL0     H15388   9.805  10.236   4.589 -0.2180  1.9131  2.2574
  117MOL0     H15389   9.817   9.936   4.661  0.1762 -0.2095  2.2876
  117MOL0     H15390   9.962  10.039   4.669  0.9831 -3.6856 -1.2539
  117MOL0     H15391   9.920  10.095   4.423  0.9049 -0.9693 -2.2791
  117MOL0     H15392   9.793   9.966   4.431  0.7004 -3.8400  2.0382
  117MOL0     H15393  10.090   9.914   4.485  0.8443 -0.8913 -0.8931
  117MOL0     H15394   9.955   9.797   4.487 -1.6927 -1.1364 -2.2885
  117MOL0     H15395  10.020   9.963   4.260 -2.4045 -0.3876 -0.2378
  117MOL0     H15396   9.916   9.811   4.256  0.2955 -0.2423  1.3976
  117MOL0     H15397  10.308   9.887   4.302  2.6856 -3.3210  1.5840
  117MOL0     H15398  10.509   9.734   4.219 -0.4510  0.9772  1.9493
  117MOL0     H15399  10.450   9.587   4.122  1.8684 -2.9963  2.2179
  117MOL0     H15400  10.374   9.492   4.343  0.7965  0.4771 -0.0570
  117MOL0     H15401  10.451   9.634   4.421 -0.8720 -1.3049  1.1293
  117MOL0     H15402  10.662   9.582   4.352  1.1186 -0.6302  1.6480
  117MOL0     H15403  10.582   9.434   4.425 -0.7055 -2.2134 -2.1840
  117MOL0     H15404  10.662   9.500   4.139 -1.9179  0.2041 -0.9069
  117MOL0     H15405  10.540   9.373   4.171  1.8252 -1.9339  0.1231
  117MOL0     H15406  10.942   9.242   4.333 -1.0457  1.1501 -0.4644
  117MOL0     H15407  11.159   9.214   4.211  1.5883 -1.4004 -5.2813
  117MOL0     H15408  11.465   9.387   3.923 -1.7801 -1.6732 -0.0409
  117MOL0     H15409  11.683   9.359   3.816  0.6901 -1.1725 -1.6093
  117MOL0     H15410  11.825   8.944   3.744 -0.0269 -0.8660  2.5484
  117MOL0     H15411  11.902   8.990   3.896 -1.8007  2.5724  0.7022
  117MOL0     H15412  12.018   8.989   3.620  0.1663 -0.3327 -0.4150
  117MOL0     H15413  12.102   8.991   3.765 -0.3992 -2.5404 -2.4512
  117MOL0     H15414  12.064   9.250   3.764  0.5708  0.8138  0.0588
  117MOL0     H15415  11.968   9.215   3.611  0.7919 -0.8317 -0.8864
  117MOL0     H15416  12.257   9.123   3.627  1.9352  3.1011 -0.1665
  117MOL0     H15417  12.147   9.135   3.493  4.4949 -0.7704 -0.8560
  117MOL0     H15418  12.334   9.326   3.536  0.1143 -1.5162 -0.3531
  117MOL0     H15419  12.236   9.374   3.672 -3.8222  1.4258 -0.3652
  117MOL0     H15420  12.045   9.435   3.528 -0.6976  3.3315 -2.4885
  117MOL0     H15421  12.119   9.360   3.384 -1.9454 -0.7386  1.4586
  117MOL0     H15422  12.273   9.579   3.508  0.0091  1.1399 -0.9431
  117MOL0     H15423  12.283   9.501   3.348 -0.6396  0.6339 -0.9506
  117MOL0     H15424  12.057   9.582   3.292  0.8744  0.2872 -1.5944
  117MOL0     H15425  12.171   9.711   3.315  0.0235 -2.4147 -3.7677
  117MOL0     H15426  11.662   8.941   3.891 -0.3767 -0.0782  2.4127
  117MOL0     H15427  11.449   8.955   3.960  0.7154 -0.4953  1.0522
  117MOL0     H15428  10.960   9.333   3.852 -2.9408 -0.2383  0.1816
  117MOL0     H15429  10.742   9.357   3.990 -0.0799 -0.8474  0.4635
  117MOL0     H15430   9.220  10.302   5.004  0.0541  0.0432 -0.4550
  117MOL0     H15431   8.996  10.208   5.046 -0.0879 -1.1296 -0.4603
  117MOL0     H15432   8.510  10.320   4.867  1.1104 -0.0134 -0.0243
  117MOL0     H15433   8.284  10.235   4.938 -0.7023  0.0709  0.6571
  117MOL0     H15434   8.236   9.806   5.084  1.7439 -1.3150 -1.8577
  117MOL0     H15435   8.185   9.828   4.918  0.1098  2.0520 -0.6572
  117MOL0     H15436   8.012   9.893   5.155 -0.2238 -0.8080 -0.5712
  117MOL0     H15437   7.970   9.923   4.988 -1.7569 -0.1535 -0.3593
  117MOL0     H15438   8.061   9.654   5.120  2.2625  0.8129 -0.5701
  117MOL0     H15439   8.004   9.673   4.947 -3.2173 -0.5876 -0.1153
  117MOL0     H15440   7.838   9.569   5.093 -1.3770 -0.1882 -2.2101
  117MOL0     H15441   7.825   9.733   5.177  1.6302  1.0969  0.4713
  117MOL0     H15442   7.611   9.742   4.798 -1.6970  1.2790  1.4295
  117MOL0     H15443   8.445   9.845   4.999 -1.2847 -1.4985 -1.2686
  117MOL0     H15444   8.659   9.927   4.949 -1.0030 -2.4790 -2.3690
  118MOL0     O15445   0.250   3.608   3.915 -0.2047 -0.2712 -0.6058
  118MOL0     C15446   0.203   3.540   4.004 -1.0272  0.6793 -0.4128
  118MOL0     O15447   0.075   3.555   4.059 -0.1108  0.4069 -0.0613
  118MOL0     C15448  -0.002   3.654   3.995 -0.0984  0.5733 -0.5666
  118MOL0     C15449  -0.085   3.626   3.886 -0.1414 -0.3494  0.5023
  118MOL0     C15450  -0.160   3.719   3.824  0.7668 -0.1633  0.0613
  118MOL0     C15451  -0.174   3.847   3.873  0.6809 -0.7037  0.1859
  118MOL0     O15452  -0.257   3.944   3.823  0.0656  0.1293 -0.4153
  118MOL0     C15453  -0.373   3.900   3.750 -0.4436  0.3704 -0.0048
  118MOL0     C15454  -0.366   3.890   3.597  0.1064 -0.4011  0.8224
  118MOL0     C15455  -0.503   3.908   3.534 -0.2708  0.4010  0.6136
  118MOL0     C15456  -0.477   3.875   3.388 -0.1616 -0.4906 -0.3691
  118MOL0     C15457  -0.604   3.891   3.302 -0.7721 -0.5712 -0.4559
  118MOL0     C15458  -0.603   3.789   3.180 -0.1465  0.6087 -0.3280
  118MOL0     C15459  -0.695   3.827   3.057  0.0219 -0.2062  0.7156
  118MOL0     C15460  -0.841   3.808   3.088 -0.5709 -0.6099  0.7848
  118MOL0     N15461  -0.909   3.859   2.970  0.8956 -0.6014 -0.2577
  118MOL0     C15462  -1.002   3.960   2.980 -0.1209  0.0139  0.3724
  118MOL0     C15463  -1.076   3.947   2.868 -0.1540 -0.5433 -0.3225
  118MOL0     C15464  -1.206   4.023   2.828  1.0533  0.1071  0.0344
  118MOL0     C15465  -1.204   4.055   2.674  0.5732  0.0025 -0.4369
  118MOL0     C15466  -1.082   4.156   2.630 -0.1858 -0.8005  0.0603
  118MOL0     C15467  -0.960   4.070   2.598  0.5345  0.6360 -0.2504
  118MOL0     O15468  -0.851   4.157   2.553  0.1929  0.3740  0.2669
  118MOL0     C15469  -0.731   4.103   2.527 -0.8611  0.9962  0.4806
  118MOL0     C15470  -0.683   3.968   2.545 -0.5256  0.6838  0.2900
  118MOL0     C15471  -0.557   3.932   2.498  0.4472  0.0049  0.0362
  118MOL0     C15472  -0.466   4.020   2.443 -0.9587  0.5698  0.0260
  118MOL0     C15473  -0.330   3.976   2.398  0.5041 -0.1939 -0.1220
  118MOL0     O15474  -0.235   4.073   2.387 -0.3478 -0.7085 -0.0104
  118MOL0     C15475  -0.109   4.027   2.344 -0.0390  0.8891 -1.1092
  118MOL0     C15476  -0.024   3.944   2.420 -0.9037  0.4722  0.4419
  118MOL0     C15477   0.110   3.922   2.368  0.1234  0.2072 -0.0728
  118MOL0     C15478   0.147   3.975   2.247  0.0305  0.5120  0.4879
  118MOL0     O15479   0.281   3.950   2.219 -0.0752 -0.1361  0.1632
  118MOL0     C15480   0.338   4.024   2.106  0.3194  0.1862  0.0069
  118MOL0     C15481   0.491   4.022   2.112  0.0515 -0.9324 -0.4610
  118MOL0     C15482   0.547   3.881   2.094  0.1184  0.4689 -0.0390
  118MOL0     C15483   0.694   3.877   2.064  1.1115 -0.1520  0.8092
  118MOL0     C15484   0.745   3.734   2.050  0.3912  0.1010 -0.4342
  118MOL0     C15485   0.894   3.722   2.001 -0.4454 -0.8698  0.0008
  118MOL0     C15486   1.000   3.772   2.102 -0.5035  0.4363  0.0919
  118MOL0     C15487   1.140   3.743   2.046 -0.7497  0.5508  0.0390
  118MOL0    Cl15488   1.266   3.772   2.163  0.4324  0.4087  0.4198
  118MOL0     C15489   0.053   4.043   2.174  0.3471 -0.8143 -0.2617
  118MOL0     C15490  -0.071   4.078   2.227  0.5659  0.5024  0.2700
  118MOL0     O15491  -0.315   3.853   2.376  0.4785 -0.6643 -0.3281
  118MOL0     C15492  -0.498   4.155   2.454  0.4634 -0.6850 -0.0191
  118MOL0     C15493  -0.629   4.199   2.487  0.5296 -0.5641  0.0694
  118MOL0     N15494  -1.042   3.835   2.794  0.1252 -0.2185  0.0154
  118MOL0     N15495  -0.931   3.794   2.854  0.0967  0.3589  0.0473
  118MOL0     C15496  -0.105   3.875   3.983  1.0579 -0.0435 -0.6357
  118MOL0     C15497  -0.004   3.786   4.038  0.2134 -0.4262 -0.3606
  118MOL0     C15498   0.275   3.416   4.046 -0.3026 -0.1022 -0.6287
  118MOL0     C15499   0.206   3.320   4.125 -0.4726 -0.8496 -0.2436
  118MOL0     C15500   0.262   3.201   4.174 -0.2682 -0.3766  0.3254
  118MOL0     C15501   0.396   3.175   4.144 -0.7859  0.1590 -0.3377
  118MOL0     O15502   0.453   3.061   4.200  0.5452  0.0789 -0.4439
  118MOL0     C15503   0.584   3.014   4.160 -0.3787  0.7344  0.3912
  118MOL0     C15504   0.691   3.050   4.260  0.2911 -0.3412  0.3959
  118MOL0     C15505   0.677   2.980   4.398  0.2169  0.2151  0.8075
  118MOL0     C15506   0.791   3.040   4.487  0.7491  0.7173 -0.1836
  118MOL0     C15507   0.786   2.969   4.611  0.0982  0.2656  0.5930
  118MOL0     C15508   0.793   2.928   4.720 -0.9923  0.2753  0.1194
  118MOL0     C15509   0.462   3.269   4.063 -0.1261 -0.6233 -0.7154
  118MOL0     C15510   0.409   3.386   4.009 -0.2410  0.8958 -0.9961
  118MOL0     H15511  -0.093   3.532   3.833 -0.5545  0.4377 -0.8954
  118MOL0     H15512  -0.204   3.693   3.729  1.9751  1.5233 -1.0149
  118MOL0     H15513  -0.454   3.962   3.789 -0.5560 -0.5580  1.2943
  118MOL0     H15514  -0.396   3.799   3.784 -0.1327  0.4580  0.4672
  118MOL0     H15515  -0.310   3.804   3.557  0.0393  0.0956 -0.3549
  118MOL0     H15516  -0.307   3.976   3.566  0.7414 -0.0666  2.7968
  118MOL0     H15517  -0.545   4.007   3.552  0.0770  0.2718  2.2469
  118MOL0     H15518  -0.575   3.842   3.582 -1.1712  2.7753  2.7724
  118MOL0     H15519  -0.398   3.940   3.350  0.6825 -1.7560 -0.8662
  118MOL0     H15520  -0.453   3.768   3.379  2.1138 -0.2575  1.8289
  118MOL0     H15521  -0.616   3.995   3.271  0.4682 -0.5133 -0.8210
  118MOL0     H15522  -0.697   3.866   3.353 -0.4349 -0.1249  0.4043
  118MOL0     H15523  -0.635   3.696   3.227 -1.9877  0.2696 -2.1453
  118MOL0     H15524  -0.503   3.777   3.138 -0.0978 -2.8005  0.4688
  118MOL0     H15525  -0.673   3.931   3.030  2.2393 -0.9186 -0.5649
  118MOL0     H15526  -0.664   3.773   2.967 -2.0718 -1.3075  0.6094
  118MOL0     H15527  -0.867   3.865   3.177  0.4325 -0.3456  0.9184
  118MOL0     H15528  -0.865   3.702   3.096 -1.6035 -0.4347  0.1695
  118MOL0     H15529  -1.009   4.033   3.060 -0.7154 -1.0154  1.2940
  118MOL0     H15530  -1.215   4.120   2.878  1.2563 -0.5489  1.3889
  118MOL0     H15531  -1.290   3.962   2.862  1.2583  0.5919  1.4828
  118MOL0     H15532  -1.296   4.103   2.641  1.8176  0.8570 -2.9199
  118MOL0     H15533  -1.195   3.964   2.614 -0.6613 -2.3085  2.5761
  118MOL0     H15534  -1.104   4.195   2.531 -1.6788 -0.3798  0.5321
  118MOL0     H15535  -1.054   4.237   2.699 -3.2099 -1.4700  2.2884
  118MOL0     H15536  -0.993   4.001   2.520 -0.0418 -0.6276  1.0672
  118MOL0     H15537  -0.915   4.021   2.685 -3.0277 -0.8454  0.9590
  118MOL0     H15538  -0.738   3.885   2.588 -1.3875 -0.7492 -3.2499
  118MOL0     H15539  -0.524   3.828   2.500  0.0403 -0.3574 -3.7801
  118MOL0     H15540  -0.067   3.891   2.504  0.0802  2.0803  2.0475
  118MOL0     H15541   0.181   3.846   2.399  0.1864 -0.2872 -1.3650
  118MOL0     H15542   0.292   4.124   2.100 -4.5799 -1.7189  0.9845
  118MOL0     H15543   0.314   3.982   2.008 -1.7227  1.6951 -0.2089
  118MOL0     H15544   0.521   4.066   2.207 -1.8359  2.7689 -1.3903
  118MOL0     H15545   0.532   4.083   2.031 -0.3234 -0.3446 -0.2136
  118MOL0     H15546   0.493   3.824   2.018 -0.3866  2.0430 -0.9213
  118MOL0     H15547   0.541   3.830   2.190 -1.1827  0.5353 -0.0742
  118MOL0     H15548   0.700   3.938   1.973 -2.4852 -1.1658 -0.2627
  118MOL0     H15549   0.742   3.936   2.143  0.7646  1.4937 -0.1639
  118MOL0     H15550   0.685   3.683   1.974 -1.1335  0.9852  0.1406
  118MOL0     H15551   0.729   3.672   2.138  2.2939  1.7800  1.2128
  118MOL0     H15552   0.901   3.767   1.901 -2.4571  1.2270  0.6989
  118MOL0     H15553   0.914   3.615   2.004  1.0631 -0.6018  2.8204
  118MOL0     H15554   0.969   3.876   2.120 -0.7958  0.4701 -0.5508
  118MOL0     H15555   0.991   3.731   2.203  2.5802  3.8990  1.9960
  118MOL0     H15556   1.160   3.799   1.954 -0.3580  1.0247  0.4061
  118MOL0     H15557   1.151   3.639   2.017 -0.1061  0.8089 -0.6635
  118MOL0     H15558   0.072   4.094   2.080 -2.0071 -0.0167 -0.3784
  118MOL0     H15559  -0.132   4.147   2.170  1.2081  0.2568 -0.7360
  118MOL0     H15560  -0.433   4.240   2.433 -1.3005  1.0924  1.3422
  118MOL0     H15561  -0.642   4.306   2.487 -1.5026 -0.7486  0.9952
  118MOL0     H15562  -0.105   3.972   4.031 -0.1958 -0.1653 -0.3440
  118MOL0     H15563   0.045   3.815   4.130 -3.0348 -0.3935  1.4747
  118MOL0     H15564   0.108   3.343   4.164 -0.9647 -0.0400 -1.8831
  118MOL0     H15565   0.211   3.141   4.248  1.3814 -1.4482  0.6448
  118MOL0     H15566   0.599   3.055   4.059 -4.1045 -1.4802 -1.2887
  118MOL0     H15567   0.580   2.907   4.139 -0.2000  1.0944 -1.7572
  118MOL0     H15568   0.783   3.012   4.215  0.0857 -0.2798 -0.0945
  118MOL0     H15569   0.697   3.159   4.266 -2.0796 -0.1799  1.1057
  118MOL0     H15570   0.695   2.876   4.369  4.6482  0.2109  2.8102
  118MOL0     H15571   0.582   2.992   4.451  0.8069  0.3433  1.8627
  118MOL0     H15572   0.888   3.026   4.439  0.0791  1.4229 -1.8133
  118MOL0     H15573   0.790   3.145   4.517  0.4006  0.0502  2.4162
  118MOL0     H15574   0.793   2.892   4.821 -1.0862  2.2608  0.8682
  118MOL0     H15575   0.560   3.241   4.026  0.7483 -0.8918  1.6192
  118MOL0     H15576   0.462   3.455   3.945 -1.2012  0.8883 -1.8360
  119MOL0     O15577   1.277   5.456   2.469 -0.0666  0.5245 -0.1973
  119MOL0     C15578   1.278   5.366   2.385 -0.6448  0.2166 -0.0261
  119MOL0     O15579   1.173   5.340   2.301 -0.5263  0.1658 -0.0647
  119MOL0     C15580   1.051   5.407   2.300 -0.5579 -0.6309 -0.4776
  119MOL0     C15581   1.002   5.504   2.387  0.3088  0.1793 -0.3373
  119MOL0     C15582   0.887   5.577   2.364 -0.3199 -0.5713 -0.9520
  119MOL0     C15583   0.830   5.557   2.242  0.5689 -0.5059  0.4662
  119MOL0     O15584   0.721   5.630   2.211  0.3073  0.0832 -0.5270
  119MOL0     C15585   0.598   5.553   2.190 -0.5775 -0.4035  1.0254
  119MOL0     C15586   0.554   5.478   2.323 -0.0241 -0.3588 -0.8053
  119MOL0     C15587   0.419   5.402   2.318  1.3149 -0.0985  0.2807
  119MOL0     C15588   0.289   5.479   2.291 -0.4596  0.1501  0.3099
  119MOL0     C15589   0.166   5.389   2.338 -0.4435 -0.5149 -0.4299
  119MOL0     C15590   0.028   5.439   2.305  0.3774 -0.0495  0.7593
  119MOL0     C15591  -0.082   5.331   2.324  1.0779  0.1609 -0.1749
  119MOL0     C15592  -0.223   5.390   2.322  0.1669 -0.0231  0.2683
  119MOL0     N15593  -0.329   5.289   2.313 -1.0215  0.6677 -0.2050
  119MOL0     C15594  -0.370   5.225   2.423 -0.1469 -0.1294  0.4411
  119MOL0     C15595  -0.489   5.178   2.380  0.8187  0.7443 -0.8649
  119MOL0     C15596  -0.575   5.075   2.452  0.2844 -0.2722  0.0697
  119MOL0     C15597  -0.547   4.931   2.401 -0.4573  0.4742 -0.8144
  119MOL0     C15598  -0.652   4.828   2.455 -0.1563  0.2996 -0.1372
  119MOL0     C15599  -0.787   4.840   2.389  0.2453  0.0263  0.2724
  119MOL0     O15600  -0.763   4.803   2.251 -0.1070  0.6816 -0.3352
  119MOL0     C15601  -0.864   4.823   2.157  0.7173  0.1815 -0.4741
  119MOL0     C15602  -0.987   4.879   2.193  0.2534 -1.3674 -0.3209
  119MOL0     C15603  -1.092   4.909   2.100  1.2410  0.0583  0.0701
  119MOL0     C15604  -1.074   4.875   1.967 -0.2460 -0.1796  0.7036
  119MOL0     C15605  -1.181   4.909   1.867 -0.7131 -0.2426  0.1060
  119MOL0     O15606  -1.299   4.948   1.919  0.4640 -0.0874  0.1688
  119MOL0     C15607  -1.402   4.969   1.829  0.3216  0.2179  0.7202
  119MOL0     C15608  -1.459   5.102   1.818 -0.1624  0.7657 -0.8068
  119MOL0     C15609  -1.556   5.141   1.723  0.3854  0.0085  0.1031
  119MOL0     C15610  -1.604   5.034   1.636  0.5048  0.1778 -0.1182
  119MOL0     O15611  -1.696   5.066   1.539  0.0908 -0.1764  0.1288
  119MOL0     C15612  -1.748   5.200   1.530  0.1441  0.3153  0.1762
  119MOL0     C15613  -1.826   5.208   1.402  0.3158 -0.5681 -0.9024
  119MOL0     C15614  -1.957   5.121   1.386 -0.0566  0.4733  0.0361
  119MOL0     C15615  -2.041   5.164   1.266 -0.0708  0.0670  0.1405
  119MOL0     C15616  -2.120   5.293   1.286 -0.4560  0.8250 -0.1749
  119MOL0     C15617  -2.236   5.292   1.181  0.2029  0.3636 -0.2236
  119MOL0     C15618  -2.324   5.410   1.167  0.2663  0.0793 -0.0542
  119MOL0     C15619  -2.462   5.379   1.092 -0.0652  0.2758 -0.3783
  119MOL0    Cl15620  -2.559   5.512   1.045 -0.3253 -0.1425  0.2563
  119MOL0     C15621  -1.555   4.904   1.653 -0.8009  0.5340 -0.1231
  119MOL0     C15622  -1.451   4.868   1.744  0.2401  0.2778 -0.5972
  119MOL0     O15623  -1.147   4.917   1.746  0.2952  0.3747 -0.3926
  119MOL0     C15624  -0.951   4.823   1.930 -0.9107 -0.3987 -0.1978
  119MOL0     C15625  -0.848   4.804   2.021 -0.4343 -0.5996 -0.4294
  119MOL0     N15626  -0.517   5.210   2.251  0.7007 -0.1596 -0.8653
  119MOL0     N15627  -0.416   5.276   2.209 -0.3748  0.2520  0.1722
  119MOL0     C15628   0.874   5.458   2.150  0.6650 -0.3746 -1.1169
  119MOL0     C15629   0.981   5.381   2.186 -0.3365 -0.2724 -0.5232
  119MOL0     C15630   1.393   5.290   2.370 -0.4713 -0.4808  0.4650
  119MOL0     C15631   1.411   5.205   2.250 -0.1429 -0.6901 -0.8067
  119MOL0     C15632   1.526   5.135   2.229  0.4219 -0.2702 -0.0747
  119MOL0     C15633   1.632   5.123   2.328 -0.2496 -0.2819 -0.4234
  119MOL0     O15634   1.740   5.040   2.326  1.1046  0.1679  0.2602
  119MOL0     C15635   1.788   4.979   2.196  0.0688 -0.0803  0.1031
  119MOL0     C15636   1.881   5.076   2.125 -0.4059 -0.7996  0.0313
  119MOL0     C15637   1.922   5.025   1.986  0.7965  0.1797 -0.6878
  119MOL0     C15638   2.019   5.113   1.911  0.4478  0.1998 -0.6049
  119MOL0     C15639   2.054   5.068   1.771 -0.2513 -0.7191 -0.5793
  119MOL0     C15640   2.067   5.035   1.657 -0.6599  0.0914  0.8704
  119MOL0     C15641   1.611   5.209   2.442 -0.2856 -0.1558 -0.9058
  119MOL0     C15642   1.501   5.283   2.462 -0.0925 -0.3104 -0.0084
  119MOL0     H15643   1.042   5.511   2.488 -4.0354 -2.9704  1.9184
  119MOL0     H15644   0.847   5.651   2.432 -0.2915 -0.0001 -1.5480
  119MOL0     H15645   0.611   5.483   2.108 -1.7406 -0.2747  0.7154
  119MOL0     H15646   0.520   5.620   2.156  1.5374  0.9257 -1.5787
  119MOL0     H15647   0.555   5.549   2.405 -0.6828  0.6278 -1.6245
  119MOL0     H15648   0.636   5.409   2.346  0.7484  0.9049  0.3663
  119MOL0     H15649   0.413   5.351   2.415  1.1793 -2.0585 -0.6937
  119MOL0     H15650   0.410   5.319   2.246 -1.1909 -1.4290  1.9699
  119MOL0     H15651   0.286   5.575   2.344  2.4065  0.8065 -0.4963
  119MOL0     H15652   0.281   5.502   2.184  2.0700 -1.4205 -0.2926
  119MOL0     H15653   0.174   5.384   2.447  1.3298 -0.2664 -0.5146
  119MOL0     H15654   0.175   5.287   2.300 -2.0456 -0.2754 -1.5528
  119MOL0     H15655   0.026   5.463   2.198  2.5472 -2.1411  0.1539
  119MOL0     H15656   0.012   5.531   2.363  1.3902  0.4337  0.3117
  119MOL0     H15657  -0.073   5.265   2.237 -1.9571 -0.2504 -0.3079
  119MOL0     H15658  -0.059   5.265   2.408 -2.0155 -1.6862 -0.6317
  119MOL0     H15659  -0.228   5.448   2.229 -2.8978 -2.5095 -1.3112
  119MOL0     H15660  -0.241   5.446   2.414  0.2386 -2.3501  1.7911
  119MOL0     H15661  -0.327   5.210   2.521 -2.1937  0.4518  1.4923
  119MOL0     H15662  -0.679   5.100   2.427  1.1308  2.0316 -1.4835
  119MOL0     H15663  -0.547   5.083   2.558  0.5136  1.2091 -0.0859
  119MOL0     H15664  -0.452   4.888   2.435 -1.7805 -0.6455  1.7724
  119MOL0     H15665  -0.551   4.933   2.292  0.3267 -0.6944 -0.8879
  119MOL0     H15666  -0.619   4.726   2.432 -1.0454 -0.4458  1.7414
  119MOL0     H15667  -0.666   4.831   2.563 -0.4757  1.5187 -0.2053
  119MOL0     H15668  -0.830   4.940   2.401 -1.1952 -0.3503 -1.3014
  119MOL0     H15669  -0.855   4.766   2.432 -0.3231  0.8335  0.7949
  119MOL0     H15670  -1.011   4.908   2.295 -0.7172  1.1301 -1.1859
  119MOL0     H15671  -1.187   4.954   2.125  1.3354 -0.8480  2.2789
  119MOL0     H15672  -1.429   5.178   1.890 -0.7193  1.1894 -1.0091
  119MOL0     H15673  -1.600   5.238   1.741  0.4303 -0.0029  0.2795
  119MOL0     H15674  -1.662   5.265   1.515  0.7439 -0.5290 -0.1791
  119MOL0     H15675  -1.812   5.218   1.617 -2.2164 -3.0471 -0.6602
  119MOL0     H15676  -1.772   5.171   1.313 -0.9393 -2.8020 -0.8197
  119MOL0     H15677  -1.850   5.313   1.383 -3.7317 -0.8893  1.3732
  119MOL0     H15678  -2.008   5.128   1.483 -0.5631 -1.2380 -0.0806
  119MOL0     H15679  -1.939   5.015   1.371 -1.5045  0.5380 -2.8279
  119MOL0     H15680  -2.001   5.160   1.164 -1.8095 -0.7044 -0.5429
  119MOL0     H15681  -2.117   5.086   1.265 -1.5990  1.5010  0.5420
  119MOL0     H15682  -2.054   5.380   1.276  2.7535 -1.1298  1.8303
  119MOL0     H15683  -2.154   5.294   1.390  1.3962  0.5331  0.4896
  119MOL0     H15684  -2.299   5.204   1.199 -0.5696 -0.0458 -4.1261
  119MOL0     H15685  -2.194   5.273   1.082 -1.6235 -2.0302 -0.6472
  119MOL0     H15686  -2.344   5.460   1.262 -2.7021 -0.9437 -0.0415
  119MOL0     H15687  -2.284   5.488   1.102 -1.0375  0.7021 -0.1284
  119MOL0     H15688  -2.527   5.327   1.163 -0.5095 -1.1786 -1.7776
  119MOL0     H15689  -2.439   5.324   1.000 -1.6009  2.7039 -2.3447
  119MOL0     H15690  -1.595   4.825   1.591 -0.7981  0.9955 -0.7178
  119MOL0     H15691  -1.419   4.764   1.740  1.3791  0.6212 -0.5424
  119MOL0     H15692  -0.914   4.797   1.831  0.6875  1.0571 -0.0320
  119MOL0     H15693  -0.754   4.767   1.983  0.1429  1.8033 -1.5467
  119MOL0     H15694   0.830   5.450   2.051  3.4824 -0.5171 -2.4596
  119MOL0     H15695   1.020   5.300   2.125  1.2563 -0.1738  0.3119
  119MOL0     H15696   1.332   5.193   2.177 -0.1516 -0.4095 -0.8425
  119MOL0     H15697   1.529   5.068   2.143  0.8065 -0.7167  0.2796
  119MOL0     H15698   1.718   4.948   2.118  0.6572 -0.7929 -0.1563
  119MOL0     H15699   1.848   4.890   2.215 -1.3307 -1.3381 -1.1278
  119MOL0     H15700   1.838   5.176   2.116  1.4248 -0.0115 -0.5320
  119MOL0     H15701   1.970   5.090   2.187 -1.2945  3.2881  0.6279
  119MOL0     H15702   1.827   5.013   1.932 -0.9936  1.8898  1.8433
  119MOL0     H15703   1.954   4.923   2.008 -1.7954 -0.1840  2.1365
  119MOL0     H15704   1.977   5.213   1.917  1.9791  0.8165  0.4056
  119MOL0     H15705   2.112   5.113   1.968  0.2601 -0.8148 -0.2763
  119MOL0     H15706   2.060   5.011   1.553 -2.1847  1.1411  0.7024
  119MOL0     H15707   1.684   5.216   2.522  0.1521  0.6629 -1.3591
  119MOL0     H15708   1.493   5.352   2.546 -2.2991  1.2569 -1.4026
  120MOL0     O15709   0.412   3.413   6.594 -0.8125  0.9309  0.1266
  120MOL0     C15710   0.383   3.404   6.711  0.5361  0.7336  0.5151
  120MOL0     O15711   0.251   3.377   6.759  0.2832 -0.3207  0.9548
  120MOL0     C15712   0.151   3.380   6.669  0.6043  0.0879  0.6453
  120MOL0     C15713   0.080   3.256   6.648  0.2608  0.1250  1.0757
  120MOL0     C15714  -0.022   3.252   6.547 -1.0807  0.3872  0.1007
  120MOL0     C15715  -0.054   3.363   6.473  0.1620  0.1433 -0.3455
  120MOL0     O15716  -0.156   3.352   6.380 -0.1633 -0.3657 -0.3126
  120MOL0     C15717  -0.158   3.240   6.286  0.2066 -0.6454 -0.9844
  120MOL0     C15718  -0.136   3.288   6.143 -0.8704 -0.5739 -0.1157
  120MOL0     C15719  -0.235   3.210   6.049 -0.7823 -0.7820 -0.2063
  120MOL0     C15720  -0.187   3.067   6.044  0.1718  0.7544 -0.4395
  120MOL0     C15721  -0.268   2.999   5.932  1.1237  0.7990 -0.1774
  120MOL0     C15722  -0.232   2.849   5.920 -0.0951 -0.2887  0.1387
  120MOL0     C15723  -0.284   2.783   5.793  0.6064  0.6415  0.1683
  120MOL0     C15724  -0.428   2.824   5.743  0.1621 -0.2259  0.3085
  120MOL0     N15725  -0.536   2.763   5.820 -0.2666 -0.1422  0.2205
  120MOL0     C15726  -0.527   2.643   5.885 -0.5441 -0.5539  0.2596
  120MOL0     C15727  -0.653   2.613   5.931  0.2918 -0.4794 -0.2783
  120MOL0     C15728  -0.684   2.492   6.015  0.0868  0.6573  0.5143
  120MOL0     C15729  -0.841   2.454   6.016 -0.2045  0.1278 -0.3083
  120MOL0     C15730  -0.854   2.303   6.051  0.4602  0.2691 -0.5641
  120MOL0     C15731  -0.828   2.280   6.200  0.7063 -0.1346  0.1784
  120MOL0     O15732  -0.860   2.153   6.235  0.9689  0.6655  0.1919
  120MOL0     C15733  -0.998   2.131   6.254 -0.0952  0.6664  0.3573
  120MOL0     C15734  -1.038   1.994   6.236 -0.7454  0.2583 -0.4621
  120MOL0     C15735  -1.164   1.954   6.266 -0.8036  0.2190 -0.3266
  120MOL0     C15736  -1.266   2.046   6.288 -0.3140 -0.0407  0.0867
  120MOL0     C15737  -1.404   2.002   6.320 -0.1540 -0.1098  0.3318
  120MOL0     O15738  -1.418   1.871   6.361 -0.4709  0.2447  0.5847
  120MOL0     C15739  -1.534   1.844   6.433  0.6958  0.0184  0.1321
  120MOL0     C15740  -1.590   1.920   6.531 -0.8422 -0.4775  0.0698
  120MOL0     C15741  -1.694   1.890   6.621  0.7417 -0.4892  0.3125
  120MOL0     C15742  -1.772   1.779   6.592 -0.0632 -0.3362 -0.1623
  120MOL0     O15743  -1.887   1.750   6.663 -0.0913 -0.1495 -0.1371
  120MOL0     C15744  -1.982   1.654   6.620  0.2067  0.8444  0.3735
  120MOL0     C15745  -2.108   1.668   6.708  0.1261  0.1099 -0.1783
  120MOL0     C15746  -2.087   1.684   6.855 -0.8979  0.1057 -1.4598
  120MOL0     C15747  -2.210   1.738   6.934 -0.7236 -0.0716  0.2744
  120MOL0     C15748  -2.196   1.709   7.081 -0.5102 -0.9541  0.8391
  120MOL0     C15749  -2.311   1.764   7.167  0.7736 -0.4015  0.1454
  120MOL0     C15750  -2.439   1.675   7.169  0.1318  0.5970 -0.3364
  120MOL0     C15751  -2.422   1.519   7.150 -0.3235 -0.9386  0.0518
  120MOL0    Cl15752  -2.560   1.424   7.130  0.4758 -0.1440  0.0495
  120MOL0     C15753  -1.725   1.703   6.480  0.5090  0.0569  0.3687
  120MOL0     C15754  -1.602   1.730   6.412  0.4612 -0.4678 -0.0708
  120MOL0     O15755  -1.497   2.089   6.306 -0.0062  0.0714 -0.3372
  120MOL0     C15756  -1.231   2.177   6.319 -0.7208 -0.5207 -0.5906
  120MOL0     C15757  -1.090   2.216   6.306  0.3042  0.1367 -0.7590
  120MOL0     N15758  -0.735   2.718   5.894  0.2212 -0.3667  0.4953
  120MOL0     N15759  -0.669   2.809   5.830 -0.1097  0.8423 -0.3904
  120MOL0     C15760   0.015   3.482   6.504 -1.0181 -0.2231 -0.9960
  120MOL0     C15761   0.113   3.493   6.595 -0.9869 -0.7219 -0.4930
  120MOL0     C15762   0.486   3.431   6.805 -0.2411  0.2392  0.2126
  120MOL0     C15763   0.479   3.369   6.933 -0.5926 -0.0159 -0.2331
  120MOL0     C15764   0.582   3.393   7.030 -0.2240  0.5176 -0.1845
  120MOL0     C15765   0.695   3.474   6.993 -0.0990  0.8498  0.2967
  120MOL0     O15766   0.802   3.487   7.077 -0.5962 -0.1208  0.4262
  120MOL0     C15767   0.782   3.470   7.220  0.0523 -0.4199  0.4589
  120MOL0     C15768   0.900   3.520   7.301 -0.2114 -0.1588  0.1011
  120MOL0     C15769   1.024   3.425   7.286  0.0494  0.4161  0.5831
  120MOL0     C15770   1.146   3.463   7.365  0.3489  0.1038  0.2815
  120MOL0     C15771   1.225   3.584   7.317 -0.1635  0.1578 -0.1659
  120MOL0     C15772   1.303   3.661   7.266 -0.2087 -0.2738  0.4482
  120MOL0     C15773   0.707   3.527   6.867 -0.5234  0.1304 -1.3917
  120MOL0     C15774   0.603   3.507   6.769  0.2158  0.8026 -0.7600
  120MOL0     H15775   0.117   3.170   6.704  2.2297  0.3328  0.1614
  120MOL0     H15776  -0.070   3.156   6.532 -1.4021  0.0450  2.8343
  120MOL0     H15777  -0.265   3.217   6.292  0.0822  0.1425  0.2232
  120MOL0     H15778  -0.098   3.156   6.322  0.6858  0.7858  1.9051
  120MOL0     H15779  -0.033   3.272   6.109  0.0580 -1.0278  2.6114
  120MOL0     H15780  -0.165   3.393   6.143 -1.0912 -0.6329  0.5010
  120MOL0     H15781  -0.214   3.259   5.953 -1.4719 -2.3906 -1.2193
  120MOL0     H15782  -0.336   3.228   6.085 -0.2423  2.7812 -0.1317
  120MOL0     H15783  -0.082   3.065   6.015  0.6700  1.4728  1.1970
  120MOL0     H15784  -0.200   3.018   6.141  3.1160  2.2189  0.8242
  120MOL0     H15785  -0.247   3.044   5.835  0.9092 -1.2742 -1.2340
  120MOL0     H15786  -0.374   3.013   5.957  1.0891 -0.9420  0.8219
  120MOL0     H15787  -0.277   2.803   6.009  0.4048  1.9343  1.6261
  120MOL0     H15788  -0.124   2.838   5.934  0.0364 -0.0129 -0.6043
  120MOL0     H15789  -0.222   2.818   5.711  1.1051 -0.1406  0.1942
  120MOL0     H15790  -0.277   2.674   5.800 -0.0917  0.6511  1.4572
  120MOL0     H15791  -0.447   2.791   5.640 -1.3641  1.1857  0.0834
  120MOL0     H15792  -0.447   2.932   5.743 -0.6780 -0.3614  0.0567
  120MOL0     H15793  -0.443   2.576   5.901 -0.4800 -0.4111  0.5206
  120MOL0     H15794  -0.645   2.496   6.117  1.6747 -2.1257  0.1488
  120MOL0     H15795  -0.637   2.406   5.965 -1.2220  0.1151  0.1909
  120MOL0     H15796  -0.884   2.489   5.922  0.7344  3.5106  0.3934
  120MOL0     H15797  -0.885   2.511   6.098 -0.4513 -1.7672  0.9391
  120MOL0     H15798  -0.959   2.277   6.040  0.8220 -1.9055  0.5654
  120MOL0     H15799  -0.787   2.244   5.988  2.1267  1.4688  0.0003
  120MOL0     H15800  -0.883   2.355   6.259 -4.3127 -2.1440 -1.3833
  120MOL0     H15801  -0.720   2.289   6.216  1.4859 -3.2671 -2.3398
  120MOL0     H15802  -0.963   1.923   6.199 -0.3903  1.4234 -2.0753
  120MOL0     H15803  -1.180   1.847   6.277 -2.0522  0.5527  1.5035
  120MOL0     H15804  -1.551   2.021   6.541  0.0207 -0.6367 -1.3710
  120MOL0     H15805  -1.728   1.962   6.695 -2.0077 -2.0878  0.7206
  120MOL0     H15806  -1.924   1.562   6.625  2.5214  2.1579 -0.6005
  120MOL0     H15807  -2.005   1.682   6.517 -0.1786  0.2448  0.2896
  120MOL0     H15808  -2.171   1.580   6.689  2.3471 -2.3164  2.6038
  120MOL0     H15809  -2.158   1.755   6.666 -0.1760  0.2229  0.4075
  120MOL0     H15810  -2.016   1.764   6.879 -2.3833  0.4212  2.7789
  120MOL0     H15811  -2.052   1.592   6.904  0.7953  2.3769  2.0636
  120MOL0     H15812  -2.222   1.846   6.923  3.2732  0.9571  3.7458
  120MOL0     H15813  -2.298   1.686   6.895  0.3685 -2.4911  0.8327
  120MOL0     H15814  -2.107   1.769   7.103 -0.7850 -0.9221  1.9252
  120MOL0     H15815  -2.171   1.607   7.111  0.3931 -0.9680  0.0686
  120MOL0     H15816  -2.340   1.864   7.133  2.9767  0.9620  1.9972
  120MOL0     H15817  -2.267   1.760   7.267  0.4860 -1.2993  0.2430
  120MOL0     H15818  -2.494   1.703   7.260 -0.4382  2.5784 -1.2394
  120MOL0     H15819  -2.494   1.712   7.082 -0.8572  1.9711  0.8238
  120MOL0     H15820  -2.369   1.485   7.240  1.1151 -0.1408 -0.4541
  120MOL0     H15821  -2.357   1.498   7.065 -0.0078 -3.2500  0.7872
  120MOL0     H15822  -1.783   1.613   6.464 -1.2468  0.9056  1.6301
  120MOL0     H15823  -1.554   1.659   6.346 -0.7407 -1.4380  0.0437
  120MOL0     H15824  -1.295   2.250   6.366  2.4017  2.4159 -0.4926
  120MOL0     H15825  -1.066   2.316   6.343  1.5675 -0.1080 -0.8998
  120MOL0     H15826  -0.020   3.566   6.445  1.9563  1.1614 -0.9731
  120MOL0     H15827   0.160   3.589   6.610  0.5109 -1.2290 -1.6989
  120MOL0     H15828   0.401   3.299   6.962  0.7663 -0.7226  2.0581
  120MOL0     H15829   0.569   3.334   7.120 -0.3178  1.7497  0.6330
  120MOL0     H15830   0.765   3.363   7.236 -0.0638 -0.7035 -1.3319
  120MOL0     H15831   0.692   3.519   7.257 -1.5701 -0.8954 -2.5622
  120MOL0     H15832   0.938   3.616   7.267  1.1252 -0.6989  0.0265
  120MOL0     H15833   0.871   3.523   7.406  3.1209 -1.3780  1.1715
  120MOL0     H15834   1.057   3.415   7.182 -1.7561  0.5619 -0.0301
  120MOL0     H15835   0.995   3.327   7.324  2.9756 -1.0128 -0.5255
  120MOL0     H15836   1.119   3.497   7.466  0.3826  1.8277 -0.2623
  120MOL0     H15837   1.207   3.374   7.382 -0.6241 -0.3682  1.4292
  120MOL0     H15838   1.363   3.737   7.221 -3.9359  2.3184 -0.6401
  120MOL0     H15839   0.798   3.579   6.839  0.4803 -0.5401  0.4702
  120MOL0     H15840   0.603   3.551   6.670  0.3609 -0.6655 -1.4342
  121MOL0     O15841   0.016   9.178  10.582  0.0389  0.2831  0.6500
  121MOL0     C15842  -0.048   9.269  10.632 -0.2354 -0.0287  0.5474
  121MOL0     O15843  -0.187   9.284  10.624  0.0424  0.1652 -0.2448
  121MOL0     C15844  -0.277   9.199  10.569 -0.7809 -0.1322  0.6667
  121MOL0     C15845  -0.245   9.067  10.509 -0.0812 -0.2862 -0.1449
  121MOL0     C15846  -0.354   9.001  10.441  0.1964 -0.4125 -0.1922
  121MOL0     C15847  -0.481   9.046  10.442 -0.1210 -0.0772 -0.4371
  121MOL0     O15848  -0.583   8.977  10.374  0.0149  0.4030  0.2267
  121MOL0     C15849  -0.723   9.003  10.416 -0.4270  0.0532  0.2889
  121MOL0     C15850  -0.803   8.895  10.340 -0.1310 -0.0217  0.3533
  121MOL0     C15851  -0.955   8.899  10.369 -0.5128 -0.2773  0.4151
  121MOL0     C15852  -1.036   8.804  10.287  0.0440 -0.2137 -0.8294
  121MOL0     C15853  -1.190   8.795  10.325  0.1879 -0.3432  0.0564
  121MOL0     C15854  -1.220   8.723  10.463  0.8248  0.1743  0.7578
  121MOL0     C15855  -1.361   8.653  10.456  0.2502 -0.0364  0.2437
  121MOL0     C15856  -1.476   8.736  10.485 -0.2571 -0.8154  0.3026
  121MOL0     N15857  -1.600   8.657  10.501 -0.4261  0.1054  0.0606
  121MOL0     C15858  -1.660   8.617  10.616  0.2421 -0.6330  0.4474
  121MOL0     C15859  -1.770   8.550  10.575  0.7315  0.6057  0.7373
  121MOL0     C15860  -1.870   8.480  10.660  1.2987 -0.0600  0.4116
  121MOL0     C15861  -1.920   8.571  10.756  0.1105  0.1978  0.4410
  121MOL0     C15862  -2.028   8.516  10.844  1.0704  0.5765 -0.4744
  121MOL0     C15863  -2.171   8.518  10.775 -0.1433 -0.1120  0.2129
  121MOL0     O15864  -2.252   8.442  10.862  0.3073  0.2645  0.1317
  121MOL0     C15865  -2.378   8.432  10.833 -0.5100  0.5632  0.3672
  121MOL0     C15866  -2.435   8.303  10.859  0.2466 -0.8401 -0.8046
  121MOL0     C15867  -2.571   8.278  10.823  0.6290  0.7082  0.5859
  121MOL0     C15868  -2.648   8.385  10.767  0.0813 -0.2353  0.2042
  121MOL0     C15869  -2.785   8.351  10.725 -0.6051  0.3541  0.1961
  121MOL0     O15870  -2.864   8.265  10.799  0.2545 -0.3951  0.0192
  121MOL0     C15871  -2.989   8.240  10.735 -0.1559  0.4599  1.1417
  121MOL0     C15872  -3.015   8.114  10.690  0.0424 -0.3276 -0.3182
  121MOL0     C15873  -3.131   8.078  10.629  1.1224 -0.0415  0.9592
  121MOL0     C15874  -3.234   8.169  10.626 -0.3518 -0.3185  0.6589
  121MOL0     O15875  -3.362   8.125  10.578  0.0526  0.1986 -0.2458
  121MOL0     C15876  -3.461   8.223  10.541  0.1920 -0.6240  0.8069
  121MOL0     C15877  -3.589   8.163  10.479 -0.3655 -0.2066 -0.2974
  121MOL0     C15878  -3.676   8.108  10.582 -0.2716  0.2576 -0.2592
  121MOL0     C15879  -3.813   8.104  10.527  0.1374 -0.3976  0.0997
  121MOL0     C15880  -3.916   8.075  10.637  0.4376 -0.0774  0.2952
  121MOL0     C15881  -4.060   8.088  10.582  0.5679  0.2266 -0.1503
  121MOL0     C15882  -4.180   8.081  10.675  0.2625 -0.8268  0.2056
  121MOL0     C15883  -4.309   8.107  10.613  0.8377 -0.6303 -0.3325
  121MOL0    Cl15884  -4.345   7.974  10.488 -0.1802 -0.3229  0.1688
  121MOL0     C15885  -3.216   8.301  10.685  0.1393 -0.1523 -0.4590
  121MOL0     C15886  -3.087   8.337  10.733  0.3689 -0.1031 -1.2161
  121MOL0     O15887  -2.815   8.403  10.618  0.4045 -0.5483  0.1169
  121MOL0     C15888  -2.595   8.509  10.751  0.1693  0.2854 -0.7093
  121MOL0     C15889  -2.463   8.529  10.782 -0.1955 -0.1552 -1.0105
  121MOL0     N15890  -1.771   8.564  10.430  0.2048 -0.5636  0.0947
  121MOL0     N15891  -1.665   8.621  10.386  0.6478  0.7036  0.0523
  121MOL0     C15892  -0.505   9.171  10.507 -0.1857 -0.2967 -0.5546
  121MOL0     C15893  -0.407   9.251  10.562  0.3410  0.2703  0.0211
  121MOL0     C15894   0.024   9.365  10.722  0.5580 -0.5183  0.2341
  121MOL0     C15895  -0.051   9.420  10.826  0.3379  0.9212  0.6268
  121MOL0     C15896   0.016   9.499  10.928 -0.3813  0.1035 -0.6942
  121MOL0     C15897   0.152   9.534  10.910  0.1349  0.5715 -0.2458
  121MOL0     O15898   0.213   9.623  10.994 -0.2655  0.0047  1.2428
  121MOL0     C15899   0.137   9.744  11.018  0.2692 -0.3839  0.5471
  121MOL0     C15900   0.214   9.879  11.033 -0.6876 -0.4804 -0.2364
  121MOL0     C15901   0.151   9.975  11.133  0.0283 -0.3469  0.3247
  121MOL0     C15902   0.043  10.065  11.067 -1.2235  0.1496  0.0885
  121MOL0     C15903   0.103  10.178  10.987  0.3841  0.1309 -0.9157
  121MOL0     C15904   0.147  10.276  10.931  1.1178  0.6457  0.0935
  121MOL0     C15905   0.225   9.478  10.810  0.4253 -0.4242  0.0144
  121MOL0     C15906   0.159   9.397  10.715 -0.0506  0.0994 -0.4135
  121MOL0     H15907  -0.144   9.036  10.487  1.1264  3.1041  0.0132
  121MOL0     H15908  -0.339   8.909  10.386  3.7484 -0.8565  1.2747
  121MOL0     H15909  -0.755   9.102  10.383  0.3457  0.5702  1.0337
  121MOL0     H15910  -0.736   9.004  10.525 -1.8711 -3.3683  0.2735
  121MOL0     H15911  -0.775   8.795  10.375 -2.4692 -0.2279  1.8584
  121MOL0     H15912  -0.791   8.914  10.234 -0.8657  2.0590  0.6003
  121MOL0     H15913  -0.995   8.999  10.349 -1.7386 -1.2165 -2.3185
  121MOL0     H15914  -0.973   8.875  10.475 -3.0860  0.4490  0.2138
  121MOL0     H15915  -1.028   8.830  10.181  0.5717  2.7400 -0.1488
  121MOL0     H15916  -0.986   8.710  10.311 -1.8603 -0.9428  0.6118
  121MOL0     H15917  -1.231   8.737  10.241 -0.7105 -1.5484  1.2875
  121MOL0     H15918  -1.237   8.893  10.325  1.6501  0.4286 -1.8555
  121MOL0     H15919  -1.214   8.781  10.555  0.3682 -0.9424  1.5069
  121MOL0     H15920  -1.144   8.649  10.488 -1.2024 -1.3868  2.6856
  121MOL0     H15921  -1.382   8.600  10.362 -1.2354 -2.9752  2.0881
  121MOL0     H15922  -1.351   8.569  10.526 -0.4529 -0.7590 -0.4992
  121MOL0     H15923  -1.486   8.780  10.385 -0.0489 -1.8945 -0.2013
  121MOL0     H15924  -1.463   8.807  10.568 -4.4075  1.1544 -0.4734
  121MOL0     H15925  -1.617   8.618  10.716 -0.5741  1.8570  0.8504
  121MOL0     H15926  -1.823   8.399  10.716  1.3667 -0.1485  0.2312
  121MOL0     H15927  -1.952   8.445  10.596  0.3009  0.4125  1.3999
  121MOL0     H15928  -1.956   8.659  10.702  4.0008  0.4002 -2.2606
  121MOL0     H15929  -1.838   8.604  10.821  1.8245 -1.5502 -0.7115
  121MOL0     H15930  -2.016   8.412  10.875  0.6518  0.4610 -0.6900
  121MOL0     H15931  -2.027   8.572  10.938  0.6151 -3.0462  1.8710
  121MOL0     H15932  -2.171   8.483  10.672 -0.3398 -0.0378  0.1877
  121MOL0     H15933  -2.206   8.621  10.770 -1.1416 -0.4878 -1.0408
  121MOL0     H15934  -2.374   8.224  10.900 -2.7290 -2.4112  0.9077
  121MOL0     H15935  -2.613   8.178  10.830 -2.4207  1.5759 -2.4518
  121MOL0     H15936  -2.950   8.026  10.691  0.4957 -0.0061  1.1915
  121MOL0     H15937  -3.145   7.973  10.606  0.6329  0.1670  0.2822
  121MOL0     H15938  -3.411   8.281  10.463 -3.8651 -0.3941 -1.9029
  121MOL0     H15939  -3.497   8.283  10.625 -0.5912  0.6465 -0.3773
  121MOL0     H15940  -3.559   8.071  10.428  0.6275 -1.4573  2.3529
  121MOL0     H15941  -3.631   8.243  10.418 -0.1879  0.1767  0.0762
  121MOL0     H15942  -3.677   8.162  10.677 -0.7369 -2.1804  1.2012
  121MOL0     H15943  -3.638   8.008  10.600 -0.5684  0.1305 -0.3329
  121MOL0     H15944  -3.835   8.205  10.490 -1.2813 -0.7345 -0.0495
  121MOL0     H15945  -3.829   8.034  10.444 -0.2782  1.5264 -1.5128
  121MOL0     H15946  -3.904   8.159  10.707  0.4017 -0.7512  1.1323
  121MOL0     H15947  -3.909   7.976  10.681 -1.3305  0.3257  1.6091
  121MOL0     H15948  -4.070   8.010  10.506  0.0105  0.6461 -0.5206
  121MOL0     H15949  -4.071   8.184  10.531  1.2706  0.9374  1.0063
  121MOL0     H15950  -4.187   7.985  10.727 -1.4167 -0.4271  0.7782
  121MOL0     H15951  -4.161   8.162  10.746 -0.4880  0.4776 -1.0439
  121MOL0     H15952  -4.316   8.209  10.574  0.5881 -0.1840  0.8346
  121MOL0     H15953  -4.387   8.105  10.690 -0.8859 -1.5013 -2.0198
  121MOL0     H15954  -3.296   8.370  10.710 -0.4910 -0.8138 -0.6300
  121MOL0     H15955  -3.063   8.437  10.766  0.7344 -0.5453 -0.0748
  121MOL0     H15956  -2.661   8.590  10.721  1.1531  1.3930  0.0251
  121MOL0     H15957  -2.425   8.630  10.770  1.1687 -0.2031  2.0156
  121MOL0     H15958  -0.602   9.220  10.502 -0.0805  0.0278  0.2737
  121MOL0     H15959  -0.434   9.348  10.603 -2.0833  0.4911 -1.8103
  121MOL0     H15960  -0.156   9.396  10.844  0.8777 -1.7904  0.5956
  121MOL0     H15961  -0.027   9.545  11.017 -1.0422 -1.9041  0.0889
  121MOL0     H15962   0.074   9.737  11.107  0.9856 -1.1088  1.0024
  121MOL0     H15963   0.066   9.760  10.936 -1.2941  1.2604  2.1058
  121MOL0     H15964   0.307   9.854  11.085 -0.0125  1.8621 -0.1780
  121MOL0     H15965   0.230   9.936  10.941 -0.4795  1.2336  0.8088
  121MOL0     H15966   0.227  10.037  11.181  0.0373 -2.6360  3.5825
  121MOL0     H15967   0.108   9.920  11.216 -0.5094 -0.2621  0.1076
  121MOL0     H15968  -0.020  10.010  10.997  1.2246 -1.8163 -0.7309
  121MOL0     H15969  -0.008  10.124  11.143  1.3769  2.0779  0.4934
  121MOL0     H15970   0.198  10.361  10.891  0.0564  0.8488 -0.8523
  121MOL0     H15971   0.331   9.501  10.799  0.3412 -0.1346 -0.2050
  121MOL0     H15972   0.206   9.360  10.624 -2.5796 -2.2701 -0.8991
  122MOL0     O15973   4.008   3.815   9.537  0.6414 -0.1106  0.7033
  122MOL0     C15974   3.946   3.825   9.644  0.3981 -0.7335 -0.1576
  122MOL0     O15975   4.002   3.860   9.762 -0.8958  0.0643 -0.4732
  122MOL0     C15976   4.123   3.934   9.753  0.6567 -0.6236  0.0158
  122MOL0     C15977   4.237   3.884   9.695 -0.7848  1.0922  0.6304
  122MOL0     C15978   4.363   3.957   9.687  0.3943 -0.2290 -0.1601
  122MOL0     C15979   4.366   4.086   9.745 -0.1589 -0.2625 -0.0946
  122MOL0     O15980   4.484   4.159   9.743 -0.2507  0.7609  0.1862
  122MOL0     C15981   4.620   4.097   9.737 -0.9436  0.3785  0.2889
  122MOL0     C15982   4.729   4.214   9.747  0.2030 -0.4896 -0.4685
  122MOL0     C15983   4.861   4.155   9.789 -0.2192  0.6169 -0.1747
  122MOL0     C15984   4.964   4.264   9.806 -0.3018  0.5449  0.7217
  122MOL0     C15985   5.103   4.209   9.838  0.0099 -0.7040 -0.2464
  122MOL0     C15986   5.204   4.322   9.834 -0.2871 -0.3837  0.7522
  122MOL0     C15987   5.346   4.279   9.851 -0.6613  1.2164 -0.1435
  122MOL0     C15988   5.446   4.387   9.856  0.3704  0.3996 -0.0757
  122MOL0     N15989   5.590   4.346   9.852  0.2992  0.0135 -0.5369
  122MOL0     C15990   5.654   4.277   9.949 -0.1192 -0.1597 -0.3005
  122MOL0     C15991   5.786   4.275   9.901  0.3613  0.0912 -0.6811
  122MOL0     C15992   5.890   4.193   9.962 -0.4400 -1.1604  0.7491
  122MOL0     C15993   5.949   4.249  10.096  0.7077  0.3426  0.1835
  122MOL0     C15994   5.836   4.272  10.204  0.3164  0.5944 -0.6404
  122MOL0     C15995   5.892   4.288  10.345 -0.2535  0.5273 -0.5052
  122MOL0     O15996   5.987   4.393  10.363  0.0249  0.2587  0.3667
  122MOL0     C15997   6.033   4.418  10.491 -0.7917 -0.2540  0.4194
  122MOL0     C15998   6.096   4.537  10.516 -0.2534  0.1607  0.0855
  122MOL0     C15999   6.185   4.548  10.626 -0.3832  0.4493 -0.6175
  122MOL0     C16000   6.197   4.450  10.722  0.4118  0.4662  0.0533
  122MOL0     C16001   6.276   4.467  10.845  0.5368  0.7044 -0.2126
  122MOL0     O16002   6.319   4.590  10.888 -0.3320 -0.6199 -0.1822
  122MOL0     C16003   6.406   4.591  11.003  0.2267  0.8720  0.2304
  122MOL0     C16004   6.374   4.563  11.135  0.0845 -0.1317  0.1050
  122MOL0     C16005   6.467   4.560  11.239 -0.3835 -1.4737 -0.3737
  122MOL0     C16006   6.597   4.610  11.210 -0.0791  0.2894 -0.0656
  122MOL0     O16007   6.708   4.609  11.292  0.6629 -0.5979  0.1448
  122MOL0     C16008   6.702   4.518  11.400 -0.0198  0.5004 -0.2320
  122MOL0     C16009   6.815   4.552  11.494  0.3249  0.1332 -0.5943
  122MOL0     C16010   6.944   4.503  11.445  0.4087 -0.7503 -0.6536
  122MOL0     C16011   6.956   4.350  11.435 -0.2778 -0.1135  0.1865
  122MOL0     C16012   7.104   4.321  11.457  0.0395  0.1976 -0.1249
  122MOL0     C16013   7.157   4.182  11.410  0.2742 -0.4209 -0.4329
  122MOL0     C16014   7.084   4.053  11.468  0.2783 -0.6625 -0.1319
  122MOL0     C16015   7.160   3.936  11.402 -0.3592 -0.0048  0.2235
  122MOL0    Cl16016   7.104   3.796  11.497  0.5674 -0.0801 -0.4059
  122MOL0     C16017   6.627   4.647  11.081 -0.2195 -0.4852 -1.1001
  122MOL0     C16018   6.535   4.629  10.980 -0.6087 -0.0440 -0.1054
  122MOL0     O16019   6.311   4.359  10.886  0.7440  0.4383  0.1634
  122MOL0     C16020   6.116   4.334  10.705  0.6142  0.3861  0.9781
  122MOL0     C16021   6.033   4.322  10.596 -0.5529 -0.2769  0.6152
  122MOL0     N16022   5.795   4.345   9.785 -0.5509 -0.4377 -0.3860
  122MOL0     N16023   5.676   4.374   9.749 -0.1169  0.0333  0.1062
  122MOL0     C16024   4.249   4.130   9.813 -0.1644  0.1490 -0.1896
  122MOL0     C16025   4.129   4.053   9.821 -0.1679  0.0075 -0.5315
  122MOL0     C16026   3.800   3.805   9.648 -0.7038 -0.3531 -0.5121
  122MOL0     C16027   3.732   3.764   9.522  0.2821 -0.4884  0.1561
  122MOL0     C16028   3.596   3.782   9.518  0.0096  0.0180  0.4820
  122MOL0     C16029   3.521   3.804   9.630  0.3128  0.7215 -1.0530
  122MOL0     O16030   3.384   3.799   9.623 -0.1031  0.7389  0.4648
  122MOL0     C16031   3.328   3.905   9.541  0.5303  0.8685  0.1297
  122MOL0     C16032   3.179   3.893   9.540  0.4082 -0.0910 -0.0576
  122MOL0     C16033   3.121   3.979   9.662  0.2883  0.1877  0.3680
  122MOL0     C16034   2.959   3.973   9.653 -0.7609 -0.1864  0.0608
  122MOL0     C16035   2.897   4.104   9.697 -0.1076  0.4854  0.9172
  122MOL0     C16036   2.836   4.201   9.734  0.2304  0.1548  0.1474
  122MOL0     C16037   3.582   3.837   9.752 -0.1763  1.1192  0.8457
  122MOL0     C16038   3.720   3.846   9.758 -0.7356 -0.2499  0.3165
  122MOL0     H16039   4.235   3.785   9.650  1.8843  1.6764 -0.9882
  122MOL0     H16040   4.446   3.903   9.642 -2.1936 -2.0369 -3.2162
  122MOL0     H16041   4.632   4.026   9.655  1.1311 -1.2435  1.8723
  122MOL0     H16042   4.627   4.042   9.831 -1.6593  2.8779  1.8801
  122MOL0     H16043   4.698   4.301   9.806  2.0982 -0.0831  0.0115
  122MOL0     H16044   4.740   4.259   9.648 -0.6626  0.5763 -0.0994
  122MOL0     H16045   4.903   4.083   9.718  2.1218 -0.1146  1.7901
  122MOL0     H16046   4.854   4.101   9.883  1.1340 -0.8500 -0.8757
  122MOL0     H16047   4.968   4.312   9.707  1.7827  1.4844  1.2107
  122MOL0     H16048   4.915   4.331   9.877 -0.3014 -0.8739  2.1109
  122MOL0     H16049   5.136   4.142   9.758  2.1768  0.7361 -0.6711
  122MOL0     H16050   5.109   4.156   9.933  3.3450  1.1709  0.7665
  122MOL0     H16051   5.178   4.390   9.916 -0.3078  1.3958 -0.6788
  122MOL0     H16052   5.192   4.373   9.739 -2.5810 -1.8413  0.1818
  122MOL0     H16053   5.356   4.216   9.940 -0.0873  0.7045 -0.5644
  122MOL0     H16054   5.370   4.215   9.766 -1.5093  0.2938  0.2904
  122MOL0     H16055   5.426   4.441   9.949 -0.5944 -0.8294  0.4600
  122MOL0     H16056   5.431   4.455   9.772 -3.6297 -2.6586 -2.1843
  122MOL0     H16057   5.609   4.227  10.034  1.4219 -0.3032  0.4722
  122MOL0     H16058   5.974   4.180   9.894 -1.1501  0.9524 -0.6255
  122MOL0     H16059   5.848   4.093   9.976 -1.7541 -0.7003  0.2650
  122MOL0     H16060   5.991   4.348  10.078  1.5647 -0.1742 -0.7393
  122MOL0     H16061   6.032   4.188  10.133  0.0332 -0.9669 -0.4108
  122MOL0     H16062   5.782   4.363  10.178 -2.9895 -1.6980 -2.4659
  122MOL0     H16063   5.774   4.182  10.198  1.9631 -0.4747 -3.5628
  122MOL0     H16064   5.940   4.192  10.367 -0.8384  0.6790  1.6989
  122MOL0     H16065   5.809   4.294  10.416  0.4697 -1.4834  0.5995
  122MOL0     H16066   6.101   4.620  10.447  0.0037 -1.3337 -1.7685
  122MOL0     H16067   6.243   4.640  10.632  2.2589 -1.1791  1.0195
  122MOL0     H16068   6.273   4.530  11.157 -0.2069 -0.6474 -1.7898
  122MOL0     H16069   6.419   4.537  11.334  3.4523 -0.6592  1.9521
  122MOL0     H16070   6.700   4.418  11.355  1.8370  0.6362 -0.6698
  122MOL0     H16071   6.614   4.524  11.465  1.2014  0.1878  1.5097
  122MOL0     H16072   6.785   4.515  11.592  1.9996  0.0245 -0.0976
  122MOL0     H16073   6.815   4.661  11.505 -2.5027  0.0532  1.2648
  122MOL0     H16074   7.017   4.538  11.518 -0.8985 -1.2530  0.9583
  122MOL0     H16075   6.965   4.550  11.348 -1.9911 -1.6460 -1.6742
  122MOL0     H16076   6.897   4.308  11.517  1.6487 -0.2557  1.5657
  122MOL0     H16077   6.915   4.318  11.339 -2.5653  0.7297  0.8057
  122MOL0     H16078   7.111   4.312  11.566 -1.2598  0.3326 -0.0087
  122MOL0     H16079   7.167   4.399  11.413 -0.3104  1.9534  2.2706
  122MOL0     H16080   7.261   4.177  11.444  0.6401 -3.9071 -1.7322
  122MOL0     H16081   7.156   4.183  11.301 -1.0598 -0.2536 -0.4427
  122MOL0     H16082   7.105   4.052  11.575 -0.7739 -1.9953  0.0948
  122MOL0     H16083   6.976   4.060  11.451  0.3556  0.4441 -0.2444
  122MOL0     H16084   7.267   3.934  11.426 -0.3080 -0.9320 -0.0701
  122MOL0     H16085   7.145   3.923  11.294 -0.0165 -4.9517  0.5635
  122MOL0     H16086   6.724   4.692  11.065 -0.4959  3.4203  4.9943
  122MOL0     H16087   6.564   4.654  10.878  0.0497  2.4059  0.6198
  122MOL0     H16088   6.108   4.253  10.776 -0.3955  0.7201  1.2572
  122MOL0     H16089   5.981   4.228  10.591  0.0987 -0.6077 -0.4113
  122MOL0     H16090   4.255   4.226   9.864  2.0683  0.4680 -0.9605
  122MOL0     H16091   4.047   4.089   9.881 -0.2587 -1.7431  0.4658
  122MOL0     H16092   3.787   3.736   9.433 -2.0255  1.1883 -1.9112
  122MOL0     H16093   3.547   3.756   9.424 -1.1276  0.0715  1.0525
  122MOL0     H16094   3.356   3.891   9.436 -3.2174  2.8506 -1.3137
  122MOL0     H16095   3.367   4.002   9.573  1.2176  1.0699 -1.2228
  122MOL0     H16096   3.150   3.940   9.446 -1.4194  0.6271  0.8088
  122MOL0     H16097   3.139   3.792   9.526  1.5896 -0.2869 -2.6451
  122MOL0     H16098   3.163   4.080   9.653  2.2104 -0.6955 -1.8192
  122MOL0     H16099   3.157   3.926   9.751  3.8230 -0.1496 -1.0987
  122MOL0     H16100   2.924   3.941   9.555 -1.4614 -0.6271  0.4462
  122MOL0     H16101   2.924   3.902   9.728  1.9170 -0.2401  1.4162
  122MOL0     H16102   2.794   4.293   9.769 -1.2705  0.0076 -1.1288
  122MOL0     H16103   3.508   3.857   9.829  0.0863  0.5913  1.2442
  122MOL0     H16104   3.757   3.888   9.851 -0.2393 -1.4696  0.6920
  123MOL0     O16105   2.054   9.716   9.334  0.1076 -0.0341  0.1719
  123MOL0     C16106   2.158   9.726   9.397  0.8164 -0.9797  0.6663
  123MOL0     O16107   2.177   9.801   9.513 -0.0546  0.3045  0.6843
  123MOL0     C16108   2.084   9.824   9.608 -0.0918  0.1252  0.2469
  123MOL0     C16109   1.948   9.842   9.585 -1.2718  0.4228 -0.0582
  123MOL0     C16110   1.860   9.855   9.689 -0.2771 -0.1250 -0.2886
  123MOL0     C16111   1.893   9.861   9.827 -0.1180  0.4235 -0.7366
  123MOL0     O16112   1.793   9.894   9.921  0.0665  0.2480 -0.0893
  123MOL0     C16113   1.825   9.881  10.053  0.3025  0.0186  0.3229
  123MOL0     C16114   1.689   9.891  10.118  0.0098 -0.5896  0.7766
  123MOL0     C16115   1.589   9.773  10.105 -0.3790 -0.4616  0.5262
  123MOL0     C16116   1.504   9.777   9.973  0.4971  0.0302  0.1608
  123MOL0     C16117   1.410   9.653   9.961 -0.0997 -0.0973 -0.1001
  123MOL0     C16118   1.330   9.646   9.836  0.6147  0.5651  0.3067
  123MOL0     C16119   1.255   9.509   9.832  0.5635  0.4277  0.2932
  123MOL0     C16120   1.167   9.508   9.701 -0.1784  0.1225  0.0282
  123MOL0     N16121   1.084   9.626   9.682  0.1058  0.1932  0.0950
  123MOL0     C16122   1.117   9.730   9.594 -0.3654 -0.3784  0.0936
  123MOL0     C16123   1.031   9.836   9.627 -0.2781  0.4700 -0.5499
  123MOL0     C16124   1.033   9.971   9.556  0.5071  0.0690  0.0085
  123MOL0     C16125   0.880  10.010   9.524 -0.5628  1.2784 -0.0538
  123MOL0     C16126   0.861  10.165   9.483 -0.5257  0.0818 -0.8300
  123MOL0     C16127   0.724  10.208   9.418  0.1505  0.2985  0.4526
  123MOL0     O16128   0.618  10.170   9.508 -1.0954  0.1666 -0.7499
  123MOL0     C16129   0.561  10.269   9.588 -0.5053  0.3808 -0.5183
  123MOL0     C16130   0.624  10.396   9.632 -0.1525  1.3079  0.3044
  123MOL0     C16131   0.556  10.485   9.717  0.1258  0.8749  0.2204
  123MOL0     C16132   0.419  10.469   9.753 -0.2310 -0.3162  0.8481
  123MOL0     C16133   0.330  10.565   9.831  0.6648 -0.0948  0.0714
  123MOL0     O16134   0.198  10.529   9.829 -0.7167  0.3314 -0.3954
  123MOL0     C16135   0.090  10.593   9.880  0.2333 -0.7470 -0.0184
  123MOL0     C16136   0.091  10.682   9.989  0.8946 -0.2575 -0.4592
  123MOL0     C16137  -0.036  10.730  10.030  0.7316  0.1381 -0.3614
  123MOL0     C16138  -0.159  10.710   9.965 -1.0110 -0.6205 -0.0969
  123MOL0     O16139  -0.283  10.756  10.002  0.7519 -0.6425 -1.3617
  123MOL0     C16140  -0.304  10.879  10.076  0.6637 -0.4063 -0.8022
  123MOL0     C16141  -0.443  10.919  10.119  0.5544  0.3588 -0.6453
  123MOL0     C16142  -0.500  11.011  10.005  0.0167  0.5540 -0.3713
  123MOL0     C16143  -0.622  11.108  10.046 -1.4502 -1.1042  0.3682
  123MOL0     C16144  -0.675  11.206   9.938 -0.0540 -0.2197  0.6780
  123MOL0     C16145  -0.794  11.287   9.994  0.1325  0.4890 -0.6267
  123MOL0     C16146  -0.846  11.383   9.878 -0.2255  0.7563 -0.3090
  123MOL0     C16147  -0.965  11.481   9.913  0.5405 -0.1535  0.5672
  123MOL0    Cl16148  -0.888  11.604  10.031 -0.3869 -0.0136  0.2823
  123MOL0     C16149  -0.150  10.621   9.859  0.2382 -0.8063  0.7038
  123MOL0     C16150  -0.035  10.568   9.817 -0.5879  0.7756  0.5945
  123MOL0     O16151   0.372  10.657   9.895 -0.2135  0.3642 -0.1206
  123MOL0     C16152   0.363  10.345   9.707  0.2149 -0.4065  0.5421
  123MOL0     C16153   0.433  10.247   9.635 -1.3441 -0.2664 -0.0203
  123MOL0     N16154   0.951   9.790   9.728  0.0121  0.0013  0.1144
  123MOL0     N16155   0.990   9.674   9.765  0.3005  0.8483 -0.2896
  123MOL0     C16156   2.032   9.829   9.856 -0.5799 -0.2549  0.7156
  123MOL0     C16157   2.123   9.815   9.746 -0.9075  0.4316  0.0483
  123MOL0     C16158   2.274   9.680   9.315 -0.7904 -0.2086 -1.0363
  123MOL0     C16159   2.407   9.724   9.362 -0.1085  0.4071 -0.2922
  123MOL0     C16160   2.518   9.678   9.287  0.5316  0.6433 -0.4169
  123MOL0     C16161   2.506   9.595   9.171 -0.3773  0.1771 -1.2560
  123MOL0     O16162   2.616   9.561   9.093 -0.1399  0.9983 -0.8177
  123MOL0     C16163   2.745   9.625   9.121 -1.0422  0.3145 -0.1276
  123MOL0     C16164   2.847   9.588   9.006  0.2432  0.0689 -0.1273
  123MOL0     C16165   2.862   9.446   8.975  0.3202  0.0342 -0.8296
  123MOL0     C16166   2.914   9.413   8.837 -0.1125  0.1481 -0.1932
  123MOL0     C16167   3.048   9.473   8.815 -0.2647 -0.5297  0.0184
  123MOL0     C16168   3.157   9.518   8.798 -0.2344  0.8282  0.4290
  123MOL0     C16169   2.380   9.558   9.135  0.3031  0.1193  0.0503
  123MOL0     C16170   2.270   9.599   9.198  0.9953 -0.9300 -0.0362
  123MOL0     H16171   1.905   9.851   9.486 -3.5097  0.1298  0.8279
  123MOL0     H16172   1.754   9.865   9.666 -0.7172  1.2476  2.0650
  123MOL0     H16173   1.890   9.966  10.079 -0.5903  0.2241  2.0451
  123MOL0     H16174   1.884   9.795  10.086 -1.0228 -0.6710  0.9970
  123MOL0     H16175   1.629   9.970  10.074  0.8884 -1.3328 -1.9305
  123MOL0     H16176   1.695   9.910  10.226 -0.1186  3.5932  0.1765
  123MOL0     H16177   1.515   9.788  10.184 -1.0490 -0.3544 -0.1084
  123MOL0     H16178   1.642   9.678  10.112 -3.7081 -2.4834  0.2978
  123MOL0     H16179   1.443   9.867   9.981  0.0322 -0.2081 -0.6076
  123MOL0     H16180   1.567   9.785   9.883  1.8874  2.5964  1.2262
  123MOL0     H16181   1.361   9.646  10.059 -2.5957  0.2091 -1.2417
  123MOL0     H16182   1.475   9.566   9.952  0.8754  0.4832  1.0690
  123MOL0     H16183   1.388   9.649   9.744 -2.1212  0.6054 -1.5342
  123MOL0     H16184   1.258   9.728   9.836  0.9087  0.8649 -1.6157
  123MOL0     H16185   1.324   9.426   9.847  1.8860  1.7045  1.5095
  123MOL0     H16186   1.185   9.509   9.916  1.6250 -0.9760  1.2115
  123MOL0     H16187   1.099   9.424   9.721 -0.4932  0.2647 -0.4273
  123MOL0     H16188   1.238   9.495   9.619  0.8332  0.5571  0.8077
  123MOL0     H16189   1.201   9.724   9.524 -1.2309 -0.4207 -0.9731
  123MOL0     H16190   1.092   9.969   9.464  1.0075  2.5118  0.2245
  123MOL0     H16191   1.077  10.042   9.627  1.3414 -2.7926  2.5777
  123MOL0     H16192   0.814   9.984   9.607  0.6275 -2.4912 -0.0716
  123MOL0     H16193   0.838   9.945   9.446 -1.2645  4.7394 -2.8172
  123MOL0     H16194   0.875  10.225   9.574 -3.3448 -2.2210  1.3263
  123MOL0     H16195   0.941  10.191   9.413  2.4554 -1.0602  1.8522
  123MOL0     H16196   0.715  10.150   9.326  1.2032 -0.0631  0.5687
  123MOL0     H16197   0.734  10.316   9.404  1.6143 -0.0153 -1.2660
  123MOL0     H16198   0.731  10.404   9.612  0.5505  0.5522  3.2257
  123MOL0     H16199   0.608  10.574   9.750  0.2988  0.1914  1.8474
  123MOL0     H16200   0.183  10.702  10.043  1.1076 -0.7643 -0.6239
  123MOL0     H16201  -0.021  10.798  10.114 -0.5710 -2.1114  1.8239
  123MOL0     H16202  -0.256  10.961  10.020  0.7664 -0.1567 -0.3524
  123MOL0     H16203  -0.247  10.868  10.169  1.6868 -1.9400 -1.5613
  123MOL0     H16204  -0.427  10.964  10.217 -2.8840  0.3600  0.0490
  123MOL0     H16205  -0.510  10.834  10.134  0.9868  0.3790  1.6804
  123MOL0     H16206  -0.545  10.944   9.931 -1.0558 -1.0631  1.6391
  123MOL0     H16207  -0.424  11.081   9.969 -0.1147 -0.1025 -1.9785
  123MOL0     H16208  -0.710  11.053  10.082 -0.8650 -0.9503  2.1184
  123MOL0     H16209  -0.584  11.166  10.131 -1.4096 -1.2350  0.4400
  123MOL0     H16210  -0.700  11.152   9.847  1.0739 -1.5730  1.1145
  123MOL0     H16211  -0.588  11.264   9.905  0.5292 -1.7295 -0.5612
  123MOL0     H16212  -0.770  11.353  10.078 -1.9490 -0.0024  0.4194
  123MOL0     H16213  -0.874  11.218  10.023  0.4383  0.0062 -0.9373
  123MOL0     H16214  -0.757  11.443   9.855  1.3919 -0.7002  1.6971
  123MOL0     H16215  -0.866  11.328   9.786 -2.3514  0.5437  0.2362
  123MOL0     H16216  -1.052  11.426   9.950  0.6152  0.5819  1.8914
  123MOL0     H16217  -0.994  11.536   9.823 -2.7321 -3.0407 -0.3614
  123MOL0     H16218  -0.243  10.588   9.814  1.5488 -0.9908 -2.0501
  123MOL0     H16219  -0.038  10.508   9.727  1.6576  1.0121  0.3074
  123MOL0     H16220   0.260  10.323   9.731  1.0222 -2.1063  2.7699
  123MOL0     H16221   0.384  10.156   9.603 -0.8375 -0.8656  0.8511
  123MOL0     H16222   2.083   9.811   9.950 -0.0186 -2.5562  0.0460
  123MOL0     H16223   2.227   9.789   9.764 -1.0970  0.3294  1.0304
  123MOL0     H16224   2.420   9.780   9.454 -2.2326 -0.0223  0.3309
  123MOL0     H16225   2.618   9.697   9.323  0.7051  0.3852 -0.7510
  123MOL0     H16226   2.792   9.593   9.215  0.8218 -0.1276 -1.1704
  123MOL0     H16227   2.726   9.733   9.119 -1.2199  0.3645  1.8382
  123MOL0     H16228   2.807   9.643   8.920 -2.3683  1.2540  1.7054
  123MOL0     H16229   2.943   9.626   9.041  1.1828 -3.5662  1.7589
  123MOL0     H16230   2.773   9.387   8.994  0.2807  0.5136  0.5422
  123MOL0     H16231   2.934   9.407   9.047 -0.1067  1.2143  0.2853
  123MOL0     H16232   2.918   9.304   8.828  0.2189  0.3009 -2.5241
  123MOL0     H16233   2.849   9.435   8.752  1.1147  0.5405 -1.0528
  123MOL0     H16234   3.260   9.548   8.793  0.6192 -1.9367 -2.1323
  123MOL0     H16235   2.384   9.492   9.049  3.1803  1.7116 -1.2083
  123MOL0     H16236   2.170   9.566   9.172 -0.4164  2.6645  0.1634
  124MOL0     O16237   3.477   1.459  10.618 -0.1991 -0.7752  0.2302
  124MOL0     C16238   3.436   1.405  10.716 -0.4959 -0.0440  1.2115
  124MOL0     O16239   3.515   1.345  10.815  0.6233  0.0838 -0.3515
  124MOL0     C16240   3.652   1.337  10.804  0.0680  0.5035  0.0996
  124MOL0     C16241   3.728   1.449  10.776 -0.6581  0.2722 -0.6247
  124MOL0     C16242   3.866   1.442  10.798 -0.0833  0.5753  0.4440
  124MOL0     C16243   3.924   1.316  10.841 -0.3487  0.1363 -0.1904
  124MOL0     O16244   4.062   1.306  10.852  0.7380  0.9281  0.3756
  124MOL0     C16245   4.130   1.414  10.917  0.2945  0.4859 -0.2357
  124MOL0     C16246   4.264   1.368  10.964 -0.2810  0.3427  0.2476
  124MOL0     C16247   4.358   1.351  10.837 -0.1274 -0.4783 -0.5938
  124MOL0     C16248   4.504   1.331  10.898  0.0482  0.5311  0.7340
  124MOL0     C16249   4.582   1.247  10.795 -0.4973 -0.5999  1.1183
  124MOL0     C16250   4.734   1.291  10.801 -0.3704 -0.2203 -1.3030
  124MOL0     C16251   4.811   1.198  10.908  0.3906 -0.2191  0.9000
  124MOL0     C16252   4.962   1.211  10.905 -0.0211 -0.5728 -0.5060
  124MOL0     N16253   5.020   1.107  10.987  0.0513 -0.4736  0.5557
  124MOL0     C16254   5.036   1.098  11.120 -0.1117 -0.6313 -0.3355
  124MOL0     C16255   5.108   0.989  11.144 -0.5271  0.6691 -0.5877
  124MOL0     C16256   5.141   0.938  11.290  0.5694 -0.3773 -1.4604
  124MOL0     C16257   5.012   0.953  11.382  0.1171 -0.2172  0.0278
  124MOL0     C16258   5.033   0.912  11.535 -0.1928 -0.0347 -0.4904
  124MOL0     C16259   5.177   0.875  11.571  0.7880  0.1898  0.3727
  124MOL0     O16260   5.196   0.866  11.711 -0.5544  0.1932 -0.6813
  124MOL0     C16261   5.319   0.814  11.748 -0.6993 -0.7343 -0.1931
  124MOL0     C16262   5.318   0.755  11.874  0.1394 -0.1186 -0.2780
  124MOL0     C16263   5.437   0.698  11.925 -0.4431  1.6189  0.6244
  124MOL0     C16264   5.560   0.703  11.858  1.2073  0.2170  0.1074
  124MOL0     C16265   5.676   0.647  11.910  0.5189  0.2822  0.4752
  124MOL0     O16266   5.662   0.600  12.040 -0.5723 -0.2083 -0.0335
  124MOL0     C16267   5.776   0.556  12.100 -0.2384  0.3956 -0.0100
  124MOL0     C16268   5.861   0.650  12.161  0.5241 -0.1005  0.2768
  124MOL0     C16269   5.975   0.606  12.238  0.2243 -0.7632 -0.0472
  124MOL0     C16270   6.001   0.472  12.256 -0.5819 -0.1712  0.0211
  124MOL0     O16271   6.098   0.417  12.339  0.2786 -0.3738  0.0405
  124MOL0     C16272   6.207   0.503  12.394  0.1231  0.1528  0.0894
  124MOL0     C16273   6.327   0.509  12.297  0.4635 -0.9843  0.5723
  124MOL0     C16274   6.439   0.607  12.345 -0.7162 -0.3383 -0.1564
  124MOL0     C16275   6.494   0.568  12.478  0.3082 -0.0495  0.2335
  124MOL0     C16276   6.603   0.652  12.526  0.4896 -0.4058 -0.5927
  124MOL0     C16277   6.730   0.631  12.449  0.7088  0.0043 -0.1137
  124MOL0     C16278   6.851   0.693  12.519 -0.0136  0.2331  0.4451
  124MOL0     C16279   6.978   0.680  12.437  0.4301  1.0180  0.8720
  124MOL0    Cl16280   7.124   0.736  12.511  0.1456 -0.1477  0.1300
  124MOL0     C16281   5.909   0.377  12.202  0.1933 -0.3942  0.6659
  124MOL0     C16282   5.795   0.422  12.121 -0.5763  0.2599 -0.2973
  124MOL0     O16283   5.774   0.634  11.842  0.2455 -0.1484  0.1710
  124MOL0     C16284   5.559   0.775  11.740 -0.2829 -0.4706  0.7528
  124MOL0     C16285   5.441   0.819  11.672  0.5330 -0.2565 -0.1559
  124MOL0     N16286   5.147   0.937  11.020  0.6035  0.7543 -0.3570
  124MOL0     N16287   5.095   1.011  10.933  0.1452  0.0426  0.1718
  124MOL0     C16288   3.849   1.214  10.883  0.1428 -0.6014 -0.2117
  124MOL0     C16289   3.709   1.222  10.858  0.8458  0.5794  0.2695
  124MOL0     C16290   3.290   1.383  10.707  0.1371  0.2466 -0.0902
  124MOL0     C16291   3.216   1.381  10.825 -0.7303  0.4590 -0.0702
  124MOL0     C16292   3.086   1.332  10.820  0.1709 -0.6675  0.0429
  124MOL0     C16293   3.024   1.302  10.700 -0.4458 -0.1859 -0.2063
  124MOL0     O16294   2.894   1.258  10.691 -0.6356 -0.7450  0.1313
  124MOL0     C16295   2.798   1.257  10.800 -0.4086  0.1503  0.9058
  124MOL0     C16296   2.668   1.243  10.734 -0.2068 -0.4094  0.3673
  124MOL0     C16297   2.623   1.095  10.702  0.0501  0.6491 -0.3727
  124MOL0     C16298   2.478   1.079  10.647  0.5787  0.4423 -0.4808
  124MOL0     C16299   2.385   1.143  10.741  0.6848 -0.7390  0.4265
  124MOL0     C16300   2.297   1.197  10.809 -0.7875 -0.6633 -0.6465
  124MOL0     C16301   3.096   1.313  10.575 -0.2377 -0.0789  0.5401
  124MOL0     C16302   3.232   1.342  10.584  0.1176 -0.1785 -0.6514
  124MOL0     H16303   3.687   1.531  10.718 -0.0190  1.1903  0.1871
  124MOL0     H16304   3.927   1.530  10.782  0.6951 -0.2774 -1.4816
  124MOL0     H16305   4.077   1.463  10.999 -0.2843  0.2373 -0.4567
  124MOL0     H16306   4.131   1.493  10.841  0.4332 -0.4532 -1.2273
  124MOL0     H16307   4.260   1.268  11.009  0.4121 -0.2024 -0.8510
  124MOL0     H16308   4.312   1.425  11.044 -0.7579  0.3221  0.5514
  124MOL0     H16309   4.353   1.433  10.765 -1.5002 -0.5788 -0.6279
  124MOL0     H16310   4.327   1.265  10.778  0.2578  0.0869 -1.6393
  124MOL0     H16311   4.553   1.426  10.921  1.4830 -0.3493  1.4855
  124MOL0     H16312   4.507   1.274  10.991 -0.3707  1.0068  1.0401
  124MOL0     H16313   4.559   1.264  10.690 -0.8545 -2.1149  0.9316
  124MOL0     H16314   4.563   1.140  10.806  0.3212 -1.4869 -3.9880
  124MOL0     H16315   4.753   1.397  10.822  1.7923 -1.1469  2.5342
  124MOL0     H16316   4.778   1.282  10.702  3.2214  2.1174 -0.0937
  124MOL0     H16317   4.777   1.226  11.008 -2.6134 -1.7148  0.4005
  124MOL0     H16318   4.793   1.091  10.891  0.5552 -0.2509  0.9285
  124MOL0     H16319   4.996   1.307  10.944  0.4549 -0.6477 -0.7249
  124MOL0     H16320   5.003   1.209  10.803 -0.2669  1.4928 -0.6884
  124MOL0     H16321   5.006   1.180  11.184  3.2017  0.4712  0.0058
  124MOL0     H16322   5.220   0.997  11.338 -1.3967  0.6262  0.7053
  124MOL0     H16323   5.173   0.834  11.276 -1.1826 -1.0220 -1.0047
  124MOL0     H16324   4.942   0.885  11.332  1.5287 -3.1345  1.7210
  124MOL0     H16325   4.979   1.057  11.380  0.8890  0.0492 -3.0915
  124MOL0     H16326   5.015   0.994  11.605  0.7053 -2.8636  3.4051
  124MOL0     H16327   4.962   0.836  11.568  1.0094 -1.1893 -0.4789
  124MOL0     H16328   5.245   0.951  11.533 -1.2293  1.5420 -0.7394
  124MOL0     H16329   5.198   0.776  11.530 -3.9608 -1.6437  1.6667
  124MOL0     H16330   5.229   0.768  11.936  1.3938 -1.1253  1.8304
  124MOL0     H16331   5.430   0.650  12.022  0.3257 -1.3391 -0.6949
  124MOL0     H16332   5.840   0.756  12.159 -0.6622 -0.3107  0.8667
  124MOL0     H16333   6.039   0.680  12.285 -3.0049 -0.0050  3.6165
  124MOL0     H16334   6.250   0.449  12.479  1.5042  0.2262 -0.5358
  124MOL0     H16335   6.175   0.602  12.428  0.6997  0.2402  0.3792
  124MOL0     H16336   6.300   0.529  12.193  1.0628 -2.6406  0.0741
  124MOL0     H16337   6.372   0.409  12.302  3.0066  0.1071  1.5799
  124MOL0     H16338   6.393   0.706  12.345 -2.8611 -1.2636  0.4409
  124MOL0     H16339   6.519   0.602  12.270 -0.1801 -2.1770  0.4986
  124MOL0     H16340   6.416   0.570  12.554  0.9061 -0.4788  0.8674
  124MOL0     H16341   6.531   0.465  12.481  3.0977  0.7828 -1.4053
  124MOL0     H16342   6.613   0.646  12.634  0.3029  2.2141 -0.3811
  124MOL0     H16343   6.576   0.758  12.520  0.6087 -0.2763  0.8937
  124MOL0     H16344   6.721   0.683  12.354  1.3578  3.4875  1.5598
  124MOL0     H16345   6.748   0.525  12.430 -1.6004  0.1473 -4.1708
  124MOL0     H16346   6.840   0.800  12.537  0.2131  0.2776  0.3164
  124MOL0     H16347   6.862   0.647  12.617  0.6917 -0.3546  0.0966
  124MOL0     H16348   6.961   0.743  12.349 -0.5359  1.5645  1.4366
  124MOL0     H16349   7.006   0.576  12.418 -1.4340  0.1038  2.7359
  124MOL0     H16350   5.929   0.271  12.207  1.6130 -0.3691 -2.2556
  124MOL0     H16351   5.723   0.348  12.087  1.3654 -0.8643 -2.2197
  124MOL0     H16352   5.656   0.797  11.698 -0.4974  1.1727  1.0363
  124MOL0     H16353   5.448   0.861  11.573 -1.0457  0.7604  0.1252
  124MOL0     H16354   3.907   1.124  10.905  0.1646 -0.6076 -0.2943
  124MOL0     H16355   3.651   1.134  10.884  2.6194 -1.3316 -1.8536
  124MOL0     H16356   3.264   1.393  10.921 -0.7714 -1.1755  0.1837
  124MOL0     H16357   3.031   1.323  10.914  0.1913 -0.2715  0.0953
  124MOL0     H16358   2.814   1.357  10.840  1.3079 -0.1324  1.0194
  124MOL0     H16359   2.823   1.188  10.882  0.1424  0.5092  1.0469
  124MOL0     H16360   2.594   1.279  10.807 -1.1795 -0.5838 -0.5176
  124MOL0     H16361   2.675   1.308  10.646  3.8220 -0.0949  0.7309
  124MOL0     H16362   2.623   1.031  10.790 -0.9638  1.7806  0.4845
  124MOL0     H16363   2.689   1.044  10.631 -0.9324 -0.8335 -0.2573
  124MOL0     H16364   2.462   1.123  10.549  0.0736  2.1024  0.3052
  124MOL0     H16365   2.464   0.970  10.649  1.3265  0.2601 -2.5719
  124MOL0     H16366   2.230   1.240  10.881  1.8043  2.3582  0.1942
  124MOL0     H16367   3.060   1.295  10.474  0.8691  1.2315 -0.1328
  124MOL0     H16368   3.299   1.352  10.499  0.2421 -0.9322 -0.6505
  125MOL0     O16369   0.163   0.206   3.646  0.0812  0.2426 -0.6834
  125MOL0     C16370   0.210   0.179   3.753  0.0659  0.5140  0.0652
  125MOL0     O16371   0.149   0.188   3.874  0.3209 -0.6255  0.4312
  125MOL0     C16372   0.014   0.180   3.888  0.0551  0.3604  0.3146
  125MOL0     C16373  -0.068   0.295   3.914 -0.5201  0.3815  0.2449
  125MOL0     C16374  -0.204   0.300   3.945  0.2138  0.2313  0.1625
  125MOL0     C16375  -0.265   0.172   3.958 -0.7843 -0.4437 -0.3493
  125MOL0     O16376  -0.395   0.146   3.973  0.5913  0.3700  0.2589
  125MOL0     C16377  -0.491   0.253   3.972  0.5414  0.3984  0.4005
  125MOL0     C16378  -0.532   0.305   4.104  0.4814 -0.6703 -0.5043
  125MOL0     C16379  -0.604   0.436   4.110 -0.3324  0.6090  0.2429
  125MOL0     C16380  -0.732   0.426   4.028  0.2994 -0.2636 -0.3485
  125MOL0     C16381  -0.818   0.555   4.044 -0.6792  0.3570 -0.3307
  125MOL0     C16382  -0.954   0.545   3.982 -0.3118  1.1041 -0.2576
  125MOL0     C16383  -0.945   0.527   3.828  0.1429 -0.6927 -0.5883
  125MOL0     C16384  -1.083   0.518   3.762  0.0613 -0.3070 -0.4960
  125MOL0     N16385  -1.193   0.596   3.831 -0.7781 -0.1338 -0.1839
  125MOL0     C16386  -1.196   0.738   3.841 -0.2775  0.7287  0.5025
  125MOL0     C16387  -1.321   0.764   3.882  0.8599 -0.2013 -0.7155
  125MOL0     C16388  -1.386   0.892   3.912 -0.6455 -0.5015  0.3708
  125MOL0     C16389  -1.324   1.010   3.830 -0.9071 -0.0607  0.1317
  125MOL0     C16390  -1.359   1.143   3.889  0.5451 -0.4064 -0.5096
  125MOL0     C16391  -1.494   1.194   3.861  0.5143 -0.3799  0.4971
  125MOL0     O16392  -1.508   1.191   3.717  0.2478  0.5612 -0.9179
  125MOL0     C16393  -1.637   1.168   3.673  0.1155 -0.2895 -0.3667
  125MOL0     C16394  -1.726   1.270   3.636  0.6644 -0.5286 -0.2288
  125MOL0     C16395  -1.858   1.240   3.591  0.4686  0.6896 -0.3203
  125MOL0     C16396  -1.896   1.110   3.575 -0.4238  0.1788  0.8461
  125MOL0     C16397  -2.023   1.062   3.511  1.2489 -0.4966 -0.3138
  125MOL0     O16398  -2.072   0.940   3.537 -0.7646  0.2634 -0.3933
  125MOL0     C16399  -2.176   0.890   3.461 -0.9421 -0.2264 -0.3031
  125MOL0     C16400  -2.311   0.919   3.492 -0.8104  0.3474  0.0624
  125MOL0     C16401  -2.413   0.868   3.418 -0.0779  0.9366  0.1740
  125MOL0     C16402  -2.385   0.785   3.309 -0.2434 -0.9985 -0.1504
  125MOL0     O16403  -2.493   0.750   3.227  0.2547 -0.4019 -0.5280
  125MOL0     C16404  -2.470   0.696   3.096 -0.3599 -0.9478  0.1898
  125MOL0     C16405  -2.598   0.625   3.043  0.9103 -0.5508 -0.6127
  125MOL0     C16406  -2.584   0.480   3.065  0.0964 -0.6796 -0.2749
  125MOL0     C16407  -2.702   0.403   3.007  0.0074 -0.2139  0.6810
  125MOL0     C16408  -2.837   0.450   3.066 -0.3876  0.2576  0.0147
  125MOL0     C16409  -2.951   0.352   3.055  0.0423 -0.2994 -1.1591
  125MOL0     C16410  -2.982   0.316   2.907  0.1914 -0.3269 -0.7441
  125MOL0     C16411  -3.118   0.247   2.895 -0.2735  0.5492 -0.0645
  125MOL0    Cl16412  -3.254   0.367   2.919 -0.2033  0.3383 -0.1656
  125MOL0     C16413  -2.251   0.750   3.284 -0.7029  1.0436  0.0205
  125MOL0     C16414  -2.147   0.799   3.359 -0.7941 -0.8755 -0.8677
  125MOL0     O16415  -2.080   1.143   3.438 -0.1196  0.0483 -0.0176
  125MOL0     C16416  -1.808   1.007   3.613  1.0711  0.0202  0.7322
  125MOL0     C16417  -1.677   1.040   3.652  0.0195 -0.1291  0.2423
  125MOL0     N16418  -1.385   0.646   3.896  0.4364 -0.4001  0.2764
  125MOL0     N16419  -1.315   0.547   3.858  0.4437  0.7865 -0.1752
  125MOL0     C16420  -0.191   0.052   3.951  0.3441 -0.0075  0.0488
  125MOL0     C16421  -0.053   0.057   3.909 -0.1038  1.0096  1.0656
  125MOL0     C16422   0.353   0.160   3.768 -0.4526 -0.0335 -0.0326
  125MOL0     C16423   0.405   0.100   3.884  0.2582  0.4546 -0.2189
  125MOL0     C16424   0.538   0.081   3.907 -0.1850 -0.3216  0.2702
  125MOL0     C16425   0.633   0.121   3.808 -0.0310 -0.1971  0.0113
  125MOL0     O16426   0.765   0.101   3.812 -0.3164 -0.0949  0.6524
  125MOL0     C16427   0.832   0.040   3.927  0.2061 -0.2350 -0.3601
  125MOL0     C16428   0.849   0.152   4.036 -0.9399  0.3935 -0.1310
  125MOL0     C16429   0.988   0.213   4.020  0.0773 -0.2498  0.1016
  125MOL0     C16430   0.995   0.341   3.935  0.1996  1.1907 -0.3530
  125MOL0     C16431   1.128   0.395   3.953 -0.2488 -0.1149  0.2325
  125MOL0     C16432   1.239   0.439   3.975 -0.6989 -0.3410 -0.4192
  125MOL0     C16433   0.579   0.190   3.693 -0.2334  1.1256 -0.4491
  125MOL0     C16434   0.442   0.214   3.679 -0.3142  0.8553  0.0723
  125MOL0     H16435  -0.007   0.385   3.905 -0.4517  0.2455 -0.7381
  125MOL0     H16436  -0.253   0.394   3.968 -0.2587 -0.0971  0.4831
  125MOL0     H16437  -0.577   0.221   3.912  0.8114  2.5277 -1.2442
  125MOL0     H16438  -0.445   0.341   3.926 -0.7218  0.5285 -0.7103
  125MOL0     H16439  -0.437   0.307   4.159 -0.4387 -2.6269  1.3228
  125MOL0     H16440  -0.587   0.227   4.158  1.1332 -2.2140 -1.9734
  125MOL0     H16441  -0.545   0.518   4.068 -1.5858  0.9295 -0.9556
  125MOL0     H16442  -0.642   0.456   4.210 -2.0357 -1.8180  0.1809
  125MOL0     H16443  -0.705   0.409   3.924 -1.2995 -1.6519 -0.5891
  125MOL0     H16444  -0.786   0.335   4.058  0.2256 -2.5207 -6.0818
  125MOL0     H16445  -0.770   0.651   4.022 -3.8207  1.7420 -1.6350
  125MOL0     H16446  -0.832   0.573   4.151  1.3000  0.0406  0.0397
  125MOL0     H16447  -1.005   0.639   4.003  0.1532  1.7956 -2.0366
  125MOL0     H16448  -1.016   0.464   4.022  0.4794  0.4399 -0.3600
  125MOL0     H16449  -0.901   0.621   3.794 -2.5128  1.0147  0.3689
  125MOL0     H16450  -0.885   0.439   3.804  3.1159  0.6246  1.5234
  125MOL0     H16451  -1.109   0.413   3.751  2.7839 -1.1953  0.6804
  125MOL0     H16452  -1.081   0.551   3.657 -2.6077 -0.5619 -0.7001
  125MOL0     H16453  -1.113   0.807   3.831 -1.6068  2.0483 -3.6718
  125MOL0     H16454  -1.369   0.926   4.014 -2.0372  0.1011  0.4199
  125MOL0     H16455  -1.491   0.890   3.881  0.4644 -0.3866 -4.1418
  125MOL0     H16456  -1.355   1.007   3.726  0.6161  0.0707 -0.3487
  125MOL0     H16457  -1.216   0.994   3.831 -0.7405  0.9637 -0.3610
  125MOL0     H16458  -1.343   1.152   3.997  0.2011  1.8726 -0.5827
  125MOL0     H16459  -1.290   1.219   3.851  1.0131  0.9496  2.7125
  125MOL0     H16460  -1.494   1.300   3.888  0.6102 -0.3479  0.3729
  125MOL0     H16461  -1.576   1.154   3.921  0.6124  2.5829  2.8502
  125MOL0     H16462  -1.695   1.370   3.665 -1.1853 -0.3510  1.3659
  125MOL0     H16463  -1.933   1.317   3.580  0.4544  0.5227 -1.6439
  125MOL0     H16464  -2.343   0.990   3.568 -1.8367 -0.3197  0.2756
  125MOL0     H16465  -2.511   0.906   3.444 -1.0406 -1.3486  0.1486
  125MOL0     H16466  -2.379   0.635   3.091  0.3595 -0.1627  2.3460
  125MOL0     H16467  -2.443   0.788   3.044 -1.0318  0.6789  2.5176
  125MOL0     H16468  -2.614   0.648   2.937 -2.8553  0.8734  0.1275
  125MOL0     H16469  -2.691   0.664   3.086  0.5747  0.4152 -2.1203
  125MOL0     H16470  -2.559   0.472   3.171  3.6538  0.8467 -0.8745
  125MOL0     H16471  -2.494   0.448   3.012  1.3475 -0.7535  1.7585
  125MOL0     H16472  -2.700   0.406   2.897 -2.3727  1.4304  0.6159
  125MOL0     H16473  -2.674   0.304   3.045  0.0537  1.0771  4.3551
  125MOL0     H16474  -2.875   0.541   3.020  0.0345  1.4529  1.9311
  125MOL0     H16475  -2.824   0.470   3.172  0.8198  1.9294 -0.4059
  125MOL0     H16476  -3.040   0.386   3.109 -0.6444 -3.3329 -0.1657
  125MOL0     H16477  -2.912   0.262   3.103 -1.9800  0.8618  3.2386
  125MOL0     H16478  -2.990   0.400   2.839  1.5546  1.1072  0.7733
  125MOL0     H16479  -2.908   0.247   2.865  3.6663  1.0083  2.6018
  125MOL0     H16480  -3.125   0.163   2.964  0.3834  0.6631  0.1471
  125MOL0     H16481  -3.120   0.207   2.793 -1.1571  1.0556 -0.2563
  125MOL0     H16482  -2.224   0.676   3.210 -2.0842 -1.0975  1.5103
  125MOL0     H16483  -2.043   0.773   3.341 -0.2579 -0.8790  1.8250
  125MOL0     H16484  -1.837   0.902   3.610  2.2582 -0.3138 -1.9145
  125MOL0     H16485  -1.602   0.969   3.688 -0.6871  0.2722  2.7065
  125MOL0     H16486  -0.231  -0.043   3.982  2.1397 -0.2236  1.9505
  125MOL0     H16487   0.002  -0.036   3.909 -3.2700 -1.0468  0.8629
  125MOL0     H16488   0.325   0.064   3.948 -1.8798  2.9670 -1.2930
  125MOL0     H16489   0.580   0.030   3.994 -0.8135  2.7651  2.5512
  125MOL0     H16490   0.930   0.004   3.893  0.8382  1.8601 -0.8889
  125MOL0     H16491   0.797  -0.059   3.960  1.7090 -0.7636 -0.2557
  125MOL0     H16492   0.777   0.235   4.038  0.5332  1.8325 -1.9417
  125MOL0     H16493   0.830   0.112   4.135  0.5633 -0.6824 -0.2475
  125MOL0     H16494   1.058   0.141   3.975  0.7292  0.9973 -0.9679
  125MOL0     H16495   1.021   0.236   4.122  0.8276 -2.0764  0.3151
  125MOL0     H16496   0.981   0.312   3.831  0.0989 -0.2775  0.0418
  125MOL0     H16497   0.919   0.415   3.962  2.3042  2.5859  2.2078
  125MOL0     H16498   1.339   0.474   3.984 -1.4713  1.7269  0.8258
  125MOL0     H16499   0.645   0.222   3.613  1.1142 -0.4047  0.0013
  125MOL0     H16500   0.405   0.279   3.601  0.3303 -0.0008 -0.9811
  126MOL0     O16501   3.620   5.667   1.128  0.6780 -0.7475 -0.4262
  126MOL0     C16502   3.674   5.693   1.243 -0.1688  0.7044  0.9386
  126MOL0     O16503   3.614   5.759   1.344  0.0805 -0.3915 -0.3154
  126MOL0     C16504   3.476   5.784   1.349  0.4952 -0.1398  0.1750
  126MOL0     C16505   3.407   5.880   1.275  0.0279  0.6992  0.1811
  126MOL0     C16506   3.268   5.898   1.277  0.4067  0.7601 -0.3094
  126MOL0     C16507   3.184   5.811   1.350 -0.8302 -0.6948 -0.0170
  126MOL0     O16508   3.049   5.817   1.319 -0.4121  0.0447 -0.2514
  126MOL0     C16509   2.957   5.755   1.406 -0.7370 -0.0032  0.3701
  126MOL0     C16510   2.829   5.823   1.382  0.2779  0.2549 -0.1561
  126MOL0     C16511   2.712   5.774   1.464  0.1435 -1.0395 -0.0872
  126MOL0     C16512   2.724   5.840   1.604  0.3500 -0.0347 -0.0712
  126MOL0     C16513   2.649   5.758   1.709 -0.0792 -0.6563 -0.2264
  126MOL0     C16514   2.498   5.791   1.707 -0.7997  0.5121 -0.0447
  126MOL0     C16515   2.403   5.694   1.791  0.2088  0.3990 -0.6939
  126MOL0     C16516   2.259   5.745   1.797  0.8593  0.0832 -0.2816
  126MOL0     N16517   2.218   5.821   1.672 -0.2846 -0.1133 -0.1705
  126MOL0     C16518   2.186   5.954   1.662  0.3457  0.2557  0.0538
  126MOL0     C16519   2.127   5.967   1.542  0.1220  0.1736 -0.1980
  126MOL0     C16520   2.057   6.086   1.484 -0.0766 -0.4691  0.3854
  126MOL0     C16521   1.915   6.092   1.519  0.2123  0.4746 -0.1787
  126MOL0     C16522   1.857   6.219   1.462 -0.7147 -0.2260 -0.4313
  126MOL0     C16523   1.728   6.265   1.531 -0.0551 -0.5632 -0.1986
  126MOL0     O16524   1.616   6.201   1.467 -0.0872  0.3566 -0.2171
  126MOL0     C16525   1.485   6.212   1.502 -0.3937 -0.7366 -0.5156
  126MOL0     C16526   1.434   6.264   1.619  0.1271  0.1287 -0.4325
  126MOL0     C16527   1.298   6.281   1.646 -1.5981 -0.6825  0.2727
  126MOL0     C16528   1.205   6.238   1.555 -0.1128  0.1612  1.0420
  126MOL0     C16529   1.058   6.260   1.572 -0.2535 -0.2695  0.4950
  126MOL0     O16530   0.977   6.202   1.486  0.1154 -0.1497  0.2666
  126MOL0     C16531   0.832   6.195   1.500 -0.2161 -0.5307 -0.3935
  126MOL0     C16532   0.766   6.238   1.618  0.0144  0.1448 -1.8330
  126MOL0     C16533   0.631   6.217   1.634 -0.5172  0.8266 -0.2925
  126MOL0     C16534   0.561   6.135   1.535 -0.8210  0.2459  0.6640
  126MOL0     O16535   0.435   6.091   1.555  0.3125  0.0150  0.0615
  126MOL0     C16536   0.367   6.117   1.679 -0.7197  0.1632 -0.3311
  126MOL0     C16537   0.231   6.043   1.686  0.3838  0.7691  0.6766
  126MOL0     C16538   0.166   6.082   1.820 -0.1498 -0.1887 -0.1129
  126MOL0     C16539   0.024   6.019   1.834 -0.0441 -0.5846  1.2529
  126MOL0     C16540  -0.046   6.054   1.960 -0.0753 -0.0996  0.6971
  126MOL0     C16541  -0.196   6.023   1.931 -1.0073  0.9126 -0.3678
  126MOL0     C16542  -0.257   6.037   2.067 -0.4221  0.2946 -0.3822
  126MOL0     C16543  -0.404   6.007   2.068 -0.3356 -0.0636 -0.2928
  126MOL0    Cl16544  -0.493   6.116   1.954  0.2142  0.2333 -0.0052
  126MOL0     C16545   0.626   6.096   1.416 -0.5504  0.5630 -0.0358
  126MOL0     C16546   0.761   6.122   1.404 -0.0876  0.4083  0.0599
  126MOL0     O16547   1.023   6.339   1.658  0.1627  0.1935  0.3960
  126MOL0     C16548   1.255   6.179   1.435 -0.2454 -0.5241 -0.0258
  126MOL0     C16549   1.394   6.170   1.409  0.3309 -0.3570 -0.5048
  126MOL0     N16550   2.149   5.850   1.474  0.7770 -0.4700  0.7465
  126MOL0     N16551   2.200   5.766   1.546 -0.5571  0.0901 -0.5450
  126MOL0     C16552   3.253   5.729   1.439  0.6240 -0.6339 -0.4553
  126MOL0     C16553   3.397   5.723   1.445  0.8874  0.3580  0.0864
  126MOL0     C16554   3.827   5.659   1.247  0.3266 -0.3940 -0.3972
  126MOL0     C16555   3.899   5.700   1.358  0.3882 -0.1030  0.5612
  126MOL0     C16556   4.040   5.691   1.358 -0.4971  0.5610  0.0525
  126MOL0     C16557   4.105   5.651   1.244 -0.1316  0.3295  0.0501
  126MOL0     O16558   4.243   5.671   1.249 -0.1930 -0.0974 -0.3694
  126MOL0     C16559   4.322   5.594   1.155 -0.6422  0.4412 -0.3462
  126MOL0     C16560   4.473   5.605   1.206 -0.4753  0.1085  0.0180
  126MOL0     C16561   4.550   5.734   1.233 -0.2153 -0.1102 -0.0081
  126MOL0     C16562   4.549   5.778   1.381  0.2327  1.0617 -0.2614
  126MOL0     C16563   4.606   5.684   1.472  0.3227  0.8481  0.2596
  126MOL0     C16564   4.645   5.602   1.548 -0.2635 -0.0231 -0.3437
  126MOL0     C16565   4.038   5.600   1.133  1.2022 -0.4102 -0.5272
  126MOL0     C16566   3.892   5.605   1.134 -0.5828 -0.0326  0.5826
  126MOL0     H16567   3.463   5.947   1.211  1.8810 -0.8398  0.0711
  126MOL0     H16568   3.218   5.968   1.210 -0.3540 -0.5987 -1.2183
  126MOL0     H16569   2.984   5.763   1.512  0.0047 -1.7205  0.3440
  126MOL0     H16570   2.949   5.650   1.377  1.8422 -0.3300  0.6120
  126MOL0     H16571   2.794   5.801   1.281 -2.8504 -1.5327  1.1845
  126MOL0     H16572   2.856   5.928   1.401 -1.2854  0.6073  0.1975
  126MOL0     H16573   2.708   5.665   1.468 -0.4054 -1.0270 -0.1667
  126MOL0     H16574   2.618   5.813   1.424  0.4872 -0.3320 -0.2239
  126MOL0     H16575   2.826   5.851   1.643  1.6957 -0.7918 -3.0772
  126MOL0     H16576   2.682   5.941   1.595  0.6844  0.4306  2.7946
  126MOL0     H16577   2.682   5.781   1.811  3.0601 -2.5792 -0.6539
  126MOL0     H16578   2.664   5.650   1.699 -0.7600 -1.1012  2.6193
  126MOL0     H16579   2.467   5.782   1.602  0.2949 -0.5865 -0.3046
  126MOL0     H16580   2.478   5.891   1.747  0.0408  0.1040  1.5010
  126MOL0     H16581   2.406   5.591   1.754 -1.1406  0.2600 -0.4626
  126MOL0     H16582   2.444   5.697   1.893  1.3719 -0.0220 -1.1297
  126MOL0     H16583   2.240   5.822   1.872 -2.6444  0.5108 -1.4441
  126MOL0     H16584   2.181   5.670   1.813 -0.8276  0.9537 -3.4337
  126MOL0     H16585   2.181   6.035   1.735 -0.8859  1.5569 -1.4097
  126MOL0     H16586   2.076   6.086   1.376 -1.8161  0.4234  0.0344
  126MOL0     H16587   2.110   6.175   1.518  0.5622  0.6636 -3.1098
  126MOL0     H16588   1.898   6.079   1.626  2.6779 -0.2485  0.1881
  126MOL0     H16589   1.866   6.001   1.483 -1.4270  0.9383  0.7716
  126MOL0     H16590   1.920   6.308   1.468 -1.4348  0.2720 -0.1055
  126MOL0     H16591   1.847   6.201   1.354  0.8963 -0.1771 -0.6127
  126MOL0     H16592   1.716   6.374   1.525 -0.8346 -0.2001  4.1515
  126MOL0     H16593   1.732   6.244   1.638 -0.8552  0.2261 -0.0053
  126MOL0     H16594   1.496   6.308   1.696  1.0623  2.1000 -2.2220
  126MOL0     H16595   1.267   6.322   1.742  1.1215  3.9869 -0.5685
  126MOL0     H16596   0.821   6.284   1.700 -1.8257  2.0337 -1.5675
  126MOL0     H16597   0.580   6.258   1.721 -1.8764 -3.8498  1.4007
  126MOL0     H16598   0.359   6.225   1.692  1.0603  0.6767 -2.7683
  126MOL0     H16599   0.419   6.076   1.766  1.1792 -0.8527 -1.8749
  126MOL0     H16600   0.252   5.937   1.672 -0.9612  0.6895 -1.0877
  126MOL0     H16601   0.155   6.060   1.609  1.4012 -2.4964 -1.2515
  126MOL0     H16602   0.155   6.191   1.827 -2.2301 -0.3298 -0.3115
  126MOL0     H16603   0.229   6.048   1.902 -0.0563 -0.7351 -0.4119
  126MOL0     H16604  -0.033   6.058   1.750  2.0394 -0.0682 -0.0033
  126MOL0     H16605   0.019   5.911   1.818 -2.1216 -0.2200 -1.0224
  126MOL0     H16606  -0.029   6.161   1.971 -2.3729  0.2687  1.0953
  126MOL0     H16607  -0.009   5.985   2.036  0.3814 -0.9944 -0.3026
  126MOL0     H16608  -0.206   5.921   1.895  1.0680 -0.3243  2.1812
  126MOL0     H16609  -0.242   6.082   1.851 -0.8758 -0.8136 -1.7871
  126MOL0     H16610  -0.208   5.973   2.142 -0.8027  0.6868  0.2122
  126MOL0     H16611  -0.250   6.137   2.111  1.3368  2.1644 -4.3806
  126MOL0     H16612  -0.439   6.007   2.171 -0.4026 -1.4083 -0.3033
  126MOL0     H16613  -0.409   5.904   2.032  2.2477 -0.8174  1.2431
  126MOL0     H16614   0.577   6.041   1.336 -0.8583 -0.0884  0.5911
  126MOL0     H16615   0.813   6.089   1.314 -0.7185 -2.2728  0.5909
  126MOL0     H16616   1.194   6.139   1.354  0.9117 -1.0269 -0.6647
  126MOL0     H16617   1.436   6.141   1.313 -0.3897 -1.2612 -0.5646
  126MOL0     H16618   3.195   5.665   1.506 -1.4797  1.1345 -0.4837
  126MOL0     H16619   3.427   5.648   1.518  1.9841  0.6537 -0.0355
  126MOL0     H16620   3.852   5.748   1.444  0.9573 -2.3606  2.2262
  126MOL0     H16621   4.105   5.714   1.441 -1.2063 -0.6443  0.9848
  126MOL0     H16622   4.301   5.622   1.051 -0.0804  0.2531 -0.5151
  126MOL0     H16623   4.300   5.488   1.167 -0.3663  0.5627  1.6494
  126MOL0     H16624   4.480   5.539   1.292 -0.7187  0.8302  0.5960
  126MOL0     H16625   4.537   5.558   1.131  0.6338  2.6026 -0.7401
  126MOL0     H16626   4.510   5.813   1.170  0.3638 -0.1598 -0.4445
  126MOL0     H16627   4.653   5.737   1.196 -0.9631  3.4336 -2.2652
  126MOL0     H16628   4.592   5.877   1.398 -1.2625  1.5369  1.0122
  126MOL0     H16629   4.444   5.791   1.408  0.0599 -1.0006  0.2457
  126MOL0     H16630   4.686   5.540   1.625 -2.3989 -1.1538 -0.0295
  126MOL0     H16631   4.083   5.583   1.036  0.3794  0.6741 -1.1160
  126MOL0     H16632   3.845   5.567   1.044  2.2417 -0.4905 -0.7764
  127MOL0     O16633   3.294   9.813   3.587  0.1770 -0.0439 -0.3435
  127MOL0     C16634   3.333   9.739   3.676 -0.2674  0.1972 -0.3937
  127MOL0     O16635   3.259   9.695   3.790  0.0972 -0.3181 -0.0699
  127MOL0     C16636   3.124   9.719   3.792 -0.2065 -0.1084 -0.0295
  127MOL0     C16637   3.069   9.775   3.906  1.2061  0.7674 -0.7637
  127MOL0     C16638   2.931   9.796   3.922 -0.7411 -0.2010 -0.5134
  127MOL0     C16639   2.851   9.756   3.818  0.4583  1.5409  0.0692
  127MOL0     O16640   2.715   9.752   3.840 -0.2184  0.0257  0.4406
  127MOL0     C16641   2.633   9.863   3.798 -0.1264  1.1354  1.0586
  127MOL0     C16642   2.485   9.823   3.780 -0.1824  0.2488 -0.2156
  127MOL0     C16643   2.401   9.932   3.701  0.4025  0.0014 -0.6311
  127MOL0     C16644   2.430   9.936   3.544  0.1545  0.6487  0.6774
  127MOL0     C16645   2.306   9.966   3.457 -0.2669  0.2725  0.0534
  127MOL0     C16646   2.277  10.114   3.458  0.7160  0.0529  0.1565
  127MOL0     C16647   2.145  10.149   3.384  0.4662  0.6016 -0.3562
  127MOL0     C16648   2.148  10.155   3.233 -0.0570  0.3892 -0.6343
  127MOL0     N16649   2.025  10.106   3.172  0.1001  0.1511 -0.4933
  127MOL0     C16650   1.892  10.117   3.218 -1.4541 -0.1098  0.1543
  127MOL0     C16651   1.818  10.033   3.143  0.4517  1.5207  0.4654
  127MOL0     C16652   1.678   9.979   3.145  0.1059  0.6740  0.3974
  127MOL0     C16653   1.589  10.064   3.060 -0.6330 -0.4605  0.7291
  127MOL0     C16654   1.547  10.194   3.132  0.5619  0.2936  0.1161
  127MOL0     C16655   1.464  10.281   3.035  0.0590  0.0597  0.4398
  127MOL0     O16656   1.358  10.220   2.972  0.6144  0.3629  0.4034
  127MOL0     C16657   1.241  10.197   3.032  0.1320 -0.6067 -0.9870
  127MOL0     C16658   1.196  10.253   3.155  0.2545 -0.5487  1.0825
  127MOL0     C16659   1.070  10.220   3.205 -0.1633  0.8354 -0.0958
  127MOL0     C16660   0.985  10.130   3.137  0.3753 -0.4433  1.0840
  127MOL0     C16661   0.857  10.087   3.200  0.3402  0.3355  0.3621
  127MOL0     O16662   0.846  10.112   3.333  0.0135  0.1435  0.3605
  127MOL0     C16663   0.721  10.084   3.389  0.0558 -0.9687 -0.5597
  127MOL0     C16664   0.744  10.038   3.520  0.0901  0.7595 -0.3007
  127MOL0     C16665   0.635  10.026   3.607 -0.3412 -1.3036 -0.6206
  127MOL0     C16666   0.509  10.063   3.572 -0.9273  0.2373 -0.3217
  127MOL0     O16667   0.400  10.041   3.648 -0.4381 -0.0020  0.2190
  127MOL0     C16668   0.378  10.132   3.764  0.3816 -0.2540 -0.1391
  127MOL0     C16669   0.243  10.206   3.753 -0.5056  0.0986 -0.8822
  127MOL0     C16670   0.130  10.102   3.766 -0.1830 -0.4047  0.1135
  127MOL0     C16671   0.004  10.139   3.697  0.6159  0.0327 -0.2083
  127MOL0     C16672  -0.122  10.050   3.722 -0.2725  0.4336 -0.7531
  127MOL0     C16673  -0.250  10.122   3.674 -0.0673 -0.1006 -0.8722
  127MOL0     C16674  -0.362  10.032   3.660  0.1859  0.3734 -0.8492
  127MOL0     C16675  -0.490  10.090   3.614  0.1467 -0.4146 -0.0911
  127MOL0    Cl16676  -0.550  10.180   3.760  0.1945 -0.2584 -0.0557
  127MOL0     C16677   0.488  10.112   3.445 -0.1718 -0.2122 -0.4896
  127MOL0     C16678   0.592  10.128   3.352 -0.2116 -0.2775 -0.2780
  127MOL0     O16679   0.771  10.028   3.130  0.2738  0.7282 -0.4510
  127MOL0     C16680   1.025  10.083   3.005 -0.7778 -0.0020 -0.1420
  127MOL0     C16681   1.149  10.112   2.958  0.1404 -0.1106  0.3267
  127MOL0     N16682   1.903   9.970   3.049 -0.0227  0.5180  0.8969
  127MOL0     N16683   2.022  10.025   3.063  0.3174 -0.3480 -0.3352
  127MOL0     C16684   2.909   9.705   3.698  0.6208  0.1228 -0.3091
  127MOL0     C16685   3.042   9.690   3.685  0.6603 -0.1060  0.2317
  127MOL0     C16686   3.476   9.686   3.673 -0.4808 -0.4465  1.1100
  127MOL0     C16687   3.526   9.561   3.721 -0.0137  0.0382  0.2017
  127MOL0     C16688   3.664   9.519   3.699  0.9225 -0.2037  0.1952
  127MOL0     C16689   3.745   9.602   3.619  0.9529  1.4100 -0.4344
  127MOL0     O16690   3.866   9.547   3.566  0.2993 -0.2524 -0.0770
  127MOL0     C16691   3.972   9.643   3.566  0.5513 -0.5635  0.0264
  127MOL0     C16692   4.097   9.560   3.516  0.7413  0.8981 -0.1459
  127MOL0     C16693   4.229   9.641   3.499  0.5680 -0.2993 -0.7069
  127MOL0     C16694   4.269   9.676   3.357 -0.3685 -0.1049  1.4989
  127MOL0     C16695   4.320   9.549   3.293 -0.4222 -0.0213 -0.7233
  127MOL0     C16696   4.377   9.446   3.264  0.6338 -0.3412  0.2135
  127MOL0     C16697   3.702   9.726   3.580  0.5426  0.2922 -0.5047
  127MOL0     C16698   3.567   9.769   3.606  0.7075 -1.0768 -0.8834
  127MOL0     H16699   3.141   9.787   3.986  2.1443  0.4956 -1.5441
  127MOL0     H16700   2.889   9.836   4.014  2.2824 -0.2853  1.0326
  127MOL0     H16701   2.672   9.912   3.708  0.4144  0.8868  1.1558
  127MOL0     H16702   2.634   9.939   3.877  1.7527  1.6456  0.5711
  127MOL0     H16703   2.442   9.822   3.880 -1.3352  1.9602 -0.6465
  127MOL0     H16704   2.468   9.725   3.734 -2.1776 -0.8478  2.5559
  127MOL0     H16705   2.416  10.033   3.741  1.9056 -0.9543  1.4206
  127MOL0     H16706   2.294   9.909   3.714  0.6218 -1.0910 -0.6862
  127MOL0     H16707   2.511  10.007   3.523 -1.9957  3.0057 -0.1993
  127MOL0     H16708   2.469   9.840   3.510  0.3461  1.4200 -1.4130
  127MOL0     H16709   2.217   9.906   3.479 -0.6242  0.5503 -0.6315
  127MOL0     H16710   2.326   9.936   3.354 -3.0679  0.4324 -0.6234
  127MOL0     H16711   2.362  10.165   3.410 -0.2556  1.2254 -0.3886
  127MOL0     H16712   2.269  10.147   3.562 -0.2983  1.1927 -0.2469
  127MOL0     H16713   2.070  10.072   3.405 -0.3873  1.4130 -0.4021
  127MOL0     H16714   2.105  10.242   3.426 -1.2006 -0.8445  1.4707
  127MOL0     H16715   2.229  10.090   3.198 -0.0833  0.7936 -1.4629
  127MOL0     H16716   2.171  10.253   3.191 -1.0394  1.6080  1.4907
  127MOL0     H16717   1.873  10.176   3.306 -0.0156  3.1746 -1.5917
  127MOL0     H16718   1.642   9.967   3.247  2.4304  0.7768  1.2829
  127MOL0     H16719   1.682   9.885   3.090  2.2303  1.7681 -1.5057
  127MOL0     H16720   1.511   9.999   3.020 -0.9507 -0.2664  1.0310
  127MOL0     H16721   1.653  10.097   2.977 -0.2018 -0.6884  0.9662
  127MOL0     H16722   1.482  10.161   3.214  1.5325  0.9535  1.1914
  127MOL0     H16723   1.628  10.263   3.158 -1.3354  1.9419  1.9564
  127MOL0     H16724   1.526  10.315   2.951 -2.1941  2.7652 -0.2930
  127MOL0     H16725   1.440  10.379   3.078 -0.6223  0.7923 -1.4926
  127MOL0     H16726   1.272  10.309   3.209  0.4983 -1.4995  1.7630
  127MOL0     H16727   1.044  10.273   3.297 -0.7485  2.9061 -1.3758
  127MOL0     H16728   0.841  10.023   3.567 -0.8757 -2.7545  0.8625
  127MOL0     H16729   0.654   9.974   3.700  0.1167 -1.0863 -0.5927
  127MOL0     H16730   0.460  10.199   3.788 -1.7543  2.1073  0.9901
  127MOL0     H16731   0.367  10.067   3.852 -0.5129  0.2001  0.0933
  127MOL0     H16732   0.250  10.264   3.661 -2.3784 -0.7674 -1.6278
  127MOL0     H16733   0.233  10.281   3.831  0.3130  2.5948 -3.0523
  127MOL0     H16734   0.099  10.082   3.869 -0.3224 -1.5387 -0.1414
  127MOL0     H16735   0.162  10.007   3.722  0.0938 -0.6484  0.8255
  127MOL0     H16736  -0.016  10.236   3.742  3.6779 -0.8701  3.6707
  127MOL0     H16737   0.013  10.174   3.593 -1.4804  1.1779 -0.0548
  127MOL0     H16738  -0.132  10.029   3.829  2.1922 -1.5120 -0.8024
  127MOL0     H16739  -0.111   9.958   3.664  1.9948  1.5307 -2.2112
  127MOL0     H16740  -0.241  10.186   3.585 -2.3745  4.0664  1.5260
  127MOL0     H16741  -0.284  10.197   3.747  1.3283 -0.1329 -0.1627
  127MOL0     H16742  -0.320   9.961   3.589  2.6704  1.3612 -0.4920
  127MOL0     H16743  -0.373   9.989   3.760  3.0335  1.2855 -0.0273
  127MOL0     H16744  -0.564  10.013   3.589  1.2441 -1.3987 -0.4194
  127MOL0     H16745  -0.471  10.159   3.532 -2.1003  0.1421 -0.1995
  127MOL0     H16746   0.388  10.134   3.411  1.0220  0.0425 -4.2730
  127MOL0     H16747   0.579  10.171   3.253  0.1389  1.0056  0.2089
  127MOL0     H16748   0.963  10.015   2.948  1.3832 -1.2652 -1.0915
  127MOL0     H16749   1.170  10.071   2.860 -0.8566 -0.0489  0.0744
  127MOL0     H16750   2.839   9.688   3.616 -0.1706  2.2531 -0.1319
  127MOL0     H16751   3.082   9.644   3.595  1.4168 -3.0016  1.8901
  127MOL0     H16752   3.459   9.495   3.774  0.5069  2.0157  3.5891
  127MOL0     H16753   3.696   9.423   3.739  0.8442  0.5280  2.1361
  127MOL0     H16754   3.997   9.678   3.666  0.3033 -2.2663  0.7153
  127MOL0     H16755   3.971   9.726   3.495  3.8116  0.5412  1.1040
  127MOL0     H16756   4.106   9.488   3.598 -1.3614  1.5536  0.7299
  127MOL0     H16757   4.072   9.496   3.431 -1.7225 -0.6749  1.6185
  127MOL0     H16758   4.309   9.598   3.560  1.5850  2.2369 -0.1350
  127MOL0     H16759   4.202   9.731   3.554 -1.1514 -0.4377 -1.2609
  127MOL0     H16760   4.178   9.713   3.308  0.8917  1.9939  0.5743
  127MOL0     H16761   4.337   9.761   3.352 -0.7682  0.1577 -0.7838
  127MOL0     H16762   4.410   9.348   3.239 -1.2327 -0.6482 -1.1852
  127MOL0     H16763   3.761   9.795   3.520  3.4411 -0.4562  1.2682
  127MOL0     H16764   3.539   9.870   3.576  0.8904 -0.5377  0.6782
  128MOL0     O16765   3.816   4.688   6.405 -0.0417 -0.1862 -0.6890
  128MOL0     C16766   3.823   4.692   6.530  0.1872  0.4679  0.2063
  128MOL0     O16767   3.932   4.735   6.601  0.7986 -0.6170 -0.4562
  128MOL0     C16768   4.055   4.742   6.533  0.3538  0.1479 -0.4726
  128MOL0     C16769   4.093   4.651   6.439 -0.5393 -0.0866  0.1877
  128MOL0     C16770   4.219   4.646   6.380 -0.7902  0.0172  0.0924
  128MOL0     C16771   4.320   4.740   6.418  0.9635 -0.1968  0.0943
  128MOL0     O16772   4.453   4.733   6.382  0.0881 -0.7989 -0.7108
  128MOL0     C16773   4.499   4.657   6.275  0.2349 -0.3255  0.4517
  128MOL0     C16774   4.642   4.703   6.239 -0.4051 -0.2939  0.3337
  128MOL0     C16775   4.706   4.612   6.125  0.0118 -0.2284  0.5081
  128MOL0     C16776   4.856   4.648   6.102 -0.1352  0.2304  0.1568
  128MOL0     C16777   4.920   4.572   5.976  0.1871 -0.2976 -0.9186
  128MOL0     C16778   5.064   4.607   5.956  0.1786 -0.0397  0.3877
  128MOL0     C16779   5.129   4.541   5.827  0.0295 -0.6889 -0.4170
  128MOL0     C16780   5.192   4.400   5.835 -0.4958 -0.5618 -0.4925
  128MOL0     N16781   5.294   4.401   5.938  0.5979  0.2522 -0.9656
  128MOL0     C16782   5.414   4.470   5.947  0.7409 -0.2766 -0.1162
  128MOL0     C16783   5.466   4.422   6.063  0.0830  0.2276 -0.3979
  128MOL0     C16784   5.595   4.454   6.132 -0.5016  0.0611  0.2308
  128MOL0     C16785   5.712   4.371   6.090 -0.2685  1.0055 -0.6126
  128MOL0     C16786   5.756   4.408   5.943 -0.7554  0.4202 -0.6913
  128MOL0     C16787   5.892   4.337   5.921 -0.0712  0.0034  0.8310
  128MOL0     O16788   6.005   4.387   6.005  0.5409  0.9792  0.0890
  128MOL0     C16789   6.141   4.371   5.972 -0.1401  0.2559  0.0396
  128MOL0     C16790   6.239   4.450   6.044 -0.2504 -0.6084  0.1485
  128MOL0     C16791   6.372   4.440   6.015 -0.0219 -0.0496  0.0761
  128MOL0     C16792   6.420   4.352   5.923  0.1361  0.1488 -0.2548
  128MOL0     C16793   6.566   4.334   5.915  0.1777  0.6205 -0.7464
  128MOL0     O16794   6.647   4.378   6.017  0.1012 -0.1770  0.7371
  128MOL0     C16795   6.781   4.341   6.012 -0.1822  0.0387  0.2428
  128MOL0     C16796   6.820   4.219   6.075  0.2751  0.2673 -0.2672
  128MOL0     C16797   6.962   4.187   6.076 -0.3041  0.9909  0.0962
  128MOL0     C16798   7.063   4.278   6.021  0.6051 -0.1089 -0.4925
  128MOL0     O16799   7.184   4.242   6.060 -0.6353  0.1055 -0.4708
  128MOL0     C16800   7.304   4.277   5.989 -0.5997  0.6347 -0.2142
  128MOL0     C16801   7.354   4.407   6.047  0.2448  1.1962  0.4482
  128MOL0     C16802   7.499   4.426   6.033 -0.6004 -0.3982  0.5301
  128MOL0     C16803   7.563   4.522   6.140 -1.3382 -0.1542 -0.2877
  128MOL0     C16804   7.710   4.565   6.114 -0.1880  0.0460 -1.1992
  128MOL0     C16805   7.718   4.647   5.994 -0.5404  0.2733  0.9530
  128MOL0     C16806   7.856   4.705   5.989 -0.4684  0.4099  0.0900
  128MOL0     C16807   7.859   4.820   5.885  0.2395  0.8395 -0.8224
  128MOL0    Cl16808   7.805   4.754   5.730 -0.0859 -0.2205  0.1026
  128MOL0     C16809   7.016   4.398   5.966 -0.1754 -0.0733 -0.3489
  128MOL0     C16810   6.875   4.420   5.944 -0.2405 -0.2287  0.2404
  128MOL0     O16811   6.607   4.265   5.825  0.5862  0.0252 -0.3573
  128MOL0     C16812   6.323   4.279   5.851 -0.0955  0.2585 -0.0965
  128MOL0     C16813   6.185   4.288   5.872  0.1139 -0.2209 -0.4711
  128MOL0     N16814   5.375   4.342   6.136 -0.1699 -0.4660 -0.9938
  128MOL0     N16815   5.277   4.335   6.057 -0.1864 -0.3646 -0.4663
  128MOL0     C16816   4.274   4.843   6.508 -0.6387  0.0292 -0.5461
  128MOL0     C16817   4.151   4.837   6.576  0.0360 -2.0763 -0.5636
  128MOL0     C16818   3.692   4.673   6.595 -0.6539 -0.1320  0.0981
  128MOL0     C16819   3.700   4.645   6.734  0.7981  0.5955 -0.6687
  128MOL0     C16820   3.581   4.618   6.801  0.7991 -0.9043  0.2675
  128MOL0     C16821   3.455   4.627   6.736 -0.2214  0.8273 -0.9215
  128MOL0     O16822   3.333   4.603   6.799 -0.3423  1.2714 -0.0396
  128MOL0     C16823   3.314   4.564   6.933 -0.1038  0.1259 -0.3615
  128MOL0     C16824   3.299   4.694   7.000 -0.6515 -0.2210 -0.3904
  128MOL0     C16825   3.215   4.811   6.932  0.4835  0.2143 -0.3593
  128MOL0     C16826   3.078   4.769   6.871 -0.5630  0.1115 -0.6201
  128MOL0     C16827   2.996   4.890   6.866  0.5185  0.4954  1.0506
  128MOL0     C16828   2.906   4.975   6.850 -0.4184 -0.5304 -0.4494
  128MOL0     C16829   3.451   4.655   6.600  0.5310 -0.1631  0.1327
  128MOL0     C16830   3.566   4.683   6.529  0.4874  0.5824  0.7036
  128MOL0     H16831   4.032   4.567   6.408  0.7896 -0.1087 -2.6891
  128MOL0     H16832   4.251   4.575   6.304  1.7161  1.6150 -0.4634
  128MOL0     H16833   4.446   4.679   6.182  1.5081  0.0834 -0.2037
  128MOL0     H16834   4.509   4.550   6.295  2.3621 -0.0724  1.0855
  128MOL0     H16835   4.704   4.705   6.328  0.5600  0.9995 -0.3234
  128MOL0     H16836   4.654   4.806   6.201 -0.2309 -0.4533 -0.0527
  128MOL0     H16837   4.652   4.632   6.032  2.4716  1.3392 -0.6825
  128MOL0     H16838   4.691   4.507   6.150 -2.1841  0.1804  1.1605
  128MOL0     H16839   4.862   4.755   6.079  1.4242  0.0854 -0.2086
  128MOL0     H16840   4.911   4.624   6.194  0.6194  4.3089  0.9964
  128MOL0     H16841   4.861   4.596   5.887 -0.8331  1.7631  0.2315
  128MOL0     H16842   4.909   4.467   6.002 -1.0813  0.2140  0.8191
  128MOL0     H16843   5.121   4.581   6.046  0.5139  1.4878  0.6488
  128MOL0     H16844   5.075   4.715   5.940 -1.8450  0.2866  1.0086
  128MOL0     H16845   5.053   4.536   5.748 -0.4733 -0.7037  0.0624
  128MOL0     H16846   5.211   4.605   5.793 -0.4609  0.2591  0.1397
  128MOL0     H16847   5.251   4.383   5.744 -1.2443 -1.5814 -0.8042
  128MOL0     H16848   5.121   4.318   5.846  0.1082 -0.8381  2.0665
  128MOL0     H16849   5.464   4.528   5.871 -1.8148  1.7283 -0.4035
  128MOL0     H16850   5.573   4.418   6.233  2.0275  3.5913  2.2343
  128MOL0     H16851   5.616   4.561   6.138 -3.3389  0.7165  0.0786
  128MOL0     H16852   5.686   4.265   6.089 -2.0514  1.4188 -1.4225
  128MOL0     H16853   5.795   4.393   6.158 -0.9634 -0.3283  0.7340
  128MOL0     H16854   5.679   4.395   5.866  0.0982  1.3848 -1.7452
  128MOL0     H16855   5.783   4.513   5.929  1.2691 -0.2201 -2.0493
  128MOL0     H16856   5.911   4.346   5.813 -1.9728 -1.5232  0.2985
  128MOL0     H16857   5.887   4.228   5.929 -0.1646 -0.0097  0.6127
  128MOL0     H16858   6.201   4.513   6.124 -0.9485 -0.5215 -0.2427
  128MOL0     H16859   6.451   4.497   6.062  0.8699 -1.4467  0.3222
  128MOL0     H16860   6.751   4.146   6.118  0.1603 -0.0567 -0.9820
  128MOL0     H16861   7.003   4.093   6.113  0.3442 -0.2689 -3.4047
  128MOL0     H16862   7.273   4.282   5.885 -1.4765 -0.5099 -0.0275
  128MOL0     H16863   7.366   4.190   6.008 -1.8859 -0.6621 -1.7053
  128MOL0     H16864   7.339   4.418   6.155  0.0069  2.8380  0.2778
  128MOL0     H16865   7.300   4.489   5.998  4.5671  1.6918 -4.1962
  128MOL0     H16866   7.515   4.454   5.929  0.7609  0.5228  0.9566
  128MOL0     H16867   7.536   4.324   6.047 -1.5565 -0.5664  2.0351
  128MOL0     H16868   7.510   4.615   6.159  0.9582  1.5715 -1.7580
  128MOL0     H16869   7.574   4.468   6.235  4.1513 -0.4249 -0.7474
  128MOL0     H16870   7.774   4.476   6.112  0.0105 -0.2095  3.8186
  128MOL0     H16871   7.753   4.621   6.197 -3.5127  0.1364  0.6462
  128MOL0     H16872   7.642   4.725   5.984 -0.5481  0.0127 -1.6753
  128MOL0     H16873   7.699   4.577   5.912 -1.1100  1.5429 -0.0370
  128MOL0     H16874   7.896   4.741   6.084  0.3330 -0.4217  0.0714
  128MOL0     H16875   7.928   4.635   5.947 -0.8216 -0.9132  1.5975
  128MOL0     H16876   7.952   4.878   5.877  1.8202 -1.3889  0.2254
  128MOL0     H16877   7.782   4.892   5.913 -0.4870 -0.8561  1.8796
  128MOL0     H16878   7.083   4.480   5.944  0.2784 -0.4093 -0.2240
  128MOL0     H16879   6.838   4.518   5.915 -1.3672 -1.1308 -1.5954
  128MOL0     H16880   6.353   4.225   5.762  0.7138  3.8266 -2.1554
  128MOL0     H16881   6.099   4.248   5.819 -1.7671 -0.1741  2.3252
  128MOL0     H16882   4.364   4.884   6.552 -1.9822  1.0710  1.3704
  128MOL0     H16883   4.127   4.903   6.659 -2.5748 -3.7902  0.1518
  128MOL0     H16884   3.799   4.654   6.779 -0.0245  0.9952  1.1378
  128MOL0     H16885   3.582   4.600   6.908 -2.2028  0.1775  0.5753
  128MOL0     H16886   3.388   4.502   6.984 -0.4623 -2.2155 -2.4720
  128MOL0     H16887   3.217   4.514   6.939 -1.1777  1.9830 -1.3793
  128MOL0     H16888   3.261   4.673   7.101  0.0857  0.2345 -0.0106
  128MOL0     H16889   3.401   4.731   7.017 -0.3497  0.3023 -3.0239
  128MOL0     H16890   3.273   4.843   6.845 -0.0320 -0.3401 -0.9183
  128MOL0     H16891   3.200   4.878   7.017 -0.3308  2.3321 -2.0739
  128MOL0     H16892   3.091   4.730   6.770  0.9551  2.0013 -1.2068
  128MOL0     H16893   3.021   4.700   6.935  0.1959  1.5308  1.7144
  128MOL0     H16894   2.846   5.063   6.843 -1.9266 -1.4674  0.0984
  128MOL0     H16895   3.349   4.674   6.568 -0.5217  1.3093  3.8728
  128MOL0     H16896   3.569   4.710   6.425  0.8196 -2.1052 -0.0737
  129MOL0     O16897   9.439  10.784   1.418 -0.3023  0.3641 -0.8144
  129MOL0     C16898   9.505  10.880   1.375  0.8289  0.1284  0.0342
  129MOL0     O16899   9.449  10.985   1.300 -0.0189 -0.0589  0.1987
  129MOL0     C16900   9.309  10.983   1.287 -0.0330  0.3224  0.2533
  129MOL0     C16901   9.231  10.885   1.221 -0.5706  0.2472 -0.2430
  129MOL0     C16902   9.100  10.893   1.198  0.8872 -0.4507 -0.4114
  129MOL0     C16903   9.032  11.006   1.239 -0.1909  0.7441 -0.6082
  129MOL0     O16904   8.903  11.038   1.196  0.0755 -0.0588 -0.0737
  129MOL0     C16905   8.818  10.919   1.192 -0.1819 -0.1649  0.5146
  129MOL0     C16906   8.792  10.882   1.042  0.2114  0.3657  0.0349
  129MOL0     C16907   8.717  10.747   1.038 -0.1799 -0.2425 -0.2307
  129MOL0     C16908   8.674  10.704   0.894 -0.5143 -0.4953 -0.4683
  129MOL0     C16909   8.595  10.572   0.900 -0.1640  0.8987 -0.0128
  129MOL0     C16910   8.475  10.571   0.805  0.2081  0.2349  0.4945
  129MOL0     C16911   8.394  10.444   0.832 -1.0853  0.6631  0.4160
  129MOL0     C16912   8.317  10.442   0.959  0.3165 -0.0709  0.5737
  129MOL0     N16913   8.202  10.348   0.956  0.1005 -0.2224 -0.5682
  129MOL0     C16914   8.071  10.368   0.986 -0.2769 -0.3394  0.4248
  129MOL0     C16915   8.014  10.244   0.980  0.7646 -0.5940 -0.6894
  129MOL0     C16916   7.862  10.230   0.981  0.1413 -0.7204 -0.0287
  129MOL0     C16917   7.770  10.353   1.025 -0.2781  0.5647 -0.8809
  129MOL0     C16918   7.626  10.302   1.012  0.2269 -1.0291 -0.1592
  129MOL0     C16919   7.521  10.416   1.052  0.0730  0.4067 -0.5178
  129MOL0     O16920   7.395  10.348   1.033 -0.7483 -0.8886 -0.1059
  129MOL0     C16921   7.293  10.401   1.114 -0.6720 -0.0395  0.6067
  129MOL0     C16922   7.284  10.537   1.136  0.1254 -0.3178 -0.3041
  129MOL0     C16923   7.154  10.587   1.174  0.5966 -0.2336 -0.4068
  129MOL0     C16924   7.042  10.507   1.185 -0.3040  0.2918  0.3259
  129MOL0     C16925   6.898  10.547   1.213 -0.6157  0.2015 -0.2899
  129MOL0     O16926   6.882  10.673   1.246  0.2457 -0.5561 -0.5553
  129MOL0     C16927   6.763  10.745   1.271  1.0454 -0.0575 -0.1708
  129MOL0     C16928   6.624  10.693   1.258 -0.6060  0.3650 -0.0130
  129MOL0     C16929   6.514  10.778   1.282 -0.3905  1.0426 -0.8993
  129MOL0     C16930   6.531  10.909   1.307  0.0918 -0.2491  0.0922
  129MOL0     O16931   6.420  10.987   1.294  1.0105 -0.4578 -0.0067
  129MOL0     C16932   6.402  11.092   1.396 -0.4654  0.5187  0.4938
  129MOL0     C16933   6.248  11.105   1.419  0.1802 -1.2205  0.7040
  129MOL0     C16934   6.188  10.974   1.474 -0.3039  0.0009  0.4012
  129MOL0     C16935   6.062  11.005   1.549  0.9025  0.2422  0.3902
  129MOL0     C16936   5.991  10.890   1.619  0.4686  0.0965 -1.4028
  129MOL0     C16937   5.864  10.943   1.687  0.1907 -0.7619 -0.0563
  129MOL0     C16938   5.775  10.834   1.752 -0.6527  0.0714  0.4737
  129MOL0     C16939   5.639  10.885   1.799 -0.4565 -0.2591 -0.1128
  129MOL0    Cl16940   5.567  10.788   1.927  0.0475  0.3895 -0.4731
  129MOL0     C16941   6.660  10.963   1.329 -0.3206  1.2170  0.4545
  129MOL0     C16942   6.775  10.880   1.318  0.1058  0.3696 -0.5575
  129MOL0     O16943   6.812  10.457   1.233 -0.3614 -0.1323 -0.1083
  129MOL0     C16944   7.062  10.365   1.177  0.1380 -1.1378  0.6194
  129MOL0     C16945   7.185  10.315   1.135  0.6217  1.7677  0.4335
  129MOL0     N16946   8.106  10.154   0.957 -0.4469  0.4304 -0.4330
  129MOL0     N16947   8.222  10.210   0.940  0.1690  0.0838 -0.3507
  129MOL0     C16948   9.106  11.113   1.302  0.4798 -0.6461 -0.1579
  129MOL0     C16949   9.242  11.098   1.323  0.4037  0.7157 -0.0274
  129MOL0     C16950   9.656  10.869   1.379  0.4265  0.3459  0.1060
  129MOL0     C16951   9.738  10.972   1.322  0.4324  0.7293 -0.4994
  129MOL0     C16952   9.877  10.964   1.315  0.0308 -0.2235 -0.3460
  129MOL0     C16953   9.937  10.844   1.345 -0.4228 -0.9373  0.1236
  129MOL0     O16954  10.069  10.845   1.330 -0.1622  0.3035  0.3497
  129MOL0     C16955  10.145  10.719   1.314  0.1229  0.7659 -0.0533
  129MOL0     C16956  10.295  10.739   1.272  0.3803 -0.2077 -0.6530
  129MOL0     C16957  10.369  10.614   1.241 -0.2679  0.2465 -0.0870
  129MOL0     C16958  10.303  10.518   1.144 -0.3596  0.6861  0.5988
  129MOL0     C16959  10.248  10.582   1.018  0.4973 -0.1519 -0.7360
  129MOL0     C16960  10.210  10.622   0.909 -0.2190 -1.2563 -0.5812
  129MOL0     C16961   9.859  10.741   1.399 -0.0471 -0.5111  1.2511
  129MOL0     C16962   9.717  10.749   1.418 -0.2166  0.2001 -0.0896
  129MOL0     H16963   9.279  10.802   1.171 -0.5228  0.3826 -0.4232
  129MOL0     H16964   9.055  10.804   1.154  0.8748  0.1542 -1.6660
  129MOL0     H16965   8.718  10.945   1.227 -1.4026 -0.9027 -2.1140
  129MOL0     H16966   8.855  10.837   1.253 -1.9477 -2.0591 -0.8317
  129MOL0     H16967   8.887  10.877   0.986 -0.8294 -1.5647 -1.7099
  129MOL0     H16968   8.730  10.958   0.994 -1.0791  0.1884  1.3775
  129MOL0     H16969   8.626  10.767   1.095  0.0698 -1.3830  0.6208
  129MOL0     H16970   8.773  10.670   1.092 -0.8373  0.8500  2.1496
  129MOL0     H16971   8.615  10.785   0.852  0.9923  0.4208 -0.9047
  129MOL0     H16972   8.766  10.703   0.834  0.2857  0.5969  0.6780
  129MOL0     H16973   8.541  10.565   0.995 -2.2384  0.3014 -1.1703
  129MOL0     H16974   8.671  10.494   0.886  1.5177  1.4593  4.3953
  129MOL0     H16975   8.503  10.576   0.699 -0.6080  0.3131  0.2775
  129MOL0     H16976   8.415  10.660   0.828 -1.6366 -0.4923 -1.2109
  129MOL0     H16977   8.333  10.427   0.742  1.0129  0.9732 -1.1292
  129MOL0     H16978   8.463  10.360   0.833  0.8427  2.1229 -0.8944
  129MOL0     H16979   8.263  10.535   0.981 -0.3185 -0.6372  1.4879
  129MOL0     H16980   8.385  10.425   1.043  1.0162  0.1036  0.0576
  129MOL0     H16981   8.019  10.463   0.982 -1.4797 -0.9562  0.9288
  129MOL0     H16982   7.841  10.153   1.055  0.8702 -1.6018 -0.7284
  129MOL0     H16983   7.818  10.203   0.884 -3.0185  0.3536  0.9682
  129MOL0     H16984   7.791  10.439   0.961 -0.5659  1.0556 -0.3145
  129MOL0     H16985   7.797  10.372   1.129  2.3915 -2.0388 -0.9535
  129MOL0     H16986   7.621  10.284   0.904  0.0556  0.1236 -0.3572
  129MOL0     H16987   7.604  10.209   1.064 -0.6448 -1.5890 -1.4770
  129MOL0     H16988   7.525  10.499   0.982 -0.4179  0.7085 -0.1947
  129MOL0     H16989   7.545  10.454   1.152 -0.1245 -2.3507  0.6806
  129MOL0     H16990   7.365  10.606   1.116 -0.0161 -0.1957 -0.4602
  129MOL0     H16991   7.146  10.695   1.177 -0.6858 -0.2443 -2.2851
  129MOL0     H16992   6.616  10.594   1.215  0.3163  1.1082 -2.0206
  129MOL0     H16993   6.416  10.732   1.281 -0.0593  0.2437 -3.4901
  129MOL0     H16994   6.443  11.180   1.345  2.2435 -1.9094 -1.9118
  129MOL0     H16995   6.450  11.065   1.490  1.7543 -2.9250 -1.4212
  129MOL0     H16996   6.202  11.140   1.327 -1.1271 -1.8726  1.0904
  129MOL0     H16997   6.232  11.177   1.501 -1.0878 -0.5211 -0.1241
  129MOL0     H16998   6.260  10.925   1.541  0.7163  1.9821  0.8439
  129MOL0     H16999   6.172  10.905   1.391 -2.4232  2.5243 -1.4177
  129MOL0     H17000   6.082  11.081   1.624  0.2526  1.9150 -1.0780
  129MOL0     H17001   6.004  11.050   1.468  0.6610  2.5147  1.7380
  129MOL0     H17002   6.051  10.847   1.700  1.7885 -0.5118 -2.6746
  129MOL0     H17003   5.970  10.820   1.538  3.0348 -0.9026 -1.2799
  129MOL0     H17004   5.809  10.995   1.609  1.5906  0.9369  0.0384
  129MOL0     H17005   5.898  11.025   1.750  0.5884  1.5240 -3.0294
  129MOL0     H17006   5.756  10.748   1.687 -0.8817  0.4532  0.0293
  129MOL0     H17007   5.827  10.787   1.836 -0.5830 -1.8429 -0.5958
  129MOL0     H17008   5.571  10.896   1.714  0.2986 -0.3317 -0.7398
  129MOL0     H17009   5.651  10.987   1.836  1.1239 -0.9340  1.3627
  129MOL0     H17010   6.658  11.069   1.350  0.0236  1.8696 -2.3573
  129MOL0     H17011   6.874  10.919   1.340  0.2597  2.3936 -4.0970
  129MOL0     H17012   6.979  10.298   1.196 -2.2003  1.4930  0.4376
  129MOL0     H17013   7.209  10.210   1.122  0.8971  1.9524 -0.6411
  129MOL0     H17014   9.061  11.211   1.313  2.0218  0.3189 -1.9550
  129MOL0     H17015   9.294  11.192   1.341  0.0404  1.1030 -0.9345
  129MOL0     H17016   9.682  11.061   1.293  0.6379  1.0461  0.0746
  129MOL0     H17017   9.935  11.050   1.285  0.3735 -0.1387  0.5383
  129MOL0     H17018  10.095  10.638   1.259 -0.8265  2.3794 -1.6935
  129MOL0     H17019  10.153  10.679   1.415 -0.7393  2.6930  0.8084
  129MOL0     H17020  10.305  10.802   1.183 -1.0722 -0.7974 -1.2633
  129MOL0     H17021  10.342  10.782   1.361 -3.4364 -2.3516  2.7808
  129MOL0     H17022  10.405  10.559   1.328  1.7904 -2.4885 -2.4582
  129MOL0     H17023  10.467  10.642   1.200  1.7583 -3.4689  1.7381
  129MOL0     H17024  10.377  10.442   1.121  2.3149  1.9867  4.0791
  129MOL0     H17025  10.226  10.456   1.189 -0.7403  0.8084  0.1349
  129MOL0     H17026  10.163  10.670   0.825 -1.3421 -0.2718  0.5511
  129MOL0     H17027   9.899  10.644   1.425  0.3902 -0.1698  1.8644
  129MOL0     H17028   9.665  10.666   1.464  1.5934  0.2265  2.1528
  130MOL0     O17029   1.683   6.516  10.969 -0.0446 -0.1706  0.4137
  130MOL0     C17030   1.681   6.484  10.846  0.1988 -0.7059 -0.7557
  130MOL0     O17031   1.567   6.482  10.756  0.0529  0.1210 -0.0927
  130MOL0     C17032   1.437   6.508  10.798  0.4052  0.3311  0.0874
  130MOL0     C17033   1.342   6.509  10.701 -0.0084  0.2204 -0.0313
  130MOL0     C17034   1.211   6.538  10.720 -0.2873 -0.0495 -0.2405
  130MOL0     C17035   1.159   6.573  10.843 -1.2017  0.0117 -0.0967
  130MOL0     O17036   1.026   6.612  10.844  0.1421  0.2539  0.3156
  130MOL0     C17037   0.958   6.594  10.969 -0.8917  0.2436  0.1577
  130MOL0     C17038   0.808   6.617  10.956 -0.1259  0.4037 -0.5762
  130MOL0     C17039   0.726   6.608  11.093 -0.6568  0.2429  0.6786
  130MOL0     C17040   0.582   6.646  11.086  0.2996  0.1792  0.0986
  130MOL0     C17041   0.508   6.623  11.219 -0.1496  0.6032  0.2653
  130MOL0     C17042   0.521   6.476  11.271 -1.0388  0.1603  0.0790
  130MOL0     C17043   0.451   6.372  11.190  0.6327 -0.2416  0.1274
  130MOL0     C17044   0.481   6.223  11.230  0.7978 -0.9530  0.4982
  130MOL0     N17045   0.389   6.137  11.163 -0.3939  0.0736 -0.1463
  130MOL0     C17046   0.253   6.141  11.185 -0.7461  0.3989  0.3449
  130MOL0     C17047   0.202   6.060  11.088 -0.6130  0.6833  0.4870
  130MOL0     C17048   0.058   6.045  11.044 -0.2920 -0.2866  0.0985
  130MOL0     C17049   0.013   5.897  11.053 -0.5544  0.0173 -1.0655
  130MOL0     C17050   0.005   5.860  11.199  0.0685 -0.3705 -0.2139
  130MOL0     C17051  -0.056   5.715  11.211  0.7957  0.0406  0.8624
  130MOL0     O17052  -0.189   5.727  11.158 -0.3974  0.9014  0.0600
  130MOL0     C17053  -0.272   5.616  11.192  1.3028 -0.4258  0.0210
  130MOL0     C17054  -0.407   5.642  11.154 -0.1597  0.0857 -0.3429
  130MOL0     C17055  -0.507   5.552  11.188  0.4826  0.0550 -0.1470
  130MOL0     C17056  -0.477   5.426  11.253  0.0941  0.5273  0.3271
  130MOL0     C17057  -0.573   5.336  11.304 -0.2492  0.1313 -0.2017
  130MOL0     O17058  -0.699   5.382  11.298 -1.1330  0.3709 -0.5079
  130MOL0     C17059  -0.803   5.295  11.323  0.0885 -0.1457 -0.1878
  130MOL0     C17060  -0.820   5.182  11.241 -0.1452 -0.4515 -0.3264
  130MOL0     C17061  -0.931   5.093  11.261  1.0386 -0.1436 -0.1394
  130MOL0     C17062  -1.028   5.123  11.352 -0.2087 -0.7470  0.4268
  130MOL0     O17063  -1.127   5.025  11.376  0.0150 -0.3287 -0.5549
  130MOL0     C17064  -1.258   5.082  11.351  0.2773  0.8889  0.1063
  130MOL0     C17065  -1.279   5.101  11.199 -0.3889  0.0635 -0.1275
  130MOL0     C17066  -1.431   5.110  11.159 -0.2367 -1.3566  0.4718
  130MOL0     C17067  -1.490   5.221  11.241 -0.1856  0.2286 -0.8675
  130MOL0     C17068  -1.625   5.272  11.200 -0.1924 -0.3763 -0.0655
  130MOL0     C17069  -1.621   5.358  11.069  0.5229 -0.0281 -0.1759
  130MOL0     C17070  -1.753   5.420  11.035  0.7323 -0.6954 -0.7294
  130MOL0     C17071  -1.854   5.324  10.982 -0.5225  0.2176 -0.1196
  130MOL0    Cl17072  -2.010   5.388  11.024 -0.1647  0.0092 -0.0526
  130MOL0     C17073  -1.011   5.244  11.421 -0.1818  0.3430 -0.2792
  130MOL0     C17074  -0.898   5.324  11.412 -0.3075 -0.7044 -0.7804
  130MOL0     O17075  -0.542   5.231  11.367 -0.1555 -0.3439 -0.3608
  130MOL0     C17076  -0.334   5.399  11.268  1.0175 -0.3811 -0.5291
  130MOL0     C17077  -0.236   5.492  11.237  0.8710 -0.0333 -0.2879
  130MOL0     N17078   0.307   5.986  11.030  0.2783  0.6879  0.0442
  130MOL0     N17079   0.423   6.039  11.072 -0.7048 -0.3249  0.1302
  130MOL0     C17080   1.254   6.574  10.944 -0.7925  0.5015 -0.4173
  130MOL0     C17081   1.385   6.539  10.922  0.5131  0.0149  0.0963
  130MOL0     C17082   1.814   6.446  10.793  0.0474 -0.7206  0.5572
  130MOL0     C17083   1.824   6.440  10.647  0.4707 -0.2265  0.1128
  130MOL0     C17084   1.949   6.412  10.594  0.2410  0.1453  0.4785
  130MOL0     C17085   2.064   6.401  10.666 -0.6108  0.7654 -0.6550
  130MOL0     O17086   2.183   6.368  10.606 -0.2704  0.5162 -0.1257
  130MOL0     C17087   2.274   6.296  10.686 -0.3558  0.1108  0.7578
  130MOL0     C17088   2.395   6.260  10.602 -0.0520  0.0720  0.5600
  130MOL0     C17089   2.356   6.167  10.481  0.1832 -0.4510  0.0052
  130MOL0     C17090   2.462   6.110  10.387 -0.0027 -0.0605  0.0068
  130MOL0     C17091   2.557   6.034  10.462  0.4208  0.2233 -0.6113
  130MOL0     C17092   2.626   5.956  10.532  1.1379  0.0684 -0.1551
  130MOL0     C17093   2.051   6.410  10.806 -0.1178  0.2653  0.7133
  130MOL0     C17094   1.927   6.421  10.872  0.2821 -0.1489  0.7798
  130MOL0     H17095   1.381   6.495  10.601 -1.5965  0.3755 -0.6928
  130MOL0     H17096   1.154   6.540  10.627  0.3843 -0.8571 -0.6736
  130MOL0     H17097   0.998   6.658  11.048 -1.0654  1.8888 -1.0430
  130MOL0     H17098   0.977   6.490  10.997 -1.0802  0.0397 -0.4492
  130MOL0     H17099   0.769   6.541  10.887  0.0114  0.0521 -0.2712
  130MOL0     H17100   0.801   6.720  10.921  2.0997  1.2864  1.3307
  130MOL0     H17101   0.776   6.677  11.162  1.1747  0.7834 -1.0837
  130MOL0     H17102   0.730   6.506  11.132 -1.3760 -0.4886 -1.0458
  130MOL0     H17103   0.584   6.753  11.067  0.6877  0.4032  1.3036
  130MOL0     H17104   0.523   6.600  11.006  0.7797  1.4945 -1.0358
  130MOL0     H17105   0.404   6.653  11.201 -0.8611 -0.7725  1.8663
  130MOL0     H17106   0.553   6.701  11.282  1.0812  0.5553 -0.5171
  130MOL0     H17107   0.481   6.477  11.373  1.7385 -1.1839  1.2740
  130MOL0     H17108   0.624   6.446  11.293 -0.2543  2.9529  0.5539
  130MOL0     H17109   0.345   6.396  11.201  0.4914  0.4598 -2.1670
  130MOL0     H17110   0.489   6.388  11.089  1.2912  1.3968  0.6056
  130MOL0     H17111   0.471   6.216  11.338 -1.1850 -0.1538  0.4137
  130MOL0     H17112   0.584   6.203  11.201  0.6208 -0.7659 -0.2872
  130MOL0     H17113   0.193   6.195  11.258 -1.4093 -0.9577  0.8340
  130MOL0     H17114   0.044   6.078  10.940 -1.5730  3.1685  1.2136
  130MOL0     H17115  -0.010   6.114  11.096 -0.4610 -0.6315  0.3343
  130MOL0     H17116   0.078   5.823  11.004 -3.0984 -1.6008 -2.2187
  130MOL0     H17117  -0.081   5.882  11.000 -0.5742 -0.2497 -0.9557
  130MOL0     H17118   0.106   5.856  11.241 -0.2314 -0.4589  0.5066
  130MOL0     H17119  -0.057   5.932  11.252 -1.2780  0.6562 -2.9797
  130MOL0     H17120  -0.059   5.684  11.316 -0.5870  0.2328  0.8955
  130MOL0     H17121   0.002   5.639  11.158 -2.8937 -1.2951 -1.6194
  130MOL0     H17122  -0.424   5.739  11.108  0.9442  0.0738 -0.8123
  130MOL0     H17123  -0.605   5.594  11.166  0.5355  0.2257 -0.0627
  130MOL0     H17124  -0.743   5.166  11.167 -2.3735  2.1472 -3.4942
  130MOL0     H17125  -0.935   5.018  11.182  1.0493  0.2906 -0.5620
  130MOL0     H17126  -1.261   5.175  11.408  2.5074  2.3250 -1.9158
  130MOL0     H17127  -1.329   5.007  11.388 -2.1692  1.8464 -2.3855
  130MOL0     H17128  -1.234   5.013  11.154  0.1076 -0.7946  1.9474
  130MOL0     H17129  -1.229   5.195  11.173  1.0568 -0.5938  0.2176
  130MOL0     H17130  -1.489   5.018  11.166 -0.2592 -1.4265 -0.5181
  130MOL0     H17131  -1.430   5.142  11.054 -0.8531 -1.0628  0.5518
  130MOL0     H17132  -1.515   5.178  11.338 -1.5661  2.9340  0.0803
  130MOL0     H17133  -1.422   5.304  11.261 -0.6974  0.6397 -0.8068
  130MOL0     H17134  -1.671   5.325  11.285  0.0453  1.2638 -0.9174
  130MOL0     H17135  -1.678   5.181  11.173 -1.4863  1.0100 -2.5465
  130MOL0     H17136  -1.593   5.289  10.989  0.7436  0.2505 -0.3402
  130MOL0     H17137  -1.548   5.440  11.067 -1.0358  1.4870 -3.6053
  130MOL0     H17138  -1.783   5.472  11.126  2.3884 -0.2018 -0.4236
  130MOL0     H17139  -1.737   5.495  10.957 -1.4973  0.0852 -0.5057
  130MOL0     H17140  -1.844   5.226  11.030  0.2214 -1.0141 -2.6328
  130MOL0     H17141  -1.836   5.312  10.875  1.9887 -0.0382  0.2733
  130MOL0     H17142  -1.089   5.273  11.491 -1.6098 -2.2267 -0.6832
  130MOL0     H17143  -0.889   5.408  11.479 -2.0694  0.6848 -2.1897
  130MOL0     H17144  -0.316   5.310  11.326  1.4758  0.9793  1.5103
  130MOL0     H17145  -0.134   5.475  11.270  1.2189 -0.2357 -1.4258
  130MOL0     H17146   1.234   6.591  11.050  0.6838 -1.9451  0.3372
  130MOL0     H17147   1.439   6.521  11.015 -2.4676 -1.4318  1.6815
  130MOL0     H17148   1.731   6.445  10.593  0.8428 -0.9554 -0.6275
  130MOL0     H17149   1.954   6.415  10.486 -2.2306 -1.8286  0.2145
  130MOL0     H17150   2.233   6.203  10.725  1.2592  0.2652  3.0037
  130MOL0     H17151   2.311   6.348  10.775 -0.2173 -1.4232  1.6193
  130MOL0     H17152   2.431   6.351  10.553 -1.2524  0.5049  0.4640
  130MOL0     H17153   2.464   6.207  10.668 -0.2025 -2.2517 -1.0689
  130MOL0     H17154   2.292   6.225  10.413 -0.2550 -1.6113 -0.6064
  130MOL0     H17155   2.302   6.078  10.513 -0.3824 -0.5463 -1.1614
  130MOL0     H17156   2.428   6.032  10.318  0.5970 -0.9688  0.7089
  130MOL0     H17157   2.510   6.188  10.328  2.8716 -1.0073  0.9584
  130MOL0     H17158   2.682   5.906  10.608 -0.8808 -0.2044  1.2409
  130MOL0     H17159   2.138   6.405  10.870 -1.4615  1.9300  2.8251
  130MOL0     H17160   1.925   6.408  10.980 -0.3649 -1.2922  0.6455
  131MOL0     O17161  10.411   7.188   3.722 -0.5652  0.5647  0.1075
  131MOL0     C17162  10.481   7.109   3.660  0.8487  0.9665 -0.3183
  131MOL0     O17163  10.447   6.979   3.624  0.3111 -0.3383 -0.0465
  131MOL0     C17164  10.325   6.923   3.647 -0.5967 -0.3557 -0.0495
  131MOL0     C17165  10.317   6.793   3.707 -0.1149  0.1894  0.8409
  131MOL0     C17166  10.189   6.748   3.744  0.4943  0.5499  0.2972
  131MOL0     C17167  10.070   6.824   3.741  0.4359 -0.3923  0.1230
  131MOL0     O17168   9.958   6.772   3.786 -0.2114  0.1060 -0.1432
  131MOL0     C17169   9.837   6.809   3.727  0.1873 -0.1480 -0.3496
  131MOL0     C17170   9.715   6.748   3.794 -0.2138 -1.4940 -0.3333
  131MOL0     C17171   9.707   6.599   3.773  0.1822  0.0296  0.0686
  131MOL0     C17172   9.717   6.541   3.630  0.3012 -0.7780 -0.6290
  131MOL0     C17173   9.710   6.389   3.634  0.3371 -0.1586  0.2477
  131MOL0     C17174   9.711   6.320   3.494  0.1139  0.3382  0.1559
  131MOL0     C17175   9.578   6.318   3.414 -0.5597 -0.3614 -0.2406
  131MOL0     C17176   9.548   6.443   3.333 -0.2859 -0.1376  0.6028
  131MOL0     N17177   9.458   6.414   3.216 -0.7601  0.2434 -0.3310
  131MOL0     C17178   9.329   6.352   3.217  0.7926 -0.0261 -0.0748
  131MOL0     C17179   9.315   6.304   3.086  0.4842 -0.0370  0.0366
  131MOL0     C17180   9.187   6.238   3.033  0.7762  0.1515 -0.1871
  131MOL0     C17181   9.076   6.330   2.982  0.6098 -0.6693 -0.0659
  131MOL0     C17182   9.111   6.398   2.846  0.2529 -0.3505 -0.4362
  131MOL0     C17183   9.006   6.505   2.809 -0.4623 -0.4142  0.0290
  131MOL0     O17184   8.870   6.463   2.803 -0.1554 -0.3062  0.2406
  131MOL0     C17185   8.768   6.554   2.796  0.5401 -0.2654  0.7816
  131MOL0     C17186   8.641   6.512   2.823 -0.0514 -0.5865 -0.3406
  131MOL0     C17187   8.538   6.607   2.833  0.0253 -0.0869 -0.1186
  131MOL0     C17188   8.561   6.739   2.797  0.2730 -0.2145 -0.4383
  131MOL0     C17189   8.449   6.829   2.787 -0.8062 -0.2650  0.1043
  131MOL0     O17190   8.473   6.948   2.722  0.1491 -0.4971  0.4561
  131MOL0     C17191   8.352   7.011   2.680 -0.4940 -0.5578 -0.5264
  131MOL0     C17192   8.303   6.997   2.544 -1.2062 -0.1403  0.3427
  131MOL0     C17193   8.186   7.055   2.502 -0.4175 -0.7452 -0.1470
  131MOL0     C17194   8.109   7.121   2.601 -0.0192 -0.1758 -1.4299
  131MOL0     O17195   7.986   7.175   2.563  0.1774  0.5113  0.0637
  131MOL0     C17196   7.990   7.253   2.439  0.4928 -0.5553 -0.5499
  131MOL0     C17197   7.871   7.351   2.446  0.7564  0.1106  0.1051
  131MOL0     C17198   7.746   7.287   2.511 -0.3312  0.3731 -0.6547
  131MOL0     C17199   7.614   7.372   2.505  0.7528  0.2825 -0.6528
  131MOL0     C17200   7.520   7.329   2.622  0.1010 -0.0764  0.0198
  131MOL0     C17201   7.389   7.408   2.618  0.5346 -0.6060 -1.3525
  131MOL0     C17202   7.294   7.352   2.726 -0.0946  1.1336  0.7409
  131MOL0     C17203   7.175   7.429   2.754 -0.0265 -0.4297  0.2828
  131MOL0    Cl17204   7.082   7.442   2.603  0.0657 -0.2874  0.3671
  131MOL0     C17205   8.151   7.132   2.735  0.6527 -0.0909 -0.8440
  131MOL0     C17206   8.281   7.092   2.771 -0.5872  0.3805 -0.2439
  131MOL0     O17207   8.340   6.786   2.813  0.9530 -0.2494  0.4492
  131MOL0     C17208   8.686   6.778   2.757 -0.0768  0.3932 -0.7693
  131MOL0     C17209   8.798   6.690   2.771  0.1684  0.3369  0.1367
  131MOL0     N17210   9.417   6.352   3.010 -0.1013 -0.4758  0.5638
  131MOL0     N17211   9.496   6.413   3.088 -0.9830  0.4221  0.1602
  131MOL0     C17212  10.078   6.954   3.677 -0.7678 -0.7927 -0.2900
  131MOL0     C17213  10.206   7.007   3.630  0.2272  0.2955 -0.7282
  131MOL0     C17214  10.604   7.159   3.599 -0.5823 -0.7458 -0.4209
  131MOL0     C17215  10.659   7.284   3.630 -0.2405 -0.2519 -0.3778
  131MOL0     C17216  10.776   7.328   3.571  0.5594 -0.2123 -0.7490
  131MOL0     C17217  10.846   7.258   3.474  0.1089 -0.3696  1.3721
  131MOL0     O17218  10.962   7.317   3.419  0.4706  0.1950 -0.2980
  131MOL0     C17219  11.062   7.246   3.350  0.6094  0.3762  0.1749
  131MOL0     C17220  11.178   7.225   3.455  0.0326  0.8189 -0.2454
  131MOL0     C17221  11.244   7.350   3.506  0.5681  0.1710  0.3305
  131MOL0     C17222  11.365   7.392   3.427  0.3314  1.2997  0.1463
  131MOL0     C17223  11.428   7.516   3.486  0.2029 -0.2386  0.0246
  131MOL0     C17224  11.478   7.612   3.527  0.0307 -0.0784  0.4074
  131MOL0     C17225  10.789   7.130   3.441  0.0148  0.3399  0.7096
  131MOL0     C17226  10.679   7.079   3.506  0.6175 -0.2325 -0.4126
  131MOL0     H17227  10.407   6.734   3.714  0.9965  1.7964  0.5587
  131MOL0     H17228  10.168   6.649   3.781 -4.3802  0.7405 -1.3071
  131MOL0     H17229   9.843   6.808   3.617  1.6324  1.1252 -0.3286
  131MOL0     H17230   9.809   6.906   3.769 -2.2550 -1.0648  0.3050
  131MOL0     H17231   9.623   6.792   3.755 -0.1438 -0.6140  0.4786
  131MOL0     H17232   9.716   6.766   3.902  2.9364 -1.2888 -0.2891
  131MOL0     H17233   9.616   6.560   3.818  0.0201  1.8025  1.4097
  131MOL0     H17234   9.788   6.553   3.830  0.7206  0.2486 -0.5148
  131MOL0     H17235   9.641   6.586   3.566 -2.0491 -3.1744  0.2599
  131MOL0     H17236   9.812   6.560   3.580 -0.3405 -1.5944 -2.2095
  131MOL0     H17237   9.636   6.340   3.698  0.4546 -2.7989 -1.4783
  131MOL0     H17238   9.803   6.357   3.680  1.9394  4.6916  0.8991
  131MOL0     H17239   9.749   6.218   3.502 -1.4284 -0.1510  1.8397
  131MOL0     H17240   9.795   6.368   3.442 -0.3015  0.8603 -0.0405
  131MOL0     H17241   9.580   6.234   3.344  0.3989  0.9411 -1.8591
  131MOL0     H17242   9.496   6.287   3.479  1.9308 -1.5922  2.5364
  131MOL0     H17243   9.637   6.497   3.300  2.6656 -3.3325  2.6613
  131MOL0     H17244   9.493   6.511   3.398  1.4542  0.2170  1.7543
  131MOL0     H17245   9.259   6.347   3.299 -0.5270 -1.5569 -1.2407
  131MOL0     H17246   9.148   6.176   3.115  1.4200  0.4196  0.3307
  131MOL0     H17247   9.210   6.168   2.952 -0.0876  0.7172 -0.9446
  131MOL0     H17248   9.062   6.414   3.052  1.8248 -1.1556  0.7984
  131MOL0     H17249   8.986   6.268   2.975  0.0771  0.1464 -0.6812
  131MOL0     H17250   9.207   6.449   2.851 -0.2317  0.4884  0.9681
  131MOL0     H17251   9.103   6.329   2.761 -4.5289  1.4668 -1.8113
  131MOL0     H17252   9.043   6.543   2.713  2.0684  1.5062  1.6041
  131MOL0     H17253   9.021   6.597   2.868  2.3249 -0.0136 -1.1166
  131MOL0     H17254   8.614   6.411   2.851  0.8530 -0.8554 -0.4142
  131MOL0     H17255   8.437   6.581   2.864 -0.8283  3.0884  0.0784
  131MOL0     H17256   8.365   6.950   2.468 -1.8778 -2.0306  0.9196
  131MOL0     H17257   8.150   7.038   2.401  0.4875 -0.1146 -0.5875
  131MOL0     H17258   8.001   7.196   2.347  1.4615  0.1906 -0.9231
  131MOL0     H17259   8.077   7.319   2.450 -0.3527  0.4209  0.6063
  131MOL0     H17260   7.841   7.397   2.351  0.4825 -0.6317 -0.1704
  131MOL0     H17261   7.916   7.435   2.500  2.9399  0.1403 -1.6155
  131MOL0     H17262   7.767   7.255   2.614  3.6434  0.6546 -1.2141
  131MOL0     H17263   7.730   7.197   2.452 -0.7210  1.4801 -2.3036
  131MOL0     H17264   7.645   7.476   2.512  0.5943  0.2948 -0.0563
  131MOL0     H17265   7.564   7.361   2.408 -0.9871  0.1424  0.2186
  131MOL0     H17266   7.568   7.339   2.719 -0.5775 -0.7905  0.4362
  131MOL0     H17267   7.488   7.226   2.608 -2.2369  0.4789  0.8245
  131MOL0     H17268   7.342   7.414   2.520  1.5664  1.9151 -1.7600
  131MOL0     H17269   7.426   7.499   2.666  1.1755 -0.8276 -1.4074
  131MOL0     H17270   7.266   7.256   2.681  1.2604  1.3341 -0.6393
  131MOL0     H17271   7.349   7.342   2.820 -1.1202 -1.2479  1.1798
  131MOL0     H17272   7.209   7.530   2.780  2.2569 -1.7904  3.1703
  131MOL0     H17273   7.112   7.388   2.834 -0.3888  1.4149  0.9958
  131MOL0     H17274   8.094   7.176   2.816  1.6135 -0.1195 -0.1304
  131MOL0     H17275   8.317   7.115   2.871 -3.0069  0.2161  0.7254
  131MOL0     H17276   8.699   6.878   2.716 -0.7822  0.7171 -0.2246
  131MOL0     H17277   8.895   6.717   2.729  1.6213 -1.2094  2.2643
  131MOL0     H17278   9.986   7.010   3.668 -0.0752  0.7001  1.2897
  131MOL0     H17279  10.210   7.113   3.604 -0.8263  0.4947 -0.1383
  131MOL0     H17280  10.614   7.354   3.701 -0.2013 -1.8662  1.3134
  131MOL0     H17281  10.811   7.426   3.599  3.2116 -1.4230  0.5604
  131MOL0     H17282  11.092   7.309   3.265  0.0159  1.2857  0.6256
  131MOL0     H17283  11.026   7.149   3.313  3.6192 -0.4285 -0.9194
  131MOL0     H17284  11.141   7.173   3.544  2.7852 -0.3127  0.3477
  131MOL0     H17285  11.247   7.151   3.414  1.5002  2.0774 -0.1416
  131MOL0     H17286  11.270   7.312   3.606  1.4814 -2.9838 -0.9614
  131MOL0     H17287  11.163   7.422   3.514  1.4854  1.0908  1.8684
  131MOL0     H17288  11.436   7.310   3.442  0.8196  1.6760 -0.0859
  131MOL0     H17289  11.341   7.408   3.321 -0.0692  1.0352  0.1940
  131MOL0     H17290  11.540   7.700   3.537 -0.6144  0.2466  1.7840
  131MOL0     H17291  10.843   7.058   3.380 -0.9478 -0.4430  0.7575
  131MOL0     H17292  10.624   6.989   3.481 -1.8265  1.6149 -2.1307
  132MOL0     O17293   4.544   1.013   4.541 -0.4863  0.4843  0.1276
  132MOL0     C17294   4.589   1.111   4.480 -0.2161 -0.3913  0.5198
  132MOL0     O17295   4.522   1.185   4.394  0.1482  0.7225  0.4419
  132MOL0     C17296   4.390   1.185   4.389  0.4873  1.0150 -1.1969
  132MOL0     C17297   4.314   1.067   4.366 -0.0403 -0.7199 -0.3902
  132MOL0     C17298   4.173   1.075   4.372 -0.4343 -1.2120  0.1934
  132MOL0     C17299   4.108   1.192   4.405 -0.6764 -1.1521  0.6045
  132MOL0     O17300   3.971   1.215   4.410 -0.1434  0.0009 -0.5522
  132MOL0     C17301   3.883   1.145   4.328  0.7350 -0.2723  0.5097
  132MOL0     C17302   3.739   1.196   4.344 -0.7744 -0.9808  0.4962
  132MOL0     C17303   3.641   1.104   4.287 -0.1911  0.6609  0.1278
  132MOL0     C17304   3.490   1.151   4.311 -0.9866  0.4568 -0.7529
  132MOL0     C17305   3.394   1.060   4.239  0.0903 -0.2202  1.0032
  132MOL0     C17306   3.272   1.054   4.325  0.0867 -0.3237 -0.1271
  132MOL0     C17307   3.154   0.985   4.251  0.2721  0.5129  0.0947
  132MOL0     C17308   3.041   0.938   4.349 -0.1500 -0.2940  0.4904
  132MOL0     N17309   2.899   0.930   4.301 -1.3192 -0.1316 -0.0380
  132MOL0     C17310   2.842   0.835   4.212  0.3895  0.2031  0.0840
  132MOL0     C17311   2.719   0.887   4.179 -0.6606  0.2615 -0.1648
  132MOL0     C17312   2.612   0.803   4.116 -0.0178 -0.3145 -0.1417
  132MOL0     C17313   2.619   0.838   3.968 -0.6517 -0.8537 -0.5129
  132MOL0     C17314   2.520   0.769   3.872  0.2450  0.0530 -0.0268
  132MOL0     C17315   2.375   0.808   3.865  0.3825  0.7905  0.3460
  132MOL0     O17316   2.297   0.692   3.840 -0.5191 -0.5970  0.1996
  132MOL0     C17317   2.164   0.715   3.841  0.1402 -0.6975  0.4223
  132MOL0     C17318   2.088   0.834   3.871 -0.6906  0.5966  0.4310
  132MOL0     C17319   1.948   0.828   3.890  0.3679 -0.3109  0.0687
  132MOL0     C17320   1.878   0.705   3.855 -0.1076  0.4973  0.0756
  132MOL0     C17321   1.729   0.708   3.845  0.3008 -0.1306 -0.7134
  132MOL0     O17322   1.662   0.826   3.857 -0.3408  0.1982 -0.1973
  132MOL0     C17323   1.528   0.831   3.864  0.3796 -0.0388  0.7384
  132MOL0     C17324   1.444   0.761   3.777 -0.1681 -0.3796 -0.7250
  132MOL0     C17325   1.309   0.760   3.807 -0.3738  0.8206  0.6384
  132MOL0     C17326   1.259   0.828   3.913 -0.1786 -0.0415  0.2978
  132MOL0     O17327   1.127   0.824   3.955  0.4473 -0.7313 -0.2504
  132MOL0     C17328   1.026   0.753   3.879 -0.0565 -0.1448 -0.0546
  132MOL0     C17329   0.895   0.730   3.957 -0.1465 -0.3320  0.2355
  132MOL0     C17330   0.795   0.654   3.869  0.5732  0.5515 -0.3595
  132MOL0     C17331   0.677   0.593   3.955 -0.0662  0.1412  0.4733
  132MOL0     C17332   0.574   0.530   3.851 -0.3205 -0.0424 -0.3256
  132MOL0     C17333   0.436   0.501   3.918 -0.2840 -0.1894 -0.0705
  132MOL0     C17334   0.366   0.621   3.988 -0.8231  0.4031  0.2541
  132MOL0     C17335   0.213   0.618   3.975 -0.3494 -0.1286  0.4400
  132MOL0    Cl17336   0.173   0.480   4.084 -0.5524 -0.2090 -0.1729
  132MOL0     C17337   1.343   0.893   4.006  0.5407  0.6857  0.6040
  132MOL0     C17338   1.479   0.896   3.968 -0.3005 -0.4090  0.3490
  132MOL0     O17339   1.670   0.599   3.838 -0.1410 -0.1426 -0.1322
  132MOL0     C17340   1.956   0.588   3.820 -0.8081 -1.0269  0.7411
  132MOL0     C17341   2.092   0.600   3.817 -0.2306 -0.1530  0.0670
  132MOL0     N17342   2.701   1.006   4.245 -0.6624  0.1481 -0.3561
  132MOL0     N17343   2.813   1.035   4.308 -0.2282  0.3069  0.1291
  132MOL0     C17344   4.185   1.305   4.429  0.3693 -0.4109 -0.2505
  132MOL0     C17345   4.324   1.306   4.423  0.2030  0.5602  0.0692
  132MOL0     C17346   4.732   1.147   4.486 -0.3294  0.0464 -0.6593
  132MOL0     C17347   4.823   1.047   4.508 -0.4488 -0.6919 -0.0057
  132MOL0     C17348   4.961   1.074   4.495  0.9894  0.4242 -0.7061
  132MOL0     C17349   5.005   1.199   4.464 -0.0248 -0.8590 -0.1093
  132MOL0     O17350   5.139   1.232   4.456 -0.3242 -0.4830 -0.0976
  132MOL0     C17351   5.210   1.273   4.579  0.0607 -0.5460 -0.3032
  132MOL0     C17352   5.202   1.424   4.613 -0.0456 -0.4127 -0.4275
  132MOL0     C17353   5.224   1.512   4.492  0.2396 -0.1297  0.5390
  132MOL0     C17354   5.141   1.644   4.512 -0.7003 -0.3028  0.0494
  132MOL0     C17355   5.185   1.749   4.417 -0.1523 -0.0621 -0.8580
  132MOL0     C17356   5.243   1.813   4.336 -0.0478 -1.2230  0.4281
  132MOL0     C17357   4.912   1.300   4.449  0.6466  0.0850  0.2021
  132MOL0     C17358   4.771   1.271   4.454  0.1574 -0.3159  1.1743
  132MOL0     H17359   4.370   0.979   4.335 -1.3762 -1.1750 -1.5821
  132MOL0     H17360   4.114   0.993   4.333 -0.9337 -0.7487 -0.0288
  132MOL0     H17361   3.895   1.037   4.342 -0.6798 -0.3559  1.2271
  132MOL0     H17362   3.907   1.165   4.223 -0.9889 -1.9189 -0.2563
  132MOL0     H17363   3.738   1.293   4.293 -0.3134 -1.8656 -1.2838
  132MOL0     H17364   3.732   1.210   4.452  2.5637  1.0452  0.5735
  132MOL0     H17365   3.659   1.002   4.324  0.9427  0.9710  0.4566
  132MOL0     H17366   3.654   1.112   4.179 -2.9268  1.8006 -0.1954
  132MOL0     H17367   3.470   1.141   4.418  0.3284 -0.0719 -0.5354
  132MOL0     H17368   3.476   1.257   4.285 -1.5385  0.3721 -0.8080
  132MOL0     H17369   3.432   0.957   4.233 -1.9086 -1.0579  1.9470
  132MOL0     H17370   3.375   1.091   4.136 -2.5659 -0.0523  1.4847
  132MOL0     H17371   3.238   1.154   4.353 -0.0030 -0.5825  0.7332
  132MOL0     H17372   3.297   0.994   4.414  0.8072  0.2573  0.0708
  132MOL0     H17373   3.110   1.051   4.175 -1.2878 -2.1893 -1.5334
  132MOL0     H17374   3.194   0.902   4.192  1.8523  2.8424 -2.3103
  132MOL0     H17375   3.025   1.010   4.429 -3.0304  1.6507 -1.6350
  132MOL0     H17376   3.074   0.845   4.396  0.3051 -1.0576 -1.2354
  132MOL0     H17377   2.890   0.740   4.191  2.2667  0.9958  0.5631
  132MOL0     H17378   2.514   0.838   4.150  1.1641  0.9546  2.1696
  132MOL0     H17379   2.624   0.695   4.128 -1.3955 -0.3834  0.8546
  132MOL0     H17380   2.714   0.807   3.925 -1.8115 -2.7785 -1.8848
  132MOL0     H17381   2.596   0.945   3.959  1.0655 -0.1187  2.5822
  132MOL0     H17382   2.549   0.780   3.767 -3.1728 -0.9767 -1.1987
  132MOL0     H17383   2.519   0.662   3.895 -1.5314  0.0283 -0.1042
  132MOL0     H17384   2.354   0.882   3.786 -0.4762 -0.3752 -0.5616
  132MOL0     H17385   2.344   0.841   3.964  0.2520 -0.1335  0.6200
  132MOL0     H17386   2.143   0.925   3.892 -0.8369  0.4559  1.5095
  132MOL0     H17387   1.889   0.917   3.910  1.1216 -0.0179  1.0728
  132MOL0     H17388   1.488   0.715   3.689  1.3871  0.8720 -0.6555
  132MOL0     H17389   1.238   0.704   3.747  0.3462 -1.2707  1.6606
  132MOL0     H17390   1.059   0.651   3.857  0.1983 -0.6184  2.2703
  132MOL0     H17391   1.014   0.800   3.781 -2.6736 -2.6514 -1.0930
  132MOL0     H17392   0.849   0.828   3.973 -1.1348 -0.0640 -3.2860
  132MOL0     H17393   0.920   0.687   4.055  0.6064 -0.8273 -0.1579
  132MOL0     H17394   0.842   0.569   3.817 -0.4757 -0.5438  0.4309
  132MOL0     H17395   0.752   0.721   3.794  0.1622  1.2039  0.4434
  132MOL0     H17396   0.715   0.512   4.018  0.8374 -0.7091 -1.0983
  132MOL0     H17397   0.631   0.667   4.021  0.5137  1.9756 -1.0864
  132MOL0     H17398   0.614   0.438   3.808  1.3473  1.0963 -1.3333
  132MOL0     H17399   0.553   0.594   3.764 -0.7130 -2.0088 -1.7583
  132MOL0     H17400   0.457   0.423   3.991  2.8811 -1.5796 -2.2388
  132MOL0     H17401   0.365   0.456   3.848 -2.0311  3.1821 -0.6876
  132MOL0     H17402   0.388   0.609   4.094  0.3457 -0.6941 -0.0928
  132MOL0     H17403   0.413   0.710   3.944 -1.2370  0.7956  0.5996
  132MOL0     H17404   0.182   0.613   3.870  0.5056  0.1923  0.1687
  132MOL0     H17405   0.159   0.703   4.017  0.2489  1.8749 -2.5214
  132MOL0     H17406   1.313   0.947   4.095  2.7031 -0.8087  2.3671
  132MOL0     H17407   1.553   0.942   4.034  0.4352  2.0163 -2.0187
  132MOL0     H17408   1.903   0.512   3.764  0.3750 -0.8821 -0.6439
  132MOL0     H17409   2.143   0.513   3.774 -2.2662 -1.0143 -0.7180
  132MOL0     H17410   4.144   1.400   4.460  0.7345 -0.5766  0.7661
  132MOL0     H17411   4.393   1.386   4.445  1.9242 -0.5651 -1.0282
  132MOL0     H17412   4.783   0.949   4.535 -4.2724  0.9816  1.1015
  132MOL0     H17413   5.035   0.995   4.507  1.2476  0.9230  1.2488
  132MOL0     H17414   5.315   1.263   4.548  0.4904  1.5169  0.2997
  132MOL0     H17415   5.185   1.216   4.669  0.0878 -0.4869 -0.2580
  132MOL0     H17416   5.106   1.427   4.665 -1.7266  1.9227 -3.3696
  132MOL0     H17417   5.273   1.449   4.693 -1.4778 -3.1325  1.8736
  132MOL0     H17418   5.183   1.469   4.400 -0.4725 -1.3191  1.3823
  132MOL0     H17419   5.331   1.528   4.474 -0.1837  1.5592 -0.7281
  132MOL0     H17420   5.038   1.615   4.489  0.0830 -1.1015 -2.8344
  132MOL0     H17421   5.147   1.683   4.614 -2.5284  1.7323 -0.5355
  132MOL0     H17422   5.296   1.883   4.274  1.8693  0.4627  3.6989
  132MOL0     H17423   4.950   1.400   4.431 -0.3363  0.4452  0.0370
  132MOL0     H17424   4.701   1.349   4.425  1.1967  0.2776  0.2267
  133MOL0     O17425   0.842   8.813   6.502  0.0351 -0.2333 -0.1993
  133MOL0     C17426   0.903   8.796   6.395 -0.4731  0.0842 -1.3470
  133MOL0     O17427   0.844   8.766   6.274 -0.3812  0.1634  0.0646
  133MOL0     C17428   0.705   8.750   6.254  0.6132  0.3641  0.6153
  133MOL0     C17429   0.603   8.831   6.315  0.3068  0.2062  0.7315
  133MOL0     C17430   0.469   8.795   6.288 -0.5782  0.0746 -0.1918
  133MOL0     C17431   0.431   8.690   6.197  0.9183  0.0612 -0.4978
  133MOL0     O17432   0.297   8.664   6.177 -0.2144  0.2966 -0.7134
  133MOL0     C17433   0.249   8.591   6.070 -0.6069 -0.3463  0.8004
  133MOL0     C17434   0.099   8.591   6.078  0.0151  0.6632 -0.0603
  133MOL0     C17435   0.050   8.519   5.951  0.5094 -0.1852  0.1443
  133MOL0     C17436  -0.107   8.513   5.953 -0.3002  0.1352  1.6100
  133MOL0     C17437  -0.165   8.441   5.839 -0.4700  0.1695 -0.1498
  133MOL0     C17438  -0.322   8.458   5.824 -0.4308  1.1785  0.2128
  133MOL0     C17439  -0.375   8.424   5.679 -0.5077 -0.1026 -0.0553
  133MOL0     C17440  -0.528   8.401   5.694  0.3498  0.0972 -0.2355
  133MOL0     N17441  -0.598   8.375   5.570 -0.0157  0.0481  0.2085
  133MOL0     C17442  -0.644   8.480   5.498  0.3396 -0.1531 -0.2530
  133MOL0     C17443  -0.709   8.418   5.395  0.2694 -0.3209 -0.8774
  133MOL0     C17444  -0.768   8.500   5.290 -0.3028  0.1395 -0.3994
  133MOL0     C17445  -0.874   8.419   5.215 -0.0346  0.6873  0.3222
  133MOL0     C17446  -1.007   8.398   5.289 -0.7099  0.1413 -0.1585
  133MOL0     C17447  -1.077   8.530   5.332  0.6683  0.2498 -0.8188
  133MOL0     O17448  -1.145   8.601   5.220 -1.0024  0.4968  0.4825
  133MOL0     C17449  -1.231   8.537   5.138 -0.5541 -0.6062  0.7207
  133MOL0     C17450  -1.323   8.440   5.166  0.6824  0.3311 -0.3049
  133MOL0     C17451  -1.388   8.360   5.059 -0.3727 -1.2867 -0.3209
  133MOL0     C17452  -1.373   8.409   4.925 -0.7399 -0.4574  0.3986
  133MOL0     C17453  -1.451   8.342   4.814  0.1113 -0.8281 -0.6328
  133MOL0     O17454  -1.436   8.377   4.685  0.4536 -0.1955 -0.5771
  133MOL0     C17455  -1.508   8.302   4.599  0.6926 -0.6783  0.2138
  133MOL0     C17456  -1.605   8.369   4.529 -0.3314 -0.3875 -0.6764
  133MOL0     C17457  -1.679   8.301   4.437  0.2108 -0.1697 -0.3226
  133MOL0     C17458  -1.669   8.172   4.405 -0.5800  1.0140  0.4524
  133MOL0     O17459  -1.734   8.092   4.314  0.0568  0.8744  0.4161
  133MOL0     C17460  -1.835   8.143   4.226 -0.0442 -0.0963 -0.0280
  133MOL0     C17461  -1.769   8.202   4.102  0.1622 -0.0092 -0.3072
  133MOL0     C17462  -1.859   8.275   4.000  0.6017 -0.2011 -0.5646
  133MOL0     C17463  -1.769   8.354   3.914 -1.1340 -0.0170  0.7917
  133MOL0     C17464  -1.843   8.411   3.794 -0.1803  0.1305 -0.3273
  133MOL0     C17465  -1.952   8.502   3.841  0.8011  0.7496  0.1956
  133MOL0     C17466  -1.999   8.578   3.723  0.4549  0.1431 -0.0314
  133MOL0     C17467  -2.118   8.685   3.761 -0.9347  0.5320 -0.3789
  133MOL0    Cl17468  -2.168   8.763   3.599  0.1487 -0.5307  0.1786
  133MOL0     C17469  -1.579   8.102   4.490 -0.2471 -0.0144  0.0240
  133MOL0     C17470  -1.491   8.168   4.578  0.2964  0.3929  0.6277
  133MOL0     O17471  -1.540   8.274   4.863  0.0667 -0.0806 -0.0219
  133MOL0     C17472  -1.301   8.526   4.899  0.0766  0.5699 -0.2907
  133MOL0     C17473  -1.223   8.582   5.001 -0.1674 -0.4404 -0.6383
  133MOL0     N17474  -0.706   8.282   5.421 -0.1288  0.0011 -0.2445
  133MOL0     N17475  -0.633   8.256   5.521 -0.6909 -0.0313 -0.6188
  133MOL0     C17476   0.534   8.619   6.137 -0.0772  0.8379 -0.9435
  133MOL0     C17477   0.667   8.643   6.171 -0.3382  0.1821 -0.2041
  133MOL0     C17478   1.048   8.797   6.401  0.0920  0.4296  0.0390
  133MOL0     C17479   1.126   8.775   6.281 -1.0929 -0.4143 -0.0371
  133MOL0     C17480   1.271   8.766   6.298  1.1998  0.2196  0.2116
  133MOL0     C17481   1.339   8.784   6.413 -0.1826 -0.0831 -0.0215
  133MOL0     O17482   1.474   8.765   6.410 -0.1288 -0.0159 -0.0553
  133MOL0     C17483   1.552   8.776   6.527  0.0709 -0.1841  0.2208
  133MOL0     C17484   1.622   8.915   6.534  0.6183 -0.2548 -0.6968
  133MOL0     C17485   1.520   9.026   6.569 -0.0111 -0.0813  0.0108
  133MOL0     C17486   1.598   9.159   6.545 -0.4649  0.2039  0.6276
  133MOL0     C17487   1.716   9.176   6.636  0.7868  0.8060  0.2458
  133MOL0     C17488   1.809   9.167   6.710 -0.1807  0.5199  0.8673
  133MOL0     C17489   1.260   8.807   6.532 -0.0307 -0.2784  0.4700
  133MOL0     C17490   1.113   8.813   6.525 -0.3511  0.3753  1.0991
  133MOL0     H17491   0.625   8.912   6.383 -1.7271  2.4164 -1.0242
  133MOL0     H17492   0.384   8.840   6.339 -0.3512  0.3921 -0.0920
  133MOL0     H17493   0.281   8.486   6.077 -1.6555 -0.5860  2.7474
  133MOL0     H17494   0.283   8.637   5.976 -4.2324 -0.0532 -0.5369
  133MOL0     H17495   0.067   8.694   6.091 -1.2452  0.4719 -1.3773
  133MOL0     H17496   0.057   8.530   6.158 -1.5162 -1.9371 -2.6515
  133MOL0     H17497   0.099   8.422   5.962 -0.2263 -0.4803  0.8840
  133MOL0     H17498   0.082   8.564   5.857 -2.4659  1.4733 -0.1930
  133MOL0     H17499  -0.134   8.456   6.042  0.1355 -1.5932  0.6912
  133MOL0     H17500  -0.141   8.616   5.955  0.2844  0.5245 -2.0054
  133MOL0     H17501  -0.152   8.334   5.855 -2.6742 -0.3020 -1.1095
  133MOL0     H17502  -0.120   8.476   5.746  0.9575 -0.4954  0.2628
  133MOL0     H17503  -0.348   8.563   5.837 -0.5852  0.9507  1.9717
  133MOL0     H17504  -0.368   8.405   5.907 -0.2296  2.8869  1.4722
  133MOL0     H17505  -0.357   8.512   5.617  2.9114 -1.1813 -0.7835
  133MOL0     H17506  -0.332   8.339   5.626  1.2440  0.2698  0.7036
  133MOL0     H17507  -0.576   8.485   5.744 -0.4157  0.9711 -2.3252
  133MOL0     H17508  -0.547   8.319   5.764 -1.4837 -0.5122 -1.3828
  133MOL0     H17509  -0.610   8.582   5.518  1.6959 -0.7634  0.7354
  133MOL0     H17510  -0.691   8.531   5.218  1.2080 -2.5744 -0.0923
  133MOL0     H17511  -0.815   8.590   5.332  0.2518  0.4796 -0.4937
  133MOL0     H17512  -0.820   8.327   5.191  0.4864 -0.2985  4.4445
  133MOL0     H17513  -0.898   8.473   5.123 -1.1727 -0.3822 -0.0357
  133MOL0     H17514  -1.077   8.337   5.231 -0.2972 -1.9189  1.4016
  133MOL0     H17515  -0.993   8.341   5.381 -0.6421  1.5291  0.7024
  133MOL0     H17516  -1.000   8.593   5.378  1.6175 -0.9907 -0.6318
  133MOL0     H17517  -1.155   8.500   5.402  0.7991 -2.7758 -1.8365
  133MOL0     H17518  -1.338   8.408   5.269 -2.5814  0.8653 -0.5219
  133MOL0     H17519  -1.450   8.275   5.085 -0.6129 -1.4289 -1.3448
  133MOL0     H17520  -1.631   8.474   4.543  0.9149 -0.4418  3.9178
  133MOL0     H17521  -1.749   8.366   4.385  0.6086  2.1692  1.8723
  133MOL0     H17522  -1.883   8.227   4.277  3.4548  2.4113 -0.4354
  133MOL0     H17523  -1.903   8.065   4.190  1.2057 -1.5583  0.6884
  133MOL0     H17524  -1.716   8.116   4.060 -0.3399 -1.9347  2.6935
  133MOL0     H17525  -1.701   8.278   4.141  0.3383 -0.1998 -0.2387
  133MOL0     H17526  -1.937   8.333   4.052  0.2791 -1.0087 -0.1298
  133MOL0     H17527  -1.916   8.194   3.953 -1.5687 -1.1670  3.2386
  133MOL0     H17528  -1.710   8.431   3.964  3.9447 -0.9338 -2.9916
  133MOL0     H17529  -1.691   8.289   3.873  0.0291  1.1382  1.0941
  133MOL0     H17530  -1.878   8.324   3.736  2.4400 -0.5429 -1.0404
  133MOL0     H17531  -1.766   8.466   3.740  0.0362  1.1364  0.9671
  133MOL0     H17532  -1.920   8.564   3.925  1.0136  1.9546 -0.7424
  133MOL0     H17533  -2.039   8.453   3.886  0.2795  1.4379 -0.0464
  133MOL0     H17534  -1.918   8.635   3.677 -0.0254  3.4733  2.7985
  133MOL0     H17535  -2.053   8.509   3.658 -0.9586  1.5183 -0.3755
  133MOL0     H17536  -2.079   8.756   3.834  1.3475 -0.2635 -0.7562
  133MOL0     H17537  -2.203   8.636   3.809 -0.6557  1.2553  0.9055
  133MOL0     H17538  -1.560   7.996   4.482  0.9492  0.3252 -3.0592
  133MOL0     H17539  -1.422   8.112   4.641 -0.2283  0.4552  1.2750
  133MOL0     H17540  -1.293   8.567   4.799  2.0757  1.9056  0.3446
  133MOL0     H17541  -1.155   8.659   4.967 -0.7051 -0.7824 -2.6314
  133MOL0     H17542   0.511   8.533   6.075  0.9497 -1.9036  2.1440
  133MOL0     H17543   0.748   8.588   6.125 -1.1135 -1.4709  0.3243
  133MOL0     H17544   1.098   8.766   6.177  1.2325  0.5517 -0.7908
  133MOL0     H17545   1.332   8.750   6.210 -1.4589 -1.1697 -1.5068
  133MOL0     H17546   1.631   8.701   6.513 -1.6281 -1.7923 -1.2751
  133MOL0     H17547   1.497   8.763   6.621 -1.4458  2.6039 -0.1888
  133MOL0     H17548   1.692   8.904   6.618 -2.0959  0.3850  1.7772
  133MOL0     H17549   1.670   8.935   6.437  0.2161 -0.1306 -0.8730
  133MOL0     H17550   1.470   9.012   6.666 -0.1472 -0.0164 -0.0511
  133MOL0     H17551   1.444   9.025   6.491 -2.8490  3.9086  2.3358
  133MOL0     H17552   1.618   9.167   6.438 -1.6101  2.4951  0.5325
  133MOL0     H17553   1.530   9.241   6.570 -0.6581 -0.1055  1.1514
  133MOL0     H17554   1.899   9.142   6.762  2.1170  1.7566 -2.1491
  133MOL0     H17555   1.309   8.817   6.628 -2.8882  1.0858  1.9154
  133MOL0     H17556   1.061   8.829   6.619  0.4884  0.8590  1.4871
  134MOL0     O17557   6.658   2.943   6.172 -0.0484 -0.2964  0.1145
  134MOL0     C17558   6.690   3.064   6.177 -0.7573  0.4254  0.6150
  134MOL0     O17559   6.606   3.170   6.185 -0.4071  1.2829  0.2166
  134MOL0     C17560   6.475   3.136   6.177 -0.1197  0.5278 -0.0511
  134MOL0     C17561   6.401   3.135   6.297 -0.0870 -0.0622  0.3584
  134MOL0     C17562   6.265   3.141   6.300  0.0099  0.3829 -0.1682
  134MOL0     C17563   6.193   3.145   6.178  0.3523  0.4521 -0.5802
  134MOL0     O17564   6.060   3.162   6.188 -0.5726  0.1095 -0.5202
  134MOL0     C17565   5.972   3.139   6.084 -0.6563  0.2242  0.1809
  134MOL0     C17566   5.834   3.152   6.143  0.1025 -0.1841 -0.4627
  134MOL0     C17567   5.725   3.189   6.045 -0.3741 -0.2955 -0.7706
  134MOL0     C17568   5.590   3.139   6.110  0.2706 -0.1496  0.7015
  134MOL0     C17569   5.470   3.199   6.028  0.4556  0.3115  0.0654
  134MOL0     C17570   5.344   3.147   6.093  0.1712  0.4586 -0.1156
  134MOL0     C17571   5.219   3.157   6.008  1.1998 -0.5075  0.2022
  134MOL0     C17572   5.168   3.304   6.004  0.6229 -0.0750  0.6205
  134MOL0     N17573   5.016   3.311   5.988 -0.5928 -0.8854  0.0955
  134MOL0     C17574   4.925   3.275   6.082  0.3534  0.6065  0.4324
  134MOL0     C17575   4.808   3.259   6.016 -0.2555 -1.0058 -0.7704
  134MOL0     C17576   4.681   3.214   6.068 -0.8015  0.3453 -0.4590
  134MOL0     C17577   4.558   3.299   6.024  0.3577  0.2859  0.3157
  134MOL0     C17578   4.544   3.437   6.086  1.2873 -1.3409  0.2205
  134MOL0     C17579   4.417   3.513   6.033 -0.5490 -0.7244  0.4450
  134MOL0     O17580   4.296   3.434   6.049  0.3096  0.0159 -0.0826
  134MOL0     C17581   4.177   3.480   5.987 -0.3165 -0.0702  0.0932
  134MOL0     C17582   4.066   3.392   6.001 -0.5369  0.5186  0.4943
  134MOL0     C17583   3.936   3.445   5.963  0.6614 -0.5405 -0.4528
  134MOL0     C17584   3.917   3.578   5.905  0.4114 -0.0414  0.2739
  134MOL0     C17585   3.783   3.628   5.880 -0.1209 -0.0008  0.2948
  134MOL0     O17586   3.775   3.768   5.864  0.0020  0.0688 -0.1119
  134MOL0     C17587   3.644   3.836   5.853 -0.2117 -0.1920 -0.2924
  134MOL0     C17588   3.653   3.969   5.814 -0.4998  0.3784 -0.5472
  134MOL0     C17589   3.556   4.064   5.825  0.8848 -0.2638  0.3149
  134MOL0     C17590   3.426   4.024   5.860 -0.1649  0.7697  0.0876
  134MOL0     O17591   3.321   4.114   5.874  0.2725  0.4625 -0.7143
  134MOL0     C17592   3.341   4.246   5.912 -1.5830 -1.2031  0.3117
  134MOL0     C17593   3.212   4.319   5.882 -0.3949 -0.1981  0.2322
  134MOL0     C17594   3.077   4.238   5.922 -0.2483 -0.7966 -0.8559
  134MOL0     C17595   2.946   4.322   5.923  0.3785  0.2165 -0.1945
  134MOL0     C17596   2.818   4.250   5.982 -0.7378  0.0276 -0.0461
  134MOL0     C17597   2.707   4.235   5.879  0.2757 -0.2835 -0.1352
  134MOL0     C17598   2.631   4.368   5.856 -0.0954 -1.0099 -0.4895
  134MOL0     C17599   2.488   4.352   5.787 -0.3711 -0.6312  0.0261
  134MOL0    Cl17600   2.531   4.333   5.612 -0.2168  0.4995 -0.0369
  134MOL0     C17601   3.402   3.881   5.881 -0.6409 -0.2814 -0.9982
  134MOL0     C17602   3.511   3.789   5.877  0.4609 -0.8783 -0.3209
  134MOL0     O17603   3.692   3.548   5.884  0.7943  0.1790 -0.3484
  134MOL0     C17604   4.030   3.668   5.895 -0.0275  0.5133  0.0458
  134MOL0     C17605   4.161   3.616   5.936  0.6928  0.5322  0.0553
  134MOL0     N17606   4.824   3.294   5.888 -0.2462  0.2363  0.0704
  134MOL0     N17607   4.944   3.335   5.875  0.3314  0.5460 -0.2202
  134MOL0     C17608   6.262   3.125   6.057  0.4157 -0.1228 -0.5483
  134MOL0     C17609   6.403   3.135   6.055  1.7081 -0.5201  0.0014
  134MOL0     C17610   6.830   3.095   6.168 -0.7610 -0.0662  1.1339
  134MOL0     C17611   6.928   2.995   6.196  0.3305  1.0059  0.7108
  134MOL0     C17612   7.069   3.018   6.169 -0.5972  0.0376  0.4001
  134MOL0     C17613   7.102   3.145   6.115 -0.0835 -0.1285  0.0664
  134MOL0     O17614   7.235   3.173   6.090 -0.2014 -0.5405  0.2562
  134MOL0     C17615   7.286   3.306   6.072 -0.1026  0.3079 -0.1425
  134MOL0     C17616   7.435   3.298   6.064  0.7508 -0.0513 -0.3961
  134MOL0     C17617   7.490   3.241   6.198 -0.0979 -0.2748  0.1016
  134MOL0     C17618   7.631   3.269   6.226 -0.3395 -0.2154  0.5679
  134MOL0     C17619   7.719   3.216   6.127 -0.4696  0.1246 -0.0430
  134MOL0     C17620   7.798   3.184   6.041 -0.1934  0.4283 -0.3299
  134MOL0     C17621   7.003   3.241   6.091  0.0020 -0.4669  0.1660
  134MOL0     C17622   6.872   3.221   6.118 -0.9546  0.6146 -0.1371
  134MOL0     H17623   6.451   3.132   6.393 -0.2359 -1.4427  0.4110
  134MOL0     H17624   6.214   3.140   6.395  2.0329  4.2408  1.1455
  134MOL0     H17625   5.995   3.037   6.051  1.0266  0.0354  1.7557
  134MOL0     H17626   5.987   3.222   6.015  0.7351 -1.2942 -1.4239
  134MOL0     H17627   5.827   3.232   6.217  0.1615 -0.3514 -0.2761
  134MOL0     H17628   5.815   3.052   6.182  1.9145  0.3994  2.1077
  134MOL0     H17629   5.732   3.154   5.942 -1.1327  1.8760 -1.6309
  134MOL0     H17630   5.724   3.297   6.027 -3.5305  0.3936  2.3442
  134MOL0     H17631   5.589   3.030   6.098 -0.2676  0.0921 -2.2256
  134MOL0     H17632   5.566   3.176   6.210 -0.2042 -0.9725  0.8967
  134MOL0     H17633   5.480   3.174   5.922  1.1979  2.3249 -0.3861
  134MOL0     H17634   5.467   3.306   6.049  2.1869 -0.0469  2.6104
  134MOL0     H17635   5.324   3.201   6.185  0.3790  0.0066  0.2011
  134MOL0     H17636   5.359   3.039   6.108  1.6972  0.8216  1.1654
  134MOL0     H17637   5.238   3.123   5.906 -1.1972  0.4999 -0.6743
  134MOL0     H17638   5.144   3.088   6.048  0.4435 -2.7908 -4.4074
  134MOL0     H17639   5.214   3.368   5.928  1.2836  1.0765  1.9395
  134MOL0     H17640   5.183   3.353   6.100 -3.0149  1.2244  0.6726
  134MOL0     H17641   4.941   3.245   6.185  0.6001 -3.0062 -0.5320
  134MOL0     H17642   4.681   3.196   6.176 -0.0152 -0.8885 -0.6369
  134MOL0     H17643   4.673   3.113   6.026 -1.6230  0.8309 -1.5110
  134MOL0     H17644   4.468   3.240   6.045 -1.5593  2.6752 -0.7329
  134MOL0     H17645   4.562   3.307   5.915  1.5202 -0.3625  0.2937
  134MOL0     H17646   4.532   3.424   6.194  2.3458  0.4352  0.5842
  134MOL0     H17647   4.632   3.499   6.069 -1.1279  3.0583  2.1446
  134MOL0     H17648   4.425   3.523   5.924 -1.5611  0.3173  0.4498
  134MOL0     H17649   4.402   3.613   6.076  1.8661 -0.6114  1.1956
  134MOL0     H17650   4.075   3.291   6.038  1.9873  0.6242  0.3343
  134MOL0     H17651   3.855   3.375   5.979 -0.7547  1.1739  0.2065
  134MOL0     H17652   3.755   3.996   5.787  0.3536 -2.0919 -0.0403
  134MOL0     H17653   3.570   4.167   5.796 -1.4074  0.1422  0.4580
  134MOL0     H17654   3.425   4.293   5.860 -1.0882 -0.2482  1.8795
  134MOL0     H17655   3.361   4.247   6.020 -2.3933  0.8413  0.4926
  134MOL0     H17656   3.204   4.335   5.774  2.3323  1.6369  0.2015
  134MOL0     H17657   3.223   4.423   5.915 -0.2149  0.6407 -2.2559
  134MOL0     H17658   3.082   4.206   6.027 -0.8849  1.2364 -0.1616
  134MOL0     H17659   3.070   4.151   5.856 -0.9998 -0.1845 -1.6009
  134MOL0     H17660   2.960   4.414   5.980 -1.2733  2.1588 -2.7267
  134MOL0     H17661   2.931   4.360   5.822 -1.9871 -1.3870 -0.5183
  134MOL0     H17662   2.786   4.293   6.077  0.1189  0.3609  0.0946
  134MOL0     H17663   2.844   4.147   6.004 -2.0739 -1.2763 -3.7135
  134MOL0     H17664   2.643   4.148   5.897  0.4140 -0.8097 -1.9588
  134MOL0     H17665   2.755   4.215   5.782 -1.3705  0.0216 -1.0649
  134MOL0     H17666   2.607   4.408   5.955 -0.5097  3.0765 -2.0683
  134MOL0     H17667   2.691   4.443   5.804  0.5867 -1.7635 -0.8199
  134MOL0     H17668   2.429   4.442   5.804 -1.1622 -1.5373  2.5262
  134MOL0     H17669   2.446   4.267   5.843 -0.1338  0.0220  1.2389
  134MOL0     H17670   3.306   3.840   5.909 -1.7222  3.5016  1.5496
  134MOL0     H17671   3.484   3.686   5.898 -2.2926  0.1644  1.8341
  134MOL0     H17672   4.019   3.773   5.870  0.7158  0.2001 -1.7104
  134MOL0     H17673   4.247   3.683   5.928  1.0547  0.0131 -0.4736
  134MOL0     H17674   6.216   3.123   5.959  1.2800  2.1635 -1.0436
  134MOL0     H17675   6.453   3.140   5.959  2.3471  0.0725  0.3581
  134MOL0     H17676   6.891   2.896   6.221  1.8729  0.4701  0.9511
  134MOL0     H17677   7.151   2.951   6.192  0.6731  0.9652 -1.2335
  134MOL0     H17678   7.249   3.372   6.151  1.7195  2.5419 -1.0294
  134MOL0     H17679   7.243   3.336   5.975 -0.1455  0.5671 -0.0461
  134MOL0     H17680   7.476   3.235   5.984  3.5096 -0.3735  1.1254
  134MOL0     H17681   7.468   3.402   6.056 -1.5995  0.7835 -0.0200
  134MOL0     H17682   7.468   3.135   6.212  0.5766 -0.1517  2.3898
  134MOL0     H17683   7.438   3.291   6.281 -0.2236 -2.1267  1.1802
  134MOL0     H17684   7.641   3.378   6.232  0.7345 -0.2544 -0.1775
  134MOL0     H17685   7.656   3.224   6.322 -0.1529 -1.4884 -0.0590
  134MOL0     H17686   7.879   3.158   5.976  1.4621  1.8272  1.0265
  134MOL0     H17687   7.032   3.343   6.068 -3.0604  0.0102 -2.4130
  134MOL0     H17688   6.807   3.300   6.080 -0.8816  0.1933 -1.1549
  135MOL0     O17689  10.643   4.378  11.002 -0.1528  0.2445 -0.3327
  135MOL0     C17690  10.660   4.461  11.089  0.1527 -0.3396 -0.2193
  135MOL0     O17691  10.569   4.500  11.177  0.1915  0.1837  0.0688
  135MOL0     C17692  10.444   4.447  11.173  0.1172 -0.1532  0.3024
  135MOL0     C17693  10.363   4.431  11.058  0.7818 -0.0423  0.9230
  135MOL0     C17694  10.248   4.352  11.062 -0.0154  0.4555 -0.2778
  135MOL0     C17695  10.210   4.295  11.178 -1.5873  0.1706 -0.2930
  135MOL0     O17696  10.101   4.219  11.194  0.0871 -0.4673  0.7562
  135MOL0     C17697  10.053   4.156  11.076 -0.1551 -0.4557  0.2296
  135MOL0     C17698   9.961   4.041  11.110 -0.2644 -0.4643 -0.5165
  135MOL0     C17699   9.812   4.089  11.123  0.6748 -0.7973 -0.1595
  135MOL0     C17700   9.737   3.974  11.170  0.4518 -0.1569  0.4762
  135MOL0     C17701   9.582   3.988  11.158  0.5157 -0.1718  0.5682
  135MOL0     C17702   9.508   3.870  11.234 -0.2080 -0.2610 -0.3880
  135MOL0     C17703   9.540   3.734  11.162  0.1957  0.3675  0.4171
  135MOL0     C17704   9.491   3.720  11.014 -0.1133 -0.7465  0.5031
  135MOL0     N17705   9.350   3.739  11.005  0.3103  0.2901 -0.4852
  135MOL0     C17706   9.275   3.855  11.003 -0.0941  0.6976 -0.2162
  135MOL0     C17707   9.142   3.826  10.995 -0.7469 -0.0494  1.0148
  135MOL0     C17708   9.031   3.924  10.971  0.5859  0.5032 -0.2172
  135MOL0     C17709   8.987   3.991  11.095  0.6785 -0.2061  0.9251
  135MOL0     C17710   8.852   4.070  11.065  0.1652 -0.2346  0.1159
  135MOL0     C17711   8.726   3.994  11.021 -0.6197  0.1934  0.8638
  135MOL0     O17712   8.671   3.919  11.132  0.3029 -0.2461 -0.2240
  135MOL0     C17713   8.552   3.865  11.131  0.0962 -0.5101 -0.1619
  135MOL0     C17714   8.520   3.776  11.231 -0.1998  0.5563 -0.9118
  135MOL0     C17715   8.393   3.717  11.232 -0.2087  0.8113  0.5036
  135MOL0     C17716   8.295   3.742  11.131 -0.0356 -0.7567  0.3108
  135MOL0     C17717   8.162   3.664  11.142 -0.4041 -0.4975  0.6261
  135MOL0     O17718   8.153   3.584  11.251  0.1719 -0.5652 -0.4872
  135MOL0     C17719   8.038   3.505  11.272 -0.0295  0.8634 -0.2307
  135MOL0     C17720   7.996   3.432  11.161  0.6907 -0.3210  0.4550
  135MOL0     C17721   7.887   3.349  11.177  0.4832 -0.5406 -0.6476
  135MOL0     C17722   7.831   3.325  11.303  0.0686  1.2946  0.3561
  135MOL0     O17723   7.728   3.239  11.337  0.0685  0.7891  0.2710
  135MOL0     C17724   7.679   3.147  11.232 -0.1841 -0.5145 -0.2648
  135MOL0     C17725   7.597   3.037  11.302  0.1354 -0.5403 -0.7874
  135MOL0     C17726   7.503   2.959  11.212 -0.7027 -0.4156 -0.4425
  135MOL0     C17727   7.422   2.865  11.296 -0.5135  0.2765 -1.3424
  135MOL0     C17728   7.397   2.728  11.242 -0.2834  0.7547  0.1124
  135MOL0     C17729   7.259   2.674  11.280  0.4132 -0.0684  0.4154
  135MOL0     C17730   7.250   2.538  11.220  0.7427  0.0322  0.4123
  135MOL0     C17731   7.126   2.469  11.275  0.6291  0.1591  0.4529
  135MOL0    Cl17732   6.975   2.578  11.263  0.2500  0.1950 -0.0434
  135MOL0     C17733   7.875   3.397  11.421 -0.0201  0.6969  0.3473
  135MOL0     C17734   7.981   3.490  11.399  0.6814 -0.1104 -0.5933
  135MOL0     O17735   8.067   3.693  11.063  0.4329  0.0940 -0.1771
  135MOL0     C17736   8.331   3.833  11.033 -1.0180 -0.7069  0.3613
  135MOL0     C17737   8.455   3.888  11.029  0.2624 -0.4743 -0.1205
  135MOL0     N17738   9.147   3.690  10.984 -0.0214  0.2815 -0.5913
  135MOL0     N17739   9.261   3.641  11.010 -0.3622 -0.3975 -0.5023
  135MOL0     C17740  10.285   4.313  11.296 -0.7393  0.1272 -0.5010
  135MOL0     C17741  10.408   4.381  11.293  1.3305  0.6534  0.9679
  135MOL0     C17742  10.795   4.504  11.105 -0.7023 -1.1608 -0.1692
  135MOL0     C17743  10.898   4.495  11.007 -0.3775  0.2950  0.7108
  135MOL0     C17744  11.021   4.550  11.024  0.1922  0.3966  0.4332
  135MOL0     C17745  11.056   4.615  11.145 -0.1492  0.4954 -0.1812
  135MOL0     O17746  11.184   4.661  11.155  0.1826 -0.0607  0.1916
  135MOL0     C17747  11.216   4.741  11.272  0.0550  0.8248  1.2378
  135MOL0     C17748  11.338   4.814  11.240  0.9890 -0.1469  0.3271
  135MOL0     C17749  11.465   4.732  11.214 -0.2287  0.9468 -0.5885
  135MOL0     C17750  11.578   4.822  11.167  0.4060  0.6994  0.3893
  135MOL0     C17751  11.622   4.918  11.272 -0.3086 -0.6028  0.1759
  135MOL0     C17752  11.661   4.998  11.348  0.5905 -0.6902  0.4654
  135MOL0     C17753  10.952   4.626  11.240  0.0217  0.1997 -0.2279
  135MOL0     C17754  10.827   4.573  11.221  0.1864  0.6801  0.2702
  135MOL0     H17755  10.398   4.476  10.966 -0.3647  0.5641  0.7764
  135MOL0     H17756  10.187   4.347  10.973  0.2164  0.4650 -0.4392
  135MOL0     H17757  10.136   4.109  11.022 -0.7546 -1.7188  0.3625
  135MOL0     H17758  10.003   4.227  11.010 -0.2086 -0.8951 -0.2071
  135MOL0     H17759  10.000   3.984  11.195 -0.4788  0.8768  0.5133
  135MOL0     H17760   9.962   3.964  11.032 -0.1467 -1.0429  0.0494
  135MOL0     H17761   9.774   4.132  11.030  1.6059  1.7406  0.5426
  135MOL0     H17762   9.801   4.166  11.200  2.1945  0.6596 -1.3077
  135MOL0     H17763   9.773   3.884  11.119  2.3103  0.3188  0.8725
  135MOL0     H17764   9.754   3.959  11.277 -2.3249  0.3340  1.0773
  135MOL0     H17765   9.551   3.996  11.054  1.3146 -1.3010  0.2248
  135MOL0     H17766   9.557   4.083  11.207  1.9780 -0.1317  1.2967
  135MOL0     H17767   9.402   3.897  11.230  0.3852  2.2316 -1.8349
  135MOL0     H17768   9.541   3.860  11.338  1.4471 -1.3059 -0.9803
  135MOL0     H17769   9.647   3.718  11.179  0.2780 -1.7540 -1.6763
  135MOL0     H17770   9.496   3.644  11.204  0.2079 -1.3618 -2.9404
  135MOL0     H17771   9.520   3.621  10.977 -4.3161 -1.4101 -1.6899
  135MOL0     H17772   9.533   3.797  10.948  0.7594 -0.1732  1.6977
  135MOL0     H17773   9.308   3.958  11.004 -1.8611  1.3115 -1.4445
  135MOL0     H17774   8.955   3.854  10.937  1.8604 -2.4346  2.4399
  135MOL0     H17775   9.052   4.003  10.897 -0.4713  0.1242 -0.9381
  135MOL0     H17776   9.064   4.059  11.133  1.6810 -0.7068 -0.1460
  135MOL0     H17777   8.966   3.923  11.178  0.7606 -0.0316  1.0909
  135MOL0     H17778   8.815   4.124  11.152 -1.1757  0.0579 -0.6010
  135MOL0     H17779   8.876   4.139  10.983  2.2855 -1.1878 -0.1426
  135MOL0     H17780   8.742   3.929  10.935 -1.6616  1.2635 -0.1598
  135MOL0     H17781   8.654   4.070  10.990 -1.5750 -1.8471 -2.3713
  135MOL0     H17782   8.586   3.751  11.314 -0.3519 -0.0186 -0.9615
  135MOL0     H17783   8.371   3.641  11.306  0.6755 -0.4629 -0.4926
  135MOL0     H17784   8.047   3.439  11.066 -1.1934  0.4543 -0.5633
  135MOL0     H17785   7.861   3.297  11.085  2.1890 -2.6387 -0.0384
  135MOL0     H17786   7.757   3.095  11.175 -0.9279  0.5788 -2.3919
  135MOL0     H17787   7.621   3.201  11.157  0.9813  3.2488  1.3030
  135MOL0     H17788   7.537   3.090  11.376  1.9565 -0.7216  0.9104
  135MOL0     H17789   7.671   2.974  11.353  2.0535  2.4369  0.3880
  135MOL0     H17790   7.556   2.898  11.137  0.1281 -1.2565  0.7884
  135MOL0     H17791   7.434   3.031  11.167 -1.7532 -1.2244 -0.1932
  135MOL0     H17792   7.475   2.857  11.391  0.1906  1.0661 -1.6621
  135MOL0     H17793   7.326   2.915  11.314 -0.7853 -1.0884  1.7537
  135MOL0     H17794   7.483   2.675  11.285 -0.0008 -0.1747 -1.5240
  135MOL0     H17795   7.413   2.732  11.134  0.9541 -1.6284  0.1532
  135MOL0     H17796   7.185   2.748  11.246  0.6810  0.1246  0.2433
  135MOL0     H17797   7.244   2.662  11.388  0.1931 -0.8546  0.2984
  135MOL0     H17798   7.240   2.546  11.111  0.3510  0.0237  0.4471
  135MOL0     H17799   7.335   2.474  11.245  1.5841  1.4132  1.2072
  135MOL0     H17800   7.142   2.453  11.382 -1.4805 -1.4164  0.6046
  135MOL0     H17801   7.112   2.377  11.218  1.9746  1.3270 -1.9493
  135MOL0     H17802   7.823   3.382  11.515 -0.2759  1.0367  0.2607
  135MOL0     H17803   8.018   3.556  11.477 -1.9874  1.7655 -0.7531
  135MOL0     H17804   8.252   3.856  10.963 -1.0216  0.5441  0.7410
  135MOL0     H17805   8.484   3.962  10.954  3.1193  0.8464  2.1075
  135MOL0     H17806  10.252   4.269  11.389 -2.2851 -0.0714 -1.1052
  135MOL0     H17807  10.476   4.383  11.377  0.5897  0.4030  1.5793
  135MOL0     H17808  10.878   4.448  10.912  1.3898 -1.1891  1.0090
  135MOL0     H17809  11.099   4.543  10.949  0.5028  1.3491  0.6454
  135MOL0     H17810  11.240   4.681  11.360  2.5237  1.1579  0.8584
  135MOL0     H17811  11.133   4.809  11.294  1.2866  2.9071 -0.2231
  135MOL0     H17812  11.315   4.876  11.152  1.8544  0.0098  0.2094
  135MOL0     H17813  11.365   4.877  11.325  5.1403 -2.9049  1.3428
  135MOL0     H17814  11.439   4.653  11.143 -2.2410 -1.5829  2.7017
  135MOL0     H17815  11.505   4.674  11.298 -1.2039  0.9859 -0.0804
  135MOL0     H17816  11.665   4.756  11.157  1.1608  1.8506 -0.9262
  135MOL0     H17817  11.557   4.871  11.071  0.9292 -0.3546 -0.2973
  135MOL0     H17818  11.716   5.068  11.407  2.5908  1.1848 -3.2060
  135MOL0     H17819  10.975   4.675  11.334  2.5094 -0.9988 -0.1294
  135MOL0     H17820  10.748   4.597  11.291 -1.1527 -0.5032 -0.7868
  136MOL0     O17821   6.806   9.365   2.254 -0.6471  0.1226  0.1129
  136MOL0     C17822   6.846   9.296   2.342  0.2381 -0.9166 -0.1280
  136MOL0     O17823   6.763   9.237   2.429 -0.3536  0.0329  0.4978
  136MOL0     C17824   6.640   9.294   2.444 -0.5275 -0.8157  0.0320
  136MOL0     C17825   6.614   9.428   2.486  0.2418  0.1658 -0.0943
  136MOL0     C17826   6.476   9.464   2.506 -0.8270  0.1128  0.8570
  136MOL0     C17827   6.368   9.376   2.496  0.0006  0.5762 -0.6222
  136MOL0     O17828   6.242   9.425   2.524 -0.5204  0.1369  0.3259
  136MOL0     C17829   6.143   9.336   2.568 -0.5922 -0.6994  0.5786
  136MOL0     C17830   6.022   9.412   2.625  1.1194  0.0839 -0.0402
  136MOL0     C17831   5.920   9.295   2.668 -0.5533 -1.0173 -0.1279
  136MOL0     C17832   5.781   9.360   2.681  1.0168 -0.5973  0.0090
  136MOL0     C17833   5.675   9.251   2.698 -0.7907 -0.4589 -0.7256
  136MOL0     C17834   5.680   9.184   2.838  0.3834  0.3891 -0.1275
  136MOL0     C17835   5.546   9.121   2.874  0.3740  0.4982 -1.2400
  136MOL0     C17836   5.563   9.039   3.003  0.4201 -0.0047  0.8425
  136MOL0     N17837   5.421   9.040   3.065 -0.9808  0.9175 -0.0944
  136MOL0     C17838   5.317   8.958   3.024  0.3229 -0.2604  0.1450
  136MOL0     C17839   5.211   9.012   3.087 -0.0396  0.0814 -0.1061
  136MOL0     C17840   5.078   8.951   3.092 -0.5303  0.2828  0.8686
  136MOL0     C17841   4.992   9.008   3.206  0.3017  0.7099 -0.1383
  136MOL0     C17842   4.852   8.931   3.208  0.2527  0.6490 -0.2849
  136MOL0     C17843   4.748   9.017   3.289  0.0783 -0.1213  0.1809
  136MOL0     O17844   4.618   8.968   3.243  0.2668 -0.3084 -1.0005
  136MOL0     C17845   4.500   9.004   3.305  0.3360  0.2477 -1.0615
  136MOL0     C17846   4.382   8.925   3.280 -0.1748 -0.7395 -0.3050
  136MOL0     C17847   4.258   8.959   3.331  0.2515 -0.5024  0.4755
  136MOL0     C17848   4.243   9.076   3.408  0.6260  0.5581  0.7719
  136MOL0     C17849   4.111   9.115   3.469 -0.6220 -0.3660  0.4629
  136MOL0     O17850   4.000   9.042   3.433 -0.8063  0.3076 -0.4246
  136MOL0     C17851   3.876   9.059   3.479 -0.1829 -0.6547 -0.8398
  136MOL0     C17852   3.799   8.943   3.495  1.2215  0.4181 -0.2939
  136MOL0     C17853   3.661   8.951   3.530 -0.4308 -0.1186  0.4424
  136MOL0     C17854   3.598   9.075   3.555  0.8448  0.3210 -0.1097
  136MOL0     O17855   3.467   9.078   3.606  0.0451 -0.1204 -0.0575
  136MOL0     C17856   3.378   9.189   3.570  0.0699  0.0205 -0.3598
  136MOL0     C17857   3.238   9.149   3.595 -0.3043 -0.3854 -0.2269
  136MOL0     C17858   3.194   9.050   3.490 -0.4094  0.1096  0.3891
  136MOL0     C17859   3.048   8.999   3.497 -0.6744  0.3495  0.4438
  136MOL0     C17860   2.940   9.109   3.496  0.1844  0.0715 -0.6270
  136MOL0     C17861   2.828   9.054   3.581 -0.3736 -0.1628 -0.1454
  136MOL0     C17862   2.749   8.937   3.518  0.1129 -0.5285 -0.1587
  136MOL0     C17863   2.659   8.967   3.395 -0.4871  0.2932 -0.6846
  136MOL0    Cl17864   2.529   9.067   3.461 -0.1766 -0.2227  0.1648
  136MOL0     C17865   3.677   9.189   3.538 -0.2155  0.2753 -0.2373
  136MOL0     C17866   3.812   9.175   3.505  0.1673 -0.3526  0.8017
  136MOL0     O17867   4.109   9.214   3.543 -0.8244  0.1741  0.0065
  136MOL0     C17868   4.356   9.157   3.423  0.2540  0.8462  0.3140
  136MOL0     C17869   4.483   9.128   3.385  0.5226 -0.3649  0.2193
  136MOL0     N17870   5.250   9.135   3.150  0.0729  0.6387 -0.8697
  136MOL0     N17871   5.380   9.145   3.141  0.7790  0.2530 -0.2869
  136MOL0     C17872   6.396   9.248   2.457  0.6292 -0.9154  0.5483
  136MOL0     C17873   6.530   9.210   2.417 -0.2125 -0.4132  0.0267
  136MOL0     C17874   6.989   9.257   2.356  0.6521 -0.0029  0.5574
  136MOL0     C17875   7.080   9.322   2.267 -0.8038 -0.2305 -0.2088
  136MOL0     C17876   7.219   9.290   2.277  0.2257 -0.3367 -0.0574
  136MOL0     C17877   7.253   9.190   2.368  0.1342 -0.6935  0.8452
  136MOL0     O17878   7.378   9.144   2.375 -0.1224 -0.5719  1.2514
  136MOL0     C17879   7.405   9.046   2.274 -0.0096 -0.2669  0.6793
  136MOL0     C17880   7.494   9.106   2.166 -0.1833 -1.1762 -0.3757
  136MOL0     C17881   7.626   9.171   2.223 -0.2210 -0.5469 -0.6699
  136MOL0     C17882   7.691   9.100   2.343  0.4906  0.1982  0.6062
  136MOL0     C17883   7.826   9.143   2.367  0.4597 -0.9887 -0.1001
  136MOL0     C17884   7.939   9.168   2.394  0.0069  0.1904  0.4221
  136MOL0     C17885   7.158   9.128   2.454 -0.7795 -0.4294  0.9460
  136MOL0     C17886   7.024   9.157   2.445 -0.1030 -0.0391  0.7917
  136MOL0     H17887   6.692   9.496   2.517  0.1535  0.0260  0.4489
  136MOL0     H17888   6.461   9.562   2.551  1.4652 -0.6192  3.5087
  136MOL0     H17889   6.183   9.280   2.653  2.8591  0.9580  0.1839
  136MOL0     H17890   6.104   9.285   2.479  1.9038  1.0883 -1.7210
  136MOL0     H17891   5.980   9.480   2.551 -0.6033  1.9931  2.5093
  136MOL0     H17892   6.046   9.465   2.718  2.6620  1.1081 -0.9753
  136MOL0     H17893   5.963   9.226   2.742  1.2313 -0.5113 -0.6476
  136MOL0     H17894   5.913   9.223   2.586  0.3480 -0.8811 -0.3318
  136MOL0     H17895   5.771   9.437   2.757 -2.0840  1.6876 -2.4665
  136MOL0     H17896   5.761   9.413   2.587  1.4203 -2.2389 -1.0519
  136MOL0     H17897   5.692   9.167   2.631  0.5012 -1.9991  1.4036
  136MOL0     H17898   5.578   9.302   2.694 -0.5495  0.0179 -0.5676
  136MOL0     H17899   5.715   9.254   2.915  2.2996  0.2088 -0.7718
  136MOL0     H17900   5.754   9.104   2.831  0.1047 -0.0517  1.6136
  136MOL0     H17901   5.468   9.198   2.880  0.5180  0.6017 -0.6414
  136MOL0     H17902   5.514   9.056   2.792 -2.4402  1.3121 -0.8885
  136MOL0     H17903   5.619   9.093   3.080 -0.3773  1.0220  0.7314
  136MOL0     H17904   5.612   8.945   2.980 -2.1742 -0.5673 -3.4114
  136MOL0     H17905   5.319   8.869   2.962  0.5031  1.4343 -2.4485
  136MOL0     H17906   5.093   8.843   3.096  0.4324  0.3294 -0.6851
  136MOL0     H17907   5.040   8.990   2.997  0.5804 -1.5083 -0.3698
  136MOL0     H17908   4.970   9.111   3.176  1.0456  0.9259  0.0407
  136MOL0     H17909   5.047   9.006   3.301  1.0303  0.4604 -0.5610
  136MOL0     H17910   4.804   8.917   3.111  1.1658  0.4511 -0.7225
  136MOL0     H17911   4.875   8.835   3.256  1.6332  1.3131  0.4580
  136MOL0     H17912   4.769   9.121   3.264  0.3617  0.0542  1.0798
  136MOL0     H17913   4.746   9.002   3.398 -3.5232  0.5948  0.3349
  136MOL0     H17914   4.391   8.833   3.225 -0.6922  0.8773 -3.3141
  136MOL0     H17915   4.180   8.886   3.310 -0.2808  0.0482  0.5058
  136MOL0     H17916   3.835   8.849   3.454 -0.0814  0.1354 -0.8165
  136MOL0     H17917   3.600   8.862   3.547 -0.4980  0.3619  3.2292
  136MOL0     H17918   3.388   9.219   3.465 -0.8446 -2.4607 -1.2340
  136MOL0     H17919   3.414   9.268   3.635  1.4581 -2.4445  2.0605
  136MOL0     H17920   3.173   9.237   3.598 -1.6862 -1.3281 -1.1891
  136MOL0     H17921   3.230   9.098   3.691  2.1165 -1.7962 -0.7105
  136MOL0     H17922   3.265   8.967   3.490 -1.0632 -0.4680  0.9732
  136MOL0     H17923   3.178   9.106   3.398 -2.3027  1.2296  1.3329
  136MOL0     H17924   3.024   8.932   3.413  1.6853 -1.7739  1.3207
  136MOL0     H17925   3.040   8.933   3.584 -5.9873  0.4889  0.3626
  136MOL0     H17926   2.911   9.136   3.394  0.0731 -4.7800 -2.1348
  136MOL0     H17927   2.983   9.194   3.549  0.4446  0.0021 -0.7271
  136MOL0     H17928   2.765   9.141   3.605 -1.1850  0.6541 -4.4491
  136MOL0     H17929   2.866   9.024   3.679  0.8336 -0.0297 -0.5566
  136MOL0     H17930   2.821   8.858   3.493  1.2560 -0.3502  2.3316
  136MOL0     H17931   2.681   8.903   3.597 -1.5451  2.7932  0.0327
  136MOL0     H17932   2.616   8.883   3.340 -1.2770  1.4625 -1.9280
  136MOL0     H17933   2.716   9.021   3.319  2.1287  0.6715  1.3930
  136MOL0     H17934   3.650   9.292   3.521  1.4346  0.4999 -1.7714
  136MOL0     H17935   3.869   9.266   3.491  2.3961 -1.4629  2.1970
  136MOL0     H17936   4.347   9.254   3.472 -0.0605  0.1389  1.7058
  136MOL0     H17937   4.568   9.194   3.388  0.5736 -0.4480  2.5343
  136MOL0     H17938   6.321   9.169   2.462  0.7756 -1.1045 -0.1617
  136MOL0     H17939   6.544   9.109   2.379 -2.0883 -0.7425  0.1126
  136MOL0     H17940   7.053   9.403   2.200 -0.4372 -0.4791 -0.6716
  136MOL0     H17941   7.293   9.339   2.215 -0.2172 -0.3901 -0.6405
  136MOL0     H17942   7.313   9.018   2.223  0.5456 -0.5368 -0.1842
  136MOL0     H17943   7.449   8.966   2.335  0.8040  0.2962  0.8586
  136MOL0     H17944   7.524   9.021   2.103 -0.4095 -2.6940  1.4726
  136MOL0     H17945   7.443   9.187   2.114 -0.3051  2.7198  5.0503
  136MOL0     H17946   7.606   9.277   2.237  0.0579 -0.3170 -1.9205
  136MOL0     H17947   7.701   9.158   2.145 -1.4908 -1.6912 -1.7572
  136MOL0     H17948   7.630   9.127   2.430 -1.4121 -2.2904  0.1448
  136MOL0     H17949   7.688   8.992   2.327  2.4625  0.5004 -2.6304
  136MOL0     H17950   8.042   9.194   2.412 -0.9940  2.7437  3.2447
  136MOL0     H17951   7.201   9.048   2.512  2.1314 -1.0273 -1.7836
  136MOL0     H17952   6.949   9.105   2.503  0.0975  1.6784  2.7036
  137MOL0     O17953   3.104   3.987   3.638 -0.2808  0.6988  0.5705
  137MOL0     C17954   3.153   4.089   3.682 -0.1785  0.1280  0.3418
  137MOL0     O17955   3.084   4.200   3.715  0.6623  0.1366 -0.3259
  137MOL0     C17956   2.945   4.207   3.728  0.1095  0.9952 -0.2701
  137MOL0     C17957   2.853   4.141   3.641  0.1300  0.1007 -0.7221
  137MOL0     C17958   2.719   4.174   3.647  0.4012 -0.5908  0.4127
  137MOL0     C17959   2.676   4.262   3.748 -0.2730 -0.2691  0.6949
  137MOL0     O17960   2.540   4.274   3.769  0.0152 -0.4743  0.6390
  137MOL0     C17961   2.488   4.402   3.784  0.0807  0.1785  0.1087
  137MOL0     C17962   2.335   4.409   3.760  0.2397 -0.3346  0.0194
  137MOL0     C17963   2.262   4.270   3.770  0.8043 -0.7826 -0.2049
  137MOL0     C17964   2.109   4.284   3.765  0.3263  0.4694  0.3077
  137MOL0     C17965   2.033   4.150   3.778  0.2838 -0.1055 -0.3862
  137MOL0     C17966   1.976   4.144   3.922  0.2167 -0.5003 -0.1137
  137MOL0     C17967   1.877   4.023   3.947 -0.8996 -0.0098 -0.4016
  137MOL0     C17968   1.748   4.048   3.864 -0.0049 -0.8625 -0.1654
  137MOL0     N17969   1.614   4.002   3.914 -0.1300 -0.2806  0.0404
  137MOL0     C17970   1.591   3.886   3.976 -0.7307  0.7120 -0.2474
  137MOL0     C17971   1.459   3.885   4.001  0.9322 -0.8310 -0.5973
  137MOL0     C17972   1.379   3.786   4.064  0.5182 -0.7749 -0.0982
  137MOL0     C17973   1.351   3.822   4.213  0.0200 -0.0325  0.3793
  137MOL0     C17974   1.473   3.819   4.305  0.7611  0.0473  0.4454
  137MOL0     C17975   1.548   3.685   4.297 -0.0807  0.5025  0.1766
  137MOL0     O17976   1.618   3.652   4.410 -0.4216  0.7705 -0.1635
  137MOL0     C17977   1.753   3.670   4.417 -0.0105 -0.4297 -0.3851
  137MOL0     C17978   1.842   3.742   4.336 -0.5556 -0.2960  0.2775
  137MOL0     C17979   1.976   3.749   4.357 -0.2782  0.3324  0.1724
  137MOL0     C17980   2.035   3.681   4.459  0.6682 -0.3096 -0.7431
  137MOL0     C17981   2.177   3.681   4.489  0.6491  0.6626 -0.2896
  137MOL0     O17982   2.220   3.633   4.610  0.7766  0.2151  0.1996
  137MOL0     C17983   2.353   3.656   4.641  0.3774 -0.8530 -0.5551
  137MOL0     C17984   2.418   3.778   4.614  0.1782  0.3124 -0.0250
  137MOL0     C17985   2.540   3.803   4.668 -0.3214  0.2227  0.4937
  137MOL0     C17986   2.599   3.714   4.757 -0.3437  0.1923  0.7393
  137MOL0     O17987   2.725   3.746   4.817  0.7741  0.2133  0.5998
  137MOL0     C17988   2.717   3.741   4.965  0.5261 -0.2843 -0.4311
  137MOL0     C17989   2.656   3.868   5.023 -0.2063 -0.3490 -0.1586
  137MOL0     C17990   2.719   4.007   4.981  0.8634  0.0279  0.1698
  137MOL0     C17991   2.690   4.114   5.079  0.5308  0.4647  0.9021
  137MOL0     C17992   2.724   4.263   5.034 -0.7427 -0.0583  0.2713
  137MOL0     C17993   2.721   4.372   5.143 -0.0263  0.2176  0.6486
  137MOL0     C17994   2.590   4.363   5.227 -0.6752  0.3316 -0.1199
  137MOL0     C17995   2.573   4.496   5.307 -0.1525 -1.0244 -0.4510
  137MOL0    Cl17996   2.712   4.521   5.423  0.0108 -0.3836 -0.1896
  137MOL0     C17997   2.535   3.594   4.783  0.2168  0.1335 -0.8941
  137MOL0     C17998   2.414   3.567   4.727 -0.4313  0.3665  0.3754
  137MOL0     O17999   2.241   3.703   4.392 -0.3144 -0.0609 -0.2864
  137MOL0     C18000   1.947   3.624   4.551 -0.3990 -0.2846  0.1626
  137MOL0     C18001   1.814   3.612   4.542 -0.0182 -0.8094  0.0320
  137MOL0     N18002   1.407   4.003   3.948  0.4945  0.0779 -0.2756
  137MOL0     N18003   1.502   4.066   3.890  1.2499 -0.2843 -0.1166
  137MOL0     C18004   2.761   4.318   3.839 -0.3784  0.1149  0.3367
  137MOL0     C18005   2.895   4.291   3.820 -0.5355  0.1064 -0.1960
  137MOL0     C18006   3.306   4.098   3.677 -0.2689 -0.5577  0.9253
  137MOL0     C18007   3.383   4.220   3.695  0.4389  0.1533  0.1580
  137MOL0     C18008   3.518   4.226   3.704 -0.1099  0.3576  0.2259
  137MOL0     C18009   3.588   4.105   3.684  1.2258  1.3095 -0.2525
  137MOL0     O18010   3.715   4.078   3.678  0.2788 -0.3928 -0.2114
  137MOL0     C18011   3.799   4.191   3.720  0.6164  0.4804  0.3832
  137MOL0     C18012   3.952   4.145   3.724  1.0174 -0.2100 -0.0287
  137MOL0     C18013   4.037   4.265   3.773  0.2298 -0.1316  0.2259
  137MOL0     C18014   4.180   4.229   3.813 -0.5385  0.4405  0.1698
  137MOL0     C18015   4.249   4.345   3.867  1.0659 -0.1298 -0.1728
  137MOL0     C18016   4.300   4.440   3.915  0.1482 -0.2824  0.3191
  137MOL0     C18017   3.514   3.986   3.655 -0.4043  0.7421  0.0285
  137MOL0     C18018   3.378   3.985   3.650 -0.3991  0.3735  0.8484
  137MOL0     H18019   2.881   4.072   3.563 -3.2901 -2.2934 -0.0595
  137MOL0     H18020   2.649   4.120   3.583 -1.5341  0.5944  1.4094
  137MOL0     H18021   2.534   4.456   3.700 -2.1480  0.0133 -1.3150
  137MOL0     H18022   2.522   4.450   3.876  1.4631 -0.5957  0.0215
  137MOL0     H18023   2.317   4.452   3.661  1.0969 -1.8059 -0.8053
  137MOL0     H18024   2.284   4.464   3.840  0.8886 -1.1772  1.0393
  137MOL0     H18025   2.295   4.226   3.864 -1.6039 -0.4038  0.9056
  137MOL0     H18026   2.297   4.204   3.691  0.2889 -1.4471  0.1123
  137MOL0     H18027   2.074   4.352   3.843  0.1082 -0.5943  1.1569
  137MOL0     H18028   2.089   4.334   3.670  1.5869  2.3658  0.9869
  137MOL0     H18029   2.099   4.066   3.755  0.1361 -0.3064 -0.0728
  137MOL0     H18030   1.953   4.158   3.704 -0.9830  0.7025  0.9952
  137MOL0     H18031   1.918   4.235   3.934  1.8986  0.4538  1.1682
  137MOL0     H18032   2.060   4.140   3.991 -0.9734 -2.3962  1.3394
  137MOL0     H18033   1.920   3.925   3.926 -2.9849 -1.5368  1.8889
  137MOL0     H18034   1.853   4.027   4.054 -1.1197 -3.6227 -0.1980
  137MOL0     H18035   1.761   4.002   3.765 -2.7801 -2.2483  0.0202
  137MOL0     H18036   1.743   4.156   3.843 -1.9266 -1.0607 -0.9230
  137MOL0     H18037   1.649   3.800   4.008 -3.2782 -1.1585 -0.3230
  137MOL0     H18038   1.427   3.688   4.056  1.8567 -0.5138  3.0528
  137MOL0     H18039   1.281   3.773   4.016  0.3592 -0.1201  0.0486
  137MOL0     H18040   1.279   3.751   4.255  1.5080 -0.1439  2.8966
  137MOL0     H18041   1.304   3.921   4.216  0.1594  0.2946 -3.3762
  137MOL0     H18042   1.541   3.902   4.281  2.7339 -1.3682  0.8983
  137MOL0     H18043   1.440   3.833   4.409 -0.4115  1.1065 -0.0424
  137MOL0     H18044   1.618   3.677   4.214 -0.0412  1.7217  0.0774
  137MOL0     H18045   1.476   3.605   4.274  2.1254 -1.4762 -0.2925
  137MOL0     H18046   1.805   3.790   4.245 -1.5383 -1.0767  0.2517
  137MOL0     H18047   2.038   3.792   4.279 -2.0120  0.6641 -1.0711
  137MOL0     H18048   2.361   3.853   4.560 -1.3146  1.2059  2.6070
  137MOL0     H18049   2.585   3.899   4.645  2.6585 -0.9355  1.1259
  137MOL0     H18050   2.817   3.721   5.004  0.8395  1.2880 -0.3418
  137MOL0     H18051   2.657   3.658   5.004  1.0057 -0.4906 -0.1273
  137MOL0     H18052   2.655   3.861   5.132 -0.4197  1.6214  0.0034
  137MOL0     H18053   2.551   3.863   4.994  0.6225 -2.4348 -3.2198
  137MOL0     H18054   2.675   4.026   4.882  1.2483  0.9249  0.1657
  137MOL0     H18055   2.828   4.006   4.969  1.3544  2.1708  3.2726
  137MOL0     H18056   2.583   4.111   5.102 -0.9351  3.1709 -4.1338
  137MOL0     H18057   2.747   4.089   5.169 -0.4850  0.3768  1.5356
  137MOL0     H18058   2.644   4.287   4.964 -0.2069  0.6516 -0.1082
  137MOL0     H18059   2.820   4.257   4.982  0.1186  0.8768  1.6800
  137MOL0     H18060   2.729   4.465   5.086  0.6171  1.2154  2.2970
  137MOL0     H18061   2.806   4.366   5.211  3.2958  1.7058 -2.9828
  137MOL0     H18062   2.510   4.330   5.160  1.0244 -0.6871 -1.7074
  137MOL0     H18063   2.596   4.282   5.300  1.1308 -1.3721 -2.0635
  137MOL0     H18064   2.481   4.509   5.366  0.3769  1.8954 -0.1222
  137MOL0     H18065   2.568   4.573   5.229 -0.5969  1.3322  1.7624
  137MOL0     H18066   2.591   3.525   4.846 -1.3924  1.9619  2.8695
  137MOL0     H18067   2.378   3.467   4.747  1.3248 -0.7050 -1.4216
  137MOL0     H18068   1.984   3.581   4.644  0.0527 -2.1829 -0.8543
  137MOL0     H18069   1.733   3.566   4.597 -0.1122  0.4373  0.9839
  137MOL0     H18070   2.726   4.372   3.927 -0.0424  0.5255  0.2217
  137MOL0     H18071   2.962   4.328   3.897 -2.9276 -1.7934  3.0595
  137MOL0     H18072   3.325   4.304   3.729  0.9592  0.8827 -0.7178
  137MOL0     H18073   3.564   4.317   3.740  2.5952 -1.3972  1.5595
  137MOL0     H18074   3.765   4.224   3.819  1.2943  0.3327  0.6688
  137MOL0     H18075   3.783   4.276   3.652 -0.0047  1.5752  1.8446
  137MOL0     H18076   3.963   4.073   3.806  0.3647 -2.3709 -1.7464
  137MOL0     H18077   3.995   4.112   3.629 -3.3351  1.5721 -2.9532
  137MOL0     H18078   3.983   4.323   3.849  2.0037  0.8690  0.7899
  137MOL0     H18079   4.045   4.322   3.680  1.4588 -0.2712  0.2249
  137MOL0     H18080   4.181   4.160   3.899  0.4367  2.0787  1.5438
  137MOL0     H18081   4.229   4.185   3.726 -3.5954 -2.7898 -0.1264
  137MOL0     H18082   4.358   4.525   3.944 -1.2802  0.5094  0.9991
  137MOL0     H18083   3.572   3.895   3.644 -3.0664 -1.8809  4.3645
  137MOL0     H18084   3.329   3.892   3.625 -1.2275  0.6443  1.4307
  138MOL0     O18085   4.088   7.872   2.186 -0.6917  0.8347  0.0609
  138MOL0     C18086   4.120   7.761   2.237 -0.2715  0.4908  0.5920
  138MOL0     O18087   4.065   7.719   2.356  0.6379 -0.6767 -1.0283
  138MOL0     C18088   3.949   7.772   2.409 -0.1167  0.5419  0.7113
  138MOL0     C18089   3.830   7.761   2.334 -0.2568  0.1351 -0.4306
  138MOL0     C18090   3.708   7.817   2.390 -0.2153  0.4304  0.5683
  138MOL0     C18091   3.722   7.891   2.508  0.4152 -0.0516 -0.1636
  138MOL0     O18092   3.622   7.963   2.571  0.4537 -0.1473 -0.0374
  138MOL0     C18093   3.482   7.916   2.552 -0.4408 -0.4565  0.5660
  138MOL0     C18094   3.407   7.954   2.674 -0.1299  0.2577  0.2570
  138MOL0     C18095   3.265   7.898   2.655 -0.2193 -0.7439 -0.9493
  138MOL0     C18096   3.173   7.954   2.771  0.1501 -0.2106  0.1281
  138MOL0     C18097   3.022   7.926   2.756 -0.2589 -0.4744 -0.4057
  138MOL0     C18098   2.941   8.021   2.845 -0.7692 -0.5449 -0.4184
  138MOL0     C18099   2.802   7.960   2.890  0.2625  0.1310 -0.1926
  138MOL0     C18100   2.693   7.960   2.785  0.6006  0.3928 -0.6434
  138MOL0     N18101   2.566   7.884   2.817  0.2582 -0.9790 -0.3317
  138MOL0     C18102   2.533   7.834   2.938  0.4655 -0.7494  0.9704
  138MOL0     C18103   2.427   7.764   2.914  0.6789  0.2969 -0.2183
  138MOL0     C18104   2.358   7.697   3.030  0.6152  0.6348  0.1761
  138MOL0     C18105   2.203   7.711   3.013  0.2125 -0.3471  0.5351
  138MOL0     C18106   2.129   7.648   3.123 -0.5834  0.6137 -0.2460
  138MOL0     C18107   1.992   7.708   3.122 -0.7467  1.1341  0.5242
  138MOL0     O18108   1.918   7.656   3.009  0.4140 -0.2691  0.6415
  138MOL0     C18109   1.781   7.678   2.998  0.2512  0.1907 -0.3560
  138MOL0     C18110   1.706   7.614   2.904  0.0588 -0.2177  0.3818
  138MOL0     C18111   1.566   7.615   2.893 -1.0329 -0.3323  0.1164
  138MOL0     C18112   1.494   7.702   2.981  0.7664 -0.2811 -0.0072
  138MOL0     C18113   1.348   7.718   2.970 -0.8614 -0.8058 -0.1893
  138MOL0     O18114   1.289   7.633   2.886 -0.0360  0.6262  0.1808
  138MOL0     C18115   1.159   7.635   2.852  0.7106  0.4075  0.0180
  138MOL0     C18116   1.119   7.590   2.730  0.6957 -0.0834  0.2535
  138MOL0     C18117   0.985   7.584   2.690 -0.8243 -0.1920  0.0566
  138MOL0     C18118   0.883   7.617   2.781  0.0174  0.0804 -1.1677
  138MOL0     O18119   0.750   7.584   2.753  0.6481 -0.0020 -0.0763
  138MOL0     C18120   0.710   7.590   2.612  0.2691 -0.5598  0.8061
  138MOL0     C18121   0.553   7.580   2.621  0.8925 -0.2078  0.8495
  138MOL0     C18122   0.491   7.623   2.484 -0.2044 -1.1230 -0.4026
  138MOL0     C18123   0.333   7.647   2.503 -0.4761  0.3902 -0.6304
  138MOL0     C18124   0.287   7.715   2.382 -0.3743 -0.4742  0.1690
  138MOL0     C18125   0.138   7.703   2.378 -0.0210  0.9577 -0.1170
  138MOL0     C18126   0.081   7.812   2.284 -0.0677  0.3388 -0.3139
  138MOL0     C18127  -0.071   7.817   2.307 -0.2157 -0.7509 -0.7514
  138MOL0    Cl18128  -0.162   7.897   2.166  0.0346 -0.0023 -0.7590
  138MOL0     C18129   0.913   7.663   2.901  0.0995  0.3496 -1.4090
  138MOL0     C18130   1.047   7.669   2.933 -1.0941  1.0389  0.1024
  138MOL0     O18131   1.299   7.817   3.018 -0.0505 -0.0747  0.5990
  138MOL0     C18132   1.567   7.778   3.064 -0.0843  0.0937  0.2891
  138MOL0     C18133   1.707   7.759   3.087  0.2049  0.0249  0.0805
  138MOL0     N18134   2.393   7.771   2.784 -0.0797 -0.5450 -0.1784
  138MOL0     N18135   2.474   7.842   2.724  0.1056  1.0121 -0.1558
  138MOL0     C18136   3.842   7.905   2.581 -0.9525 -0.0785  0.7594
  138MOL0     C18137   3.952   7.841   2.529 -0.1276 -0.2399  0.4090
  138MOL0     C18138   4.221   7.682   2.160  0.4971 -0.8065 -0.7192
  138MOL0     C18139   4.289   7.732   2.049 -0.8041  0.3799  0.1598
  138MOL0     C18140   4.391   7.653   1.992  0.5615 -0.0525 -0.4441
  138MOL0     C18141   4.438   7.537   2.052 -0.3307  0.5102 -0.3313
  138MOL0     O18142   4.534   7.462   1.991 -0.4662 -0.2019  0.5754
  138MOL0     C18143   4.561   7.335   2.054 -0.3129  0.4008  0.1291
  138MOL0     C18144   4.640   7.253   1.950  0.9774  0.4037  0.1660
  138MOL0     C18145   4.782   7.304   1.909 -0.5944 -0.0144 -0.2599
  138MOL0     C18146   4.770   7.430   1.822 -0.4013 -0.1973  0.3787
  138MOL0     C18147   4.906   7.483   1.784 -0.0836  0.2129 -0.7634
  138MOL0     C18148   5.014   7.523   1.762  0.1434  0.1926 -0.1594
  138MOL0     C18149   4.358   7.488   2.163  0.3024  0.2927  0.2631
  138MOL0     C18150   4.250   7.559   2.213 -1.1053  1.3971  0.2456
  138MOL0     H18151   3.825   7.723   2.233 -2.5770  4.5239 -2.2379
  138MOL0     H18152   3.621   7.808   2.326  0.2210  0.9290 -0.1058
  138MOL0     H18153   3.495   7.807   2.547 -0.8870 -0.7365  3.5606
  138MOL0     H18154   3.433   7.945   2.458 -0.9082 -0.4001  0.8238
  138MOL0     H18155   3.398   8.063   2.679  2.0461  0.4957 -0.3345
  138MOL0     H18156   3.456   7.922   2.766 -0.0436  0.3558  0.2452
  138MOL0     H18157   3.265   7.789   2.659  1.0544 -0.7302  0.7087
  138MOL0     H18158   3.225   7.935   2.560  3.6832  0.1197 -2.4331
  138MOL0     H18159   3.210   7.903   2.860  0.8861  0.0157 -0.0454
  138MOL0     H18160   3.186   8.062   2.773 -3.2015  0.3149 -0.7004
  138MOL0     H18161   3.006   7.823   2.789  4.1019 -1.3621 -0.3613
  138MOL0     H18162   2.990   7.932   2.651 -1.7445  0.7216  0.0799
  138MOL0     H18163   2.927   8.109   2.781  3.2085 -0.0494 -0.8431
  138MOL0     H18164   2.997   8.048   2.934 -0.6072 -2.0093 -0.0654
  138MOL0     H18165   2.817   7.861   2.934 -1.4288 -0.0393  0.0447
  138MOL0     H18166   2.768   8.024   2.972  0.9270 -1.0348  1.0463
  138MOL0     H18167   2.730   7.916   2.693  0.8322  0.3250 -0.5184
  138MOL0     H18168   2.655   8.062   2.774  3.8948  1.9340  0.8953
  138MOL0     H18169   2.579   7.856   3.034  0.6287  4.2736  0.0177
  138MOL0     H18170   2.380   7.748   3.124 -2.6402 -0.5173  1.6862
  138MOL0     H18171   2.405   7.599   3.041  2.3247  1.5238  1.3136
  138MOL0     H18172   2.161   7.655   2.928 -4.9100  0.1971  2.3313
  138MOL0     H18173   2.171   7.815   3.001 -0.6601 -0.6617  0.0271
  138MOL0     H18174   2.121   7.539   3.119 -0.1029  0.6091 -2.1205
  138MOL0     H18175   2.169   7.681   3.218  0.9025  3.7568 -1.8324
  138MOL0     H18176   2.004   7.816   3.108  6.5455  0.5228 -1.6504
  138MOL0     H18177   1.954   7.686   3.223 -0.5075  3.2890  1.1455
  138MOL0     H18178   1.752   7.532   2.851 -1.6865 -3.6567  3.6193
  138MOL0     H18179   1.524   7.552   2.815  1.9249 -1.3485 -0.7733
  138MOL0     H18180   1.195   7.563   2.658 -0.0778 -2.7467  0.3256
  138MOL0     H18181   0.953   7.549   2.593 -1.7573  1.6344 -0.3434
  138MOL0     H18182   0.751   7.515   2.544 -0.7333  0.2590 -0.7597
  138MOL0     H18183   0.727   7.686   2.562  1.4074 -1.9902 -1.6690
  138MOL0     H18184   0.514   7.638   2.704  2.0306 -0.2498  1.4403
  138MOL0     H18185   0.537   7.474   2.641  1.1806 -0.0912  1.7484
  138MOL0     H18186   0.515   7.551   2.405 -0.7261 -0.9484 -0.7282
  138MOL0     H18187   0.550   7.712   2.461  0.4823 -1.4018  0.2590
  138MOL0     H18188   0.288   7.552   2.534  3.1385 -0.3590  3.3341
  138MOL0     H18189   0.323   7.715   2.588  0.6233  0.0257 -0.1827
  138MOL0     H18190   0.327   7.680   2.286  2.5992 -2.4168  1.9654
  138MOL0     H18191   0.328   7.816   2.391  2.4156 -1.6903  2.6360
  138MOL0     H18192   0.084   7.709   2.474 -1.4946  2.2310 -0.9683
  138MOL0     H18193   0.103   7.612   2.328  1.4782 -1.2604  2.5793
  138MOL0     H18194   0.125   7.908   2.314 -1.6078 -0.0492  3.8049
  138MOL0     H18195   0.100   7.797   2.178  0.0813 -0.4610 -0.1817
  138MOL0     H18196  -0.091   7.872   2.400 -0.6948 -2.6651  0.3255
  138MOL0     H18197  -0.118   7.719   2.316 -3.4904  0.8180  1.1491
  138MOL0     H18198   0.841   7.685   2.978  2.8131  0.6865  1.2486
  138MOL0     H18199   1.087   7.713   3.025  0.1147 -1.0237  0.6201
  138MOL0     H18200   1.511   7.848   3.125 -1.8492 -1.2887  0.3401
  138MOL0     H18201   1.763   7.814   3.163 -0.2745 -0.7165  0.9974
  138MOL0     H18202   3.858   7.940   2.683  1.1872 -0.2682  0.5370
  138MOL0     H18203   4.051   7.837   2.572  1.4421  0.4797 -2.8482
  138MOL0     H18204   4.273   7.834   2.015 -0.2058  0.0027 -1.2972
  138MOL0     H18205   4.425   7.680   1.892  1.6508 -1.2648 -0.4343
  138MOL0     H18206   4.473   7.276   2.084 -0.9301  1.5847  0.6972
  138MOL0     H18207   4.626   7.356   2.139  0.1489  0.2620 -0.1868
  138MOL0     H18208   4.643   7.148   1.978 -1.0237 -0.8001 -3.5243
  138MOL0     H18209   4.579   7.257   1.860  1.4190  2.3753 -0.1084
  138MOL0     H18210   4.845   7.238   1.849  0.0323  0.7760 -0.4935
  138MOL0     H18211   4.834   7.315   2.005 -0.0656  1.9290 -0.7265
  138MOL0     H18212   4.740   7.396   1.723  2.3238 -3.5950  0.5473
  138MOL0     H18213   4.713   7.509   1.873  0.0651 -0.5124  1.4212
  138MOL0     H18214   5.106   7.568   1.729  0.4879 -0.8702 -0.6963
  138MOL0     H18215   4.393   7.400   2.216  2.2818  0.6806 -0.3125
  138MOL0     H18216   4.198   7.512   2.295 -0.1451  1.1477  0.7251
  139MOL0     O18217   7.016   9.093   6.562  0.3004 -0.3099 -0.4258
  139MOL0     C18218   7.046   9.119   6.674 -0.1431 -0.3920  0.1111
  139MOL0     O18219   6.960   9.133   6.782 -0.0076  0.2413  0.9306
  139MOL0     C18220   6.828   9.141   6.756 -0.2418 -0.0906 -0.0526
  139MOL0     C18221   6.760   9.252   6.704 -0.7313 -0.1060 -0.1536
  139MOL0     C18222   6.618   9.239   6.689 -0.5723  0.5432  0.8028
  139MOL0     C18223   6.543   9.121   6.721 -0.5578  0.2532 -0.1419
  139MOL0     O18224   6.407   9.113   6.709 -0.1294 -0.0732 -0.5326
  139MOL0     C18225   6.344   9.186   6.608 -0.0654 -0.7506 -0.5586
  139MOL0     C18226   6.196   9.149   6.600 -0.4610 -0.0374 -1.3220
  139MOL0     C18227   6.105   9.250   6.666  0.3756 -0.9188  0.1687
  139MOL0     C18228   5.953   9.226   6.643  0.6413  0.2864  0.2314
  139MOL0     C18229   5.860   9.314   6.726 -0.1200 -0.0339 -0.7381
  139MOL0     C18230   5.714   9.318   6.664 -0.5697  0.7385  0.3285
  139MOL0     C18231   5.640   9.186   6.679  0.2578  0.3140 -0.3055
  139MOL0     C18232   5.502   9.184   6.595 -0.0197 -0.7380 -0.1418
  139MOL0     N18233   5.420   9.074   6.645  0.0339 -1.6853  0.3536
  139MOL0     C18234   5.379   8.973   6.573 -0.4545 -0.9755  0.5985
  139MOL0     C18235   5.277   8.917   6.649 -0.8347  0.1619 -0.8086
  139MOL0     C18236   5.196   8.800   6.613 -0.2160  0.0871  1.1964
  139MOL0     C18237   5.095   8.838   6.508 -0.4643  0.3542  0.4707
  139MOL0     C18238   4.998   8.942   6.551 -0.1797 -0.0302  0.1615
  139MOL0     C18239   4.938   8.913   6.692 -1.7953 -0.6107  0.0216
  139MOL0     O18240   4.815   8.985   6.701 -0.3247  0.0552  0.6157
  139MOL0     C18241   4.698   8.921   6.714 -0.2667 -0.4579  0.4315
  139MOL0     C18242   4.650   8.789   6.699  0.3505 -0.4822 -0.3390
  139MOL0     C18243   4.514   8.747   6.719  0.0514 -1.0550 -0.0738
  139MOL0     C18244   4.422   8.845   6.767 -0.3285  0.3404  0.4349
  139MOL0     C18245   4.288   8.805   6.788 -0.2013 -0.1452  0.1509
  139MOL0     O18246   4.206   8.907   6.849 -0.1082 -0.8690 -0.6701
  139MOL0     C18247   4.073   8.900   6.818  0.2131  0.2650 -0.8818
  139MOL0     C18248   4.010   8.918   6.694  0.6722 -0.2710 -0.2427
  139MOL0     C18249   3.875   8.921   6.685 -0.1708  0.1950  0.4700
  139MOL0     C18250   3.794   8.895   6.798  0.0616  0.1136 -1.2412
  139MOL0     O18251   3.656   8.905   6.778 -0.2193 -0.0393  0.6651
  139MOL0     C18252   3.580   8.875   6.891 -0.2586 -0.5345  0.2677
  139MOL0     C18253   3.433   8.899   6.837 -0.1915  0.0987  0.4709
  139MOL0     C18254   3.322   8.842   6.943 -0.2123  0.4029  0.4669
  139MOL0     C18255   3.307   8.926   7.067  0.0014  0.2597 -0.2164
  139MOL0     C18256   3.168   8.910   7.128  0.3390 -0.7272 -0.3127
  139MOL0     C18257   3.159   8.970   7.270  0.5604 -0.5356  0.6359
  139MOL0     C18258   3.028   8.930   7.336  0.7039  0.5858  1.0111
  139MOL0     C18259   3.042   8.923   7.487 -0.1070  0.5112 -1.0403
  139MOL0    Cl18260   2.873   8.873   7.541  0.1607 -0.0688 -0.2773
  139MOL0     C18261   3.855   8.865   6.921 -0.0842  0.7666 -0.8623
  139MOL0     C18262   3.993   8.877   6.931 -0.0937  0.2507 -0.1168
  139MOL0     O18263   4.242   8.695   6.759  0.3278 -0.0190  0.2581
  139MOL0     C18264   4.476   8.971   6.799 -0.3710  0.4251  0.1144
  139MOL0     C18265   4.603   9.011   6.774 -0.3203  0.7604  0.6111
  139MOL0     N18266   5.284   8.969   6.782 -0.4806  0.3334 -0.5237
  139MOL0     N18267   5.371   9.068   6.774  0.7298 -0.6077  0.3390
  139MOL0     C18268   6.621   9.015   6.779 -0.2352 -0.5828 -0.3112
  139MOL0     C18269   6.754   9.038   6.792 -0.3135  0.2094 -0.2110
  139MOL0     C18270   7.186   9.139   6.703 -0.1955 -0.4673  0.6767
  139MOL0     C18271   7.219   9.180   6.836 -0.0478 -0.5234 -0.0602
  139MOL0     C18272   7.354   9.209   6.865 -0.0210 -0.5378  0.4665
  139MOL0     C18273   7.458   9.200   6.765  0.1366  0.3497 -0.3461
  139MOL0     O18274   7.596   9.209   6.785 -0.1603  0.6727  0.2621
  139MOL0     C18275   7.633   9.192   6.924 -0.3375 -0.0793  0.2008
  139MOL0     C18276   7.669   9.333   6.970 -0.1071  0.1306  0.2856
  139MOL0     C18277   7.818   9.371   6.922  0.1602 -0.0112 -0.2176
  139MOL0     C18278   7.866   9.519   6.956 -0.5703 -0.4010  0.5857
  139MOL0     C18279   7.942   9.537   7.083 -0.2684  0.1842 -0.5015
  139MOL0     C18280   8.016   9.546   7.186  0.0463 -0.1913 -0.0376
  139MOL0     C18281   7.426   9.154   6.635 -0.1561  0.5516 -0.6864
  139MOL0     C18282   7.288   9.124   6.605  1.2737  0.1508 -0.5210
  139MOL0     H18283   6.815   9.340   6.674 -0.2416  0.0967  1.2447
  139MOL0     H18284   6.562   9.316   6.637 -3.4339 -0.9159  1.4734
  139MOL0     H18285   6.387   9.177   6.509 -0.2282  0.8516 -0.8096
  139MOL0     H18286   6.352   9.294   6.629  1.1980 -0.9520  0.0696
  139MOL0     H18287   6.188   9.046   6.636  0.1605  1.0303  2.2340
  139MOL0     H18288   6.168   9.157   6.494  1.2542  1.2664 -1.7061
  139MOL0     H18289   6.120   9.354   6.634  0.9692 -1.3599 -1.0254
  139MOL0     H18290   6.131   9.257   6.772  0.1495 -0.4098  0.1926
  139MOL0     H18291   5.932   9.237   6.536 -2.0868  0.9612  0.7643
  139MOL0     H18292   5.927   9.123   6.669 -1.5108  0.8991  0.6120
  139MOL0     H18293   5.905   9.413   6.739 -0.7325  0.8548 -4.2536
  139MOL0     H18294   5.854   9.275   6.828 -0.4614  1.8010 -0.0148
  139MOL0     H18295   5.722   9.353   6.561  2.8976  3.2139  1.2493
  139MOL0     H18296   5.654   9.391   6.718 -1.9247  0.4135 -0.6983
  139MOL0     H18297   5.712   9.108   6.654  0.7793  0.6580  0.0797
  139MOL0     H18298   5.609   9.177   6.784 -0.4905 -0.4446 -0.5882
  139MOL0     H18299   5.521   9.176   6.487  0.5173 -2.4472  0.0595
  139MOL0     H18300   5.466   9.285   6.619  4.6018  1.2713 -0.4492
  139MOL0     H18301   5.409   8.965   6.468  0.8127  1.5582  0.7035
  139MOL0     H18302   5.148   8.757   6.701 -0.5798 -1.1003  0.4575
  139MOL0     H18303   5.264   8.724   6.573 -2.7365 -1.3701 -0.7068
  139MOL0     H18304   5.056   8.739   6.481  0.1761  0.1817  0.1478
  139MOL0     H18305   5.136   8.873   6.413 -1.2657  0.8547  0.2974
  139MOL0     H18306   5.031   9.046   6.546 -1.9326  0.5250 -1.1623
  139MOL0     H18307   4.913   8.937   6.481 -1.0926  2.1799  1.0057
  139MOL0     H18308   4.996   8.945   6.779 -2.3726 -2.4728  1.1578
  139MOL0     H18309   4.920   8.806   6.705 -2.3008 -0.7081 -1.3330
  139MOL0     H18310   4.724   8.713   6.673 -0.5272 -1.3937 -0.2647
  139MOL0     H18311   4.485   8.647   6.687 -2.4409 -0.0242 -1.3390
  139MOL0     H18312   4.069   8.938   6.605 -0.6230  2.6498 -0.5599
  139MOL0     H18313   3.830   8.937   6.587 -1.5414 -2.0120  0.6666
  139MOL0     H18314   3.592   8.945   6.973 -0.2768  0.4770 -0.5740
  139MOL0     H18315   3.588   8.774   6.933 -1.2539 -0.5307  0.4937
  139MOL0     H18316   3.410   8.844   6.746  0.7968  0.3849  0.0295
  139MOL0     H18317   3.417   9.007   6.828  0.3565  0.1574  0.1378
  139MOL0     H18318   3.355   8.744   6.977  0.6034  0.7146  0.6026
  139MOL0     H18319   3.226   8.828   6.893 -0.5470 -0.2769  1.2823
  139MOL0     H18320   3.382   8.894   7.139 -2.3461 -0.3266  2.1143
  139MOL0     H18321   3.319   9.033   7.047  0.9956  0.3527  0.8172
  139MOL0     H18322   3.143   8.804   7.125 -0.0612 -0.7681  2.4181
  139MOL0     H18323   3.105   8.965   7.058 -0.5800 -1.4029 -0.0280
  139MOL0     H18324   3.182   9.077   7.265 -1.3905 -0.1111 -0.2244
  139MOL0     H18325   3.238   8.919   7.326 -1.1932  0.0439  3.8990
  139MOL0     H18326   2.950   9.000   7.306  0.9177 -0.5707 -2.6505
  139MOL0     H18327   2.993   8.829   7.311  0.5303  0.7664  0.5250
  139MOL0     H18328   3.061   9.022   7.530 -0.2451 -0.1165  0.5468
  139MOL0     H18329   3.118   8.851   7.516  1.2697  1.6384 -1.7501
  139MOL0     H18330   3.800   8.835   7.010 -1.1163 -1.0136 -2.0336
  139MOL0     H18331   4.023   8.869   7.034 -4.5377  2.3111  1.6219
  139MOL0     H18332   4.422   9.035   6.869  0.8387 -0.6281  2.0998
  139MOL0     H18333   4.637   9.110   6.803  1.4166  0.1273  0.8725
  139MOL0     H18334   6.585   8.921   6.818  1.3168 -0.1636  2.4045
  139MOL0     H18335   6.801   8.970   6.862 -2.0844  0.0778  0.9062
  139MOL0     H18336   7.141   9.212   6.905 -2.4111  0.6782 -3.0112
  139MOL0     H18337   7.382   9.242   6.965  1.0512 -1.4043  0.4742
  139MOL0     H18338   7.725   9.133   6.929 -0.4428 -0.1503  1.7497
  139MOL0     H18339   7.565   9.135   6.987  1.7413 -0.5480  2.1595
  139MOL0     H18340   7.603   9.410   6.930 -0.6203  0.0806  1.0101
  139MOL0     H18341   7.657   9.340   7.079 -2.2043  0.2357  0.0960
  139MOL0     H18342   7.831   9.366   6.814 -2.4511 -0.8183 -0.5512
  139MOL0     H18343   7.892   9.300   6.959  0.1611  1.0540  1.9813
  139MOL0     H18344   7.932   9.544   6.872 -2.9745 -0.3209 -1.4045
  139MOL0     H18345   7.785   9.590   6.935 -1.4579 -1.0547  1.6910
  139MOL0     H18346   8.090   9.544   7.263 -1.6291  1.0247  1.6924
  139MOL0     H18347   7.502   9.147   6.557 -1.7011 -1.5438 -2.1037
  139MOL0     H18348   7.256   9.084   6.510  0.6475  0.3474 -0.4047
  140MOL0     O18349   1.698   9.119   7.277 -0.0445 -0.1020  0.7669
  140MOL0     C18350   1.627   9.185   7.342 -0.0434  0.2380  0.0301
  140MOL0     O18351   1.664   9.262   7.441 -0.2478 -0.3842  0.2569
  140MOL0     C18352   1.794   9.284   7.482  0.0956 -1.0060  0.5354
  140MOL0     C18353   1.903   9.299   7.387  0.0898  0.1616 -0.0186
  140MOL0     C18354   2.029   9.312   7.432 -0.5334 -0.5339  0.5592
  140MOL0     C18355   2.060   9.322   7.570 -0.4557  0.0359 -0.0820
  140MOL0     O18356   2.183   9.347   7.629  1.0862  0.1743  0.3056
  140MOL0     C18357   2.294   9.338   7.552 -0.1141 -0.2828  0.3921
  140MOL0     C18358   2.409   9.389   7.647 -0.1019  0.4435  0.1227
  140MOL0     C18359   2.404   9.538   7.679 -0.4758  0.5323 -0.0979
  140MOL0     C18360   2.495   9.568   7.794 -0.5258 -0.6280 -0.4419
  140MOL0     C18361   2.522   9.722   7.815 -0.4247  0.1421 -0.3324
  140MOL0     C18362   2.397   9.810   7.852  0.1760  0.8337  0.7707
  140MOL0     C18363   2.301   9.739   7.954  0.3419  0.6914  0.4897
  140MOL0     C18364   2.204   9.846   8.020 -0.6966 -0.0116 -0.5226
  140MOL0     N18365   2.127   9.916   7.919 -0.3996 -0.4919 -0.0981
  140MOL0     C18366   2.015   9.865   7.852 -0.7500 -0.4473 -0.3740
  140MOL0     C18367   2.005   9.936   7.739 -0.5456 -1.0131 -0.1789
  140MOL0     C18368   1.921   9.905   7.623  0.2522 -1.0407  0.0114
  140MOL0     C18369   1.952   9.757   7.586  0.5589 -0.0264 -0.0217
  140MOL0     C18370   1.887   9.705   7.446 -0.5685 -1.2459  0.2436
  140MOL0     C18371   1.753   9.632   7.457  0.0222  0.5719  0.5727
  140MOL0     O18372   1.674   9.709   7.545 -0.4067  0.7419 -0.3836
  140MOL0     C18373   1.545   9.701   7.516  0.1889  0.1440 -1.1617
  140MOL0     C18374   1.484   9.771   7.409  0.0764 -0.7214 -0.7028
  140MOL0     C18375   1.349   9.752   7.376 -0.2164  0.7890  0.1595
  140MOL0     C18376   1.265   9.664   7.451 -0.4277  0.3052 -0.2444
  140MOL0     C18377   1.118   9.661   7.431 -0.4219 -0.2510 -0.0634
  140MOL0     O18378   1.073   9.747   7.334 -0.1773  0.6271 -0.3756
  140MOL0     C18379   0.947   9.704   7.287  0.7894 -0.4084  0.3486
  140MOL0     C18380   0.930   9.617   7.177 -0.1793 -0.2646 -0.7867
  140MOL0     C18381   0.804   9.575   7.139 -0.9988  0.0571 -0.0223
  140MOL0     C18382   0.684   9.608   7.212 -0.0182 -0.0151 -0.4731
  140MOL0     O18383   0.562   9.559   7.170  0.2771  0.7792 -0.4440
  140MOL0     C18384   0.487   9.493   7.279  0.4642  0.5377  0.4810
  140MOL0     C18385   0.354   9.440   7.230  0.3687  0.2686  0.3626
  140MOL0     C18386   0.252   9.558   7.208 -1.3953  0.7599  0.0404
  140MOL0     C18387   0.128   9.502   7.133  0.7902 -0.2698  0.4586
  140MOL0     C18388   0.140   9.502   6.983 -0.0534 -0.1838 -0.5486
  140MOL0     C18389   0.009   9.536   6.918 -0.2974 -0.1974  0.2025
  140MOL0     C18390  -0.119   9.466   6.960 -0.0342  0.2457  0.5195
  140MOL0     C18391  -0.229   9.501   6.865  0.7936 -0.1848  0.2760
  140MOL0    Cl18392  -0.246   9.682   6.870  0.1056 -0.0287  0.3091
  140MOL0     C18393   0.699   9.702   7.317 -0.6584  0.2602  0.0216
  140MOL0     C18394   0.827   9.746   7.355  0.0424  0.1186  0.2562
  140MOL0     O18395   1.056   9.554   7.461  0.5429  0.3147  0.2284
  140MOL0     C18396   1.322   9.595   7.553 -0.1327 -0.2991 -0.7280
  140MOL0     C18397   1.458   9.609   7.585 -0.4553  0.5936  1.6004
  140MOL0     N18398   2.101  10.036   7.742 -0.0713  0.3520 -0.1086
  140MOL0     N18399   2.176  10.018   7.851 -0.1680 -0.5201  0.1666
  140MOL0     C18400   1.950   9.326   7.656 -0.8115 -0.1047 -1.1853
  140MOL0     C18401   1.820   9.309   7.615  0.0376 -0.0979 -0.0216
  140MOL0     C18402   1.483   9.169   7.323 -0.0742  0.0225 -0.1785
  140MOL0     C18403   1.400   9.256   7.378  0.3319 -1.3286 -0.4091
  140MOL0     C18404   1.262   9.256   7.353  0.2677  0.1279 -0.4159
  140MOL0     C18405   1.202   9.152   7.284  0.9238 -0.7982 -0.1817
  140MOL0     O18406   1.068   9.153   7.273  0.8563 -0.6390 -0.1862
  140MOL0     C18407   1.020   9.260   7.190 -0.2073 -0.1448 -0.4524
  140MOL0     C18408   0.869   9.237   7.167  0.2510 -0.3996  0.3886
  140MOL0     C18409   0.780   9.214   7.284 -0.1975 -0.0944 -0.1580
  140MOL0     C18410   0.803   9.305   7.403  0.8284 -0.4469 -0.0194
  140MOL0     C18411   0.728   9.264   7.522  0.4956  0.0714 -0.7972
  140MOL0     C18412   0.662   9.228   7.620  0.4201  0.0575  0.1533
  140MOL0     C18413   1.281   9.049   7.241 -0.5551  0.0161  0.3169
  140MOL0     C18414   1.421   9.055   7.256  0.5070 -0.5554  0.0846
  140MOL0     H18415   1.871   9.298   7.284 -1.1275 -0.1946  0.3520
  140MOL0     H18416   2.114   9.320   7.365 -0.7651  0.2643  0.3417
  140MOL0     H18417   2.288   9.389   7.455 -1.8945  1.2993  1.2666
  140MOL0     H18418   2.326   9.236   7.529 -0.6396 -0.8634  2.0926
  140MOL0     H18419   2.509   9.372   7.605  0.3255 -0.2690  1.3643
  140MOL0     H18420   2.396   9.337   7.743  0.7306 -0.6939 -0.3508
  140MOL0     H18421   2.298   9.565   7.683 -0.3810  0.7004  1.6904
  140MOL0     H18422   2.449   9.596   7.598  0.7690 -0.7818 -0.3875
  140MOL0     H18423   2.461   9.526   7.889  1.8318  2.2535  1.8927
  140MOL0     H18424   2.592   9.524   7.770 -0.9682 -1.4453 -0.7604
  140MOL0     H18425   2.568   9.755   7.722 -2.3873  1.5106 -0.8870
  140MOL0     H18426   2.586   9.733   7.903  0.7181  1.3095 -1.2706
  140MOL0     H18427   2.342   9.832   7.760  0.8315 -0.1199  0.1404
  140MOL0     H18428   2.430   9.902   7.901  1.8835  0.4549  0.3787
  140MOL0     H18429   2.242   9.665   7.899 -1.2526  1.1868  1.4425
  140MOL0     H18430   2.354   9.676   8.026 -1.8037 -2.9967 -0.8802
  140MOL0     H18431   2.266   9.910   8.084  1.2665 -4.2597  2.2219
  140MOL0     H18432   2.129   9.799   8.085 -0.0791  2.8958  2.5924
  140MOL0     H18433   1.957   9.778   7.882 -1.0379 -0.2017 -0.1967
  140MOL0     H18434   1.948   9.966   7.537  1.3770  0.5347  1.4264
  140MOL0     H18435   1.813   9.921   7.628  0.4085 -0.1345  0.6557
  140MOL0     H18436   1.927   9.694   7.672 -0.5844  0.6784  0.1912
  140MOL0     H18437   2.060   9.753   7.572  0.6326 -1.6093  0.8230
  140MOL0     H18438   1.871   9.792   7.382  3.5838 -1.3413 -1.2385
  140MOL0     H18439   1.964   9.653   7.389  1.1837  0.0550  1.3000
  140MOL0     H18440   1.771   9.532   7.497  0.5518 -0.2597 -1.5642
  140MOL0     H18441   1.707   9.616   7.359  1.0260 -0.1480  0.2072
  140MOL0     H18442   1.542   9.840   7.350  0.1508  1.0888  1.3805
  140MOL0     H18443   1.317   9.811   7.291  0.4169 -0.5078 -1.0312
  140MOL0     H18444   1.008   9.570   7.118  1.1214  1.8080 -0.7828
  140MOL0     H18445   0.808   9.509   7.053  0.7476  1.6142 -1.2342
  140MOL0     H18446   0.464   9.576   7.346 -0.3045  0.1595  0.6955
  140MOL0     H18447   0.543   9.412   7.327 -1.8186 -2.0277 -0.8960
  140MOL0     H18448   0.318   9.359   7.294 -0.3112 -0.6273 -1.0947
  140MOL0     H18449   0.371   9.390   7.134 -0.7428 -2.1260  1.3317
  140MOL0     H18450   0.304   9.634   7.147 -0.1878 -1.7941 -2.3524
  140MOL0     H18451   0.224   9.600   7.304 -2.1773 -1.1828  0.6978
  140MOL0     H18452   0.104   9.401   7.167  0.6543  0.1970  1.8253
  140MOL0     H18453   0.044   9.561   7.173 -0.9518 -1.0284 -1.8748
  140MOL0     H18454   0.181   9.407   6.947  0.4214 -0.5255  0.8349
  140MOL0     H18455   0.219   9.571   6.953 -0.3262  0.2036 -0.3757
  140MOL0     H18456   0.018   9.509   6.812 -0.6004 -2.8566  0.7915
  140MOL0     H18457  -0.003   9.644   6.933  2.1021  0.1176  0.1477
  140MOL0     H18458  -0.097   9.359   6.956  0.7504  0.4273 -0.7325
  140MOL0     H18459  -0.162   9.500   7.055 -0.1788  2.6938 -0.3370
  140MOL0     H18460  -0.326   9.463   6.896  0.6591  0.1827  0.3177
  140MOL0     H18461  -0.208   9.471   6.762  1.2165  1.2988 -0.1021
  140MOL0     H18462   0.611   9.733   7.372  1.0167  0.3920  2.8443
  140MOL0     H18463   0.840   9.801   7.447 -1.3851  1.3538 -0.2460
  140MOL0     H18464   1.266   9.525   7.614 -1.0469  0.7976 -0.2791
  140MOL0     H18465   1.502   9.543   7.659  0.0565  1.2934  1.9326
  140MOL0     H18466   1.973   9.353   7.758  3.6598 -0.6552 -1.8481
  140MOL0     H18467   1.748   9.317   7.695  1.9547 -1.7077  1.9789
  140MOL0     H18468   1.426   9.343   7.437 -1.3952 -2.7910  2.8319
  140MOL0     H18469   1.206   9.334   7.403 -0.1377  0.5480 -1.4850
  140MOL0     H18470   1.073   9.263   7.094 -0.8723  2.3248 -0.8031
  140MOL0     H18471   1.029   9.355   7.244  2.2589 -0.8596  0.5526
  140MOL0     H18472   0.827   9.323   7.114 -0.0879 -1.4171 -1.0441
  140MOL0     H18473   0.862   9.149   7.102  0.1284 -0.4749  0.5040
  140MOL0     H18474   0.796   9.109   7.312  0.0926 -0.3272 -1.1238
  140MOL0     H18475   0.675   9.220   7.254 -0.8900 -0.9151  1.9741
  140MOL0     H18476   0.911   9.299   7.420  1.0161  1.6792 -0.0973
  140MOL0     H18477   0.784   9.410   7.379  1.4075 -0.5218 -0.8527
  140MOL0     H18478   0.592   9.191   7.691  0.8447 -3.4198 -1.0469
  140MOL0     H18479   1.232   8.969   7.186 -0.1072  0.5230 -0.8568
  140MOL0     H18480   1.484   8.977   7.214  0.3047 -2.3787  2.9525
  141MOL0     O18481   6.356   4.277   5.498  0.5605 -0.1642  0.2580
  141MOL0     C18482   6.410   4.366   5.429  0.3890  0.3858  0.1118
  141MOL0     O18483   6.337   4.440   5.334  0.1327  0.3961  0.6988
  141MOL0     C18484   6.197   4.426   5.318 -0.1357  0.2215 -0.2383
  141MOL0     C18485   6.126   4.308   5.300 -0.4588  0.0363  0.4759
  141MOL0     C18486   5.991   4.302   5.265 -0.0915  0.5659 -0.5360
  141MOL0     C18487   5.925   4.427   5.248 -1.0991  0.0235  0.9542
  141MOL0     O18488   5.798   4.447   5.203  0.1801 -0.3135 -0.5265
  141MOL0     C18489   5.704   4.345   5.245  0.2064 -1.0003 -0.2730
  141MOL0     C18490   5.572   4.397   5.191 -0.5390 -0.5399  0.2687
  141MOL0     C18491   5.471   4.295   5.187 -0.1708  0.6750  0.2060
  141MOL0     C18492   5.350   4.332   5.100 -0.3067 -0.1406  0.5545
  141MOL0     C18493   5.255   4.215   5.107  0.0148  0.1926  0.1871
  141MOL0     C18494   5.116   4.267   5.112 -0.6506 -0.0798  0.8040
  141MOL0     C18495   5.034   4.147   5.125 -0.4324 -0.4589 -0.4896
  141MOL0     C18496   4.898   4.183   5.180  0.4141  0.1197 -0.2557
  141MOL0     N18497   4.809   4.061   5.197 -0.2038  0.1196  0.6988
  141MOL0     C18498   4.710   4.022   5.115  0.0628  0.1428 -0.6954
  141MOL0     C18499   4.664   3.909   5.161 -0.5831 -0.4260  0.1414
  141MOL0     C18500   4.554   3.814   5.106 -0.1144 -0.3960  0.7402
  141MOL0     C18501   4.458   3.766   5.211 -0.2304 -0.1226 -0.6814
  141MOL0     C18502   4.338   3.705   5.148 -0.0856 -0.2341 -0.3265
  141MOL0     C18503   4.229   3.682   5.250 -0.3924  0.0804 -0.1026
  141MOL0     O18504   4.094   3.643   5.200 -0.1624 -0.3070 -0.5041
  141MOL0     C18505   3.989   3.726   5.225 -0.0320  0.1921  0.8718
  141MOL0     C18506   3.859   3.680   5.230 -0.7377 -0.1151 -0.1812
  141MOL0     C18507   3.749   3.763   5.251 -0.2801  0.7822  0.8683
  141MOL0     C18508   3.772   3.900   5.274 -0.3732 -0.1702 -0.3240
  141MOL0     C18509   3.651   3.982   5.303  0.2801 -0.6278  0.3982
  141MOL0     O18510   3.669   4.115   5.342  0.4327  0.3545  0.5028
  141MOL0     C18511   3.560   4.196   5.369 -0.2910 -0.1746 -0.5911
  141MOL0     C18512   3.477   4.249   5.274  0.6009 -0.2390  0.0577
  141MOL0     C18513   3.369   4.337   5.300 -0.1917  0.1429  0.1943
  141MOL0     C18514   3.348   4.376   5.434  0.0535  0.0134 -0.6355
  141MOL0     O18515   3.247   4.450   5.476 -0.0202  0.0120  0.0963
  141MOL0     C18516   3.114   4.434   5.416  0.0083 -0.3739  0.0216
  141MOL0     C18517   3.072   4.544   5.316 -0.0032  0.7944 -0.4598
  141MOL0     C18518   3.088   4.688   5.353 -0.6419  0.0986 -0.7276
  141MOL0     C18519   3.067   4.788   5.239  0.8698 -0.4618 -0.8407
  141MOL0     C18520   3.071   4.938   5.280  0.1385 -0.0522  0.4416
  141MOL0     C18521   3.175   5.006   5.188 -0.0522  0.6054  0.2846
  141MOL0     C18522   3.327   4.974   5.205 -0.5348 -0.0425 -0.3326
  141MOL0     C18523   3.398   5.051   5.314  0.5041  0.1118 -0.0791
  141MOL0    Cl18524   3.341   5.002   5.479 -0.2224  0.0978 -0.0562
  141MOL0     C18525   3.443   4.341   5.530 -0.2200  1.4140 -0.1829
  141MOL0     C18526   3.543   4.250   5.494  0.0084  0.1576  0.0054
  141MOL0     O18527   3.541   3.932   5.281  0.3700 -0.3813 -0.4807
  141MOL0     C18528   3.903   3.954   5.270  0.0264  0.4038  0.9755
  141MOL0     C18529   4.008   3.864   5.231 -0.0070  0.1374  0.1260
  141MOL0     N18530   4.733   3.880   5.277 -0.6677 -0.3135 -0.8456
  141MOL0     N18531   4.822   3.968   5.296 -0.1210 -0.7794  0.6006
  141MOL0     C18532   5.986   4.546   5.278 -0.9058  0.2559 -1.1325
  141MOL0     C18533   6.123   4.542   5.317  0.1324  0.4046  0.0111
  141MOL0     C18534   6.556   4.379   5.450 -0.9914  0.6271  0.4624
  141MOL0     C18535   6.629   4.485   5.398  0.7477  0.3229  0.1462
  141MOL0     C18536   6.767   4.494   5.413  0.6748  0.8630  0.3877
  141MOL0     C18537   6.833   4.404   5.496 -0.0741  0.4389  0.4049
  141MOL0     O18538   6.959   4.435   5.542 -0.4141  0.0766  0.3904
  141MOL0     C18539   7.057   4.336   5.533  0.6076 -0.9514  0.4791
  141MOL0     C18540   7.198   4.403   5.524  0.0035 -0.2879 -0.2028
  141MOL0     C18541   7.237   4.497   5.633 -0.5414 -0.0259  0.1261
  141MOL0     C18542   7.390   4.537   5.621 -0.7277 -0.9874  0.2406
  141MOL0     C18543   7.426   4.652   5.701  0.5495 -0.5951  0.2213
  141MOL0     C18544   7.469   4.755   5.757  1.1253  0.9327  0.0324
  141MOL0     C18545   6.765   4.296   5.551  1.1358 -0.1981 -0.0273
  141MOL0     C18546   6.628   4.280   5.521  0.3135 -0.4122 -0.7296
  141MOL0     H18547   6.186   4.218   5.312  0.0090  0.2437 -0.2698
  141MOL0     H18548   5.935   4.214   5.236 -0.8311  0.2383  1.6690
  141MOL0     H18549   5.702   4.343   5.354  2.3874 -1.1780 -0.1924
  141MOL0     H18550   5.730   4.248   5.201  2.0881 -0.2544 -0.9316
  141MOL0     H18551   5.588   4.444   5.093 -0.4280 -0.0074  0.5396
  141MOL0     H18552   5.527   4.485   5.238  0.7236  2.4309 -3.5539
  141MOL0     H18553   5.431   4.265   5.284  0.1649 -0.7846 -0.0787
  141MOL0     H18554   5.505   4.203   5.138 -2.9910 -0.5472  0.3414
  141MOL0     H18555   5.295   4.416   5.145 -1.9611 -1.2053  0.6140
  141MOL0     H18556   5.379   4.357   4.997 -4.8288  2.1471 -0.4423
  141MOL0     H18557   5.276   4.148   5.191 -1.9194 -0.2840  0.3290
  141MOL0     H18558   5.278   4.151   5.022  0.8259 -0.3151  0.7712
  141MOL0     H18559   5.102   4.323   5.019 -0.6241 -1.9639 -0.4008
  141MOL0     H18560   5.099   4.334   5.196  2.4748  0.8946  0.7792
  141MOL0     H18561   5.012   4.103   5.027 -1.5080 -1.6246  0.2406
  141MOL0     H18562   5.078   4.080   5.200 -1.2529 -0.3744  0.0865
  141MOL0     H18563   4.862   4.264   5.116  1.2797  0.7081 -0.0105
  141MOL0     H18564   4.919   4.236   5.273  1.6642  0.0821 -0.5056
  141MOL0     H18565   4.680   4.074   5.024 -1.5317 -1.5026 -1.1695
  141MOL0     H18566   4.600   3.727   5.060  2.3962 -0.3812  2.9973
  141MOL0     H18567   4.505   3.877   5.031  0.3833  1.0734  1.6082
  141MOL0     H18568   4.431   3.845   5.282 -0.7720 -3.8746  3.8276
  141MOL0     H18569   4.509   3.699   5.280  1.1553 -0.9270 -2.4351
  141MOL0     H18570   4.310   3.779   5.072  1.0331 -1.0005 -1.5401
  141MOL0     H18571   4.360   3.610   5.099 -2.6759 -0.7106 -0.7205
  141MOL0     H18572   4.218   3.770   5.313  3.6689  1.6529 -1.3041
  141MOL0     H18573   4.261   3.594   5.306 -1.1547  0.4845  0.9979
  141MOL0     H18574   3.838   3.575   5.215 -0.0760 -0.3586  0.5172
  141MOL0     H18575   3.652   3.714   5.245  0.0919  0.1834 -0.6846
  141MOL0     H18576   3.489   4.236   5.167  2.4882 -1.1478  0.3442
  141MOL0     H18577   3.296   4.368   5.226 -1.6818  1.6454  2.1930
  141MOL0     H18578   3.052   4.421   5.505  0.3384 -3.2469 -0.0661
  141MOL0     H18579   3.102   4.337   5.367 -0.9563  0.0617 -0.6227
  141MOL0     H18580   2.968   4.526   5.290 -0.9358  1.5274  2.3609
  141MOL0     H18581   3.121   4.533   5.219  0.8847 -0.0761  0.0632
  141MOL0     H18582   3.192   4.700   5.387 -0.7432  0.8204 -0.6638
  141MOL0     H18583   3.018   4.714   5.432 -1.0505 -1.0956 -0.6799
  141MOL0     H18584   3.130   4.770   5.152  2.0138  1.3104 -0.4273
  141MOL0     H18585   2.964   4.771   5.206 -0.0026 -0.7483  1.7256
  141MOL0     H18586   3.082   4.966   5.385 -1.0406  1.9130  0.0978
  141MOL0     H18587   2.971   4.979   5.264  0.3807  0.1627 -0.6659
  141MOL0     H18588   3.155   5.113   5.203  2.9062  1.3484 -0.4438
  141MOL0     H18589   3.144   4.972   5.089 -0.4348 -0.8114  0.8706
  141MOL0     H18590   3.341   4.865   5.211 -1.7031 -0.1393  2.0752
  141MOL0     H18591   3.390   5.000   5.120  0.0754 -1.2665 -0.2820
  141MOL0     H18592   3.394   5.157   5.287 -0.9840 -0.3403 -1.8196
  141MOL0     H18593   3.507   5.039   5.308  0.3944 -1.5886  0.7016
  141MOL0     H18594   3.437   4.360   5.636  3.1853 -1.6735  0.7894
  141MOL0     H18595   3.607   4.207   5.570 -0.7906  0.5360  0.9136
  141MOL0     H18596   3.924   4.059   5.291 -0.2371  0.6609  0.0172
  141MOL0     H18597   4.103   3.908   5.201  0.2553 -0.3912  0.1809
  141MOL0     H18598   5.934   4.640   5.264  1.2825  2.2770  2.6355
  141MOL0     H18599   6.171   4.637   5.339 -0.3957  0.6976 -0.0843
  141MOL0     H18600   6.577   4.566   5.349  0.4694 -0.4559 -0.8747
  141MOL0     H18601   6.824   4.570   5.360  2.2430 -0.2307  0.4244
  141MOL0     H18602   7.050   4.263   5.451  4.3309 -0.7665 -0.1544
  141MOL0     H18603   7.056   4.284   5.629  0.3341  1.6779  1.9787
  141MOL0     H18604   7.271   4.323   5.512 -0.0529 -0.6992  1.8153
  141MOL0     H18605   7.197   4.467   5.435  0.0497 -0.0874 -0.0611
  141MOL0     H18606   7.215   4.453   5.731  2.1902  1.6886  1.6556
  141MOL0     H18607   7.179   4.585   5.606  0.5861  0.2096 -1.7017
  141MOL0     H18608   7.457   4.464   5.667 -1.9558  0.7387  5.3906
  141MOL0     H18609   7.417   4.556   5.516 -0.2365  0.0956  0.5493
  141MOL0     H18610   7.482   4.846   5.813  0.9386 -0.4286  2.4149
  141MOL0     H18611   6.816   4.220   5.609 -1.3827 -1.0344  1.2513
  141MOL0     H18612   6.574   4.197   5.566 -1.3227  2.2895  2.7939
  142MOL0     O18613   7.691   2.362   3.889  0.3999  0.0798 -0.0866
  142MOL0     C18614   7.604   2.449   3.873 -0.3327 -0.1444 -0.0972
  142MOL0     O18615   7.626   2.582   3.892 -0.4520  0.0710  0.4509
  142MOL0     C18616   7.745   2.639   3.933 -0.7315 -1.2139  0.5063
  142MOL0     C18617   7.731   2.783   3.949  0.6412  0.6282  0.5574
  142MOL0     C18618   7.845   2.861   3.975  0.1785  0.7412  0.0444
  142MOL0     C18619   7.975   2.807   3.967 -0.4840  0.0519  0.8884
  142MOL0     O18620   8.086   2.889   3.987 -0.0319  0.0799  0.3910
  142MOL0     C18621   8.183   2.825   4.068  0.1272 -0.5271 -0.3400
  142MOL0     C18622   8.266   2.939   4.123  0.6962 -0.8017  0.7764
  142MOL0     C18623   8.399   2.902   4.179  0.2899  0.1952 -0.1970
  142MOL0     C18624   8.504   3.016   4.210  0.3255  0.1423  0.3575
  142MOL0     C18625   8.629   2.951   4.268 -0.2947  0.3393  0.6743
  142MOL0     C18626   8.748   3.050   4.297 -0.3021  0.7405  0.7493
  142MOL0     C18627   8.862   2.982   4.393 -1.0690  0.3115 -0.6378
  142MOL0     C18628   8.930   2.871   4.303  1.1327 -0.2500 -0.2227
  142MOL0     N18629   8.859   2.743   4.312 -0.2374  0.2129 -0.4605
  142MOL0     C18630   8.835   2.679   4.429 -0.0610  0.6244  0.8186
  142MOL0     C18631   8.773   2.563   4.386 -0.1463 -0.2648  0.5805
  142MOL0     C18632   8.701   2.465   4.463  0.0594  0.6878 -1.0800
  142MOL0     C18633   8.567   2.427   4.406  0.0755 -0.1194 -0.4465
  142MOL0     C18634   8.468   2.546   4.415 -0.5699 -0.0917 -0.8841
  142MOL0     C18635   8.328   2.517   4.347 -0.4615  0.7418 -1.1088
  142MOL0     O18636   8.241   2.627   4.379 -0.8132  0.5614 -0.0410
  142MOL0     C18637   8.103   2.607   4.377 -0.3452 -0.2743  0.5394
  142MOL0     C18638   8.032   2.488   4.354  0.1185 -0.0685  0.1508
  142MOL0     C18639   7.891   2.487   4.326  0.6099 -0.0599  0.1894
  142MOL0     C18640   7.826   2.608   4.334 -0.5944  1.0790 -0.0093
  142MOL0     C18641   7.674   2.605   4.325  0.5623  0.1856  0.1532
  142MOL0     O18642   7.619   2.527   4.231 -0.3199  0.1067 -0.6387
  142MOL0     C18643   7.486   2.531   4.194  0.7977  0.0464  0.6631
  142MOL0     C18644   7.417   2.413   4.165  0.0355 -0.2728 -0.0696
  142MOL0     C18645   7.284   2.407   4.128  0.4264  0.5046 -0.8535
  142MOL0     C18646   7.215   2.523   4.117  0.3622  0.6619  0.2495
  142MOL0     O18647   7.084   2.522   4.083  0.3336 -0.1147  0.5580
  142MOL0     C18648   7.007   2.611   4.156  0.0486  0.8975 -0.8003
  142MOL0     C18649   6.857   2.588   4.137 -0.8367  0.0622 -0.3387
  142MOL0     C18650   6.800   2.639   4.008 -0.3008  1.0357 -0.7889
  142MOL0     C18651   6.770   2.785   4.023  0.6214  0.1211  0.5054
  142MOL0     C18652   6.692   2.839   3.903  0.1757 -0.7411  0.8391
  142MOL0     C18653   6.546   2.819   3.896  0.3968 -0.3318  0.1920
  142MOL0     C18654   6.480   2.886   3.779  0.0584  0.1733  0.1898
  142MOL0     C18655   6.332   2.839   3.768 -1.2865  0.7000 -0.5369
  142MOL0    Cl18656   6.310   2.658   3.730  0.0592  0.4028  0.4624
  142MOL0     C18657   7.286   2.648   4.139  0.1759 -0.1494  0.0180
  142MOL0     C18658   7.414   2.647   4.179 -0.2266 -0.2033 -0.1723
  142MOL0     O18659   7.616   2.696   4.376  0.0524 -0.0441  0.0581
  142MOL0     C18660   7.899   2.724   4.370  0.2381  0.0925  1.0360
  142MOL0     C18661   8.037   2.729   4.387 -0.8043 -0.2292 -0.9480
  142MOL0     N18662   8.758   2.562   4.249  0.4834  0.9343 -0.0465
  142MOL0     N18663   8.823   2.663   4.206  0.0479 -0.2314 -0.1488
  142MOL0     C18664   7.988   2.672   3.927  1.1774  0.1564  0.3070
  142MOL0     C18665   7.872   2.583   3.921 -1.1424 -0.8352  0.4147
  142MOL0     C18666   7.484   2.400   3.804 -0.1180 -0.3286  0.4252
  142MOL0     C18667   7.383   2.493   3.774  0.0974 -0.0381 -0.3821
  142MOL0     C18668   7.262   2.445   3.712 -0.3174  0.4690  0.5454
  142MOL0     C18669   7.245   2.311   3.671 -0.1654 -0.4111 -0.0869
  142MOL0     O18670   7.128   2.279   3.609  0.5545 -0.1477  1.0132
  142MOL0     C18671   7.099   2.137   3.588 -0.0981 -0.2094 -0.3232
  142MOL0     C18672   6.975   2.137   3.498  0.5235  0.2017 -0.0292
  142MOL0     C18673   6.857   2.214   3.541 -0.3260  1.3560  0.4945
  142MOL0     C18674   6.786   2.152   3.662 -0.5273  0.9498 -0.4053
  142MOL0     C18675   6.701   2.243   3.740  0.4378  0.2881 -0.6321
  142MOL0     C18676   6.632   2.317   3.804  0.3781 -0.2023  0.1652
  142MOL0     C18677   7.351   2.229   3.696 -0.2223  0.1519  0.1603
  142MOL0     C18678   7.469   2.268   3.767 -0.0938 -0.2344 -0.2211
  142MOL0     H18679   7.637   2.833   3.929 -0.1930 -0.0156  2.5995
  142MOL0     H18680   7.825   2.965   3.997  0.4391  0.8871 -0.4077
  142MOL0     H18681   8.241   2.761   4.001  0.0732 -0.2746 -0.6325
  142MOL0     H18682   8.137   2.773   4.152  0.8585  0.8667  0.9683
  142MOL0     H18683   8.198   2.989   4.193 -1.4863 -5.5738  2.5460
  142MOL0     H18684   8.294   3.002   4.038 -0.2183  1.3016  1.9413
  142MOL0     H18685   8.436   2.829   4.107  2.0419  0.3222  0.5292
  142MOL0     H18686   8.386   2.842   4.269 -0.0794 -0.6015 -0.7692
  142MOL0     H18687   8.532   3.076   4.123 -1.8435  1.5668  0.5620
  142MOL0     H18688   8.459   3.084   4.283  0.0533  1.5643 -1.0803
  142MOL0     H18689   8.654   2.868   4.202 -2.9288 -1.2634  1.5775
  142MOL0     H18690   8.595   2.911   4.364  2.7928 -0.0181  1.7334
  142MOL0     H18691   8.722   3.144   4.346  0.8768  1.0916  0.7412
  142MOL0     H18692   8.799   3.074   4.203 -0.5810 -1.3443  0.0284
  142MOL0     H18693   8.938   3.059   4.408 -0.8210 -0.0246 -0.1704
  142MOL0     H18694   8.825   2.956   4.493  2.3525  2.8183  1.4967
  142MOL0     H18695   9.032   2.853   4.340  0.3555 -1.0509  1.6614
  142MOL0     H18696   8.935   2.908   4.200 -1.5240 -1.0866 -0.7107
  142MOL0     H18697   8.853   2.709   4.532  0.5455 -1.5729  1.4150
  142MOL0     H18698   8.690   2.498   4.567 -2.8678  0.9544 -1.3819
  142MOL0     H18699   8.761   2.374   4.470  1.5354  1.6324 -1.1868
  142MOL0     H18700   8.527   2.340   4.460  1.7544 -1.2391 -0.9024
  142MOL0     H18701   8.584   2.392   4.304 -0.9591  0.5352 -0.8514
  142MOL0     H18702   8.465   2.564   4.523 -1.3357 -2.1845 -0.5203
  142MOL0     H18703   8.501   2.642   4.373 -4.4181  1.2986 -1.1347
  142MOL0     H18704   8.283   2.425   4.385  3.2545 -0.7433  0.1335
  142MOL0     H18705   8.343   2.504   4.239  0.1666  0.8364 -1.0383
  142MOL0     H18706   8.083   2.393   4.344  0.7905  0.5042 -2.3870
  142MOL0     H18707   7.831   2.398   4.308  1.3682 -0.7655  0.9937
  142MOL0     H18708   7.473   2.320   4.161 -0.6603 -0.7979  1.5334
  142MOL0     H18709   7.230   2.314   4.121 -0.7989  1.1953 -0.9658
  142MOL0     H18710   7.025   2.706   4.104  0.0953 -0.1127 -2.7431
  142MOL0     H18711   7.030   2.615   4.262  0.4604 -1.3588 -0.7568
  142MOL0     H18712   6.806   2.637   4.221  1.2910  0.3479  0.8545
  142MOL0     H18713   6.833   2.481   4.135 -1.9454  0.2870 -3.1388
  142MOL0     H18714   6.713   2.579   3.978  1.1714 -1.5085 -0.2710
  142MOL0     H18715   6.878   2.638   3.931 -0.1634  0.2163 -0.6516
  142MOL0     H18716   6.718   2.810   4.116  1.9462 -0.3500  1.3873
  142MOL0     H18717   6.865   2.838   4.031  0.7971 -0.0497 -0.3945
  142MOL0     H18718   6.731   2.790   3.813  1.7134  1.8083 -0.0060
  142MOL0     H18719   6.712   2.946   3.902 -2.0405 -0.2775  1.6838
  142MOL0     H18720   6.493   2.860   3.983 -1.3297  0.3196 -1.0968
  142MOL0     H18721   6.515   2.714   3.893  0.8109 -0.4721  0.6433
  142MOL0     H18722   6.494   2.994   3.794  1.5211 -0.0697  0.8430
  142MOL0     H18723   6.530   2.853   3.688 -0.0845  0.3084  0.0626
  142MOL0     H18724   6.290   2.889   3.680  0.8789  1.4701 -1.2052
  142MOL0     H18725   6.269   2.861   3.855  0.7272  1.7316  0.7330
  142MOL0     H18726   7.241   2.745   4.122 -2.2758 -1.2624 -0.2837
  142MOL0     H18727   7.463   2.742   4.199 -3.4254  1.6347 -0.2824
  142MOL0     H18728   7.841   2.815   4.380  0.5410  0.6838 -1.7221
  142MOL0     H18729   8.090   2.823   4.393  0.1416 -0.8407  2.6562
  142MOL0     H18730   8.085   2.628   3.910  0.9160 -1.2972  2.2250
  142MOL0     H18731   7.894   2.478   3.906 -3.6847 -1.5866  1.3491
  142MOL0     H18732   7.389   2.597   3.804 -0.6188 -0.7022  2.4081
  142MOL0     H18733   7.181   2.517   3.711 -1.9642 -1.1795  3.1714
  142MOL0     H18734   7.068   2.093   3.684  0.1093 -0.0222 -0.1688
  142MOL0     H18735   7.172   2.085   3.526 -2.0118 -0.7674 -2.2317
  142MOL0     H18736   7.001   2.175   3.399  1.2608 -0.0703  0.0498
  142MOL0     H18737   6.945   2.032   3.502 -0.8183  0.5896  2.2449
  142MOL0     H18738   6.781   2.214   3.461  1.8017  0.0552 -1.6572
  142MOL0     H18739   6.887   2.319   3.552  2.3705  0.7267 -0.2604
  142MOL0     H18740   6.739   2.057   3.633  0.1321  0.7588 -0.8803
  142MOL0     H18741   6.868   2.119   3.727 -0.7466 -2.6004 -1.6731
  142MOL0     H18742   6.579   2.399   3.847 -1.7301 -0.1507 -2.3120
  142MOL0     H18743   7.345   2.128   3.658 -3.0819  1.3726 -3.1683
  142MOL0     H18744   7.552   2.201   3.788  1.7176  2.3319  1.2617
  143MOL0     O18745   3.898   6.708  10.471 -0.8444 -0.1362  1.2114
  143MOL0     C18746   3.957   6.752  10.375 -0.3237 -0.7740  0.5102
  143MOL0     O18747   3.896   6.795  10.259  0.0878  0.1193 -0.1037
  143MOL0     C18748   3.755   6.802  10.245  0.6983  1.2655  0.1269
  143MOL0     C18749   3.712   6.894  10.149  0.7921 -0.4045 -0.5873
  143MOL0     C18750   3.576   6.898  10.119  0.7667 -0.5738  0.3501
  143MOL0     C18751   3.477   6.818  10.170 -0.0055 -0.1161 -0.4103
  143MOL0     O18752   3.345   6.815  10.128  0.2720 -0.3061  0.1879
  143MOL0     C18753   3.303   6.922  10.037  1.1289 -0.8975  0.2161
  143MOL0     C18754   3.156   6.907  10.004  0.2304 -1.0469 -0.2115
  143MOL0     C18755   3.094   7.033   9.931 -0.1114  0.3341 -0.9811
  143MOL0     C18756   3.015   7.133  10.015 -0.1993  0.4310 -0.1833
  143MOL0     C18757   2.867   7.135   9.973  0.3447 -0.1271 -0.1514
  143MOL0     C18758   2.806   6.997   9.997 -0.0931  0.6360 -0.0022
  143MOL0     C18759   2.658   6.999   9.972  0.4435  0.4834 -0.5084
  143MOL0     C18760   2.619   7.049   9.843  0.7394  1.0641 -0.5379
  143MOL0     N18761   2.486   7.008   9.797 -0.5690  0.0545 -0.6391
  143MOL0     C18762   2.380   7.094   9.788  0.7165 -0.3711 -0.2183
  143MOL0     C18763   2.298   7.047   9.692  0.8838  0.8809  0.2541
  143MOL0     C18764   2.180   7.120   9.636  0.3689  0.2332  0.3260
  143MOL0     C18765   2.042   7.107   9.708  0.5598  0.4884 -0.7406
  143MOL0     C18766   1.973   6.965   9.707  0.3745  0.4891  0.1560
  143MOL0     C18767   1.824   6.967   9.732 -0.8138  0.6023 -0.3982
  143MOL0     O18768   1.770   7.018   9.614  0.3309  0.3842  1.2750
  143MOL0     C18769   1.630   7.015   9.616  0.0256 -0.1811  0.0361
  143MOL0     C18770   1.569   7.082   9.506  0.1447 -0.3150  0.0352
  143MOL0     C18771   1.431   7.100   9.497 -0.2875  0.7513 -0.7596
  143MOL0     C18772   1.357   7.068   9.614  0.3326 -0.1201  0.7764
  143MOL0     C18773   1.211   7.097   9.620  0.4072  0.4857 -0.1639
  143MOL0     O18774   1.161   7.170   9.517  1.0038  1.1008  0.3728
  143MOL0     C18775   1.022   7.191   9.505  0.0832  0.4847  0.4882
  143MOL0     C18776   0.969   7.322   9.532  0.4370  0.2039 -0.2262
  143MOL0     C18777   0.826   7.335   9.539 -0.5726 -0.2070 -1.0377
  143MOL0     C18778   0.735   7.236   9.496 -0.1234 -0.3782  0.1328
  143MOL0     O18779   0.598   7.254   9.499 -0.5397  0.8968  1.0716
  143MOL0     C18780   0.538   7.372   9.558  0.1634  0.5551 -0.0782
  143MOL0     C18781   0.399   7.391   9.532  0.8059  0.3268  0.8599
  143MOL0     C18782   0.296   7.276   9.560  0.4043  0.0045 -0.8913
  143MOL0     C18783   0.149   7.314   9.553  0.2571  0.6344 -0.5768
  143MOL0     C18784   0.074   7.186   9.591 -0.2082 -0.6716  0.6426
  143MOL0     C18785  -0.074   7.202   9.584 -0.1183 -0.0474  0.4443
  143MOL0     C18786  -0.147   7.074   9.621  0.1277 -0.3244 -0.2877
  143MOL0     C18787  -0.297   7.083   9.600  0.4474 -0.2152  1.1674
  143MOL0    Cl18788  -0.316   7.081   9.427 -0.2143  0.4667 -0.3441
  143MOL0     C18789   0.794   7.116   9.455 -0.1076  0.0422 -0.4691
  143MOL0     C18790   0.932   7.092   9.469  0.0698 -0.1173  0.1829
  143MOL0     O18791   1.144   7.069   9.724  0.6658 -0.0569  0.5601
  143MOL0     C18792   1.415   6.997   9.726 -1.1045  0.2881 -0.3903
  143MOL0     C18793   1.550   6.973   9.724 -0.3718 -0.1601  0.1590
  143MOL0     N18794   2.354   6.928   9.644 -0.5335  0.0852  0.0737
  143MOL0     N18795   2.470   6.910   9.703 -0.3845  0.7869  1.1127
  143MOL0     C18796   3.523   6.721  10.263  0.5704  0.3030 -0.3283
  143MOL0     C18797   3.658   6.717  10.306  1.5516 -0.8498 -0.6450
  143MOL0     C18798   4.105   6.770  10.373 -0.1118  0.0916 -0.0500
  143MOL0     C18799   4.171   6.832  10.264 -0.4197  0.4108  0.0210
  143MOL0     C18800   4.306   6.845  10.258 -0.0798 -0.1864 -0.2100
  143MOL0     C18801   4.389   6.790  10.357  1.0116 -0.1794 -0.5546
  143MOL0     O18802   4.529   6.814  10.350  0.2013 -0.4850  0.0531
  143MOL0     C18803   4.616   6.772  10.451 -0.6910 -0.6135  0.1686
  143MOL0     C18804   4.648   6.622  10.418 -0.1460  0.1412 -0.8563
  143MOL0     C18805   4.779   6.581  10.486  0.8198 -0.2330 -0.1505
  143MOL0     C18806   4.904   6.655  10.421 -0.1218  0.9839 -0.3541
  143MOL0     C18807   5.006   6.639  10.522 -0.3495 -0.5300 -0.7352
  143MOL0     C18808   5.097   6.622  10.598  0.5709  0.2331 -0.2428
  143MOL0     C18809   4.323   6.731  10.470 -0.5793  1.0487  0.2609
  143MOL0     C18810   4.185   6.716  10.473  0.1997 -0.3154 -0.5671
  143MOL0     H18811   3.783   6.956  10.095 -0.4743  2.3267  0.6843
  143MOL0     H18812   3.552   6.973  10.044  0.3917 -2.4876 -1.5768
  143MOL0     H18813   3.356   6.914   9.942 -1.2266  0.6524 -1.3329
  143MOL0     H18814   3.330   7.018  10.083  0.0276 -0.8771  0.8523
  143MOL0     H18815   3.100   6.875  10.093  2.5048  0.1094  1.7646
  143MOL0     H18816   3.146   6.828   9.929 -1.2013  0.1626 -1.3528
  143MOL0     H18817   3.031   6.993   9.850 -0.8780 -1.0140  0.2341
  143MOL0     H18818   3.172   7.097   9.890  0.8437  2.1036  3.1361
  143MOL0     H18819   3.037   7.112  10.120  3.9865  1.7666 -0.6180
  143MOL0     H18820   3.056   7.231   9.989 -0.2368  1.0391  1.8790
  143MOL0     H18821   2.857   7.173   9.871  1.9550  0.5278 -0.1034
  143MOL0     H18822   2.822   7.207  10.042  1.9976  2.3935 -1.5617
  143MOL0     H18823   2.838   6.971  10.098 -1.6040  1.9572  0.8657
  143MOL0     H18824   2.845   6.916   9.935  1.3375 -0.2518  1.9532
  143MOL0     H18825   2.624   6.896   9.989  1.9072 -0.0546 -0.7467
  143MOL0     H18826   2.613   7.058  10.052  0.9777 -1.2326  1.1414
  143MOL0     H18827   2.678   7.005   9.762 -0.9522  1.6453 -2.1691
  143MOL0     H18828   2.630   7.158   9.841  1.8617  0.9621 -0.0839
  143MOL0     H18829   2.383   7.187   9.844  4.0965  0.1135 -1.0002
  143MOL0     H18830   2.171   7.094   9.530  1.1460  2.1264 -0.2529
  143MOL0     H18831   2.216   7.223   9.638 -2.6694  1.4222 -0.8645
  143MOL0     H18832   1.973   7.178   9.661  2.3087  0.8836 -2.8574
  143MOL0     H18833   2.059   7.134   9.812 -0.3746  0.7400 -0.6400
  143MOL0     H18834   1.991   6.912   9.613 -0.2481  0.0127  0.3026
  143MOL0     H18835   2.026   6.910   9.786  2.6946 -1.5064 -2.5689
  143MOL0     H18836   1.794   7.029   9.817 -0.0866 -3.4765  3.1443
  143MOL0     H18837   1.790   6.871   9.771 -4.6942  2.6461  1.8530
  143MOL0     H18838   1.630   7.123   9.427  0.4600  1.2413  1.0419
  143MOL0     H18839   1.385   7.139   9.407  0.7970 -1.1470 -2.2273
  143MOL0     H18840   1.029   7.407   9.563 -2.0366  2.0576 -0.2702
  143MOL0     H18841   0.789   7.433   9.567 -0.0650 -0.5473  0.9307
  143MOL0     H18842   0.592   7.460   9.522  0.5201  0.9143  1.2661
  143MOL0     H18843   0.547   7.371   9.667  2.1716  1.7389 -0.1648
  143MOL0     H18844   0.392   7.432   9.431  1.2486 -0.2500  0.5915
  143MOL0     H18845   0.374   7.476   9.597  0.6854  0.2092  0.9662
  143MOL0     H18846   0.320   7.233   9.657  3.7862 -0.9679 -2.0117
  143MOL0     H18847   0.312   7.199   9.484  2.9590 -1.5847  1.1068
  143MOL0     H18848   0.124   7.396   9.621  2.3145 -0.6053  1.8699
  143MOL0     H18849   0.136   7.338   9.447 -1.1642 -0.3733 -0.6624
  143MOL0     H18850   0.100   7.158   9.694  2.2556 -0.5052  0.1296
  143MOL0     H18851   0.116   7.107   9.527  1.7899  2.0754 -1.6819
  143MOL0     H18852  -0.105   7.234   9.484 -2.4118  0.9500  1.4083
  143MOL0     H18853  -0.103   7.292   9.638 -1.8962  0.0686 -0.6157
  143MOL0     H18854  -0.108   6.993   9.557  3.1460  1.6524 -1.1771
  143MOL0     H18855  -0.119   7.056   9.725 -1.3185 -0.9054  0.0177
  143MOL0     H18856  -0.333   7.179   9.636  0.1518  1.6802 -3.4407
  143MOL0     H18857  -0.353   6.996   9.635  0.1615 -0.7484 -0.5095
  143MOL0     H18858   0.732   7.031   9.426  0.2438 -0.0026 -1.1172
  143MOL0     H18859   0.972   6.998   9.433 -0.5035 -0.0044 -0.7790
  143MOL0     H18860   1.352   6.954   9.803 -0.3019  0.0544  0.1428
  143MOL0     H18861   1.599   6.915   9.801  0.9750  1.2630  0.4363
  143MOL0     H18862   3.461   6.645  10.310 -1.2656  2.1059  0.3645
  143MOL0     H18863   3.683   6.642  10.380 -0.0181 -0.4375  0.3546
  143MOL0     H18864   4.117   6.878  10.182  0.9778  1.8790 -0.1137
  143MOL0     H18865   4.342   6.908  10.177  3.3354  0.0952  1.3622
  143MOL0     H18866   4.565   6.781  10.548 -0.3850 -0.1103  0.2869
  143MOL0     H18867   4.704   6.837  10.452 -0.1475 -1.2797  2.4820
  143MOL0     H18868   4.570   6.556  10.458  2.4000 -3.3307 -1.1748
  143MOL0     H18869   4.662   6.609  10.310  2.7162 -0.4151 -0.4894
  143MOL0     H18870   4.792   6.472  10.485 -0.6922 -0.4373  0.1395
  143MOL0     H18871   4.777   6.602  10.594  0.1823 -1.1696  0.0314
  143MOL0     H18872   4.936   6.611  10.326 -0.3569  1.4231 -0.6439
  143MOL0     H18873   4.885   6.762  10.405  0.8149  1.0090 -1.4313
  143MOL0     H18874   5.188   6.617  10.654  1.4185  3.9934 -1.0089
  143MOL0     H18875   4.387   6.687  10.546 -0.6359 -0.2022 -0.3854
  143MOL0     H18876   4.123   6.671  10.550  1.1805  1.1313  1.1196
  144MOL0     O18877  10.142  10.068   9.597  0.0500  0.5805 -0.5486
  144MOL0     C18878  10.235  10.008   9.651  0.0083 -0.0436 -0.8927
  144MOL0     O18879  10.225   9.957   9.778  0.1109 -0.1758 -0.1461
  144MOL0     C18880  10.107   9.936   9.834 -0.0261  0.2926  0.4193
  144MOL0     C18881  10.032   9.825   9.790 -0.2741  0.0605 -0.1721
  144MOL0     C18882   9.913   9.790   9.855  0.3095  0.0861 -0.5593
  144MOL0     C18883   9.856   9.877   9.950  0.2846 -0.3022  0.3414
  144MOL0     O18884   9.742   9.827  10.007 -0.0562  0.2108  0.3770
  144MOL0     C18885   9.671   9.921  10.089 -0.4012 -0.0057  0.3412
  144MOL0     C18886   9.536   9.870  10.136  0.2039 -0.5171 -0.0128
  144MOL0     C18887   9.436   9.847  10.026 -0.4335  0.0983  0.1000
  144MOL0     C18888   9.308   9.778  10.088 -0.2288 -0.0976 -0.3480
  144MOL0     C18889   9.229   9.701   9.980 -0.1795 -0.6373 -0.2477
  144MOL0     C18890   9.084   9.689  10.031 -1.2492  0.1363 -0.0096
  144MOL0     C18891   8.991   9.652   9.920  0.3908 -0.1065 -1.4081
  144MOL0     C18892   8.857   9.599   9.985  0.0320  0.0102  0.6809
  144MOL0     N18893   8.752   9.571   9.889  0.1098  0.1850  0.2678
  144MOL0     C18894   8.667   9.667   9.832  0.4974  0.4957 -0.2445
  144MOL0     C18895   8.580   9.590   9.764  0.8398 -0.4388 -1.3376
  144MOL0     C18896   8.479   9.650   9.675  0.5849 -0.4700  0.2456
  144MOL0     C18897   8.367   9.717   9.756 -0.4678 -1.0032 -0.1080
  144MOL0     C18898   8.267   9.623   9.833 -0.0718  0.5974  0.3512
  144MOL0     C18899   8.128   9.684   9.876  0.8640  0.5783  0.0540
  144MOL0     O18900   8.061   9.713   9.749  0.2995 -1.0848 -1.0533
  144MOL0     C18901   7.925   9.729   9.747 -0.4272 -0.7552  0.3938
  144MOL0     C18902   7.875   9.797   9.637  0.3492  0.2822  0.5383
  144MOL0     C18903   7.736   9.820   9.621  0.6293  0.2554 -1.4816
  144MOL0     C18904   7.647   9.766   9.718 -0.3295  0.1290  0.6003
  144MOL0     C18905   7.501   9.786   9.702  0.4030 -0.2606 -0.7013
  144MOL0     O18906   7.414   9.727   9.796 -0.0997 -0.1213 -0.7062
  144MOL0     C18907   7.275   9.744   9.794  1.0436  0.4950  0.6002
  144MOL0     C18908   7.196   9.774   9.905 -0.5684 -0.7910 -0.6079
  144MOL0     C18909   7.058   9.792   9.897  0.4242 -1.3492  0.2587
  144MOL0     C18910   6.996   9.760   9.771  0.1813 -0.3105 -0.3875
  144MOL0     O18911   6.859   9.752   9.763 -0.8969  0.8889  0.6157
  144MOL0     C18912   6.753   9.793   9.856 -1.1585 -0.4960 -0.4008
  144MOL0     C18913   6.619   9.792   9.781  0.2158  0.1660 -0.3453
  144MOL0     C18914   6.507   9.857   9.868 -1.1507  0.2923  0.5949
  144MOL0     C18915   6.379   9.829   9.790  0.6600  1.1357  0.0262
  144MOL0     C18916   6.261   9.868   9.879  1.0127  0.9136 -0.4589
  144MOL0     C18917   6.125   9.819   9.831 -0.1167 -0.1169  0.2980
  144MOL0     C18918   6.010   9.866   9.928 -0.5710  0.4744  0.9121
  144MOL0     C18919   5.991  10.019   9.918 -0.3218  0.1914  0.0527
  144MOL0    Cl18920   5.881  10.060   9.782 -0.2694 -0.0291  0.1283
  144MOL0     C18921   7.075   9.734   9.663 -0.2969  0.5225  1.4150
  144MOL0     C18922   7.211   9.738   9.668  0.4376  0.7629 -0.0968
  144MOL0     O18923   7.466   9.873   9.630 -0.3753  0.6654  0.1329
  144MOL0     C18924   7.702   9.710   9.837 -0.0117 -0.6877 -0.1532
  144MOL0     C18925   7.839   9.681   9.852  0.7954 -0.5138 -0.8709
  144MOL0     N18926   8.606   9.449   9.781 -1.0309  0.3110 -0.0312
  144MOL0     N18927   8.712   9.445   9.852 -0.0556  0.9273 -0.1717
  144MOL0     C18928   9.934   9.985   9.999  0.0088  0.1042 -0.3176
  144MOL0     C18929  10.057  10.018   9.940 -0.3219 -0.2170  0.1787
  144MOL0     C18930  10.368  10.009   9.586  0.7677  0.1720  0.0770
  144MOL0     C18931  10.385  10.036   9.443 -0.0261 -0.0252 -0.6620
  144MOL0     C18932  10.518  10.023   9.395 -0.0396  0.0771 -0.0349
  144MOL0     C18933  10.620   9.954   9.466  0.3910  0.3684  0.5565
  144MOL0     O18934  10.746   9.933   9.430 -0.7954  0.5251  0.3760
  144MOL0     C18935  10.773   9.935   9.288  0.5206 -0.3152  1.0116
  144MOL0     C18936  10.898   9.853   9.244 -0.8033  0.1329 -0.1438
  144MOL0     C18937  10.973   9.911   9.119  0.4553 -0.4372  0.2137
  144MOL0     C18938  10.995   9.811   9.008  1.4012  0.2623 -0.1267
  144MOL0     C18939  11.077   9.694   9.049 -0.7569 -0.1461  0.2097
  144MOL0     C18940  11.136   9.599   9.094  0.4046 -0.0999  0.4121
  144MOL0     C18941  10.592   9.924   9.599  0.1046  0.9811 -0.4405
  144MOL0     C18942  10.475   9.950   9.662 -0.4784  0.2864  0.0924
  144MOL0     H18943  10.076   9.773   9.706 -1.6341 -2.3999  0.5535
  144MOL0     H18944   9.861   9.701   9.819  0.7611  0.7366 -2.9931
  144MOL0     H18945   9.643  10.012  10.036 -2.5319 -0.6352  0.2968
  144MOL0     H18946   9.729   9.944  10.179  0.8617  0.2841 -0.5152
  144MOL0     H18947   9.492   9.939  10.208  2.0619 -0.1051  0.7931
  144MOL0     H18948   9.547   9.776  10.191 -2.6701 -0.9580 -0.0550
  144MOL0     H18949   9.479   9.784   9.948  1.3206  2.3535 -0.8294
  144MOL0     H18950   9.416   9.942   9.977  1.7180  0.3074 -0.4423
  144MOL0     H18951   9.326   9.720  10.179  1.3474  0.1786 -0.4566
  144MOL0     H18952   9.248   9.864  10.121 -0.2378 -0.5095  0.7188
  144MOL0     H18953   9.271   9.602   9.959  0.9286 -0.2072 -0.0973
  144MOL0     H18954   9.235   9.749   9.883 -3.2271 -0.3997 -0.4340
  144MOL0     H18955   9.056   9.784  10.078 -0.0622 -0.3122  1.6796
  144MOL0     H18956   9.090   9.611  10.108 -0.8540 -2.8118 -2.8195
  144MOL0     H18957   8.970   9.744   9.864 -0.8769 -0.2913 -1.2738
  144MOL0     H18958   9.029   9.575   9.853 -2.4315 -3.1355  0.1509
  144MOL0     H18959   8.819   9.667  10.062 -0.8150  0.6108 -0.2404
  144MOL0     H18960   8.879   9.502  10.030 -0.2652 -0.4488 -0.1533
  144MOL0     H18961   8.679   9.773   9.851 -0.3918  0.5935 -0.1798
  144MOL0     H18962   8.442   9.572   9.608  0.4021 -0.6213  0.5195
  144MOL0     H18963   8.527   9.729   9.617 -0.3217 -0.0656  0.0204
  144MOL0     H18964   8.313   9.768   9.675 -0.7021 -0.5121  0.3503
  144MOL0     H18965   8.408   9.800   9.814 -0.0082 -1.2739 -0.0405
  144MOL0     H18966   8.236   9.535   9.776  2.3574 -0.6207  0.8108
  144MOL0     H18967   8.312   9.581   9.923  1.6351  1.3354 -0.1229
  144MOL0     H18968   8.140   9.777   9.933 -1.4861  1.6539 -1.0707
  144MOL0     H18969   8.067   9.610   9.928  2.1383 -1.6736 -1.5103
  144MOL0     H18970   7.935   9.829   9.552 -0.5516  1.1590  0.2075
  144MOL0     H18971   7.697   9.873   9.534  1.0203 -1.1948 -2.5765
  144MOL0     H18972   7.241   9.794  10.001 -0.5255  1.3015 -1.0129
  144MOL0     H18973   7.005   9.813   9.990 -0.1167  0.4773 -0.4199
  144MOL0     H18974   6.768   9.890   9.904 -0.3894 -0.8502  0.1004
  144MOL0     H18975   6.756   9.720   9.937  3.0797  2.1391  2.2488
  144MOL0     H18976   6.593   9.689   9.758 -1.3626  0.6725 -0.9496
  144MOL0     H18977   6.631   9.838   9.682  1.4563 -0.2032 -0.3842
  144MOL0     H18978   6.539   9.962   9.873  4.1776 -0.9093 -1.0551
  144MOL0     H18979   6.506   9.806   9.964  1.1339 -0.6516  0.1877
  144MOL0     H18980   6.373   9.886   9.697  4.1501  0.0235 -1.0326
  144MOL0     H18981   6.373   9.722   9.769  1.1465  0.3421  3.3661
  144MOL0     H18982   6.248   9.977   9.879 -1.8976  0.6746  1.3129
  144MOL0     H18983   6.281   9.841   9.983  0.6527  1.8788 -0.1273
  144MOL0     H18984   6.133   9.710   9.839 -1.0102 -0.1533  0.8968
  144MOL0     H18985   6.101   9.840   9.727 -0.4146 -0.3247  0.3231
  144MOL0     H18986   5.917   9.813   9.906  1.0934 -3.4311  2.3516
  144MOL0     H18987   6.043   9.844  10.030  1.3776 -1.3180 -0.0356
  144MOL0     H18988   6.077  10.087   9.911 -1.6565  1.7894 -1.4132
  144MOL0     H18989   5.934  10.038  10.009 -0.1328  0.7446  0.0599
  144MOL0     H18990   7.026   9.713   9.568 -0.8703  0.6951  1.6727
  144MOL0     H18991   7.267   9.694   9.586  0.6059 -2.2685  1.4674
  144MOL0     H18992   7.633   9.685   9.917  1.0517  0.7907  1.3010
  144MOL0     H18993   7.869   9.619   9.936 -0.9599 -1.5547 -0.9705
  144MOL0     H18994   9.902  10.043  10.086  0.7738 -1.1566  0.8370
  144MOL0     H18995  10.125  10.085   9.992 -0.8393 -0.4578  1.1920
  144MOL0     H18996  10.307  10.073   9.377 -1.4382 -1.2185  0.2793
  144MOL0     H18997  10.537  10.065   9.297  1.9782  1.1635  0.7675
  144MOL0     H18998  10.785  10.041   9.268  0.4550 -0.3474  0.8063
  144MOL0     H18999  10.689   9.899   9.229  2.0439 -0.2766 -1.2995
  144MOL0     H19000  10.965   9.847   9.330 -1.7854 -1.2932  0.5533
  144MOL0     H19001  10.862   9.750   9.237 -2.0146  0.3342  2.1896
  144MOL0     H19002  11.072   9.953   9.141 -0.0703  0.6881  0.5402
  144MOL0     H19003  10.911   9.997   9.093 -0.4016 -1.7246 -2.3246
  144MOL0     H19004  10.895   9.768   8.991  1.3666  0.7781 -1.3498
  144MOL0     H19005  11.029   9.865   8.919 -0.3063  1.0288 -0.3654
  144MOL0     H19006  11.191   9.516   9.133  0.4290 -1.2349 -1.8698
  144MOL0     H19007  10.676   9.883   9.654 -0.1418  0.0606 -0.7270
  144MOL0     H19008  10.475   9.920   9.766  0.6461 -0.5955 -0.1352
  145MOL0     O19009   0.209   1.609   4.280 -0.5440  0.9097  0.3351
  145MOL0     C19010   0.288   1.517   4.232  0.5145 -1.6240 -0.5408
  145MOL0     O19011   0.253   1.436   4.134  0.8097  0.5701 -0.5451
  145MOL0     C19012   0.136   1.449   4.059  0.3939 -0.7114  0.1365
  145MOL0     C19013   0.093   1.576   4.010  0.5297 -0.3610 -0.5917
  145MOL0     C19014  -0.014   1.581   3.919 -0.3847  0.1795 -0.1941
  145MOL0     C19015  -0.087   1.462   3.883 -0.2299  0.1488  0.4624
  145MOL0     O19016  -0.194   1.441   3.797  0.7604  0.4739 -0.7521
  145MOL0     C19017  -0.289   1.542   3.785  0.5859 -0.8678 -0.5406
  145MOL0     C19018  -0.427   1.482   3.729  0.5383  0.1901  1.5487
  145MOL0     C19019  -0.503   1.599   3.661  0.0246  0.6752  0.4900
  145MOL0     C19020  -0.640   1.540   3.598 -0.7881  0.1242 -0.4392
  145MOL0     C19021  -0.743   1.652   3.566 -0.8500 -0.1780 -0.7761
  145MOL0     C19022  -0.708   1.746   3.446 -0.5314 -0.9690  0.1891
  145MOL0     C19023  -0.805   1.694   3.336  0.2102  0.2146 -0.1588
  145MOL0     C19024  -0.939   1.773   3.326  0.1579  0.6958 -0.2808
  145MOL0     N19025  -0.931   1.867   3.214  0.2438 -0.0474  0.3845
  145MOL0     C19026  -0.971   1.835   3.086 -0.8167  0.3271  0.2655
  145MOL0     C19027  -0.932   1.940   3.010  0.9734  0.5971  0.2593
  145MOL0     C19028  -0.931   1.941   2.855 -0.0767 -0.6516 -0.4820
  145MOL0     C19029  -1.068   1.934   2.785 -0.1204  0.0090 -0.7378
  145MOL0     C19030  -1.156   2.055   2.808  0.8853 -0.2028  0.9026
  145MOL0     C19031  -1.267   2.049   2.706  0.2185 -0.3498 -0.3264
  145MOL0     O19032  -1.315   2.183   2.707 -0.1617 -0.1350 -0.3561
  145MOL0     C19033  -1.410   2.225   2.621 -0.0514  0.1038  0.3570
  145MOL0     C19034  -1.414   2.193   2.486 -0.0200 -0.7435  0.2003
  145MOL0     C19035  -1.513   2.252   2.402 -0.4396 -0.8475 -0.2517
  145MOL0     C19036  -1.603   2.343   2.464 -0.3928  0.1133 -0.9326
  145MOL0     C19037  -1.713   2.406   2.389 -0.0058  0.1381 -0.7220
  145MOL0     O19038  -1.765   2.343   2.282  0.0086 -0.5319 -0.2214
  145MOL0     C19039  -1.866   2.404   2.217  0.6165  0.1589 -0.5000
  145MOL0     C19040  -1.845   2.517   2.146 -0.5548  0.6251  0.7819
  145MOL0     C19041  -1.954   2.581   2.093  0.9522  0.4281 -0.8051
  145MOL0     C19042  -2.087   2.521   2.094  0.0698 -0.0124 -0.6436
  145MOL0     O19043  -2.178   2.604   2.042 -0.2123 -0.0505  0.1196
  145MOL0     C19044  -2.313   2.588   2.062 -0.3583 -0.2711  0.0046
  145MOL0     C19045  -2.383   2.703   2.003 -0.1995  0.4579  0.2196
  145MOL0     C19046  -2.529   2.682   2.002  0.1903  0.4630 -0.0649
  145MOL0     C19047  -2.604   2.808   1.949  0.3030 -0.3093 -1.0683
  145MOL0     C19048  -2.762   2.794   1.967 -0.7186 -0.8259 -0.7078
  145MOL0     C19049  -2.823   2.691   1.881 -0.2124 -0.0365 -0.2369
  145MOL0     C19050  -2.971   2.719   1.873  0.4876  0.5254 -0.5293
  145MOL0     C19051  -3.054   2.604   1.809  0.9128 -0.3780  0.3161
  145MOL0    Cl19052  -3.235   2.630   1.842 -0.7055  0.1749  0.5147
  145MOL0     C19053  -2.104   2.395   2.150 -0.4136  0.4653  0.3283
  145MOL0     C19054  -1.991   2.339   2.220 -0.3273 -0.7540 -0.0020
  145MOL0     O19055  -1.759   2.508   2.437 -0.0559 -0.3049 -0.2254
  145MOL0     C19056  -1.593   2.379   2.605 -1.0960  0.5807  0.3572
  145MOL0     C19057  -1.491   2.315   2.679 -0.3601  0.2377  0.5682
  145MOL0     N19058  -0.879   2.033   3.087 -0.9607 -0.1707  0.0187
  145MOL0     N19059  -0.879   1.992   3.213  0.2611  0.7114 -0.3847
  145MOL0     C19060  -0.045   1.340   3.929 -0.7179 -0.1687  0.2248
  145MOL0     C19061   0.069   1.331   4.021 -0.7010  0.5480  0.4268
  145MOL0     C19062   0.425   1.506   4.292 -0.1488 -0.5955  0.4437
  145MOL0     C19063   0.486   1.613   4.356  0.8273  0.1503 -0.1695
  145MOL0     C19064   0.613   1.592   4.398 -0.1647  0.5647 -1.5963
  145MOL0     C19065   0.685   1.467   4.386 -0.4717  0.3758 -0.4360
  145MOL0     O19066   0.808   1.429   4.447 -0.1457  0.1523  0.2441
  145MOL0     C19067   0.901   1.534   4.471  0.1290 -0.4503  0.6261
  145MOL0     C19068   0.894   1.576   4.618  1.1007  0.7077  0.1769
  145MOL0     C19069   0.970   1.708   4.650 -0.3177  0.4146 -0.7981
  145MOL0     C19070   1.114   1.714   4.602  0.4888  0.9875 -1.1637
  145MOL0     C19071   1.194   1.640   4.698  0.4393 -1.4314  0.5483
  145MOL0     C19072   1.287   1.594   4.771  0.2120 -0.0118  0.2399
  145MOL0     C19073   0.621   1.371   4.315 -0.0989  0.0119  0.6253
  145MOL0     C19074   0.491   1.389   4.263  0.9663  0.3249 -0.1742
  145MOL0     H19075   0.129   1.672   4.046 -0.3451 -0.1848 -0.1855
  145MOL0     H19076  -0.038   1.672   3.865  1.5193 -0.1563 -1.6979
  145MOL0     H19077  -0.245   1.612   3.714 -1.4364  1.0754  0.0071
  145MOL0     H19078  -0.305   1.592   3.881  0.7271 -0.7803 -0.5624
  145MOL0     H19079  -0.482   1.445   3.817  0.1177  2.7692  2.4613
  145MOL0     H19080  -0.414   1.401   3.657  2.0288  0.9236  0.9631
  145MOL0     H19081  -0.446   1.656   3.587  0.1708 -0.9756 -0.7055
  145MOL0     H19082  -0.521   1.670   3.743 -0.2134  3.2815 -1.6785
  145MOL0     H19083  -0.613   1.479   3.512  0.3067  0.6902 -0.5134
  145MOL0     H19084  -0.691   1.470   3.665  0.1907 -0.8256 -0.6615
  145MOL0     H19085  -0.743   1.716   3.655 -0.8382  1.9168 -2.1854
  145MOL0     H19086  -0.848   1.623   3.557 -1.3341  1.3772 -0.5145
  145MOL0     H19087  -0.607   1.726   3.410 -0.1840  0.5188  0.2772
  145MOL0     H19088  -0.723   1.850   3.476 -1.3389 -1.5150  1.8197
  145MOL0     H19089  -0.765   1.722   3.238  0.0207  1.0140 -0.0171
  145MOL0     H19090  -0.807   1.585   3.337  0.5905  0.2084  0.5967
  145MOL0     H19091  -0.958   1.828   3.419  0.4493 -0.2298  0.3370
  145MOL0     H19092  -1.022   1.705   3.304  0.5642 -0.2385  0.9409
  145MOL0     H19093  -1.006   1.741   3.046  0.8966 -0.0419 -0.4906
  145MOL0     H19094  -0.878   1.850   2.825 -0.4495 -1.2595  0.6400
  145MOL0     H19095  -0.869   2.028   2.831  0.8108 -0.3005  2.6197
  145MOL0     H19096  -1.125   1.847   2.819 -0.3595 -0.1317 -1.4788
  145MOL0     H19097  -1.047   1.919   2.679 -1.6644  1.5414 -1.3169
  145MOL0     H19098  -1.191   2.054   2.911  2.2006 -1.0094  1.3704
  145MOL0     H19099  -1.098   2.148   2.809 -1.8168  1.5868  3.1172
  145MOL0     H19100  -1.352   1.989   2.737 -0.3608  0.1283 -0.9604
  145MOL0     H19101  -1.235   2.010   2.609  0.9977  1.5755 -0.8929
  145MOL0     H19102  -1.336   2.131   2.442  0.5102  0.3489 -0.4264
  145MOL0     H19103  -1.520   2.227   2.296  3.3522  1.0356 -1.1148
  145MOL0     H19104  -1.746   2.562   2.147  0.2396 -1.0198 -0.4023
  145MOL0     H19105  -1.936   2.672   2.037  1.7097  0.3845 -0.6545
  145MOL0     H19106  -2.336   2.587   2.169 -2.9203  2.0750 -0.3884
  145MOL0     H19107  -2.357   2.495   2.024 -3.1568  2.1629 -3.2875
  145MOL0     H19108  -2.352   2.710   1.898  1.6203  0.9601  0.7526
  145MOL0     H19109  -2.354   2.800   2.044 -1.5078  0.9349  0.0808
  145MOL0     H19110  -2.560   2.665   2.106  3.1132  1.9289  1.1741
  145MOL0     H19111  -2.558   2.594   1.944 -2.6041  1.7937 -0.8863
  145MOL0     H19112  -2.568   2.898   2.001  0.1500 -0.7070 -0.2715
  145MOL0     H19113  -2.586   2.832   1.843  0.5455 -1.4903 -1.3051
  145MOL0     H19114  -2.801   2.895   1.953  1.4903  0.1161 -0.5933
  145MOL0     H19115  -2.790   2.787   2.073  0.5706  1.2128 -0.1740
  145MOL0     H19116  -2.800   2.592   1.922  0.4236 -2.2596 -5.2170
  145MOL0     H19117  -2.770   2.695   1.786 -0.3908 -1.7153 -0.4292
  145MOL0     H19118  -3.011   2.728   1.975  0.9263 -1.4002 -0.1348
  145MOL0     H19119  -2.990   2.813   1.822 -1.1098 -0.1331 -1.1887
  145MOL0     H19120  -3.022   2.502   1.832 -0.2783 -0.7490  0.4097
  145MOL0     H19121  -3.032   2.622   1.704 -0.2748  1.2414  0.3090
  145MOL0     H19122  -2.202   2.348   2.142  0.7828 -2.2458  0.5116
  145MOL0     H19123  -2.002   2.242   2.267 -0.2630 -1.2354 -0.9586
  145MOL0     H19124  -1.661   2.444   2.659 -0.8204  0.5038  0.8036
  145MOL0     H19125  -1.491   2.342   2.784 -2.7566 -0.5368  0.8324
  145MOL0     H19126  -0.090   1.250   3.889 -0.8643  0.8643 -2.1285
  145MOL0     H19127   0.074   1.234   4.069 -2.9254  0.1355 -0.0974
  145MOL0     H19128   0.445   1.713   4.361  0.9532  0.1528  2.2650
  145MOL0     H19129   0.669   1.670   4.447  1.4279 -0.8805 -1.0094
  145MOL0     H19130   0.874   1.618   4.406 -0.1413 -0.4660  0.7200
  145MOL0     H19131   1.006   1.506   4.456  2.0571  4.8081  2.2573
  145MOL0     H19132   0.788   1.590   4.641  0.5553 -0.2813 -1.5292
  145MOL0     H19133   0.928   1.487   4.672 -1.7919 -0.5130  0.1716
  145MOL0     H19134   0.958   1.709   4.758  2.5297  0.7552 -0.4029
  145MOL0     H19135   0.918   1.793   4.605  1.3103  0.5977 -2.4693
  145MOL0     H19136   1.139   1.666   4.507 -0.5069 -0.4258 -0.7506
  145MOL0     H19137   1.146   1.819   4.602  2.3475  0.4523 -0.8041
  145MOL0     H19138   1.355   1.569   4.850  0.8195  0.5818 -0.0768
  145MOL0     H19139   0.667   1.274   4.295  2.8811  1.8410 -2.2019
  145MOL0     H19140   0.442   1.311   4.206 -2.2632  2.0322  0.0663
  146MOL0     O19141   3.106   2.457   8.365 -0.8392 -0.1303  0.1953
  146MOL0     C19142   3.114   2.579   8.375  0.1498 -0.5395  0.2685
  146MOL0     O19143   3.019   2.665   8.328 -0.2298 -0.0197  0.0257
  146MOL0     C19144   2.941   2.634   8.222 -0.0369 -0.0212 -0.1454
  146MOL0     C19145   2.996   2.582   8.103  0.5855 -0.1223  0.3431
  146MOL0     C19146   2.909   2.577   7.994  0.2238  1.0381 -0.1206
  146MOL0     C19147   2.777   2.610   8.000 -0.0434 -0.0002  0.8045
  146MOL0     O19148   2.702   2.601   7.878  0.0239  0.6973  0.3261
  146MOL0     C19149   2.556   2.613   7.873  0.4509  0.0657 -0.4084
  146MOL0     C19150   2.490   2.681   7.748 -0.0175 -0.3080  0.7899
  146MOL0     C19151   2.546   2.621   7.619 -0.6392 -0.0948 -0.4160
  146MOL0     C19152   2.479   2.678   7.500 -0.0199 -0.8675 -0.2413
  146MOL0     C19153   2.540   2.624   7.377  0.2284  0.4189  0.2606
  146MOL0     C19154   2.474   2.661   7.243 -0.2417 -0.6069  0.5774
  146MOL0     C19155   2.558   2.629   7.118 -0.5983  0.7540 -0.3891
  146MOL0     C19156   2.576   2.476   7.087 -0.5198  0.3634  0.7091
  146MOL0     N19157   2.614   2.469   6.943  0.3658  0.5970  0.0200
  146MOL0     C19158   2.527   2.467   6.837  0.3181 -0.1573  0.1140
  146MOL0     C19159   2.613   2.441   6.734  0.3973 -0.1131 -0.6632
  146MOL0     C19160   2.556   2.438   6.594  1.0010 -0.2772  0.5925
  146MOL0     C19161   2.491   2.297   6.552 -0.1325  0.3001 -0.1160
  146MOL0     C19162   2.366   2.263   6.623  0.2046 -0.0812 -0.6665
  146MOL0     C19163   2.295   2.127   6.581  0.3293 -0.3497  0.1647
  146MOL0     O19164   2.189   2.150   6.475  0.9595  0.2627  0.4117
  146MOL0     C19165   2.121   2.043   6.423  0.2129  0.1735 -0.5109
  146MOL0     C19166   2.159   1.912   6.442  0.7280  0.3812 -0.0198
  146MOL0     C19167   2.084   1.809   6.403  0.8466 -0.2477 -0.0177
  146MOL0     C19168   1.964   1.833   6.327  0.0578  0.4390  0.1105
  146MOL0     C19169   1.899   1.722   6.254 -0.7393  0.1331 -0.4012
  146MOL0     O19170   1.947   1.603   6.293  0.3296  0.3904 -0.4187
  146MOL0     C19171   1.888   1.481   6.245 -0.2600  0.0338  0.3724
  146MOL0     C19172   1.852   1.385   6.347 -0.8263 -0.4357  0.9071
  146MOL0     C19173   1.807   1.260   6.305 -0.2337  0.2754 -0.2588
  146MOL0     C19174   1.822   1.225   6.171  1.1617  0.1218 -0.5533
  146MOL0     O19175   1.785   1.097   6.132 -0.3215 -0.1544  0.6346
  146MOL0     C19176   1.734   1.073   6.001 -0.3666  0.1693 -0.7151
  146MOL0     C19177   1.673   0.930   6.006  0.0456  0.7545  0.8462
  146MOL0     C19178   1.612   0.889   6.138 -0.5255  0.7760 -0.9654
  146MOL0     C19179   1.532   0.760   6.142  0.6008  0.2573 -0.2436
  146MOL0     C19180   1.390   0.802   6.126 -0.5268 -0.1250 -0.4589
  146MOL0     C19181   1.301   0.684   6.082 -0.9860 -0.5029 -0.4667
  146MOL0     C19182   1.146   0.702   6.099 -0.0186  0.7044 -0.4414
  146MOL0     C19183   1.104   0.828   6.044  0.8885  0.4777  0.3113
  146MOL0    Cl19184   1.085   0.965   6.151  0.2193  0.3612 -0.2631
  146MOL0     C19185   1.845   1.320   6.072 -0.0517 -0.4269  0.1721
  146MOL0     C19186   1.887   1.449   6.107  0.3681 -0.3547  0.3448
  146MOL0     O19187   1.807   1.738   6.165 -0.1554 -0.4598  0.1941
  146MOL0     C19188   1.928   1.966   6.309  0.4916 -0.3560  0.3014
  146MOL0     C19189   2.012   2.074   6.342  0.5305  0.3960  0.0587
  146MOL0     N19190   2.739   2.465   6.775 -0.4627 -0.6016  0.1948
  146MOL0     N19191   2.735   2.500   6.904 -0.2865 -0.1293 -0.7203
  146MOL0     C19192   2.722   2.654   8.129 -0.1758  0.4316  0.5825
  146MOL0     C19193   2.813   2.665   8.234 -0.2301 -0.3871 -0.1534
  146MOL0     C19194   3.230   2.625   8.453  0.4726 -1.1110  0.3576
  146MOL0     C19195   3.242   2.759   8.489  0.3486 -0.8622  0.9983
  146MOL0     C19196   3.335   2.805   8.585  0.6844  0.4161 -0.0294
  146MOL0     C19197   3.432   2.714   8.624  0.3795 -0.4104  0.6334
  146MOL0     O19198   3.543   2.751   8.700 -0.2876 -0.0245  0.1289
  146MOL0     C19199   3.516   2.823   8.820 -0.1601 -0.6862 -0.4039
  146MOL0     C19200   3.642   2.831   8.908 -0.3474 -0.1769  0.3115
  146MOL0     C19201   3.726   2.963   8.890 -0.4961  0.0795 -0.2300
  146MOL0     C19202   3.852   2.962   8.984 -0.0025 -0.0586  0.8212
  146MOL0     C19203   3.932   3.081   8.961 -1.3396 -0.3088  0.2114
  146MOL0     C19204   4.005   3.175   8.924  0.7314 -0.5275 -1.1512
  146MOL0     C19205   3.429   2.585   8.577 -0.2800 -0.3815 -0.5126
  146MOL0     C19206   3.323   2.537   8.495  0.7194 -0.0456  0.3145
  146MOL0     H19207   3.098   2.546   8.111  1.6955  2.9514  1.5089
  146MOL0     H19208   2.957   2.558   7.899  3.4349  1.4693  1.2897
  146MOL0     H19209   2.535   2.672   7.963  2.3179 -1.7310  1.2929
  146MOL0     H19210   2.516   2.512   7.884  1.8557 -0.2390  3.2932
  146MOL0     H19211   2.506   2.788   7.764  1.3861 -0.7754  3.1060
  146MOL0     H19212   2.382   2.664   7.756  0.1287 -0.4648  3.3363
  146MOL0     H19213   2.529   2.513   7.619 -2.7737  0.2109 -0.4087
  146MOL0     H19214   2.652   2.648   7.618  0.0524 -2.3078  2.1355
  146MOL0     H19215   2.370   2.671   7.501 -0.0896  0.1176 -0.1979
  146MOL0     H19216   2.497   2.786   7.511  1.8711 -1.2657  1.1404
  146MOL0     H19217   2.531   2.515   7.380 -1.9025  0.5437 -0.2225
  146MOL0     H19218   2.643   2.660   7.367  0.2498  0.9885  2.1667
  146MOL0     H19219   2.476   2.771   7.246  0.1415 -0.6088  3.5483
  146MOL0     H19220   2.370   2.629   7.234 -0.5338  0.3363  0.4714
  146MOL0     H19221   2.505   2.671   7.032 -3.0605 -4.8097 -2.1015
  146MOL0     H19222   2.656   2.677   7.115  0.1864 -0.8153 -2.1094
  146MOL0     H19223   2.480   2.427   7.109 -0.3407 -0.6703 -0.7082
  146MOL0     H19224   2.646   2.429   7.157 -1.6574 -2.8825 -0.1369
  146MOL0     H19225   2.419   2.482   6.834  0.6189  3.1676  1.3808
  146MOL0     H19226   2.637   2.461   6.525 -0.3538  6.1689  0.5493
  146MOL0     H19227   2.480   2.516   6.581  0.1933 -1.3568 -1.7664
  146MOL0     H19228   2.567   2.222   6.576 -0.8775 -0.7865 -1.0149
  146MOL0     H19229   2.476   2.273   6.446 -3.0270 -1.9037  0.6466
  146MOL0     H19230   2.373   2.265   6.732 -4.1696 -0.7594 -0.1765
  146MOL0     H19231   2.303   2.349   6.596 -0.4110 -0.2002  0.3480
  146MOL0     H19232   2.265   2.082   6.676  0.6888 -0.8710  0.0327
  146MOL0     H19233   2.369   2.060   6.536  0.7063 -0.5730  1.1021
  146MOL0     H19234   2.257   1.887   6.481  1.8500 -1.0083 -3.3931
  146MOL0     H19235   2.121   1.710   6.428  1.3169 -0.2339 -0.6373
  146MOL0     H19236   1.852   1.409   6.453 -2.2595  0.3503  0.7580
  146MOL0     H19237   1.767   1.194   6.382 -0.6100 -0.9988 -1.5167
  146MOL0     H19238   1.796   1.084   5.912 -1.2639  1.6986 -1.1965
  146MOL0     H19239   1.648   1.138   5.984 -1.8363 -1.9656 -1.9514
  146MOL0     H19240   1.755   0.863   5.980  0.1130  0.3979  1.9114
  146MOL0     H19241   1.607   0.926   5.919  0.0138  1.7630  0.8131
  146MOL0     H19242   1.546   0.970   6.171 -1.3510 -0.6198  1.0605
  146MOL0     H19243   1.685   0.868   6.217 -2.6740 -3.8606  0.0860
  146MOL0     H19244   1.553   0.694   6.058 -1.1432  0.9183 -1.2350
  146MOL0     H19245   1.546   0.711   6.239  3.1128  0.1206 -0.5883
  146MOL0     H19246   1.393   0.874   6.045  4.2439  1.5242  0.8612
  146MOL0     H19247   1.352   0.855   6.214  1.3323 -0.1327  0.3858
  146MOL0     H19248   1.335   0.597   6.139 -0.5873  0.3810  0.6727
  146MOL0     H19249   1.326   0.659   5.978 -0.0995 -0.2732 -0.3146
  146MOL0     H19250   1.105   0.620   6.039  0.9386  1.1843 -1.8013
  146MOL0     H19251   1.100   0.688   6.197  0.8488 -3.3745 -0.4066
  146MOL0     H19252   1.001   0.805   6.014  1.2202 -4.1743  1.9044
  146MOL0     H19253   1.162   0.854   5.956 -1.4535  0.4520 -1.3534
  146MOL0     H19254   1.840   1.294   5.967  1.9403 -1.2412  0.2394
  146MOL0     H19255   1.913   1.516   6.027  0.6790 -1.1236 -0.2122
  146MOL0     H19256   1.840   1.991   6.250  2.0727  2.1589 -1.1588
  146MOL0     H19257   1.990   2.176   6.311 -0.2833 -0.6644 -3.3106
  146MOL0     H19258   2.623   2.684   8.162 -2.6289 -5.3983 -0.1906
  146MOL0     H19259   2.778   2.718   8.322 -2.6984  3.1359 -2.9505
  146MOL0     H19260   3.167   2.832   8.460  1.7680  1.4066  2.5883
  146MOL0     H19261   3.327   2.909   8.613  3.3686  0.6640  0.0591
  146MOL0     H19262   3.442   2.771   8.882  0.9968 -0.8627  0.8774
  146MOL0     H19263   3.492   2.924   8.788  1.8674 -1.0436 -3.3884
  146MOL0     H19264   3.605   2.843   9.010  1.1885 -1.2649  1.0425
  146MOL0     H19265   3.710   2.745   8.906  2.3361  1.8273 -0.3926
  146MOL0     H19266   3.663   3.052   8.903 -2.7284 -1.4624 -0.1166
  146MOL0     H19267   3.760   2.969   8.786  2.7430 -3.2981  0.4236
  146MOL0     H19268   3.829   2.949   9.090 -0.3602 -1.1769  0.6110
  146MOL0     H19269   3.903   2.877   8.937 -0.7712  0.8754 -1.8759
  146MOL0     H19270   4.072   3.256   8.901  1.0009 -0.1841  0.6682
  146MOL0     H19271   3.506   2.514   8.605 -1.7395 -1.4606  0.9469
  146MOL0     H19272   3.319   2.430   8.477  1.3777  0.2219 -1.6899
  147MOL0     O19273   1.800   0.990   1.666  0.1204 -0.2885 -0.1105
  147MOL0     C19274   1.765   1.029   1.779  0.4260  0.2523  0.0617
  147MOL0     O19275   1.853   1.015   1.885  0.5384  0.4525  0.4404
  147MOL0     C19276   1.982   0.990   1.862  0.8293  0.3582 -0.2207
  147MOL0     C19277   2.045   1.074   1.773 -0.2577 -0.2955 -0.1084
  147MOL0     C19278   2.174   1.043   1.736  0.7200  0.1168  0.6459
  147MOL0     C19279   2.236   0.927   1.785  0.1058 -0.0529 -0.1925
  147MOL0     O19280   2.371   0.889   1.776 -0.4554 -0.3909  0.6294
  147MOL0     C19281   2.453   0.961   1.680  0.1783  0.1975 -0.0583
  147MOL0     C19282   2.598   0.915   1.639  0.5817  0.2262  0.1271
  147MOL0     C19283   2.688   0.912   1.758 -0.1563 -0.5220 -0.4982
  147MOL0     C19284   2.672   0.777   1.826 -0.4625  0.0820  0.8518
  147MOL0     C19285   2.790   0.692   1.775  0.5534  0.4381  0.2711
  147MOL0     C19286   2.753   0.540   1.793 -1.0171  0.2415  0.1584
  147MOL0     C19287   2.853   0.446   1.721  0.7992 -0.0119  0.0458
  147MOL0     C19288   2.850   0.300   1.772 -0.4504 -0.7525  0.1453
  147MOL0     N19289   2.725   0.230   1.732 -0.0563 -0.3753 -0.0881
  147MOL0     C19290   2.664   0.225   1.603  0.0830  0.5858 -0.1994
  147MOL0     C19291   2.548   0.155   1.624 -0.6143  0.2832 -0.4039
  147MOL0     C19292   2.463   0.119   1.513  0.5913 -0.0224 -0.2422
  147MOL0     C19293   2.329   0.057   1.567 -0.6155  0.8779 -0.6127
  147MOL0     C19294   2.246  -0.001   1.452  0.3234  0.4802  0.3275
  147MOL0     C19295   2.133   0.094   1.401 -0.3739 -0.1466  0.3120
  147MOL0     O19296   2.033   0.102   1.506 -0.2050  0.5872 -0.1124
  147MOL0     C19297   1.915   0.162   1.481 -0.0454  0.0105 -1.3211
  147MOL0     C19298   1.833   0.193   1.594  0.6281 -0.3426  0.1793
  147MOL0     C19299   1.695   0.219   1.586  0.5565 -0.2992  1.1189
  147MOL0     C19300   1.636   0.245   1.455 -0.5637  0.0592  0.7174
  147MOL0     C19301   1.486   0.263   1.454  0.0235 -0.6183 -0.7252
  147MOL0     O19302   1.417   0.259   1.571  0.3981  0.1246 -0.3980
  147MOL0     C19303   1.284   0.260   1.572  0.0645  0.3471 -0.0542
  147MOL0     C19304   1.208   0.363   1.517  0.0910 -0.4019  0.6498
  147MOL0     C19305   1.066   0.367   1.511 -0.6347  0.1542  0.5684
  147MOL0     C19306   1.000   0.244   1.559 -0.9914  0.1817  1.0348
  147MOL0     O19307   0.866   0.234   1.578  0.1187  0.2570  0.0221
  147MOL0     C19308   0.786   0.284   1.467 -0.5564 -0.4760  0.7626
  147MOL0     C19309   0.647   0.231   1.481  1.1878  0.3618 -0.7338
  147MOL0     C19310   0.565   0.243   1.351  0.1597 -0.1468  0.5087
  147MOL0     C19311   0.419   0.178   1.359 -0.3343 -0.2882  0.4164
  147MOL0     C19312   0.383   0.161   1.214  0.0216 -0.2571  0.1709
  147MOL0     C19313   0.253   0.081   1.184  0.2230  0.4419 -1.2576
  147MOL0     C19314   0.239   0.065   1.038 -1.0556 -0.2458 -0.3057
  147MOL0     C19315   0.113  -0.020   1.004 -0.2160 -0.2883  0.2575
  147MOL0    Cl19316  -0.030   0.085   0.983 -0.1141  0.2844  0.8255
  147MOL0     C19317   1.072   0.133   1.615 -0.6569 -0.6092  0.3086
  147MOL0     C19318   1.211   0.150   1.621  0.2257 -0.7950 -0.0445
  147MOL0     O19319   1.435   0.279   1.348 -0.1658 -0.8127 -0.5992
  147MOL0     C19320   1.728   0.228   1.345  0.1670 -0.3715  0.0824
  147MOL0     C19321   1.860   0.190   1.354 -0.4107 -0.2156 -0.1459
  147MOL0     N19322   2.541   0.129   1.758  0.1674 -0.4036  0.3708
  147MOL0     N19323   2.642   0.175   1.820  0.3433 -0.7996  0.1139
  147MOL0     C19324   2.170   0.847   1.880  0.7428 -0.6817 -0.4368
  147MOL0     C19325   2.038   0.879   1.916 -0.0096  0.2675  0.3579
  147MOL0     C19326   1.624   1.065   1.803 -0.4134  0.3278  0.5922
  147MOL0     C19327   1.527   1.049   1.699  0.9171 -0.1619  0.3406
  147MOL0     C19328   1.389   1.083   1.724  0.3774 -0.4536  0.5313
  147MOL0     C19329   1.340   1.116   1.850  0.2682 -0.5330  0.2142
  147MOL0     O19330   1.204   1.138   1.859  0.0558 -0.1852  0.3377
  147MOL0     C19331   1.128   1.098   1.977  0.3658  0.5433 -0.7566
  147MOL0     C19332   0.969   1.092   1.953  0.3491 -0.2997  0.5442
  147MOL0     C19333   0.935   0.984   1.834  0.2621  0.6615 -0.5059
  147MOL0     C19334   0.800   0.909   1.870 -0.3764 -0.1559  0.3199
  147MOL0     C19335   0.841   0.814   1.974  0.5488  0.0332 -0.5363
  147MOL0     C19336   0.878   0.742   2.066 -0.3903 -0.3365 -0.0489
  147MOL0     C19337   1.429   1.108   1.959 -0.3685  0.4623  0.2086
  147MOL0     C19338   1.568   1.085   1.933 -0.0528 -0.5553 -0.2086
  147MOL0     H19339   1.991   1.162   1.742 -2.2334 -0.5703  2.3249
  147MOL0     H19340   2.224   1.124   1.684 -0.7645  0.3250 -0.5114
  147MOL0     H19341   2.453   1.067   1.708 -0.5782 -0.3190  2.0688
  147MOL0     H19342   2.403   0.945   1.584 -0.9669  0.8516  0.4084
  147MOL0     H19343   2.633   0.984   1.562 -1.5245 -1.9093 -3.0146
  147MOL0     H19344   2.590   0.818   1.588 -0.2923  1.3683 -2.0353
  147MOL0     H19345   2.670   0.995   1.827  3.0618  0.8971 -1.1683
  147MOL0     H19346   2.795   0.915   1.733  0.7370 -0.8294  2.8259
  147MOL0     H19347   2.672   0.787   1.935 -0.2049  0.6537  0.8009
  147MOL0     H19348   2.583   0.720   1.799 -0.4474 -1.0958  3.0724
  147MOL0     H19349   2.879   0.706   1.838  0.9482 -1.1544  0.1014
  147MOL0     H19350   2.826   0.705   1.673 -0.9336 -1.7553 -0.5910
  147MOL0     H19351   2.657   0.514   1.749  0.2219  0.1417 -2.6696
  147MOL0     H19352   2.756   0.511   1.899  0.6341 -0.4989 -0.0454
  147MOL0     H19353   2.830   0.446   1.613  1.1181 -0.7270 -0.0245
  147MOL0     H19354   2.951   0.487   1.747 -0.0667  0.7526  2.3383
  147MOL0     H19355   2.852   0.307   1.881  0.4635  1.6326  0.0266
  147MOL0     H19356   2.934   0.245   1.728  0.7126  1.5633 -0.6982
  147MOL0     H19357   2.695   0.265   1.507 -3.6572 -1.7514 -2.6675
  147MOL0     H19358   2.498   0.052   1.434 -0.7813 -1.4973  0.3437
  147MOL0     H19359   2.443   0.215   1.464  0.6531  0.2692  0.3012
  147MOL0     H19360   2.269   0.125   1.628 -0.3732 -0.1358  0.7829
  147MOL0     H19361   2.355  -0.022   1.637 -0.3566  1.1645 -0.3854
  147MOL0     H19362   2.315  -0.015   1.369  0.2159  2.6826 -0.2138
  147MOL0     H19363   2.199  -0.098   1.471 -2.2000  1.2619 -1.3977
  147MOL0     H19364   2.090   0.061   1.306 -0.7525  0.5714  0.2253
  147MOL0     H19365   2.169   0.197   1.394  1.8846 -0.7874  1.4944
  147MOL0     H19366   1.865   0.167   1.694 -0.3749  1.0521  0.9071
  147MOL0     H19367   1.633   0.231   1.675 -0.1653 -0.9111  0.7154
  147MOL0     H19368   1.260   0.449   1.477 -1.4966  1.0939  1.6538
  147MOL0     H19369   1.018   0.455   1.471  2.2769  0.2311 -3.2833
  147MOL0     H19370   0.830   0.256   1.371  0.0955  0.4773  0.7730
  147MOL0     H19371   0.781   0.393   1.471  0.4685 -0.3925  0.0484
  147MOL0     H19372   0.596   0.287   1.559 -0.3076  2.3280 -2.9831
  147MOL0     H19373   0.655   0.130   1.523  0.9518 -0.1886 -1.9720
  147MOL0     H19374   0.627   0.206   1.270 -1.1025  1.5036 -1.3009
  147MOL0     H19375   0.545   0.345   1.319 -0.7552 -0.7579 -0.9783
  147MOL0     H19376   0.418   0.081   1.410 -0.6054 -0.7783 -0.4946
  147MOL0     H19377   0.351   0.247   1.410  0.6975 -0.3216  1.9179
  147MOL0     H19378   0.467   0.135   1.149  1.2885  3.7860 -0.0922
  147MOL0     H19379   0.376   0.269   1.198 -1.5843 -0.2352  0.8279
  147MOL0     H19380   0.168   0.137   1.225  1.7939  0.2282  2.6847
  147MOL0     H19381   0.271  -0.012   1.238  0.9119  2.3142  2.0385
  147MOL0     H19382   0.241   0.167   0.999 -2.0662  1.2003  3.0419
  147MOL0     H19383   0.332   0.018   1.003 -0.1214  1.9007 -0.8654
  147MOL0     H19384   0.100  -0.105   1.073 -0.4576  2.0332  3.2982
  147MOL0     H19385   0.134  -0.064   0.907 -0.8918  2.0944 -1.0448
  147MOL0     H19386   1.023   0.043   1.649 -0.9743 -0.3851  0.4403
  147MOL0     H19387   1.278   0.081   1.672  2.1351  1.4259  0.6358
  147MOL0     H19388   1.695   0.238   1.242 -1.9697 -0.5336  0.7037
  147MOL0     H19389   1.916   0.188   1.261 -0.2612  1.3154 -0.1122
  147MOL0     H19390   2.196   0.755   1.930  1.2624 -1.1263 -1.4981
  147MOL0     H19391   1.986   0.811   1.982 -0.5377 -0.2094 -0.5238
  147MOL0     H19392   1.559   1.022   1.598 -0.1860 -2.5700  0.5606
  147MOL0     H19393   1.328   1.079   1.635  3.1572  1.3388 -1.6369
  147MOL0     H19394   1.150   1.161   2.064  3.2488 -0.3950 -0.6753
  147MOL0     H19395   1.162   0.996   1.996 -2.9463 -0.7898 -1.3406
  147MOL0     H19396   0.914   1.075   2.046  0.8892  4.6319  2.0572
  147MOL0     H19397   0.930   1.190   1.926  0.2108 -0.7390 -0.9026
  147MOL0     H19398   1.023   0.923   1.816 -0.5223 -0.6503 -0.0589
  147MOL0     H19399   0.922   1.031   1.736  0.7235 -1.9090 -1.8889
  147MOL0     H19400   0.724   0.974   1.914 -3.1293  0.0689 -4.1404
  147MOL0     H19401   0.755   0.870   1.779  0.9426  1.2778 -1.0193
  147MOL0     H19402   0.914   0.691   2.153 -1.6549  3.0824  2.7179
  147MOL0     H19403   1.388   1.119   2.059  0.8892  0.5339  0.7352
  147MOL0     H19404   1.624   1.092   2.026  0.1679 -2.4912 -0.1594
  148MOL0     O19405   3.335   9.221   0.940  0.2058 -0.0737 -0.4134
  148MOL0     C19406   3.387   9.202   0.834 -0.2755 -0.1394  0.3697
  148MOL0     O19407   3.317   9.153   0.720 -0.1257  0.4566 -0.5712
  148MOL0     C19408   3.185   9.125   0.736 -0.1377  0.0117 -0.2282
  148MOL0     C19409   3.094   9.182   0.650  0.2083  0.1461  0.3229
  148MOL0     C19410   2.961   9.153   0.654  0.5428 -1.1835 -0.0146
  148MOL0     C19411   2.909   9.059   0.752 -0.3573 -0.0818  0.8172
  148MOL0     O19412   2.781   9.024   0.767  0.3349  0.8080  0.3778
  148MOL0     C19413   2.687   9.079   0.678 -0.2728  0.6209 -0.3361
  148MOL0     C19414   2.551   9.040   0.714 -0.1616 -0.2089 -0.2547
  148MOL0     C19415   2.523   8.886   0.750 -0.1155  0.1513  0.0618
  148MOL0     C19416   2.517   8.797   0.627 -0.0869  0.0813 -0.2625
  148MOL0     C19417   2.391   8.822   0.546  0.8609  1.0911  0.6558
  148MOL0     C19418   2.365   8.702   0.450 -0.1497  0.4491 -0.1694
  148MOL0     C19419   2.227   8.727   0.386 -0.0172  0.1142 -0.0405
  148MOL0     C19420   2.189   8.613   0.299  0.0833  0.4699  0.6962
  148MOL0     N19421   2.047   8.632   0.250  0.0560 -0.4907  0.2720
  148MOL0     C19422   2.011   8.736   0.163  0.8743  0.6166 -0.1060
  148MOL0     C19423   1.884   8.698   0.121 -0.5224 -0.7519  0.6113
  148MOL0     C19424   1.805   8.776   0.014 -0.8178  1.3204  1.1985
  148MOL0     C19425   1.686   8.692  -0.031 -0.7653 -0.3067 -1.1981
  148MOL0     C19426   1.589   8.776  -0.115  0.3846  0.0965  0.9937
  148MOL0     C19427   1.441   8.731  -0.109 -0.0247 -0.4273 -0.2742
  148MOL0     O19428   1.352   8.836  -0.135 -0.7355  0.6699 -0.3116
  148MOL0     C19429   1.219   8.808  -0.154 -0.6510 -0.5961 -0.0427
  148MOL0     C19430   1.160   8.684  -0.141 -0.0153 -0.1104 -0.6875
  148MOL0     C19431   1.020   8.677  -0.165 -0.6793  0.0802  0.1291
  148MOL0     C19432   0.946   8.786  -0.210  0.1934 -0.0012  0.8606
  148MOL0     C19433   0.797   8.768  -0.235 -0.6052  0.0845  0.6685
  148MOL0     O19434   0.743   8.651  -0.189  0.3374  0.3874  0.4106
  148MOL0     C19435   0.613   8.609  -0.191  0.2673 -0.6653 -0.7536
  148MOL0     C19436   0.507   8.712  -0.195  1.1386 -0.1987 -0.4744
  148MOL0     C19437   0.371   8.665  -0.200  0.2761 -0.4558  0.0371
  148MOL0     C19438   0.334   8.531  -0.174 -0.5653 -0.2370  0.0257
  148MOL0     O19439   0.203   8.484  -0.161  0.8068  0.3453  0.3484
  148MOL0     C19440   0.104   8.564  -0.223 -0.7028  0.7226  0.5286
  148MOL0     C19441  -0.018   8.469  -0.236  0.1335 -0.6082  0.2423
  148MOL0     C19442  -0.141   8.549  -0.280  0.4352  0.1481  0.6655
  148MOL0     C19443  -0.268   8.461  -0.277 -0.7294 -0.7769  0.0860
  148MOL0     C19444  -0.394   8.501  -0.357  1.1005 -1.0493 -0.2396
  148MOL0     C19445  -0.515   8.409  -0.339  0.0808  0.0194  0.4239
  148MOL0     C19446  -0.488   8.262  -0.375 -0.3375 -0.5165 -0.0180
  148MOL0     C19447  -0.601   8.194  -0.445  0.3183  0.1964 -0.0789
  148MOL0    Cl19448  -0.757   8.209  -0.360 -0.1004  0.0194 -0.0424
  148MOL0     C19449   0.442   8.438  -0.159 -0.3960  0.2939 -0.6311
  148MOL0     C19450   0.574   8.478  -0.160 -0.0393 -0.4661  0.1426
  148MOL0     O19451   0.732   8.849  -0.301 -0.1718 -1.1286 -0.6536
  148MOL0     C19452   1.006   8.916  -0.216  0.1272 -0.3794 -0.1130
  148MOL0     C19453   1.146   8.926  -0.185  0.6926 -0.7495  0.8522
  148MOL0     N19454   1.862   8.564   0.154  0.0485 -0.6419  0.0849
  148MOL0     N19455   1.954   8.535   0.237 -0.2735  0.4116 -0.1274
  148MOL0     C19456   2.997   8.998   0.831 -0.7729 -1.0857  0.5367
  148MOL0     C19457   3.135   9.035   0.832  0.7950  0.2613  0.3751
  148MOL0     C19458   3.530   9.232   0.823  0.0278 -0.1274 -0.7185
  148MOL0     C19459   3.590   9.316   0.915  0.1105 -0.2573  0.0046
  148MOL0     C19460   3.720   9.346   0.902 -0.3174 -0.8512  0.8529
  148MOL0     C19461   3.805   9.297   0.804  0.7579  0.4522 -0.3599
  148MOL0     O19462   3.926   9.348   0.810  0.1009 -0.3899 -0.7608
  148MOL0     C19463   4.030   9.282   0.744 -0.9809 -0.4742 -0.0827
  148MOL0     C19464   4.165   9.349   0.789  1.2580 -0.0740  0.0825
  148MOL0     C19465   4.181   9.493   0.743 -0.6907 -0.8751  0.3871
  148MOL0     C19466   4.278   9.559   0.846 -0.5322 -0.4462  0.1171
  148MOL0     C19467   4.410   9.511   0.831 -0.2887  0.1954  0.0509
  148MOL0     C19468   4.527   9.471   0.824  0.5558 -0.6168  0.3453
  148MOL0     C19469   3.752   9.201   0.723 -0.7308  0.6334 -0.2301
  148MOL0     C19470   3.615   9.176   0.724  0.1800  0.1380 -0.3241
  148MOL0     H19471   3.117   9.257   0.575  0.1063 -0.0357  0.1065
  148MOL0     H19472   2.894   9.212   0.591  0.6957  1.0691  1.8106
  148MOL0     H19473   2.709   9.044   0.577  4.0347  1.1205  0.2084
  148MOL0     H19474   2.697   9.188   0.670  2.7348  0.3598 -1.5214
  148MOL0     H19475   2.487   9.061   0.628 -0.7145 -2.1000 -0.3606
  148MOL0     H19476   2.520   9.098   0.801 -0.7684  0.8293 -1.1435
  148MOL0     H19477   2.430   8.890   0.806  0.6216  0.5753  1.2817
  148MOL0     H19478   2.596   8.847   0.821  0.3800 -0.9301 -0.9867
  148MOL0     H19479   2.600   8.815   0.558  0.4820 -0.8028  0.1720
  148MOL0     H19480   2.511   8.691   0.652 -1.0172 -0.2376 -1.7813
  148MOL0     H19481   2.403   8.916   0.491 -0.1780  0.9865  0.2192
  148MOL0     H19482   2.314   8.825   0.623 -0.9865 -0.8105 -1.0027
  148MOL0     H19483   2.352   8.609   0.505 -2.5323  2.3628  2.8467
  148MOL0     H19484   2.440   8.691   0.371 -1.2481 -0.4386 -1.1267
  148MOL0     H19485   2.153   8.741   0.466  1.1804 -1.5779  1.4441
  148MOL0     H19486   2.235   8.812   0.318  0.6503 -0.3656 -0.5761
  148MOL0     H19487   2.192   8.514   0.344 -2.1743 -0.6624 -1.3816
  148MOL0     H19488   2.255   8.599   0.213  0.5855  1.8040  0.8435
  148MOL0     H19489   2.059   8.827   0.128 -0.5310  1.6741  0.6039
  148MOL0     H19490   1.872   8.793  -0.071  0.1326  1.8081  2.0307
  148MOL0     H19491   1.769   8.871   0.055 -1.9893  1.1385  0.6327
  148MOL0     H19492   1.630   8.664   0.059  2.0297 -1.5513  0.2808
  148MOL0     H19493   1.703   8.601  -0.089 -1.9113 -0.6701 -0.9999
  148MOL0     H19494   1.595   8.881  -0.083  1.9359  0.3711 -0.0695
  148MOL0     H19495   1.617   8.770  -0.221  1.4229 -4.9181  1.3172
  148MOL0     H19496   1.420   8.689  -0.010 -2.5925  0.8912 -0.1833
  148MOL0     H19497   1.430   8.648  -0.178  3.2632 -0.3613 -1.0247
  148MOL0     H19498   1.220   8.599  -0.111  2.0823  1.7992  0.7672
  148MOL0     H19499   0.975   8.582  -0.139  1.8157 -0.8884  1.2812
  148MOL0     H19500   0.530   8.818  -0.196 -0.9496  0.3028  0.2015
  148MOL0     H19501   0.300   8.747  -0.194 -0.9297 -1.5600  2.6835
  148MOL0     H19502   0.135   8.586  -0.326  0.8391 -1.8455  0.3643
  148MOL0     H19503   0.094   8.658  -0.167 -0.1116  1.0041  0.1810
  148MOL0     H19504  -0.039   8.425  -0.138  3.2957 -2.0744  0.3943
  148MOL0     H19505  -0.016   8.387  -0.308 -0.5834 -0.4613  0.0461
  148MOL0     H19506  -0.130   8.555  -0.388 -0.7924 -2.4623  0.3285
  148MOL0     H19507  -0.154   8.651  -0.242 -0.0825  0.6244 -0.7605
  148MOL0     H19508  -0.252   8.359  -0.315 -3.6229 -0.9339 -1.0227
  148MOL0     H19509  -0.309   8.458  -0.176 -2.2224 -0.4806 -0.4780
  148MOL0     H19510  -0.359   8.503  -0.461  1.7872  0.2419 -0.0088
  148MOL0     H19511  -0.423   8.602  -0.324  0.3657 -2.0674  2.4466
  148MOL0     H19512  -0.596   8.448  -0.402 -0.0285 -1.3301 -0.3011
  148MOL0     H19513  -0.565   8.418  -0.242 -2.6341  1.0069 -0.9539
  148MOL0     H19514  -0.398   8.260  -0.437  0.3616  1.1923  0.8942
  148MOL0     H19515  -0.463   8.211  -0.281 -0.8306  1.9878  1.5435
  148MOL0     H19516  -0.572   8.089  -0.443  0.6525  0.2881 -0.0968
  148MOL0     H19517  -0.612   8.228  -0.548 -0.9640  1.2114  0.3579
  148MOL0     H19518   0.396   8.345  -0.130  1.1238 -0.1150  0.5745
  148MOL0     H19519   0.654   8.405  -0.152 -0.6877 -1.3716 -1.2475
  148MOL0     H19520   0.949   9.004  -0.244  0.0637  0.5403  2.5915
  148MOL0     H19521   1.192   9.024  -0.194  0.4015 -0.3193  3.4154
  148MOL0     H19522   2.959   8.921   0.898 -0.6767 -0.1800  1.6617
  148MOL0     H19523   3.203   8.975   0.892 -0.3191 -3.7116 -1.9957
  148MOL0     H19524   3.543   9.365   1.000 -1.8853  0.5275 -1.4654
  148MOL0     H19525   3.757   9.419   0.974 -1.3227 -1.6657  2.2561
  148MOL0     H19526   4.015   9.311   0.639  1.1201  0.8977 -0.0661
  148MOL0     H19527   4.021   9.174   0.759  0.5130 -0.8003 -1.2282
  148MOL0     H19528   4.160   9.352   0.898  0.3306  2.8850  0.0520
  148MOL0     H19529   4.257   9.295   0.763  1.1384 -1.5052  2.3937
  148MOL0     H19530   4.086   9.544   0.763 -0.9509 -1.5897  1.0333
  148MOL0     H19531   4.217   9.494   0.640  0.7313  2.0664  0.8098
  148MOL0     H19532   4.265   9.668   0.838 -1.8522 -0.6854 -1.6072
  148MOL0     H19533   4.244   9.536   0.947 -0.7849  0.4122  0.2417
  148MOL0     H19534   4.629   9.438   0.833  1.1676  1.2616  0.7372
  148MOL0     H19535   3.824   9.143   0.667 -0.4027 -0.0222  0.8387
  148MOL0     H19536   3.565   9.106   0.659  1.6213  0.7748 -2.2245
  149MOL0     O19537   6.178   3.707   9.259 -0.1652 -0.0830  0.3805
  149MOL0     C19538   6.067   3.759   9.265 -0.2682  1.0255 -0.5651
  149MOL0     O19539   6.055   3.895   9.270  0.1828  1.1789 -0.0604
  149MOL0     C19540   6.159   3.987   9.288  0.4184  0.6598  0.1913
  149MOL0     C19541   6.152   4.110   9.213 -1.5031 -0.1526  0.2434
  149MOL0     C19542   6.260   4.199   9.223 -0.4846 -0.0715 -0.7334
  149MOL0     C19543   6.374   4.160   9.296  0.2530 -0.5043 -0.0032
  149MOL0     O19544   6.479   4.246   9.294 -0.3275  0.2964 -0.2667
  149MOL0     C19545   6.603   4.226   9.372 -0.5933 -0.0986  0.4601
  149MOL0     C19546   6.684   4.331   9.302 -0.0474 -0.4425  0.7335
  149MOL0     C19547   6.815   4.339   9.377 -1.4156 -0.0936 -0.5486
  149MOL0     C19548   6.920   4.427   9.311 -0.8604  0.2977  0.9360
  149MOL0     C19549   7.060   4.382   9.356 -0.0783 -0.6665 -0.1716
  149MOL0     C19550   7.168   4.490   9.302  0.1079  0.8556  1.0021
  149MOL0     C19551   7.313   4.439   9.319  0.0971 -0.6404  0.5202
  149MOL0     C19552   7.412   4.527   9.260 -0.1306 -0.1416  0.7735
  149MOL0     N19553   7.409   4.663   9.306 -0.4712 -0.9605  0.2226
  149MOL0     C19554   7.503   4.727   9.381 -0.1424  0.0124  0.3699
  149MOL0     C19555   7.463   4.855   9.397  0.5349 -0.7770 -0.3016
  149MOL0     C19556   7.559   4.956   9.452 -0.3882  0.6673  0.0557
  149MOL0     C19557   7.624   5.029   9.335  0.1091 -0.1856 -0.4057
  149MOL0     C19558   7.703   5.156   9.362 -0.1962 -0.3570  0.4979
  149MOL0     C19559   7.672   5.236   9.494  0.5711  0.5902 -0.1534
  149MOL0     O19560   7.759   5.349   9.512  0.4071  0.1816 -0.0697
  149MOL0     C19561   7.889   5.340   9.556  0.2129 -0.2647  0.8502
  149MOL0     C19562   7.955   5.228   9.599  0.3216 -1.0247 -0.4647
  149MOL0     C19563   8.095   5.231   9.620  0.3410 -0.9402  0.1225
  149MOL0     C19564   8.163   5.352   9.603 -0.2702 -0.2690  0.0522
  149MOL0     C19565   8.315   5.365   9.618  0.2066 -0.0294  0.2495
  149MOL0     O19566   8.380   5.247   9.627  0.5534  0.2596  0.5909
  149MOL0     C19567   8.517   5.230   9.614 -0.1611  0.8171 -0.6165
  149MOL0     C19568   8.619   5.323   9.630 -0.8205 -0.2448  0.5693
  149MOL0     C19569   8.754   5.294   9.597 -0.1149 -0.0164 -0.1365
  149MOL0     C19570   8.797   5.168   9.575  0.6760  0.0537 -0.2749
  149MOL0     O19571   8.923   5.157   9.548 -0.1254 -0.4203  0.2872
  149MOL0     C19572   8.992   5.033   9.565 -0.1127 -0.4344  0.6342
  149MOL0     C19573   9.124   5.022   9.494 -0.0750  0.6521  0.7978
  149MOL0     C19574   9.228   5.122   9.550 -1.0628  0.2687  0.5289
  149MOL0     C19575   9.362   5.085   9.481 -0.5093 -0.5183 -0.6019
  149MOL0     C19576   9.468   5.196   9.513 -0.7148  0.3728  0.1067
  149MOL0     C19577   9.611   5.168   9.459 -0.0064 -0.4686 -0.3068
  149MOL0     C19578   9.715   5.223   9.561  0.4207  0.0632  0.3938
  149MOL0     C19579   9.747   5.369   9.567 -0.9728  0.5359  0.3374
  149MOL0    Cl19580   9.596   5.467   9.599 -0.0939  0.5342 -0.2379
  149MOL0     C19581   8.697   5.064   9.575  0.2745  0.0674 -0.2750
  149MOL0     C19582   8.559   5.100   9.581  0.3565  0.6224  0.1802
  149MOL0     O19583   8.365   5.478   9.596 -1.2448  0.2145  0.1127
  149MOL0     C19584   8.096   5.471   9.575  0.0293 -0.7771  0.2021
  149MOL0     C19585   7.956   5.462   9.552 -0.8641 -0.0573  0.1834
  149MOL0     N19586   7.347   4.878   9.314 -0.2507 -0.4093  0.0924
  149MOL0     N19587   7.319   4.763   9.260  0.5762  0.0907 -0.3707
  149MOL0     C19588   6.373   4.047   9.375 -0.6896  0.4092 -0.5648
  149MOL0     C19589   6.265   3.959   9.373 -0.4212  0.6418  0.5757
  149MOL0     C19590   5.951   3.676   9.225  0.3061  0.2226 -0.1523
  149MOL0     C19591   5.838   3.747   9.174 -0.0640 -0.1182  0.6023
  149MOL0     C19592   5.722   3.681   9.146 -0.1383 -0.2625  0.1279
  149MOL0     C19593   5.706   3.545   9.181 -0.2603  0.7462 -0.5567
  149MOL0     O19594   5.582   3.481   9.169 -0.5475  0.0796 -0.2352
  149MOL0     C19595   5.556   3.361   9.248  0.0706 -0.7548  0.0866
  149MOL0     C19596   5.421   3.303   9.229  1.0653 -0.0723 -0.4856
  149MOL0     C19597   5.316   3.403   9.287 -0.1125 -0.0483  0.4557
  149MOL0     C19598   5.175   3.334   9.283  0.2837 -0.3322 -0.0086
  149MOL0     C19599   5.064   3.430   9.252  0.6442 -0.4614  0.9339
  149MOL0     C19600   4.973   3.509   9.223 -0.5374  0.2081  0.0018
  149MOL0     C19601   5.819   3.476   9.224 -0.5020  0.2937 -0.4136
  149MOL0     C19602   5.944   3.535   9.240  0.3547 -0.5893 -0.0161
  149MOL0     H19603   6.073   4.124   9.140 -1.9231 -1.0169  0.5234
  149MOL0     H19604   6.260   4.285   9.157  0.4941  0.2974 -0.2728
  149MOL0     H19605   6.639   4.123   9.361 -1.2139 -0.2917  0.1796
  149MOL0     H19606   6.607   4.239   9.480 -0.9045 -3.8946  1.0898
  149MOL0     H19607   6.626   4.423   9.313 -0.7579 -0.9022  0.8804
  149MOL0     H19608   6.693   4.317   9.194 -0.8762  0.3766  0.5437
  149MOL0     H19609   6.854   4.237   9.380 -0.4756  0.2317  2.6793
  149MOL0     H19610   6.805   4.369   9.482  0.2910  3.0311 -1.1301
  149MOL0     H19611   6.911   4.414   9.203  2.9508 -2.3022  0.7358
  149MOL0     H19612   6.903   4.533   9.336  1.2157  1.3221 -1.5773
  149MOL0     H19613   7.077   4.278   9.326  1.5051  0.2454 -2.7064
  149MOL0     H19614   7.058   4.395   9.465 -0.2575 -2.7736  0.1078
  149MOL0     H19615   7.149   4.575   9.369 -0.4959  0.9082  0.7760
  149MOL0     H19616   7.141   4.509   9.198  0.8371  0.7853  0.8012
  149MOL0     H19617   7.333   4.432   9.426 -1.4997 -1.8942  0.7762
  149MOL0     H19618   7.319   4.344   9.265  1.1324  0.9392 -2.3712
  149MOL0     H19619   7.397   4.542   9.153 -1.0451 -0.2010  0.8895
  149MOL0     H19620   7.507   4.478   9.285  1.2717  1.6878 -0.7201
  149MOL0     H19621   7.582   4.669   9.427  0.6446  0.2482 -0.6607
  149MOL0     H19622   7.635   4.915   9.519 -0.2284  3.1256  1.5035
  149MOL0     H19623   7.509   5.036   9.509  0.8322  2.7345 -1.6467
  149MOL0     H19624   7.540   5.072   9.279  1.2146  4.4703  1.0300
  149MOL0     H19625   7.690   4.974   9.268  0.7438  0.4047 -0.2802
  149MOL0     H19626   7.810   5.134   9.353 -0.6999 -2.3349 -1.4434
  149MOL0     H19627   7.671   5.222   9.280 -0.6008 -0.6910  0.3847
  149MOL0     H19628   7.688   5.167   9.577  2.1370  1.0842 -0.0086
  149MOL0     H19629   7.569   5.268   9.478 -0.3845 -2.7323 -1.6195
  149MOL0     H19630   7.907   5.132   9.616  0.4303 -0.6691  2.2748
  149MOL0     H19631   8.135   5.132   9.641 -2.5893 -2.3157 -0.1717
  149MOL0     H19632   8.591   5.422   9.663  0.4817  0.0537  0.8292
  149MOL0     H19633   8.829   5.373   9.599  1.4433 -1.3815 -1.6878
  149MOL0     H19634   8.936   4.951   9.518 -0.9333 -0.4480  1.6179
  149MOL0     H19635   9.005   5.009   9.671 -0.5895  1.8794  1.2632
  149MOL0     H19636   9.113   5.027   9.385 -0.5907  1.3644  0.8722
  149MOL0     H19637   9.160   4.921   9.518 -2.3484 -1.2018 -2.6415
  149MOL0     H19638   9.242   5.095   9.655 -1.3518  1.6600  0.9468
  149MOL0     H19639   9.199   5.226   9.529  0.7132  0.2630 -2.4477
  149MOL0     H19640   9.395   4.985   9.512  1.1893 -0.0258 -0.7525
  149MOL0     H19641   9.348   5.098   9.373 -0.6793  3.3227 -0.2308
  149MOL0     H19642   9.471   5.199   9.622  1.7281 -1.2310  0.1644
  149MOL0     H19643   9.430   5.294   9.482 -3.6581 -0.6576  0.1794
  149MOL0     H19644   9.632   5.222   9.367 -1.0780  0.8615  0.1993
  149MOL0     H19645   9.617   5.058   9.455 -0.2987 -0.4574 -1.1980
  149MOL0     H19646   9.681   5.190   9.659 -1.1307  1.1001  0.2478
  149MOL0     H19647   9.810   5.175   9.536 -0.0997 -1.2632  0.8750
  149MOL0     H19648   9.799   5.382   9.471 -1.4815  1.6382  0.1935
  149MOL0     H19649   9.820   5.383   9.648  0.0893 -2.4821  0.0333
  149MOL0     H19650   8.731   4.961   9.569  0.3820 -0.3302  4.0715
  149MOL0     H19651   8.476   5.031   9.568  1.1212  0.0664 -2.4124
  149MOL0     H19652   8.144   5.568   9.569  1.5166 -1.4348  0.8759
  149MOL0     H19653   7.908   5.549   9.509  1.3598 -0.2095 -2.9695
  149MOL0     H19654   6.454   4.023   9.443  0.2426 -0.0624 -1.8271
  149MOL0     H19655   6.257   3.861   9.419 -0.0454  0.4092  0.1492
  149MOL0     H19656   5.838   3.855   9.164 -1.3697  0.0205  1.8051
  149MOL0     H19657   5.625   3.721   9.121 -0.7013 -2.2265 -1.0422
  149MOL0     H19658   5.572   3.382   9.354 -0.8966 -2.8518  0.6959
  149MOL0     H19659   5.619   3.277   9.214 -0.1634 -1.0676  0.4184
  149MOL0     H19660   5.402   3.285   9.123  0.1007  2.7469 -0.8821
  149MOL0     H19661   5.415   3.217   9.295 -2.0545  0.1656 -0.3171
  149MOL0     H19662   5.332   3.493   9.226 -0.4483  0.1996  0.7308
  149MOL0     H19663   5.341   3.430   9.390 -1.3127  2.2699  0.1946
  149MOL0     H19664   5.170   3.244   9.222  0.9694 -0.5181  0.2066
  149MOL0     H19665   5.144   3.299   9.383 -3.7103  1.1832 -0.5053
  149MOL0     H19666   4.880   3.555   9.195 -1.5136 -1.2907  0.6488
  149MOL0     H19667   5.817   3.367   9.225 -0.6180  0.2962  0.0416
  149MOL0     H19668   6.033   3.477   9.258  2.1905  1.7320 -1.0708
  150MOL0     O19669  11.007  10.309  10.425 -0.2436  0.2171  0.4560
  150MOL0     C19670  11.088  10.372  10.351 -0.7332 -1.1894 -0.6818
  150MOL0     O19671  11.096  10.507  10.331 -0.0284 -0.2456  0.2262
  150MOL0     C19672  10.999  10.585  10.385 -0.5298  0.3337  0.6071
  150MOL0     C19673  10.878  10.601  10.320  0.7142  0.5479 -0.0248
  150MOL0     C19674  10.783  10.675  10.378 -0.1515  0.0613 -0.1087
  150MOL0     C19675  10.802  10.736  10.497 -0.1689 -0.3652  0.0580
  150MOL0     O19676  10.701  10.814  10.541  0.1717  0.3356 -0.1731
  150MOL0     C19677  10.674  10.855  10.676  0.4686  0.2654 -0.5467
  150MOL0     C19678  10.524  10.841  10.710 -0.7741  0.5392 -0.3146
  150MOL0     C19679  10.446  10.966  10.669  0.3970  0.1753  0.2156
  150MOL0     C19680  10.303  10.939  10.686 -1.0476  0.6204  0.1705
  150MOL0     C19681  10.223  11.075  10.688 -0.2130 -0.3882  0.3072
  150MOL0     C19682  10.077  11.027  10.698 -0.6869 -0.4150 -0.5415
  150MOL0     C19683   9.979  11.143  10.692 -0.1759 -0.0038 -0.0270
  150MOL0     C19684   9.843  11.077  10.708 -0.4293  0.4059 -1.0518
  150MOL0     N19685   9.743  11.181  10.694  0.4193  0.2139  0.3594
  150MOL0     C19686   9.662  11.207  10.588 -1.3813 -1.4660  0.0880
  150MOL0     C19687   9.563  11.288  10.629  0.2610  0.5385  0.1292
  150MOL0     C19688   9.456  11.346  10.547  0.1918  0.1007  0.6076
  150MOL0     C19689   9.311  11.299  10.563  0.2752 -0.1291  1.2877
  150MOL0     C19690   9.291  11.156  10.506  0.3706 -0.8469 -0.7589
  150MOL0     C19691   9.154  11.111  10.539 -0.1444 -0.6561 -0.3835
  150MOL0     O19692   9.057  11.179  10.455  0.7650 -0.4367  0.6288
  150MOL0     C19693   8.934  11.203  10.514 -0.3542  0.1363 -0.6109
  150MOL0     C19694   8.855  11.317  10.483  0.0034  0.6048 -0.6868
  150MOL0     C19695   8.730  11.333  10.550 -0.2528  0.9122  0.0061
  150MOL0     C19696   8.688  11.239  10.643  0.2798 -0.0136  0.0629
  150MOL0     C19697   8.555  11.254  10.703  0.2123  0.3490  0.3737
  150MOL0     O19698   8.501  11.138  10.759 -0.4832 -0.2235 -0.4789
  150MOL0     C19699   8.386  11.146  10.836 -0.2475 -1.0491 -0.2915
  150MOL0     C19700   8.361  11.253  10.923 -0.3178  1.0306  0.2472
  150MOL0     C19701   8.238  11.262  10.993  0.3139  0.5044 -0.5608
  150MOL0     C19702   8.147  11.147  10.991 -0.7962 -0.1007  0.0774
  150MOL0     O19703   8.026  11.130  11.051  0.2097  0.1883  0.2539
  150MOL0     C19704   7.970  11.240  11.132  0.2887  0.2415 -0.4971
  150MOL0     C19705   7.830  11.203  11.203 -0.1624 -0.3125  0.0076
  150MOL0     C19706   7.717  11.214  11.102 -0.5329  0.4443 -0.2873
  150MOL0     C19707   7.607  11.107  11.141 -0.1981  0.4532  0.2470
  150MOL0     C19708   7.473  11.130  11.063 -0.8109 -0.9182  0.2092
  150MOL0     C19709   7.379  11.007  11.085  0.2021  0.3617 -0.0828
  150MOL0     C19710   7.289  10.997  10.963  0.1679 -0.7347  0.0574
  150MOL0     C19711   7.181  11.101  10.980  0.0412  0.3337 -0.3782
  150MOL0    Cl19712   7.086  11.120  10.837 -0.2524 -0.2597 -0.2142
  150MOL0     C19713   8.187  11.033  10.921  0.0954  0.1983 -0.7557
  150MOL0     C19714   8.305  11.030  10.843 -0.4030  0.1982  0.2100
  150MOL0     O19715   8.489  11.356  10.696 -0.2605  0.1742  0.0351
  150MOL0     C19716   8.762  11.128  10.669 -0.6052 -0.5063 -0.3760
  150MOL0     C19717   8.882  11.108  10.613 -0.0274 -0.7569  0.0815
  150MOL0     N19718   9.583  11.313  10.765  0.2966  0.1806  0.6545
  150MOL0     N19719   9.686  11.252  10.801 -0.3711  0.5881  0.0657
  150MOL0     C19720  10.917  10.725  10.563  0.2461 -0.1923 -0.3103
  150MOL0     C19721  11.020  10.651  10.505 -0.2286 -0.4993 -0.1294
  150MOL0     C19722  11.178  10.296  10.262 -0.5501  0.3693  0.4563
  150MOL0     C19723  11.172  10.153  10.253 -0.1359 -0.0789  0.0657
  150MOL0     C19724  11.226  10.079  10.140 -0.5524 -0.9701 -0.3894
  150MOL0     C19725  11.308  10.138  10.047  0.8299  0.0399 -0.2986
  150MOL0     O19726  11.368  10.075   9.940  0.1062 -0.1131 -0.2638
  150MOL0     C19727  11.379   9.935   9.942 -0.0308  0.2038  0.0010
  150MOL0     C19728  11.455   9.908   9.810 -0.0675  0.4862 -0.2941
  150MOL0     C19729  11.353   9.926   9.695  0.3506 -0.1112 -0.3984
  150MOL0     C19730  11.415   9.863   9.566  0.6340 -0.5950  0.2925
  150MOL0     C19731  11.326   9.871   9.453  0.1330  0.1097  0.5528
  150MOL0     C19732  11.250   9.853   9.350  0.2174  0.2926  0.5203
  150MOL0     C19733  11.326  10.277  10.058  0.6652 -0.1282  0.3465
  150MOL0     C19734  11.257  10.358  10.158 -0.5530  0.2235 -0.4066
  150MOL0     H19735  10.862  10.568  10.218  0.2932 -1.5718  0.6779
  150MOL0     H19736  10.682  10.692  10.343 -0.8629 -2.6139  0.4349
  150MOL0     H19737  10.693  10.961  10.692 -0.8183  0.4813 -0.3279
  150MOL0     H19738  10.736  10.801  10.748  0.5268  1.5687  0.3926
  150MOL0     H19739  10.511  10.834  10.818 -1.4154  5.1434  0.1089
  150MOL0     H19740  10.489  10.748  10.664 -2.8326 -0.0192  2.1476
  150MOL0     H19741  10.463  10.981  10.562  1.0054  0.9229  0.4106
  150MOL0     H19742  10.479  11.055  10.723  2.5436 -1.4811  1.7966
  150MOL0     H19743  10.279  10.878  10.599 -0.9199  0.4966  0.2215
  150MOL0     H19744  10.285  10.873  10.771  1.6348  1.6340  1.6323
  150MOL0     H19745  10.234  11.118  10.588  0.4957  2.8736  1.6501
  150MOL0     H19746  10.255  11.143  10.767 -0.8366  1.3576 -0.8885
  150MOL0     H19747  10.079  10.986  10.799  2.6769 -0.1347 -0.3814
  150MOL0     H19748  10.047  10.952  10.624 -1.4084 -0.6648 -0.0001
  150MOL0     H19749   9.993  11.213  10.775  0.3068  0.8879 -0.8471
  150MOL0     H19750   9.992  11.197  10.598  0.5883  0.0392  0.0995
  150MOL0     H19751   9.842  11.030  10.807  2.0916  1.0204 -0.6772
  150MOL0     H19752   9.819  11.010  10.625 -0.6752 -0.2403 -0.4710
  150MOL0     H19753   9.678  11.169  10.487  2.2299 -2.1254  0.7619
  150MOL0     H19754   9.482  11.338  10.441  2.5635  0.6941  1.0721
  150MOL0     H19755   9.451  11.453  10.570  1.8021  0.9065 -2.2015
  150MOL0     H19756   9.236  11.365  10.518 -0.2017 -2.9296 -2.6000
  150MOL0     H19757   9.282  11.298  10.668 -4.8107 -2.1788  0.1550
  150MOL0     H19758   9.311  11.153  10.399 -1.9085 -1.2664 -1.2161
  150MOL0     H19759   9.361  11.084  10.551  1.5016  0.5800 -0.1625
  150MOL0     H19760   9.133  11.113  10.646 -1.2027  1.1859 -0.5814
  150MOL0     H19761   9.147  11.007  10.506  0.5104 -0.7441 -0.2491
  150MOL0     H19762   8.877  11.393  10.409 -1.4758  2.1359  0.3675
  150MOL0     H19763   8.660  11.410  10.521 -0.8663 -0.6249 -2.9348
  150MOL0     H19764   8.430  11.336  10.919 -0.2500  0.9236 -3.0805
  150MOL0     H19765   8.225  11.357  11.044 -1.2093 -0.4308  0.9019
  150MOL0     H19766   7.967  11.327  11.065  0.4179 -2.1937 -3.9069
  150MOL0     H19767   8.036  11.272  11.213  0.4870 -0.1640 -0.4936
  150MOL0     H19768   7.804  11.260  11.293 -2.0107 -2.7340  1.1422
  150MOL0     H19769   7.832  11.101  11.241  0.3631 -0.1258  0.5012
  150MOL0     H19770   7.751  11.197  11.000 -4.1550  1.3472 -1.7976
  150MOL0     H19771   7.669  11.312  11.108 -2.4008 -0.4221 -0.5448
  150MOL0     H19772   7.649  11.007  11.123 -1.7928  0.0109 -1.3036
  150MOL0     H19773   7.583  11.126  11.245 -1.0741  0.9323 -0.0317
  150MOL0     H19774   7.506  11.152  10.961 -0.2295  1.6233  0.8693
  150MOL0     H19775   7.434  11.223  11.104 -0.1482 -0.5746  0.0706
  150MOL0     H19776   7.321  11.021  11.177  0.8301  0.8232  0.2529
  150MOL0     H19777   7.442  10.918  11.095  2.2237  1.8691  1.4012
  150MOL0     H19778   7.344  11.011  10.869  0.1981 -2.2772 -0.1727
  150MOL0     H19779   7.236  10.902  10.954 -5.1614  1.7863  1.3299
  150MOL0     H19780   7.227  11.196  11.007 -1.1550  0.3148  1.9915
  150MOL0     H19781   7.120  11.078  11.068 -1.0754  0.9585 -0.9671
  150MOL0     H19782   8.131  10.941  10.904  0.4076  0.2472 -2.2557
  150MOL0     H19783   8.344  10.945  10.789  2.4692  1.2285  0.4918
  150MOL0     H19784   8.734  11.064  10.752 -0.1057 -0.8952 -0.5066
  150MOL0     H19785   8.925  11.012  10.639  0.6469 -0.4844  0.0067
  150MOL0     H19786  10.935  10.752  10.666  2.6863 -3.9336  0.4591
  150MOL0     H19787  11.094  10.622  10.579 -1.0558  1.5828  1.6449
  150MOL0     H19788  11.110  10.095  10.320  0.8015 -0.7403  0.3830
  150MOL0     H19789  11.211   9.972  10.135  1.0114 -1.4764  3.0053
  150MOL0     H19790  11.282   9.886   9.939  0.3943 -0.6761  0.4210
  150MOL0     H19791  11.438   9.903  10.029  0.7393 -1.2971 -1.0460
  150MOL0     H19792  11.551   9.956   9.792 -0.1006  0.6524 -0.0394
  150MOL0     H19793  11.482   9.802   9.820  1.1832  0.6956 -1.2449
  150MOL0     H19794  11.335  10.031   9.670 -3.1799 -0.5305  0.0013
  150MOL0     H19795  11.252   9.892   9.718  0.2680  1.1356  1.3495
  150MOL0     H19796  11.501   9.923   9.534 -0.5740  1.4949  0.8012
  150MOL0     H19797  11.456   9.762   9.581  0.5522 -0.8856 -1.2493
  150MOL0     H19798  11.185   9.831   9.268 -1.5471  0.7140  1.7462
  150MOL0     H19799  11.381  10.320   9.975 -1.7668 -0.2209 -1.3811
  150MOL0     H19800  11.245  10.466  10.154 -2.8175 -0.0274 -2.3050
  151MOL0     O19801   2.423   6.703  10.198  0.4285  0.8657  0.4983
  151MOL0     C19802   2.504   6.784  10.239 -0.0819 -0.3928  0.7052
  151MOL0     O19803   2.475   6.921  10.254  0.3066 -0.4443  0.3052
  151MOL0     C19804   2.356   6.977  10.219 -0.5364  0.9410 -0.3194
  151MOL0     C19805   2.291   7.068  10.312  0.0810 -1.0446  0.5249
  151MOL0     C19806   2.164   7.118  10.282  0.7226  0.2914  0.3643
  151MOL0     C19807   2.105   7.084  10.159 -0.3582 -0.4190  0.0893
  151MOL0     O19808   1.984   7.119  10.110  0.3337 -0.2016  0.1833
  151MOL0     C19809   1.885   7.175  10.193  0.7636  0.8488 -0.2416
  151MOL0     C19810   1.750   7.164  10.121 -0.5038  0.2116 -0.4402
  151MOL0     C19811   1.631   7.218  10.198 -0.4846  0.0967 -0.1788
  151MOL0     C19812   1.503   7.169  10.116 -0.7374 -0.3145 -0.8607
  151MOL0     C19813   1.374   7.232  10.163  0.6911 -0.8465  0.2910
  151MOL0     C19814   1.344   7.195  10.311  0.5421 -0.1446 -0.3936
  151MOL0     C19815   1.204   7.261  10.360 -0.7112 -0.7506  0.4715
  151MOL0     C19816   1.159   7.196  10.490 -0.4472 -0.1030  0.1707
  151MOL0     N19817   1.038   7.260  10.539  0.1488  0.7573 -0.2208
  151MOL0     C19818   0.928   7.321  10.475 -0.9893 -0.1061  0.0206
  151MOL0     C19819   0.840   7.354  10.571 -1.0092  0.9357  0.9539
  151MOL0     C19820   0.703   7.404  10.556 -1.0457 -0.0056  0.6666
  151MOL0     C19821   0.629   7.340  10.432 -0.3087 -0.1670 -0.1805
  151MOL0     C19822   0.595   7.192  10.454  0.0116  0.9305  0.2861
  151MOL0     C19823   0.534   7.138  10.321 -0.6373 -0.9731 -0.3382
  151MOL0     O19824   0.504   6.999  10.333 -0.3537  0.5184 -0.1190
  151MOL0     C19825   0.371   6.963  10.339  0.5394  1.7236  0.1717
  151MOL0     C19826   0.341   6.829  10.302  0.1897 -0.5256  0.1867
  151MOL0     C19827   0.212   6.781  10.294  1.0257 -0.1907 -1.1842
  151MOL0     C19828   0.106   6.863  10.325  1.1700 -0.5543  0.2651
  151MOL0     C19829  -0.028   6.810  10.318  0.4020 -0.0440  0.4489
  151MOL0     O19830  -0.055   6.699  10.394 -0.2367 -0.2147 -0.3915
  151MOL0     C19831  -0.185   6.652  10.404 -0.1724  0.5976  0.2177
  151MOL0     C19832  -0.204   6.514  10.402  0.3455 -0.4201  0.0491
  151MOL0     C19833  -0.331   6.450  10.412  0.9769  0.6945 -0.6734
  151MOL0     C19834  -0.449   6.534  10.424  0.3439  0.2173  0.3274
  151MOL0     O19835  -0.576   6.485  10.430  0.5121  0.6201 -0.6106
  151MOL0     C19836  -0.604   6.340  10.414  0.6380  0.3167  0.0213
  151MOL0     C19837  -0.746   6.304  10.447 -0.2995  0.6210 -0.1031
  151MOL0     C19838  -0.782   6.304  10.597  0.4269  0.1983  0.5824
  151MOL0     C19839  -0.926   6.247  10.629 -0.4884 -0.5151 -0.0644
  151MOL0     C19840  -0.980   6.265  10.772  0.0398  0.4000  0.2938
  151MOL0     C19841  -0.893   6.178  10.861  0.8834  0.3727 -0.1341
  151MOL0     C19842  -0.936   6.198  11.006 -0.1844 -0.8037  0.4627
  151MOL0     C19843  -0.835   6.164  11.117 -0.4013 -0.9667 -0.0293
  151MOL0    Cl19844  -0.916   6.178  11.275 -0.2673  0.2180  0.2180
  151MOL0     C19845  -0.425   6.672  10.423  0.5568  1.0668 -0.2916
  151MOL0     C19846  -0.297   6.724  10.425 -0.9185  0.1084  0.1647
  151MOL0     O19847  -0.106   6.874  10.251  0.2285  0.4170  0.1551
  151MOL0     C19848   0.128   6.995  10.367 -0.7240 -0.7300 -0.2783
  151MOL0     C19849   0.265   7.040  10.378  0.0374 -0.0528 -0.5317
  151MOL0     N19850   0.896   7.320  10.693 -0.3578 -0.0239  0.3958
  151MOL0     N19851   1.007   7.264  10.674  0.2181  0.2802 -0.3291
  151MOL0     C19852   2.176   7.018  10.069 -0.4076  0.1635  0.6432
  151MOL0     C19853   2.296   6.952  10.093  0.2289 -0.9003 -0.6956
  151MOL0     C19854   2.633   6.729  10.279 -0.4180 -0.8829  0.6195
  151MOL0     C19855   2.722   6.809  10.356  0.0180  0.1713 -0.3505
  151MOL0     C19856   2.848   6.763  10.387 -0.8911 -0.9079  0.3387
  151MOL0     C19857   2.890   6.637  10.354  1.0025  0.0550 -0.0653
  151MOL0     O19858   3.016   6.588  10.386 -0.3024  0.2602 -0.4345
  151MOL0     C19859   3.044   6.449  10.353 -0.4510 -0.3025 -0.4003
  151MOL0     C19860   3.170   6.414  10.425  0.2559 -0.1413  0.8338
  151MOL0     C19861   3.216   6.278  10.378 -0.0044  0.4772 -0.2952
  151MOL0     C19862   3.130   6.153  10.431 -0.2933 -0.6942  0.5618
  151MOL0     C19863   3.004   6.124  10.362  0.2058 -0.5420  0.2423
  151MOL0     C19864   2.909   6.090  10.301  0.0387  0.1354  0.2925
  151MOL0     C19865   2.795   6.556  10.279  0.6663  0.4515  0.2188
  151MOL0     C19866   2.667   6.600  10.238 -0.0856  0.7138  0.0358
  151MOL0     H19867   2.333   7.100  10.406 -1.2535  0.1552  0.7396
  151MOL0     H19868   2.106   7.185  10.344 -1.3138 -0.0872 -1.0174
  151MOL0     H19869   1.899   7.282  10.213 -2.4683  1.7713 -2.1299
  151MOL0     H19870   1.888   7.124  10.289  1.9352  0.2397 -0.5798
  151MOL0     H19871   1.738   7.060  10.091  2.2581  0.2516 -2.0463
  151MOL0     H19872   1.749   7.221  10.028 -1.5392 -0.5948 -0.9352
  151MOL0     H19873   1.628   7.327  10.194  0.0633  0.0981 -3.5960
  151MOL0     H19874   1.633   7.189  10.303  1.2388 -0.0967 -0.2341
  151MOL0     H19875   1.533   7.203  10.016  1.6688  2.4054  0.6309
  151MOL0     H19876   1.486   7.062  10.110 -1.1270 -0.5189  2.2974
  151MOL0     H19877   1.300   7.206  10.087  0.0781 -1.8696  1.2170
  151MOL0     H19878   1.372   7.342  10.161  1.6926 -0.8275 -0.0415
  151MOL0     H19879   1.422   7.216  10.385 -0.6776  1.2317  0.5606
  151MOL0     H19880   1.331   7.086  10.311  0.1857 -0.1217  1.0238
  151MOL0     H19881   1.236   7.365  10.368 -2.8423  0.1442 -1.4235
  151MOL0     H19882   1.129   7.248  10.281  0.9459  1.0036 -1.4904
  151MOL0     H19883   1.245   7.193  10.558  0.2451 -1.2426 -0.7135
  151MOL0     H19884   1.135   7.092  10.467 -0.8658 -0.4402  1.9626
  151MOL0     H19885   0.924   7.331  10.367 -3.0768  1.7189  0.1888
  151MOL0     H19886   0.708   7.512  10.540 -0.2700 -0.3045 -1.6276
  151MOL0     H19887   0.647   7.384  10.647 -2.7218  1.7460  0.1057
  151MOL0     H19888   0.700   7.354  10.350  1.3173  1.2756  1.3870
  151MOL0     H19889   0.531   7.388  10.424 -0.9459 -1.4051  0.1080
  151MOL0     H19890   0.681   7.144  10.500 -0.7730 -1.4287 -0.5354
  151MOL0     H19891   0.520   7.189  10.534  1.2046  1.7817  1.4831
  151MOL0     H19892   0.612   7.151  10.245 -1.6704 -1.9268 -1.6156
  151MOL0     H19893   0.445   7.198  10.298  0.5079  0.5403 -0.9686
  151MOL0     H19894   0.428   6.767  10.286  1.1535  0.8342 -0.0737
  151MOL0     H19895   0.203   6.673  10.281  2.9143 -0.8217  1.8036
  151MOL0     H19896  -0.115   6.451  10.398  0.8849  0.3184  0.3019
  151MOL0     H19897  -0.336   6.342  10.416 -3.2743  0.7827  1.0930
  151MOL0     H19898  -0.547   6.282  10.486 -0.6755 -0.2893  0.6000
  151MOL0     H19899  -0.582   6.316  10.309  0.5618  2.4746 -0.5413
  151MOL0     H19900  -0.780   6.205  10.415  1.2143 -0.1334  0.5244
  151MOL0     H19901  -0.806   6.375  10.389 -1.8066 -1.4688 -1.2018
  151MOL0     H19902  -0.775   6.407  10.635 -2.6597  0.5542  0.4047
  151MOL0     H19903  -0.706   6.244  10.648  0.9534  0.2308 -0.1461
  151MOL0     H19904  -0.992   6.287  10.552  0.7496  0.9037 -0.4262
  151MOL0     H19905  -0.913   6.138  10.620  3.6040 -0.2871  0.9465
  151MOL0     H19906  -1.084   6.235  10.788  0.1838 -0.1538  0.2089
  151MOL0     H19907  -0.982   6.373  10.791 -2.3750  1.4146 -4.2917
  151MOL0     H19908  -0.788   6.208  10.849  1.3171 -1.7128 -2.2220
  151MOL0     H19909  -0.905   6.072  10.834  2.2199  0.3392 -0.6783
  151MOL0     H19910  -0.967   6.303  11.016  0.7549 -0.5944  1.2795
  151MOL0     H19911  -1.026   6.137  11.020  0.0914 -1.5494 -0.8854
  151MOL0     H19912  -0.753   6.235  11.116 -2.8548  2.0716  0.4608
  151MOL0     H19913  -0.787   6.066  11.109  1.0338 -0.4059  1.2923
  151MOL0     H19914  -0.510   6.740  10.435  0.0357  0.3477  0.1724
  151MOL0     H19915  -0.298   6.832  10.418 -0.4594  0.1374  0.5346
  151MOL0     H19916   0.052   7.058  10.413  1.4885 -0.5518  3.5632
  151MOL0     H19917   0.281   7.141  10.414  1.9068 -1.2001  2.2334
  151MOL0     H19918   2.143   7.001   9.967 -0.2782 -2.5711  0.9725
  151MOL0     H19919   2.352   6.902  10.016  0.7006 -1.8136  0.2181
  151MOL0     H19920   2.691   6.907  10.393 -2.7604 -0.5576 -0.5748
  151MOL0     H19921   2.917   6.830  10.437 -2.5834  0.9267  0.3512
  151MOL0     H19922   3.045   6.439  10.244 -4.5308  0.7554 -0.6865
  151MOL0     H19923   2.967   6.381  10.388  0.0359 -0.2479  0.8014
  151MOL0     H19924   3.246   6.492  10.419 -0.7975  1.0401  2.2060
  151MOL0     H19925   3.154   6.407  10.533  3.1688  0.2419  1.3656
  151MOL0     H19926   3.320   6.265  10.412  0.8169 -2.1877 -3.3972
  151MOL0     H19927   3.239   6.273  10.272  2.4554 -0.4338  0.1912
  151MOL0     H19928   3.204   6.074  10.419  1.0716  0.1463  2.6548
  151MOL0     H19929   3.121   6.180  10.537  0.9686  1.2546  0.2293
  151MOL0     H19930   2.824   6.056  10.245 -0.1994 -0.6626  1.1055
  151MOL0     H19931   2.823   6.452  10.268 -1.6274 -0.3269  1.0414
  151MOL0     H19932   2.600   6.542  10.175  1.9714 -1.2393 -0.5104
  152MOL0     O19933   7.435   1.470   5.636 -0.3341 -0.3729  0.5387
  152MOL0     C19934   7.319   1.435   5.606 -0.1869  0.1326 -0.1833
  152MOL0     O19935   7.290   1.349   5.505  0.4096 -0.3152 -0.9101
  152MOL0     C19936   7.386   1.284   5.427 -0.4041 -0.0856  0.4316
  152MOL0     C19937   7.500   1.219   5.484 -0.0181  0.2160  0.1621
  152MOL0     C19938   7.603   1.176   5.398 -0.6365  0.4217  0.9488
  152MOL0     C19939   7.605   1.192   5.261  0.6152  0.0588  0.4947
  152MOL0     O19940   7.696   1.139   5.174 -0.1995  0.3265 -0.7740
  152MOL0     C19941   7.739   1.004   5.191 -0.5192  1.1195  0.2200
  152MOL0     C19942   7.772   0.940   5.049  0.2501  0.3802 -0.6568
  152MOL0     C19943   7.900   0.995   4.990 -0.1447  0.2211  0.2799
  152MOL0     C19944   7.869   0.965   4.834 -0.1483  0.2672  0.4910
  152MOL0     C19945   8.000   0.957   4.741  0.6156 -0.5565 -0.4401
  152MOL0     C19946   7.995   1.006   4.598 -0.6884  0.6183  0.3891
  152MOL0     C19947   7.885   0.944   4.507  1.0593  0.3147  0.3070
  152MOL0     C19948   7.869   0.793   4.518  0.3295 -0.0827 -0.0585
  152MOL0     N19949   7.764   0.754   4.426  0.0811  0.8201  0.3910
  152MOL0     C19950   7.771   0.772   4.287 -0.0498  0.4167 -0.2225
  152MOL0     C19951   7.655   0.706   4.247 -0.6818 -0.8108  0.0866
  152MOL0     C19952   7.609   0.693   4.101 -0.4017 -0.1650 -0.1058
  152MOL0     C19953   7.459   0.710   4.085  0.4315 -0.0397  0.1477
  152MOL0     C19954   7.418   0.711   3.938  0.0201 -0.3360 -0.8481
  152MOL0     C19955   7.272   0.767   3.925 -0.0501  0.3630  0.4098
  152MOL0     O19956   7.178   0.677   3.983  0.4876  0.1612  0.4148
  152MOL0     C19957   7.041   0.702   3.988  0.2222  0.1771 -0.2543
  152MOL0     C19958   6.980   0.813   3.924 -0.1800  0.1257  0.2881
  152MOL0     C19959   6.843   0.819   3.924 -0.1458 -0.3316 -0.5559
  152MOL0     C19960   6.768   0.729   4.006  0.0870  0.7464  0.9653
  152MOL0     C19961   6.618   0.742   4.022 -1.0480  0.3508  0.6827
  152MOL0     O19962   6.568   0.667   4.121  0.7744 -0.6082  0.1717
  152MOL0     C19963   6.437   0.642   4.134  0.3183  0.9084 -0.8428
  152MOL0     C19964   6.410   0.517   4.197  0.6835 -0.7273 -0.9372
  152MOL0     C19965   6.276   0.469   4.215 -0.5114  0.2285  0.5699
  152MOL0     C19966   6.172   0.551   4.169  0.2932 -0.5511  0.6413
  152MOL0     O19967   6.043   0.513   4.175  0.1849  0.0810 -0.5981
  152MOL0     C19968   6.015   0.370   4.171 -0.4489 -0.1401  0.2565
  152MOL0     C19969   5.878   0.343   4.116  0.0762 -0.4271 -0.3397
  152MOL0     C19970   5.772   0.340   4.223 -0.8052 -0.4613 -0.7721
  152MOL0     C19971   5.635   0.325   4.159 -0.5950  0.3807 -0.4962
  152MOL0     C19972   5.516   0.310   4.255 -0.5196  0.0595  0.3177
  152MOL0     C19973   5.376   0.336   4.193 -0.2758  0.8483  0.7157
  152MOL0     C19974   5.257   0.312   4.283  0.4692  0.7397 -0.3584
  152MOL0     C19975   5.121   0.315   4.216  0.8338  0.1254  0.3637
  152MOL0    Cl19976   5.080   0.163   4.128  0.2033  0.0052  0.3848
  152MOL0     C19977   6.199   0.677   4.120 -0.0784 -0.2825  0.4326
  152MOL0     C19978   6.333   0.723   4.102 -0.0061 -0.1867  0.1663
  152MOL0     O19979   6.553   0.824   3.958 -0.8896 -0.1409 -0.3020
  152MOL0     C19980   6.830   0.619   4.063 -0.3315  0.2949 -0.0536
  152MOL0     C19981   6.965   0.607   4.057  0.2193  0.2990  1.0578
  152MOL0     N19982   7.579   0.666   4.357 -0.3267  0.2191  0.0927
  152MOL0     N19983   7.654   0.680   4.458 -0.3201 -0.9781 -1.1444
  152MOL0     C19984   7.486   1.249   5.203 -0.2745  0.3893  0.3768
  152MOL0     C19985   7.382   1.291   5.287 -0.0797 -0.1391  0.3759
  152MOL0     C19986   7.202   1.477   5.694  0.2120  0.2241  0.0540
  152MOL0     C19987   7.213   1.584   5.775 -0.3070 -0.3109 -0.8770
  152MOL0     C19988   7.116   1.618   5.859 -0.4433  0.5958  0.7364
  152MOL0     C19989   7.005   1.533   5.881 -0.3239 -0.0808  0.0682
  152MOL0     O19990   6.909   1.563   5.980 -0.4718 -0.4477  0.1574
  152MOL0     C19991   6.919   1.472   6.086  0.1357  0.4717 -0.1066
  152MOL0     C19992   6.900   1.548   6.207 -0.5856 -0.9228  0.3183
  152MOL0     C19993   7.024   1.627   6.255 -0.5465 -0.1094  0.0391
  152MOL0     C19994   6.992   1.768   6.302  0.0469 -0.9560 -0.1655
  152MOL0     C19995   6.924   1.778   6.434 -0.4653  0.6880 -0.3663
  152MOL0     C19996   6.890   1.799   6.550  0.6205 -0.6064  1.4330
  152MOL0     C19997   6.988   1.421   5.793 -0.6127 -0.4730  0.0112
  152MOL0     C19998   7.093   1.394   5.702  0.0651 -0.8221 -0.6812
  152MOL0     H19999   7.492   1.186   5.588 -0.9404 -0.9294 -0.2476
  152MOL0     H20000   7.675   1.107   5.441  1.5186  0.7661 -1.8223
  152MOL0     H20001   7.663   0.937   5.233  0.0721 -0.4409 -1.0692
  152MOL0     H20002   7.831   0.991   5.249 -2.2287 -2.5284  2.5008
  152MOL0     H20003   7.696   0.980   4.981 -1.1934 -2.6353 -0.9961
  152MOL0     H20004   7.787   0.832   5.046 -0.4439  0.2494  0.0779
  152MOL0     H20005   7.996   0.947   5.014  1.7117  2.6026 -1.8180
  152MOL0     H20006   7.916   1.101   5.012  1.3140 -0.3434  2.3042
  152MOL0     H20007   7.833   0.861   4.838  1.2850 -0.2947 -0.2988
  152MOL0     H20008   7.801   1.043   4.801 -0.5799 -0.2946  0.0223
  152MOL0     H20009   8.040   0.856   4.748  1.7612 -0.2378 -1.7866
  152MOL0     H20010   8.080   1.019   4.783 -1.1250  1.8151 -0.4239
  152MOL0     H20011   8.092   1.000   4.547 -0.8298 -1.4659  0.2939
  152MOL0     H20012   7.984   1.114   4.609  1.2140  0.6944  2.3587
  152MOL0     H20013   7.788   0.994   4.514 -0.6029 -2.6063 -0.2501
  152MOL0     H20014   7.911   0.958   4.402 -3.2128 -1.1281 -1.1344
  152MOL0     H20015   7.844   0.774   4.622  2.5948 -0.1423  0.5279
  152MOL0     H20016   7.964   0.746   4.492  2.2710  3.2066  0.4685
  152MOL0     H20017   7.840   0.828   4.225 -0.3341  2.7950  1.4719
  152MOL0     H20018   7.625   0.587   4.080 -1.0059 -1.1815  3.8242
  152MOL0     H20019   7.672   0.763   4.045  0.5305 -0.2670  0.7830
  152MOL0     H20020   7.429   0.807   4.126 -3.0853 -0.7205 -0.4935
  152MOL0     H20021   7.405   0.631   4.137  1.0612  0.9041  2.3717
  152MOL0     H20022   7.485   0.777   3.881  1.5432 -0.7837  0.3513
  152MOL0     H20023   7.423   0.608   3.903 -0.6915 -1.7667  2.8640
  152MOL0     H20024   7.251   0.791   3.820  1.1758  1.1037  0.3164
  152MOL0     H20025   7.263   0.858   3.984 -0.1689 -0.1349  1.1782
  152MOL0     H20026   7.045   0.888   3.879  1.6873 -0.3892  2.0111
  152MOL0     H20027   6.791   0.907   3.888  0.8799  0.3471 -0.4058
  152MOL0     H20028   6.498   0.461   4.228  0.3365  0.3632  2.5021
  152MOL0     H20029   6.266   0.371   4.261 -2.4789 -0.5782 -1.3711
  152MOL0     H20030   6.010   0.318   4.267 -1.3180  0.2312  0.4219
  152MOL0     H20031   6.095   0.324   4.113 -0.0245  1.4862 -0.5060
  152MOL0     H20032   5.877   0.248   4.062  0.7753 -0.0955 -0.9358
  152MOL0     H20033   5.854   0.419   4.042 -1.8477 -0.9148 -0.2731
  152MOL0     H20034   5.776   0.431   4.285  1.5047 -0.3047 -1.0472
  152MOL0     H20035   5.783   0.255   4.290 -3.1993 -0.8821 -0.8175
  152MOL0     H20036   5.613   0.404   4.086 -1.4484  0.7938  0.1850
  152MOL0     H20037   5.638   0.231   4.103 -0.2298 -1.3779  2.2742
  152MOL0     H20038   5.524   0.375   4.343 -1.9365  0.7629 -0.0445
  152MOL0     H20039   5.515   0.208   4.294 -2.5111  0.1317  0.5581
  152MOL0     H20040   5.361   0.278   4.101  0.7707  2.0754 -0.2692
  152MOL0     H20041   5.371   0.439   4.157 -2.1183  0.6285  0.2607
  152MOL0     H20042   5.269   0.216   4.334  3.9691  1.0625 -0.3435
  152MOL0     H20043   5.264   0.381   4.368 -2.2336  1.1900 -0.4094
  152MOL0     H20044   5.119   0.397   4.143  2.5105 -1.3332 -1.4495
  152MOL0     H20045   5.051   0.324   4.299  0.9188 -1.2373  0.5928
  152MOL0     H20046   6.122   0.749   4.092  1.9351  1.2162 -1.6024
  152MOL0     H20047   6.341   0.821   4.057 -2.0668 -0.1250 -0.1263
  152MOL0     H20048   6.763   0.551   4.115 -1.3874  1.2612 -0.1197
  152MOL0     H20049   6.993   0.512   4.103 -0.8321 -1.4477 -1.6351
  152MOL0     H20050   7.486   1.263   5.095 -4.2708  2.3548  0.4398
  152MOL0     H20051   7.300   1.349   5.247 -1.1318  0.3329  3.0116
  152MOL0     H20052   7.310   1.635   5.775  0.9362 -2.5697 -0.5208
  152MOL0     H20053   7.122   1.705   5.924  0.4410  0.2267  1.1759
  152MOL0     H20054   7.021   1.432   6.089  1.1183  2.6967 -1.1769
  152MOL0     H20055   6.853   1.386   6.079 -0.8986  1.3222 -1.0552
  152MOL0     H20056   6.817   1.617   6.191  0.2186  0.0911  0.4094
  152MOL0     H20057   6.848   1.487   6.281  0.4277 -0.0745  1.7765
  152MOL0     H20058   7.114   1.636   6.193 -1.0628  2.3452 -0.4633
  152MOL0     H20059   7.057   1.577   6.346  0.5957  0.4768 -0.0332
  152MOL0     H20060   7.083   1.827   6.320 -2.8249  3.0875  3.2613
  152MOL0     H20061   6.940   1.826   6.226  1.7017  0.3458 -0.3656
  152MOL0     H20062   6.854   1.818   6.649 -2.2091  0.0224  0.3688
  152MOL0     H20063   6.897   1.361   5.804  0.2563 -2.4390 -2.5279
  152MOL0     H20064   7.095   1.305   5.639  0.4946  0.1122 -2.0210
  153MOL0     O20065   1.472   8.836   7.634  0.4809 -0.2686 -0.2876
  153MOL0     C20066   1.576   8.903   7.651  0.3138 -0.2588  1.3006
  153MOL0     O20067   1.583   9.026   7.707  0.5522 -0.1004  0.3375
  153MOL0     C20068   1.480   9.108   7.744 -0.1358 -0.0341  0.4097
  153MOL0     C20069   1.350   9.104   7.698  0.1488 -0.4106 -0.0205
  153MOL0     C20070   1.265   9.211   7.730  0.0663  0.4573  0.0658
  153MOL0     C20071   1.306   9.320   7.821  0.8755  1.3082  0.4468
  153MOL0     O20072   1.224   9.424   7.858 -0.4159  0.1092  0.9763
  153MOL0     C20073   1.091   9.418   7.809  1.1974 -1.1532  0.2623
  153MOL0     C20074   1.036   9.542   7.865  0.0744 -0.4904  0.5634
  153MOL0     C20075   0.884   9.541   7.866  0.5580  0.1547  0.3187
  153MOL0     C20076   0.807   9.562   7.733  0.6726 -0.9047 -0.5815
  153MOL0     C20077   0.655   9.570   7.761  0.4337 -0.0128 -0.4728
  153MOL0     C20078   0.582   9.601   7.642  0.5777 -0.4728 -0.4072
  153MOL0     C20079   0.433   9.611   7.661 -0.1012  1.2079  0.0139
  153MOL0     C20080   0.363   9.477   7.673 -0.4912  0.3782 -0.9644
  153MOL0     N20081   0.226   9.497   7.648 -0.2566 -0.4384  0.6996
  153MOL0     C20082   0.138   9.526   7.749 -0.4088  0.1709  0.1147
  153MOL0     C20083   0.020   9.544   7.680  0.0238 -0.0717  0.1891
  153MOL0     C20084  -0.114   9.582   7.730  0.1283  0.4331 -0.0360
  153MOL0     C20085  -0.218   9.492   7.659 -0.1752  0.0596  0.2301
  153MOL0     C20086  -0.354   9.509   7.722 -0.0924 -1.0030  0.2256
  153MOL0     C20087  -0.465   9.442   7.640  0.2418 -0.0524 -0.3191
  153MOL0     O20088  -0.599   9.489   7.688 -0.5915  0.6975  0.9717
  153MOL0     C20089  -0.712   9.455   7.613  0.1097  0.2164  0.6396
  153MOL0     C20090  -0.822   9.405   7.682  0.4426 -0.3592  0.0252
  153MOL0     C20091  -0.930   9.352   7.620 -0.2591 -0.2617 -0.1895
  153MOL0     C20092  -0.942   9.352   7.480 -0.1396  0.0820 -0.4226
  153MOL0     C20093  -1.058   9.304   7.407 -0.3312 -1.4401 -1.1289
  153MOL0     O20094  -1.162   9.295   7.489 -0.9246 -0.1698 -0.2502
  153MOL0     C20095  -1.269   9.229   7.452  0.0216  0.5585 -1.0110
  153MOL0     C20096  -1.360   9.274   7.343 -0.0667 -0.7902 -0.0925
  153MOL0     C20097  -1.489   9.221   7.341  0.7743 -0.3458  0.0939
  153MOL0     C20098  -1.532   9.118   7.432 -0.4973  0.5501  0.2607
  153MOL0     O20099  -1.662   9.062   7.431 -0.5667  0.5979  0.4253
  153MOL0     C20100  -1.761   9.117   7.347  0.2544 -0.1497  0.0598
  153MOL0     C20101  -1.764   9.075   7.192 -0.5508  0.4583  0.8395
  153MOL0     C20102  -1.782   8.918   7.172 -0.4872  0.2036  0.3503
  153MOL0     C20103  -1.821   8.896   7.026 -0.3970 -0.9976  0.1358
  153MOL0     C20104  -1.843   8.745   7.004 -0.2227  1.0945  0.3781
  153MOL0     C20105  -1.922   8.721   6.874 -0.0687 -0.0474  0.5008
  153MOL0     C20106  -1.863   8.774   6.743 -0.3109 -0.2477  0.0428
  153MOL0     C20107  -1.888   8.676   6.627 -0.7889 -0.6248  0.5881
  153MOL0    Cl20108  -2.067   8.654   6.601  0.2400  0.2364 -0.0145
  153MOL0     C20109  -1.445   9.069   7.525 -0.6237 -0.3337  0.0874
  153MOL0     C20110  -1.316   9.130   7.544 -0.1230 -0.1667 -0.0483
  153MOL0     O20111  -1.048   9.288   7.291 -0.2156  0.5582  0.1649
  153MOL0     C20112  -0.835   9.403   7.406 -0.2232  0.4320 -1.0522
  153MOL0     C20113  -0.724   9.459   7.476 -0.3505  0.0506  0.0926
  153MOL0     N20114   0.044   9.519   7.547  0.3945  0.8036 -0.1696
  153MOL0     N20115   0.166   9.505   7.525 -0.0018  0.4067  0.5422
  153MOL0     C20116   1.438   9.314   7.864  0.0614  0.2118  0.5882
  153MOL0     C20117   1.526   9.213   7.826 -0.7044  0.1226 -0.0197
  153MOL0     C20118   1.709   8.839   7.618  0.2136  0.1555  0.2258
  153MOL0     C20119   1.722   8.701   7.597 -0.1660 -0.4558  0.4134
  153MOL0     C20120   1.843   8.649   7.555  0.1896  0.2021 -0.5483
  153MOL0     C20121   1.957   8.736   7.547 -0.1536 -0.7370 -0.4605
  153MOL0     O20122   2.086   8.683   7.531  0.0467  0.0111  0.3847
  153MOL0     C20123   2.091   8.583   7.435  0.3239  1.0409 -0.7173
  153MOL0     C20124   2.245   8.541   7.410  0.3830 -0.6816  0.3913
  153MOL0     C20125   2.322   8.618   7.304 -1.4310  0.3902 -0.6902
  153MOL0     C20126   2.454   8.546   7.279 -1.2538  0.2295  0.4025
  153MOL0     C20127   2.544   8.565   7.394  0.0250  0.4400 -0.2730
  153MOL0     C20128   2.621   8.577   7.486 -0.6669 -0.0816 -1.0986
  153MOL0     C20129   1.952   8.872   7.593  0.4249  0.1196  0.1513
  153MOL0     C20130   1.824   8.924   7.625 -0.2244  0.2836 -0.6455
  153MOL0     H20131   1.314   9.021   7.639 -2.0921 -0.1707  0.8983
  153MOL0     H20132   1.164   9.198   7.692 -0.0444 -1.6699  0.9061
  153MOL0     H20133   1.031   9.337   7.852  0.5022 -0.7196  0.1304
  153MOL0     H20134   1.087   9.413   7.699 -0.2242  1.2610  0.1522
  153MOL0     H20135   1.078   9.620   7.801 -0.2140  0.4783  1.5255
  153MOL0     H20136   1.069   9.565   7.967 -1.6938  3.2687  0.4684
  153MOL0     H20137   0.859   9.627   7.927  1.7198 -0.9456  2.4674
  153MOL0     H20138   0.849   9.447   7.910 -3.4798  1.1708 -0.3742
  153MOL0     H20139   0.839   9.654   7.684 -0.2698  1.1693  2.4612
  153MOL0     H20140   0.813   9.480   7.660 -3.0270  0.1362 -2.3002
  153MOL0     H20141   0.647   9.648   7.838 -0.1161  0.8857 -1.4326
  153MOL0     H20142   0.632   9.469   7.797  1.4130 -0.4426 -1.0135
  153MOL0     H20143   0.617   9.532   7.565 -1.2257 -3.7098  1.4726
  153MOL0     H20144   0.617   9.702   7.617  0.6752 -0.2030  0.7837
  153MOL0     H20145   0.419   9.674   7.749  0.4426  1.6770 -0.2230
  153MOL0     H20146   0.395   9.671   7.577 -4.1186 -1.9670 -0.7448
  153MOL0     H20147   0.371   9.423   7.768 -2.3055  0.4972 -0.7004
  153MOL0     H20148   0.399   9.406   7.598 -1.6742 -1.6935  0.3296
  153MOL0     H20149   0.148   9.526   7.857 -3.0941 -0.3501  0.4476
  153MOL0     H20150  -0.130   9.685   7.699  1.5400  0.2656 -1.4154
  153MOL0     H20151  -0.122   9.566   7.838 -0.2998  1.4480  0.0895
  153MOL0     H20152  -0.192   9.386   7.672 -0.2465  0.1052  0.7806
  153MOL0     H20153  -0.220   9.520   7.553  3.8215  1.8316  0.4055
  153MOL0     H20154  -0.337   9.470   7.823  0.1139 -0.3338  0.4520
  153MOL0     H20155  -0.371   9.617   7.734  0.2625 -0.7139 -1.6648
  153MOL0     H20156  -0.464   9.333   7.648 -1.1305 -0.2132 -1.8176
  153MOL0     H20157  -0.452   9.472   7.536 -3.7483  0.8527 -0.7360
  153MOL0     H20158  -0.811   9.396   7.790 -0.8819  0.2549  0.2344
  153MOL0     H20159  -1.015   9.333   7.685 -0.1325 -0.1497  0.0133
  153MOL0     H20160  -1.338   9.354   7.273 -1.1785  0.3787  0.8572
  153MOL0     H20161  -1.549   9.270   7.265  2.7298 -0.0743 -1.3520
  153MOL0     H20162  -1.758   9.224   7.367 -2.0133 -0.4009  2.1204
  153MOL0     H20163  -1.853   9.082   7.395 -0.7258  2.9489  0.6283
  153MOL0     H20164  -1.673   9.110   7.143 -0.5685  0.2353  0.6455
  153MOL0     H20165  -1.839   9.140   7.148  1.9854  4.9198  2.4670
  153MOL0     H20166  -1.862   8.883   7.238  0.9428  1.5325  2.9378
  153MOL0     H20167  -1.693   8.859   7.195 -0.6104  0.4866  1.6143
  153MOL0     H20168  -1.908   8.955   6.996  1.5517  1.4525 -0.9862
  153MOL0     H20169  -1.741   8.936   6.964 -1.6852  0.1604 -0.8466
  153MOL0     H20170  -1.891   8.694   7.088 -0.7252 -2.3733 -1.8211
  153MOL0     H20171  -1.742   8.702   7.013 -1.3173 -2.2595 -1.7302
  153MOL0     H20172  -2.023   8.762   6.883  0.6400  2.0360 -0.4155
  153MOL0     H20173  -1.923   8.612   6.862  0.8834  0.0066 -0.1598
  153MOL0     H20174  -1.906   8.870   6.714  0.3714 -0.1241 -0.6019
  153MOL0     H20175  -1.754   8.784   6.754 -0.0639  0.0075 -2.2190
  153MOL0     H20176  -1.844   8.579   6.652  0.1700  0.0586  1.6864
  153MOL0     H20177  -1.827   8.715   6.545 -1.4909 -2.3933 -0.8528
  153MOL0     H20178  -1.495   8.997   7.589  0.6840 -2.7119 -1.4201
  153MOL0     H20179  -1.254   9.102   7.629 -1.3127  0.8605  1.2299
  153MOL0     H20180  -0.842   9.409   7.298  0.0013 -1.3921 -1.2062
  153MOL0     H20181  -0.632   9.500   7.435  0.4016  0.7705  2.3516
  153MOL0     H20182   1.473   9.394   7.929  2.0031  0.1514 -0.3246
  153MOL0     H20183   1.629   9.204   7.859 -0.3897 -1.0298 -1.2071
  153MOL0     H20184   1.635   8.641   7.619  0.1034 -0.6127  1.0887
  153MOL0     H20185   1.844   8.544   7.528  0.1490  0.4032 -1.3459
  153MOL0     H20186   2.050   8.619   7.340  1.1944  4.1685 -0.0045
  153MOL0     H20187   2.036   8.496   7.473  0.9609  1.1393  0.4574
  153MOL0     H20188   2.294   8.547   7.507  0.4455  1.7321  0.2831
  153MOL0     H20189   2.249   8.437   7.377 -0.7384 -0.9292  0.9539
  153MOL0     H20190   2.346   8.718   7.341 -2.1433  0.5395 -0.6039
  153MOL0     H20191   2.261   8.640   7.216 -1.5656 -0.4996 -0.8287
  153MOL0     H20192   2.448   8.441   7.250  2.9677 -0.0839 -0.0337
  153MOL0     H20193   2.503   8.598   7.196  0.6829 -0.6194  0.9504
  153MOL0     H20194   2.690   8.583   7.568  0.0348  0.8254 -1.7458
  153MOL0     H20195   2.038   8.938   7.594 -1.3855  3.0155 -4.2786
  153MOL0     H20196   1.813   9.028   7.654 -0.0893  0.5176 -1.4167
  154MOL0     O20197   7.725   2.462   6.502 -0.2066 -1.1214 -0.4512
  154MOL0     C20198   7.662   2.473   6.610  0.3909  0.0027 -0.5408
  154MOL0     O20199   7.536   2.413   6.631 -0.0271  1.1668  0.0415
  154MOL0     C20200   7.500   2.302   6.557 -0.2953  0.6406  0.2397
  154MOL0     C20201   7.584   2.198   6.543  0.1181 -0.1351 -0.2610
  154MOL0     C20202   7.544   2.070   6.492  0.1951  0.6270 -0.0703
  154MOL0     C20203   7.414   2.053   6.444  0.0377 -0.2326 -0.0187
  154MOL0     O20204   7.367   1.936   6.396 -0.2890 -0.8646 -0.1747
  154MOL0     C20205   7.462   1.852   6.323  0.2454 -0.0718  0.5921
  154MOL0     C20206   7.382   1.733   6.270 -0.4425  0.3135 -0.4825
  154MOL0     C20207   7.475   1.633   6.203 -0.6725  0.3139  0.2437
  154MOL0     C20208   7.405   1.513   6.144  1.3095  0.4917 -0.7700
  154MOL0     C20209   7.500   1.409   6.089 -0.5673 -1.0853 -0.3331
  154MOL0     C20210   7.410   1.298   6.039  0.4475  0.0811 -0.1087
  154MOL0     C20211   7.461   1.221   5.912 -0.0619 -0.7459 -0.1308
  154MOL0     C20212   7.587   1.145   5.945  0.1649  0.8431 -0.3581
  154MOL0     N20213   7.608   1.047   5.841 -0.7666  0.5746 -0.0292
  154MOL0     C20214   7.525   0.950   5.796  0.3183 -0.0083 -0.2108
  154MOL0     C20215   7.599   0.891   5.698 -0.3907  0.1166 -0.1398
  154MOL0     C20216   7.550   0.784   5.613  0.2623  1.2073 -0.2207
  154MOL0     C20217   7.470   0.831   5.491  0.0250 -0.5212  0.0814
  154MOL0     C20218   7.418   0.719   5.397  0.7949 -0.4800 -0.5913
  154MOL0     C20219   7.268   0.680   5.427  0.1966  0.9086  0.2797
  154MOL0     O20220   7.269   0.648   5.566  0.3664 -0.8909  0.0591
  154MOL0     C20221   7.203   0.738   5.650 -0.2334  0.3377 -0.2443
  154MOL0     C20222   7.210   0.706   5.787 -0.0997  0.0738 -0.0733
  154MOL0     C20223   7.155   0.792   5.889  0.0689  0.3489  0.8534
  154MOL0     C20224   7.096   0.913   5.857 -0.1381  0.0269  1.5794
  154MOL0     C20225   7.048   1.002   5.952  0.5376 -0.7662  0.7418
  154MOL0     O20226   7.024   0.943   6.068  0.4949  0.2511 -0.4449
  154MOL0     C20227   6.972   1.021   6.173  0.0983  0.4343 -0.3379
  154MOL0     C20228   6.846   0.988   6.228  0.7407 -0.3656  0.2518
  154MOL0     C20229   6.796   1.065   6.336 -0.3792 -0.0983 -0.0101
  154MOL0     C20230   6.866   1.177   6.393 -0.4927  0.4051  0.4313
  154MOL0     O20231   6.816   1.250   6.496 -0.1761  0.3478  0.1550
  154MOL0     C20232   6.905   1.328   6.574 -0.0304 -1.7321 -0.5025
  154MOL0     C20233   6.825   1.363   6.695 -0.1834  1.2097  0.4249
  154MOL0     C20234   6.720   1.471   6.664 -0.6323  0.5820 -0.5297
  154MOL0     C20235   6.634   1.457   6.793  0.7419  0.2911  0.4169
  154MOL0     C20236   6.548   1.586   6.813 -0.8200  0.3947  0.4833
  154MOL0     C20237   6.432   1.563   6.913 -0.1273 -0.4507 -0.2892
  154MOL0     C20238   6.309   1.653   6.907 -0.4523  0.2290  0.0139
  154MOL0     C20239   6.210   1.617   7.009  0.3770  0.2365 -0.2529
  154MOL0    Cl20240   6.067   1.726   6.997  0.2750  0.6911 -0.0454
  154MOL0     C20241   6.988   1.202   6.338  0.8790 -0.0914  0.0452
  154MOL0     C20242   7.043   1.126   6.231 -0.2254  0.2761 -0.9539
  154MOL0     O20243   7.027   1.120   5.928  0.1182  0.4394  0.3312
  154MOL0     C20244   7.095   0.944   5.722  0.2428 -0.1682  0.5220
  154MOL0     C20245   7.144   0.866   5.625 -0.5129 -0.3654  0.5158
  154MOL0     N20246   7.709   0.962   5.672  0.6973 -0.6716 -0.3464
  154MOL0     N20247   7.719   1.053   5.763  0.8534  0.3367 -0.3935
  154MOL0     C20248   7.323   2.156   6.468 -0.0058 -0.8196 -0.7445
  154MOL0     C20249   7.361   2.277   6.525  0.3006  0.7700 -1.3780
  154MOL0     C20250   7.717   2.548   6.723  0.0195 -0.0309 -0.1984
  154MOL0     C20251   7.635   2.577   6.831  0.5063  0.1547 -0.2168
  154MOL0     C20252   7.678   2.645   6.946  0.5421  0.1743  0.6929
  154MOL0     C20253   7.809   2.686   6.940 -0.4336  0.5793 -0.0243
  154MOL0     O20254   7.875   2.747   7.045 -0.2268  0.0007 -0.1684
  154MOL0     C20255   7.794   2.801   7.154 -0.3743  0.1699 -0.7013
  154MOL0     C20256   7.892   2.887   7.245 -0.3481 -0.5386 -0.2415
  154MOL0     C20257   7.951   2.991   7.154 -0.6660 -0.0651  0.1992
  154MOL0     C20258   8.047   3.077   7.230  0.0189  0.0588  0.4785
  154MOL0     C20259   8.119   3.170   7.141 -0.3522 -0.5161 -0.7462
  154MOL0     C20260   8.177   3.254   7.076 -0.7142  0.0458 -0.1547
  154MOL0     C20261   7.895   2.660   6.836 -0.6736  0.1128 -0.2994
  154MOL0     C20262   7.852   2.586   6.726  0.4856  0.0056  1.0614
  154MOL0     H20263   7.686   2.214   6.575  0.2741 -2.4727  0.5955
  154MOL0     H20264   7.618   1.991   6.504  2.0790  2.3659  0.1172
  154MOL0     H20265   7.540   1.831   6.396  2.3598  0.9253 -1.2541
  154MOL0     H20266   7.507   1.898   6.234 -0.4072  0.1544  0.3731
  154MOL0     H20267   7.315   1.777   6.196 -1.0846  1.0329  0.4957
  154MOL0     H20268   7.327   1.686   6.352  0.7769 -0.0594  0.1497
  154MOL0     H20269   7.550   1.605   6.277 -0.0315 -0.0019 -0.5154
  154MOL0     H20270   7.538   1.675   6.124 -0.9285  0.7723  0.2792
  154MOL0     H20271   7.345   1.465   6.222  0.0843  2.4359 -0.4365
  154MOL0     H20272   7.329   1.538   6.068 -2.2195 -1.5368  1.7638
  154MOL0     H20273   7.570   1.369   6.163  0.0409 -2.1135 -1.4191
  154MOL0     H20274   7.551   1.457   6.005 -1.3271  2.1866  0.9426
  154MOL0     H20275   7.317   1.340   6.000 -0.7199 -0.0836  2.3146
  154MOL0     H20276   7.376   1.237   6.123 -0.2906  3.2137  2.0360
  154MOL0     H20277   7.379   1.155   5.880 -0.2576 -0.2486 -0.6655
  154MOL0     H20278   7.484   1.292   5.833 -3.0615 -0.3283 -0.7598
  154MOL0     H20279   7.575   1.097   6.042  1.4889  0.9362 -0.1256
  154MOL0     H20280   7.671   1.214   5.954  0.2221  0.9841 -1.7324
  154MOL0     H20281   7.421   0.927   5.817 -0.0580  2.3845  0.8659
  154MOL0     H20282   7.496   0.715   5.678  0.7531  1.3662  0.3600
  154MOL0     H20283   7.635   0.732   5.569 -0.9333  1.1334 -2.6676
  154MOL0     H20284   7.535   0.897   5.433 -0.6049 -1.8277 -2.2765
  154MOL0     H20285   7.384   0.890   5.526  1.4989  1.0384  1.2095
  154MOL0     H20286   7.426   0.750   5.292  1.0523 -0.1673 -0.4794
  154MOL0     H20287   7.481   0.630   5.403  1.6503  0.0759 -1.1917
  154MOL0     H20288   7.255   0.586   5.372  1.0701 -0.8265  2.8391
  154MOL0     H20289   7.203   0.761   5.393 -1.9321 -0.5967  0.5911
  154MOL0     H20290   7.261   0.618   5.826  2.8252  2.9557  3.3251
  154MOL0     H20291   7.162   0.756   5.991  0.3743 -1.7023  0.1491
  154MOL0     H20292   6.786   0.909   6.185  1.2551  0.8277 -2.8694
  154MOL0     H20293   6.706   1.041   6.391 -0.8560  0.2152 -0.6408
  154MOL0     H20294   6.928   1.421   6.520 -4.7785  0.8336  1.3445
  154MOL0     H20295   6.990   1.269   6.611  0.5638  0.2502  1.5267
  154MOL0     H20296   6.895   1.405   6.768  1.1659 -0.8860  0.4281
  154MOL0     H20297   6.777   1.275   6.739 -0.4153  1.9732  1.7532
  154MOL0     H20298   6.657   1.454   6.575  1.9082 -0.8658 -2.1874
  154MOL0     H20299   6.770   1.565   6.641 -0.2062 -0.3282 -4.0030
  154MOL0     H20300   6.568   1.369   6.793 -2.2398  2.3790  1.5378
  154MOL0     H20301   6.683   1.437   6.888  1.9732 -0.9627 -0.4351
  154MOL0     H20302   6.491   1.589   6.719 -1.6071 -2.4444  0.7913
  154MOL0     H20303   6.598   1.683   6.825  2.0245 -0.9521  0.2888
  154MOL0     H20304   6.478   1.581   7.011 -2.0281  0.1959  0.5353
  154MOL0     H20305   6.393   1.461   6.903 -3.1287  0.7117 -1.6921
  154MOL0     H20306   6.328   1.761   6.908 -2.4224  0.7550 -3.0482
  154MOL0     H20307   6.271   1.628   6.807 -0.8350 -0.1160  0.2442
  154MOL0     H20308   6.257   1.619   7.107  0.7602 -0.7787 -0.4031
  154MOL0     H20309   6.168   1.516   7.005 -2.3477  1.2023  1.2041
  154MOL0     H20310   7.043   1.295   6.354 -0.8187  1.0121 -0.3042
  154MOL0     H20311   7.145   1.147   6.201 -0.0125 -0.1906 -0.5660
  154MOL0     H20312   7.052   1.039   5.692  0.9407 -0.1406 -0.4783
  154MOL0     H20313   7.131   0.895   5.521  1.3135 -0.0887  0.3379
  154MOL0     H20314   7.221   2.138   6.438 -0.5312  1.1515 -0.2999
  154MOL0     H20315   7.284   2.345   6.558  0.0336 -0.0286 -0.2873
  154MOL0     H20316   7.530   2.551   6.819  0.1693  1.1469  0.4461
  154MOL0     H20317   7.615   2.669   7.031 -2.2504  0.3845 -1.3043
  154MOL0     H20318   7.745   2.722   7.213  1.0070  0.3266  0.7364
  154MOL0     H20319   7.711   2.857   7.111 -1.3010  1.2466  2.2150
  154MOL0     H20320   7.845   2.934   7.332  0.9042 -0.0146  0.1811
  154MOL0     H20321   7.975   2.830   7.288  1.8673  1.9654 -0.8974
  154MOL0     H20322   7.873   3.045   7.099 -0.6696 -1.1110 -0.8605
  154MOL0     H20323   8.003   2.938   7.074  0.5378  0.9569  0.2729
  154MOL0     H20324   8.002   3.142   7.305  0.0848 -1.4690  1.9076
  154MOL0     H20325   8.119   3.020   7.289  0.2649 -1.0772 -0.8508
  154MOL0     H20326   8.235   3.332   7.031 -1.0681  0.9121  0.8501
  154MOL0     H20327   7.999   2.692   6.839 -0.8153  0.7032 -1.3611
  154MOL0     H20328   7.907   2.571   6.634 -0.8149 -0.5110  0.3264
  155MOL0     O20329   4.737   2.647   9.711  0.0625 -0.6064  0.7610
  155MOL0     C20330   4.815   2.550   9.714 -0.6978  0.2643  0.1516
  155MOL0     O20331   4.769   2.417   9.698  0.0296 -0.5734 -0.0964
  155MOL0     C20332   4.630   2.404   9.727  0.0774  0.5691 -0.0218
  155MOL0     C20333   4.597   2.353   9.854 -0.2519 -0.4753 -0.6581
  155MOL0     C20334   4.459   2.350   9.890  0.4385  0.6608 -0.6860
  155MOL0     C20335   4.361   2.392   9.801  0.3036  0.3672 -0.0927
  155MOL0     O20336   4.232   2.393   9.844  0.0039  0.0441 -0.0765
  155MOL0     C20337   4.123   2.423   9.753 -0.1165 -0.5049  0.3906
  155MOL0     C20338   3.993   2.432   9.834 -0.2969  0.2462  0.9199
  155MOL0     C20339   3.871   2.474   9.751 -0.4054 -0.1058  0.5943
  155MOL0     C20340   3.753   2.450   9.842 -0.2565 -0.1404  0.6231
  155MOL0     C20341   3.621   2.471   9.760 -0.6212 -0.2374  0.3452
  155MOL0     C20342   3.592   2.617   9.705 -0.2440  0.2743  0.4588
  155MOL0     C20343   3.596   2.728   9.809  0.1356  0.7500 -0.7382
  155MOL0     C20344   3.481   2.713   9.915 -0.7230  0.1848  0.7017
  155MOL0     N20345   3.352   2.738   9.859  0.3065 -0.3363 -0.4085
  155MOL0     C20346   3.232   2.707   9.923 -0.0790  0.3627 -0.5085
  155MOL0     C20347   3.134   2.771   9.854  0.4726  0.1279 -0.1810
  155MOL0     C20348   2.986   2.762   9.877  0.6646 -0.1360 -0.3810
  155MOL0     C20349   2.911   2.890   9.935 -0.5371  0.3248 -0.2148
  155MOL0     C20350   2.766   2.855   9.969 -0.0572 -0.2308 -0.3218
  155MOL0     C20351   2.684   2.963  10.030  0.2437  0.0199  0.2468
  155MOL0     O20352   2.550   2.921  10.063 -0.2318  0.0249 -0.8890
  155MOL0     C20353   2.450   2.956   9.978 -0.1605 -0.5611  0.9983
  155MOL0     C20354   2.320   2.954  10.028  0.1141  0.8220  0.6100
  155MOL0     C20355   2.214   2.992   9.955  0.2677 -1.2498  0.2577
  155MOL0     C20356   2.220   3.026   9.813  0.8126  0.1793 -0.9896
  155MOL0     C20357   2.089   3.059   9.739 -0.3468 -0.5231 -0.2050
  155MOL0     O20358   1.987   3.081   9.821  0.2291  0.2825  0.7943
  155MOL0     C20359   1.861   3.112   9.774 -0.4613 -0.0912  0.7492
  155MOL0     C20360   1.814   3.227   9.822  0.0636  0.1747 -0.1006
  155MOL0     C20361   1.689   3.276   9.786 -0.1582  0.3844  0.5202
  155MOL0     C20362   1.616   3.217   9.681  0.1454 -0.1535  0.3919
  155MOL0     O20363   1.502   3.278   9.638  0.9863 -0.3510  0.5228
  155MOL0     C20364   1.448   3.221   9.518  0.6251  0.1431  0.4269
  155MOL0     C20365   1.312   3.269   9.495  0.9865 -0.9825 -0.1103
  155MOL0     C20366   1.235   3.202   9.384  0.6579  0.3176 -0.7607
  155MOL0     C20367   1.103   3.265   9.369  0.1906 -0.2604  0.1817
  155MOL0     C20368   1.039   3.259   9.233  0.2527  0.7639 -0.6739
  155MOL0     C20369   0.885   3.279   9.238  0.6285  0.5921  0.2564
  155MOL0     C20370   0.821   3.270   9.105  0.3019 -0.2650 -0.2495
  155MOL0     C20371   0.671   3.274   9.101  0.6065  0.4672  0.5685
  155MOL0    Cl20372   0.606   3.244   8.938  0.0235  0.5003 -0.9406
  155MOL0     C20373   1.658   3.097   9.635  0.2759 -0.6920  1.2705
  155MOL0     C20374   1.784   3.054   9.673 -0.0999 -0.0968  0.1365
  155MOL0     O20375   2.084   3.053   9.617  0.2789 -0.1633  0.7454
  155MOL0     C20376   2.346   3.018   9.759  0.7294 -0.1116 -0.3446
  155MOL0     C20377   2.463   2.994   9.838  0.3110  0.2899  0.2133
  155MOL0     N20378   3.192   2.846   9.756 -0.2749 -0.0654 -1.1707
  155MOL0     N20379   3.321   2.828   9.760  0.5849  0.0234  0.2003
  155MOL0     C20380   4.390   2.433   9.670  0.2484  0.6330  1.1057
  155MOL0     C20381   4.527   2.435   9.632  1.2021  0.4401  0.3336
  155MOL0     C20382   4.962   2.568   9.738 -1.0358 -0.6173 -0.6102
  155MOL0     C20383   5.006   2.686   9.790 -1.1454  0.3454  0.0623
  155MOL0     C20384   5.145   2.697   9.813  0.1370 -0.9061 -0.1376
  155MOL0     C20385   5.235   2.597   9.787 -0.2788 -0.1175  1.9045
  155MOL0     O20386   5.361   2.636   9.808  0.3051 -0.9525  0.0015
  155MOL0     C20387   5.476   2.565   9.775 -0.2650  0.3789 -0.0364
  155MOL0     C20388   5.483   2.433   9.867 -0.5094 -0.8359  0.6426
  155MOL0     C20389   5.608   2.348   9.846  0.2575 -1.2142  0.1149
  155MOL0     C20390   5.630   2.298   9.709  0.6039  0.4888 -0.5702
  155MOL0     C20391   5.527   2.196   9.675  0.8530  0.4848 -0.4603
  155MOL0     C20392   5.437   2.121   9.657 -0.0383  0.2869 -0.3808
  155MOL0     C20393   5.187   2.478   9.722 -0.0613 -0.7134 -0.0318
  155MOL0     C20394   5.050   2.464   9.700 -0.7557  0.3050  0.5685
  155MOL0     H20395   4.656   2.335   9.943 -0.5258 -2.8562 -0.9005
  155MOL0     H20396   4.421   2.319   9.987 -0.9859  0.9318 -1.1226
  155MOL0     H20397   4.119   2.352   9.669 -0.1562  0.2277 -0.2306
  155MOL0     H20398   4.130   2.520   9.705  1.5457 -0.7711  0.0432
  155MOL0     H20399   4.014   2.508   9.909  2.7682  2.1395 -1.6020
  155MOL0     H20400   3.981   2.338   9.889  0.8675 -0.8960 -0.6727
  155MOL0     H20401   3.858   2.408   9.664  0.8882 -0.7771  0.8919
  155MOL0     H20402   3.889   2.581   9.734  0.8961  0.1341  3.0114
  155MOL0     H20403   3.764   2.343   9.862  0.6250 -0.7122 -2.4599
  155MOL0     H20404   3.763   2.514   9.931  1.4026  1.8444 -0.8828
  155MOL0     H20405   3.537   2.431   9.819 -1.8526  0.0850 -1.1279
  155MOL0     H20406   3.639   2.404   9.675  2.2375  0.2060  0.5119
  155MOL0     H20407   3.493   2.600   9.662  0.5470 -2.5752 -0.4677
  155MOL0     H20408   3.671   2.630   9.631  1.6869 -5.9423  0.7944
  155MOL0     H20409   3.690   2.723   9.865  0.3820 -2.0887 -1.2649
  155MOL0     H20410   3.582   2.831   9.773 -0.6514  1.2872  0.9903
  155MOL0     H20411   3.494   2.773  10.006  1.2035  0.3032  0.3977
  155MOL0     H20412   3.494   2.614   9.959 -0.3987  1.3082  3.3333
  155MOL0     H20413   3.225   2.639  10.008  3.6452  0.7018  0.2378
  155MOL0     H20414   2.964   2.667   9.927 -0.6120 -0.3422 -1.2901
  155MOL0     H20415   2.952   2.737   9.776  0.3184  2.4558 -0.9535
  155MOL0     H20416   2.912   2.976   9.867 -0.8348  1.1319  0.7822
  155MOL0     H20417   2.963   2.918  10.027 -0.8745 -1.0340  0.4169
  155MOL0     H20418   2.708   2.834   9.879 -0.3225  0.7221 -0.3838
  155MOL0     H20419   2.755   2.767  10.034 -2.1089  0.6733  0.6708
  155MOL0     H20420   2.683   3.054   9.969 -0.5815  1.4346  2.2892
  155MOL0     H20421   2.733   2.985  10.125  0.8256 -1.9561  0.4425
  155MOL0     H20422   2.314   2.920  10.131  0.6366  1.0861  0.7327
  155MOL0     H20423   2.120   2.992  10.008  1.8959 -2.2031  3.3759
  155MOL0     H20424   1.879   3.268   9.899  2.1377 -1.5130 -0.8524
  155MOL0     H20425   1.645   3.365   9.828 -1.3673  1.2827 -2.4167
  155MOL0     H20426   1.451   3.112   9.516  0.6276  0.0753  2.1728
  155MOL0     H20427   1.513   3.258   9.439  0.2040  0.1896  0.0980
  155MOL0     H20428   1.316   3.377   9.480 -3.5149 -0.6638 -0.4035
  155MOL0     H20429   1.255   3.247   9.586  3.0150 -2.4512  0.8812
  155MOL0     H20430   1.227   3.094   9.399  1.5285  0.3039 -0.3424
  155MOL0     H20431   1.295   3.206   9.292 -1.8851  2.0408 -2.5073
  155MOL0     H20432   1.038   3.219   9.444 -0.6749  0.0185 -0.3895
  155MOL0     H20433   1.111   3.370   9.399 -0.6789 -0.8584  2.8027
  155MOL0     H20434   1.069   3.163   9.188  1.5682 -0.5705  2.7319
  155MOL0     H20435   1.077   3.344   9.175 -0.2155  2.2937  1.1958
  155MOL0     H20436   0.860   3.373   9.289  0.9462  0.1419  1.2611
  155MOL0     H20437   0.829   3.201   9.290  2.5501 -0.9816  0.0613
  155MOL0     H20438   0.853   3.350   9.038  2.8351 -0.6691  0.3642
  155MOL0     H20439   0.856   3.177   9.060  3.2143  0.9557 -0.6927
  155MOL0     H20440   0.650   3.375   9.138  1.2677  0.5013  0.8680
  155MOL0     H20441   0.627   3.209   9.178  1.1720  1.1464  1.4908
  155MOL0     H20442   1.603   3.029   9.571  1.2568  0.4185 -0.8624
  155MOL0     H20443   1.826   2.964   9.631  1.2218  0.8232 -0.5797
  155MOL0     H20444   2.357   3.043   9.654  1.1777 -2.3596 -0.8689
  155MOL0     H20445   2.560   2.991   9.789  0.0744 -0.0509 -0.2482
  155MOL0     H20446   4.323   2.461   9.590  3.1682  1.1022 -1.3486
  155MOL0     H20447   4.557   2.461   9.531  3.6209 -2.8461  0.0101
  155MOL0     H20448   4.938   2.764   9.823 -0.4934  1.9003 -2.0488
  155MOL0     H20449   5.183   2.784   9.866  0.5748 -0.9229 -0.4152
  155MOL0     H20450   5.570   2.620   9.784 -1.3154  2.1654  0.4986
  155MOL0     H20451   5.460   2.524   9.674 -0.7336  1.4744 -0.4182
  155MOL0     H20452   5.480   2.465   9.971 -0.0383 -1.2098  0.7722
  155MOL0     H20453   5.393   2.373   9.853 -0.8628 -1.0124  3.3189
  155MOL0     H20454   5.600   2.273   9.925 -0.6809 -0.4535  0.7751
  155MOL0     H20455   5.703   2.398   9.867  0.7198 -0.9959 -2.1953
  155MOL0     H20456   5.604   2.374   9.635 -1.6058  0.4880  0.1629
  155MOL0     H20457   5.730   2.252   9.708 -0.0454 -1.0403 -2.8610
  155MOL0     H20458   5.343   2.072   9.643  0.1510  0.3916 -2.3430
  155MOL0     H20459   5.249   2.402   9.676  0.8425  1.3589 -2.4773
  155MOL0     H20460   5.010   2.374   9.653  0.8625 -0.5070  0.6872
  156MOL0     O20461   1.682   4.033   6.161  0.6261 -0.1523  0.3738
  156MOL0     C20462   1.696   3.924   6.216 -0.3545  0.3103 -0.1241
  156MOL0     O20463   1.625   3.811   6.181  0.2006  0.3235 -0.1988
  156MOL0     C20464   1.525   3.801   6.085  1.2261 -0.8869 -0.4348
  156MOL0     C20465   1.498   3.680   6.019 -0.1753  0.0636 -0.1464
  156MOL0     C20466   1.396   3.675   5.931 -0.2174  0.0753 -0.5704
  156MOL0     C20467   1.305   3.783   5.909  0.2289  0.3452 -0.6572
  156MOL0     O20468   1.198   3.772   5.822 -0.0569 -0.3047 -1.2134
  156MOL0     C20469   1.101   3.671   5.855 -0.3443 -0.0848  0.1860
  156MOL0     C20470   1.092   3.595   5.722 -0.3092 -0.3185  0.6375
  156MOL0     C20471   0.992   3.471   5.715  0.4436 -0.3160  0.3381
  156MOL0     C20472   1.051   3.389   5.595  0.0181 -0.2764  0.2608
  156MOL0     C20473   0.973   3.262   5.584  0.7646 -0.1416 -0.8639
  156MOL0     C20474   0.972   3.197   5.444  0.2251  0.2945  0.0748
  156MOL0     C20475   1.000   3.047   5.470 -0.5031  0.7677 -0.0546
  156MOL0     C20476   1.014   2.965   5.333  0.4646 -0.6012 -0.3832
  156MOL0     N20477   0.886   2.985   5.255 -0.5685 -0.3111 -0.3592
  156MOL0     C20478   0.762   2.937   5.282 -0.2888 -0.4208 -0.2460
  156MOL0     C20479   0.687   2.983   5.181 -1.2282 -0.1315 -0.9327
  156MOL0     C20480   0.540   2.945   5.178 -0.5859  0.1233  0.5528
  156MOL0     C20481   0.531   2.830   5.085 -0.3433  0.8007 -0.5123
  156MOL0     C20482   0.402   2.753   5.084  0.3314  0.6632 -1.0169
  156MOL0     C20483   0.407   2.625   5.180  0.8875 -0.9395 -0.0266
  156MOL0     O20484   0.435   2.662   5.317  0.2391 -0.5982 -0.1946
  156MOL0     C20485   0.380   2.590   5.421 -1.0951  0.0431 -0.3215
  156MOL0     C20486   0.387   2.656   5.548  0.4047  0.4228  0.8283
  156MOL0     C20487   0.323   2.594   5.657 -0.3424  0.0965  0.1208
  156MOL0     C20488   0.242   2.481   5.645  0.8008 -0.2527  0.0386
  156MOL0     C20489   0.166   2.424   5.764  0.8503 -1.0650  0.0524
  156MOL0     O20490   0.128   2.521   5.855  0.1577  0.6552 -0.4663
  156MOL0     C20491   0.053   2.489   5.968 -0.0026  0.8003 -0.5833
  156MOL0     C20492  -0.090   2.515   5.983  0.6533  0.2702 -0.5460
  156MOL0     C20493  -0.162   2.487   6.107  0.1111  0.8104  0.3798
  156MOL0     C20494  -0.099   2.411   6.207 -0.5911  0.3824 -0.0230
  156MOL0     O20495  -0.175   2.363   6.311  0.5940  0.1673 -0.0047
  156MOL0     C20496  -0.156   2.228   6.345  0.5769  0.1349 -0.8949
  156MOL0     C20497  -0.245   2.133   6.272 -0.1922  0.5439  0.2329
  156MOL0     C20498  -0.394   2.177   6.258 -0.3797 -0.1731 -0.8161
  156MOL0     C20499  -0.491   2.069   6.226 -0.1294  0.7990 -0.1619
  156MOL0     C20500  -0.492   1.957   6.327 -0.6035  0.0906  0.1095
  156MOL0     C20501  -0.632   1.879   6.310  0.0613 -0.0539  0.3648
  156MOL0     C20502  -0.645   1.780   6.426 -0.6190 -0.4010 -0.7824
  156MOL0     C20503  -0.712   1.658   6.395 -0.9577  0.2128 -0.1936
  156MOL0    Cl20504  -0.731   1.561   6.544 -0.1069 -0.2683  0.2878
  156MOL0     C20505   0.048   2.394   6.202 -0.0354  0.0260 -0.6609
  156MOL0     C20506   0.118   2.430   6.085 -0.5322  0.8593  0.4874
  156MOL0     O20507   0.121   2.310   5.762  0.3762  0.3957 -0.5574
  156MOL0     C20508   0.262   2.410   5.525  1.2085  0.7272 -0.4059
  156MOL0     C20509   0.324   2.460   5.410  0.3652  0.3788 -0.0822
  156MOL0     N20510   0.755   3.052   5.093 -0.7744  0.3587 -0.3668
  156MOL0     N20511   0.877   3.055   5.141  0.2721  0.0997 -0.5492
  156MOL0     C20512   1.331   3.899   5.975  0.1760 -0.0767  0.5568
  156MOL0     C20513   1.442   3.913   6.059  0.0712 -0.3224  0.0714
  156MOL0     C20514   1.805   3.898   6.307 -0.6830  0.3346  0.1116
  156MOL0     C20515   1.842   3.765   6.355 -0.1466 -0.3112 -0.1684
  156MOL0     C20516   1.948   3.750   6.449  0.3544 -0.1185 -1.0819
  156MOL0     C20517   2.007   3.873   6.509  0.0100 -0.8163 -0.2028
  156MOL0     O20518   2.105   3.872   6.608  0.6851  0.5025  0.1974
  156MOL0     C20519   2.202   3.767   6.601  0.7658  0.2025  0.0401
  156MOL0     C20520   2.322   3.807   6.688  0.3555  0.9524 -0.8191
  156MOL0     C20521   2.282   3.826   6.842 -0.2725  0.3986  0.4300
  156MOL0     C20522   2.402   3.834   6.933  0.2074 -0.6441 -1.3473
  156MOL0     C20523   2.365   3.877   7.070  0.1654 -0.3284 -0.2887
  156MOL0     C20524   2.333   3.909   7.181 -0.3270  0.6838  0.0410
  156MOL0     C20525   1.960   3.995   6.464 -0.0122 -0.0308  0.0210
  156MOL0     C20526   1.867   4.008   6.367 -0.1367  0.0970  0.4763
  156MOL0     H20527   1.575   3.604   6.032  0.7615  1.1649  0.9323
  156MOL0     H20528   1.383   3.580   5.881 -0.2720  0.8326 -2.0525
  156MOL0     H20529   1.009   3.716   5.893 -0.7837  2.0173 -2.9736
  156MOL0     H20530   1.131   3.599   5.932  0.1821 -3.1345 -2.6098
  156MOL0     H20531   1.194   3.568   5.693 -0.0083 -1.7251  2.7426
  156MOL0     H20532   1.063   3.668   5.647  1.7776 -2.2031 -2.2267
  156MOL0     H20533   0.885   3.485   5.697  0.1687 -0.8907  1.4424
  156MOL0     H20534   1.002   3.422   5.812 -0.5614 -0.6645  0.2791
  156MOL0     H20535   1.041   3.448   5.503 -0.6015  0.1492  0.5941
  156MOL0     H20536   1.154   3.360   5.617  0.0070 -1.8425 -1.4939
  156MOL0     H20537   0.869   3.283   5.612  0.7470 -1.0602 -0.2279
  156MOL0     H20538   1.003   3.195   5.664  0.7920  0.9946  0.1115
  156MOL0     H20539   1.059   3.244   5.398 -0.7459  1.6402 -0.4322
  156MOL0     H20540   0.885   3.234   5.391  0.0639  4.5037  2.8193
  156MOL0     H20541   1.093   3.039   5.526  1.3061 -1.2133 -3.0997
  156MOL0     H20542   0.915   3.006   5.526  0.2341 -1.1806 -0.2797
  156MOL0     H20543   1.030   2.857   5.338 -0.9595 -0.8282 -0.2431
  156MOL0     H20544   1.094   3.011   5.274  0.0424 -1.0982 -1.3766
  156MOL0     H20545   0.730   2.880   5.369 -2.2162 -0.7793 -1.1478
  156MOL0     H20546   0.475   3.030   5.151  0.3282  1.9402  3.5617
  156MOL0     H20547   0.510   2.921   5.281 -1.7985 -1.7507 -0.1925
  156MOL0     H20548   0.607   2.759   5.117 -0.8344  0.4351 -0.1441
  156MOL0     H20549   0.565   2.859   4.985  0.8072 -2.1993 -1.0885
  156MOL0     H20550   0.321   2.815   5.123  0.7100 -0.2053  1.3046
  156MOL0     H20551   0.388   2.729   4.978 -1.1517 -1.0792 -0.4779
  156MOL0     H20552   0.482   2.550   5.154  0.4720 -1.8977  1.4028
  156MOL0     H20553   0.306   2.584   5.192  0.5219 -0.1353 -0.2852
  156MOL0     H20554   0.431   2.755   5.549  0.0937  0.6280 -1.5163
  156MOL0     H20555   0.322   2.653   5.748  0.3488 -1.0684  0.9031
  156MOL0     H20556  -0.134   2.575   5.904 -0.9083  0.6942  0.6100
  156MOL0     H20557  -0.266   2.517   6.106 -0.3577 -0.7548 -0.0725
  156MOL0     H20558  -0.180   2.205   6.449 -2.3216 -1.6256 -1.8184
  156MOL0     H20559  -0.052   2.201   6.327  0.7835  0.4877 -0.2628
  156MOL0     H20560  -0.245   2.035   6.319  1.5552  1.3105  1.9423
  156MOL0     H20561  -0.198   2.132   6.173  1.1325 -1.9576  0.7941
  156MOL0     H20562  -0.395   2.263   6.191 -0.1072  1.5471  1.2621
  156MOL0     H20563  -0.435   2.213   6.353 -0.8665 -3.8364  0.5314
  156MOL0     H20564  -0.589   2.116   6.226 -0.0130  1.0392 -0.7029
  156MOL0     H20565  -0.459   2.026   6.131  0.3164 -1.9277  1.0927
  156MOL0     H20566  -0.481   2.001   6.427  1.4329  0.2997 -0.1738
  156MOL0     H20567  -0.408   1.889   6.314  0.1920  1.4469 -2.3012
  156MOL0     H20568  -0.611   1.823   6.218  3.3393  1.1874  0.2182
  156MOL0     H20569  -0.705   1.960   6.300  3.0639  2.7835 -0.5560
  156MOL0     H20570  -0.547   1.744   6.459 -0.0377  3.1875  2.0651
  156MOL0     H20571  -0.693   1.829   6.512 -1.3895 -0.3399 -1.2443
  156MOL0     H20572  -0.659   1.595   6.322  1.2648 -0.0947  1.5543
  156MOL0     H20573  -0.805   1.682   6.344 -0.0101  0.3620 -1.9559
  156MOL0     H20574   0.106   2.359   6.287 -0.7040 -1.4413 -0.7813
  156MOL0     H20575   0.225   2.413   6.073 -0.8609 -0.4285 -0.8933
  156MOL0     H20576   0.215   2.313   5.521 -0.4161  1.4516  0.2691
  156MOL0     H20577   0.318   2.398   5.320 -0.7798 -0.0351  0.2628
  156MOL0     H20578   1.278   3.985   5.935  1.2131 -0.2703 -1.3253
  156MOL0     H20579   1.455   4.014   6.095 -0.0886 -1.0683  2.3618
  156MOL0     H20580   1.798   3.672   6.321  1.1856 -0.9817 -0.0855
  156MOL0     H20581   1.984   3.650   6.474  2.4736  0.9171  0.3490
  156MOL0     H20582   2.237   3.751   6.498 -0.4484 -0.7047 -0.2582
  156MOL0     H20583   2.161   3.678   6.649 -1.5897  1.0745 -0.2200
  156MOL0     H20584   2.404   3.736   6.676 -0.8573 -0.1416 -3.6719
  156MOL0     H20585   2.357   3.903   6.649 -1.7313  1.7127 -0.9360
  156MOL0     H20586   2.220   3.741   6.874  0.2544 -0.4788 -0.7829
  156MOL0     H20587   2.224   3.917   6.859  1.9184  1.8294  0.6559
  156MOL0     H20588   2.456   3.739   6.931  1.2050 -0.0867 -1.4161
  156MOL0     H20589   2.472   3.909   6.895 -0.0506  0.4533  0.2652
  156MOL0     H20590   2.312   3.935   7.283 -0.8742  1.3742 -0.2354
  156MOL0     H20591   1.985   4.083   6.522 -1.6407  1.1021 -0.9066
  156MOL0     H20592   1.831   4.108   6.348 -0.0031  0.5960  2.5721
  157MOL0     O20593   8.441   4.812   2.874  0.1077 -0.4187 -0.7369
  157MOL0     C20594   8.451   4.685   2.891 -0.1696 -0.1985  0.0990
  157MOL0     O20595   8.342   4.594   2.877  0.1288 -0.6634  0.0768
  157MOL0     C20596   8.239   4.652   2.815  0.4672  0.2466 -0.7237
  157MOL0     C20597   8.231   4.626   2.677  0.3123 -0.1138 -0.2697
  157MOL0     C20598   8.137   4.689   2.594  0.3310  0.4581 -0.3240
  157MOL0     C20599   8.042   4.771   2.646  0.3854  0.6847 -1.0822
  157MOL0     O20600   7.946   4.839   2.580  0.5167  0.4256  1.0137
  157MOL0     C20601   7.902   4.777   2.457  0.5385 -0.7659  0.8948
  157MOL0     C20602   7.753   4.799   2.449 -0.0846  0.0016  0.9688
  157MOL0     C20603   7.683   4.768   2.582  0.3460 -0.1807  0.8591
  157MOL0     C20604   7.529   4.743   2.546  0.1976  0.1576  0.4297
  157MOL0     C20605   7.432   4.741   2.662  0.1285 -0.3501 -0.9644
  157MOL0     C20606   7.285   4.715   2.611 -0.0223  0.0065 -0.0933
  157MOL0     C20607   7.178   4.706   2.727 -0.2084 -0.0785  0.2250
  157MOL0     C20608   7.036   4.664   2.668 -0.1958 -0.1185  0.7810
  157MOL0     N20609   6.977   4.786   2.607 -0.0740 -0.1710  0.3901
  157MOL0     C20610   6.874   4.844   2.676 -0.7509  0.2065 -0.1812
  157MOL0     C20611   6.836   4.948   2.598  0.5852 -0.5764  0.9274
  157MOL0     C20612   6.706   5.021   2.619 -0.0041 -0.3057  0.5702
  157MOL0     C20613   6.576   4.939   2.619  0.2974 -0.0015 -0.3941
  157MOL0     C20614   6.548   4.868   2.490  0.3297  0.0872  0.6888
  157MOL0     C20615   6.510   4.954   2.374 -0.0668  0.3390  0.2269
  157MOL0     O20616   6.407   5.055   2.408 -0.4813 -0.3320 -0.2024
  157MOL0     C20617   6.276   5.017   2.401  0.7466  0.8788 -0.8986
  157MOL0     C20618   6.233   4.892   2.361  0.4615  0.9445 -0.0336
  157MOL0     C20619   6.100   4.860   2.340 -0.6548 -0.5922 -0.0044
  157MOL0     C20620   6.002   4.959   2.361  0.4213 -0.0053  0.2066
  157MOL0     C20621   5.861   4.933   2.322 -0.1152 -0.0778  0.1382
  157MOL0     O20622   5.768   5.023   2.360 -0.2294  0.5104 -0.8798
  157MOL0     C20623   5.642   5.016   2.312 -0.3279  0.5456  1.1355
  157MOL0     C20624   5.558   4.902   2.325  0.1410 -0.6323 -0.4439
  157MOL0     C20625   5.434   4.897   2.268 -0.5617  0.1990  0.3417
  157MOL0     C20626   5.387   5.002   2.187  0.0195  0.9635 -0.9808
  157MOL0     O20627   5.258   4.986   2.148 -0.2983  0.9572 -0.5080
  157MOL0     C20628   5.222   5.057   2.031  0.0546  0.2713  0.0001
  157MOL0     C20629   5.079   5.026   2.002 -0.0101 -0.1971 -0.3335
  157MOL0     C20630   4.974   5.050   2.116 -0.5744 -0.6959  0.4021
  157MOL0     C20631   4.836   5.055   2.059 -0.9809 -0.0120  0.8787
  157MOL0     C20632   4.737   5.086   2.169  0.3092  0.8010  0.4948
  157MOL0     C20633   4.596   5.129   2.127  0.3994  0.2527 -0.0829
  157MOL0     C20634   4.543   5.044   2.013 -0.2500 -0.3915 -0.2667
  157MOL0     C20635   4.390   5.044   2.002  0.9255 -0.6327 -0.2322
  157MOL0    Cl20636   4.344   5.214   1.973 -0.3864 -0.1360 -0.4796
  157MOL0     C20637   5.462   5.112   2.176  0.0906 -0.9595  1.1882
  157MOL0     C20638   5.592   5.121   2.231  0.6042 -0.9910  0.1391
  157MOL0     O20639   5.832   4.828   2.257 -0.1479 -0.8353  0.1899
  157MOL0     C20640   6.038   5.091   2.411  0.0538  0.0532 -0.2174
  157MOL0     C20641   6.174   5.111   2.422 -0.0680 -0.2975 -0.1976
  157MOL0     N20642   6.902   4.938   2.479 -0.6010  0.7733 -0.1035
  157MOL0     N20643   6.993   4.845   2.487 -0.0161  0.1899  0.3535
  157MOL0     C20644   8.042   4.780   2.793 -0.6077 -0.2210 -0.8985
  157MOL0     C20645   8.140   4.732   2.876  0.2447  0.0490 -0.5254
  157MOL0     C20646   8.587   4.633   2.930  0.1980 -0.8196  0.0376
  157MOL0     C20647   8.694   4.721   2.932  0.3945  0.4130  0.1867
  157MOL0     C20648   8.825   4.674   2.955 -0.5124  0.3293  0.8663
  157MOL0     C20649   8.844   4.534   2.978 -0.2436 -0.9017  0.1135
  157MOL0     O20650   8.960   4.479   3.009 -1.4953  0.1292 -0.0407
  157MOL0     C20651   9.078   4.555   3.027 -0.7899 -0.3428  0.3000
  157MOL0     C20652   9.196   4.482   3.095  0.1737  0.3582  0.4589
  157MOL0     C20653   9.269   4.383   3.001  0.3769  1.2846  0.2301
  157MOL0     C20654   9.386   4.314   3.081 -0.1938 -0.6630  0.6009
  157MOL0     C20655   9.480   4.413   3.125  0.9400 -0.5704 -0.0015
  157MOL0     C20656   9.569   4.489   3.156  0.4639 -0.4340  0.1470
  157MOL0     C20657   8.733   4.450   2.975 -0.3461 -0.6363  0.0542
  157MOL0     C20658   8.609   4.503   2.941  0.6514 -0.3680 -0.4697
  157MOL0     H20659   8.312   4.564   2.642 -0.0198 -0.1740 -0.9602
  157MOL0     H20660   8.136   4.673   2.486 -1.2990  0.6344 -0.3601
  157MOL0     H20661   7.930   4.671   2.454  1.7154 -0.4459 -0.6306
  157MOL0     H20662   7.948   4.811   2.363  0.6650 -1.4358  0.7054
  157MOL0     H20663   7.716   4.733   2.370  1.3865 -2.6083  2.3061
  157MOL0     H20664   7.730   4.902   2.419 -0.1573  0.0537  1.2063
  157MOL0     H20665   7.696   4.849   2.655  3.6539 -2.0954  2.6592
  157MOL0     H20666   7.726   4.677   2.626 -0.1264 -1.0084 -0.3314
  157MOL0     H20667   7.510   4.823   2.474 -0.1040  0.1639  0.5143
  157MOL0     H20668   7.522   4.647   2.492 -2.3331  1.2901 -1.4962
  157MOL0     H20669   7.434   4.832   2.723  3.2774 -2.5244  2.5739
  157MOL0     H20670   7.457   4.656   2.727  0.1670  0.6547  0.3814
  157MOL0     H20671   7.271   4.623   2.555 -0.9789 -1.1522  1.9272
  157MOL0     H20672   7.265   4.800   2.545  1.5023 -0.2139 -0.9012
  157MOL0     H20673   7.202   4.623   2.794  0.3748 -0.5522 -0.5567
  157MOL0     H20674   7.173   4.797   2.787  3.5342 -0.1958  0.9148
  157MOL0     H20675   6.966   4.633   2.746 -2.4846  0.3233 -0.9866
  157MOL0     H20676   7.058   4.591   2.590  1.3574  1.8764 -0.7604
  157MOL0     H20677   6.829   4.819   2.771 -1.2748 -0.4355 -0.5859
  157MOL0     H20678   6.701   5.105   2.549 -1.4601 -0.2395  0.7199
  157MOL0     H20679   6.711   5.069   2.717  3.1653 -1.2164  0.9736
  157MOL0     H20680   6.493   5.002   2.651  1.0742  0.8781 -0.0836
  157MOL0     H20681   6.571   4.865   2.700 -3.4720  1.6922  1.1318
  157MOL0     H20682   6.628   4.797   2.465  0.2842  0.2256  0.1382
  157MOL0     H20683   6.455   4.810   2.495 -0.8013  1.4681 -2.3116
  157MOL0     H20684   6.484   4.899   2.283 -1.0460 -1.0718  1.3144
  157MOL0     H20685   6.607   4.996   2.347  0.5495 -0.6104  0.9179
  157MOL0     H20686   6.299   4.807   2.348 -1.9426 -0.9797 -0.3076
  157MOL0     H20687   6.078   4.763   2.295  0.9180 -0.9041 -0.1384
  157MOL0     H20688   5.598   4.823   2.388  0.9774  1.3198  1.6736
  157MOL0     H20689   5.371   4.812   2.293 -2.6121  1.4839 -0.2097
  157MOL0     H20690   5.289   5.053   1.945  0.0452  3.1229 -0.2526
  157MOL0     H20691   5.207   5.164   2.052  0.4535  0.7716 -2.0184
  157MOL0     H20692   5.073   4.920   1.976  0.0122 -0.3922  0.4415
  157MOL0     H20693   5.057   5.086   1.913  2.1374  0.4197 -0.4955
  157MOL0     H20694   4.984   5.147   2.165  0.8852 -0.1206 -0.9284
  157MOL0     H20695   4.979   4.968   2.189  1.7567  0.9341  2.2072
  157MOL0     H20696   4.825   5.130   1.981 -2.4900  0.0257  1.0854
  157MOL0     H20697   4.822   4.953   2.022  0.7048 -1.2330  3.3057
  157MOL0     H20698   4.771   5.161   2.241 -1.1189  1.6764  0.3085
  157MOL0     H20699   4.735   4.991   2.222 -0.1618  1.1429  1.1003
  157MOL0     H20700   4.604   5.235   2.099  3.4450  0.0377 -0.2776
  157MOL0     H20701   4.537   5.122   2.219  0.5214 -1.2481 -0.0986
  157MOL0     H20702   4.587   5.075   1.918  2.3771 -0.5616  0.7934
  157MOL0     H20703   4.573   4.941   2.033  0.0899  0.0161  1.4655
  157MOL0     H20704   4.339   5.013   2.093  1.7180 -0.1214  0.3979
  157MOL0     H20705   4.367   4.976   1.919 -0.2130 -2.4862  1.5136
  157MOL0     H20706   5.433   5.196   2.114 -2.5653 -0.6682  2.7268
  157MOL0     H20707   5.651   5.210   2.210  1.6343 -1.2700  1.6279
  157MOL0     H20708   5.970   5.176   2.411  0.0905  0.0858  0.3926
  157MOL0     H20709   6.205   5.206   2.464  0.6498 -0.9949  0.8989
  157MOL0     H20710   7.970   4.844   2.843  0.7786  0.0593  0.8645
  157MOL0     H20711   8.160   4.763   2.978 -3.1642 -2.3545  1.0822
  157MOL0     H20712   8.671   4.821   2.898 -2.9112 -0.4444 -0.4541
  157MOL0     H20713   8.907   4.744   2.942 -0.9818  0.4194 -3.0165
  157MOL0     H20714   9.056   4.634   3.099 -0.7460 -1.3289  1.4190
  157MOL0     H20715   9.118   4.605   2.938 -0.4398  1.0516  1.1978
  157MOL0     H20716   9.265   4.560   3.125  1.1832  0.5150 -1.9864
  157MOL0     H20717   9.158   4.435   3.186  1.0154 -0.5653  0.3474
  157MOL0     H20718   9.308   4.437   2.914 -0.5147  2.1772  0.3610
  157MOL0     H20719   9.201   4.306   2.962  1.3646  0.2024  0.6186
  157MOL0     H20720   9.354   4.248   3.162  2.0754  0.3828  2.4809
  157MOL0     H20721   9.447   4.257   3.010  0.9674  1.0310  0.1880
  157MOL0     H20722   9.656   4.547   3.179  2.6099 -3.2398 -0.3392
  157MOL0     H20723   8.756   4.344   2.986  1.8587 -0.3355 -1.2168
  157MOL0     H20724   8.526   4.434   2.937  0.4179 -0.1594  0.4428
  158MOL0     O20725   3.028   6.069   8.572  0.0836 -0.5197  0.0554
  158MOL0     C20726   3.079   6.042   8.463 -0.3457  0.2634 -0.2653
  158MOL0     O20727   3.021   6.050   8.341 -0.1689  0.4037 -0.6877
  158MOL0     C20728   2.884   6.055   8.342  0.3172  0.3193 -0.5442
  158MOL0     C20729   2.807   5.944   8.385 -0.3908 -0.5531 -0.9050
  158MOL0     C20730   2.668   5.957   8.392  0.0447  0.3165 -0.5110
  158MOL0     C20731   2.593   6.071   8.360 -0.9939 -0.4833 -0.8183
  158MOL0     O20732   2.458   6.080   8.369 -0.2036  1.0302  0.4307
  158MOL0     C20733   2.378   5.968   8.421  0.5394  0.0108 -0.8221
  158MOL0     C20734   2.234   6.010   8.451 -0.0720 -0.3340 -0.1310
  158MOL0     C20735   2.158   5.904   8.546 -1.2466 -0.6578 -0.0781
  158MOL0     C20736   2.026   5.960   8.598 -0.3138  0.0427  0.0788
  158MOL0     C20737   1.942   5.871   8.677 -0.2674 -0.0919  0.3113
  158MOL0     C20738   1.811   5.941   8.705  1.7132  0.9303  0.1510
  158MOL0     C20739   1.711   5.837   8.772  0.4683 -0.7996 -0.5780
  158MOL0     C20740   1.580   5.908   8.804  0.8194 -1.2039 -1.0883
  158MOL0     N20741   1.479   5.809   8.838  0.0993  0.3918 -0.3529
  158MOL0     C20742   1.371   5.771   8.761 -0.0534 -0.4934 -0.0512
  158MOL0     C20743   1.312   5.670   8.836 -1.0878 -0.0647 -0.3593
  158MOL0     C20744   1.191   5.594   8.808 -0.1378 -1.1398 -0.4599
  158MOL0     C20745   1.077   5.660   8.893 -0.2637 -0.7893  0.2482
  158MOL0     C20746   0.948   5.576   8.877 -0.3385 -0.6439  0.3628
  158MOL0     C20747   0.831   5.627   8.957  0.3654  0.6116  0.7247
  158MOL0     O20748   0.703   5.560   8.932  0.0555  0.4032  0.3719
  158MOL0     C20749   0.590   5.591   9.013  0.9029 -0.1652 -0.7016
  158MOL0     C20750   0.479   5.515   8.972  0.1309  0.1872 -0.0996
  158MOL0     C20751   0.351   5.558   9.007  0.3340  0.5758 -0.3696
  158MOL0     C20752   0.331   5.658   9.107  0.4069  0.4467 -0.0417
  158MOL0     C20753   0.196   5.695   9.142 -1.0937  0.3537  0.4486
  158MOL0     O20754   0.105   5.692   9.047 -0.5057  0.2783 -0.2165
  158MOL0     C20755  -0.026   5.698   9.082  0.2097 -0.3523  0.4293
  158MOL0     C20756  -0.079   5.608   9.174 -0.9606 -0.1773  0.4544
  158MOL0     C20757  -0.215   5.597   9.200  0.2623  0.4277 -1.4030
  158MOL0     C20758  -0.307   5.669   9.122  1.5009 -0.0952 -0.5214
  158MOL0     O20759  -0.443   5.652   9.141  0.0117 -0.2024 -0.0166
  158MOL0     C20760  -0.536   5.752   9.084  0.5008  0.3847 -0.5869
  158MOL0     C20761  -0.686   5.739   9.122  0.5922 -1.3080 -0.3437
  158MOL0     C20762  -0.756   5.617   9.065  0.2426 -0.1332  0.6387
  158MOL0     C20763  -0.903   5.616   9.100 -0.1539  0.3084 -0.2601
  158MOL0     C20764  -0.963   5.482   9.079  0.4018 -1.0030 -0.2967
  158MOL0     C20765  -1.080   5.472   9.191  0.4140 -0.3766 -0.3006
  158MOL0     C20766  -1.193   5.579   9.174 -0.4311  0.0224  0.4032
  158MOL0     C20767  -1.328   5.531   9.242  0.8704  0.3183 -0.5649
  158MOL0    Cl20768  -1.408   5.404   9.147 -0.1789  0.1331 -0.0967
  158MOL0     C20769  -0.256   5.766   9.031 -0.5179 -0.7947  0.3933
  158MOL0     C20770  -0.115   5.772   8.993 -0.5170 -0.4507 -0.5178
  158MOL0     O20771   0.180   5.729   9.260 -0.4900  0.0929  0.2137
  158MOL0     C20772   0.441   5.722   9.158 -0.0759 -0.0916  0.5556
  158MOL0     C20773   0.575   5.692   9.111 -0.5350  0.4678 -0.6808
  158MOL0     N20774   1.376   5.679   8.960  0.2911  0.7562 -0.2167
  158MOL0     N20775   1.467   5.770   8.964  0.1450 -0.4572  0.4949
  158MOL0     C20776   2.670   6.182   8.328 -0.6116 -0.0624  0.8227
  158MOL0     C20777   2.814   6.176   8.311  0.2198 -0.4050 -0.0127
  158MOL0     C20778   3.212   5.990   8.476  0.7817  0.7959  0.1993
  158MOL0     C20779   3.286   6.005   8.595 -0.1362  0.5023  0.5981
  158MOL0     C20780   3.419   5.952   8.607 -0.1073 -0.3802  0.2526
  158MOL0     C20781   3.478   5.890   8.498  0.3377  0.2556  0.6769
  158MOL0     O20782   3.606   5.838   8.491 -0.3341 -0.4333  0.3236
  158MOL0     C20783   3.703   5.862   8.593  0.1544 -0.2468 -0.9401
  158MOL0     C20784   3.749   6.007   8.564  0.3137 -0.2646 -0.4077
  158MOL0     C20785   3.865   6.049   8.658 -0.3480 -0.9874  0.2631
  158MOL0     C20786   3.916   6.186   8.607 -0.3032  0.5496  0.2169
  158MOL0     C20787   4.055   6.203   8.660 -0.5071  0.0454 -0.3576
  158MOL0     C20788   4.166   6.214   8.705  0.1126 -0.3697  1.0218
  158MOL0     C20789   3.395   5.863   8.387  0.8034 -0.8101  0.6201
  158MOL0     C20790   3.261   5.909   8.372 -0.1283 -0.7757 -0.3240
  158MOL0     H20791   2.843   5.849   8.423  0.8994  0.4068  0.3910
  158MOL0     H20792   2.605   5.872   8.417 -0.1881  1.3544  2.9485
  158MOL0     H20793   2.414   5.933   8.519  1.5494  2.0902 -0.3891
  158MOL0     H20794   2.371   5.890   8.345  2.0581 -1.1660  0.1840
  158MOL0     H20795   2.176   6.011   8.359 -1.5641 -2.5661  0.6960
  158MOL0     H20796   2.226   6.112   8.491 -0.3261 -0.8297  1.1532
  158MOL0     H20797   2.213   5.893   8.640 -3.1540 -2.6759  0.8701
  158MOL0     H20798   2.153   5.802   8.507 -1.2499 -0.9148  0.5757
  158MOL0     H20799   2.051   6.049   8.657  2.3125 -1.7620  1.9031
  158MOL0     H20800   1.962   5.984   8.512  1.4955  0.2865 -1.2546
  158MOL0     H20801   1.994   5.855   8.773  0.3896 -0.0045 -0.0268
  158MOL0     H20802   1.928   5.777   8.623  2.1292 -0.9639  1.0644
  158MOL0     H20803   1.768   5.976   8.611  2.2644 -0.6369 -0.7221
  158MOL0     H20804   1.822   6.024   8.776  3.5534  0.4335  0.5125
  158MOL0     H20805   1.683   5.754   8.706 -1.7776 -0.9152  0.4184
  158MOL0     H20806   1.750   5.792   8.864 -2.2047  1.5944  1.9337
  158MOL0     H20807   1.553   5.962   8.712 -0.3291 -0.7464 -0.5068
  158MOL0     H20808   1.579   5.983   8.884  1.3140 -3.9289  1.6306
  158MOL0     H20809   1.327   5.805   8.668  3.9446  1.2331 -1.5411
  158MOL0     H20810   1.209   5.490   8.838 -2.2684 -1.6118 -0.6134
  158MOL0     H20811   1.174   5.602   8.700 -0.7698  1.3796 -0.2414
  158MOL0     H20812   1.063   5.759   8.848  2.1593 -0.8346 -0.7329
  158MOL0     H20813   1.107   5.676   8.997 -0.6768  1.1593  0.1100
  158MOL0     H20814   0.918   5.577   8.771 -1.5008 -0.4811  0.6802
  158MOL0     H20815   0.965   5.474   8.913  1.2611 -0.1137  1.2261
  158MOL0     H20816   0.807   5.729   8.926  0.9252 -0.0059 -1.9499
  158MOL0     H20817   0.858   5.613   9.062 -3.7650 -0.2761  1.8344
  158MOL0     H20818   0.484   5.439   8.895 -0.1571  1.7704 -1.7538
  158MOL0     H20819   0.266   5.507   8.963 -0.0413 -1.3583  2.3331
  158MOL0     H20820  -0.014   5.543   9.231 -3.5651 -0.9645  2.7364
  158MOL0     H20821  -0.247   5.523   9.272 -0.1476  1.7926 -0.1233
  158MOL0     H20822  -0.529   5.741   8.975  0.4121 -1.6226 -0.4251
  158MOL0     H20823  -0.517   5.857   9.107 -0.0571  0.6374 -1.2063
  158MOL0     H20824  -0.735   5.830   9.085  3.9811 -0.5465 -3.4673
  158MOL0     H20825  -0.706   5.744   9.230 -2.4343  0.4335 -0.8638
  158MOL0     H20826  -0.707   5.531   9.111  4.4975  0.2196 -2.6123
  158MOL0     H20827  -0.741   5.620   8.957 -1.5775 -2.0905  0.2530
  158MOL0     H20828  -0.901   5.633   9.208  2.4388 -0.9390 -0.0384
  158MOL0     H20829  -0.964   5.699   9.064  0.7925  1.4782  0.7076
  158MOL0     H20830  -0.891   5.402   9.101 -2.0176 -2.7595  1.6860
  158MOL0     H20831  -1.014   5.463   8.985 -0.9353 -2.5131  0.6918
  158MOL0     H20832  -1.030   5.490   9.286  1.9702 -1.9728 -0.7679
  158MOL0     H20833  -1.109   5.367   9.193 -0.0938 -0.2476 -0.7629
  158MOL0     H20834  -1.150   5.672   9.212  3.9384 -0.7657 -1.8807
  158MOL0     H20835  -1.210   5.588   9.066 -1.9861 -1.5820  0.4855
  158MOL0     H20836  -1.388   5.620   9.261 -1.4375 -1.1283 -0.6534
  158MOL0     H20837  -1.306   5.489   9.341  0.6073  1.5939  0.0576
  158MOL0     H20838  -0.326   5.826   8.974 -0.5595 -1.0994  0.1257
  158MOL0     H20839  -0.080   5.826   8.906 -0.8157 -2.1185 -1.7340
  158MOL0     H20840   0.417   5.800   9.230 -1.8251  0.4026 -0.4733
  158MOL0     H20841   0.657   5.750   9.152 -0.0815 -0.4797 -0.2170
  158MOL0     H20842   2.612   6.271   8.309 -0.8847 -0.3090  0.4986
  158MOL0     H20843   2.875   6.259   8.278  2.1141 -0.8740  2.0462
  158MOL0     H20844   3.239   6.056   8.678  2.4444  3.4119  0.4093
  158MOL0     H20845   3.479   5.975   8.695 -1.9785  7.6935  0.2028
  158MOL0     H20846   3.782   5.790   8.573  1.8331  1.5680 -1.1484
  158MOL0     H20847   3.665   5.856   8.696  2.4165  1.5374  0.0966
  158MOL0     H20848   3.786   6.007   8.461  0.6265  1.0319 -0.3175
  158MOL0     H20849   3.676   6.088   8.565 -0.6717 -1.0529 -2.6118
  158MOL0     H20850   3.954   5.986   8.645 -1.0093 -1.7392 -0.8223
  158MOL0     H20851   3.834   6.047   8.763  1.4084  0.5825  0.8753
  158MOL0     H20852   3.927   6.195   8.499  1.9157  0.8983  0.4255
  158MOL0     H20853   3.859   6.267   8.653  0.6370  1.5486 -0.3446
  158MOL0     H20854   4.269   6.201   8.731  1.7280 -1.5237 -4.6555
  158MOL0     H20855   3.445   5.807   8.309  2.9823 -0.3974  1.6380
  158MOL0     H20856   3.202   5.879   8.286  2.5157 -2.4245 -1.7101
  159MOL0     O20857  10.092   3.814   2.089 -0.6475 -1.6616  0.0394
  159MOL0     C20858  10.164   3.822   2.186 -0.3022 -0.2548  0.5928
  159MOL0     O20859  10.138   3.881   2.307  0.2861  0.2311  0.1076
  159MOL0     C20860  10.011   3.930   2.319 -0.2962 -0.3006  0.0467
  159MOL0     C20861   9.988   4.064   2.280 -0.3507  0.2370  0.1599
  159MOL0     C20862   9.871   4.127   2.316  0.3155 -0.0931 -0.4442
  159MOL0     C20863   9.769   4.058   2.395 -0.5799 -0.1930  0.2059
  159MOL0     O20864   9.674   4.139   2.436  0.1282 -0.5612  0.1109
  159MOL0     C20865   9.598   4.118   2.554  0.2521  0.0938 -0.5884
  159MOL0     C20866   9.542   4.249   2.595 -0.1712  0.6790 -0.1679
  159MOL0     C20867   9.419   4.296   2.515  0.1431  0.2878 -0.5038
  159MOL0     C20868   9.398   4.454   2.531  0.3707 -0.4673 -0.1991
  159MOL0     C20869   9.272   4.507   2.466  0.6161 -0.6380  0.3492
  159MOL0     C20870   9.135   4.462   2.528 -0.6293  0.3682 -0.7043
  159MOL0     C20871   9.017   4.557   2.480  0.4958 -0.2249  0.2533
  159MOL0     C20872   8.899   4.553   2.580 -0.7055 -0.2441  0.3502
  159MOL0     N20873   8.785   4.634   2.534 -0.2513  0.2524 -0.2101
  159MOL0     C20874   8.791   4.760   2.493 -0.7716  0.4646  0.3495
  159MOL0     C20875   8.676   4.778   2.432 -0.7121 -1.2979  0.1937
  159MOL0     C20876   8.635   4.902   2.353  0.9011  0.3958 -0.3068
  159MOL0     C20877   8.490   4.933   2.377 -0.7975 -1.0133 -0.4301
  159MOL0     C20878   8.471   4.943   2.528  0.1723 -0.3940  0.3823
  159MOL0     C20879   8.329   4.995   2.559 -0.1507 -0.4092 -0.2591
  159MOL0     O20880   8.323   5.142   2.561  0.1156 -0.1220 -0.1116
  159MOL0     C20881   8.197   5.185   2.535  0.2042 -0.5964 -0.0625
  159MOL0     C20882   8.089   5.133   2.614 -0.8237  0.0550  0.3302
  159MOL0     C20883   7.962   5.169   2.585  1.2853  0.9920 -0.4728
  159MOL0     C20884   7.930   5.255   2.482  0.2545  0.7370 -0.2722
  159MOL0     C20885   7.790   5.278   2.444  0.6170 -0.0198 -0.6131
  159MOL0     O20886   7.689   5.213   2.512  0.4841 -0.2366  0.2171
  159MOL0     C20887   7.564   5.241   2.467  0.4597  0.5816  0.1918
  159MOL0     C20888   7.495   5.345   2.534  0.1627 -0.7322 -0.6555
  159MOL0     C20889   7.367   5.371   2.492  0.0840 -0.4128 -0.6935
  159MOL0     C20890   7.306   5.291   2.396 -0.2317 -0.6467  0.2122
  159MOL0     O20891   7.187   5.340   2.356  0.4157  0.5782 -0.6078
  159MOL0     C20892   7.081   5.245   2.348 -0.7781 -0.6870  0.6096
  159MOL0     C20893   6.955   5.332   2.311 -0.1456  1.2849 -1.4634
  159MOL0     C20894   6.838   5.257   2.239 -0.4033  1.2439 -0.7789
  159MOL0     C20895   6.723   5.350   2.205  0.2822 -0.6233  0.3999
  159MOL0     C20896   6.603   5.276   2.150  0.2034 -0.6345 -0.4739
  159MOL0     C20897   6.473   5.343   2.180  0.3949 -0.2277  0.0689
  159MOL0     C20898   6.363   5.261   2.113 -0.7267 -0.0441 -0.2860
  159MOL0     C20899   6.223   5.330   2.137 -0.7022 -0.1321 -0.0915
  159MOL0    Cl20900   6.096   5.230   2.053 -0.3806  0.1281 -0.3488
  159MOL0     C20901   7.384   5.187   2.341  0.1217 -0.5819 -0.3138
  159MOL0     C20902   7.507   5.159   2.374 -0.2420 -0.4187  0.1107
  159MOL0     O20903   7.766   5.349   2.350  0.0587  0.1317  0.0924
  159MOL0     C20904   8.036   5.322   2.423 -0.5498  0.1418  0.5051
  159MOL0     C20905   8.174   5.283   2.437  0.0930 -0.3617 -0.1257
  159MOL0     N20906   8.604   4.662   2.432  0.3356 -0.5962  0.5201
  159MOL0     N20907   8.672   4.571   2.484  0.2889  0.0663  0.4313
  159MOL0     C20908   9.794   3.927   2.443  0.3224  0.2896  0.0651
  159MOL0     C20909   9.913   3.861   2.394 -0.3359 -0.1321 -0.1227
  159MOL0     C20910  10.301   3.762   2.177 -0.5874  0.4670 -0.0933
  159MOL0     C20911  10.358   3.698   2.065  0.5510  0.3323 -0.3973
  159MOL0     C20912  10.494   3.642   2.073  1.5218 -0.0543  0.4144
  159MOL0     C20913  10.566   3.629   2.191  0.3778  0.2949 -0.5852
  159MOL0     O20914  10.691   3.573   2.182  0.1305  0.0563  0.7088
  159MOL0     C20915  10.766   3.559   2.302  0.0416  0.6184  0.9035
  159MOL0     C20916  10.909   3.512   2.262  0.1075 -0.0983  0.0502
  159MOL0     C20917  11.011   3.498   2.375 -0.5621 -0.5031 -0.3801
  159MOL0     C20918  11.146   3.446   2.318 -0.1301  0.2718 -0.3850
  159MOL0     C20919  11.215   3.544   2.230 -0.6033 -0.0404  0.2668
  159MOL0     C20920  11.292   3.622   2.166 -0.2000  1.0157 -0.1552
  159MOL0     C20921  10.497   3.673   2.308 -0.2551 -0.5319  0.2029
  159MOL0     C20922  10.378   3.752   2.298  0.1254  0.0421  0.3994
  159MOL0     H20923  10.076   4.111   2.236 -0.1390 -1.0022 -0.8131
  159MOL0     H20924   9.854   4.229   2.284 -1.0075 -0.5580 -1.3169
  159MOL0     H20925   9.667   4.088   2.633 -1.1711  0.7089  0.9367
  159MOL0     H20926   9.520   4.042   2.551 -1.2934  1.5959 -0.1081
  159MOL0     H20927   9.614   4.331   2.590 -2.2664  2.6164 -0.1735
  159MOL0     H20928   9.511   4.240   2.699  0.5796 -1.0743 -0.0474
  159MOL0     H20929   9.331   4.236   2.542  0.8097 -0.0750  0.9324
  159MOL0     H20930   9.446   4.282   2.410 -0.1718 -4.4155 -0.1623
  159MOL0     H20931   9.399   4.483   2.637 -4.4442  0.8565 -0.2793
  159MOL0     H20932   9.481   4.514   2.493  0.0337 -0.0514 -0.2824
  159MOL0     H20933   9.275   4.489   2.358 -1.1078 -3.5286  0.6865
  159MOL0     H20934   9.268   4.615   2.482 -5.1958 -0.5542  0.4979
  159MOL0     H20935   9.133   4.461   2.638  0.8016  0.2775 -0.6632
  159MOL0     H20936   9.122   4.358   2.497  2.0845 -0.1695 -0.3340
  159MOL0     H20937   9.047   4.661   2.460 -2.7420  0.7381 -0.1295
  159MOL0     H20938   8.980   4.519   2.385  3.1532  0.7873 -1.3193
  159MOL0     H20939   8.922   4.587   2.681 -1.0129 -0.2830  0.4345
  159MOL0     H20940   8.866   4.451   2.603 -1.9088  0.1457  0.4012
  159MOL0     H20941   8.868   4.835   2.483 -2.2118  1.9464 -0.0329
  159MOL0     H20942   8.657   4.895   2.246  0.9656 -2.3908 -0.1875
  159MOL0     H20943   8.692   4.992   2.380  0.2233  0.8327 -0.3084
  159MOL0     H20944   8.428   4.854   2.333  0.2661 -1.6819 -0.7935
  159MOL0     H20945   8.459   5.025   2.328 -2.7520 -2.8635 -2.9315
  159MOL0     H20946   8.482   4.843   2.572 -0.0597 -1.2893 -1.5198
  159MOL0     H20947   8.544   5.008   2.578 -0.0045  2.2317 -2.4490
  159MOL0     H20948   8.301   4.945   2.652  0.1101 -0.3498 -0.1460
  159MOL0     H20949   8.265   4.947   2.484  1.0896 -2.7704  0.1023
  159MOL0     H20950   8.113   5.071   2.699 -0.2863 -0.8812 -0.4830
  159MOL0     H20951   7.883   5.132   2.649  1.2947  1.7749  0.0075
  159MOL0     H20952   7.544   5.389   2.620  0.9052  0.0304 -1.4606
  159MOL0     H20953   7.305   5.448   2.535 -0.7922  0.1265 -2.7852
  159MOL0     H20954   7.071   5.175   2.433  0.3906 -1.4121  0.1749
  159MOL0     H20955   7.107   5.170   2.272 -1.0707  0.5714 -0.7622
  159MOL0     H20956   6.988   5.412   2.243  0.0231  0.9413 -1.7894
  159MOL0     H20957   6.910   5.364   2.406 -0.6033  1.1273 -1.6240
  159MOL0     H20958   6.799   5.174   2.299 -0.1265  0.5713 -1.5225
  159MOL0     H20959   6.886   5.204   2.156 -0.0495  3.2573 -1.9082
  159MOL0     H20960   6.695   5.398   2.300  0.5938 -0.9021  0.6334
  159MOL0     H20961   6.758   5.424   2.132  0.5807  0.4398  1.5738
  159MOL0     H20962   6.608   5.183   2.207  0.7467 -0.9442 -1.0157
  159MOL0     H20963   6.620   5.273   2.042 -0.5246  0.5782 -0.6364
  159MOL0     H20964   6.464   5.447   2.147  1.4161 -0.0290  0.3744
  159MOL0     H20965   6.459   5.343   2.289 -0.9223 -2.5191 -0.0348
  159MOL0     H20966   6.393   5.270   2.008  0.0783  1.7513  0.0618
  159MOL0     H20967   6.362   5.159   2.155 -0.3350 -0.4633 -1.2568
  159MOL0     H20968   6.234   5.433   2.101  3.3422 -1.0589 -2.1380
  159MOL0     H20969   6.200   5.336   2.244  0.6451 -0.6183  0.2541
  159MOL0     H20970   7.339   5.113   2.275 -0.3528  0.7890 -1.5797
  159MOL0     H20971   7.570   5.079   2.335 -1.4021 -1.0875 -0.4215
  159MOL0     H20972   8.004   5.412   2.372 -0.7558  0.0321  0.4394
  159MOL0     H20973   8.257   5.327   2.382 -0.3314 -0.9445 -1.2674
  159MOL0     H20974   9.721   3.872   2.503  2.3314 -2.3941  0.2026
  159MOL0     H20975   9.921   3.753   2.409 -1.3372 -0.5544 -2.2550
  159MOL0     H20976  10.295   3.701   1.976  0.2942  0.7487 -0.2052
  159MOL0     H20977  10.526   3.600   1.978  3.9165  0.0840  1.1132
  159MOL0     H20978  10.722   3.484   2.369  0.7273 -1.9340 -1.3115
  159MOL0     H20979  10.768   3.658   2.348  2.6413  0.4030  1.3946
  159MOL0     H20980  10.900   3.418   2.205 -2.0579 -0.1910  0.4540
  159MOL0     H20981  10.944   3.594   2.198  0.5822  0.0722  0.5206
  159MOL0     H20982  10.970   3.428   2.448 -1.9354  2.6032  2.0913
  159MOL0     H20983  11.023   3.593   2.427 -1.6250 -0.6554  0.1759
  159MOL0     H20984  11.205   3.414   2.404  0.5439  0.5162 -0.7561
  159MOL0     H20985  11.121   3.354   2.263 -1.6610 -2.3972  4.2069
  159MOL0     H20986  11.339   3.693   2.101  1.3012 -0.7518 -1.1036
  159MOL0     H20987  10.539   3.655   2.407 -0.9847 -0.7618  0.4747
  159MOL0     H20988  10.336   3.778   2.395  3.0147  1.5130  1.3755
  160MOL0     O20989   8.927   5.000   2.690 -0.5635  1.0309 -0.4143
  160MOL0     C20990   9.005   5.046   2.772 -0.2142  0.4535 -0.1516
  160MOL0     O20991   8.983   5.161   2.841 -0.1041  0.0890  0.6381
  160MOL0     C20992   8.880   5.248   2.817 -0.0537  0.3570 -0.2935
  160MOL0     C20993   8.786   5.247   2.712 -0.1667  0.5351 -0.1817
  160MOL0     C20994   8.697   5.350   2.684 -0.0823 -0.5479  0.2104
  160MOL0     C20995   8.687   5.455   2.778 -1.0177  0.0843  1.1634
  160MOL0     O20996   8.598   5.559   2.767  0.2207 -0.4557  0.0839
  160MOL0     C20997   8.478   5.523   2.698  1.2323  0.3020  0.3370
  160MOL0     C20998   8.372   5.626   2.743 -0.9006  0.3794 -0.0550
  160MOL0     C20999   8.246   5.590   2.662  0.2464 -0.7094  0.1679
  160MOL0     C21000   8.140   5.700   2.692 -0.4313  0.1237 -0.0476
  160MOL0     C21001   8.025   5.686   2.609 -0.3650  0.6745 -0.2224
  160MOL0     C21002   7.953   5.823   2.581  0.2989  0.4933 -0.1834
  160MOL0     C21003   7.803   5.809   2.584  0.1209 -0.4213 -0.3654
  160MOL0     C21004   7.747   5.688   2.503 -0.1581  0.9951  0.3196
  160MOL0     N21005   7.601   5.695   2.480 -0.5197  0.9289 -0.0833
  160MOL0     C21006   7.532   5.646   2.370 -0.3331  0.7603 -0.8661
  160MOL0     C21007   7.401   5.680   2.395 -0.2496  0.6360  0.3181
  160MOL0     C21008   7.295   5.690   2.293  0.3021  0.1107  0.3686
  160MOL0     C21009   7.146   5.683   2.354 -0.1433 -0.1801  0.7300
  160MOL0     C21010   7.041   5.687   2.250  0.4473  0.1037 -0.1393
  160MOL0     C21011   7.016   5.829   2.198  0.1220 -0.1588 -0.7398
  160MOL0     O21012   6.909   5.889   2.270  0.5902  0.1500  0.0266
  160MOL0     C21013   6.786   5.856   2.233  0.8201 -0.6025  0.4599
  160MOL0     C21014   6.722   5.751   2.164 -0.9539  0.1530 -0.5114
  160MOL0     C21015   6.596   5.748   2.136  1.0195  0.5559 -0.0637
  160MOL0     C21016   6.503   5.843   2.190 -0.4086  0.2605 -1.4664
  160MOL0     C21017   6.359   5.829   2.172 -0.2337 -1.0838 -0.2902
  160MOL0     O21018   6.284   5.939   2.207  0.2847 -0.5524  0.1275
  160MOL0     C21019   6.150   5.940   2.193  0.7597  0.4828  0.7462
  160MOL0     C21020   6.087   5.935   2.067 -0.1525 -0.3951 -0.1240
  160MOL0     C21021   5.946   5.939   2.053  0.1911 -0.2564  0.3241
  160MOL0     C21022   5.865   5.960   2.164 -0.2094  0.1282 -0.3737
  160MOL0     O21023   5.724   5.972   2.142 -0.1886 -0.4895 -0.0594
  160MOL0     C21024   5.636   5.918   2.243 -0.4900  0.0318 -1.1232
  160MOL0     C21025   5.512   5.921   2.162 -0.5756  0.5301  0.9041
  160MOL0     C21026   5.387   5.931   2.238  0.5642  0.7452  0.4533
  160MOL0     C21027   5.259   5.956   2.151  0.5957 -0.3170  0.9803
  160MOL0     C21028   5.126   5.949   2.222  0.7317  0.2146  0.3349
  160MOL0     C21029   5.017   5.982   2.121 -0.1240 -0.3099  0.4136
  160MOL0     C21030   4.885   5.951   2.189  0.4599  0.0175 -0.2002
  160MOL0     C21031   4.766   5.979   2.096 -0.5292  0.1187  0.1286
  160MOL0    Cl21032   4.745   5.830   1.998  0.3399 -0.2814 -0.1026
  160MOL0     C21033   5.927   5.954   2.282 -0.1006 -0.2009 -0.2561
  160MOL0     C21034   6.066   5.945   2.306 -0.6773 -0.7151 -0.1171
  160MOL0     O21035   6.318   5.732   2.112  0.5852 -0.1446 -0.0709
  160MOL0     C21036   6.558   5.950   2.258 -0.4653 -0.2534 -0.7320
  160MOL0     C21037   6.697   5.948   2.285 -0.4312 -0.6901 -0.1037
  160MOL0     N21038   7.402   5.722   2.528  0.7411 -0.5815 -0.1870
  160MOL0     N21039   7.518   5.730   2.579  0.3683 -0.1085 -0.0468
  160MOL0     C21040   8.771   5.457   2.890  0.4081  0.0454  0.0034
  160MOL0     C21041   8.867   5.351   2.906  0.6248  0.2774 -0.8125
  160MOL0     C21042   9.137   4.969   2.783  0.3382 -0.3785 -0.4841
  160MOL0     C21043   9.223   5.007   2.888 -0.4502 -0.1228  0.1339
  160MOL0     C21044   9.334   4.923   2.920 -0.5881 -0.2518 -0.6864
  160MOL0     C21045   9.360   4.808   2.858  0.5901  0.0624  0.5100
  160MOL0     O21046   9.464   4.730   2.892 -0.4056  0.1180 -0.3100
  160MOL0     C21047   9.580   4.731   2.802 -0.5269  0.3981  0.3353
  160MOL0     C21048   9.642   4.600   2.770  0.9293 -0.5811  0.6569
  160MOL0     C21049   9.787   4.588   2.815  0.1664  0.6083  0.1278
  160MOL0     C21050   9.862   4.451   2.792 -0.0232 -0.1804  0.2893
  160MOL0     C21051   9.802   4.344   2.862  0.6971 -0.6785 -0.1056
  160MOL0     C21052   9.754   4.254   2.933 -0.2454  0.5420 -0.0303
  160MOL0     C21053   9.275   4.767   2.763  0.0018 -1.1402  0.5262
  160MOL0     C21054   9.158   4.843   2.729 -0.3323 -0.6563  0.4190
  160MOL0     H21055   8.786   5.172   2.633  1.6033  1.1198 -0.7760
  160MOL0     H21056   8.633   5.353   2.596  0.4046  1.5629 -0.1398
  160MOL0     H21057   8.442   5.426   2.732 -0.6082  1.7451  2.8436
  160MOL0     H21058   8.496   5.528   2.590  0.4995  0.5391  0.2189
  160MOL0     H21059   8.410   5.725   2.715 -0.4865  0.2318 -0.0240
  160MOL0     H21060   8.357   5.624   2.851 -2.4710  0.6602 -0.2419
  160MOL0     H21061   8.204   5.493   2.687  0.7176 -0.9276  0.1209
  160MOL0     H21062   8.277   5.589   2.557 -0.1348  0.1893  0.0353
  160MOL0     H21063   8.105   5.694   2.795  0.6485 -1.6143  0.2508
  160MOL0     H21064   8.189   5.793   2.660 -0.8356 -0.7849 -3.8608
  160MOL0     H21065   7.958   5.618   2.662 -2.8329  2.9727 -0.1899
  160MOL0     H21066   8.047   5.629   2.518 -2.5072 -2.8160  1.2354
  160MOL0     H21067   7.980   5.863   2.482  2.5797  2.0832  0.9927
  160MOL0     H21068   7.987   5.890   2.659  0.1630 -0.8206  1.0398
  160MOL0     H21069   7.756   5.801   2.683 -3.9593  0.9722 -1.9823
  160MOL0     H21070   7.763   5.906   2.552  1.8621  0.3450 -0.3079
  160MOL0     H21071   7.767   5.599   2.563 -1.2180  0.0510 -0.6745
  160MOL0     H21072   7.798   5.684   2.406 -0.4660 -1.5697  0.1884
  160MOL0     H21073   7.572   5.591   2.285 -2.3499  2.4822 -3.0813
  160MOL0     H21074   7.300   5.619   2.210 -0.1025  1.1814 -0.6100
  160MOL0     H21075   7.299   5.791   2.251  0.6892 -0.4213 -0.9348
  160MOL0     H21076   7.123   5.764   2.424 -4.1275  0.2099 -0.7453
  160MOL0     H21077   7.143   5.591   2.413 -1.7136 -0.1941  0.6683
  160MOL0     H21078   7.066   5.613   2.173  2.8363  0.5489  0.1546
  160MOL0     H21079   6.955   5.638   2.296  1.7760 -0.9407  1.3368
  160MOL0     H21080   7.001   5.834   2.090 -0.7495 -0.4641 -0.6425
  160MOL0     H21081   7.101   5.894   2.220 -1.1854  0.8233  1.8390
  160MOL0     H21082   6.793   5.675   2.131 -1.2802 -0.4867  0.2457
  160MOL0     H21083   6.555   5.668   2.074  0.6913 -0.4384  1.3780
  160MOL0     H21084   6.145   5.928   1.976  0.0946  1.2743 -0.1357
  160MOL0     H21085   5.887   5.924   1.963  2.3126 -0.7468 -1.0527
  160MOL0     H21086   5.635   5.994   2.322 -1.5220 -1.2933  0.2038
  160MOL0     H21087   5.669   5.819   2.276  2.2296  1.1136 -0.2630
  160MOL0     H21088   5.513   5.843   2.085  1.7319  3.7317 -2.6627
  160MOL0     H21089   5.519   6.019   2.115  1.7772  0.5889  1.2431
  160MOL0     H21090   5.395   6.022   2.299  1.8421  1.7119 -1.0895
  160MOL0     H21091   5.386   5.850   2.312  4.2142 -0.3207 -0.4712
  160MOL0     H21092   5.266   6.053   2.101 -1.4134 -0.6410 -0.0377
  160MOL0     H21093   5.272   5.883   2.071  1.1045 -0.4785  1.2093
  160MOL0     H21094   5.116   6.025   2.300  0.1549 -0.0598  0.5424
  160MOL0     H21095   5.094   5.854   2.267 -2.6411  1.1316  0.1928
  160MOL0     H21096   5.027   5.944   2.019  0.2587  1.4711 -0.2569
  160MOL0     H21097   5.015   6.090   2.101 -1.1925 -0.9251 -3.5253
  160MOL0     H21098   4.879   5.848   2.224 -0.1350  0.6973  1.8280
  160MOL0     H21099   4.866   6.022   2.270  1.2993  2.5487 -2.0988
  160MOL0     H21100   4.775   6.069   2.034  2.6734 -1.3321 -1.7612
  160MOL0     H21101   4.673   5.996   2.151 -2.1587  1.3059 -2.7907
  160MOL0     H21102   5.868   5.958   2.373 -1.1195  0.2211 -0.9143
  160MOL0     H21103   6.125   5.950   2.397  0.6523 -0.9591 -0.9277
  160MOL0     H21104   6.510   6.033   2.308  1.6276  0.8026 -0.3439
  160MOL0     H21105   6.744   6.033   2.333  2.8798 -3.2584  1.6509
  160MOL0     H21106   8.759   5.545   2.952 -1.5257  0.2430 -0.5594
  160MOL0     H21107   8.945   5.354   2.982 -2.2475  2.6606  2.3515
  160MOL0     H21108   9.209   5.093   2.953 -1.6515 -1.5801  1.8980
  160MOL0     H21109   9.395   4.937   3.009 -1.3125 -1.0719 -0.0404
  160MOL0     H21110   9.664   4.788   2.844  1.1629 -0.3963 -1.7689
  160MOL0     H21111   9.558   4.786   2.711 -0.9779  0.3469  0.4136
  160MOL0     H21112   9.585   4.518   2.813 -0.3204 -0.1943 -0.1935
  160MOL0     H21113   9.641   4.595   2.660 -0.1384  0.9983  0.5576
  160MOL0     H21114   9.791   4.612   2.922  0.5567  0.0976  0.2320
  160MOL0     H21115   9.844   4.665   2.761 -1.8992  1.3599 -1.0877
  160MOL0     H21116   9.870   4.440   2.684 -0.5046  0.6815  0.1574
  160MOL0     H21117   9.962   4.444   2.836 -1.1074 -0.8232  2.8976
  160MOL0     H21118   9.711   4.170   2.983  1.8393 -1.7602 -1.8599
  160MOL0     H21119   9.312   4.689   2.698 -0.2985  0.4413 -1.6625
  160MOL0     H21120   9.089   4.807   2.653 -1.8600  0.0916  1.4001
  161MOL0     O21121   4.704   3.357  10.160  0.2464 -0.6884  0.0008
  161MOL0     C21122   4.739   3.411  10.264  0.8198  0.2791 -0.3954
  161MOL0     O21123   4.658   3.462  10.366 -0.2607 -0.0308  0.4263
  161MOL0     C21124   4.524   3.474  10.351  0.2901  0.3196 -0.1477
  161MOL0     C21125   4.446   3.470  10.230 -0.7429 -0.5540  0.1833
  161MOL0     C21126   4.309   3.461  10.243 -0.0338  0.1442  0.5886
  161MOL0     C21127   4.237   3.468  10.363 -0.5305 -0.2784 -0.9767
  161MOL0     O21128   4.100   3.485  10.381 -0.0346 -0.2633 -0.1261
  161MOL0     C21129   4.029   3.505  10.258  0.0268  0.8493  0.2367
  161MOL0     C21130   3.889   3.559  10.283 -0.0384  0.1899  0.4740
  161MOL0     C21131   3.814   3.565  10.146 -0.2574 -0.0454  0.8907
  161MOL0     C21132   3.670   3.625  10.163  0.4597  0.3411 -0.1154
  161MOL0     C21133   3.586   3.598  10.043 -0.0515  0.5677 -0.0084
  161MOL0     C21134   3.451   3.660  10.057  0.8065  0.3536  0.5384
  161MOL0     C21135   3.345   3.591   9.980 -0.5712 -0.0270 -0.2786
  161MOL0     C21136   3.210   3.652  10.010 -0.0422 -0.6123 -0.0132
  161MOL0     N21137   3.104   3.607   9.919 -0.8720  0.0197  0.2513
  161MOL0     C21138   3.121   3.558   9.791  0.3351 -0.0723  0.4311
  161MOL0     C21139   2.997   3.575   9.737 -0.6991  0.0198  0.0164
  161MOL0     C21140   2.950   3.565   9.594  0.4595 -0.1163  0.2073
  161MOL0     C21141   3.036   3.475   9.504  0.2628 -0.8682  0.2409
  161MOL0     C21142   3.039   3.333   9.551 -0.6784 -0.6164 -0.2343
  161MOL0     C21143   3.170   3.280   9.502  0.4439  0.2523  0.0654
  161MOL0     O21144   3.280   3.350   9.573 -0.0289 -0.3359  0.0644
  161MOL0     C21145   3.369   3.297   9.666 -0.3858 -0.1280 -0.6802
  161MOL0     C21146   3.483   3.366   9.701  0.1277 -0.2338 -0.6346
  161MOL0     C21147   3.581   3.311   9.792  0.4805  0.7943 -0.0137
  161MOL0     C21148   3.559   3.177   9.849  0.3211 -0.4736 -0.8236
  161MOL0     C21149   3.657   3.132   9.950  0.5804  0.2486  0.1940
  161MOL0     O21150   3.741   3.221   9.999  0.0554 -0.0513 -0.2940
  161MOL0     C21151   3.846   3.177  10.078  0.8819  0.2446  0.3122
  161MOL0     C21152   3.969   3.163  10.010  0.7923 -0.3015  0.0291
  161MOL0     C21153   4.072   3.111  10.078  0.0288 -0.0895 -0.2438
  161MOL0     C21154   4.052   3.057  10.210 -0.2374  0.1938  0.2990
  161MOL0     O21155   4.155   3.006  10.280 -0.0968  0.0286 -0.5781
  161MOL0     C21156   4.270   3.091  10.313  0.3851 -0.2510  0.3967
  161MOL0     C21157   4.373   3.001  10.371  0.2187 -0.1738  0.3900
  161MOL0     C21158   4.485   3.082  10.433  0.1694  0.0842  0.5502
  161MOL0     C21159   4.610   2.995  10.444 -0.0918 -0.4700 -0.4253
  161MOL0     C21160   4.691   3.026  10.571 -0.5360 -0.6926  0.2375
  161MOL0     C21161   4.813   2.936  10.587  0.2662  0.0799 -0.4996
  161MOL0     C21162   4.918   2.992  10.684  0.4088  0.3903 -0.6164
  161MOL0     C21163   5.016   2.879  10.740 -0.0078 -0.7952 -0.7593
  161MOL0    Cl21164   5.109   2.973  10.859  0.4583  0.0253 -0.3158
  161MOL0     C21165   3.925   3.053  10.271 -0.0116  0.3624  0.9316
  161MOL0     C21166   3.824   3.121  10.203 -0.6130  0.3255  0.5030
  161MOL0     O21167   3.651   3.012   9.979 -0.0910 -0.9078 -0.5189
  161MOL0     C21168   3.445   3.112   9.816 -0.0751 -0.4986 -0.1216
  161MOL0     C21169   3.351   3.163   9.722  0.3926  0.5493  0.1657
  161MOL0     N21170   2.912   3.632   9.829 -0.4937  0.3081 -0.4872
  161MOL0     N21171   2.979   3.643   9.940 -0.2726  0.4867  0.0203
  161MOL0     C21172   4.311   3.466  10.478  0.6304 -0.7497 -0.0671
  161MOL0     C21173   4.446   3.476  10.474 -0.5786  0.7514  0.0239
  161MOL0     C21174   4.884   3.412  10.300  0.6273 -1.2155  0.1742
  161MOL0     C21175   4.982   3.348  10.224  1.4568  0.2236  0.1885
  161MOL0     C21176   5.121   3.359  10.259  0.0020  0.4651  0.6593
  161MOL0     C21177   5.163   3.428  10.373 -0.5316  0.1810 -0.9167
  161MOL0     O21178   5.296   3.421  10.426 -0.6501 -0.0531 -0.4821
  161MOL0     C21179   5.403   3.354  10.354 -0.1111  0.7314  0.0963
  161MOL0     C21180   5.456   3.431  10.230 -0.9109 -0.2733 -0.4175
  161MOL0     C21181   5.496   3.575  10.257 -0.2849  0.0891  0.8068
  161MOL0     C21182   5.595   3.602  10.371  0.1125 -0.1667 -0.6782
  161MOL0     C21183   5.723   3.547  10.347 -0.0034  0.8926  0.0497
  161MOL0     C21184   5.843   3.521  10.327 -0.0363 -0.5431  0.2605
  161MOL0     C21185   5.067   3.498  10.451  0.8374  0.1685  0.6507
  161MOL0     C21186   4.934   3.479  10.415  0.3258 -0.2204 -0.9994
  161MOL0     H21187   4.492   3.473  10.132  0.4030  0.5094  0.7241
  161MOL0     H21188   4.245   3.475  10.156  0.7105  0.7450  0.1243
  161MOL0     H21189   4.028   3.411  10.203  0.4202  0.3225  1.1100
  161MOL0     H21190   4.082   3.578  10.195  2.4275 -0.6173  0.4340
  161MOL0     H21191   3.890   3.662  10.320 -3.2884  0.2363  0.7477
  161MOL0     H21192   3.832   3.488  10.344 -1.2867 -0.2220 -1.1061
  161MOL0     H21193   3.814   3.465  10.100  0.3857 -1.3056  3.4341
  161MOL0     H21194   3.862   3.640  10.083 -1.2924  1.3520  1.7289
  161MOL0     H21195   3.633   3.581  10.255  5.4755  0.5159  2.3333
  161MOL0     H21196   3.673   3.734  10.172  2.8464  0.3772 -0.6037
  161MOL0     H21197   3.563   3.491  10.038  1.1135  0.1672  1.7727
  161MOL0     H21198   3.643   3.622   9.953  2.8189  0.9082  1.7595
  161MOL0     H21199   3.440   3.768  10.042 -1.1350  0.0453 -0.5786
  161MOL0     H21200   3.418   3.636  10.159  0.2198 -2.4222 -0.2438
  161MOL0     H21201   3.377   3.585   9.875 -0.2787 -2.1955 -0.1178
  161MOL0     H21202   3.338   3.485  10.008  0.2548 -0.7071 -2.4453
  161MOL0     H21203   3.219   3.761  10.000  0.1346 -0.6900 -0.8169
  161MOL0     H21204   3.180   3.620  10.110  0.9385  2.2745  1.3100
  161MOL0     H21205   3.215   3.536   9.742 -0.3107 -0.6284 -0.5758
  161MOL0     H21206   2.951   3.654   9.531 -0.2476 -1.4506 -1.7877
  161MOL0     H21207   2.846   3.532   9.595  0.4701 -0.1493  0.2444
  161MOL0     H21208   3.135   3.521   9.503  0.0252 -0.3461 -1.1880
  161MOL0     H21209   2.999   3.479   9.401 -2.6463  1.2806  1.2526
  161MOL0     H21210   3.028   3.323   9.660 -0.7795 -0.6419 -0.2461
  161MOL0     H21211   2.959   3.278   9.500  0.6918  0.9971 -4.5405
  161MOL0     H21212   3.173   3.288   9.393  0.9047  4.5652  0.2114
  161MOL0     H21213   3.179   3.173   9.525  0.8632 -0.0100 -1.2647
  161MOL0     H21214   3.503   3.466   9.662  0.0885  0.1495  0.3141
  161MOL0     H21215   3.669   3.370   9.817 -1.2269  3.0566  0.9598
  161MOL0     H21216   3.975   3.193   9.905  0.4021 -0.0443  0.0776
  161MOL0     H21217   4.169   3.099  10.031 -1.1538 -2.2473 -2.3332
  161MOL0     H21218   4.248   3.166  10.390 -0.5603  0.5212 -0.5975
  161MOL0     H21219   4.310   3.151  10.231  2.3469 -0.0138  1.4647
  161MOL0     H21220   4.409   2.935  10.292 -1.1786 -2.8807  1.8646
  161MOL0     H21221   4.340   2.930  10.447  1.5664  2.1574  3.4333
  161MOL0     H21222   4.458   3.107  10.536 -2.4497  1.5714 -0.4121
  161MOL0     H21223   4.499   3.169  10.368 -1.0429 -0.6988 -0.8144
  161MOL0     H21224   4.577   2.891  10.441  0.2397 -0.7763  2.8766
  161MOL0     H21225   4.677   3.002  10.358 -0.3208 -2.6303 -0.8260
  161MOL0     H21226   4.630   3.026  10.662 -1.4085  0.0840 -0.3195
  161MOL0     H21227   4.711   3.133  10.558  0.6027 -0.6809  1.7696
  161MOL0     H21228   4.862   2.903  10.494 -1.7337 -2.5815 -0.7303
  161MOL0     H21229   4.779   2.841  10.629  2.2858  0.3969  2.1020
  161MOL0     H21230   4.982   3.073  10.645  1.8555  0.0312  0.8959
  161MOL0     H21231   4.863   3.031  10.770  0.5591 -2.1602  0.7018
  161MOL0     H21232   5.080   2.848  10.657  0.8244  0.3821 -0.5884
  161MOL0     H21233   4.968   2.788  10.775 -0.2712 -0.0893  0.8060
  161MOL0     H21234   3.917   3.000  10.365 -3.3149 -0.8907  0.1121
  161MOL0     H21235   3.726   3.121  10.251  0.4355 -3.1362  3.0790
  161MOL0     H21236   3.444   3.011   9.856  2.0953 -0.0507  1.2523
  161MOL0     H21237   3.261   3.106   9.699  2.2299 -1.7802 -1.7520
  161MOL0     H21238   4.245   3.474  10.565  1.2744  2.8618  0.2363
  161MOL0     H21239   4.494   3.481  10.571 -1.1406  3.2291  0.2538
  161MOL0     H21240   4.952   3.295  10.135 -0.3055 -1.5347  1.7533
  161MOL0     H21241   5.196   3.319  10.192  2.7434  1.2611  3.0459
  161MOL0     H21242   5.377   3.250  10.331 -0.7203  0.9564 -0.2526
  161MOL0     H21243   5.487   3.346  10.424  0.7400 -3.2661 -1.0964
  161MOL0     H21244   5.554   3.393  10.199  0.2777  2.4552 -0.2757
  161MOL0     H21245   5.393   3.419  10.142 -0.5138  0.8661 -0.8695
  161MOL0     H21246   5.410   3.639  10.279  0.7851  1.5712  0.8436
  161MOL0     H21247   5.543   3.608  10.164 -0.7142 -1.0083  0.1874
  161MOL0     H21248   5.608   3.710  10.388 -2.4681  0.0160  0.6316
  161MOL0     H21249   5.574   3.554  10.467  1.7589  0.9565  0.3024
  161MOL0     H21250   5.947   3.505  10.310  0.4738 -0.6446  2.9776
  161MOL0     H21251   5.102   3.558  10.534  1.0808  0.3723  0.4020
  161MOL0     H21252   4.871   3.528  10.488  0.4040 -0.2849 -0.8884
  162MOL0     O21253   6.126   7.551   9.451 -0.5405  0.4070  0.5288
  162MOL0     C21254   6.193   7.584   9.547 -0.5648 -0.1423  0.9017
  162MOL0     O21255   6.149   7.603   9.675  0.0237  0.9804 -0.1285
  162MOL0     C21256   6.024   7.581   9.709 -0.1557 -0.2535 -0.8527
  162MOL0     C21257   5.944   7.483   9.666 -0.0111 -0.3888  0.1517
  162MOL0     C21258   5.806   7.480   9.700  0.4654 -0.1716 -0.9518
  162MOL0     C21259   5.751   7.570   9.789 -0.4118  0.4605 -0.5272
  162MOL0     O21260   5.621   7.576   9.819  0.5953 -1.2513  0.3300
  162MOL0     C21261   5.557   7.455   9.861 -0.5350  0.2389 -0.1230
  162MOL0     C21262   5.414   7.475   9.905 -0.0130  0.3951  0.2733
  162MOL0     C21263   5.325   7.516   9.784  0.6028  0.6045 -0.5764
  162MOL0     C21264   5.189   7.571   9.852 -0.8365 -0.3242  1.2909
  162MOL0     C21265   5.069   7.569   9.751 -0.3621  0.0377 -0.4753
  162MOL0     C21266   4.962   7.678   9.796  0.0324  0.1018 -0.1779
  162MOL0     C21267   4.871   7.695   9.675  0.4543  1.0253  0.2253
  162MOL0     C21268   4.738   7.758   9.703  0.2329  0.0359  0.1128
  162MOL0     N21269   4.622   7.675   9.749 -0.1763 -0.5291  0.6166
  162MOL0     C21270   4.519   7.714   9.839  0.2078 -0.1984  0.2317
  162MOL0     C21271   4.460   7.596   9.849 -1.2096  0.0826 -0.1021
  162MOL0     C21272   4.352   7.582   9.958 -0.1868 -0.0745 -0.4704
  162MOL0     C21273   4.223   7.529   9.907  0.3665  0.4828 -1.0208
  162MOL0     C21274   4.133   7.625   9.838  0.1072  0.3022  0.8381
  162MOL0     C21275   3.998   7.563   9.797 -0.7854  0.1044  0.4543
  162MOL0     O21276   3.889   7.658   9.808 -0.4351 -0.7149  0.6986
  162MOL0     C21277   3.763   7.607   9.804 -0.2772 -0.3067 -0.4184
  162MOL0     C21278   3.727   7.484   9.752  0.3326 -0.2087 -0.0837
  162MOL0     C21279   3.587   7.450   9.745 -0.3154 -0.3978 -0.0197
  162MOL0     C21280   3.489   7.536   9.797  1.3013  0.6853 -0.4985
  162MOL0     C21281   3.347   7.518   9.764 -0.9403  0.2788 -0.1894
  162MOL0     O21282   3.306   7.394   9.731 -0.0809  0.1839  0.1014
  162MOL0     C21283   3.178   7.350   9.695 -0.0002  0.8591  0.1537
  162MOL0     C21284   3.056   7.416   9.721  0.5702 -0.1238 -0.2529
  162MOL0     C21285   2.938   7.359   9.670  0.7684  0.1216  0.2270
  162MOL0     C21286   2.929   7.231   9.623 -0.1615 -1.1272 -0.1015
  162MOL0     O21287   2.808   7.184   9.586 -0.1193  0.0094  0.8852
  162MOL0     C21288   2.791   7.159   9.443 -0.2219 -0.4168  0.9314
  162MOL0     C21289   2.643   7.141   9.420 -0.9900 -0.2570 -0.3353
  162MOL0     C21290   2.601   7.137   9.274  0.0884 -0.0151 -0.2952
  162MOL0     C21291   2.578   7.275   9.207  0.1921  0.0340 -0.3077
  162MOL0     C21292   2.566   7.261   9.052 -0.4127 -0.0904 -0.1486
  162MOL0     C21293   2.454   7.169   9.017 -0.4302  0.5366  0.2976
  162MOL0     C21294   2.313   7.201   9.047  0.1581 -0.2491  0.3104
  162MOL0     C21295   2.241   7.087   9.125  0.4410 -0.1679 -0.4014
  162MOL0    Cl21296   2.073   7.147   9.141  0.2805  0.5329  0.1019
  162MOL0     C21297   3.049   7.161   9.609  0.2548  0.1138 -0.1517
  162MOL0     C21298   3.173   7.222   9.635  0.0842  0.1136  0.4109
  162MOL0     O21299   3.277   7.624   9.767  0.4078  0.2132 -0.2047
  162MOL0     C21300   3.531   7.643   9.872 -0.7278  0.3712 -0.6117
  162MOL0     C21301   3.665   7.683   9.865  0.5114  0.9708  0.5288
  162MOL0     N21302   4.495   7.505   9.762 -0.2201 -0.3563 -0.8678
  162MOL0     N21303   4.601   7.549   9.707 -0.7984 -0.5381  0.4300
  162MOL0     C21304   5.834   7.664   9.844 -0.1465 -0.5232  0.4060
  162MOL0     C21305   5.976   7.670   9.809 -0.6734  1.0683 -0.0671
  162MOL0     C21306   6.341   7.579   9.524  0.0427 -0.2754  0.2815
  162MOL0     C21307   6.428   7.629   9.615 -0.2932  0.1676  0.4990
  162MOL0     C21308   6.562   7.623   9.593 -0.2473  0.3498  0.4935
  162MOL0     C21309   6.620   7.556   9.486  0.0190 -0.3107  0.0540
  162MOL0     O21310   6.762   7.550   9.469 -0.6953 -0.2511 -0.0261
  162MOL0     C21311   6.820   7.498   9.347 -0.0424 -0.1334  0.6166
  162MOL0     C21312   6.962   7.468   9.385 -0.5866 -0.7265  0.4202
  162MOL0     C21313   7.060   7.473   9.263  0.3872 -0.3352  0.2148
  162MOL0     C21314   7.195   7.410   9.284 -0.3907  0.5889  0.3272
  162MOL0     C21315   7.277   7.475   9.385 -0.2082  0.2396  0.3536
  162MOL0     C21316   7.356   7.532   9.457 -0.5967 -0.3777  1.1032
  162MOL0     C21317   6.528   7.519   9.393 -0.9187  0.1522  1.3749
  162MOL0     C21318   6.392   7.534   9.401 -0.8301  0.2343  0.2124
  162MOL0     H21319   5.966   7.398   9.603 -0.8258  0.9666 -2.0663
  162MOL0     H21320   5.743   7.396   9.673 -1.3679  0.1122  1.9782
  162MOL0     H21321   5.617   7.431   9.950 -1.0042  0.9138  0.3884
  162MOL0     H21322   5.551   7.380   9.781 -4.3962 -1.6378  1.6166
  162MOL0     H21323   5.416   7.560   9.974  0.0206  2.9547 -2.6318
  162MOL0     H21324   5.380   7.390   9.964  2.7428  0.1962  1.6846
  162MOL0     H21325   5.297   7.423   9.732 -1.2987  1.2231 -0.7475
  162MOL0     H21326   5.371   7.595   9.725  1.0023  0.4281 -0.5069
  162MOL0     H21327   5.175   7.521   9.948 -1.8166  1.0169  1.8654
  162MOL0     H21328   5.217   7.671   9.884  2.5010 -1.4086  2.1852
  162MOL0     H21329   5.019   7.472   9.759 -1.2687  0.5765  0.6600
  162MOL0     H21330   5.110   7.593   9.652 -0.9965 -0.3036 -0.8264
  162MOL0     H21331   5.013   7.772   9.817 -0.4570  0.1817  0.7204
  162MOL0     H21332   4.906   7.645   9.885  0.8279  0.1904  0.3670
  162MOL0     H21333   4.917   7.759   9.600  0.0330 -1.6284 -2.4941
  162MOL0     H21334   4.855   7.601   9.622  0.3250  1.1579  0.0289
  162MOL0     H21335   4.701   7.814   9.616  0.4360  2.7005  1.6208
  162MOL0     H21336   4.758   7.835   9.778  2.9683 -1.5261  1.0950
  162MOL0     H21337   4.504   7.804   9.898 -1.2707  1.4641 -2.4570
  162MOL0     H21338   4.337   7.680  10.005  3.2893  0.9026 -1.1122
  162MOL0     H21339   4.397   7.512  10.028 -0.2630  0.7017  0.3804
  162MOL0     H21340   4.167   7.489   9.992 -0.3902 -0.5769 -1.9800
  162MOL0     H21341   4.246   7.447   9.837 -1.0319  0.8530 -1.9517
  162MOL0     H21342   4.109   7.707   9.906 -3.3109 -0.1563  0.3792
  162MOL0     H21343   4.185   7.663   9.749 -0.1035  0.5798  0.8326
  162MOL0     H21344   3.977   7.481   9.866 -2.5286  1.3192  1.4507
  162MOL0     H21345   3.998   7.511   9.701 -0.0042  0.0904  0.4576
  162MOL0     H21346   3.803   7.412   9.724  3.4585  2.5984  0.6108
  162MOL0     H21347   3.556   7.369   9.680  0.1012 -0.9334  0.4416
  162MOL0     H21348   3.052   7.515   9.764  0.7930  0.0695 -0.6671
  162MOL0     H21349   2.850   7.422   9.662 -0.3107 -1.5218 -1.2682
  162MOL0     H21350   2.841   7.070   9.404 -1.4194 -1.2661  1.2757
  162MOL0     H21351   2.830   7.244   9.387 -0.4793 -1.6661 -1.2304
  162MOL0     H21352   2.597   7.227   9.469 -2.0446 -0.6736 -0.5420
  162MOL0     H21353   2.609   7.053   9.476  1.8312  1.3891  4.6315
  162MOL0     H21354   2.510   7.078   9.269 -0.4534  0.9005 -1.9359
  162MOL0     H21355   2.677   7.088   9.212 -0.8778 -0.2584 -1.2999
  162MOL0     H21356   2.486   7.316   9.250  1.3286 -0.4466  2.7957
  162MOL0     H21357   2.658   7.347   9.224  0.1373  0.4811 -1.8024
  162MOL0     H21358   2.664   7.241   9.008 -0.3113  0.3026 -0.1053
  162MOL0     H21359   2.535   7.360   9.019  0.5264  0.4473  0.5360
  162MOL0     H21360   2.478   7.068   9.051 -2.3484 -0.3278 -0.7560
  162MOL0     H21361   2.444   7.170   8.908  1.3689  0.4465  0.0950
  162MOL0     H21362   2.310   7.290   9.111  0.3726 -0.5936  0.8133
  162MOL0     H21363   2.252   7.215   8.958 -0.1039 -4.1388 -0.2919
  162MOL0     H21364   2.297   7.089   9.218  1.2804  5.7031 -0.6701
  162MOL0     H21365   2.248   6.990   9.075  0.5350 -0.4096  0.0707
  162MOL0     H21366   3.041   7.060   9.570 -0.8227 -0.2579  0.9650
  162MOL0     H21367   3.260   7.160   9.620 -0.8920 -1.4685  1.0824
  162MOL0     H21368   3.455   7.711   9.910 -0.4095  0.8195 -0.7710
  162MOL0     H21369   3.696   7.770   9.923  0.6471  0.8492  0.6362
  162MOL0     H21370   5.794   7.741   9.910 -0.3807 -1.0497  0.8888
  162MOL0     H21371   6.049   7.743   9.845  0.2921 -0.9344  2.3387
  162MOL0     H21372   6.398   7.689   9.700  1.7451 -0.3411  1.6470
  162MOL0     H21373   6.625   7.666   9.671 -1.0164  2.3691  0.0728
  162MOL0     H21374   6.822   7.572   9.266  0.4964 -1.8772 -1.0404
  162MOL0     H21375   6.774   7.403   9.317  0.2276 -0.1403  0.2115
  162MOL0     H21376   6.995   7.542   9.458 -0.1581 -0.1118 -0.3789
  162MOL0     H21377   6.962   7.369   9.432  2.2983 -0.0905  1.9771
  162MOL0     H21378   7.083   7.577   9.236  1.4588 -1.1524 -2.3295
  162MOL0     H21379   7.007   7.441   9.173  0.6394  1.0305 -0.4510
  162MOL0     H21380   7.178   7.307   9.318  2.2873 -0.0705 -0.0783
  162MOL0     H21381   7.258   7.410   9.194  0.2398 -1.7734  0.7013
  162MOL0     H21382   7.419   7.582   9.527  1.7970  2.1269 -2.4634
  162MOL0     H21383   6.567   7.493   9.295 -0.1970 -1.1474  1.9909
  162MOL0     H21384   6.329   7.503   9.318  2.3448  1.2441 -2.8507
  163MOL0     O21385   9.922   1.214   9.192 -0.2383 -0.2041 -0.1579
  163MOL0     C21386   9.978   1.139   9.105  0.2754 -0.3020 -0.1157
  163MOL0     O21387   9.915   1.043   9.030 -0.2014 -0.0984  0.2132
  163MOL0     C21388   9.779   1.038   9.032  0.2882  0.1246  0.0421
  163MOL0     C21389   9.699   1.127   8.961  0.4623  0.6043  0.1431
  163MOL0     C21390   9.554   1.119   8.970  0.2197  0.9303  0.2009
  163MOL0     C21391   9.495   1.031   9.050 -0.8212  0.5140 -0.5022
  163MOL0     O21392   9.363   1.025   9.071  0.4279  0.8300  0.0825
  163MOL0     C21393   9.277   1.072   8.966  0.0995 -0.4806 -0.4328
  163MOL0     C21394   9.133   1.043   9.017 -0.1544  0.2290  0.3236
  163MOL0     C21395   9.089   0.904   8.982  0.3900 -0.7929 -0.0139
  163MOL0     C21396   8.979   0.846   9.078  0.1917 -0.2331 -0.2519
  163MOL0     C21397   8.843   0.918   9.060 -0.1700  0.2541  0.2138
  163MOL0     C21398   8.724   0.847   9.135 -0.0488  0.7764  0.3644
  163MOL0     C21399   8.597   0.887   9.053  0.4664  0.6963 -0.2783
  163MOL0     C21400   8.468   0.828   9.122 -0.6342  0.2329 -0.6905
  163MOL0     N21401   8.352   0.852   9.044 -0.9946 -0.1860 -0.5866
  163MOL0     C21402   8.280   0.970   9.048  0.4515 -0.0599  0.5104
  163MOL0     C21403   8.186   0.934   8.954 -0.2183 -0.6271 -0.9531
  163MOL0     C21404   8.076   1.027   8.908  0.3676 -0.3202  0.0921
  163MOL0     C21405   7.954   1.031   9.009  0.0358 -0.3068  0.4956
  163MOL0     C21406   7.921   0.891   9.045  0.4241  0.3427  0.7669
  163MOL0     C21407   7.775   0.887   9.092 -0.5681  0.4578 -0.5627
  163MOL0     O21408   7.698   0.882   8.979 -0.2072 -0.0142 -0.3553
  163MOL0     C21409   7.577   0.827   8.984  0.2141 -0.4105 -0.4601
  163MOL0     C21410   7.491   0.837   9.097  0.1516 -0.2550 -0.4434
  163MOL0     C21411   7.364   0.782   9.090  0.4744  0.1379  0.0142
  163MOL0     C21412   7.318   0.708   8.975 -0.7635  1.1839 -0.4005
  163MOL0     C21413   7.177   0.648   8.976  1.3254  0.0699 -0.4824
  163MOL0     O21414   7.129   0.585   8.857  0.4504 -0.2600  0.0777
  163MOL0     C21415   6.999   0.539   8.851 -0.3331 -0.0689  0.1367
  163MOL0     C21416   6.889   0.619   8.870  0.4705  0.1366  0.3300
  163MOL0     C21417   6.759   0.551   8.885  0.5206 -0.1150 -0.1614
  163MOL0     C21418   6.744   0.410   8.865  0.3740  0.0145 -0.6862
  163MOL0     O21419   6.616   0.349   8.867 -0.8009  0.4523  0.7672
  163MOL0     C21420   6.513   0.398   8.950 -0.3323 -0.1078  0.6511
  163MOL0     C21421   6.406   0.290   8.959 -0.0794 -0.6297 -0.0684
  163MOL0     C21422   6.284   0.334   9.042  0.2632  0.3802 -0.0190
  163MOL0     C21423   6.191   0.210   9.088 -0.7020  0.1720 -0.3733
  163MOL0     C21424   6.074   0.250   9.180 -1.0650 -0.2085 -0.1418
  163MOL0     C21425   5.988   0.129   9.215  0.1852  0.4996  0.5674
  163MOL0     C21426   5.892   0.072   9.102 -0.2521  0.1339  0.0815
  163MOL0     C21427   5.887  -0.082   9.092 -0.0202 -0.3767 -0.4885
  163MOL0    Cl21428   6.026  -0.164   9.018 -0.5704  0.1420  0.0560
  163MOL0     C21429   6.858   0.344   8.827  1.0887  0.7276 -0.2757
  163MOL0     C21430   6.987   0.403   8.822  0.4769 -0.5585  0.6930
  163MOL0     O21431   7.117   0.659   9.081 -0.0678  0.2216  0.5425
  163MOL0     C21432   7.409   0.697   8.872  1.2034 -0.0655 -0.0892
  163MOL0     C21433   7.526   0.760   8.869 -0.1949  0.2575  0.7034
  163MOL0     N21434   8.208   0.803   8.917 -0.2148 -0.0319 -0.0893
  163MOL0     N21435   8.307   0.748   8.976  0.2853  0.0578 -1.4894
  163MOL0     C21436   9.577   0.946   9.127 -0.1614  0.2021  0.3559
  163MOL0     C21437   9.718   0.954   9.124 -0.5215  0.9754  0.3181
  163MOL0     C21438  10.124   1.149   9.077 -0.6873  0.5177  0.4844
  163MOL0     C21439  10.206   1.213   9.169  0.5162  0.3992  0.0767
  163MOL0     C21440  10.344   1.202   9.155  0.9330  0.9420  0.5326
  163MOL0     C21441  10.402   1.152   9.040 -0.1096 -0.2373 -0.6710
  163MOL0     O21442  10.538   1.136   9.023 -0.1554  0.4125 -0.1375
  163MOL0     C21443  10.591   1.247   8.953 -0.6483  0.2842  0.0185
  163MOL0     C21444  10.684   1.325   9.043  0.4156 -0.3573  0.3478
  163MOL0     C21445  10.795   1.231   9.109  0.1099 -0.4005 -0.4177
  163MOL0     C21446  10.872   1.292   9.230 -0.0534 -0.3132  0.5202
  163MOL0     C21447  10.920   1.431   9.217 -0.4686  0.6571  1.0278
  163MOL0     C21448  10.964   1.544   9.209  0.0225  0.9255 -0.3194
  163MOL0     C21449  10.325   1.098   8.941 -0.4360  0.0387  0.4091
  163MOL0     C21450  10.190   1.085   8.969  0.3111  0.1388  0.1364
  163MOL0     H21451   9.752   1.206   8.909 -0.3337  0.9010 -0.2455
  163MOL0     H21452   9.503   1.195   8.912 -0.0130  0.1011 -0.7121
  163MOL0     H21453   9.299   1.023   8.870  0.2607  1.8041 -1.6211
  163MOL0     H21454   9.282   1.181   8.959 -3.0107 -0.1360  1.1536
  163MOL0     H21455   9.059   1.114   8.978 -2.1336 -0.8292  1.9209
  163MOL0     H21456   9.140   1.054   9.126 -0.0558  3.5744  0.0815
  163MOL0     H21457   9.173   0.833   8.978 -1.3167 -2.8887 -0.2505
  163MOL0     H21458   9.040   0.895   8.885  1.5620 -1.2470 -0.5817
  163MOL0     H21459   8.961   0.743   9.044 -3.3811  0.3372 -0.5276
  163MOL0     H21460   9.006   0.841   9.184 -2.6798  3.3251  0.8480
  163MOL0     H21461   8.814   0.915   8.954 -1.0243 -1.2211  0.4596
  163MOL0     H21462   8.853   1.018   9.101 -1.2463 -1.1912  4.5460
  163MOL0     H21463   8.737   0.877   9.240  0.0107  0.1945  0.5276
  163MOL0     H21464   8.729   0.739   9.125  0.8362  0.9913 -2.0023
  163MOL0     H21465   8.581   0.995   9.041  1.6650  0.9346  0.1515
  163MOL0     H21466   8.604   0.847   8.952  0.6816  1.1057 -0.4281
  163MOL0     H21467   8.451   0.874   9.220 -0.5640  0.3727 -0.7430
  163MOL0     H21468   8.466   0.722   9.148  0.1967  0.5455  0.7609
  163MOL0     H21469   8.292   1.065   9.100 -3.9471  1.9427 -1.6123
  163MOL0     H21470   8.031   0.988   8.817  2.0576 -0.7607 -0.5973
  163MOL0     H21471   8.119   1.125   8.884 -4.2606  2.0370  0.4480
  163MOL0     H21472   7.871   1.074   8.951 -0.8793  0.6013  2.3990
  163MOL0     H21473   7.961   1.088   9.102 -2.9634 -0.3686  0.8433
  163MOL0     H21474   7.928   0.822   8.961 -2.0156  0.2826  0.5251
  163MOL0     H21475   7.982   0.859   9.130  1.2893 -3.2650 -1.0462
  163MOL0     H21476   7.746   0.970   9.157  1.4900  1.6100 -1.0070
  163MOL0     H21477   7.762   0.796   9.150 -2.4009  0.1690 -1.3689
  163MOL0     H21478   7.517   0.897   9.184  0.9573 -0.8767 -0.2476
  163MOL0     H21479   7.291   0.792   9.170  0.2921  2.8941 -0.3977
  163MOL0     H21480   6.906   0.724   8.892 -1.5084  0.5410  0.0829
  163MOL0     H21481   6.668   0.606   8.905 -0.3154 -1.4021 -0.3343
  163MOL0     H21482   6.467   0.483   8.897 -0.5772 -2.3114 -3.0204
  163MOL0     H21483   6.546   0.419   9.052  0.4020  1.9460  0.0370
  163MOL0     H21484   6.450   0.201   9.003  1.6243  0.3813  0.3648
  163MOL0     H21485   6.373   0.258   8.860 -0.3239  2.0902 -0.9533
  163MOL0     H21486   6.221   0.414   9.003  1.5145  1.8618  0.8533
  163MOL0     H21487   6.325   0.374   9.136  2.1604  0.3026 -0.7643
  163MOL0     H21488   6.150   0.163   8.999 -0.3808  0.8003 -0.8559
  163MOL0     H21489   6.262   0.144   9.140 -1.5009 -0.1206  0.3816
  163MOL0     H21490   6.004   0.324   9.140 -0.3512  1.2707  1.2087
  163MOL0     H21491   6.116   0.303   9.266 -1.5556  1.5555 -0.9338
  163MOL0     H21492   5.935   0.151   9.307 -0.2487 -0.4596  0.5600
  163MOL0     H21493   6.046   0.042   9.249  0.4067 -0.5895 -2.2645
  163MOL0     H21494   5.792   0.100   9.138  0.3818  0.3014  1.7986
  163MOL0     H21495   5.921   0.116   9.007 -0.7285  1.9935  0.7597
  163MOL0     H21496   5.798  -0.125   9.047  1.2230 -1.3815 -2.1172
  163MOL0     H21497   5.901  -0.121   9.193 -2.0482  0.3776  0.1243
  163MOL0     H21498   6.852   0.238   8.803  1.4688  0.8165 -0.7846
  163MOL0     H21499   7.080   0.349   8.807  1.0545  0.2216  1.3525
  163MOL0     H21500   7.376   0.650   8.780 -0.4746  1.5315 -0.3522
  163MOL0     H21501   7.581   0.774   8.776 -1.4637  1.6371  0.1113
  163MOL0     H21502   9.534   0.879   9.201  0.0377 -2.2625 -1.6438
  163MOL0     H21503   9.783   0.888   9.180  1.5516  2.0950 -0.6504
  163MOL0     H21504  10.177   1.252   9.266 -0.2491  0.6992 -0.2725
  163MOL0     H21505  10.407   1.249   9.231 -0.0092  0.2938  1.7556
  163MOL0     H21506  10.511   1.308   8.910  1.3545  2.5305 -0.7314
  163MOL0     H21507  10.645   1.206   8.867 -2.0075  2.6230 -2.0763
  163MOL0     H21508  10.724   1.400   8.974 -2.9815 -1.2809 -2.9808
  163MOL0     H21509  10.623   1.366   9.124 -2.0098 -2.8166 -0.0484
  163MOL0     H21510  10.870   1.200   9.035  1.3388  3.1265 -0.8109
  163MOL0     H21511  10.752   1.135   9.141  0.3926 -0.0911  0.9166
  163MOL0     H21512  10.801   1.300   9.314  0.0585  0.4306  0.5510
  163MOL0     H21513  10.954   1.223   9.251  2.1822  1.8475 -0.6275
  163MOL0     H21514  11.001   1.642   9.186  0.3317  0.7034 -0.7903
  163MOL0     H21515  10.367   1.041   8.859 -1.6073 -0.2198 -0.0296
  163MOL0     H21516  10.131   1.017   8.908 -1.6732  0.7943  1.2278
  164MOL0     O21517  10.632   9.766  10.411  0.1231  0.1111  0.1121
  164MOL0     C21518  10.710   9.700  10.477 -0.0488 -0.2509 -0.5669
  164MOL0     O21519  10.699   9.569  10.515 -0.0693  0.5565  0.2816
  164MOL0     C21520  10.590   9.511  10.457 -0.2913  0.1656 -0.1487
  164MOL0     C21521  10.463   9.518  10.521 -0.2751  0.3597 -0.0025
  164MOL0     C21522  10.345   9.485  10.449 -0.8468  0.4429  0.2574
  164MOL0     C21523  10.351   9.439  10.314  1.1904 -0.3800 -0.3351
  164MOL0     O21524  10.243   9.393  10.231 -0.7990 -0.3633  0.0205
  164MOL0     C21525  10.134   9.334  10.299  0.9406 -0.3183 -0.8672
  164MOL0     C21526  10.026   9.300  10.203  0.8428  0.3288 -0.9965
  164MOL0     C21527   9.913   9.218  10.277 -0.0101  0.6028  0.2046
  164MOL0     C21528   9.799   9.200  10.175  0.2657  0.2605  0.0221
  164MOL0     C21529   9.695   9.091  10.201  0.6668  0.3166 -0.6490
  164MOL0     C21530   9.587   9.067  10.089  0.4355 -0.0089 -0.0260
  164MOL0     C21531   9.505   8.945  10.110 -1.5164  1.5819 -0.8323
  164MOL0     C21532   9.387   8.936  10.005 -0.3327 -0.6970 -0.5529
  164MOL0     N21533   9.323   8.808  10.024  0.8519 -1.0031  0.9635
  164MOL0     C21534   9.352   8.683   9.979 -0.1772  0.3794 -0.0492
  164MOL0     C21535   9.256   8.595  10.031  0.7751 -0.2451 -0.2106
  164MOL0     C21536   9.264   8.451  10.001  0.7071  0.0301  0.9478
  164MOL0     C21537   9.299   8.359  10.120 -0.8057 -0.0283 -0.2030
  164MOL0     C21538   9.194   8.355  10.233 -1.0880  0.1105  0.8074
  164MOL0     C21539   9.221   8.236  10.321 -0.2118  0.6187 -0.2070
  164MOL0     O21540   9.146   8.225  10.447  0.6077  0.0169  0.5843
  164MOL0     C21541   9.030   8.154  10.429 -0.8083  0.2867 -0.0791
  164MOL0     C21542   8.970   8.108  10.310 -0.2420  0.1615 -0.4081
  164MOL0     C21543   8.845   8.059  10.298 -0.1747 -0.3402 -0.4999
  164MOL0     C21544   8.766   8.047  10.410 -0.4421 -0.3071 -0.1168
  164MOL0     C21545   8.633   8.005  10.401  0.4394  0.3233  0.1083
  164MOL0     O21546   8.568   8.044  10.285  0.0945 -0.3233  0.2941
  164MOL0     C21547   8.436   7.996  10.266  0.2609 -0.7336  0.0729
  164MOL0     C21548   8.390   7.868  10.290  0.3754  0.9844  0.4356
  164MOL0     C21549   8.266   7.823  10.246  0.2214 -0.3058 -0.2067
  164MOL0     C21550   8.177   7.919  10.193 -0.6903 -0.2023  0.3481
  164MOL0     O21551   8.045   7.899  10.158  0.6303 -0.5751  0.4472
  164MOL0     C21552   7.973   7.795  10.230  0.7626  0.0616  0.5970
  164MOL0     C21553   7.913   7.840  10.363 -0.2187  0.5485 -0.4106
  164MOL0     C21554   7.881   7.722  10.452 -0.6560 -0.1095  0.1557
  164MOL0     C21555   7.834   7.749  10.598 -0.0646  0.2067  0.7327
  164MOL0     C21556   7.886   7.660  10.704  0.0860  0.4311 -0.4188
  164MOL0     C21557   8.032   7.667  10.725  0.1431 -0.3162  0.0011
  164MOL0     C21558   8.073   7.563  10.829  0.1864  0.2463  0.0149
  164MOL0     C21559   8.225   7.555  10.833  0.0109 -0.6548  0.3983
  164MOL0    Cl21560   8.301   7.545  10.664  0.0202  0.5761 -0.0286
  164MOL0     C21561   8.229   8.046  10.163  0.8166  0.4871 -0.4694
  164MOL0     C21562   8.356   8.089  10.200  0.9021  0.1620 -0.1204
  164MOL0     O21563   8.591   7.926  10.495  0.0107  0.8609 -0.1922
  164MOL0     C21564   8.807   8.099  10.534  0.6074  0.3146  0.7642
  164MOL0     C21565   8.938   8.142  10.537  0.7949 -0.8582 -0.1682
  164MOL0     N21566   9.159   8.677  10.087  0.1149  0.7612  0.6602
  164MOL0     N21567   9.198   8.805  10.090 -0.3541 -0.1428 -0.4533
  164MOL0     C21568  10.475   9.431  10.262 -1.2110 -0.4991  0.2578
  164MOL0     C21569  10.588   9.466  10.328  0.3330 -1.0198 -0.3275
  164MOL0     C21570  10.832   9.768  10.527  0.7777 -0.2293 -0.1519
  164MOL0     C21571  10.936   9.699  10.579 -0.2730  0.2070  0.0215
  164MOL0     C21572  11.051   9.756  10.639  0.2241  0.3050 -0.4473
  164MOL0     C21573  11.059   9.892  10.638 -0.7311 -0.7050  0.1821
  164MOL0     O21574  11.169   9.962  10.690  0.2995 -0.5396  0.1321
  164MOL0     C21575  11.296   9.903  10.670 -0.7772  0.3654 -0.7608
  164MOL0     C21576  11.389  10.017  10.619  0.5006  0.6135 -0.2129
  164MOL0     C21577  11.533   9.994  10.663 -1.4151  0.8364  0.4790
  164MOL0     C21578  11.591   9.846  10.648  1.5419  1.1532  1.5053
  164MOL0     C21579  11.712   9.828  10.727  0.9033  0.9572 -0.2004
  164MOL0     C21580  11.803   9.800  10.802  0.4500  0.4886  0.7900
  164MOL0     C21581  10.966   9.968  10.561 -0.6422 -0.1119 -1.0537
  164MOL0     C21582  10.850   9.906  10.512 -1.1447 -0.5623  0.2067
  164MOL0     H21583  10.457   9.574  10.614 -0.9810  0.9572 -0.3909
  164MOL0     H21584  10.254   9.508  10.503 -0.0373  0.9927  1.4335
  164MOL0     H21585  10.090   9.392  10.380 -1.7639 -2.8678 -0.3211
  164MOL0     H21586  10.157   9.242  10.354  2.9572  0.8897  0.4845
  164MOL0     H21587  10.075   9.236  10.130  0.6389 -1.3905  0.3144
  164MOL0     H21588   9.987   9.399  10.177  0.9577  1.2315  1.9822
  164MOL0     H21589   9.877   9.271  10.366 -1.7899 -2.6935  1.6466
  164MOL0     H21590   9.955   9.123  10.311 -2.6071 -1.8917 -2.8610
  164MOL0     H21591   9.757   9.301  10.167  1.1501  0.5293 -1.6045
  164MOL0     H21592   9.833   9.191  10.071 -0.6749  0.9428 -0.3655
  164MOL0     H21593   9.645   9.119  10.294  2.7530  2.3584 -0.0568
  164MOL0     H21594   9.746   8.996  10.221  1.1979  0.7458  0.0614
  164MOL0     H21595   9.639   9.057   9.993  2.3511 -1.3198  1.0639
  164MOL0     H21596   9.536   9.163  10.079 -1.4828 -1.1531 -1.8835
  164MOL0     H21597   9.572   8.859  10.103  1.3888  3.7466 -1.6435
  164MOL0     H21598   9.465   8.937  10.211 -0.0015 -0.6221 -0.3445
  164MOL0     H21599   9.412   8.937   9.899 -0.1379 -2.4221 -0.5520
  164MOL0     H21600   9.313   9.015  10.017  1.8980  1.5302 -0.7617
  164MOL0     H21601   9.442   8.651   9.927  0.1109  0.4389  0.4123
  164MOL0     H21602   9.343   8.429   9.928 -0.1038 -0.5552  0.2162
  164MOL0     H21603   9.167   8.422   9.960  0.7259  0.5396  0.5333
  164MOL0     H21604   9.403   8.375  10.150 -0.7080 -0.1639 -0.4584
  164MOL0     H21605   9.304   8.256  10.084 -1.0154 -0.2751  0.4623
  164MOL0     H21606   9.195   8.440  10.301 -0.1832  0.8101 -0.0537
  164MOL0     H21607   9.096   8.342  10.186 -1.5707 -1.8459  2.2166
  164MOL0     H21608   9.326   8.250  10.347  0.3228 -0.7090 -1.4692
  164MOL0     H21609   9.215   8.143  10.263 -2.5972  0.3500  0.3603
  164MOL0     H21610   9.018   8.121  10.213  1.8782 -0.7174  0.4517
  164MOL0     H21611   8.823   8.018  10.200 -0.1653  1.4327 -1.2759
  164MOL0     H21612   8.469   7.801  10.324  2.3180  0.9728 -3.4739
  164MOL0     H21613   8.227   7.723  10.265 -3.0189  1.1916  1.7754
  164MOL0     H21614   8.034   7.704  10.232 -0.9126 -1.3152 -2.5423
  164MOL0     H21615   7.892   7.777  10.158  2.2026  1.3652 -1.4401
  164MOL0     H21616   7.823   7.896  10.335 -0.3861 -0.4213 -1.9297
  164MOL0     H21617   7.985   7.902  10.416 -1.5041  0.8486  1.0665
  164MOL0     H21618   7.972   7.661  10.451 -0.1753  0.5068 -2.9714
  164MOL0     H21619   7.800   7.671  10.400  0.6769 -0.4578 -1.6959
  164MOL0     H21620   7.850   7.852  10.631  0.7981 -0.3398  2.1027
  164MOL0     H21621   7.725   7.745  10.591 -0.1890 -0.7663  2.5991
  164MOL0     H21622   7.868   7.555  10.678  1.7874  0.1325 -0.5204
  164MOL0     H21623   7.839   7.678  10.801  1.5408 -2.3593  0.9038
  164MOL0     H21624   8.069   7.764  10.759  1.9637 -0.7495 -0.6054
  164MOL0     H21625   8.078   7.644  10.629  4.0812  0.7822  1.4112
  164MOL0     H21626   8.036   7.586  10.929  0.0251 -4.2343  1.2177
  164MOL0     H21627   8.038   7.466  10.793  4.0236 -0.2721 -3.0129
  164MOL0     H21628   8.245   7.466  10.895  3.0060 -0.3919 -0.0315
  164MOL0     H21629   8.267   7.644  10.880 -0.2735  0.0867 -0.7227
  164MOL0     H21630   8.162   8.104  10.101 -2.3103 -0.9552  1.3182
  164MOL0     H21631   8.386   8.190  10.172 -3.3782  1.7574  0.2753
  164MOL0     H21632   8.747   8.110  10.623 -0.3562 -0.0503  0.1768
  164MOL0     H21633   8.968   8.188  10.631 -0.1735 -0.2316 -0.1606
  164MOL0     H21634  10.493   9.402  10.159 -2.3600  0.2930 -0.1877
  164MOL0     H21635  10.689   9.457  10.287 -0.6323 -1.3255 -2.7848
  164MOL0     H21636  10.926   9.592  10.564  0.2387  0.5584 -3.7839
  164MOL0     H21637  11.126   9.688  10.677 -2.0162 -0.9647  2.0275
  164MOL0     H21638  11.294   9.823  10.596  1.6902  0.8007 -1.3872
  164MOL0     H21639  11.333   9.865  10.766 -0.0471  2.7914  0.0005
  164MOL0     H21640  11.384  10.024  10.510  0.5538 -2.4662 -0.5002
  164MOL0     H21641  11.362  10.114  10.661  3.2471  0.9467  1.0024
  164MOL0     H21642  11.533  10.024  10.768 -1.4435 -0.1854  0.7801
  164MOL0     H21643  11.604  10.058  10.608  0.4376 -1.4132  0.0506
  164MOL0     H21644  11.524   9.770  10.689 -2.3253  1.1804 -3.7488
  164MOL0     H21645  11.602   9.810  10.545  0.2069  1.2662  1.3047
  164MOL0     H21646  11.895   9.791  10.858  2.2512  3.6165 -1.3712
  164MOL0     H21647  10.968  10.075  10.547 -0.1758 -0.1553 -1.3380
  164MOL0     H21648  10.781   9.982  10.476 -2.5647 -0.6637  2.5193
  165MOL0     O21649   7.943   4.819  10.616  0.1826 -0.4599  0.1596
  165MOL0     C21650   8.023   4.859  10.526  0.3755 -0.5255 -0.0230
  165MOL0     O21651   7.984   4.950  10.422  0.0531  1.0211  0.5816
  165MOL0     C21652   7.865   5.024  10.423  0.4678  0.4433 -0.0382
  165MOL0     C21653   7.781   5.058  10.535  0.6349 -0.1616 -0.2342
  165MOL0     C21654   7.676   5.142  10.517 -0.2594 -0.6137  1.0487
  165MOL0     C21655   7.644   5.209  10.393  0.6910  0.3835  0.0501
  165MOL0     O21656   7.533   5.284  10.363  0.4718  0.2763  0.2614
  165MOL0     C21657   7.422   5.273  10.452  0.5457 -0.6289  0.3936
  165MOL0     C21658   7.404   5.398  10.542 -0.5514  0.5471 -0.5092
  165MOL0     C21659   7.419   5.525  10.452 -0.0428  0.1724  0.4140
  165MOL0     C21660   7.384   5.649  10.536  0.9834  0.6372 -0.5473
  165MOL0     C21661   7.231   5.646  10.547 -0.0278  0.6433  0.1080
  165MOL0     C21662   7.178   5.779  10.602  0.7707 -0.2806 -0.8350
  165MOL0     C21663   7.025   5.777  10.590  0.1965  0.6821 -0.8043
  165MOL0     C21664   6.957   5.877  10.675  0.0394  0.4794 -0.3601
  165MOL0     N21665   6.822   5.880  10.625  1.3964  0.3314 -0.4618
  165MOL0     C21666   6.756   5.994  10.597  0.5819  0.2215  0.0781
  165MOL0     C21667   6.631   5.960  10.581  0.4969  0.3702 -1.0168
  165MOL0     C21668   6.517   6.052  10.578 -0.1412  0.4830  0.5246
  165MOL0     C21669   6.376   5.999  10.557  0.2011  0.0237 -0.1345
  165MOL0     C21670   6.298   6.119  10.515  0.1040 -1.0376 -0.7059
  165MOL0     C21671   6.147   6.092  10.509 -0.1189 -0.5126  0.6726
  165MOL0     O21672   6.091   6.074  10.639  0.6053  0.0224 -0.0510
  165MOL0     C21673   5.967   6.028  10.634 -0.0179 -0.1025 -0.1005
  165MOL0     C21674   5.911   6.019  10.760 -0.3686 -0.1704  0.1968
  165MOL0     C21675   5.770   5.979  10.775 -0.3941 -0.9753  0.7066
  165MOL0     C21676   5.687   5.950  10.661  0.1166 -0.5426  0.8315
  165MOL0     C21677   5.547   5.898  10.676 -0.9548  0.1081 -0.1840
  165MOL0     O21678   5.497   5.823  10.578 -0.3409  0.1779  0.1708
  165MOL0     C21679   5.365   5.792  10.574  0.4937  1.1356 -0.0410
  165MOL0     C21680   5.262   5.886  10.566  0.0059 -0.5316  0.2067
  165MOL0     C21681   5.130   5.849  10.552 -0.0547  0.5476 -0.6179
  165MOL0     C21682   5.094   5.711  10.535  0.0174 -0.4135 -0.3435
  165MOL0     O21683   4.973   5.659  10.492 -0.6460 -0.0977 -0.4256
  165MOL0     C21684   4.857   5.748  10.480 -0.4380 -0.4151  0.8229
  165MOL0     C21685   4.734   5.668  10.449 -0.2307  0.5733  0.7991
  165MOL0     C21686   4.678   5.595  10.573  0.0075  0.3613  0.3489
  165MOL0     C21687   4.565   5.489  10.536 -0.3824  0.3129 -0.0161
  165MOL0     C21688   4.428   5.550  10.500 -0.2108 -0.3498  0.2670
  165MOL0     C21689   4.318   5.446  10.472 -1.1234 -0.1613 -0.0338
  165MOL0     C21690   4.259   5.394  10.603  0.4642  0.1759 -0.7310
  165MOL0     C21691   4.124   5.321  10.590 -0.5047 -0.1546  0.4950
  165MOL0    Cl21692   4.014   5.421  10.477  0.5907  0.1887 -0.0991
  165MOL0     C21693   5.196   5.618  10.554  0.0544  0.0731  0.1645
  165MOL0     C21694   5.329   5.659  10.580  0.3083  0.5021 -0.6585
  165MOL0     O21695   5.485   5.937  10.771  0.4150  0.0398  0.1799
  165MOL0     C21696   5.749   5.953  10.534 -0.3828  0.0071 -0.3221
  165MOL0     C21697   5.880   5.995  10.521  0.0743  0.2418 -0.3263
  165MOL0     N21698   6.618   5.820  10.603  0.2087 -0.1689  0.3952
  165MOL0     N21699   6.733   5.775  10.631  0.0612  0.1933  0.1870
  165MOL0     C21700   7.707   5.162  10.276  0.3689 -0.4630 -0.1582
  165MOL0     C21701   7.829   5.083  10.295 -0.0560  0.0559 -0.4819
  165MOL0     C21702   8.165   4.824  10.534  0.6819  0.5178 -1.1483
  165MOL0     C21703   8.211   4.745  10.644 -0.7742 -0.1270 -0.1087
  165MOL0     C21704   8.350   4.726  10.666  0.2193  0.6166 -0.1906
  165MOL0     C21705   8.436   4.794  10.580 -2.1155  0.4881 -0.1199
  165MOL0     O21706   8.575   4.814  10.606 -0.3511  0.5502  0.5045
  165MOL0     C21707   8.651   4.744  10.712  0.0767 -0.5217 -0.1255
  165MOL0     C21708   8.672   4.841  10.826  0.3413  0.7672  0.4450
  165MOL0     C21709   8.739   4.975  10.781  0.8504  0.7859 -1.1903
  165MOL0     C21710   8.747   5.080  10.891  0.5838 -0.0585  0.2045
  165MOL0     C21711   8.797   5.012  11.018  0.3123  0.0316  0.0315
  165MOL0     C21712   8.823   4.950  11.121 -0.6920 -0.0736 -0.7459
  165MOL0     C21713   8.390   4.861  10.472  0.5146 -0.6410 -0.0505
  165MOL0     C21714   8.258   4.880  10.443  0.7202  0.0736 -0.1850
  165MOL0     H21715   7.791   5.020  10.636  0.7637  2.1442  0.6713
  165MOL0     H21716   7.611   5.158  10.602  0.5264  0.9564  1.3880
  165MOL0     H21717   7.423   5.189  10.522  3.0398  0.8636  2.3659
  165MOL0     H21718   7.324   5.265  10.404 -0.8452  0.8638  2.7344
  165MOL0     H21719   7.462   5.399  10.634 -1.4173 -0.5788  0.0765
  165MOL0     H21720   7.301   5.383  10.577 -0.9443  2.0191 -0.9504
  165MOL0     H21721   7.355   5.504  10.366 -0.2484  1.0799  0.3436
  165MOL0     H21722   7.520   5.520  10.409 -2.2293 -0.7034 -5.5969
  165MOL0     H21723   7.429   5.653  10.636  2.5927 -2.2461 -1.0695
  165MOL0     H21724   7.421   5.737  10.482  2.8940 -0.6861 -1.5036
  165MOL0     H21725   7.201   5.567  10.616  0.1195  2.2665  2.1257
  165MOL0     H21726   7.192   5.622  10.447  0.0506 -0.1698  0.2658
  165MOL0     H21727   7.223   5.865  10.551 -1.4815 -0.6122 -3.6340
  165MOL0     H21728   7.204   5.794  10.707  2.9896 -1.3891 -1.1683
  165MOL0     H21729   7.002   5.802  10.486 -0.2045  2.5889 -0.3051
  165MOL0     H21730   6.984   5.678  10.609  0.9835  0.9841  3.3138
  165MOL0     H21731   7.012   5.971  10.675 -0.1169  0.5722  0.1534
  165MOL0     H21732   6.960   5.835  10.776 -1.7109  1.5488  0.1668
  165MOL0     H21733   6.785   6.099  10.600 -1.7260  0.8996  1.3558
  165MOL0     H21734   6.547   6.110  10.490 -1.5849  1.4820  0.6579
  165MOL0     H21735   6.517   6.117  10.666  0.2695  0.9721  0.1603
  165MOL0     H21736   6.334   5.963  10.652 -1.9366 -1.0467 -1.4203
  165MOL0     H21737   6.367   5.922  10.481 -0.2636  0.0714 -0.1249
  165MOL0     H21738   6.312   6.200  10.588  0.0976 -0.6000 -1.1873
  165MOL0     H21739   6.322   6.153  10.414 -3.3020  0.1078 -1.2577
  165MOL0     H21740   6.139   6.002  10.447  1.1644  0.1226 -0.4499
  165MOL0     H21741   6.095   6.178  10.467 -1.2928 -0.6299  1.8116
  165MOL0     H21742   5.972   6.036  10.848 -0.5457  1.6171  0.0115
  165MOL0     H21743   5.716   5.961  10.868 -1.3426 -1.9422 -0.0014
  165MOL0     H21744   5.286   5.992  10.565  0.6817 -0.6683 -1.2182
  165MOL0     H21745   5.055   5.927  10.538 -0.5479 -0.4710 -5.0918
  165MOL0     H21746   4.885   5.814  10.398  0.3721 -2.9393 -1.0770
  165MOL0     H21747   4.854   5.801  10.576  1.2866 -0.3619  0.8769
  165MOL0     H21748   4.772   5.597  10.376 -0.4696  0.1839  1.0508
  165MOL0     H21749   4.666   5.740  10.404 -0.7458 -0.2966  0.1558
  165MOL0     H21750   4.641   5.671  10.643 -0.3390 -0.2874  0.8738
  165MOL0     H21751   4.763   5.555  10.629  2.1298  0.8678 -2.2895
  165MOL0     H21752   4.602   5.434  10.449  1.2905  1.1670  0.1304
  165MOL0     H21753   4.545   5.417  10.617 -0.6021 -0.1771 -0.4989
  165MOL0     H21754   4.444   5.603  10.405  2.7045  0.6139  1.2047
  165MOL0     H21755   4.408   5.627  10.575 -0.1023 -1.8705  1.8850
  165MOL0     H21756   4.363   5.362  10.420 -0.3565 -1.1082  2.0353
  165MOL0     H21757   4.249   5.494  10.403 -1.4409 -1.9329 -0.9855
  165MOL0     H21758   4.327   5.321  10.649  0.3309 -0.7602 -1.9616
  165MOL0     H21759   4.236   5.475  10.673 -2.6904 -1.6954  0.6308
  165MOL0     H21760   4.086   5.296  10.690  1.0136 -0.6246  0.9718
  165MOL0     H21761   4.144   5.229  10.536  1.2797  1.4791 -1.8228
  165MOL0     H21762   5.170   5.513  10.548  0.0784  0.0101  1.0555
  165MOL0     H21763   5.413   5.591  10.591 -0.7877 -0.7081  0.4570
  165MOL0     H21764   5.695   5.916  10.448  0.5688 -0.4517 -0.7375
  165MOL0     H21765   5.920   5.973  10.422  0.2745 -0.6052 -0.0659
  165MOL0     H21766   7.670   5.190  10.178 -2.4838  0.7868  1.1372
  165MOL0     H21767   7.884   5.057  10.205 -0.3416 -0.6193 -0.4707
  165MOL0     H21768   8.139   4.699  10.711 -1.9141  1.4797 -0.1756
  165MOL0     H21769   8.382   4.669  10.752 -1.7113 -3.1752 -1.7609
  165MOL0     H21770   8.750   4.717  10.676  0.7250 -1.9040  2.4173
  165MOL0     H21771   8.597   4.655  10.746  0.3745 -0.7119 -0.1507
  165MOL0     H21772   8.572   4.875  10.856  0.3873  1.1265  0.1977
  165MOL0     H21773   8.721   4.800  10.915  0.0662  0.6215  0.5296
  165MOL0     H21774   8.683   5.022  10.700 -1.7451 -0.5565 -0.2956
  165MOL0     H21775   8.840   4.954  10.744  1.2874  1.3462 -0.3445
  165MOL0     H21776   8.817   5.153  10.850  0.6962 -1.0711 -1.4734
  165MOL0     H21777   8.652   5.131  10.910  0.4723 -0.6952  1.4844
  165MOL0     H21778   8.839   4.892  11.210  0.8364  1.7273  0.2248
  165MOL0     H21779   8.466   4.909  10.411  0.6023  1.0455  1.3011
  165MOL0     H21780   8.222   4.945  10.363 -1.3994 -0.8877 -0.0996
  166MOL0     O21781   7.613   7.537   1.532  0.0697 -0.0432  0.0181
  166MOL0     C21782   7.623   7.514   1.653 -0.1611 -0.1068  0.3947
  166MOL0     O21783   7.522   7.515   1.752 -0.8102  0.0528 -0.5380
  166MOL0     C21784   7.394   7.563   1.734  0.5716  0.7032  0.3938
  166MOL0     C21785   7.321   7.499   1.633  0.5387  0.3228 -0.3925
  166MOL0     C21786   7.199   7.558   1.596 -0.2169  0.7075 -0.2967
  166MOL0     C21787   7.149   7.666   1.667  0.2563  0.6388 -0.2996
  166MOL0     O21788   7.023   7.713   1.624 -0.0380 -0.1008  0.4053
  166MOL0     C21789   6.972   7.836   1.671 -0.2390 -0.1501 -0.1068
  166MOL0     C21790   6.853   7.825   1.765 -0.3331 -0.6600  0.1333
  166MOL0     C21791   6.769   7.958   1.759 -1.2454 -0.1695  0.3794
  166MOL0     C21792   6.631   7.936   1.820  0.3315 -0.1762 -0.1125
  166MOL0     C21793   6.529   8.050   1.817  0.4475  0.1076 -0.0466
  166MOL0     C21794   6.391   8.007   1.865 -0.2797 -0.2206  0.6346
  166MOL0     C21795   6.283   8.105   1.817 -1.2871  0.2008  0.5599
  166MOL0     C21796   6.149   8.056   1.852  0.1220 -0.9319  0.4842
  166MOL0     N21797   6.048   8.158   1.821 -0.2925 -0.0698 -0.5167
  166MOL0     C21798   5.950   8.160   1.726 -0.3822  0.3598  0.4539
  166MOL0     C21799   5.874   8.270   1.744  0.0294 -0.9830  0.6136
  166MOL0     C21800   5.768   8.330   1.657 -0.5277  0.5184  0.2272
  166MOL0     C21801   5.622   8.293   1.695 -0.8373  0.3105  0.7525
  166MOL0     C21802   5.529   8.364   1.605 -0.7884  0.4869  0.1936
  166MOL0     C21803   5.388   8.342   1.650  0.1052  0.3895  0.3628
  166MOL0     O21804   5.308   8.449   1.601 -0.2936  1.4962 -0.2342
  166MOL0     C21805   5.179   8.468   1.630 -0.5461  0.6474  0.5824
  166MOL0     C21806   5.109   8.560   1.553  0.2102 -0.1736 -0.6365
  166MOL0     C21807   4.967   8.575   1.563 -0.3126  0.1367 -0.2553
  166MOL0     C21808   4.902   8.488   1.661 -0.0529 -0.6473 -0.1836
  166MOL0     C21809   4.757   8.512   1.661 -0.0574 -0.1964 -0.1879
  166MOL0     O21810   4.688   8.449   1.761 -0.0332 -0.4626  0.3442
  166MOL0     C21811   4.556   8.479   1.791 -0.1656 -0.3185 -0.0368
  166MOL0     C21812   4.526   8.533   1.919  0.4059  0.6104 -0.1040
  166MOL0     C21813   4.388   8.562   1.940 -0.6075 -0.0590 -0.6235
  166MOL0     C21814   4.287   8.531   1.859  0.3633 -0.1349  0.6322
  166MOL0     O21815   4.163   8.550   1.912  0.3362 -0.0248  0.0442
  166MOL0     C21816   4.033   8.519   1.841 -0.4108 -0.6127 -0.3811
  166MOL0     C21817   3.917   8.535   1.935  0.0057 -0.2569 -0.0543
  166MOL0     C21818   3.785   8.511   1.862 -0.0512 -0.3895  0.4805
  166MOL0     C21819   3.665   8.553   1.947 -0.0221  0.1635 -0.5670
  166MOL0     C21820   3.540   8.490   1.878 -0.6107  0.0902  0.1019
  166MOL0     C21821   3.411   8.520   1.946 -0.4001 -0.1171 -0.1677
  166MOL0     C21822   3.294   8.495   1.845  0.1353  0.1601  0.7758
  166MOL0     C21823   3.161   8.460   1.919 -0.2519  0.3666  0.4860
  166MOL0    Cl21824   3.029   8.412   1.800 -0.1496 -0.4139 -0.4421
  166MOL0     C21825   4.314   8.489   1.730 -0.4722  0.0748 -0.7620
  166MOL0     C21826   4.449   8.461   1.701  0.5520 -0.0652 -0.3096
  166MOL0     O21827   4.702   8.567   1.571  0.0570 -0.1023  0.0522
  166MOL0     C21828   4.971   8.390   1.739  0.7688 -0.4760  0.3579
  166MOL0     C21829   5.111   8.395   1.728  0.5062  0.2036 -0.8637
  166MOL0     N21830   5.926   8.330   1.861  0.2637  0.5991  0.2546
  166MOL0     N21831   6.028   8.266   1.901 -0.2846  0.0910  0.2630
  166MOL0     C21832   7.218   7.718   1.777 -0.7059 -0.1880  0.2905
  166MOL0     C21833   7.340   7.663   1.811 -0.1707  0.7698 -0.4792
  166MOL0     C21834   7.763   7.464   1.694  0.0716  0.0897  0.2889
  166MOL0     C21835   7.867   7.470   1.600  0.4216 -0.4997  0.5497
  166MOL0     C21836   7.984   7.397   1.625 -0.9972 -0.5822 -1.0691
  166MOL0     C21837   8.004   7.323   1.744  0.0734  0.3763 -0.1116
  166MOL0     O21838   8.115   7.259   1.765 -0.4188  0.8341  0.1353
  166MOL0     C21839   8.139   7.175   1.884  1.0945  0.2729  0.1591
  166MOL0     C21840   8.228   7.250   1.981  0.0160  0.8074 -0.7641
  166MOL0     C21841   8.146   7.351   2.055 -0.1457 -0.6221  0.0936
  166MOL0     C21842   8.240   7.420   2.159  0.8391 -0.1387 -0.4093
  166MOL0     C21843   8.170   7.501   2.253 -0.0269  0.8017  0.3061
  166MOL0     C21844   8.109   7.571   2.333 -0.6846  0.0622  0.3388
  166MOL0     C21845   7.897   7.317   1.838  0.5651 -0.7674 -0.7809
  166MOL0     C21846   7.778   7.392   1.812 -0.4437  0.4667 -0.1900
  166MOL0     H21847   7.359   7.417   1.574 -3.6768 -2.6725  0.6206
  166MOL0     H21848   7.137   7.509   1.522  0.8293  1.4091 -1.6844
  166MOL0     H21849   6.932   7.878   1.578  0.1445 -2.3935 -1.3488
  166MOL0     H21850   7.050   7.906   1.703 -0.2793  1.3429 -2.9413
  166MOL0     H21851   6.887   7.791   1.863  0.4859 -0.7057 -0.1600
  166MOL0     H21852   6.782   7.749   1.732 -2.9930  1.5489  0.3154
  166MOL0     H21853   6.744   7.978   1.655 -1.8430  0.3756  0.6176
  166MOL0     H21854   6.816   8.052   1.790 -3.0789  0.6333  0.8189
  166MOL0     H21855   6.593   7.851   1.763  1.5199  0.6939 -2.3836
  166MOL0     H21856   6.633   7.892   1.920  1.4889  0.6902  0.2676
  166MOL0     H21857   6.513   8.086   1.715  1.7838  2.3031  0.4461
  166MOL0     H21858   6.569   8.140   1.866  1.6478  0.1583 -1.0672
  166MOL0     H21859   6.384   7.988   1.972  0.7346  1.9318  1.1402
  166MOL0     H21860   6.378   7.909   1.818 -3.6552  0.7773 -0.8385
  166MOL0     H21861   6.297   8.209   1.847 -1.8611  1.3829 -2.7930
  166MOL0     H21862   6.277   8.103   1.707  2.1117 -0.2096  0.2469
  166MOL0     H21863   6.138   8.042   1.960 -1.9727  1.2508  0.6340
  166MOL0     H21864   6.136   7.965   1.792 -0.5402 -1.1210  0.9010
  166MOL0     H21865   5.952   8.088   1.646  2.5471 -1.0320  1.6387
  166MOL0     H21866   5.791   8.309   1.552 -4.1504 -0.4896 -0.4773
  166MOL0     H21867   5.774   8.439   1.667  1.0244  0.4598  0.1797
  166MOL0     H21868   5.602   8.301   1.803 -1.0535  1.9410  0.6161
  166MOL0     H21869   5.610   8.188   1.668 -1.1941  0.1989  1.3285
  166MOL0     H21870   5.555   8.470   1.603  4.3402 -0.4671 -2.2423
  166MOL0     H21871   5.545   8.327   1.503  0.5958  1.7310 -0.0832
  166MOL0     H21872   5.389   8.344   1.760 -1.8765  2.3185  0.4141
  166MOL0     H21873   5.359   8.246   1.606  1.3932 -0.4661  1.3143
  166MOL0     H21874   5.145   8.636   1.485 -0.8475 -0.4030 -1.4979
  166MOL0     H21875   4.918   8.653   1.507 -0.5293 -0.3917 -0.8105
  166MOL0     H21876   4.608   8.537   1.990  0.2654 -2.3789  0.3700
  166MOL0     H21877   4.362   8.587   2.043  0.2331 -2.7092  0.3256
  166MOL0     H21878   4.026   8.417   1.802 -0.4520 -0.5334 -0.5815
  166MOL0     H21879   4.018   8.590   1.760 -0.6844 -1.3012 -0.9367
  166MOL0     H21880   3.929   8.628   1.992 -0.6149 -0.9148  1.1992
  166MOL0     H21881   3.934   8.446   1.996  2.8144 -0.8603 -1.5248
  166MOL0     H21882   3.789   8.408   1.825 -1.3655  0.1544 -1.3225
  166MOL0     H21883   3.794   8.582   1.779  3.0255 -1.5865 -0.3734
  166MOL0     H21884   3.670   8.517   2.049 -1.9769 -0.7695 -0.7566
  166MOL0     H21885   3.655   8.662   1.953  1.1595  0.1926  1.3596
  166MOL0     H21886   3.561   8.383   1.882  1.6667  0.5327  1.4761
  166MOL0     H21887   3.525   8.526   1.776 -2.6432  1.2862  0.7580
  166MOL0     H21888   3.407   8.621   1.987 -0.1457 -0.9633  2.0398
  166MOL0     H21889   3.399   8.454   2.032  1.3464  0.6011  0.6692
  166MOL0     H21890   3.287   8.580   1.777 -1.7544 -1.9887 -1.8808
  166MOL0     H21891   3.309   8.403   1.789 -2.4653 -0.5327  1.0984
  166MOL0     H21892   3.125   8.538   1.987 -0.5590 -0.5589  1.4026
  166MOL0     H21893   3.169   8.369   1.979  1.1259 -1.4496 -2.2405
  166MOL0     H21894   4.243   8.467   1.651 -0.3808 -0.0389 -0.8132
  166MOL0     H21895   4.466   8.419   1.602  2.7860 -0.7077  0.2935
  166MOL0     H21896   4.930   8.316   1.807  2.4825 -0.3076  1.6468
  166MOL0     H21897   5.164   8.320   1.785  0.8853 -0.8786 -2.5397
  166MOL0     H21898   7.184   7.806   1.832 -0.4252  1.0880 -1.5045
  166MOL0     H21899   7.389   7.704   1.899 -1.4827  0.2072  0.5425
  166MOL0     H21900   7.846   7.530   1.512 -0.2119  0.9431  1.6402
  166MOL0     H21901   8.065   7.395   1.553  1.1337 -0.6772  1.2379
  166MOL0     H21902   8.201   7.094   1.845  0.3037 -1.1646  1.7865
  166MOL0     H21903   8.051   7.126   1.926 -0.8848  3.5982  0.2664
  166MOL0     H21904   8.286   7.184   2.047 -1.0407  0.3397 -0.2910
  166MOL0     H21905   8.299   7.300   1.914  1.1733 -1.8819 -1.6978
  166MOL0     H21906   8.058   7.301   2.095 -0.7068 -0.0523 -0.4095
  166MOL0     H21907   8.111   7.427   1.984  0.7577 -0.6252 -0.3773
  166MOL0     H21908   8.292   7.341   2.213  0.2952 -2.5160 -3.0781
  166MOL0     H21909   8.316   7.473   2.101  3.0474 -2.4841  0.1774
  166MOL0     H21910   8.051   7.647   2.381 -1.7150  1.0564 -2.3017
  166MOL0     H21911   7.901   7.261   1.931 -3.2147  0.9015  0.5997
  166MOL0     H21912   7.698   7.379   1.884  0.2212 -2.7900  0.1093
  167MOL0     O21913  11.204   0.473   8.979 -0.2284 -0.8836 -1.2308
  167MOL0     C21914  11.268   0.378   8.936  0.2189  0.0682 -0.1813
  167MOL0     O21915  11.218   0.263   8.872 -1.0771 -0.1465 -0.0077
  167MOL0     C21916  11.086   0.230   8.881 -0.0902  0.3658  0.2687
  167MOL0     C21917  11.023   0.216   8.754 -0.3545  0.0882 -1.1710
  167MOL0     C21918  10.883   0.211   8.750 -0.1094 -0.4362 -0.2149
  167MOL0     C21919  10.808   0.195   8.873  0.2961  0.4343 -0.2004
  167MOL0     O21920  10.681   0.171   8.860 -0.1241 -0.2365 -0.6159
  167MOL0     C21921  10.593   0.199   8.974 -0.9336 -0.2687  0.7258
  167MOL0     C21922  10.453   0.192   8.912  0.6242 -1.1868 -0.3066
  167MOL0     C21923  10.336   0.216   9.010 -0.2706 -0.5600  0.2983
  167MOL0     C21924  10.204   0.205   8.937 -0.2479 -0.0830 -0.2056
  167MOL0     C21925  10.097   0.226   9.040  0.8428 -0.5575 -0.7643
  167MOL0     C21926   9.966   0.249   8.973  0.3178 -0.1523 -0.0574
  167MOL0     C21927   9.869   0.292   9.081 -0.6571  0.2312 -0.1604
  167MOL0     C21928   9.811   0.171   9.162 -0.5258  0.0529  0.1302
  167MOL0     N21929   9.665   0.175   9.181  0.5089 -1.1012 -0.5114
  167MOL0     C21930   9.565   0.181   9.089 -0.0135 -0.2971 -0.1703
  167MOL0     C21931   9.449   0.199   9.160 -0.2331 -0.4992  0.0667
  167MOL0     C21932   9.311   0.195   9.092  0.2036 -0.0388  0.7772
  167MOL0     C21933   9.232   0.073   9.132  0.1157 -0.4174 -1.0061
  167MOL0     C21934   9.090   0.065   9.068 -0.2712 -0.4277 -0.2216
  167MOL0     C21935   9.009  -0.048   9.119 -0.5637  0.5482 -0.5824
  167MOL0     O21936   8.892  -0.068   9.032  0.4202  0.1448 -0.4909
  167MOL0     C21937   8.782   0.018   9.040  0.0519 -0.5673 -0.2271
  167MOL0     C21938   8.762   0.110   9.144  0.2734 -0.2653  0.0613
  167MOL0     C21939   8.642   0.182   9.151  0.2702 -0.5273  0.6218
  167MOL0     C21940   8.541   0.164   9.055  0.4894  0.2119 -0.0853
  167MOL0     C21941   8.406   0.220   9.073  0.0537 -0.1871 -0.0124
  167MOL0     O21942   8.311   0.190   8.983 -0.5530 -0.6184  0.0201
  167MOL0     C21943   8.184   0.251   8.991 -0.4925 -0.1096  0.2639
  167MOL0     C21944   8.068   0.161   8.978 -0.8269 -0.4856  0.7822
  167MOL0     C21945   7.945   0.217   8.973  0.9524 -0.2346 -0.0360
  167MOL0     C21946   7.916   0.349   9.003  0.6658 -0.4691 -0.9750
  167MOL0     O21947   7.783   0.391   9.017 -0.3888  0.0531 -0.1672
  167MOL0     C21948   7.745   0.488   9.112 -1.7501  0.1423  0.4022
  167MOL0     C21949   7.588   0.501   9.104 -0.4448  0.0881 -0.5055
  167MOL0     C21950   7.525   0.364   9.129 -0.1196  0.2608 -0.5471
  167MOL0     C21951   7.379   0.382   9.155 -0.2501  0.3580  0.3760
  167MOL0     C21952   7.312   0.251   9.196  0.1845  0.2659 -0.0943
  167MOL0     C21953   7.164   0.279   9.229  0.4943 -0.5738  0.3622
  167MOL0     C21954   7.069   0.155   9.231 -0.1178  0.2090  0.6730
  167MOL0     C21955   6.931   0.189   9.286 -0.6584  0.4577 -0.2510
  167MOL0    Cl21956   6.940   0.223   9.461  0.4563 -0.3259  0.0054
  167MOL0     C21957   8.023   0.433   9.014  0.1640  0.6521  0.3598
  167MOL0     C21958   8.160   0.393   9.002 -0.0560 -0.1563 -0.7612
  167MOL0     O21959   8.396   0.297   9.171  0.1719  0.0304  0.1755
  167MOL0     C21960   8.564   0.077   8.952 -0.5959  0.2067  0.4092
  167MOL0     C21961   8.681   0.004   8.947 -0.9262 -0.3048 -0.3463
  167MOL0     N21962   9.478   0.206   9.294  0.0110  0.2073 -0.7038
  167MOL0     N21963   9.612   0.204   9.304 -0.4120  0.1381  0.1360
  167MOL0     C21964  10.876   0.213   8.997 -0.4828  0.7888 -0.7178
  167MOL0     C21965  11.013   0.240   8.996 -1.1358 -0.5722 -0.4065
  167MOL0     C21966  11.418   0.386   8.959  0.6377 -0.2988 -0.0833
  167MOL0     C21967  11.500   0.284   8.911  0.0983  0.1831  0.1577
  167MOL0     C21968  11.639   0.272   8.933  0.9056  0.1492  0.0005
  167MOL0     C21969  11.706   0.378   8.990 -0.2139  0.1788  0.0798
  167MOL0     O21970  11.843   0.359   9.016 -0.0917  0.2561  0.3998
  167MOL0     C21971  11.890   0.414   9.141  0.7588  0.7133  0.6073
  167MOL0     C21972  12.033   0.373   9.151  0.7615 -0.0625  0.7800
  167MOL0     C21973  12.103   0.457   9.257  0.5510 -0.5911 -0.0705
  167MOL0     C21974  12.125   0.609   9.237  0.9047 -0.7145 -0.2096
  167MOL0     C21975  12.224   0.672   9.319 -0.3244 -0.4888 -1.4158
  167MOL0     C21976  12.314   0.728   9.381 -0.3179  0.1464  1.3020
  167MOL0     C21977  11.628   0.487   9.032 -0.9621  0.6349 -0.0245
  167MOL0     C21978  11.488   0.491   9.021  1.0449  0.1764  0.1612
  167MOL0     H21979  11.087   0.211   8.667  1.1714  0.5243 -0.1252
  167MOL0     H21980  10.823   0.202   8.660 -3.7737  0.4578  1.9095
  167MOL0     H21981  10.621   0.301   9.000  0.6142  0.4469 -3.0535
  167MOL0     H21982  10.603   0.126   9.055  0.3405  2.1586  2.8690
  167MOL0     H21983  10.444   0.097   8.859 -0.5352 -0.8185 -0.7998
  167MOL0     H21984  10.458   0.270   8.834 -0.3455  0.5411  1.2821
  167MOL0     H21985  10.351   0.313   9.057  3.2932 -0.6471 -0.3309
  167MOL0     H21986  10.340   0.131   9.079  2.0952 -1.9344 -1.3684
  167MOL0     H21987  10.195   0.277   8.855  1.1818  0.1612 -0.1759
  167MOL0     H21988  10.184   0.109   8.888  1.8402  0.4300 -2.2261
  167MOL0     H21989  10.132   0.315   9.094 -0.3677 -0.6781  0.2496
  167MOL0     H21990  10.091   0.142   9.110 -2.4832  0.1363 -0.0828
  167MOL0     H21991   9.929   0.155   8.930 -1.9010 -0.7196  2.8213
  167MOL0     H21992   9.988   0.311   8.885  2.6035 -2.1569 -1.0247
  167MOL0     H21993   9.906   0.356   9.162 -1.9672 -1.7253  2.1352
  167MOL0     H21994   9.789   0.351   9.037 -0.1603 -0.4240 -2.0084
  167MOL0     H21995   9.857   0.158   9.260  0.3393 -0.0014 -0.2767
  167MOL0     H21996   9.820   0.082   9.099 -3.6122  0.1407 -0.5955
  167MOL0     H21997   9.582   0.164   8.983  3.5160 -1.8039  0.4854
  167MOL0     H21998   9.311   0.197   8.983  0.7958  0.4550  0.7808
  167MOL0     H21999   9.252   0.282   9.122  0.0259 -0.1798  0.8384
  167MOL0     H22000   9.228   0.079   9.241  3.1964  0.4961 -0.8396
  167MOL0     H22001   9.287  -0.021   9.120  1.4104 -0.3926  3.0828
  167MOL0     H22002   9.034   0.157   9.085 -0.1585 -0.2128 -1.0112
  167MOL0     H22003   9.095   0.054   8.960 -2.8164  2.2491 -0.7446
  167MOL0     H22004   8.989  -0.037   9.226  0.8703 -0.8492 -0.1188
  167MOL0     H22005   9.077  -0.134   9.120  0.1744  1.1249  0.3956
  167MOL0     H22006   8.833   0.136   9.221  0.3744  0.4013 -0.2425
  167MOL0     H22007   8.635   0.257   9.229  0.7835 -0.6512  0.7918
  167MOL0     H22008   8.082   0.057   8.951  0.7861  0.3233 -1.9122
  167MOL0     H22009   7.852   0.161   8.967 -0.7500  2.3214  0.5687
  167MOL0     H22010   7.778   0.588   9.082 -0.0791 -0.3626  0.4497
  167MOL0     H22011   7.774   0.450   9.210  2.5992 -1.5020 -1.2829
  167MOL0     H22012   7.567   0.528   9.000 -0.1669  2.0035 -0.1159
  167MOL0     H22013   7.544   0.567   9.180 -1.7578 -1.1723 -0.1350
  167MOL0     H22014   7.579   0.312   9.208  1.2626  1.8534 -0.3844
  167MOL0     H22015   7.532   0.298   9.042 -1.7457  0.4229 -0.8315
  167MOL0     H22016   7.361   0.452   9.237 -0.7864 -1.4095  1.8320
  167MOL0     H22017   7.335   0.429   9.066  0.3237  0.6149  0.2201
  167MOL0     H22018   7.360   0.204   9.282 -1.1999 -0.5164  0.2806
  167MOL0     H22019   7.325   0.191   9.106  0.6670  0.9506 -0.4941
  167MOL0     H22020   7.133   0.353   9.155  1.4477 -0.9260 -0.4128
  167MOL0     H22021   7.150   0.324   9.328 -0.6104  0.3966 -0.2209
  167MOL0     H22022   7.056   0.137   9.124 -0.6704  2.0210  0.3985
  167MOL0     H22023   7.116   0.071   9.283 -0.2198 -2.3408 -2.9655
  167MOL0     H22024   6.862   0.106   9.266 -0.8277  0.9376 -1.7188
  167MOL0     H22025   6.892   0.273   9.227 -1.9716 -1.1694 -1.8103
  167MOL0     H22026   7.998   0.539   9.021 -0.4212  0.8425 -3.0260
  167MOL0     H22027   8.232   0.474   8.992 -0.1524  0.1732  0.9040
  167MOL0     H22028   8.488   0.054   8.878  1.7298 -1.6179 -1.6212
  167MOL0     H22029   8.705  -0.070   8.871 -0.8806 -1.4057  0.7076
  167MOL0     H22030  10.845   0.192   9.099  1.2417 -1.4632 -0.5922
  167MOL0     H22031  11.055   0.271   9.091 -1.7854 -0.0426 -0.2907
  167MOL0     H22032  11.456   0.209   8.845  2.5743 -2.4718  1.3247
  167MOL0     H22033  11.703   0.188   8.909  2.6178  2.0888 -2.7778
  167MOL0     H22034  11.830   0.372   9.222 -0.1101 -0.9562 -0.8512
  167MOL0     H22035  11.874   0.522   9.145  1.3817  0.8481 -0.2064
  167MOL0     H22036  12.035   0.265   9.173  2.0529 -0.3441 -0.5951
  167MOL0     H22037  12.080   0.394   9.055  0.6123 -3.7289 -0.2699
  167MOL0     H22038  12.195   0.408   9.292  2.2118  0.5884 -2.5155
  167MOL0     H22039  12.034   0.453   9.342 -0.3725  2.5303 -0.5489
  167MOL0     H22040  12.150   0.625   9.131  0.4608 -2.0510 -0.5396
  167MOL0     H22041  12.022   0.644   9.247 -0.3050 -3.5481 -1.6769
  167MOL0     H22042  12.406   0.759   9.425  1.4955 -0.2460 -1.9233
  167MOL0     H22043  11.689   0.568   9.072 -1.0544  0.8004 -0.2159
  167MOL0     H22044  11.437   0.576   9.066 -1.6684 -0.5184 -1.3607
  168MOL0     O22045  10.662  10.453   1.870 -0.9345 -0.7481 -0.1590
  168MOL0     C22046  10.618  10.391   1.966 -0.1497  1.1998 -0.1223
  168MOL0     O22047  10.663  10.397   2.094 -0.0059  0.2136  0.4582
  168MOL0     C22048  10.765  10.478   2.119  0.1996  0.1495 -1.0156
  168MOL0     C22049  10.881  10.428   2.182 -0.6634 -0.3870  0.1554
  168MOL0     C22050  10.985  10.512   2.229  0.2616 -0.7240  0.0802
  168MOL0     C22051  10.968  10.653   2.214  0.3453 -0.2188 -0.0479
  168MOL0     O22052  11.057  10.753   2.235  0.2797 -0.0605 -0.0561
  168MOL0     C22053  11.179  10.720   2.307  0.0719  0.0048 -0.0095
  168MOL0     C22054  11.251  10.844   2.352 -0.0653  0.0849  0.3726
  168MOL0     C22055  11.387  10.819   2.401 -0.2396  0.9825 -0.5295
  168MOL0     C22056  11.463  10.946   2.451  0.1465  1.0665  0.1233
  168MOL0     C22057  11.584  10.908   2.535 -0.5685 -0.4646 -0.3370
  168MOL0     C22058  11.652  11.033   2.602  0.1378  0.3039 -0.2131
  168MOL0     C22059  11.732  11.121   2.508 -0.2479  0.1243  0.5787
  168MOL0     C22060  11.823  11.220   2.574  0.1292 -0.3499 -0.0771
  168MOL0     N22061  11.736  11.308   2.655 -0.9038 -0.0640 -0.0478
  168MOL0     C22062  11.679  11.427   2.606 -0.2480  0.4213  0.2405
  168MOL0     C22063  11.601  11.478   2.705  0.4788  0.2426 -0.3972
  168MOL0     C22064  11.497  11.586   2.682 -0.5166 -0.4442 -0.4550
  168MOL0     C22065  11.351  11.546   2.715  1.0986 -0.1304 -0.5216
  168MOL0     C22066  11.271  11.473   2.607 -0.1271 -0.1776  0.4638
  168MOL0     C22067  11.325  11.333   2.577  0.1326 -0.4136  0.2958
  168MOL0     O22068  11.242  11.269   2.476  0.7849 -0.1460 -0.8007
  168MOL0     C22069  11.119  11.212   2.513 -0.1327  0.1733 -0.7190
  168MOL0     C22070  11.068  11.218   2.648 -0.1278  0.1608 -0.2282
  168MOL0     C22071  10.936  11.180   2.675 -0.0052 -0.2734  0.3936
  168MOL0     C22072  10.850  11.133   2.572  0.1273  0.0696 -0.4756
  168MOL0     C22073  10.708  11.104   2.608 -0.6261  0.2608 -0.2504
  168MOL0     O22074  10.630  11.070   2.509  0.4288 -0.2418  0.6181
  168MOL0     C22075  10.499  11.038   2.533 -0.5635  0.4930 -0.4666
  168MOL0     C22076  10.408  11.105   2.446 -0.4818  0.6859 -0.6500
  168MOL0     C22077  10.275  11.069   2.456 -0.0987 -0.3435  0.1642
  168MOL0     C22078  10.224  10.995   2.562  0.2149  0.5760 -1.0887
  168MOL0     O22079  10.093  10.954   2.580  0.1526 -0.5414 -0.1801
  168MOL0     C22080   9.985  11.010   2.510  0.5801 -0.2552 -0.3988
  168MOL0     C22081   9.899  10.887   2.472  0.2904  0.1755 -0.2115
  168MOL0     C22082   9.978  10.771   2.399 -0.1282 -0.4351  0.9766
  168MOL0     C22083   9.896  10.650   2.368  0.0105  0.0930  0.3148
  168MOL0     C22084   9.764  10.620   2.443  0.7918 -0.0808  0.4178
  168MOL0     C22085   9.711  10.488   2.389  0.3435  0.4393  1.0230
  168MOL0     C22086   9.588  10.426   2.456 -0.5482 -0.2868  0.1177
  168MOL0     C22087   9.534  10.296   2.389  0.5539  0.1840  0.2475
  168MOL0    Cl22088   9.507  10.316   2.210  0.0221  0.0286 -0.1056
  168MOL0     C22089  10.307  10.953   2.657 -0.7435  0.2894 -0.4735
  168MOL0     C22090  10.447  10.968   2.642 -0.3295  0.0539  1.0868
  168MOL0     O22091  10.678  11.114   2.727  0.2973  0.2617  0.4288
  168MOL0     C22092  10.901  11.124   2.440  0.2344  0.2198  0.4945
  168MOL0     C22093  11.033  11.167   2.412  0.5926 -0.8835  0.0001
  168MOL0     N22094  11.634  11.394   2.820  0.5832 -0.2053 -0.0378
  168MOL0     N22095  11.713  11.303   2.785  0.3084  0.2457 -0.8963
  168MOL0     C22096  10.848  10.704   2.164 -0.2725 -1.1823  0.9174
  168MOL0     C22097  10.750  10.616   2.108 -0.5438 -0.3685 -0.2469
  168MOL0     C22098  10.511  10.290   1.940  0.5393 -0.5248 -0.3734
  168MOL0     C22099  10.464  10.274   1.809  0.0204 -0.5922  0.1019
  168MOL0     C22100  10.366  10.174   1.782 -0.0911  0.4759  0.1052
  168MOL0     C22101  10.324  10.084   1.888  0.1497 -0.7114  0.2065
  168MOL0     O22102  10.237   9.980   1.883  0.4586 -0.0741  0.1679
  168MOL0     C22103  10.176   9.941   1.760 -0.0523 -0.0842  0.2652
  168MOL0     C22104  10.117   9.798   1.770  0.2095 -0.2211  0.0579
  168MOL0     C22105  10.071   9.741   1.634 -0.6572 -0.5081 -0.5281
  168MOL0     C22106   9.937   9.790   1.589 -0.6915  1.2306 -0.4959
  168MOL0     C22107   9.902   9.729   1.462 -0.3119 -0.3729  0.6739
  168MOL0     C22108   9.868   9.695   1.353  1.2177  0.2168  0.1599
  168MOL0     C22109  10.374  10.100   2.017 -0.4669  0.4347 -0.2278
  168MOL0     C22110  10.460  10.210   2.046  0.2624 -0.2394  0.7219
  168MOL0     H22111  10.886  10.323   2.209 -0.7525 -0.5766 -0.5431
  168MOL0     H22112  11.064  10.465   2.287 -1.7781 -1.8805  2.0981
  168MOL0     H22113  11.238  10.664   2.234 -0.5482  0.5974 -0.9801
  168MOL0     H22114  11.171  10.651   2.392  0.4387 -1.5270 -1.1737
  168MOL0     H22115  11.182  10.884   2.427 -0.4302  2.7046 -1.2546
  168MOL0     H22116  11.255  10.908   2.264 -0.2325 -0.1459  0.1924
  168MOL0     H22117  11.449  10.770   2.325 -1.8253 -1.4079 -0.3782
  168MOL0     H22118  11.379  10.748   2.484 -2.3442  3.3012  1.4132
  168MOL0     H22119  11.487  11.006   2.363  0.2432  2.1092  0.8522
  168MOL0     H22120  11.383  10.993   2.508 -1.1951  0.1912 -0.9599
  168MOL0     H22121  11.658  10.863   2.468  0.4219 -0.0008  0.4240
  168MOL0     H22122  11.559  10.833   2.610  1.7749  0.4506  1.4794
  168MOL0     H22123  11.709  10.991   2.685 -1.5411 -2.3313 -0.2636
  168MOL0     H22124  11.572  11.089   2.652 -0.8005 -0.2348 -1.0653
  168MOL0     H22125  11.798  11.058   2.448 -1.2180 -0.7222  0.3650
  168MOL0     H22126  11.659  11.178   2.449  0.1849 -1.0444 -1.1562
  168MOL0     H22127  11.896  11.272   2.512  1.9651 -0.1845  2.1167
  168MOL0     H22128  11.891  11.172   2.644  0.2367  1.0082  0.7776
  168MOL0     H22129  11.681  11.452   2.500  0.4665 -0.0257  0.1450
  168MOL0     H22130  11.498  11.621   2.579  3.1098 -0.6525 -0.6090
  168MOL0     H22131  11.511  11.663   2.759 -2.0097  0.5981 -1.1812
  168MOL0     H22132  11.297  11.641   2.727  0.4551 -0.5599  0.0842
  168MOL0     H22133  11.353  11.486   2.806 -0.3515  0.3540 -0.1439
  168MOL0     H22134  11.168  11.471   2.642 -0.1670 -1.8642  0.3489
  168MOL0     H22135  11.267  11.542   2.523 -0.7391 -0.7375  0.0215
  168MOL0     H22136  11.333  11.276   2.670  0.2264  0.3774  0.7800
  168MOL0     H22137  11.424  11.331   2.529 -0.7297 -3.9304 -1.6821
  168MOL0     H22138  11.120  11.253   2.736 -0.5507 -2.9511  1.4158
  168MOL0     H22139  10.906  11.189   2.779 -5.1414  0.8220 -0.9072
  168MOL0     H22140  10.452  11.167   2.368  0.9306  1.8214  0.9863
  168MOL0     H22141  10.211  11.120   2.385 -0.8711 -1.0959  0.2908
  168MOL0     H22142  10.023  11.059   2.420  0.9893  0.2829  0.0621
  168MOL0     H22143   9.937  11.087   2.570  1.3704 -1.1550  1.4799
  168MOL0     H22144   9.819  10.921   2.406 -0.8335 -2.4388 -0.3429
  168MOL0     H22145   9.855  10.846   2.564 -2.6592 -3.0587 -2.7573
  168MOL0     H22146  10.062  10.739   2.461  0.7912 -0.0814 -0.0571
  168MOL0     H22147  10.024  10.814   2.310  1.1378 -0.6599  1.5050
  168MOL0     H22148   9.867  10.654   2.263 -0.5511 -4.7666  0.0397
  168MOL0     H22149   9.964  10.565   2.377  0.0967  0.1760  0.4637
  168MOL0     H22150   9.687  10.695   2.425 -0.6704 -1.4978  0.5883
  168MOL0     H22151   9.776  10.612   2.552 -0.5737  0.2584  0.6116
  168MOL0     H22152   9.787  10.410   2.396  2.1595  2.1776  1.8361
  168MOL0     H22153   9.676  10.516   2.289  3.9728  2.2840  0.0829
  168MOL0     H22154   9.622  10.403   2.558  2.2782 -1.2136 -0.9219
  168MOL0     H22155   9.511  10.503   2.459 -0.3148 -0.0443 -0.0684
  168MOL0     H22156   9.434  10.271   2.426  0.6790  0.2059  0.6054
  168MOL0     H22157   9.601  10.212   2.410 -0.8751 -0.2447  3.7300
  168MOL0     H22158  10.274  10.892   2.740  0.6210 -0.5050 -0.4733
  168MOL0     H22159  10.510  10.919   2.716 -0.9758  0.0344  1.6336
  168MOL0     H22160  10.833  11.091   2.362  1.3542  2.3794 -1.5019
  168MOL0     H22161  11.066  11.152   2.309  0.7383 -0.9827  0.0614
  168MOL0     H22162  10.826  10.810   2.173 -1.5242 -1.0299 -2.5740
  168MOL0     H22163  10.652  10.634   2.067 -0.3895 -3.0363 -2.0300
  168MOL0     H22164  10.498  10.335   1.726 -1.3251 -0.8669 -0.6739
  168MOL0     H22165  10.333  10.154   1.681 -0.6637  1.5505  0.0625
  168MOL0     H22166  10.253   9.942   1.682 -2.3562  0.3213 -2.1506
  168MOL0     H22167  10.099  10.009   1.724  0.7875  0.0323 -1.4283
  168MOL0     H22168  10.202   9.736   1.800 -1.0516 -0.2037  4.2774
  168MOL0     H22169  10.045   9.790   1.851 -0.3585  0.4125 -0.3666
  168MOL0     H22170  10.077   9.634   1.657 -0.7369 -0.5108 -0.5164
  168MOL0     H22171  10.151   9.752   1.561  0.9351  2.4944  1.4729
  168MOL0     H22172   9.864   9.764   1.666  0.3849 -0.8282 -0.1219
  168MOL0     H22173   9.941   9.897   1.567 -0.2305  0.5467 -4.4375
  168MOL0     H22174   9.829   9.669   1.256  2.9626 -0.0831 -0.4953
  168MOL0     H22175  10.343  10.030   2.094  0.7601  1.1679  0.9592
  168MOL0     H22176  10.482  10.233   2.150 -0.2761  2.9774  0.2455
  169MOL0     O22177   4.868   9.026  10.975 -0.4456  0.2426 -0.7062
  169MOL0     C22178   4.886   8.903  10.995 -0.4185  0.6147 -0.8096
  169MOL0     O22179   4.786   8.808  11.018 -0.6841 -0.4667  0.5770
  169MOL0     C22180   4.664   8.832  11.075  0.6269 -0.4758 -0.0396
  169MOL0     C22181   4.631   8.951  11.140  0.3394 -0.6831  0.4255
  169MOL0     C22182   4.503   8.972  11.186  0.3237  0.7748 -0.5938
  169MOL0     C22183   4.401   8.874  11.155 -0.4877 -0.2852 -0.3539
  169MOL0     O22184   4.277   8.880  11.205  0.0119 -0.1009 -0.3003
  169MOL0     C22185   4.240   9.002  11.268 -0.3512  0.6657 -0.1440
  169MOL0     C22186   4.088   8.993  11.286 -0.2091  0.3688  0.9722
  169MOL0     C22187   4.009   8.979  11.155 -0.1195 -0.2051  0.5036
  169MOL0     C22188   3.858   8.933  11.171 -1.1979  0.4298 -0.7704
  169MOL0     C22189   3.793   8.913  11.039 -0.1191  0.3843  0.9372
  169MOL0     C22190   3.668   8.821  11.043 -0.0296 -0.7083 -0.5608
  169MOL0     C22191   3.595   8.795  10.923 -0.1637  0.0905  0.3800
  169MOL0     C22192   3.540   8.905  10.842 -0.1533  0.0754 -0.8864
  169MOL0     N22193   3.458   8.849  10.730  0.2654 -0.4635 -1.1903
  169MOL0     C22194   3.337   8.779  10.741  0.1262  0.1319  0.7148
  169MOL0     C22195   3.295   8.770  10.615  0.1123 -1.2196  0.7228
  169MOL0     C22196   3.168   8.707  10.559 -0.0761  0.7294 -0.1720
  169MOL0     C22197   3.166   8.551  10.588 -0.0753  0.8878  1.3651
  169MOL0     C22198   3.139   8.472  10.462 -0.8777  0.2408  0.1599
  169MOL0     C22199   3.152   8.323  10.492  0.0844  0.0416 -0.1873
  169MOL0     O22200   3.065   8.274  10.596 -0.0644 -0.3459  0.0110
  169MOL0     C22201   2.926   8.269  10.566 -0.2595  0.5641 -1.2222
  169MOL0     C22202   2.874   8.229  10.443 -0.9270 -0.9006 -0.5132
  169MOL0     C22203   2.739   8.242  10.421 -0.0845  0.6221  0.4579
  169MOL0     C22204   2.650   8.286  10.528  0.1142  0.2499  0.2549
  169MOL0     C22205   2.503   8.310  10.506 -0.3252  0.0551 -0.6219
  169MOL0     O22206   2.451   8.270  10.388 -0.2918  0.9974 -0.2923
  169MOL0     C22207   2.320   8.292  10.353 -0.0233  0.0768 -0.2126
  169MOL0     C22208   2.241   8.182  10.329 -0.3393 -0.1236  0.1134
  169MOL0     C22209   2.113   8.202  10.293 -0.2976 -0.1514 -0.1894
  169MOL0     C22210   2.059   8.332  10.277  0.6101  0.1169 -0.3171
  169MOL0     O22211   1.930   8.338  10.225 -0.5626  0.7532 -0.2090
  169MOL0     C22212   1.881   8.459  10.159  0.4023  0.2506 -0.5409
  169MOL0     C22213   1.819   8.567  10.257 -0.5868 -0.8399  0.7987
  169MOL0     C22214   1.718   8.652  10.185  1.0072  1.0746 -0.0376
  169MOL0     C22215   1.584   8.564  10.168 -1.0555 -0.1535  0.3181
  169MOL0     C22216   1.486   8.616  10.063  0.6426  0.2131 -0.4422
  169MOL0     C22217   1.358   8.531  10.056  0.0145  0.1028  0.7967
  169MOL0     C22218   1.246   8.598   9.970 -0.2044  0.1508  0.0360
  169MOL0     C22219   1.162   8.691  10.060 -0.1716  0.2346 -0.2550
  169MOL0    Cl22220   1.057   8.801   9.952  0.0843 -0.1424  0.4171
  169MOL0     C22221   2.142   8.444  10.299 -0.1072  0.6394  0.6066
  169MOL0     C22222   2.272   8.421  10.349  1.0654 -0.3031  0.7516
  169MOL0     O22223   2.443   8.374  10.595 -0.4217 -0.3170  0.5856
  169MOL0     C22224   2.702   8.303  10.660 -0.3622 -0.1317 -0.3968
  169MOL0     C22225   2.844   8.294  10.674 -0.8461 -0.8761  0.7301
  169MOL0     N22226   3.364   8.856  10.538  0.0707  0.0966  0.3990
  169MOL0     N22227   3.466   8.900  10.599 -0.0447 -0.0128  0.1112
  169MOL0     C22228   4.425   8.757  11.082  0.5051  0.0110 -0.7455
  169MOL0     C22229   4.559   8.739  11.043  0.8357  0.1386  0.2152
  169MOL0     C22230   5.026   8.836  10.970  0.6273  0.0850  0.5363
  169MOL0     C22231   5.140   8.912  10.962 -1.0298 -0.8052  0.1674
  169MOL0     C22232   5.268   8.856  10.943 -0.0830  0.2765 -0.6592
  169MOL0     C22233   5.281   8.722  10.934  0.3504  0.6435 -0.2218
  169MOL0     O22234   5.398   8.647  10.916  0.6280 -0.0153  0.4039
  169MOL0     C22235   5.521   8.705  10.873  0.2490  0.0845  0.1808
  169MOL0     C22236   5.579   8.771  10.998  0.2790  0.4564  0.1335
  169MOL0     C22237   5.693   8.690  11.053 -1.7256 -0.1363 -0.1688
  169MOL0     C22238   5.827   8.683  10.961 -0.2627 -0.7444 -0.2371
  169MOL0     C22239   5.899   8.807  10.970  0.2008  0.3614 -0.0011
  169MOL0     C22240   5.969   8.906  10.989  0.4920  1.0277 -0.6270
  169MOL0     C22241   5.165   8.645  10.945 -0.2311  0.2128  0.0105
  169MOL0     C22242   5.039   8.696  10.948  0.0035 -1.4135  0.3808
  169MOL0     H22243   4.704   9.025  11.170  0.1038 -0.3789  0.2672
  169MOL0     H22244   4.489   9.070  11.230 -1.9765  1.1978 -2.1031
  169MOL0     H22245   4.260   9.088  11.204  1.5757 -0.1187 -0.6485
  169MOL0     H22246   4.285   9.015  11.367  3.8054 -0.3968 -1.7010
  169MOL0     H22247   4.049   9.088  11.324 -2.0461  1.0025 -2.1154
  169MOL0     H22248   4.066   8.914  11.359  0.4724  0.4235  1.2370
  169MOL0     H22249   4.061   8.910  11.087 -1.5195 -0.3030 -0.5235
  169MOL0     H22250   4.009   9.072  11.098 -0.8902  0.2447  1.2264
  169MOL0     H22251   3.849   8.831  11.210 -2.0096  0.3298 -1.1835
  169MOL0     H22252   3.817   9.007  11.240  1.2237  1.7539 -0.6555
  169MOL0     H22253   3.857   8.877  10.958 -3.1343 -0.4609 -1.2357
  169MOL0     H22254   3.773   9.016  11.008  1.8252  0.4745 -0.1560
  169MOL0     H22255   3.596   8.858  11.117 -0.6345 -2.6608 -0.1275
  169MOL0     H22256   3.705   8.725  11.079 -1.1161 -1.4762 -1.4432
  169MOL0     H22257   3.656   8.731  10.859 -1.3593 -1.4284  0.7136
  169MOL0     H22258   3.507   8.737  10.954 -1.2032  0.7694 -1.1648
  169MOL0     H22259   3.614   8.977  10.807  0.6214 -1.5347 -2.7995
  169MOL0     H22260   3.462   8.954  10.901  1.5571  0.4986  1.1489
  169MOL0     H22261   3.286   8.732  10.825 -0.5405 -2.3039 -0.9376
  169MOL0     H22262   3.167   8.732  10.453 -0.2338 -5.0663 -1.8660
  169MOL0     H22263   3.075   8.751  10.598 -2.1622 -0.5518 -3.2520
  169MOL0     H22264   3.081   8.537  10.655 -0.9321  2.1159  0.5881
  169MOL0     H22265   3.258   8.514  10.632  2.2301  1.9312 -2.1427
  169MOL0     H22266   3.036   8.491  10.430 -0.5355  2.0997  0.0572
  169MOL0     H22267   3.201   8.507  10.379 -2.4370  2.8722 -0.0284
  169MOL0     H22268   3.255   8.301  10.523  0.0014  0.8498  0.6892
  169MOL0     H22269   3.147   8.263  10.401  0.5551 -0.4372  0.0920
  169MOL0     H22270   2.937   8.195  10.362  0.3820  2.3186 -0.9919
  169MOL0     H22271   2.698   8.212  10.325  1.0962  1.5871 -0.3894
  169MOL0     H22272   2.282   8.081  10.334 -1.7452 -0.7952 -1.1176
  169MOL0     H22273   2.059   8.111  10.269 -0.3257  0.3815 -2.3906
  169MOL0     H22274   1.808   8.417  10.090  1.2805 -1.4931 -0.4765
  169MOL0     H22275   1.966   8.509  10.113  0.2603  1.3215  0.3138
  169MOL0     H22276   1.901   8.637  10.278 -0.2878 -0.8920 -0.1389
  169MOL0     H22277   1.791   8.509  10.346 -1.8848 -1.6914 -0.1335
  169MOL0     H22278   1.753   8.694  10.090 -1.2604  2.4513 -0.3311
  169MOL0     H22279   1.692   8.733  10.254 -2.0179 -1.3071  1.8485
  169MOL0     H22280   1.607   8.465  10.125  0.1673  0.5055 -0.6308
  169MOL0     H22281   1.538   8.553  10.266 -1.3709  0.2832  0.2204
  169MOL0     H22282   1.528   8.608   9.962 -2.9056  1.1217 -2.1599
  169MOL0     H22283   1.462   8.721  10.076 -0.1300 -0.1442  1.2729
  169MOL0     H22284   1.318   8.504  10.154  1.7158 -0.8907  1.2667
  169MOL0     H22285   1.379   8.430  10.018  0.7776  0.3130  0.6327
  169MOL0     H22286   1.293   8.655   9.888  2.2038  0.5101  1.5558
  169MOL0     H22287   1.179   8.522   9.930  2.1384 -2.0615  0.0835
  169MOL0     H22288   1.234   8.751  10.117  1.2915  0.6795 -2.4543
  169MOL0     H22289   1.101   8.632  10.129  2.8454 -2.9590 -0.0394
  169MOL0     H22290   2.106   8.546  10.286  5.1955  2.6644 -1.1392
  169MOL0     H22291   2.337   8.499  10.389 -1.1003  1.6951  0.6013
  169MOL0     H22292   2.639   8.306  10.748  0.0514  0.0931 -0.1022
  169MOL0     H22293   2.880   8.318  10.774 -1.1288  0.9592  0.4303
  169MOL0     H22294   4.342   8.690  11.063  0.9348 -0.9429  0.6114
  169MOL0     H22295   4.574   8.647  10.987 -0.4969  0.8030 -1.3020
  169MOL0     H22296   5.139   9.020  10.966  1.3909 -0.7013 -0.6217
  169MOL0     H22297   5.352   8.925  10.933 -1.7059  2.4570 -0.0730
  169MOL0     H22298   5.523   8.775  10.789 -1.2600 -0.5525 -0.4264
  169MOL0     H22299   5.577   8.617  10.839  0.8501  0.5362 -0.0270
  169MOL0     H22300   5.611   8.875  10.982 -0.6525  0.4172 -2.4433
  169MOL0     H22301   5.503   8.774  11.078 -0.6345 -0.1210 -0.6942
  169MOL0     H22302   5.669   8.584  11.061  2.5533 -1.5657 -2.7116
  169MOL0     H22303   5.713   8.720  11.156  0.5642  1.1395 -0.9118
  169MOL0     H22304   5.898   8.607  10.993 -0.1165 -0.0088  1.2327
  169MOL0     H22305   5.787   8.661  10.861 -1.6156  2.0883 -0.4191
  169MOL0     H22306   6.028   8.995  10.975 -3.3631  3.9282 -0.3071
  169MOL0     H22307   5.184   8.538  10.942  2.1180  0.6036 -0.4099
  169MOL0     H22308   4.948   8.637  10.942 -0.5495 -0.6174  0.7973
  170MOL0     O22309   4.042   1.737   9.941 -0.1312  0.6100 -0.5497
  170MOL0     C22310   4.138   1.814   9.943  0.1601 -0.1562  0.4545
  170MOL0     O22311   4.143   1.948   9.898 -0.9929 -0.1726  0.2892
  170MOL0     C22312   4.028   1.993   9.835  0.4699 -0.0668 -0.1611
  170MOL0     C22313   3.902   1.981   9.904 -0.5131 -0.1900  0.1974
  170MOL0     C22314   3.791   2.023   9.840  0.4315 -0.0872  0.3927
  170MOL0     C22315   3.789   2.094   9.717 -0.7867  0.3737 -0.2175
  170MOL0     O22316   3.676   2.136   9.658  0.1181  0.4161 -0.0192
  170MOL0     C22317   3.553   2.081   9.700  0.1860 -0.2409  0.4363
  170MOL0     C22318   3.434   2.134   9.611 -0.2488  0.6250  0.1058
  170MOL0     C22319   3.298   2.087   9.681 -0.1911 -0.0943  0.7963
  170MOL0     C22320   3.181   2.150   9.611 -0.0056 -0.3593  0.7512
  170MOL0     C22321   3.135   2.093   9.482 -1.1956 -0.1913  0.3653
  170MOL0     C22322   3.011   2.159   9.437  0.4030  0.5723 -0.0495
  170MOL0     C22323   2.999   2.129   9.282 -0.2134 -0.2010  0.6910
  170MOL0     C22324   2.891   2.200   9.209 -0.2884  0.6625 -0.7799
  170MOL0     N22325   2.893   2.351   9.222  0.2394  0.0780  0.3074
  170MOL0     C22326   2.910   2.433   9.106  0.3205  0.2710 -0.4078
  170MOL0     C22327   2.847   2.551   9.143 -0.0638 -0.4070  0.8733
  170MOL0     C22328   2.841   2.680   9.050 -0.8521 -0.4342 -0.0236
  170MOL0     C22329   2.716   2.663   8.952 -0.1077 -0.1414  0.1724
  170MOL0     C22330   2.578   2.686   9.010 -0.8522  0.2731  0.2496
  170MOL0     C22331   2.469   2.673   8.907  0.0048  0.4848  0.6688
  170MOL0     O22332   2.480   2.769   8.795 -0.0558  1.2729  0.2372
  170MOL0     C22333   2.375   2.767   8.710 -0.5802 -0.0800 -0.5497
  170MOL0     C22334   2.267   2.685   8.728 -0.0198  0.0969 -0.5838
  170MOL0     C22335   2.155   2.704   8.637  0.6873  1.6090  0.2277
  170MOL0     C22336   2.153   2.791   8.529  0.0452 -0.6556  0.4052
  170MOL0     C22337   2.035   2.806   8.449  0.4756 -0.5736  0.8932
  170MOL0     O22338   1.931   2.718   8.476  0.1694  0.1240  0.5123
  170MOL0     C22339   1.821   2.715   8.391  0.1051 -0.2024  0.8475
  170MOL0     C22340   1.835   2.650   8.269 -0.8715  1.1264  0.5260
  170MOL0     C22341   1.723   2.659   8.171 -0.7882 -0.4387 -0.1937
  170MOL0     C22342   1.615   2.742   8.193  0.8936  0.2843 -0.0113
  170MOL0     O22343   1.511   2.751   8.103 -0.0145 -0.2833 -0.3229
  170MOL0     C22344   1.382   2.763   8.158 -0.1267  0.5711  0.5411
  170MOL0     C22345   1.286   2.755   8.042 -0.1404  0.3937 -0.0608
  170MOL0     C22346   1.315   2.621   7.960 -0.2039 -0.3370  0.9088
  170MOL0     C22347   1.191   2.592   7.867 -0.1461  0.6836  0.2557
  170MOL0     C22348   1.169   2.708   7.774 -0.7277 -0.2314  0.3247
  170MOL0     C22349   1.047   2.685   7.677  0.5321  0.6956  0.6919
  170MOL0     C22350   0.996   2.805   7.592 -0.9871  0.6144 -0.2072
  170MOL0     C22351   0.872   2.777   7.504 -0.6984  0.3374 -1.1171
  170MOL0    Cl22352   0.781   2.637   7.545  0.1309  0.3714 -0.2236
  170MOL0     C22353   1.606   2.809   8.321 -0.0325 -0.5462  0.1335
  170MOL0     C22354   1.710   2.789   8.416  1.2268  1.3299  0.1402
  170MOL0     O22355   2.023   2.904   8.375  0.9627 -0.3912  0.2984
  170MOL0     C22356   2.269   2.874   8.519 -0.8018  0.0667 -0.0259
  170MOL0     C22357   2.380   2.858   8.603 -0.4922 -0.1769 -0.6671
  170MOL0     N22358   2.810   2.547   9.277  0.4795 -0.5939 -0.1043
  170MOL0     N22359   2.826   2.423   9.319  0.0753 -0.2994 -0.4248
  170MOL0     C22360   3.915   2.126   9.657 -0.1791 -0.6930 -0.5175
  170MOL0     C22361   4.032   2.068   9.716 -1.3838  0.1284 -0.2519
  170MOL0     C22362   4.263   1.763   9.991  1.0084  0.4700  0.2425
  170MOL0     C22363   4.279   1.633  10.050 -0.1497  0.0896 -0.0105
  170MOL0     C22364   4.405   1.605  10.112  0.2780 -0.5703 -1.1990
  170MOL0     C22365   4.512   1.692  10.111  0.0177 -0.1162  1.2079
  170MOL0     O22366   4.635   1.645  10.155  0.5527 -0.8501  0.4926
  170MOL0     C22367   4.746   1.732  10.181  1.2405  0.1408 -0.0207
  170MOL0     C22368   4.743   1.808  10.315  0.0078  0.2118  0.6165
  170MOL0     C22369   4.743   1.698  10.429 -0.4734 -0.4217  0.5316
  170MOL0     C22370   4.763   1.745  10.576  0.0620  0.5414  0.0775
  170MOL0     C22371   4.669   1.849  10.610  0.8572  0.2332  0.3665
  170MOL0     C22372   4.579   1.929  10.639 -0.1030 -0.5317  0.1625
  170MOL0     C22373   4.495   1.819  10.061 -0.3633  0.0283 -0.4139
  170MOL0     C22374   4.370   1.855  10.009 -0.7365  0.2804  0.1169
  170MOL0     H22375   3.907   1.939  10.004  0.7268  2.6074  1.4370
  170MOL0     H22376   3.701   1.986   9.889  0.2479  1.0541  0.9274
  170MOL0     H22377   3.532   2.116   9.801  4.2744 -2.0589  2.1353
  170MOL0     H22378   3.561   1.972   9.699  1.8277 -0.1636 -1.5079
  170MOL0     H22379   3.428   2.089   9.511 -0.1523 -2.6829  1.4703
  170MOL0     H22380   3.438   2.243   9.599 -0.6130  0.7876  1.3718
  170MOL0     H22381   3.294   2.118   9.785 -0.7331 -2.3659  1.5033
  170MOL0     H22382   3.291   1.978   9.670  0.3293 -0.0030 -0.7274
  170MOL0     H22383   3.092   2.151   9.675 -1.0927  0.4261 -0.6985
  170MOL0     H22384   3.201   2.256   9.590  3.4290 -0.5175  2.5236
  170MOL0     H22385   3.136   1.985   9.470 -5.0892 -0.6750  2.6074
  170MOL0     H22386   3.218   2.118   9.415  0.6419 -2.3449  1.7172
  170MOL0     H22387   3.010   2.268   9.450  1.9136  0.8133 -1.6225
  170MOL0     H22388   2.938   2.100   9.494  1.7203  0.7303  1.9388
  170MOL0     H22389   3.096   2.135   9.231  0.2784 -0.9830  1.4877
  170MOL0     H22390   2.979   2.021   9.281  0.2724 -0.3726  3.0718
  170MOL0     H22391   2.803   2.151   9.251  0.8982  0.0435  1.1068
  170MOL0     H22392   2.901   2.174   9.103 -3.4823 -1.2958 -0.7151
  170MOL0     H22393   2.950   2.421   9.006 -0.0074  3.8927 -1.1358
  170MOL0     H22394   2.939   2.700   9.006 -0.6046 -2.0598 -0.2770
  170MOL0     H22395   2.817   2.760   9.121 -0.3130 -1.3686  1.2495
  170MOL0     H22396   2.715   2.559   8.916 -1.4947  0.4411 -1.6526
  170MOL0     H22397   2.746   2.719   8.863  0.6813 -1.3712 -0.3683
  170MOL0     H22398   2.556   2.599   9.074  0.3148 -2.7270 -3.0805
  170MOL0     H22399   2.570   2.780   9.064 -1.4425  0.3462  0.0415
  170MOL0     H22400   2.378   2.704   8.959 -0.3553 -1.0613  0.9996
  170MOL0     H22401   2.453   2.571   8.871 -2.0065  0.9065  0.2374
  170MOL0     H22402   2.259   2.612   8.808  1.5253 -0.8081 -1.1970
  170MOL0     H22403   2.066   2.646   8.655  0.3738  0.9827 -2.9147
  170MOL0     H22404   1.917   2.578   8.263 -0.2058  1.7241  1.9493
  170MOL0     H22405   1.717   2.598   8.082 -1.2816 -1.2773  0.4028
  170MOL0     H22406   1.362   2.864   8.196  0.6820  1.8233 -2.1417
  170MOL0     H22407   1.366   2.682   8.231 -0.9914 -0.3939 -0.6666
  170MOL0     H22408   1.287   2.846   7.982  0.5028  1.5548  1.6505
  170MOL0     H22409   1.186   2.754   8.086 -0.6007  3.8305 -0.7453
  170MOL0     H22410   1.343   2.538   8.026 -0.1058 -1.1091 -0.0871
  170MOL0     H22411   1.400   2.647   7.896 -1.4675  0.8891 -0.3478
  170MOL0     H22412   1.207   2.503   7.805 -1.2337 -0.1229  1.0923
  170MOL0     H22413   1.113   2.561   7.937  1.0344  1.1284  1.8448
  170MOL0     H22414   1.266   2.728   7.726  0.5058  0.2596  2.8844
  170MOL0     H22415   1.144   2.796   7.833  0.8817 -0.0851  0.8517
  170MOL0     H22416   0.964   2.646   7.737 -0.2165 -0.9942 -1.2908
  170MOL0     H22417   1.070   2.616   7.595  0.1872  2.0969 -0.6433
  170MOL0     H22418   0.976   2.877   7.672 -1.2123  0.1842  0.1315
  170MOL0     H22419   1.075   2.849   7.530 -0.1945 -0.6574 -0.1385
  170MOL0     H22420   0.912   2.762   7.403  2.5627  1.1443 -0.0711
  170MOL0     H22421   0.806   2.864   7.503 -1.1090  0.0300 -1.1603
  170MOL0     H22422   1.524   2.877   8.344  0.4581  1.4903 -3.2796
  170MOL0     H22423   1.711   2.834   8.515 -2.8085  0.2034  0.8688
  170MOL0     H22424   2.282   2.951   8.444  0.3291  0.2078  0.2885
  170MOL0     H22425   2.475   2.909   8.591  1.8714 -3.9939  0.0416
  170MOL0     H22426   3.920   2.173   9.559 -1.6041 -0.8121 -0.6784
  170MOL0     H22427   4.127   2.084   9.667 -0.0600 -3.4491  0.8891
  170MOL0     H22428   4.201   1.559  10.065  0.6780 -0.5880  1.0750
  170MOL0     H22429   4.418   1.502  10.144 -1.9599 -1.6145 -3.3843
  170MOL0     H22430   4.755   1.809  10.103  1.0512 -0.3067 -0.4914
  170MOL0     H22431   4.832   1.665  10.172 -0.3864 -1.8685 -1.8199
  170MOL0     H22432   4.831   1.871  10.325 -0.0835  0.4581 -0.0792
  170MOL0     H22433   4.655   1.872  10.323 -1.9830 -2.5188  3.0526
  170MOL0     H22434   4.817   1.619  10.414 -1.1444 -1.2811  1.5988
  170MOL0     H22435   4.640   1.662  10.420 -1.1325  0.3674  3.6897
  170MOL0     H22436   4.751   1.657  10.641  0.3893 -0.4342 -1.1310
  170MOL0     H22437   4.867   1.772  10.595  0.1263 -0.8866  2.0471
  170MOL0     H22438   4.509   2.009  10.652 -0.5828 -0.7080 -1.1120
  170MOL0     H22439   4.571   1.897  10.061 -1.8923  1.6588  1.9487
  170MOL0     H22440   4.371   1.957   9.971  2.5054 -0.3919 -2.0214
  171MOL0     O22441   4.734   3.880   6.913  0.1156  1.2787 -0.3875
  171MOL0     C22442   4.721   3.777   6.846  0.4122  0.1132  0.2248
  171MOL0     O22443   4.613   3.744   6.764  0.5268  0.4064 -0.6833
  171MOL0     C22444   4.499   3.824   6.760 -0.6795  0.1881  0.7300
  171MOL0     C22445   4.441   3.887   6.873 -0.2183 -0.0065  0.3979
  171MOL0     C22446   4.321   3.965   6.851 -0.1345 -0.1371  0.6551
  171MOL0     C22447   4.268   3.986   6.722 -0.1804 -0.1503 -1.6596
  171MOL0     O22448   4.164   4.081   6.713 -0.5343 -0.2470 -0.0035
  171MOL0     C22449   4.105   4.109   6.582  0.7516  0.4404  0.3400
  171MOL0     C22450   3.999   4.210   6.593  0.7026 -0.6101  0.0093
  171MOL0     C22451   3.886   4.160   6.678  0.2175 -0.3015 -0.1335
  171MOL0     C22452   3.785   4.273   6.711  0.4698 -0.2176 -0.2581
  171MOL0     C22453   3.689   4.248   6.829 -0.2110 -0.7755 -0.0537
  171MOL0     C22454   3.572   4.152   6.792  0.8113 -0.8765  0.6049
  171MOL0     C22455   3.480   4.157   6.916 -1.0361  0.3488 -0.3999
  171MOL0     C22456   3.342   4.209   6.885 -0.0990 -0.3377 -0.4372
  171MOL0     N22457   3.261   4.117   6.816 -0.4041 -0.1856 -0.3907
  171MOL0     C22458   3.129   4.146   6.775  0.0769  0.0852  0.0728
  171MOL0     C22459   3.073   4.039   6.717 -0.5230  0.3777 -0.2859
  171MOL0     C22460   2.941   4.029   6.652 -0.2379 -0.6384  0.8007
  171MOL0     C22461   2.833   4.101   6.739  0.0845 -0.8735  0.0269
  171MOL0     C22462   2.694   4.041   6.705  0.3826 -0.3855  0.0289
  171MOL0     C22463   2.656   4.073   6.557  0.6379  0.1313  0.3152
  171MOL0     O22464   2.509   4.060   6.543 -0.2109 -0.2035  0.1080
  171MOL0     C22465   2.454   4.108   6.429  0.1294  0.0624 -0.7343
  171MOL0     C22466   2.320   4.080   6.419  0.9483  0.4272 -0.2442
  171MOL0     C22467   2.245   4.120   6.318  0.1450  0.0753 -0.9155
  171MOL0     C22468   2.306   4.176   6.207 -0.0714 -0.1618  0.3346
  171MOL0     C22469   2.219   4.230   6.100 -0.3958 -0.3694 -0.1399
  171MOL0     O22470   2.275   4.328   6.022 -0.3614 -0.3502  0.2969
  171MOL0     C22471   2.199   4.413   5.937  0.6177 -0.5172  0.3146
  171MOL0     C22472   2.171   4.543   5.971 -0.2121 -0.9355 -0.1309
  171MOL0     C22473   2.098   4.625   5.878 -0.2066 -0.0587  0.0914
  171MOL0     C22474   2.063   4.586   5.754  0.2738  0.8907 -0.6302
  171MOL0     O22475   1.988   4.669   5.668 -0.1831 -0.3159  0.2230
  171MOL0     C22476   1.978   4.626   5.529  0.9361  0.6124  0.2910
  171MOL0     C22477   1.936   4.737   5.440  0.6508 -0.9878  0.2024
  171MOL0     C22478   1.799   4.815   5.476  0.2329 -0.5685  0.1796
  171MOL0     C22479   1.753   4.920   5.367  0.2043 -0.0510  0.2659
  171MOL0     C22480   1.602   4.976   5.398  0.6717  0.8766  0.1877
  171MOL0     C22481   1.588   5.030   5.547 -0.1561  0.1084  0.2377
  171MOL0     C22482   1.444   5.068   5.573 -0.4526  0.2775 -0.2335
  171MOL0     C22483   1.341   4.949   5.576  0.0342 -0.3617  0.5746
  171MOL0    Cl22484   1.395   4.799   5.657  0.3628 -0.2648  0.2006
  171MOL0     C22485   2.096   4.450   5.720 -0.4781 -1.1857 -0.1376
  171MOL0     C22486   2.162   4.369   5.806  0.0761  0.2099 -0.3836
  171MOL0     O22487   2.100   4.203   6.097 -1.1436 -0.0023 -0.0432
  171MOL0     C22488   2.443   4.193   6.203 -1.5483 -0.3425  0.8142
  171MOL0     C22489   2.526   4.154   6.313 -0.2329  0.4884 -0.3948
  171MOL0     N22490   3.169   3.935   6.731  0.3122 -0.5662  0.3926
  171MOL0     N22491   3.273   3.986   6.785 -0.7687  0.2662  0.1607
  171MOL0     C22492   4.331   3.920   6.615  0.3541 -0.2809 -0.4309
  171MOL0     C22493   4.443   3.833   6.637 -0.1845  0.0061 -0.4200
  171MOL0     C22494   4.833   3.684   6.865 -0.0320  0.1721  0.2398
  171MOL0     C22495   4.798   3.547   6.873  0.0701  0.7515  0.2697
  171MOL0     C22496   4.902   3.453   6.884  0.4493  0.6422  0.3217
  171MOL0     C22497   5.038   3.495   6.880 -0.3210  0.5100 -0.4513
  171MOL0     O22498   5.145   3.410   6.871 -0.4087  0.0783  0.3635
  171MOL0     C22499   5.162   3.314   6.975  0.7904 -1.1511  0.0051
  171MOL0     C22500   5.281   3.235   6.928  0.5865  0.5074  0.1874
  171MOL0     C22501   5.246   3.176   6.790 -0.5218 -0.7736 -0.8484
  171MOL0     C22502   5.316   3.054   6.748 -0.7737 -0.2734  0.4452
  171MOL0     C22503   5.304   2.948   6.850  0.0159  0.1016 -1.4400
  171MOL0     C22504   5.303   2.839   6.912  0.2892  0.0698 -0.5814
  171MOL0     C22505   5.067   3.630   6.873 -0.0578 -0.4943 -0.7207
  171MOL0     C22506   4.962   3.722   6.880  0.7953  0.1338  0.0196
  171MOL0     H22507   4.480   3.894   6.974 -2.3289 -1.7880  1.4254
  171MOL0     H22508   4.280   4.041   6.917 -0.0930  4.4078 -3.8849
  171MOL0     H22509   4.057   4.025   6.531 -2.5247  1.7442  0.9997
  171MOL0     H22510   4.183   4.153   6.519 -1.0365  3.3174 -0.0816
  171MOL0     H22511   3.957   4.226   6.493  3.3245 -2.4020 -1.4845
  171MOL0     H22512   4.037   4.304   6.635 -1.8078  1.0699 -1.1890
  171MOL0     H22513   3.918   4.131   6.779 -0.2800  2.7325  1.0116
  171MOL0     H22514   3.846   4.073   6.625 -0.1917  0.1950 -0.6522
  171MOL0     H22515   3.849   4.359   6.733  0.1097 -0.2564  1.0079
  171MOL0     H22516   3.743   4.305   6.615  0.8593 -1.2415 -0.7881
  171MOL0     H22517   3.644   4.341   6.864  0.4573 -1.4192  2.6906
  171MOL0     H22518   3.740   4.206   6.916  0.4782  0.1247 -0.0113
  171MOL0     H22519   3.606   4.049   6.783  0.6327 -1.2125  3.0815
  171MOL0     H22520   3.536   4.190   6.696  0.5045 -0.0630  1.0294
  171MOL0     H22521   3.478   4.056   6.957  3.2945  0.4607  0.5764
  171MOL0     H22522   3.520   4.210   7.002  1.0141 -0.2176 -0.9373
  171MOL0     H22523   3.343   4.303   6.830 -1.6730  0.5697  0.9943
  171MOL0     H22524   3.295   4.231   6.982  0.4317  1.2789 -0.5174
  171MOL0     H22525   3.074   4.238   6.794  0.7417  0.1338  1.9843
  171MOL0     H22526   2.912   3.927   6.624 -1.3811 -0.8944  2.7228
  171MOL0     H22527   2.949   4.087   6.559  1.9766 -0.2220  1.2032
  171MOL0     H22528   2.834   4.207   6.713  1.5004 -0.5642  1.1950
  171MOL0     H22529   2.845   4.087   6.847 -2.7029  0.4055  0.5984
  171MOL0     H22530   2.690   3.935   6.732 -1.7942  0.2216  2.5383
  171MOL0     H22531   2.616   4.092   6.763 -0.2505  0.7269 -1.7229
  171MOL0     H22532   2.710   4.014   6.483 -3.4136  0.9142 -3.7459
  171MOL0     H22533   2.682   4.177   6.533 -0.4189  0.7781  1.8004
  171MOL0     H22534   2.264   4.026   6.496 -0.7615  2.7009  0.2008
  171MOL0     H22535   2.139   4.098   6.330  0.7628 -2.1514  1.5329
  171MOL0     H22536   2.194   4.582   6.069  1.0611  1.6722 -1.3531
  171MOL0     H22537   2.055   4.721   5.903  0.5280  0.6156 -1.1623
  171MOL0     H22538   1.900   4.549   5.529  2.4213 -1.0117 -2.0277
  171MOL0     H22539   2.062   4.576   5.482 -0.5031  1.2285 -3.2423
  171MOL0     H22540   1.917   4.700   5.339  0.6845 -0.9234  0.1727
  171MOL0     H22541   2.015   4.812   5.433 -0.2883  0.0529  0.3825
  171MOL0     H22542   1.826   4.874   5.565  2.9412  1.2227 -1.6773
  171MOL0     H22543   1.717   4.747   5.501 -0.3014 -0.3759 -1.0126
  171MOL0     H22544   1.828   4.999   5.370  0.5410 -0.3947  1.9791
  171MOL0     H22545   1.748   4.869   5.270  0.7114  0.7384 -0.1796
  171MOL0     H22546   1.530   4.898   5.374  1.0710 -0.0837  1.9305
  171MOL0     H22547   1.587   5.065   5.336 -1.0228  0.2182 -0.3940
  171MOL0     H22548   1.644   5.120   5.570  0.0245 -0.4461  2.1402
  171MOL0     H22549   1.615   4.960   5.627  0.7239  0.6406  0.4158
  171MOL0     H22550   1.433   5.102   5.677 -1.0614 -3.8103  1.2260
  171MOL0     H22551   1.409   5.146   5.506 -2.4223 -0.4546 -0.1315
  171MOL0     H22552   1.312   4.909   5.479 -2.8545 -1.0937  1.6284
  171MOL0     H22553   1.252   4.983   5.629  0.0037  0.6397 -0.0801
  171MOL0     H22554   2.075   4.411   5.621 -0.8310 -2.1223  0.2933
  171MOL0     H22555   2.178   4.267   5.775 -0.0221 -1.1050  3.3925
  171MOL0     H22556   2.487   4.246   6.118 -0.6338 -0.8735  0.9400
  171MOL0     H22557   2.634   4.140   6.309 -0.5167 -1.8388 -2.0608
  171MOL0     H22558   4.297   3.932   6.513 -1.6778 -1.6099  0.0217
  171MOL0     H22559   4.493   3.776   6.559  1.0028 -0.6219  0.7744
  171MOL0     H22560   4.695   3.514   6.870  0.3921 -0.2423 -0.7673
  171MOL0     H22561   4.869   3.350   6.888 -3.4260  1.7139  0.6045
  171MOL0     H22562   5.066   3.267   6.994  0.1220  0.2447  0.2159
  171MOL0     H22563   5.192   3.375   7.062 -0.6769  1.4718 -1.2101
  171MOL0     H22564   5.371   3.296   6.935 -0.2806  1.6159  2.6105
  171MOL0     H22565   5.295   3.154   7.000 -0.0454 -0.0909 -0.3335
  171MOL0     H22566   5.260   3.261   6.723  0.1267  0.5183  0.8783
  171MOL0     H22567   5.140   3.149   6.779 -0.6310 -0.1744 -1.3695
  171MOL0     H22568   5.272   3.018   6.655  0.5311 -0.6444 -0.0597
  171MOL0     H22569   5.423   3.068   6.727 -0.3230 -4.0860 -0.3974
  171MOL0     H22570   5.281   2.747   6.963  1.9304  0.4609  0.9375
  171MOL0     H22571   5.168   3.669   6.863 -0.5067  0.5685 -1.2446
  171MOL0     H22572   4.978   3.830   6.883 -2.5022  0.7162  1.9849
  172MOL0     O22573   1.503  11.043   5.233 -0.8023  0.6067  0.2531
  172MOL0     C22574   1.560  11.143   5.202 -0.8919 -0.9266 -0.4192
  172MOL0     O22575   1.502  11.266   5.188  0.4589  0.0975 -0.1499
  172MOL0     C22576   1.365  11.272   5.209  0.3614  0.1944  0.2400
  172MOL0     C22577   1.309  11.229   5.322  0.6057  0.2055 -0.2088
  172MOL0     C22578   1.171  11.234   5.332 -0.4891  0.7553 -0.6323
  172MOL0     C22579   1.100  11.288   5.229 -1.1452 -0.0187  0.6756
  172MOL0     O22580   0.962  11.290   5.252  0.2935 -0.0493  0.2255
  172MOL0     C22581   0.890  11.413   5.231 -0.1744 -0.5479 -0.9629
  172MOL0     C22582   0.845  11.484   5.360 -0.3444  0.6785  0.1757
  172MOL0     C22583   0.822  11.635   5.343 -0.5442  0.6184 -0.6199
  172MOL0     C22584   0.707  11.660   5.245 -0.6145 -0.4240 -1.2099
  172MOL0     C22585   0.564  11.684   5.317  0.2916  0.8548  0.7295
  172MOL0     C22586   0.466  11.725   5.206 -0.6496  0.8387  0.3923
  172MOL0     C22587   0.335  11.782   5.274 -0.1422 -0.0017  0.7621
  172MOL0     C22588   0.244  11.843   5.168 -0.0723 -0.1684 -0.2578
  172MOL0     N22589   0.104  11.829   5.210  0.2048 -0.5124 -0.0089
  172MOL0     C22590   0.016  11.735   5.168  0.6873  0.9309 -0.0635
  172MOL0     C22591  -0.101  11.777   5.214  0.0558 -0.0222  0.0709
  172MOL0     C22592  -0.232  11.713   5.186  1.0132 -0.3337 -0.0762
  172MOL0     C22593  -0.254  11.737   5.037 -0.2849 -0.3206  0.2942
  172MOL0     C22594  -0.369  11.652   4.982 -0.0913 -0.5736 -0.3064
  172MOL0     C22595  -0.503  11.679   5.041 -0.2306  0.1652  0.1565
  172MOL0     O22596  -0.599  11.588   4.989 -0.6992 -0.0052 -0.3772
  172MOL0     C22597  -0.638  11.595   4.859  0.3164  0.1750  0.8620
  172MOL0     C22598  -0.722  11.497   4.812 -0.1008 -0.4236  0.5725
  172MOL0     C22599  -0.781  11.489   4.687 -0.8908  0.2046  0.7459
  172MOL0     C22600  -0.758  11.596   4.597  0.3064  0.6434  0.2580
  172MOL0     C22601  -0.815  11.592   4.465 -0.4351  0.2006  1.1475
  172MOL0     O22602  -0.883  11.484   4.418 -0.6726 -0.4719  0.0869
  172MOL0     C22603  -0.975  11.496   4.318  0.2441 -0.3490 -0.1392
  172MOL0     C22604  -1.085  11.585   4.327 -0.2836 -0.9383  0.4986
  172MOL0     C22605  -1.182  11.577   4.224  0.2226  0.2494 -0.1575
  172MOL0     C22606  -1.187  11.472   4.133  0.1491 -0.5332  0.6342
  172MOL0     O22607  -1.285  11.456   4.041  0.0632  0.6569  0.2931
  172MOL0     C22608  -1.419  11.504   4.061 -0.0458  0.2967  0.2198
  172MOL0     C22609  -1.497  11.438   4.172 -0.2858 -0.0093 -0.1477
  172MOL0     C22610  -1.646  11.468   4.149  0.4080  0.2527 -0.6437
  172MOL0     C22611  -1.729  11.416   4.266  0.5113 -0.7737 -0.0822
  172MOL0     C22612  -1.873  11.442   4.238  0.0465 -0.4825 -0.4952
  172MOL0     C22613  -1.959  11.395   4.352  0.1324  0.2255 -0.7115
  172MOL0     C22614  -2.104  11.410   4.325  0.5216  0.4551  0.6964
  172MOL0     C22615  -2.160  11.558   4.348  0.2990  0.3742 -0.1176
  172MOL0    Cl22616  -2.336  11.568   4.320  0.1031  0.0487 -0.5350
  172MOL0     C22617  -1.088  11.376   4.135  0.3015 -0.6175 -0.0032
  172MOL0     C22618  -0.981  11.388   4.226 -0.0776  0.1750 -0.1093
  172MOL0     O22619  -0.801  11.691   4.399  0.2324 -0.8825  0.7627
  172MOL0     C22620  -0.683  11.709   4.647 -0.4433  0.5126 -0.6991
  172MOL0     C22621  -0.626  11.707   4.779  0.0257  0.7621 -0.0717
  172MOL0     N22622  -0.080  11.896   5.294  0.2860 -0.0243  0.1989
  172MOL0     N22623   0.048  11.910   5.299 -0.0640 -0.3290 -0.2647
  172MOL0     C22624   1.165  11.328   5.109  0.4702 -0.0286  0.4269
  172MOL0     C22625   1.301  11.309   5.095 -0.5906  0.3699 -0.4066
  172MOL0     C22626   1.709  11.130   5.191  0.3256 -0.4015  0.6425
  172MOL0     C22627   1.777  11.007   5.195 -0.0923  0.0696 -0.4666
  172MOL0     C22628   1.919  10.999   5.196 -0.1442  0.4068  0.3938
  172MOL0     C22629   1.991  11.120   5.209 -0.2337  0.0725  0.9515
  172MOL0     O22630   2.127  11.101   5.238 -1.2592  0.0731 -0.3508
  172MOL0     C22631   2.221  11.207   5.264 -1.0388 -0.6245 -0.2129
  172MOL0     C22632   2.210  11.239   5.406  0.4566 -0.0302  0.0555
  172MOL0     C22633   2.339  11.323   5.427 -0.0128  0.1605  0.3444
  172MOL0     C22634   2.306  11.427   5.539 -0.7131 -0.5837  0.3242
  172MOL0     C22635   2.423  11.511   5.558  0.3173  0.1713  0.6625
  172MOL0     C22636   2.529  11.563   5.554 -0.8957 -0.7330 -0.0449
  172MOL0     C22637   1.930  11.240   5.198  0.4271 -0.2614  0.4096
  172MOL0     C22638   1.786  11.244   5.174 -0.9052  0.4660 -0.3058
  172MOL0     H22639   1.358  11.201   5.415  0.0821  0.0701  0.0281
  172MOL0     H22640   1.132  11.198   5.426 -2.4183 -0.8392 -1.9687
  172MOL0     H22641   0.803  11.403   5.165 -1.1511  3.1148 -0.4674
  172MOL0     H22642   0.959  11.482   5.181  1.1180 -1.6718 -0.8044
  172MOL0     H22643   0.920  11.479   5.439 -0.4027  0.3234  0.2068
  172MOL0     H22644   0.755  11.439   5.403 -1.4752 -0.0920 -2.7867
  172MOL0     H22645   0.916  11.668   5.299  0.4628 -2.8997 -1.4308
  172MOL0     H22646   0.802  11.681   5.440 -3.1136 -1.0706 -0.2301
  172MOL0     H22647   0.739  11.755   5.203 -0.1254  1.7066  3.3704
  172MOL0     H22648   0.689  11.585   5.167 -0.5703 -2.6304  0.7738
  172MOL0     H22649   0.566  11.763   5.392 -0.3724 -1.0400  2.8577
  172MOL0     H22650   0.526  11.596   5.370  0.8835  1.6320  2.5219
  172MOL0     H22651   0.446  11.630   5.156 -0.1735 -0.3361  2.3315
  172MOL0     H22652   0.507  11.794   5.131 -2.6176 -0.3328 -1.9063
  172MOL0     H22653   0.282  11.703   5.328 -1.2186  0.2180  0.0567
  172MOL0     H22654   0.351  11.863   5.347  1.6196 -0.1100  0.5388
  172MOL0     H22655   0.255  11.788   5.074  0.7086  3.3685 -2.4326
  172MOL0     H22656   0.273  11.947   5.150  0.8506 -0.2380  0.7410
  172MOL0     H22657   0.025  11.652   5.099 -2.5596  0.3005  0.0723
  172MOL0     H22658  -0.320  11.739   5.245  1.0320  0.8565 -0.5328
  172MOL0     H22659  -0.216  11.605   5.194  0.6808 -0.3962 -0.2482
  172MOL0     H22660  -0.170  11.713   4.972  0.5822 -1.0910  1.6508
  172MOL0     H22661  -0.272  11.843   5.020  0.1008 -0.5793 -2.0248
  172MOL0     H22662  -0.382  11.673   4.875 -0.0237  1.1234 -0.0117
  172MOL0     H22663  -0.348  11.546   4.998  1.6131 -0.3839 -1.0508
  172MOL0     H22664  -0.531  11.781   5.010  1.4587  0.9772  1.1600
  172MOL0     H22665  -0.509  11.669   5.149 -1.0652  2.6514  0.4054
  172MOL0     H22666  -0.756  11.415   4.874 -2.8455  0.3719  0.2268
  172MOL0     H22667  -0.851  11.410   4.661  2.3650 -2.1336 -1.5801
  172MOL0     H22668  -1.078  11.669   4.395 -0.6469  0.0058 -0.5995
  172MOL0     H22669  -1.268  11.643   4.219  1.2727  2.0861  3.1635
  172MOL0     H22670  -1.471  11.485   3.967  0.8409 -2.7787  0.2436
  172MOL0     H22671  -1.422  11.612   4.081  0.0645  0.9205 -2.6978
  172MOL0     H22672  -1.453  11.481   4.262  0.1412 -0.4749 -0.1300
  172MOL0     H22673  -1.480  11.330   4.164 -0.3430 -0.0845  0.6777
  172MOL0     H22674  -1.679  11.425   4.054 -2.9887  2.2428 -0.5358
  172MOL0     H22675  -1.669  11.575   4.148  2.2997  0.6963 -1.7707
  172MOL0     H22676  -1.710  11.309   4.282  1.1710 -0.6459 -0.0016
  172MOL0     H22677  -1.700  11.473   4.354  0.3743  0.7122 -0.9645
  172MOL0     H22678  -1.892  11.390   4.144  0.3974 -1.7553  0.1087
  172MOL0     H22679  -1.893  11.546   4.210 -0.8041 -1.1877 -2.6695
  172MOL0     H22680  -1.951  11.457   4.442 -1.5091  0.9753 -1.0263
  172MOL0     H22681  -1.943  11.292   4.383  1.0353  0.6290  0.2138
  172MOL0     H22682  -2.125  11.402   4.218  2.1176  0.0963  0.3914
  172MOL0     H22683  -2.165  11.338   4.380  2.2457 -0.4179  1.5435
  172MOL0     H22684  -2.110  11.629   4.281 -0.7968 -0.1586 -1.5582
  172MOL0     H22685  -2.135  11.577   4.453 -2.0202 -1.9649  0.9787
  172MOL0     H22686  -1.083  11.285   4.075  0.5557 -1.4050  1.1694
  172MOL0     H22687  -0.913  11.305   4.241  0.2225  0.5681  0.7678
  172MOL0     H22688  -0.670  11.802   4.592  1.7587  0.8884  0.3517
  172MOL0     H22689  -0.577  11.800   4.808 -0.9358  1.7352 -1.4367
  172MOL0     H22690   1.095  11.357   5.031 -0.5842 -2.1639  0.5102
  172MOL0     H22691   1.354  11.317   5.001  1.6062 -0.2121  0.7238
  172MOL0     H22692   1.710  10.921   5.193 -1.2427  0.9096  0.1520
  172MOL0     H22693   1.984  10.912   5.194 -0.7549 -0.0532 -1.3379
  172MOL0     H22694   2.210  11.297   5.203  1.0642 -0.6735 -0.7443
  172MOL0     H22695   2.322  11.168   5.244  0.8735  2.5088  2.2449
  172MOL0     H22696   2.116  11.287   5.434 -0.2690 -1.3568  0.0024
  172MOL0     H22697   2.213  11.143   5.459  1.2399 -1.0911 -1.8166
  172MOL0     H22698   2.373  11.360   5.330  1.4250 -0.2486  0.6712
  172MOL0     H22699   2.423  11.256   5.448  0.9575  0.4399 -2.2641
  172MOL0     H22700   2.219  11.487   5.511 -0.9832 -0.9107  0.4536
  172MOL0     H22701   2.282  11.386   5.638  2.1441 -1.1759  0.8406
  172MOL0     H22702   2.614  11.627   5.547 -1.8588  0.6411  0.2743
  172MOL0     H22703   1.988  11.331   5.203  1.2926 -0.8593  1.6143
  172MOL0     H22704   1.735  11.340   5.171 -0.4721  0.7164  0.1368
  173MOL0     O22705   0.428   1.708   3.412 -0.5125 -0.2981 -0.4779
  173MOL0     C22706   0.489   1.790   3.346  0.8464  0.8265 -0.4982
  173MOL0     O22707   0.509   1.785   3.217  0.0905  0.0909  0.3243
  173MOL0     C22708   0.506   1.670   3.144 -0.2775 -1.0281  0.2044
  173MOL0     C22709   0.615   1.605   3.105  0.0150 -0.5805 -0.1059
  173MOL0     C22710   0.613   1.489   3.030  1.1638  1.2302  0.6037
  173MOL0     C22711   0.495   1.439   2.984 -0.0511 -0.6610 -0.7375
  173MOL0     O22712   0.493   1.326   2.913 -0.2885 -0.0943 -0.2083
  173MOL0     C22713   0.617   1.252   2.879 -0.3998  0.0623  0.3104
  173MOL0     C22714   0.596   1.118   2.806 -0.5146  0.0742  0.4093
  173MOL0     C22715   0.476   1.053   2.865  0.8246 -1.2223  0.2904
  173MOL0     C22716   0.465   0.915   2.814 -0.6646  0.7260 -0.3281
  173MOL0     C22717   0.324   0.858   2.799  0.1431 -0.6122 -0.5672
  173MOL0     C22718   0.259   0.917   2.673  0.1400 -0.4111  0.4664
  173MOL0     C22719   0.130   0.839   2.639  0.5724  0.6159 -0.8280
  173MOL0     C22720   0.073   0.899   2.512 -0.7362 -0.1981 -0.7886
  173MOL0     N22721  -0.058   0.838   2.494  0.3941  0.4193  0.8073
  173MOL0     C22722  -0.095   0.710   2.448  0.3739 -0.0063 -0.2115
  173MOL0     C22723  -0.229   0.695   2.464 -0.1603  0.2039  0.2564
  173MOL0     C22724  -0.297   0.568   2.415 -1.0748  0.6050 -0.1527
  173MOL0     C22725  -0.243   0.438   2.489 -0.4309 -0.9391  1.2101
  173MOL0     C22726  -0.343   0.322   2.465  0.4230 -0.5993 -0.3353
  173MOL0     C22727  -0.320   0.254   2.331  0.5339  0.2037 -0.2527
  173MOL0     O22728  -0.302   0.346   2.217 -0.6059  0.5315 -0.0389
  173MOL0     C22729  -0.407   0.389   2.144  0.2651 -0.4286  0.4535
  173MOL0     C22730  -0.539   0.350   2.169  0.2899 -0.6573 -0.0927
  173MOL0     C22731  -0.635   0.386   2.073  0.1068  0.3564  0.3173
  173MOL0     C22732  -0.599   0.458   1.954  0.7617 -0.2213 -0.3626
  173MOL0     C22733  -0.714   0.499   1.864 -0.5619  0.3888 -0.4908
  173MOL0     O22734  -0.809   0.408   1.845 -0.0368  0.2442 -0.7586
  173MOL0     C22735  -0.904   0.438   1.752  0.1245  0.4736  0.0990
  173MOL0     C22736  -0.908   0.358   1.632  0.5041 -0.5995  0.5245
  173MOL0     C22737  -0.996   0.399   1.533  0.0860 -0.0098  0.0357
  173MOL0     C22738  -1.089   0.496   1.557  0.1964 -0.4040  0.9335
  173MOL0     O22739  -1.186   0.509   1.453  0.5664 -0.3113  0.2207
  173MOL0     C22740  -1.322   0.545   1.490  0.3576  0.9428  0.6995
  173MOL0     C22741  -1.386   0.586   1.353  0.4457 -0.3323  0.0649
  173MOL0     C22742  -1.530   0.632   1.388  1.0826 -0.3232  0.6460
  173MOL0     C22743  -1.632   0.514   1.416  0.9257 -0.4458 -0.3585
  173MOL0     C22744  -1.769   0.571   1.423  0.2805 -0.2720  0.5184
  173MOL0     C22745  -1.822   0.608   1.563 -1.0121  0.3416  0.1876
  173MOL0     C22746  -1.970   0.617   1.572  0.4621 -0.3117 -0.1628
  173MOL0     C22747  -2.012   0.707   1.687 -0.3135  1.2554  0.4366
  173MOL0    Cl22748  -1.950   0.634   1.836 -0.0191  0.4152  0.0315
  173MOL0     C22749  -1.091   0.573   1.678  0.0512 -0.3768  0.6997
  173MOL0     C22750  -0.991   0.543   1.770 -0.3418 -0.0328 -0.8364
  173MOL0     O22751  -0.711   0.613   1.812  0.0345  0.5159  0.7931
  173MOL0     C22752  -0.471   0.513   1.948  0.3813 -1.2756 -0.3039
  173MOL0     C22753  -0.378   0.477   2.042 -0.3224 -0.2622  0.0449
  173MOL0     N22754  -0.277   0.814   2.507  0.3984 -0.3636 -0.3485
  173MOL0     N22755  -0.180   0.894   2.514  1.0694  0.0381 -0.4875
  173MOL0     C22756   0.381   1.510   3.024  0.1888 -0.4611 -1.0162
  173MOL0     C22757   0.386   1.618   3.104 -0.5850  0.7545  0.1071
  173MOL0     C22758   0.535   1.906   3.414  1.8624  0.0873 -0.0758
  173MOL0     C22759   0.535   2.028   3.343  0.0417  0.2145 -0.3881
  173MOL0     C22760   0.550   2.148   3.421 -0.7522  0.5290 -0.3223
  173MOL0     C22761   0.583   2.151   3.557  0.0076 -0.0977 -0.0324
  173MOL0     O22762   0.591   2.269   3.625 -0.3993  0.7646 -0.2363
  173MOL0     C22763   0.533   2.389   3.580 -0.2468 -0.0466  0.6322
  173MOL0     C22764   0.564   2.507   3.678  0.6805  0.3479 -0.1265
  173MOL0     C22765   0.704   2.566   3.652 -0.3536 -0.3397  1.2361
  173MOL0     C22766   0.772   2.602   3.789 -0.5098 -0.2581  0.0357
  173MOL0     C22767   0.904   2.645   3.765  0.1862  0.1394 -0.2689
  173MOL0     C22768   1.020   2.677   3.750 -0.5668 -0.5115 -0.2324
  173MOL0     C22769   0.592   2.025   3.623  0.1778  0.3347  0.9910
  173MOL0     C22770   0.566   1.906   3.548  0.7672 -0.1859 -0.6316
  173MOL0     H22771   0.702   1.652   3.149 -0.9140 -0.2485  1.4281
  173MOL0     H22772   0.708   1.444   3.006  0.0571 -1.6122  1.1418
  173MOL0     H22773   0.667   1.216   2.969 -0.3517  0.6414  0.5172
  173MOL0     H22774   0.696   1.306   2.825  1.4880 -2.3528  0.4548
  173MOL0     H22775   0.688   1.060   2.823 -0.6141 -0.2342 -0.0760
  173MOL0     H22776   0.574   1.129   2.699 -0.4133 -0.9798  0.2698
  173MOL0     H22777   0.390   1.109   2.827  0.7458 -0.8869  0.9322
  173MOL0     H22778   0.473   1.060   2.975 -1.5309 -0.2876  0.2344
  173MOL0     H22779   0.497   0.923   2.709 -2.3290  1.0510 -0.8388
  173MOL0     H22780   0.532   0.849   2.869  0.2268 -0.8661 -3.0854
  173MOL0     H22781   0.271   0.869   2.894 -2.1271 -3.1339 -1.3961
  173MOL0     H22782   0.339   0.754   2.768 -0.7568 -0.9899  0.2164
  173MOL0     H22783   0.321   0.913   2.583 -3.2281  2.3209 -2.2323
  173MOL0     H22784   0.215   1.016   2.689  3.4320  1.0034  1.7545
  173MOL0     H22785   0.148   0.733   2.622 -1.8814 -0.2833  1.4485
  173MOL0     H22786   0.060   0.859   2.721  1.7279  1.0443  0.0756
  173MOL0     H22787   0.142   0.884   2.428 -0.0142 -5.3064  0.3728
  173MOL0     H22788   0.058   1.006   2.525  0.9497  0.3424 -2.6930
  173MOL0     H22789  -0.035   0.629   2.408 -0.9968 -1.1031 -0.0838
  173MOL0     H22790  -0.270   0.559   2.309 -1.1215 -0.4560 -0.0871
  173MOL0     H22791  -0.406   0.573   2.424 -1.0612  0.4793  0.0939
  173MOL0     H22792  -0.244   0.452   2.598 -1.1813 -2.6417  1.4445
  173MOL0     H22793  -0.143   0.430   2.446 -0.2071  3.1234  0.5414
  173MOL0     H22794  -0.314   0.247   2.539  1.6427  0.3034  0.1397
  173MOL0     H22795  -0.441   0.357   2.497  0.3659  0.0200 -1.1558
  173MOL0     H22796  -0.408   0.189   2.320  0.1795  0.9574 -2.4474
  173MOL0     H22797  -0.238   0.183   2.336 -0.1228 -0.7003 -1.5415
  173MOL0     H22798  -0.560   0.279   2.248  1.0880  0.8028  1.4968
  173MOL0     H22799  -0.735   0.345   2.083 -0.7224  1.2494 -3.0884
  173MOL0     H22800  -0.844   0.273   1.612 -0.1202 -0.3904 -3.0177
  173MOL0     H22801  -0.997   0.341   1.441  0.0021 -0.4433  0.3049
  173MOL0     H22802  -1.312   0.633   1.553  0.9462  0.7743  0.8434
  173MOL0     H22803  -1.372   0.455   1.527  1.1314  0.3647  0.3713
  173MOL0     H22804  -1.397   0.503   1.282 -2.2429 -1.1868  1.3628
  173MOL0     H22805  -1.325   0.667   1.312  0.1921  0.3979  1.0933
  173MOL0     H22806  -1.569   0.675   1.296  1.3352  0.8628  1.0723
  173MOL0     H22807  -1.546   0.712   1.462  1.6113 -0.2364  0.6698
  173MOL0     H22808  -1.617   0.450   1.329  1.0428  1.4515 -1.7942
  173MOL0     H22809  -1.603   0.479   1.516 -1.8628 -0.3260  0.5829
  173MOL0     H22810  -1.846   0.505   1.383  1.0611 -0.9415  0.1073
  173MOL0     H22811  -1.774   0.655   1.353 -1.9627  0.7665  1.8079
  173MOL0     H22812  -1.773   0.694   1.610 -0.9168  0.7519 -0.6546
  173MOL0     H22813  -1.791   0.530   1.634  0.5259 -0.2296 -1.0556
  173MOL0     H22814  -2.005   0.657   1.476 -1.8048 -3.5222 -0.8418
  173MOL0     H22815  -2.019   0.520   1.587  1.9399 -0.7569  2.3296
  173MOL0     H22816  -2.120   0.713   1.702 -0.2561  0.5993  1.1757
  173MOL0     H22817  -1.980   0.811   1.676  1.1716  0.9143  1.3209
  173MOL0     H22818  -1.166   0.650   1.691  0.3629 -0.1184  1.0196
  173MOL0     H22819  -0.993   0.599   1.863  0.3471  0.0092 -0.8376
  173MOL0     H22820  -0.450   0.589   1.873 -0.2140  1.5780  2.2363
  173MOL0     H22821  -0.277   0.513   2.028  0.8019 -2.4374  1.9833
  173MOL0     H22822   0.285   1.476   2.989  1.0781 -2.8869 -1.2872
  173MOL0     H22823   0.298   1.672   3.138 -0.2864  2.8570 -2.1387
  173MOL0     H22824   0.508   2.034   3.238 -1.3132  0.2064 -0.0517
  173MOL0     H22825   0.548   2.240   3.364 -1.9033  0.5153 -0.3147
  173MOL0     H22826   0.426   2.385   3.558 -0.9612  0.3445  3.6390
  173MOL0     H22827   0.574   2.413   3.482 -3.9332 -2.2732 -1.6856
  173MOL0     H22828   0.494   2.589   3.665 -1.0759 -0.9477  0.7661
  173MOL0     H22829   0.556   2.463   3.777  0.5590  1.9339  0.5958
  173MOL0     H22830   0.706   2.662   3.599  1.5492 -0.7254  0.5554
  173MOL0     H22831   0.765   2.502   3.589 -1.5020 -0.1895 -0.0574
  173MOL0     H22832   0.717   2.678   3.845 -1.9251 -1.3191  0.1312
  173MOL0     H22833   0.777   2.510   3.848  0.3944 -0.4320 -0.2863
  173MOL0     H22834   1.121   2.704   3.727 -1.3935  0.4841 -3.0311
  173MOL0     H22835   0.612   2.026   3.730 -1.2655  0.3562  1.2716
  173MOL0     H22836   0.557   1.813   3.602 -1.4998 -1.4208 -2.9369
  174MOL0     O22837   7.216   3.013   5.124  0.2260  0.0602  0.6188
  174MOL0     C22838   7.211   3.057   5.237 -0.5787 -0.6985  0.0990
  174MOL0     O22839   7.098   3.092   5.302 -0.3011  0.3045  0.1173
  174MOL0     C22840   6.969   3.075   5.248 -0.2449  0.6470 -1.0007
  174MOL0     C22841   6.863   3.066   5.338 -0.3214  0.2028 -0.1439
  174MOL0     C22842   6.727   3.049   5.296 -0.0971 -0.4011  0.1510
  174MOL0     C22843   6.698   3.042   5.156  0.5079  0.4333 -0.6359
  174MOL0     O22844   6.571   3.029   5.111  0.9328 -0.4081  0.4858
  174MOL0     C22845   6.559   2.904   5.029  0.4496  0.6970 -0.7708
  174MOL0     C22846   6.409   2.857   5.009 -0.5406 -0.1049  0.1768
  174MOL0     C22847   6.407   2.768   4.888 -0.1024 -0.7571  0.7217
  174MOL0     C22848   6.266   2.734   4.856  0.3532  0.5922 -0.4440
  174MOL0     C22849   6.250   2.659   4.721  0.6379  0.0474  0.2472
  174MOL0     C22850   6.289   2.510   4.715  0.3699  0.8657  0.3937
  174MOL0     C22851   6.201   2.437   4.607 -0.4093 -0.5798 -0.4372
  174MOL0     C22852   6.201   2.291   4.647  0.6596 -0.1397 -0.0680
  174MOL0     N22853   6.122   2.218   4.540  0.0399  0.0255  0.0408
  174MOL0     C22854   6.183   2.122   4.457 -0.1955 -0.3399 -0.8860
  174MOL0     C22855   6.083   2.063   4.390  0.1867 -0.1194 -0.3036
  174MOL0     C22856   6.119   1.971   4.278  0.3507 -1.1938 -0.6376
  174MOL0     C22857   5.994   1.894   4.238 -0.3033  0.5081  0.0961
  174MOL0     C22858   5.939   1.822   4.362  0.8786 -0.1469  0.1297
  174MOL0     C22859   5.857   1.684   4.335 -0.8090  0.3318 -0.7600
  174MOL0     O22860   5.732   1.710   4.270 -0.1427  0.3219 -0.4980
  174MOL0     C22861   5.647   1.611   4.222 -0.2839  0.3890 -0.0348
  174MOL0     C22862   5.653   1.478   4.260  1.0158 -1.0362 -0.4233
  174MOL0     C22863   5.553   1.390   4.226  0.1225  0.7100  0.2252
  174MOL0     C22864   5.444   1.422   4.150  0.5971 -0.5156 -0.1205
  174MOL0     C22865   5.339   1.333   4.119  0.2655  0.6497  0.0941
  174MOL0     O22866   5.243   1.378   4.024  0.0242  0.5525  0.3993
  174MOL0     C22867   5.134   1.289   4.021  0.6598 -0.5538 -0.0894
  174MOL0     C22868   5.121   1.190   3.920  0.1555 -0.3825  0.0790
  174MOL0     C22869   5.015   1.102   3.918 -0.6842  0.3630  0.0544
  174MOL0     C22870   4.922   1.106   4.019 -0.2527 -0.7704 -0.5098
  174MOL0     O22871   4.826   1.011   4.036  0.2624  0.3615  0.2721
  174MOL0     C22872   4.780   0.931   3.925 -0.0292  0.9571  0.6743
  174MOL0     C22873   4.681   0.822   3.971 -0.4635  0.5637  0.2388
  174MOL0     C22874   4.627   0.744   3.848  0.1566  0.5413  0.3091
  174MOL0     C22875   4.517   0.650   3.885  0.5079  0.1501  0.4338
  174MOL0     C22876   4.491   0.559   3.757 -0.7049 -0.7894 -0.5176
  174MOL0     C22877   4.421   0.633   3.641 -0.0837  0.7315  0.7200
  174MOL0     C22878   4.287   0.687   3.676 -0.2079 -0.1446 -0.1212
  174MOL0     C22879   4.184   0.592   3.744  0.1951  0.6879  0.0476
  174MOL0    Cl22880   4.173   0.429   3.672 -0.0309 -0.0058  0.1863
  174MOL0     C22881   4.941   1.198   4.120  0.0422  0.0526 -0.6011
  174MOL0     C22882   5.039   1.290   4.120 -0.4306 -0.4415 -1.0165
  174MOL0     O22883   5.343   1.223   4.170  0.9531 -0.1569  0.6043
  174MOL0     C22884   5.433   1.566   4.117 -0.4853  0.2008  0.3255
  174MOL0     C22885   5.532   1.652   4.154 -0.4312 -0.3301  0.1984
  174MOL0     N22886   5.962   2.124   4.431 -0.4696 -1.6416  0.3301
  174MOL0     N22887   5.984   2.203   4.531  0.0351  0.1066 -0.1138
  174MOL0     C22888   6.803   3.069   5.068 -0.5595 -0.9167 -0.6478
  174MOL0     C22889   6.936   3.081   5.113 -0.0086 -0.3647  0.3475
  174MOL0     C22890   7.346   3.072   5.304  0.9799 -1.3710 -0.0933
  174MOL0     C22891   7.466   3.066   5.241 -0.4095 -0.3646 -0.2307
  174MOL0     C22892   7.579   3.072   5.319 -1.1010 -0.9481 -0.0065
  174MOL0     C22893   7.581   3.110   5.454  0.5859  0.1533 -0.1852
  174MOL0     O22894   7.692   3.138   5.528  0.5154  0.5800 -0.1300
  174MOL0     C22895   7.750   3.261   5.488 -1.0610  0.6713  0.0057
  174MOL0     C22896   7.867   3.286   5.588 -0.5474  0.9286 -0.5070
  174MOL0     C22897   7.996   3.214   5.540 -0.4420  0.5290  0.2960
  174MOL0     C22898   8.105   3.264   5.625 -0.3107 -0.0235 -0.1035
  174MOL0     C22899   8.233   3.202   5.570  0.7454 -0.1694  0.6343
  174MOL0     C22900   8.330   3.158   5.515 -0.6171 -0.1360  0.0621
  174MOL0     C22901   7.453   3.145   5.511  0.2415  0.1756 -0.3484
  174MOL0     C22902   7.335   3.117   5.436 -0.2419 -0.4936  0.8449
  174MOL0     H22903   6.876   3.062   5.446  2.4305 -2.5153 -0.4535
  174MOL0     H22904   6.649   3.049   5.371  0.2005  0.3871  0.4635
  174MOL0     H22905   6.632   2.832   5.067  2.8261  2.0154 -2.5684
  174MOL0     H22906   6.583   2.950   4.932  0.5563  5.6199  1.2831
  174MOL0     H22907   6.352   2.949   4.998 -1.7241 -0.7087  1.0733
  174MOL0     H22908   6.376   2.809   5.101 -1.6416  1.1086  0.4355
  174MOL0     H22909   6.463   2.680   4.918  0.4387  0.3199  3.1542
  174MOL0     H22910   6.459   2.819   4.807 -1.8041  0.6460  0.4226
  174MOL0     H22911   6.222   2.677   4.939  1.0531  3.3338  1.9692
  174MOL0     H22912   6.215   2.829   4.841 -0.1586  0.1661 -1.4689
  174MOL0     H22913   6.314   2.696   4.641 -1.0769  1.7380 -0.4153
  174MOL0     H22914   6.143   2.672   4.701  0.0676 -0.7356  2.4164
  174MOL0     H22915   6.264   2.462   4.810 -0.1528 -1.1129 -0.6911
  174MOL0     H22916   6.394   2.486   4.694  0.3910  0.6274  0.7581
  174MOL0     H22917   6.104   2.486   4.592  2.1707  4.0701 -5.2403
  174MOL0     H22918   6.249   2.450   4.510 -2.6412  1.2817 -1.3890
  174MOL0     H22919   6.148   2.281   4.743  0.1608 -2.0637 -0.4924
  174MOL0     H22920   6.302   2.251   4.658  0.3222 -0.9922  0.0310
  174MOL0     H22921   6.290   2.105   4.448  0.5353  3.2224 -0.1658
  174MOL0     H22922   6.195   1.907   4.324  2.2024 -0.1651 -2.1025
  174MOL0     H22923   6.161   2.026   4.193  0.1637 -4.1315 -2.7949
  174MOL0     H22924   6.023   1.823   4.159 -1.7039  0.1250 -0.1057
  174MOL0     H22925   5.920   1.966   4.201 -1.1257 -1.1787 -1.7586
  174MOL0     H22926   6.018   1.792   4.431  0.2238 -3.3141 -0.3832
  174MOL0     H22927   5.874   1.894   4.413 -1.7632 -2.2463 -0.0264
  174MOL0     H22928   5.840   1.638   4.433 -3.2814  3.2802  0.3575
  174MOL0     H22929   5.904   1.620   4.259  0.6574  1.0552 -0.5151
  174MOL0     H22930   5.725   1.442   4.334 -2.5152 -2.0449  2.8214
  174MOL0     H22931   5.578   1.292   4.265 -1.2863 -0.5069 -1.7471
  174MOL0     H22932   5.192   1.179   3.838 -0.1601  0.7557 -0.3711
  174MOL0     H22933   4.999   1.033   3.836  1.8242 -1.5356  1.0302
  174MOL0     H22934   4.863   0.882   3.873  0.9718  2.5004  0.7484
  174MOL0     H22935   4.735   0.988   3.843 -0.4155 -1.2580 -0.7541
  174MOL0     H22936   4.608   0.871   4.035 -3.2000  0.3252 -2.4806
  174MOL0     H22937   4.729   0.745   4.032  0.6864 -0.5400 -1.9236
  174MOL0     H22938   4.706   0.686   3.800 -1.3412 -2.2631  1.0437
  174MOL0     H22939   4.575   0.817   3.785 -1.8593 -0.6781  0.4847
  174MOL0     H22940   4.546   0.592   3.974 -0.4029 -0.2767  0.4625
  174MOL0     H22941   4.428   0.710   3.909 -0.2003  0.3592 -2.3909
  174MOL0     H22942   4.433   0.472   3.790  1.3291 -1.3982  1.8487
  174MOL0     H22943   4.589   0.517   3.731  0.9778 -0.5905  4.3048
  174MOL0     H22944   4.408   0.569   3.553 -0.2875 -0.6217  1.6927
  174MOL0     H22945   4.489   0.713   3.611  3.3004 -1.1532  2.6975
  174MOL0     H22946   4.303   0.767   3.748  1.4759 -2.0835  1.8095
  174MOL0     H22947   4.241   0.736   3.590  1.3684  1.4635 -0.1021
  174MOL0     H22948   4.084   0.637   3.740 -0.0097  0.2804  0.4606
  174MOL0     H22949   4.199   0.577   3.852 -0.4981 -0.7983 -0.0391
  174MOL0     H22950   4.873   1.199   4.204  0.7305  3.1710  0.0431
  174MOL0     H22951   5.060   1.355   4.204  3.5599 -1.9485 -0.6507
  174MOL0     H22952   5.351   1.623   4.073 -2.6470 -1.6134  1.7631
  174MOL0     H22953   5.526   1.758   4.132 -1.4652 -0.1664  1.1915
  174MOL0     H22954   6.779   3.063   4.962  1.2457 -0.9681 -1.0921
  174MOL0     H22955   7.009   3.102   5.036 -0.3189  0.5816  0.2918
  174MOL0     H22956   7.465   3.031   5.139 -1.8400  4.5096 -2.1475
  174MOL0     H22957   7.680   3.067   5.280 -0.1234  1.1922  1.9858
  174MOL0     H22958   7.683   3.348   5.492  1.5136  2.7450  1.0684
  174MOL0     H22959   7.784   3.254   5.385 -2.7367  0.8819 -0.5977
  174MOL0     H22960   7.882   3.394   5.589  2.3567  0.6124  2.0579
  174MOL0     H22961   7.840   3.260   5.691  0.8970  0.2150 -0.2894
  174MOL0     H22962   8.017   3.245   5.437 -2.0398 -2.9203 -1.2087
  174MOL0     H22963   7.985   3.106   5.550  2.4710 -0.1391 -2.3946
  174MOL0     H22964   8.105   3.373   5.616 -0.8512 -0.1601 -2.3926
  174MOL0     H22965   8.088   3.229   5.727  1.3882 -0.9610 -0.1120
  174MOL0     H22966   8.411   3.109   5.463  0.5702  0.3065  1.4263
  174MOL0     H22967   7.441   3.190   5.609  1.6818  0.7351 -0.3912
  174MOL0     H22968   7.235   3.128   5.479 -0.3397  1.5275  0.2178
  175MOL0     O22969   0.069   2.738   9.976 -0.6000  0.1639 -0.5690
  175MOL0     C22970   0.176   2.679   9.960  0.2048  0.8288 -0.4019
  175MOL0     O22971   0.205   2.593   9.855  0.6903  0.0158  0.5825
  175MOL0     C22972   0.096   2.554   9.768 -0.6238  0.8040 -0.0083
  175MOL0     C22973   0.072   2.590   9.635 -0.7612  0.6199 -1.1914
  175MOL0     C22974  -0.049   2.554   9.572  0.9146 -0.2074 -0.2092
  175MOL0     C22975  -0.140   2.469   9.636 -0.3383 -0.6559 -0.2340
  175MOL0     O22976  -0.252   2.432   9.559  0.0242  0.6255  0.5008
  175MOL0     C22977  -0.363   2.377   9.626 -0.3246  0.0162 -0.1546
  175MOL0     C22978  -0.491   2.395   9.541  0.7691 -0.6004  0.5325
  175MOL0     C22979  -0.574   2.275   9.575  0.5298 -0.1543  0.7253
  175MOL0     C22980  -0.701   2.270   9.482  0.3560 -0.1489  0.1532
  175MOL0     C22981  -0.759   2.131   9.490  0.5375  0.9268  0.5741
  175MOL0     C22982  -0.888   2.120   9.403  0.6467 -0.7375  0.6070
  175MOL0     C22983  -0.935   1.978   9.389  0.0680 -0.1427  0.6688
  175MOL0     C22984  -1.035   1.927   9.484  0.8038  0.1245 -0.2349
  175MOL0     N22985  -0.973   1.869   9.606 -0.0027  0.2138  0.2399
  175MOL0     C22986  -0.956   1.937   9.716 -0.1561 -0.3331 -1.0703
  175MOL0     C22987  -0.897   1.850   9.797 -0.1434 -0.0265 -0.5626
  175MOL0     C22988  -0.837   1.882   9.933  0.6380 -0.2713 -0.2562
  175MOL0     C22989  -0.718   1.990   9.929  0.0592 -0.2952 -0.3584
  175MOL0     C22990  -0.592   1.946   9.873  0.1575  0.0583  1.1277
  175MOL0     C22991  -0.486   2.047   9.906  0.7179 -0.4935 -0.7295
  175MOL0     O22992  -0.366   2.009   9.844 -0.4798  0.4719  0.3743
  175MOL0     C22993  -0.250   2.072   9.887  0.2815  0.0136  0.3347
  175MOL0     C22994  -0.246   2.156   9.997 -0.1850 -0.0157  0.6249
  175MOL0     C22995  -0.124   2.199  10.056  0.3649 -0.9609 -0.5182
  175MOL0     C22996  -0.001   2.158   9.995  0.2558  0.7294  0.0937
  175MOL0     C22997   0.131   2.194  10.064 -0.5456 -0.0521 -0.3741
  175MOL0     O22998   0.233   2.139  10.006  0.2466  0.5083 -0.1687
  175MOL0     C22999   0.359   2.138  10.061  0.4173 -0.1057  0.7359
  175MOL0     C23000   0.409   2.209  10.169  0.5687  0.0916 -0.2356
  175MOL0     C23001   0.544   2.188  10.214 -0.0647  0.1936  0.1014
  175MOL0     C23002   0.619   2.080  10.153 -0.0791 -0.3455  0.9985
  175MOL0     O23003   0.737   2.027  10.208 -0.7924  0.3221  0.7226
  175MOL0     C23004   0.844   2.113  10.220 -0.4388 -0.7227  0.6750
  175MOL0     C23005   0.939   2.053  10.322  0.8514  0.1513  0.0483
  175MOL0     C23006   1.078   2.090  10.294 -1.8220  0.3554 -0.0746
  175MOL0     C23007   1.118   2.236  10.324 -0.1763  0.3850 -0.2237
  175MOL0     C23008   1.264   2.265  10.284 -0.3367 -0.5956 -0.2989
  175MOL0     C23009   1.317   2.405  10.318 -0.8982  0.0523 -0.4842
  175MOL0     C23010   1.252   2.467  10.446 -0.3843  1.3401  0.3262
  175MOL0     C23011   1.281   2.388  10.574  0.0212  0.1339  0.1383
  175MOL0    Cl23012   1.220   2.481  10.721 -0.6619 -0.3755 -0.2733
  175MOL0     C23013   0.565   2.000  10.052  0.1036  0.8874 -0.2173
  175MOL0     C23014   0.442   2.026  10.008  0.6974 -1.1395  0.3560
  175MOL0     O23015   0.126   2.262  10.166 -0.9152 -0.0426 -0.6663
  175MOL0     C23016  -0.006   2.076   9.879  0.3009  0.0089  0.7317
  175MOL0     C23017  -0.130   2.037   9.830 -0.2878  0.4846 -0.1213
  175MOL0     N23018  -0.883   1.729   9.729  0.1411 -0.2951 -0.1241
  175MOL0     N23019  -0.916   1.746   9.613  0.1089  0.1070  0.3276
  175MOL0     C23020  -0.115   2.430   9.763  0.3074 -0.0095  0.3689
  175MOL0     C23021  -0.007   2.478   9.832  0.8037  0.8174  0.1784
  175MOL0     C23022   0.286   2.710  10.056 -0.3175 -0.1490 -0.0739
  175MOL0     C23023   0.390   2.625  10.070 -0.7094 -0.6163  0.4956
  175MOL0     C23024   0.506   2.663  10.145  0.4050  0.2476 -0.7511
  175MOL0     C23025   0.510   2.789  10.211 -0.2437 -0.1462 -0.4492
  175MOL0     O23026   0.605   2.807  10.309 -0.5037  0.4011  0.9357
  175MOL0     C23027   0.586   2.923  10.391  0.7863 -0.0749  0.1462
  175MOL0     C23028   0.680   2.940  10.512 -0.3797  0.3101 -0.0552
  175MOL0     C23029   0.637   2.843  10.618  0.6840 -1.3441  0.1101
  175MOL0     C23030   0.749   2.808  10.715 -0.1783  0.0040  0.4955
  175MOL0     C23031   0.827   2.714  10.654 -1.0576 -0.3944  0.9101
  175MOL0     C23032   0.900   2.624  10.617  0.3990 -0.6760 -0.6543
  175MOL0     C23033   0.405   2.883  10.194 -0.0249  1.0784 -0.6290
  175MOL0     C23034   0.297   2.840  10.113  0.1327 -0.6277 -0.4177
  175MOL0     H23035   0.157   2.631   9.580  0.2781 -2.3469 -1.9529
  175MOL0     H23036  -0.072   2.572   9.467 -2.4420 -1.2780  0.2279
  175MOL0     H23037  -0.379   2.440   9.714  1.1796 -0.2998  0.3760
  175MOL0     H23038  -0.339   2.272   9.646 -1.6051 -0.5361 -1.4322
  175MOL0     H23039  -0.463   2.405   9.435 -2.0259 -1.5174 -0.3879
  175MOL0     H23040  -0.541   2.487   9.573 -1.4290 -1.7696  0.6411
  175MOL0     H23041  -0.604   2.283   9.680  0.0235 -1.8050  0.7330
  175MOL0     H23042  -0.505   2.190   9.566  1.1723  0.5885 -2.2976
  175MOL0     H23043  -0.774   2.349   9.501 -0.9842 -1.8679  2.8393
  175MOL0     H23044  -0.668   2.290   9.380  1.5534 -1.9931  0.1192
  175MOL0     H23045  -0.772   2.111   9.596  1.4643  2.0463  0.9181
  175MOL0     H23046  -0.695   2.047   9.461 -0.4875  0.4919 -0.5694
  175MOL0     H23047  -0.871   2.152   9.299  1.2000  0.6703  1.0972
  175MOL0     H23048  -0.969   2.184   9.440  0.7085  0.2695 -0.9066
  175MOL0     H23049  -0.989   1.967   9.294 -1.1747 -0.2715  1.3790
  175MOL0     H23050  -0.852   1.907   9.376  0.2711  0.3497 -1.1315
  175MOL0     H23051  -1.088   1.847   9.431 -0.3303  0.5226  0.2702
  175MOL0     H23052  -1.108   2.002   9.515  1.2977  0.4275  0.2062
  175MOL0     H23053  -0.973   2.043   9.731 -0.8508 -0.5452 -0.2759
  175MOL0     H23054  -0.809   1.788   9.981 -1.3581 -0.2194  1.1023
  175MOL0     H23055  -0.915   1.920   9.999  1.8378 -0.6110  1.4240
  175MOL0     H23056  -0.702   2.018  10.033 -1.5694 -3.2498  0.8021
  175MOL0     H23057  -0.751   2.078   9.873  0.6765 -0.6054 -1.2309
  175MOL0     H23058  -0.553   1.852   9.915  4.2021  0.9548 -0.1853
  175MOL0     H23059  -0.601   1.946   9.764  1.0242  2.1295  1.0162
  175MOL0     H23060  -0.475   2.047  10.015 -0.9738  1.0522 -0.5088
  175MOL0     H23061  -0.507   2.146   9.867  0.3364 -0.2162  0.1700
  175MOL0     H23062  -0.335   2.201  10.040 -0.0183  1.6903 -0.6961
  175MOL0     H23063  -0.121   2.264  10.142 -0.6086  0.7893 -1.7371
  175MOL0     H23064   0.353   2.278  10.232  1.0326 -0.5552  0.9277
  175MOL0     H23065   0.586   2.237  10.302  0.9242 -1.4451  0.5798
  175MOL0     H23066   0.816   2.216  10.246  2.1687  0.5668 -1.1687
  175MOL0     H23067   0.907   2.121  10.131  0.9716 -1.2497  1.5937
  175MOL0     H23068   0.933   1.943  10.325  1.1996  0.1341  0.1956
  175MOL0     H23069   0.907   2.087  10.421 -1.8128 -0.4987 -0.5105
  175MOL0     H23070   1.102   2.069  10.190  0.0135 -0.8014  0.5481
  175MOL0     H23071   1.145   2.029  10.355 -0.1102  1.2740 -0.9863
  175MOL0     H23072   1.056   2.305  10.266 -1.5290  0.3316  1.1011
  175MOL0     H23073   1.101   2.252  10.431  2.5657 -0.3094  0.3781
  175MOL0     H23074   1.292   2.237  10.182  3.4900  1.1350  0.0668
  175MOL0     H23075   1.327   2.200  10.345  0.1465 -2.2399 -2.4373
  175MOL0     H23076   1.306   2.483  10.242  2.9132  0.4848 -0.7915
  175MOL0     H23077   1.423   2.388  10.340 -0.1959  3.2356 -0.8667
  175MOL0     H23078   1.287   2.567  10.472 -1.0080  1.0136  2.6702
  175MOL0     H23079   1.145   2.473  10.421 -0.4158 -2.1575 -0.9604
  175MOL0     H23080   1.388   2.366  10.573 -0.1009 -0.5547 -2.1680
  175MOL0     H23081   1.236   2.289  10.585 -0.2037  0.1142 -0.8958
  175MOL0     H23082   0.623   1.916  10.015 -1.5336 -0.0985 -0.6154
  175MOL0     H23083   0.406   1.971   9.922  1.2927 -2.8694  1.1678
  175MOL0     H23084   0.087   2.040   9.836  0.0356  1.5559 -1.3088
  175MOL0     H23085  -0.128   1.971   9.744 -0.3372  4.2115 -3.2341
  175MOL0     H23086  -0.175   2.362   9.823 -0.5235  0.3746 -0.0090
  175MOL0     H23087  -0.001   2.446   9.935  3.9866  1.4247  0.2958
  175MOL0     H23088   0.385   2.528  10.021 -5.7587 -2.3635  3.7299
  175MOL0     H23089   0.586   2.590  10.145  0.6175  0.4273  1.1460
  175MOL0     H23090   0.481   2.926  10.424  0.6097  1.2183 -0.4353
  175MOL0     H23091   0.598   3.015  10.332  3.3493  0.4549  1.3690
  175MOL0     H23092   0.782   2.923  10.474 -1.4481  0.1372 -3.0896
  175MOL0     H23093   0.677   3.042  10.551  3.9122  0.4473  0.4865
  175MOL0     H23094   0.593   2.759  10.565  0.0616 -0.0962 -1.4214
  175MOL0     H23095   0.562   2.892  10.681  0.3305  0.8746 -1.9010
  175MOL0     H23096   0.806   2.898  10.740 -0.7718  0.0861  1.6371
  175MOL0     H23097   0.703   2.765  10.805 -3.2626 -0.2215 -1.0684
  175MOL0     H23098   0.963   2.556  10.564  0.1841 -1.7161  0.3926
  175MOL0     H23099   0.407   2.987  10.227  0.5311  0.4511  1.4330
  175MOL0     H23100   0.229   2.918  10.080  1.0723  0.4924  0.2044
  176MOL0     O23101   1.258   1.653   3.632  0.0263 -0.1855  0.1919
  176MOL0     C23102   1.297   1.701   3.734 -0.5974 -0.6493  0.1913
  176MOL0     O23103   1.242   1.685   3.866 -0.1786  0.4004  0.3625
  176MOL0     C23104   1.146   1.596   3.902 -1.0222 -0.1338  0.0750
  176MOL0     C23105   1.130   1.586   4.041  0.9322  0.4126  0.8361
  176MOL0     C23106   1.015   1.519   4.090 -0.1053 -0.4629  0.0534
  176MOL0     C23107   0.919   1.448   4.015 -0.2767  0.0837 -0.3019
  176MOL0     O23108   0.811   1.390   4.074  0.2529  0.1473  0.1720
  176MOL0     C23109   0.702   1.337   3.997 -0.9525 -0.0592  0.0728
  176MOL0     C23110   0.621   1.462   3.944 -0.7002  0.1303 -0.7085
  176MOL0     C23111   0.487   1.419   3.890  0.0235  0.4106  0.8098
  176MOL0     C23112   0.409   1.530   3.821  0.8021  0.4276  0.0118
  176MOL0     C23113   0.291   1.481   3.729  0.7346 -0.2242  0.3100
  176MOL0     C23114   0.233   1.606   3.667  0.2810  0.7765  0.0922
  176MOL0     C23115   0.117   1.570   3.573  0.1970  0.3137 -0.3366
  176MOL0     C23116   0.156   1.610   3.430  0.7447 -0.8782 -0.1883
  176MOL0     N23117   0.065   1.588   3.320 -0.5232  0.7933 -0.0113
  176MOL0     C23118  -0.060   1.649   3.287 -0.8317  0.4381  0.3215
  176MOL0     C23119  -0.093   1.598   3.162  0.0751  0.5916  0.1303
  176MOL0     C23120  -0.219   1.637   3.078 -0.6424 -0.4503  0.0350
  176MOL0     C23121  -0.293   1.502   3.051  0.0107 -0.4264 -0.4370
  176MOL0     C23122  -0.438   1.536   2.982 -0.2284  0.2640  0.2225
  176MOL0     C23123  -0.544   1.579   3.085 -0.6043  0.2561 -0.2648
  176MOL0     O23124  -0.515   1.691   3.159  0.5758  0.1077 -0.2386
  176MOL0     C23125  -0.539   1.815   3.103  0.6876 -0.3789 -0.2126
  176MOL0     C23126  -0.586   1.830   2.969 -0.0479  0.3457 -0.4557
  176MOL0     C23127  -0.583   1.957   2.911 -0.5295  0.0404 -0.3557
  176MOL0     C23128  -0.551   2.075   2.977  0.4546  0.3919  0.5296
  176MOL0     C23129  -0.569   2.206   2.906  0.3379  0.2108 -0.0074
  176MOL0     O23130  -0.580   2.320   2.972 -0.1726 -0.1458  0.0979
  176MOL0     C23131  -0.687   2.410   2.954 -0.2080  0.1378  0.2810
  176MOL0     C23132  -0.795   2.387   2.861  0.0068  0.4983  0.1428
  176MOL0     C23133  -0.893   2.487   2.850  0.2490 -0.5347 -0.2602
  176MOL0     C23134  -0.887   2.610   2.919 -0.5378 -0.9426  0.3005
  176MOL0     O23135  -0.985   2.706   2.890 -0.5348  0.0210  0.1670
  176MOL0     C23136  -0.991   2.819   2.974  0.3572  0.2996 -0.5115
  176MOL0     C23137  -1.100   2.906   2.918  0.2649 -0.4919 -0.9107
  176MOL0     C23138  -1.143   3.031   3.003 -0.0856  0.1922 -0.3535
  176MOL0     C23139  -1.025   3.127   3.044  0.9393 -0.8442 -0.3665
  176MOL0     C23140  -0.971   3.198   2.920 -0.8503  0.2634 -0.4770
  176MOL0     C23141  -0.880   3.310   2.957 -0.4245 -0.0549 -0.3331
  176MOL0     C23142  -0.827   3.378   2.827  0.2088  0.7757 -0.4804
  176MOL0     C23143  -0.697   3.450   2.837 -0.0458  0.3851  0.1632
  176MOL0    Cl23144  -0.680   3.566   2.686 -0.1966 -0.1440 -0.3459
  176MOL0     C23145  -0.780   2.630   3.010 -0.5064 -0.9835  1.5056
  176MOL0     C23146  -0.694   2.524   3.030  0.5823 -0.7268 -0.3678
  176MOL0     O23147  -0.566   2.201   2.779 -0.0541  1.4234 -0.2245
  176MOL0     C23148  -0.534   2.063   3.118  0.3256 -0.4230  0.4765
  176MOL0     C23149  -0.525   1.935   3.176 -0.0741  0.2930 -0.3322
  176MOL0     N23150   0.005   1.505   3.118 -0.2433  0.1004 -0.1484
  176MOL0     N23151   0.088   1.499   3.218 -0.3893 -0.9889 -0.3281
  176MOL0     C23152   0.956   1.439   3.878  0.8370 -0.8117  0.2502
  176MOL0     C23153   1.057   1.521   3.821  0.2172  0.0407 -0.5564
  176MOL0     C23154   1.404   1.804   3.729  0.2473  0.0903  0.0429
  176MOL0     C23155   1.464   1.840   3.604 -0.0205 -0.1680 -0.7395
  176MOL0     C23156   1.572   1.933   3.600  0.8350 -0.3482 -0.1620
  176MOL0     C23157   1.635   1.979   3.721 -0.0382  0.3045  0.3621
  176MOL0     O23158   1.739   2.063   3.739  0.1207  0.1261  0.2167
  176MOL0     C23159   1.818   2.101   3.624  0.4431 -0.1032 -0.0276
  176MOL0     C23160   1.945   2.183   3.650 -0.0125 -0.1011 -0.6876
  176MOL0     C23161   2.071   2.097   3.670  0.6992  0.4450  0.6096
  176MOL0     C23162   2.076   2.021   3.797  0.9358 -0.8408 -0.8835
  176MOL0     C23163   2.203   1.956   3.828  0.3772  0.3908 -0.2284
  176MOL0     C23164   2.318   1.901   3.845  0.9588 -0.4444 -0.6077
  176MOL0     C23165   1.579   1.951   3.850 -0.4650  0.8716  0.6798
  176MOL0     C23166   1.462   1.868   3.851  0.0819 -0.1877 -0.4143
  176MOL0     H23167   1.186   1.640   4.117  1.4592  2.8018 -1.0976
  176MOL0     H23168   1.001   1.514   4.198 -1.8282  0.8404 -0.0624
  176MOL0     H23169   0.640   1.267   4.055 -0.9219 -2.7083 -2.7958
  176MOL0     H23170   0.741   1.287   3.908  0.0025  0.7674  0.0198
  176MOL0     H23171   0.681   1.508   3.864 -1.0812 -1.3600 -1.8934
  176MOL0     H23172   0.621   1.530   4.030  1.0968  1.1078 -1.4194
  176MOL0     H23173   0.417   1.389   3.969 -2.5548 -0.9492 -1.8411
  176MOL0     H23174   0.504   1.339   3.817  2.9538 -0.9237  2.7509
  176MOL0     H23175   0.359   1.577   3.906 -1.3415 -1.2895 -0.2204
  176MOL0     H23176   0.481   1.598   3.773  2.5253 -0.8058  0.7267
  176MOL0     H23177   0.206   1.433   3.779  0.6180  1.2553  1.5811
  176MOL0     H23178   0.339   1.423   3.650  2.5536  3.4672 -1.5090
  176MOL0     H23179   0.310   1.672   3.628  1.1100 -0.6460 -0.7642
  176MOL0     H23180   0.173   1.671   3.731 -2.9654  1.3791 -3.2183
  176MOL0     H23181   0.093   1.465   3.555 -1.5421  0.6444 -0.1627
  176MOL0     H23182   0.024   1.623   3.595  0.1789  0.7680 -1.4448
  176MOL0     H23183   0.249   1.558   3.407  2.1363  1.4085 -0.0678
  176MOL0     H23184   0.168   1.719   3.435 -0.8888 -0.7020  0.7335
  176MOL0     H23185  -0.125   1.705   3.353 -1.4882  0.1120 -0.0470
  176MOL0     H23186  -0.210   1.689   2.982  0.1484 -1.4133 -0.4292
  176MOL0     H23187  -0.286   1.700   3.137 -0.9899  1.3771 -2.1913
  176MOL0     H23188  -0.304   1.450   3.147  2.7460 -1.3765 -0.5804
  176MOL0     H23189  -0.236   1.448   2.975 -2.5416 -2.4520 -1.0413
  176MOL0     H23190  -0.419   1.621   2.916 -0.0622 -0.4880 -0.7178
  176MOL0     H23191  -0.474   1.450   2.925 -1.9827  0.2338  1.3138
  176MOL0     H23192  -0.550   1.499   3.160  1.7397  0.9203  0.7102
  176MOL0     H23193  -0.640   1.588   3.033  0.8916  2.1032 -2.9503
  176MOL0     H23194  -0.595   1.751   2.895 -0.2438 -1.5532  1.4928
  176MOL0     H23195  -0.615   1.962   2.807  0.1226 -1.1478 -0.6243
  176MOL0     H23196  -0.791   2.295   2.803 -0.8457 -1.4607  2.9735
  176MOL0     H23197  -0.976   2.475   2.781  2.0302  0.6176 -2.7379
  176MOL0     H23198  -0.893   2.867   2.970 -0.3396  1.8558 -0.0877
  176MOL0     H23199  -1.013   2.790   3.077  0.3432 -0.0094 -0.6003
  176MOL0     H23200  -1.190   2.844   2.913 -1.0752  1.3112 -0.0868
  176MOL0     H23201  -1.081   2.953   2.822 -1.2123  0.1622 -0.9029
  176MOL0     H23202  -1.176   2.977   3.093  0.8204 -1.7239 -1.1040
  176MOL0     H23203  -1.225   3.092   2.965  2.2717  3.4995 -0.4841
  176MOL0     H23204  -1.073   3.209   3.099  0.0816 -1.0335 -0.8233
  176MOL0     H23205  -0.955   3.079   3.112 -0.5626 -1.2216  0.9616
  176MOL0     H23206  -1.051   3.240   2.858 -0.3275 -0.1457 -1.4557
  176MOL0     H23207  -0.913   3.127   2.860  1.3413  0.3467  1.4168
  176MOL0     H23208  -0.804   3.267   3.023 -1.1740 -1.1577 -0.1577
  176MOL0     H23209  -0.933   3.380   3.023 -2.1261 -0.8200 -0.8208
  176MOL0     H23210  -0.817   3.306   2.746 -0.3738  1.1914 -0.9298
  176MOL0     H23211  -0.906   3.449   2.800  0.4872  0.8374 -1.1416
  176MOL0     H23212  -0.614   3.380   2.847  2.0075  2.4894 -1.1157
  176MOL0     H23213  -0.688   3.521   2.920 -3.0708 -2.1736  2.9631
  176MOL0     H23214  -0.757   2.715   3.073 -0.4989  1.0623 -1.0619
  176MOL0     H23215  -0.620   2.564   3.098 -0.1607  0.9741 -0.5083
  176MOL0     H23216  -0.522   2.150   3.182  1.1164 -0.3589  0.2445
  176MOL0     H23217  -0.510   1.933   3.284 -4.7755 -0.3746  0.5236
  176MOL0     H23218   0.890   1.378   3.818  0.3403 -1.4214  1.3767
  176MOL0     H23219   1.071   1.521   3.713 -0.1962 -2.1276 -0.6455
  176MOL0     H23220   1.444   1.780   3.516 -1.3548 -1.6043  0.4820
  176MOL0     H23221   1.615   1.943   3.501 -1.0230 -1.4783 -1.1549
  176MOL0     H23222   1.755   2.169   3.566  0.9600 -0.1777 -0.6782
  176MOL0     H23223   1.838   2.008   3.570  0.2869 -0.4674  0.5273
  176MOL0     H23224   1.967   2.245   3.562  2.2590  0.0071 -0.1012
  176MOL0     H23225   1.929   2.248   3.736 -2.4749 -0.9837 -0.3762
  176MOL0     H23226   2.160   2.160   3.674  1.8362 -1.0679  0.0694
  176MOL0     H23227   2.076   2.019   3.592  0.1106  0.2423  0.7642
  176MOL0     H23228   2.036   2.085   3.876  0.6409 -0.3762 -1.3975
  176MOL0     H23229   2.001   1.942   3.799  1.8787 -1.7508  0.8636
  176MOL0     H23230   2.419   1.866   3.852  0.5957 -1.3529  0.4365
  176MOL0     H23231   1.621   1.986   3.943  1.8129 -1.8114  0.7650
  176MOL0     H23232   1.426   1.846   3.951  1.7593  0.1476  0.2918
  177MOL0     O23233   3.997   6.000  10.618  0.4471 -0.7714  0.5776
  177MOL0     C23234   3.958   6.113  10.634 -0.3533  0.0233 -0.3279
  177MOL0     O23235   3.828   6.157  10.650 -0.0661  0.3018  0.1081
  177MOL0     C23236   3.728   6.071  10.605 -0.2616  0.1932  0.2635
  177MOL0     C23237   3.641   6.119  10.501 -0.2771  0.0069 -0.2417
  177MOL0     C23238   3.539   6.040  10.450  0.1694 -0.1412  0.3621
  177MOL0     C23239   3.516   5.905  10.493  0.5586 -0.4779 -0.3378
  177MOL0     O23240   3.409   5.845  10.431  0.0310 -0.2297 -0.1312
  177MOL0     C23241   3.389   5.711  10.466  0.0088  0.8528  0.1719
  177MOL0     C23242   3.279   5.665  10.370  0.5046 -0.9571  0.0482
  177MOL0     C23243   3.141   5.721  10.403  0.1068  0.1582 -0.3140
  177MOL0     C23244   3.036   5.642  10.331  0.6508  0.3849  0.8539
  177MOL0     C23245   2.889   5.707  10.342  0.3322  0.0361 -0.9365
  177MOL0     C23246   2.788   5.634  10.249 -0.6828 -0.3881  0.8815
  177MOL0     C23247   2.649   5.711  10.261 -0.9634 -0.0302  0.1008
  177MOL0     C23248   2.531   5.639  10.195  0.4574 -0.0692  0.0419
  177MOL0     N23249   2.419   5.721  10.212 -0.4611 -0.3362  1.1224
  177MOL0     C23250   2.357   5.757  10.330 -0.5815  0.0145 -0.2827
  177MOL0     C23251   2.247   5.812  10.285  0.5517  0.3568  0.6693
  177MOL0     C23252   2.134   5.865  10.369 -0.0028 -0.0784  0.0470
  177MOL0     C23253   2.066   5.988  10.302  0.5759  0.4687  0.5434
  177MOL0     C23254   1.984   6.072  10.399 -0.5049  0.2606  0.2273
  177MOL0     C23255   1.860   5.995  10.448 -1.2202  0.5929  0.7507
  177MOL0     O23256   1.781   6.072  10.538  0.9545  0.1719 -0.0929
  177MOL0     C23257   1.660   6.030  10.593 -0.5361 -0.0073 -0.3234
  177MOL0     C23258   1.622   5.896  10.597  0.2102  0.6363  0.0908
  177MOL0     C23259   1.493   5.852  10.623 -0.0743 -0.1307  0.5990
  177MOL0     C23260   1.391   5.947  10.641  0.7832 -0.0591 -0.9290
  177MOL0     C23261   1.253   5.903  10.667 -0.8049  0.1926  0.2352
  177MOL0     O23262   1.162   5.983  10.613  0.8852 -0.2201 -0.1033
  177MOL0     C23263   1.026   5.958  10.631 -0.1137 -0.1197  0.2781
  177MOL0     C23264   0.957   5.837  10.641 -0.4584  0.3549 -0.3464
  177MOL0     C23265   0.823   5.832  10.652 -0.0883 -0.1993  0.0902
  177MOL0     C23266   0.744   5.943  10.665  0.1433 -0.0375 -0.5337
  177MOL0     O23267   0.616   5.918  10.694 -0.5999 -0.0914 -0.1653
  177MOL0     C23268   0.523   6.013  10.748  0.8639  0.1002  0.1973
  177MOL0     C23269   0.377   5.960  10.722  0.4740  0.4699  0.2237
  177MOL0     C23270   0.375   5.812  10.751 -0.1751 -0.6436  0.1149
  177MOL0     C23271   0.235   5.763  10.733  0.4756  0.7644 -0.7181
  177MOL0     C23272   0.223   5.627  10.812 -0.4782 -0.1031  0.0685
  177MOL0     C23273   0.075   5.584  10.814  0.1268  0.1648 -0.4696
  177MOL0     C23274   0.045   5.463  10.894 -0.1825 -0.2497  0.6706
  177MOL0     C23275  -0.108   5.438  10.910 -0.3985 -0.1085  0.1895
  177MOL0    Cl23276  -0.201   5.460  10.754  0.5261  0.0041  0.3321
  177MOL0     C23277   0.808   6.071  10.645 -0.4811  0.1249 -0.1156
  177MOL0     C23278   0.947   6.073  10.634  0.2887  0.1000 -0.7755
  177MOL0     O23279   1.234   5.820  10.753 -0.3697  0.3251 -0.4643
  177MOL0     C23280   1.431   6.081  10.651  0.1567  0.0175  0.1292
  177MOL0     C23281   1.561   6.123  10.617  0.0916 -0.2100 -0.4676
  177MOL0     N23282   2.252   5.835  10.143 -0.2479 -0.1266 -0.9978
  177MOL0     N23283   2.355   5.771  10.106 -0.2558  0.9323 -0.1518
  177MOL0     C23284   3.593   5.866  10.599  0.3540 -0.1885 -0.1132
  177MOL0     C23285   3.702   5.938  10.651  0.3125 -0.0741 -0.2635
  177MOL0     C23286   4.065   6.213  10.678  0.0917  0.0983 -0.1403
  177MOL0     C23287   4.203   6.185  10.695 -0.2229 -0.1622  0.8068
  177MOL0     C23288   4.289   6.291  10.720 -0.1911  0.0995  0.9783
  177MOL0     C23289   4.247   6.425  10.740 -0.5028 -0.0473  0.3320
  177MOL0     O23290   4.323   6.537  10.772  0.2552  0.0589  0.3947
  177MOL0     C23291   4.469   6.532  10.789  0.0792 -1.2994  0.7870
  177MOL0     C23292   4.515   6.501  10.940  1.0391 -0.4632 -0.3752
  177MOL0     C23293   4.662   6.482  10.962  0.7040  0.4624 -0.0870
  177MOL0     C23294   4.722   6.612  11.008 -0.4463 -0.6223 -0.5339
  177MOL0     C23295   4.810   6.587  11.122  0.2836 -0.0166  0.0536
  177MOL0     C23296   4.883   6.546  11.215  0.7213  0.0128  0.2779
  177MOL0     C23297   4.109   6.453  10.731  0.1921 -0.6903  0.0602
  177MOL0     C23298   4.026   6.345  10.707  0.2786  1.1052  0.1969
  177MOL0     H23299   3.663   6.217  10.459 -0.4399  0.1391 -0.0244
  177MOL0     H23300   3.483   6.083  10.367 -0.2909 -1.4873 -0.0567
  177MOL0     H23301   3.359   5.699  10.571  0.4438 -1.4084  0.0944
  177MOL0     H23302   3.477   5.646  10.455  0.1523  1.1528 -0.4680
  177MOL0     H23303   3.276   5.556  10.366  1.1060 -1.0050  0.7122
  177MOL0     H23304   3.314   5.700  10.272 -1.5311 -2.4635 -1.3005
  177MOL0     H23305   3.148   5.827  10.374 -0.1315  1.4810  3.8002
  177MOL0     H23306   3.113   5.729  10.508  1.2927  0.6216 -0.0102
  177MOL0     H23307   3.059   5.629  10.225 -0.9705  0.3758  0.4721
  177MOL0     H23308   3.030   5.542  10.376 -3.2174  0.0224 -0.1250
  177MOL0     H23309   2.879   5.815  10.325 -1.9452  0.2956  1.4868
  177MOL0     H23310   2.849   5.695  10.443  0.1595  1.6776 -0.7724
  177MOL0     H23311   2.790   5.529  10.279 -1.6707 -0.1997  1.6706
  177MOL0     H23312   2.826   5.638  10.146  0.3670  0.9807  1.2906
  177MOL0     H23313   2.614   5.722  10.364  2.0550 -0.9229  1.3159
  177MOL0     H23314   2.673   5.808  10.215  2.0483 -0.7718 -0.1014
  177MOL0     H23315   2.510   5.544  10.245  0.5331  1.8760  4.1873
  177MOL0     H23316   2.546   5.626  10.087 -0.7272  0.1900 -0.1604
  177MOL0     H23317   2.389   5.741  10.432 -0.1275 -0.5017 -0.5036
  177MOL0     H23318   2.190   5.901  10.456  1.4261  2.8265 -1.9193
  177MOL0     H23319   2.066   5.787  10.405 -1.4154  1.0558 -0.0799
  177MOL0     H23320   2.000   5.950  10.223 -1.8210  0.9689  2.1986
  177MOL0     H23321   2.137   6.050  10.247 -0.7927 -1.0540 -3.3156
  177MOL0     H23322   2.048   6.093  10.485 -2.9326  1.9729  1.7448
  177MOL0     H23323   1.971   6.167  10.345  4.4708  0.5674 -0.9050
  177MOL0     H23324   1.885   5.901  10.498 -0.5078  1.1572  1.4955
  177MOL0     H23325   1.800   5.977  10.359 -1.6695 -0.1214  1.1954
  177MOL0     H23326   1.686   5.816  10.561  0.1454  0.4848  0.3142
  177MOL0     H23327   1.480   5.744  10.622  1.1393 -0.3073 -1.0012
  177MOL0     H23328   1.018   5.748  10.628 -1.1179  0.2068 -2.8789
  177MOL0     H23329   0.781   5.732  10.650  3.2900 -1.7276 -0.0928
  177MOL0     H23330   0.542   6.107  10.696  1.8784 -1.0627 -1.6299
  177MOL0     H23331   0.529   6.019  10.857 -2.3597  0.2048  0.4480
  177MOL0     H23332   0.344   5.970  10.618 -0.6182  2.1145  0.6979
  177MOL0     H23333   0.301   6.016  10.777 -2.4283  0.0942 -3.0504
  177MOL0     H23334   0.407   5.807  10.855 -1.0352  0.6786  0.4664
  177MOL0     H23335   0.436   5.751  10.683 -3.1782 -1.1001 -2.3799
  177MOL0     H23336   0.163   5.839  10.768  0.4705  1.2738 -1.7808
  177MOL0     H23337   0.222   5.765  10.624  1.0847  2.5904 -0.7895
  177MOL0     H23338   0.269   5.636  10.911  1.2562 -2.0530 -0.4909
  177MOL0     H23339   0.281   5.552  10.759  1.3151 -0.5535  2.4849
  177MOL0     H23340   0.042   5.567  10.711 -1.5386  0.0848  0.0479
  177MOL0     H23341   0.012   5.668  10.845  1.2139  0.6181  0.5507
  177MOL0     H23342   0.076   5.369  10.848 -3.1955 -1.6746  1.2840
  177MOL0     H23343   0.092   5.476  10.992  3.9637 -0.6906 -1.0653
  177MOL0     H23344  -0.146   5.519  10.973 -1.6886 -0.1122 -0.5579
  177MOL0     H23345  -0.130   5.349  10.969  1.2158 -1.3742 -1.0064
  177MOL0     H23346   0.744   6.158  10.636 -3.3213 -1.8258 -0.2569
  177MOL0     H23347   1.002   6.166  10.632 -3.2079  2.3559 -0.0461
  177MOL0     H23348   1.348   6.149  10.670  0.0045 -0.5858  1.8265
  177MOL0     H23349   1.587   6.227  10.599  0.9851 -0.5596 -1.2235
  177MOL0     H23350   3.579   5.769  10.646 -0.3702 -0.1880 -0.3259
  177MOL0     H23351   3.757   5.896  10.735 -0.0142 -1.9831 -0.9422
  177MOL0     H23352   4.249   6.087  10.690 -1.0223 -0.5595  0.9870
  177MOL0     H23353   4.394   6.263  10.724  0.4855  2.1365 -0.5196
  177MOL0     H23354   4.508   6.627  10.752 -1.8573 -0.6159  0.4201
  177MOL0     H23355   4.510   6.455  10.723  0.5815  0.4934 -1.0924
  177MOL0     H23356   4.468   6.570  11.012  2.1360 -1.3485  1.2592
  177MOL0     H23357   4.455   6.414  10.966 -0.5109  0.3820 -0.9615
  177MOL0     H23358   4.715   6.445  10.874  2.4213  1.0526  0.6557
  177MOL0     H23359   4.671   6.407  11.042 -0.7325 -1.1055 -1.3174
  177MOL0     H23360   4.786   6.645  10.925  0.1332 -3.7169 -1.4546
  177MOL0     H23361   4.651   6.686  11.045 -0.8197 -2.2542  2.3017
  177MOL0     H23362   4.948   6.511  11.293 -0.4819 -4.4626 -0.4369
  177MOL0     H23363   4.060   6.549  10.749  1.6709  0.0778  0.1337
  177MOL0     H23364   3.919   6.361  10.704  0.2285  0.7189 -1.6306
  178MOL0     O23365   8.018   4.884   9.746 -0.2259 -0.0952  0.5937
  178MOL0     C23366   8.024   4.943   9.852  0.8376 -0.2485 -0.8189
  178MOL0     O23367   7.912   4.990   9.923 -0.3095  0.4102 -0.0781
  178MOL0     C23368   7.787   4.943   9.884 -0.5670  0.9445 -0.1223
  178MOL0     C23369   7.764   4.804   9.849 -0.7791  0.0166 -0.5268
  178MOL0     C23370   7.636   4.775   9.807 -0.1276  0.0384 -0.2350
  178MOL0     C23371   7.534   4.874   9.785  0.2206  0.1903  0.5403
  178MOL0     O23372   7.409   4.848   9.730 -0.2576  0.5716 -0.3765
  178MOL0     C23373   7.355   4.714   9.735  0.3655  0.1819 -0.0958
  178MOL0     C23374   7.212   4.716   9.697  0.4594 -0.0534  0.2036
  178MOL0     C23375   7.115   4.691   9.812  1.0820 -0.3649  0.4281
  178MOL0     C23376   6.970   4.679   9.764 -0.5150  0.2094  0.0086
  178MOL0     C23377   6.863   4.691   9.874  0.6398  0.5357 -0.2939
  178MOL0     C23378   6.731   4.630   9.830 -0.0494  0.3611 -0.3831
  178MOL0     C23379   6.615   4.674   9.922 -0.9674  0.4692 -0.2704
  178MOL0     C23380   6.481   4.680   9.844  0.3846  0.8666 -0.2472
  178MOL0     N23381   6.429   4.547   9.808 -0.4157  0.0104 -0.1346
  178MOL0     C23382   6.410   4.510   9.677  0.3112  0.1490  0.5004
  178MOL0     C23383   6.338   4.400   9.694 -0.3703  0.0042 -0.6998
  178MOL0     C23384   6.278   4.320   9.586 -0.6482 -0.2286 -0.1270
  178MOL0     C23385   6.124   4.354   9.583  0.7398 -0.3700 -0.1828
  178MOL0     C23386   6.056   4.286   9.468  0.2162 -0.2036  0.5170
  178MOL0     C23387   5.904   4.293   9.475 -0.6806 -0.1098 -0.1095
  178MOL0     O23388   5.838   4.231   9.366 -0.1800 -0.9802  0.6733
  178MOL0     C23389   5.696   4.233   9.375 -0.6144 -0.1721 -0.0735
  178MOL0     C23390   5.613   4.340   9.400  0.2261 -0.0592 -0.0131
  178MOL0     C23391   5.474   4.330   9.410  0.1719  0.5170  0.2911
  178MOL0     C23392   5.412   4.203   9.387 -0.9208 -0.9341  0.7230
  178MOL0     C23393   5.262   4.192   9.403 -0.9830  0.8217  1.0981
  178MOL0     O23394   5.203   4.075   9.350 -0.5498 -0.6906 -0.0783
  178MOL0     C23395   5.064   4.037   9.362  0.0018 -0.1415 -0.1396
  178MOL0     C23396   4.960   4.122   9.407  0.0080 -0.3463 -0.9659
  178MOL0     C23397   4.835   4.069   9.414 -0.3665 -0.8698 -1.2201
  178MOL0     C23398   4.799   3.931   9.390 -0.8559 -0.2092 -0.2834
  178MOL0     O23399   4.671   3.891   9.428 -0.0534  0.7222  0.5008
  178MOL0     C23400   4.621   3.795   9.333 -0.2263  0.6422 -0.3873
  178MOL0     C23401   4.463   3.795   9.343  0.6142  0.1924  0.5395
  178MOL0     C23402   4.408   3.912   9.257  0.5930  0.1632  0.5774
  178MOL0     C23403   4.264   3.935   9.269  0.4790 -0.1307  0.9257
  178MOL0     C23404   4.225   4.064   9.182  0.2303  0.2918  0.3121
  178MOL0     C23405   4.247   4.060   9.022 -0.3384  0.8486 -0.4791
  178MOL0     C23406   4.221   4.181   8.932  0.3238  0.5828  0.6343
  178MOL0     C23407   4.312   4.302   8.957 -0.2190  0.4157 -0.9471
  178MOL0    Cl23408   4.308   4.397   8.814  0.4335  0.1847 -0.2404
  178MOL0     C23409   4.901   3.846   9.350 -1.3076  0.0671  0.8325
  178MOL0     C23410   5.035   3.903   9.338 -0.0115 -0.0092  0.1613
  178MOL0     O23411   5.200   4.275   9.464  0.5541  0.2491  0.8108
  178MOL0     C23412   5.495   4.091   9.381  0.4447  0.2850 -0.3437
  178MOL0     C23413   5.631   4.105   9.373  0.1826 -0.7044 -0.0768
  178MOL0     N23414   6.311   4.376   9.826  0.0075 -0.0895 -0.2361
  178MOL0     N23415   6.360   4.474   9.895 -0.0107 -0.5683 -0.2950
  178MOL0     C23416   7.564   5.008   9.829  0.0827  0.0716  0.3172
  178MOL0     C23417   7.688   5.040   9.889 -0.4702 -0.5230  0.9119
  178MOL0     C23418   8.155   4.981   9.900 -0.1373  0.0777 -0.2771
  178MOL0     C23419   8.167   5.011  10.035  0.2899 -0.2102 -0.4154
  178MOL0     C23420   8.286   5.067  10.077  0.0620  0.8414 -0.7470
  178MOL0     C23421   8.406   5.072   9.999 -0.8067  1.0201  0.5128
  178MOL0     O23422   8.518   5.125  10.047 -0.0278 -0.2782 -0.0244
  178MOL0     C23423   8.581   5.059  10.150  0.3240 -0.5153 -0.4935
  178MOL0     C23424   8.631   5.141  10.264 -0.3687  0.1446 -0.3663
  178MOL0     C23425   8.762   5.217  10.215  0.5873 -0.7209 -1.6326
  178MOL0     C23426   8.795   5.337  10.309  0.7613  0.1119  0.5668
  178MOL0     C23427   8.859   5.276  10.422  0.1270 -0.1798  0.2598
  178MOL0     C23428   8.906   5.245  10.531  0.3019  0.2016 -0.2048
  178MOL0     C23429   8.385   5.030   9.868 -1.1327  0.3612  0.6474
  178MOL0     C23430   8.259   4.990   9.812 -0.2815 -0.5085  0.4467
  178MOL0     H23431   7.833   4.720   9.851 -2.9799 -1.8674  1.8250
  178MOL0     H23432   7.614   4.674   9.773 -3.0147  0.5812 -0.2629
  178MOL0     H23433   7.360   4.679   9.838  0.3469  0.2948 -0.0558
  178MOL0     H23434   7.412   4.648   9.669 -0.0929  1.5260 -1.9274
  178MOL0     H23435   7.202   4.637   9.623  2.7246  0.6667 -0.9818
  178MOL0     H23436   7.178   4.809   9.651  1.4079  0.5110  0.6164
  178MOL0     H23437   7.114   4.774   9.883  0.7563 -0.0013  0.0063
  178MOL0     H23438   7.128   4.607   9.880  0.6271 -0.1448  0.7934
  178MOL0     H23439   6.944   4.749   9.684 -1.8011  0.7485  0.8647
  178MOL0     H23440   6.954   4.582   9.715  0.1383  1.4718 -2.9251
  178MOL0     H23441   6.857   4.799   9.892  2.7350  1.0222 -2.0662
  178MOL0     H23442   6.898   4.639   9.963  0.4167  2.2271  0.8334
  178MOL0     H23443   6.737   4.522   9.847  1.0570 -0.0057 -2.7139
  178MOL0     H23444   6.702   4.656   9.728  0.1939  3.3758  0.2203
  178MOL0     H23445   6.599   4.609  10.009 -2.2772  2.6779  1.2074
  178MOL0     H23446   6.641   4.775   9.953 -1.9528  1.3532 -2.1303
  178MOL0     H23447   6.491   4.742   9.754 -0.9605 -2.8411 -3.2604
  178MOL0     H23448   6.404   4.726   9.905 -1.6997  1.3135 -3.0202
  178MOL0     H23449   6.430   4.556   9.581 -1.2091 -2.5322 -1.2119
  178MOL0     H23450   6.288   4.213   9.610  3.6744  0.4477  2.0842
  178MOL0     H23451   6.326   4.351   9.492  0.8527 -0.8272  0.4016
  178MOL0     H23452   6.103   4.460   9.571 -3.2680 -0.7608  1.6206
  178MOL0     H23453   6.093   4.318   9.682 -0.4989 -0.3263 -0.5334
  178MOL0     H23454   6.094   4.349   9.387 -1.3454  0.4647  0.2665
  178MOL0     H23455   6.083   4.181   9.454  2.6158  0.6728 -2.8594
  178MOL0     H23456   5.885   4.401   9.476  4.4240  1.0984 -2.2577
  178MOL0     H23457   5.868   4.247   9.567 -1.1870 -1.5550 -0.9964
  178MOL0     H23458   5.658   4.432   9.436 -2.2624  1.4167 -0.4702
  178MOL0     H23459   5.415   4.409   9.455 -3.4915 -2.0298  0.3941
  178MOL0     H23460   4.969   4.228   9.428 -0.5881 -0.5151  0.2575
  178MOL0     H23461   4.750   4.132   9.438  0.4197  1.0665 -3.1790
  178MOL0     H23462   4.644   3.691   9.360 -1.2739  0.5077  0.0541
  178MOL0     H23463   4.654   3.817   9.231  0.9069  0.8090 -0.0031
  178MOL0     H23464   4.435   3.806   9.449  1.0140 -0.2813  0.6957
  178MOL0     H23465   4.439   3.697   9.301  3.6766 -0.4866  0.1745
  178MOL0     H23466   4.416   3.888   9.151 -2.9220 -0.0226  0.2244
  178MOL0     H23467   4.461   4.002   9.289  0.0153  0.3098  1.1334
  178MOL0     H23468   4.204   3.856   9.223  0.8904  0.0197  0.1007
  178MOL0     H23469   4.233   3.954   9.372 -2.0941  2.8225 -0.2221
  178MOL0     H23470   4.276   4.152   9.222 -0.0671  0.4271  0.3938
  178MOL0     H23471   4.120   4.091   9.193  0.6046  3.4821 -2.2550
  178MOL0     H23472   4.176   3.986   8.984 -1.0508  1.1428  0.2552
  178MOL0     H23473   4.342   4.009   9.004 -0.3150  1.6331 -3.1083
  178MOL0     H23474   4.233   4.137   8.833  2.7177 -1.9725  1.9173
  178MOL0     H23475   4.117   4.212   8.952 -0.3580 -1.4452  0.4532
  178MOL0     H23476   4.416   4.270   8.971 -0.3000 -0.6798 -2.5565
  178MOL0     H23477   4.282   4.353   9.049  0.8040 -1.6417  0.6380
  178MOL0     H23478   4.882   3.741   9.332  0.6905 -0.0799 -0.7302
  178MOL0     H23479   5.118   3.843   9.302  0.2370 -0.5546  1.5730
  178MOL0     H23480   5.454   3.991   9.381  2.4345 -0.6766  2.9212
  178MOL0     H23481   5.693   4.017   9.364  3.8019  1.4380  1.6751
  178MOL0     H23482   7.476   5.070   9.834  0.5958  1.2783 -3.0458
  178MOL0     H23483   7.711   5.138   9.929 -1.9831  0.0798  0.3756
  178MOL0     H23484   8.088   5.005  10.108 -0.1630  0.1315 -0.8664
  178MOL0     H23485   8.304   5.105  10.178  1.6192  0.8793 -1.0201
  178MOL0     H23486   8.658   4.999  10.099  1.0930 -1.1311  1.2998
  178MOL0     H23487   8.512   4.990  10.200  0.2214  1.4923  2.3866
  178MOL0     H23488   8.555   5.214  10.296 -3.0499 -3.4488  2.3143
  178MOL0     H23489   8.654   5.085  10.355  1.5587 -0.3747 -1.1398
  178MOL0     H23490   8.757   5.276  10.123 -1.4532  1.8931 -0.0084
  178MOL0     H23491   8.845   5.146  10.209  1.5299 -0.0115  1.1654
  178MOL0     H23492   8.860   5.406  10.254  0.9533 -1.4117 -1.2339
  178MOL0     H23493   8.704   5.393  10.332 -1.8914 -3.4323 -0.3443
  178MOL0     H23494   8.958   5.210  10.618  0.6411 -1.2930 -0.9714
  178MOL0     H23495   8.472   5.041   9.803 -2.6464 -0.0705 -1.5802
  178MOL0     H23496   8.247   4.967   9.706 -1.0166 -0.2103  0.4567
  179MOL0     O23497   8.780   7.992   2.332 -0.0088  0.5348  0.0159
  179MOL0     C23498   8.737   7.876   2.312  0.2437 -0.3150 -0.0717
  179MOL0     O23499   8.609   7.836   2.294 -0.0864  0.1524  0.6325
  179MOL0     C23500   8.501   7.917   2.321  0.1140  0.1514  0.7460
  179MOL0     C23501   8.492   8.044   2.382 -0.4114 -0.5789  0.3602
  179MOL0     C23502   8.379   8.133   2.374 -0.9620 -0.3456 -0.7661
  179MOL0     C23503   8.257   8.078   2.332 -0.4849  0.9202  1.0406
  179MOL0     O23504   8.134   8.133   2.336 -0.2322 -0.3196 -0.3945
  179MOL0     C23505   8.101   8.233   2.432  0.2877  1.1632  0.3372
  179MOL0     C23506   7.960   8.301   2.385 -0.9583 -0.9598 -0.1332
  179MOL0     C23507   7.846   8.211   2.416 -0.3703  0.7360 -0.2743
  179MOL0     C23508   7.718   8.249   2.337 -0.6693  0.8084 -0.1453
  179MOL0     C23509   7.597   8.176   2.393  0.3791  0.5655  0.6270
  179MOL0     C23510   7.483   8.276   2.394  0.6223  0.9968  0.0065
  179MOL0     C23511   7.365   8.217   2.438  0.3007  0.6235 -0.5691
  179MOL0     C23512   7.253   8.316   2.450 -0.6053  0.3657 -1.5171
  179MOL0     N23513   7.121   8.259   2.479  0.4087  0.5869  0.1027
  179MOL0     C23514   7.043   8.294   2.586 -0.2093  0.1522  0.3047
  179MOL0     C23515   6.918   8.231   2.572 -0.3800 -0.1861 -0.3422
  179MOL0     C23516   6.815   8.239   2.683  0.6596  0.6272 -0.0835
  179MOL0     C23517   6.694   8.137   2.654 -0.5091 -0.2633  0.8373
  179MOL0     C23518   6.616   8.127   2.784  0.7184 -0.4718 -0.0385
  179MOL0     C23519   6.547   7.992   2.796 -0.1718  0.3756  0.1037
  179MOL0     O23520   6.452   7.989   2.899  0.1858  0.4941  0.0449
  179MOL0     C23521   6.327   8.029   2.863  0.1050 -0.1449  0.0510
  179MOL0     C23522   6.289   8.094   2.740 -0.1698  0.3068  0.0627
  179MOL0     C23523   6.155   8.136   2.717 -0.1991  0.4646  0.7964
  179MOL0     C23524   6.061   8.133   2.818  0.9173  0.5243 -0.5513
  179MOL0     C23525   5.929   8.194   2.811  0.4414 -0.9112  0.1075
  179MOL0     O23526   5.888   8.262   2.698 -0.3768  0.3324  0.4723
  179MOL0     C23527   5.757   8.300   2.672 -0.5525  0.5686  0.1261
  179MOL0     C23528   5.649   8.322   2.763 -0.6707  0.6274  0.0187
  179MOL0     C23529   5.523   8.374   2.727  0.2759  0.3630  0.2781
  179MOL0     C23530   5.497   8.392   2.585 -1.4581 -0.2247 -0.0666
  179MOL0     O23531   5.379   8.458   2.557  0.5593  0.5869 -0.5443
  179MOL0     C23532   5.335   8.446   2.425 -0.4827  0.8545  1.0541
  179MOL0     C23533   5.190   8.494   2.420 -0.9385 -0.3342  0.4891
  179MOL0     C23534   5.100   8.410   2.510 -0.4420 -0.5002 -0.5073
  179MOL0     C23535   4.951   8.427   2.491  0.3597  0.0195 -0.5514
  179MOL0     C23536   4.883   8.305   2.555  0.0918  0.1570 -0.0404
  179MOL0     C23537   4.730   8.328   2.549  0.4491 -0.1994 -0.6031
  179MOL0     C23538   4.641   8.206   2.572 -0.0120 -0.1738  0.5668
  179MOL0     C23539   4.664   8.142   2.709  1.2602  0.1993  0.0333
  179MOL0    Cl23540   4.588   8.258   2.831  0.4345  0.2327 -0.3056
  179MOL0     C23541   5.603   8.364   2.496  0.9026 -0.1230 -0.6432
  179MOL0     C23542   5.725   8.315   2.542  0.2321 -0.2253  0.9156
  179MOL0     O23543   5.856   8.196   2.911 -0.8834 -0.6969 -0.4244
  179MOL0     C23544   6.100   8.075   2.940 -1.5973  0.3616 -0.2044
  179MOL0     C23545   6.223   8.014   2.962 -0.5768 -0.0383 -0.9922
  179MOL0     N23546   6.924   8.169   2.455 -0.2802  0.4397 -0.3443
  179MOL0     N23547   7.048   8.185   2.398 -1.4617  0.2380  0.0259
  179MOL0     C23548   8.258   7.944   2.293  0.5454  0.1648  0.1572
  179MOL0     C23549   8.376   7.860   2.283 -0.1488  0.2501 -0.3107
  179MOL0     C23550   8.830   7.763   2.327  0.0399  0.6256  0.6337
  179MOL0     C23551   8.961   7.789   2.372  0.1686 -0.7971  0.3140
  179MOL0     C23552   9.060   7.684   2.381 -0.9241  0.1374  0.4158
  179MOL0     C23553   9.020   7.555   2.340 -0.0954  0.7990 -1.3954
  179MOL0     O23554   9.105   7.448   2.328 -0.2944  0.3706  0.0982
  179MOL0     C23555   9.239   7.472   2.289  0.4107  0.3804  0.1825
  179MOL0     C23556   9.316   7.337   2.262 -0.3110 -0.4965  0.4097
  179MOL0     C23557   9.462   7.356   2.196  0.6111 -0.2016  0.1808
  179MOL0     C23558   9.527   7.217   2.154  0.4634 -0.9212  0.5649
  179MOL0     C23559   9.669   7.235   2.123  0.8390  0.6509 -0.0756
  179MOL0     C23560   9.777   7.267   2.101  0.2912  0.3810  0.0224
  179MOL0     C23561   8.891   7.527   2.307 -0.0800 -0.1405  0.7650
  179MOL0     C23562   8.794   7.630   2.299  0.2338 -1.0799  0.3744
  179MOL0     H23563   8.580   8.084   2.432 -2.4040  1.9864  2.0596
  179MOL0     H23564   8.380   8.229   2.425  1.3169 -0.0750 -1.2339
  179MOL0     H23565   8.181   8.307   2.433  0.1295  1.3430  2.2642
  179MOL0     H23566   8.095   8.184   2.529  0.8134 -2.0204 -1.1208
  179MOL0     H23567   7.958   8.320   2.278 -2.8821  0.2379  0.0636
  179MOL0     H23568   7.948   8.399   2.433  2.1025  0.3574 -1.8271
  179MOL0     H23569   7.830   8.223   2.524  2.0634 -1.7841  0.4833
  179MOL0     H23570   7.881   8.111   2.390 -0.4582  0.9485 -1.2453
  179MOL0     H23571   7.712   8.358   2.334 -1.6535  0.7464 -1.5379
  179MOL0     H23572   7.737   8.220   2.233  0.6790  1.3911 -0.0852
  179MOL0     H23573   7.612   8.148   2.498  0.3064  0.9096  0.7310
  179MOL0     H23574   7.571   8.089   2.333 -1.9092  3.8242 -3.6256
  179MOL0     H23575   7.480   8.318   2.293  2.2136 -3.3040 -2.0985
  179MOL0     H23576   7.501   8.355   2.467 -2.0803 -0.8116  2.9354
  179MOL0     H23577   7.333   8.140   2.367  1.5822 -0.6521  0.1809
  179MOL0     H23578   7.387   8.165   2.532  2.4695  0.3948 -1.1520
  179MOL0     H23579   7.244   8.374   2.357 -0.1362  1.3997 -0.9397
  179MOL0     H23580   7.288   8.380   2.532 -3.4629 -1.7407  1.5667
  179MOL0     H23581   7.073   8.348   2.675 -0.9174  1.9265 -0.4928
  179MOL0     H23582   6.784   8.344   2.694 -1.8305 -0.0635  0.0701
  179MOL0     H23583   6.862   8.206   2.776 -2.4583 -0.4178  1.2409
  179MOL0     H23584   6.741   8.043   2.626 -1.3335 -0.5605  0.4299
  179MOL0     H23585   6.628   8.165   2.572 -0.6503 -1.7755  0.4128
  179MOL0     H23586   6.683   8.141   2.870 -0.3239  1.0223  0.5742
  179MOL0     H23587   6.546   8.211   2.789  2.7096  1.1858  2.7132
  179MOL0     H23588   6.620   7.913   2.815 -0.7063 -0.2069 -0.2120
  179MOL0     H23589   6.492   7.969   2.703 -2.4941 -0.3728  1.5731
  179MOL0     H23590   6.363   8.113   2.663 -0.3845 -0.1794 -0.2737
  179MOL0     H23591   6.124   8.178   2.622  0.5499 -0.7024 -0.0006
  179MOL0     H23592   5.665   8.306   2.870  0.0816  0.1278 -0.1622
  179MOL0     H23593   5.445   8.390   2.801  0.9617 -1.1406  1.3834
  179MOL0     H23594   5.341   8.343   2.390  1.0479  1.0936  0.5363
  179MOL0     H23595   5.401   8.507   2.363  2.6627 -1.1339  2.2397
  179MOL0     H23596   5.161   8.487   2.315 -1.7449 -2.7994  0.8059
  179MOL0     H23597   5.180   8.600   2.446  0.6347 -0.2222  0.7435
  179MOL0     H23598   5.118   8.436   2.615 -1.2152  3.9852 -1.2538
  179MOL0     H23599   5.126   8.309   2.479  1.3294  0.4204 -2.2945
  179MOL0     H23600   4.919   8.516   2.546  3.1378  0.5380  0.3681
  179MOL0     H23601   4.925   8.430   2.385 -0.0311 -0.0180 -0.4608
  179MOL0     H23602   4.916   8.303   2.659  1.4011 -0.3765 -0.4404
  179MOL0     H23603   4.928   8.216   2.509  0.6347 -2.3725  4.7981
  179MOL0     H23604   4.706   8.374   2.452  1.4722  1.5244 -0.0804
  179MOL0     H23605   4.686   8.394   2.624 -2.0166  0.1607 -2.2260
  179MOL0     H23606   4.538   8.243   2.574  0.2101  0.5394 -0.7803
  179MOL0     H23607   4.652   8.131   2.493  1.1622  0.2722  0.2817
  179MOL0     H23608   4.772   8.128   2.721  1.2062  0.0446  0.3700
  179MOL0     H23609   4.609   8.049   2.726  2.0356 -0.1534  0.6960
  179MOL0     H23610   5.580   8.376   2.390 -0.6049 -1.2784 -0.4761
  179MOL0     H23611   5.794   8.296   2.460  1.4756  3.6020  0.8833
  179MOL0     H23612   6.031   8.063   3.024 -1.0092 -1.3671  0.0578
  179MOL0     H23613   6.240   7.971   3.060 -4.2800 -2.2092 -1.1507
  179MOL0     H23614   8.166   7.907   2.248  0.7887 -2.2491  1.4654
  179MOL0     H23615   8.347   7.760   2.254 -1.3394  0.8240 -1.2128
  179MOL0     H23616   8.987   7.888   2.405 -2.0868 -1.1935  3.7782
  179MOL0     H23617   9.164   7.716   2.381 -0.8916  0.2777 -2.0971
  179MOL0     H23618   9.296   7.516   2.372  2.0736 -1.1317 -0.1009
  179MOL0     H23619   9.234   7.534   2.199 -3.5127 -1.9629 -1.4688
  179MOL0     H23620   9.324   7.278   2.353  1.4772  1.2375  1.4612
  179MOL0     H23621   9.271   7.259   2.200  3.1291 -2.4320  0.1437
  179MOL0     H23622   9.522   7.423   2.258 -0.7403  0.6928  0.5654
  179MOL0     H23623   9.442   7.412   2.104 -2.5455 -2.3546 -0.6329
  179MOL0     H23624   9.517   7.143   2.234 -1.4421 -0.8032  0.4892
  179MOL0     H23625   9.474   7.168   2.072  0.2451 -0.2494  0.3015
  179MOL0     H23626   9.873   7.304   2.072 -0.5636  2.7294 -0.0281
  179MOL0     H23627   8.857   7.426   2.283 -0.4718 -0.0659  1.0005
  179MOL0     H23628   8.695   7.602   2.261  0.7304 -2.5328  0.0640
  180MOL0     O23629   9.309   1.081   4.153  0.2078 -0.3546 -0.2769
  180MOL0     C23630   9.366   1.175   4.107  0.3688  0.0773  0.1185
  180MOL0     O23631   9.326   1.241   3.990 -0.4749  0.7483  0.3813
  180MOL0     C23632   9.211   1.207   3.934  0.0462  1.1735 -0.3660
  180MOL0     C23633   9.174   1.081   3.879  0.7116  0.0048  0.9898
  180MOL0     C23634   9.042   1.065   3.815 -0.1701 -0.0652 -0.7683
  180MOL0     C23635   8.952   1.170   3.804  0.6719 -0.0770 -0.4079
  180MOL0     O23636   8.826   1.139   3.758  0.3922  0.6599  0.5713
  180MOL0     C23637   8.763   1.248   3.690 -0.1122  0.8721  0.3837
  180MOL0     C23638   8.617   1.207   3.669 -0.2032 -0.1361  0.4668
  180MOL0     C23639   8.531   1.327   3.626  0.2145 -0.7749 -0.4334
  180MOL0     C23640   8.389   1.299   3.592  0.1235  0.7448  0.2771
  180MOL0     C23641   8.302   1.214   3.686 -0.6595 -0.4095  0.3130
  180MOL0     C23642   8.269   1.289   3.818  0.9706  0.7904 -0.1100
  180MOL0     C23643   8.172   1.197   3.898 -0.6658  0.1791 -0.4719
  180MOL0     C23644   8.113   1.266   4.021  0.1560 -0.2514 -0.0208
  180MOL0     N23645   7.996   1.197   4.064  0.1322 -0.3295  0.3262
  180MOL0     C23646   7.873   1.231   4.016 -0.0452  1.1653  0.4124
  180MOL0     C23647   7.794   1.149   4.091  0.2222 -0.5221 -0.4712
  180MOL0     C23648   7.645   1.131   4.079  0.5398  0.5695  0.2323
  180MOL0     C23649   7.594   1.172   3.947  0.1394 -0.1270  0.5223
  180MOL0     C23650   7.497   1.073   3.884  0.1213  0.1463 -0.2209
  180MOL0     C23651   7.476   1.076   3.740 -0.4459 -0.5966 -0.3626
  180MOL0     O23652   7.394   0.983   3.669  0.5227 -0.2914 -0.9660
  180MOL0     C23653   7.259   0.994   3.645  0.7525  0.6961  0.1928
  180MOL0     C23654   7.177   1.101   3.685 -0.0590  0.5398  0.8564
  180MOL0     C23655   7.042   1.095   3.665  0.1479  0.4241 -1.1505
  180MOL0     C23656   6.983   0.978   3.614 -0.1507  0.1208 -0.3584
  180MOL0     C23657   6.835   0.970   3.597  0.4422 -0.5920 -0.4161
  180MOL0     O23658   6.787   0.866   3.526 -0.3445 -0.3529 -0.8089
  180MOL0     C23659   6.651   0.859   3.527  0.1781 -0.3062 -0.9577
  180MOL0     C23660   6.567   0.906   3.422 -0.2778 -0.1282  0.1996
  180MOL0     C23661   6.431   0.874   3.427  0.5576 -0.4210 -0.1744
  180MOL0     C23662   6.369   0.809   3.536 -0.0330  0.7561  0.8781
  180MOL0     O23663   6.236   0.785   3.517  0.0936  0.1169 -0.6360
  180MOL0     C23664   6.182   0.665   3.581 -1.0757 -0.2700 -0.0547
  180MOL0     C23665   6.107   0.689   3.720 -0.2129  0.0623  0.4805
  180MOL0     C23666   6.017   0.572   3.766  0.1316 -1.0258  0.4964
  180MOL0     C23667   5.874   0.609   3.717  1.0843  0.4924  0.4903
  180MOL0     C23668   5.785   0.488   3.744 -0.2614 -0.3717  0.5284
  180MOL0     C23669   5.658   0.488   3.658  0.3509  0.4885  0.0912
  180MOL0     C23670   5.551   0.586   3.704  0.1758  0.1002 -0.4126
  180MOL0     C23671   5.464   0.523   3.808  0.2792 -1.5892  0.1073
  180MOL0    Cl23672   5.346   0.649   3.867  0.3599 -0.4607  0.1165
  180MOL0     C23673   6.453   0.769   3.640  0.3226  0.2509  0.0628
  180MOL0     C23674   6.590   0.788   3.635 -0.2897 -0.0550  0.0582
  180MOL0     O23675   6.769   1.056   3.652 -0.1370 -0.3439 -0.4159
  180MOL0     C23676   7.061   0.875   3.566  0.1346  0.1745  0.3472
  180MOL0     C23677   7.196   0.879   3.589  0.4391 -0.2582  0.4337
  180MOL0     N23678   7.868   1.065   4.168  0.2648  0.1041  0.2231
  180MOL0     N23679   7.989   1.102   4.154  0.0336 -0.5735  0.1575
  180MOL0     C23680   8.991   1.291   3.869  0.2844 -0.2807 -0.3542
  180MOL0     C23681   9.116   1.305   3.929 -1.4108 -0.5092  0.3637
  180MOL0     C23682   9.504   1.211   4.153  0.7628 -0.4302  0.1226
  180MOL0     C23683   9.557   1.335   4.138 -0.3742  0.6116  0.6895
  180MOL0     C23684   9.679   1.365   4.187 -1.1349 -0.6881  0.1145
  180MOL0     C23685   9.761   1.275   4.245 -0.0145 -0.1991 -0.3526
  180MOL0     O23686   9.885   1.319   4.288  0.3420 -0.2958  0.3227
  180MOL0     C23687   9.922   1.269   4.412  0.3417 -0.0544 -0.2900
  180MOL0     C23688  10.068   1.294   4.447 -0.5508 -0.6090 -0.5984
  180MOL0     C23689  10.111   1.441   4.420  0.5872 -0.1896  0.1235
  180MOL0     C23690  10.237   1.483   4.504 -0.7538  0.1187  0.1148
  180MOL0     C23691  10.360   1.443   4.443 -0.1947 -0.6477  0.7111
  180MOL0     C23692  10.457   1.407   4.385  0.3424  0.4817  1.4738
  180MOL0     C23693   9.716   1.149   4.265  1.0083  0.2233 -0.3334
  180MOL0     C23694   9.587   1.114   4.219  0.0047 -0.4067 -0.2051
  180MOL0     H23695   9.250   1.004   3.877 -0.4335 -1.1507  0.1077
  180MOL0     H23696   9.022   0.972   3.762 -1.5357 -0.2946  0.1025
  180MOL0     H23697   8.828   1.262   3.603 -0.1885  1.4656  0.4192
  180MOL0     H23698   8.766   1.337   3.754 -1.4163 -0.8742  3.0491
  180MOL0     H23699   8.582   1.161   3.762  2.7217  0.7241  2.1180
  180MOL0     H23700   8.617   1.119   3.603  2.0516  0.7393 -0.8256
  180MOL0     H23701   8.586   1.369   3.540  1.4819  0.6945  1.0253
  180MOL0     H23702   8.536   1.395   3.712 -0.1450 -0.6942 -0.4771
  180MOL0     H23703   8.350   1.400   3.582 -1.2348  0.3880  1.5741
  180MOL0     H23704   8.383   1.241   3.499 -0.5930 -0.7817  1.2333
  180MOL0     H23705   8.347   1.117   3.706 -0.3120 -0.6127 -1.2583
  180MOL0     H23706   8.206   1.189   3.640 -0.2164  0.9738 -1.5267
  180MOL0     H23707   8.233   1.391   3.801  1.8260  1.1552  0.1677
  180MOL0     H23708   8.361   1.301   3.877  1.7896 -0.6479 -1.0490
  180MOL0     H23709   8.089   1.163   3.835 -1.3088 -0.9350  0.9125
  180MOL0     H23710   8.228   1.108   3.928  0.4715  1.1636  0.4517
  180MOL0     H23711   8.100   1.372   3.997  1.1224  0.1649  1.2233
  180MOL0     H23712   8.190   1.266   4.098  1.3616 -2.2757 -1.1209
  180MOL0     H23713   7.848   1.317   3.955 -2.2387 -0.5405 -1.2556
  180MOL0     H23714   7.604   1.195   4.157  1.7414  1.9464 -0.2133
  180MOL0     H23715   7.611   1.031   4.106 -2.8709  1.8592  1.2267
  180MOL0     H23716   7.677   1.180   3.876  0.1393  2.5192  0.7111
  180MOL0     H23717   7.546   1.270   3.952  2.0616  0.8425  0.8911
  180MOL0     H23718   7.544   0.975   3.895  2.7636  1.0362 -2.2301
  180MOL0     H23719   7.406   1.071   3.943  1.8214  0.8956  2.6473
  180MOL0     H23720   7.577   1.067   3.700 -0.5595  0.4501 -0.9194
  180MOL0     H23721   7.460   1.181   3.713  2.8531  0.5855  1.6697
  180MOL0     H23722   7.215   1.195   3.724 -0.8633  2.6178 -2.9009
  180MOL0     H23723   6.972   1.175   3.686 -0.8396 -0.6939 -0.0281
  180MOL0     H23724   6.607   0.960   3.337 -0.9008 -0.0379 -0.0392
  180MOL0     H23725   6.361   0.903   3.349  0.1596  3.9287  1.4905
  180MOL0     H23726   6.261   0.591   3.594 -1.8385 -1.1100 -0.1452
  180MOL0     H23727   6.115   0.619   3.508  1.3239 -2.8570 -0.8203
  180MOL0     H23728   6.055   0.785   3.717  1.1155  0.7933  0.3641
  180MOL0     H23729   6.171   0.701   3.808  0.5905 -3.4018  0.5107
  180MOL0     H23730   6.013   0.569   3.875 -0.1203 -0.9048  0.4921
  180MOL0     H23731   6.059   0.478   3.731 -3.3861 -1.7569 -2.4246
  180MOL0     H23732   5.832   0.697   3.766  0.6297  0.4998  0.0929
  180MOL0     H23733   5.872   0.622   3.609 -1.2912 -2.3809  0.0643
  180MOL0     H23734   5.765   0.490   3.852 -1.1273  0.5594  0.3618
  180MOL0     H23735   5.840   0.397   3.717  0.8153 -1.0052  4.2076
  180MOL0     H23736   5.621   0.387   3.642 -0.7012  1.2226 -2.7281
  180MOL0     H23737   5.689   0.510   3.555 -1.0498 -1.5305 -0.8219
  180MOL0     H23738   5.600   0.677   3.738 -0.6997  0.8849 -1.1974
  180MOL0     H23739   5.482   0.611   3.623  0.6980  0.1758 -0.8359
  180MOL0     H23740   5.508   0.470   3.893  0.2038 -0.5866  0.7928
  180MOL0     H23741   5.402   0.451   3.753  0.2406 -1.8363  0.4696
  180MOL0     H23742   6.412   0.698   3.712 -2.0829 -0.0693 -1.5203
  180MOL0     H23743   6.658   0.751   3.711 -2.1315  2.1628  3.0495
  180MOL0     H23744   7.019   0.787   3.518  5.3424 -3.0740  0.9515
  180MOL0     H23745   7.257   0.794   3.562  1.7542 -0.1086  2.6719
  180MOL0     H23746   8.923   1.376   3.874  1.1423  0.3988 -0.0068
  180MOL0     H23747   9.135   1.403   3.972 -3.5066 -0.0180  0.3060
  180MOL0     H23748   9.504   1.424   4.105  0.1219  1.0544  1.0769
  180MOL0     H23749   9.715   1.467   4.181 -1.0252 -0.7737 -0.7407
  180MOL0     H23750   9.907   1.161   4.426 -1.9597  0.3204  0.6248
  180MOL0     H23751   9.857   1.319   4.484  0.8967 -1.4568  1.2504
  180MOL0     H23752  10.082   1.272   4.553 -1.3679 -0.5597 -0.4772
  180MOL0     H23753  10.126   1.217   4.394  0.7636 -1.9153  2.4789
  180MOL0     H23754  10.033   1.513   4.448  1.6805  0.9729  0.2961
  180MOL0     H23755  10.143   1.454   4.316  2.7718 -0.2835  0.7323
  180MOL0     H23756  10.226   1.592   4.511  0.6806  0.3564 -1.0130
  180MOL0     H23757  10.237   1.443   4.606  4.6175  2.6034  1.4704
  180MOL0     H23758  10.538   1.351   4.342 -4.5766 -4.4564 -2.9657
  180MOL0     H23759   9.772   1.062   4.300  2.6306  1.5898  0.5804
  180MOL0     H23760   9.549   1.012   4.225  1.0930 -0.8989 -1.2789
  181MOL0     O23761   9.128   0.072  11.029  0.7685  0.4584  0.7532
  181MOL0     C23762   9.065   0.135  10.938 -0.2332 -0.6970 -0.3005
  181MOL0     O23763   8.935   0.111  10.914 -0.8277  0.0262 -0.1225
  181MOL0     C23764   8.864   0.033  10.988 -0.3157 -0.1029 -0.6755
  181MOL0     C23765   8.909  -0.099  11.005  0.0295  0.2390  1.1287
  181MOL0     C23766   8.827  -0.192  11.071 -0.1351  0.1750 -0.0618
  181MOL0     C23767   8.697  -0.159  11.108  0.5876 -0.4392 -0.3130
  181MOL0     O23768   8.609  -0.241  11.165  1.1432  0.5553  0.5653
  181MOL0     C23769   8.655  -0.333  11.264 -0.4837  0.2018  0.1186
  181MOL0     C23770   8.551  -0.356  11.376  0.0715  1.2127 -0.0480
  181MOL0     C23771   8.414  -0.397  11.316 -0.2087 -0.3751 -0.6023
  181MOL0     C23772   8.308  -0.451  11.418 -0.3503  0.3212 -0.8345
  181MOL0     C23773   8.185  -0.490  11.346  1.3294  0.0191  1.2249
  181MOL0     C23774   8.116  -0.383  11.253  1.2492 -0.0428  0.9610
  181MOL0     C23775   7.978  -0.441  11.230  0.8218  0.4903  0.1307
  181MOL0     C23776   7.934  -0.443  11.081 -0.1429 -0.1640 -0.5624
  181MOL0     N23777   7.835  -0.550  11.051 -0.1830 -0.2049 -0.5480
  181MOL0     C23778   7.701  -0.549  11.089 -0.3338 -0.5085 -1.2396
  181MOL0     C23779   7.641  -0.661  11.046 -0.4051  0.2588  0.1107
  181MOL0     C23780   7.493  -0.695  11.073 -0.0145  0.2387  0.5463
  181MOL0     C23781   7.452  -0.823  10.979  0.4923 -0.3271 -0.2309
  181MOL0     C23782   7.300  -0.863  10.983 -0.5446 -0.2274 -0.6319
  181MOL0     C23783   7.283  -0.996  10.927 -1.0048  0.3374  0.0282
  181MOL0     O23784   7.155  -1.021  10.863  0.2220 -0.0650  0.1151
  181MOL0     C23785   7.037  -0.993  10.928  0.4048  0.3690  0.4534
  181MOL0     C23786   6.993  -1.076  11.032  1.1576 -0.1305 -0.2948
  181MOL0     C23787   6.877  -1.057  11.098 -0.9228 -0.1733  0.4138
  181MOL0     C23788   6.781  -0.964  11.049 -0.4000 -0.1601  0.1881
  181MOL0     C23789   6.638  -0.961  11.104  0.7312 -0.5555 -0.5164
  181MOL0     O23790   6.615  -1.024  11.214  1.2276 -0.2633 -0.1273
  181MOL0     C23791   6.493  -1.033  11.266  0.2197 -0.0197  0.7534
  181MOL0     C23792   6.474  -1.151  11.333 -0.6536 -1.1175 -0.7356
  181MOL0     C23793   6.345  -1.170  11.384 -0.6354  0.7672 -0.2212
  181MOL0     C23794   6.237  -1.082  11.375  0.6524 -0.0754  0.2168
  181MOL0     O23795   6.107  -1.117  11.397 -0.4573  0.0187 -0.1929
  181MOL0     C23796   6.067  -1.142  11.529 -0.3958  0.7363  0.2839
  181MOL0     C23797   5.959  -1.250  11.543 -0.1517 -0.1968  0.1104
  181MOL0     C23798   5.833  -1.221  11.466 -1.0713  0.1727 -0.2481
  181MOL0     C23799   5.749  -1.115  11.535 -0.5726  0.0915  0.4946
  181MOL0     C23800   5.633  -1.078  11.444 -0.5145  0.1994 -0.1890
  181MOL0     C23801   5.530  -1.194  11.438  0.0189  0.0174  0.3023
  181MOL0     C23802   5.457  -1.209  11.568 -0.2343  0.1350 -0.4068
  181MOL0     C23803   5.341  -1.301  11.550  0.1218  0.3788  0.0349
  181MOL0    Cl23804   5.273  -1.349  11.709 -0.1032  0.0655  0.5934
  181MOL0     C23805   6.266  -0.954  11.327 -0.0407  0.1319 -0.6500
  181MOL0     C23806   6.387  -0.933  11.268 -0.5148  0.8995  0.3981
  181MOL0     O23807   6.555  -0.895  11.046 -0.4232 -0.2534 -0.3289
  181MOL0     C23808   6.813  -0.886  10.931  0.1481  0.2757 -0.5800
  181MOL0     C23809   6.947  -0.898  10.876 -0.6156  0.2369  0.2409
  181MOL0     N23810   7.736  -0.724  10.972  0.1321  0.7505  0.1886
  181MOL0     N23811   7.848  -0.666  10.974 -0.1278 -0.2615 -0.2235
  181MOL0     C23812   8.649  -0.032  11.091  0.4316  0.3534  0.0343
  181MOL0     C23813   8.732   0.063  11.030  0.0529 -0.6875  0.3677
  181MOL0     C23814   9.139   0.228  10.845  0.1538 -0.5263  0.1181
  181MOL0     C23815   9.277   0.259  10.870  0.1776 -0.0665 -0.5945
  181MOL0     C23816   9.355   0.348  10.792  0.0121  0.1287 -0.5743
  181MOL0     C23817   9.293   0.407  10.683 -0.3312  0.1977 -0.8760
  181MOL0     O23818   9.371   0.497  10.620  0.4251 -0.3055 -0.0592
  181MOL0     C23819   9.337   0.553  10.493  0.1215 -0.0182  0.7022
  181MOL0     C23820   9.361   0.449  10.385 -0.0483  0.0719  0.1699
  181MOL0     C23821   9.345   0.515  10.250  0.0305  0.0872  0.0443
  181MOL0     C23822   9.324   0.421  10.128  0.3236 -0.2856  0.4570
  181MOL0     C23823   9.190   0.361  10.116 -0.9799  0.0359 -0.2275
  181MOL0     C23824   9.081   0.319  10.116  1.1046 -0.5280  0.5106
  181MOL0     C23825   9.163   0.375  10.651  0.1438  0.3516  0.7344
  181MOL0     C23826   9.084   0.292  10.729  0.0965 -1.0667  0.2645
  181MOL0     H23827   9.001  -0.131  10.956 -0.5811  0.2937 -0.0763
  181MOL0     H23828   8.853  -0.297  11.067  0.7436  0.3639  0.2710
  181MOL0     H23829   8.751  -0.294  11.301 -0.8370  2.0860 -0.8145
  181MOL0     H23830   8.676  -0.424  11.208  1.3391 -0.2585  1.4424
  181MOL0     H23831   8.546  -0.266  11.437  0.9273  1.0178  0.3212
  181MOL0     H23832   8.579  -0.442  11.438  2.3648  1.5849 -0.4993
  181MOL0     H23833   8.436  -0.468  11.236  1.3290  0.9297 -1.3958
  181MOL0     H23834   8.374  -0.309  11.265 -0.1800 -0.6155 -1.0396
  181MOL0     H23835   8.344  -0.541  11.468 -1.0513  1.4879  1.9684
  181MOL0     H23836   8.303  -0.374  11.495  1.7854  1.4435 -1.7280
  181MOL0     H23837   8.126  -0.532  11.428  1.5945  0.2381  1.5304
  181MOL0     H23838   8.214  -0.574  11.282 -0.2364 -0.1206  0.6723
  181MOL0     H23839   8.171  -0.384  11.159 -0.1449 -1.7575  0.1050
  181MOL0     H23840   8.104  -0.285  11.300 -0.3034  0.4040 -0.2747
  181MOL0     H23841   7.973  -0.547  11.255  0.2546  0.0628 -1.6524
  181MOL0     H23842   7.900  -0.392  11.289 -0.9299 -0.5456 -1.2138
  181MOL0     H23843   8.025  -0.456  11.021  0.3236 -3.4282  0.6490
  181MOL0     H23844   7.885  -0.347  11.064 -2.5076 -0.8534  1.7769
  181MOL0     H23845   7.652  -0.474  11.150 -0.3251  0.1243 -1.9949
  181MOL0     H23846   7.426  -0.608  11.066 -1.4669 -0.9078 -0.3403
  181MOL0     H23847   7.483  -0.734  11.175  0.4903 -2.8741 -0.5104
  181MOL0     H23848   7.507  -0.912  11.011 -1.3595 -2.0427 -1.5639
  181MOL0     H23849   7.485  -0.793  10.879  1.6538  0.5199  0.3787
  181MOL0     H23850   7.260  -0.859  11.085  0.8277 -0.3015 -0.0639
  181MOL0     H23851   7.252  -0.784  10.925 -0.1333  0.2417 -0.3462
  181MOL0     H23852   7.310  -1.071  11.002 -1.6350  0.2463  0.1766
  181MOL0     H23853   7.349  -1.003  10.841  1.7044  0.7423  1.9621
  181MOL0     H23854   7.051  -1.166  11.054  1.6584  0.1492 -0.4596
  181MOL0     H23855   6.841  -1.125  11.174 -2.1538 -0.6010 -0.5162
  181MOL0     H23856   6.556  -1.221  11.343  2.2116  2.2793  1.8617
  181MOL0     H23857   6.316  -1.268  11.419  2.7028  0.3855  1.9281
  181MOL0     H23858   6.029  -1.045  11.563  0.1950  1.1266 -0.1540
  181MOL0     H23859   6.147  -1.171  11.597 -0.8989  0.0951  0.6184
  181MOL0     H23860   5.936  -1.271  11.648 -3.9836 -0.8681 -0.7208
  181MOL0     H23861   6.007  -1.335  11.494 -2.0284 -1.0441 -0.3585
  181MOL0     H23862   5.775  -1.313  11.452  0.5737 -0.9601  0.1204
  181MOL0     H23863   5.863  -1.182  11.369 -2.9666 -0.7059 -1.2459
  181MOL0     H23864   5.724  -1.151  11.635 -0.7350 -3.1363 -0.5916
  181MOL0     H23865   5.813  -1.029  11.557  0.5325 -0.8715  1.1627
  181MOL0     H23866   5.675  -1.049  11.347  0.3955  0.5461  0.3027
  181MOL0     H23867   5.587  -0.998  11.501  0.1919 -1.1638  2.4406
  181MOL0     H23868   5.575  -1.289  11.407  0.6878  0.4135  0.0439
  181MOL0     H23869   5.458  -1.168  11.360  0.7455 -0.3277 -0.5099
  181MOL0     H23870   5.526  -1.258  11.638 -1.4785  2.6995  2.8584
  181MOL0     H23871   5.418  -1.118  11.614 -2.5101  0.7147 -3.2268
  181MOL0     H23872   5.383  -1.392  11.507  2.5999  1.4322  0.0501
  181MOL0     H23873   5.267  -1.267  11.477 -1.7470 -0.1323  1.5987
  181MOL0     H23874   6.195  -0.873  11.313  0.5317  0.2360 -3.6750
  181MOL0     H23875   6.403  -0.836  11.224 -0.9130  1.6140  1.7507
  181MOL0     H23876   6.739  -0.821  10.885  1.1581  1.1491 -1.0212
  181MOL0     H23877   6.984  -0.832  10.799 -0.3488 -2.0640 -1.7100
  181MOL0     H23878   8.553   0.001  11.129 -1.1204 -2.3601 -1.3054
  181MOL0     H23879   8.690   0.161  11.014  0.5403 -0.1351  2.2044
  181MOL0     H23880   9.324   0.236  10.965  2.7459  3.1128 -0.9226
  181MOL0     H23881   9.448   0.380  10.837  0.4344  1.6220 -2.3567
  181MOL0     H23882   9.390   0.647  10.479  0.5617 -0.1760  1.2508
  181MOL0     H23883   9.230   0.575  10.498  0.5767  2.7580 -0.4196
  181MOL0     H23884   9.460   0.404  10.399 -0.0878  0.3381  1.4187
  181MOL0     H23885   9.289   0.368  10.401  0.3765 -0.4594 -0.5172
  181MOL0     H23886   9.430   0.574  10.216  1.4444 -1.5230  0.6493
  181MOL0     H23887   9.257   0.580  10.237  0.7801  1.3038  0.8992
  181MOL0     H23888   9.332   0.492  10.045  1.7616  0.5205  1.2374
  181MOL0     H23889   9.402   0.347  10.111 -0.6749 -1.3445  0.3394
  181MOL0     H23890   8.987   0.267  10.122  0.1294  1.3001  1.7638
  181MOL0     H23891   9.107   0.424  10.573 -1.4510 -0.7229  1.1609
  181MOL0     H23892   8.985   0.265  10.693  0.0391 -0.2233 -0.2507
  182MOL0     O23893   7.747   7.510   6.885 -0.0158 -0.0007 -0.4965
  182MOL0     C23894   7.705   7.398   6.844  0.2266  0.2972  0.3697
  182MOL0     O23895   7.574   7.368   6.851  0.7649  0.4522 -0.4042
  182MOL0     C23896   7.485   7.463   6.907  0.1745  0.5608  0.4882
  182MOL0     C23897   7.496   7.502   7.046  1.5915  0.2564  0.0127
  182MOL0     C23898   7.411   7.594   7.114 -1.4499 -0.2191  0.2420
  182MOL0     C23899   7.301   7.646   7.038  0.3633 -0.3638 -0.4401
  182MOL0     O23900   7.206   7.724   7.100  0.1073  0.4875  0.1238
  182MOL0     C23901   7.083   7.754   7.033 -0.2271 -0.1783 -0.1262
  182MOL0     C23902   6.992   7.816   7.136  0.5029 -0.0850  0.2811
  182MOL0     C23903   6.848   7.827   7.066  0.8596 -0.5644  0.6905
  182MOL0     C23904   6.745   7.888   7.150 -0.2268 -0.2642  0.3965
  182MOL0     C23905   6.614   7.876   7.079  0.1361  0.2177  0.1221
  182MOL0     C23906   6.492   7.927   7.159  0.5456 -0.7849  0.1615
  182MOL0     C23907   6.371   7.869   7.100  0.4034  0.6349  0.9719
  182MOL0     C23908   6.242   7.942   7.164 -0.2722  0.2477  0.3021
  182MOL0     N23909   6.165   8.011   7.056  0.7253  0.5917  0.1340
  182MOL0     C23910   6.210   8.137   7.015 -0.3171  0.0384  0.1259
  182MOL0     C23911   6.125   8.155   6.911  0.6939  1.1835  0.1082
  182MOL0     C23912   6.125   8.287   6.838  0.1966 -0.8665  0.2572
  182MOL0     C23913   6.119   8.273   6.687  0.9580 -0.3143  0.3242
  182MOL0     C23914   6.247   8.199   6.646 -0.0667  0.9215 -0.0587
  182MOL0     C23915   6.383   8.260   6.678  0.1697 -0.4836 -0.3250
  182MOL0     O23916   6.483   8.159   6.665  0.3618  0.8256 -0.2660
  182MOL0     C23917   6.603   8.180   6.734 -0.0634 -0.6934  0.0885
  182MOL0     C23918   6.619   8.219   6.868 -0.2651 -0.8536  0.2715
  182MOL0     C23919   6.748   8.231   6.920  0.4547  0.0263 -0.0113
  182MOL0     C23920   6.864   8.216   6.841  1.1210  0.0894  0.2706
  182MOL0     C23921   6.990   8.204   6.897  0.1959 -1.1685  0.2816
  182MOL0     O23922   7.095   8.232   6.816  0.4440 -0.1972  0.1680
  182MOL0     C23923   7.225   8.196   6.858  0.4059 -0.2908 -0.0440
  182MOL0     C23924   7.320   8.251   6.771 -0.7787  0.2564 -0.0825
  182MOL0     C23925   7.458   8.230   6.798  0.9110 -0.0504  0.1107
  182MOL0     C23926   7.506   8.157   6.906 -0.3447 -0.0263 -0.1239
  182MOL0     O23927   7.644   8.147   6.909 -0.1200 -0.3367 -0.8249
  182MOL0     C23928   7.701   8.114   7.029  0.6199 -0.7168 -0.9725
  182MOL0     C23929   7.843   8.169   7.045  0.2341  0.2653 -0.7442
  182MOL0     C23930   7.855   8.319   7.082 -0.7110  0.5474 -0.9096
  182MOL0     C23931   7.800   8.353   7.216 -0.9888 -0.3491 -0.0522
  182MOL0     C23932   7.863   8.264   7.339  0.6270 -0.7206 -0.5593
  182MOL0     C23933   8.021   8.264   7.349 -0.0662 -0.1679  0.2423
  182MOL0     C23934   8.092   8.403   7.353  1.3609  0.0792  0.1203
  182MOL0     C23935   8.232   8.392   7.403 -0.4135 -0.1410  0.2119
  182MOL0    Cl23936   8.335   8.304   7.281 -0.6717  0.0182  0.0593
  182MOL0     C23937   7.407   8.098   6.987 -0.8133  0.1547  0.6680
  182MOL0     C23938   7.268   8.112   6.962 -0.2269 -0.7200  0.5753
  182MOL0     O23939   7.000   8.197   7.017 -0.2096  0.0524 -0.2956
  182MOL0     C23940   6.846   8.193   6.704  0.6384  0.4305 -0.3915
  182MOL0     C23941   6.715   8.173   6.651 -0.1233  0.3300 -0.4872
  182MOL0     N23942   6.043   8.049   6.891  0.4809 -0.6051 -0.5995
  182MOL0     N23943   6.064   7.968   6.991  0.3562  0.3001 -0.1941
  182MOL0     C23944   7.299   7.617   6.897  0.2498  0.2625  0.4963
  182MOL0     C23945   7.391   7.530   6.833  0.8748 -0.6847  0.1266
  182MOL0     C23946   7.804   7.292   6.791  0.8024 -0.4130 -0.9651
  182MOL0     C23947   7.764   7.159   6.790  0.7000 -0.0900 -0.2910
  182MOL0     C23948   7.843   7.060   6.730 -0.3417  0.0352  0.5888
  182MOL0     C23949   7.981   7.085   6.697  0.6719  0.3976 -0.0885
  182MOL0     O23950   8.060   6.992   6.641 -0.5032 -0.5748  0.2336
  182MOL0     C23951   8.015   6.866   6.598  0.1468  0.9423  0.5901
  182MOL0     C23952   8.119   6.790   6.516  0.2189 -0.1634 -0.4998
  182MOL0     C23953   8.078   6.653   6.461  1.2696  0.2523  0.1254
  182MOL0     C23954   7.943   6.666   6.382 -0.4403 -0.2195 -0.0475
  182MOL0     C23955   7.915   6.545   6.314  1.0599  0.3939  1.7388
  182MOL0     C23956   7.884   6.438   6.265 -0.0371 -0.5208  0.2044
  182MOL0     C23957   8.022   7.219   6.713 -0.4183  0.3257  0.5803
  182MOL0     C23958   7.938   7.327   6.751 -0.3134  0.5982 -0.3750
  182MOL0     H23959   7.566   7.453   7.112 -1.1780 -0.8493  2.3740
  182MOL0     H23960   7.414   7.622   7.219  0.7766  0.9963 -0.0944
  182MOL0     H23961   7.042   7.661   6.993  3.4834 -1.2664 -1.8129
  182MOL0     H23962   7.095   7.823   6.949  0.0683  0.5028  0.4640
  182MOL0     H23963   7.033   7.911   7.172  3.1710 -1.8988  2.4847
  182MOL0     H23964   6.981   7.749   7.222 -0.6338 -1.0535 -0.5822
  182MOL0     H23965   6.823   7.722   7.050  1.3768 -0.8284  1.4957
  182MOL0     H23966   6.857   7.885   6.974  1.4616 -3.1055 -0.9272
  182MOL0     H23967   6.756   7.837   7.246  0.1651 -0.1183  0.4319
  182MOL0     H23968   6.754   7.996   7.162  0.7097 -0.0045 -2.0366
  182MOL0     H23969   6.584   7.773   7.055  1.1539 -0.1106  0.2167
  182MOL0     H23970   6.627   7.921   6.980  1.0628  1.0392  0.6111
  182MOL0     H23971   6.491   8.036   7.151  0.7859 -0.9196 -3.1552
  182MOL0     H23972   6.493   7.901   7.266 -1.6915 -0.9227  0.1992
  182MOL0     H23973   6.370   7.883   6.992  0.7012 -0.1780  0.8529
  182MOL0     H23974   6.370   7.760   7.116  1.2677  0.6387  1.1063
  182MOL0     H23975   6.257   8.004   7.253 -2.6531  0.4206  0.6465
  182MOL0     H23976   6.177   7.861   7.199 -2.6541  1.0355 -1.9615
  182MOL0     H23977   6.294   8.201   7.041  1.4318 -2.1581  0.2387
  182MOL0     H23978   6.205   8.351   6.877  0.8548 -1.4293 -0.1478
  182MOL0     H23979   6.038   8.344   6.872 -0.1895 -3.5755  4.4606
  182MOL0     H23980   6.116   8.369   6.633  2.0215 -1.0988 -1.2102
  182MOL0     H23981   6.032   8.214   6.658  1.9792 -0.6046 -2.4627
  182MOL0     H23982   6.233   8.098   6.687  1.9204  1.1770  1.3832
  182MOL0     H23983   6.251   8.186   6.538  1.5189 -1.3144  0.2014
  182MOL0     H23984   6.381   8.296   6.782 -2.8093  0.1761 -0.5081
  182MOL0     H23985   6.408   8.352   6.624 -1.3292  0.8132  1.0829
  182MOL0     H23986   6.534   8.233   6.934  0.2661 -3.4711  1.6588
  182MOL0     H23987   6.759   8.252   7.026  0.5081  1.7486 -0.3200
  182MOL0     H23988   7.296   8.307   6.681  0.0140 -0.2308 -0.6169
  182MOL0     H23989   7.522   8.277   6.724  2.2280 -1.7118  0.1303
  182MOL0     H23990   7.714   8.006   7.017  0.8813 -0.7040 -0.8122
  182MOL0     H23991   7.642   8.139   7.118  0.3186 -0.7556 -1.1611
  182MOL0     H23992   7.884   8.163   6.944 -0.8611 -0.1145 -1.1933
  182MOL0     H23993   7.911   8.110   7.107 -1.4029  0.5714  1.4663
  182MOL0     H23994   7.807   8.373   7.000  0.3347 -3.9291 -4.9406
  182MOL0     H23995   7.957   8.358   7.089 -0.8547  1.5200 -3.3192
  182MOL0     H23996   7.823   8.458   7.234 -0.3245 -0.0250 -2.4412
  182MOL0     H23997   7.691   8.343   7.226 -0.5723 -2.9816  3.8615
  182MOL0     H23998   7.825   8.162   7.334 -1.5424 -0.2158  2.5640
  182MOL0     H23999   7.824   8.301   7.435  0.3628 -2.1602 -0.0890
  182MOL0     H24000   8.060   8.217   7.258 -2.8028 -0.9318 -0.6321
  182MOL0     H24001   8.045   8.207   7.439 -4.0370 -1.8662  0.4136
  182MOL0     H24002   8.090   8.460   7.260 -3.2947  2.7577  1.5317
  182MOL0     H24003   8.040   8.474   7.419  2.2197  0.3967  0.4692
  182MOL0     H24004   8.219   8.341   7.499 -0.2202 -1.6264 -0.5180
  182MOL0     H24005   8.290   8.484   7.417  0.2095 -0.4742 -0.1151
  182MOL0     H24006   7.435   8.029   7.066 -1.1879  0.4924  1.0927
  182MOL0     H24007   7.203   8.058   7.030  1.9783 -4.7828 -0.2591
  182MOL0     H24008   6.931   8.183   6.637  1.1603 -2.2890  0.5172
  182MOL0     H24009   6.696   8.140   6.549  2.8816  0.6705 -1.2580
  182MOL0     H24010   7.209   7.646   6.844 -0.5310  2.4341  2.8326
  182MOL0     H24011   7.382   7.522   6.725 -4.9539  2.0172  0.0381
  182MOL0     H24012   7.667   7.125   6.822 -0.1941 -0.4744 -3.0828
  182MOL0     H24013   7.795   6.963   6.720  0.3964 -0.2064 -0.9592
  182MOL0     H24014   7.938   6.879   6.522  1.6896 -1.1618 -1.5030
  182MOL0     H24015   7.988   6.808   6.687  1.7371  1.9924  1.8134
  182MOL0     H24016   8.174   6.851   6.444  1.6468 -0.2135  0.4863
  182MOL0     H24017   8.200   6.772   6.588  0.2418  0.1658 -0.4417
  182MOL0     H24018   8.081   6.582   6.544  0.6497  0.3337  0.2218
  182MOL0     H24019   8.147   6.627   6.380  0.6376  2.7430 -1.2996
  182MOL0     H24020   7.858   6.684   6.449 -0.4916  1.2076 -0.4535
  182MOL0     H24021   7.957   6.749   6.312  0.4498  0.5128  0.9599
  182MOL0     H24022   7.856   6.346   6.218 -0.5827 -1.5858  2.4546
  182MOL0     H24023   8.124   7.238   6.681 -0.2452 -0.2390  0.7762
  182MOL0     H24024   7.974   7.429   6.759  1.4014 -0.0910  2.0479
  183MOL0     O24025   2.841   7.685   4.425  0.4388  0.1266 -0.4726
  183MOL0     C24026   2.871   7.765   4.345 -0.4172  0.2759 -1.2620
  183MOL0     O24027   2.994   7.807   4.303  0.2323  0.5766  0.3108
  183MOL0     C24028   3.111   7.760   4.355  0.1122  0.3828  0.3168
  183MOL0     C24029   3.125   7.730   4.492 -0.6891  0.5971  0.0903
  183MOL0     C24030   3.240   7.683   4.552 -0.3532 -0.7564  0.4299
  183MOL0     C24031   3.357   7.674   4.473 -0.5922  0.3248  0.0339
  183MOL0     O24032   3.473   7.624   4.535 -0.6046 -0.1519  0.2501
  183MOL0     C24033   3.601   7.671   4.480  0.1964  0.3449  0.6755
  183MOL0     C24034   3.716   7.629   4.560 -0.6404  0.7590  0.0804
  183MOL0     C24035   3.846   7.704   4.511 -0.1857 -0.0509 -0.3703
  183MOL0     C24036   3.972   7.644   4.574  1.2524  0.1320 -0.4031
  183MOL0     C24037   4.098   7.720   4.536  0.2785 -0.2446 -0.4469
  183MOL0     C24038   4.100   7.857   4.603 -0.6205 -0.1246 -0.5091
  183MOL0     C24039   4.243   7.901   4.605 -0.8338 -0.3708 -0.1471
  183MOL0     C24040   4.232   8.013   4.707 -0.9314  0.8693  1.1697
  183MOL0     N24041   4.353   8.068   4.755 -0.2106 -0.7284 -0.1782
  183MOL0     C24042   4.389   8.202   4.773 -0.7357  0.4680  0.1517
  183MOL0     C24043   4.503   8.193   4.836  0.0233 -0.4104  0.1885
  183MOL0     C24044   4.588   8.323   4.856 -0.2331 -0.6937 -0.4758
  183MOL0     C24045   4.738   8.305   4.841  0.1079 -0.4227 -0.4064
  183MOL0     C24046   4.776   8.243   4.709 -1.3732 -0.0315 -0.2227
  183MOL0     C24047   4.930   8.226   4.716 -0.2583 -0.6420  0.1782
  183MOL0     O24048   4.968   8.162   4.588  0.3841 -0.3524  0.4507
  183MOL0     C24049   5.101   8.126   4.581 -0.0043 -0.2085 -0.1750
  183MOL0     C24050   5.139   8.059   4.462  0.6315 -0.7692 -0.2500
  183MOL0     C24051   5.271   8.028   4.429  1.0474 -0.1872  0.1698
  183MOL0     C24052   5.370   8.064   4.521  0.4764 -0.5691  1.1253
  183MOL0     C24053   5.515   8.055   4.478  0.5861  0.7423  0.6846
  183MOL0     O24054   5.548   7.984   4.367 -0.2366  0.1862 -0.2126
  183MOL0     C24055   5.673   7.989   4.316 -0.0091 -0.2696  0.7584
  183MOL0     C24056   5.718   8.084   4.221  0.4626 -0.3224  0.0598
  183MOL0     C24057   5.847   8.078   4.161 -0.1001 -0.4034 -0.1337
  183MOL0     C24058   5.940   7.993   4.220  0.4642 -0.0380 -0.5325
  183MOL0     O24059   6.066   7.996   4.159 -0.0971  0.0768 -0.5569
  183MOL0     C24060   6.173   8.041   4.244  0.1400 -0.0115  0.0690
  183MOL0     C24061   6.301   8.033   4.162 -0.4953  0.6531 -1.0282
  183MOL0     C24062   6.423   8.086   4.236  0.1931 -0.1070  0.7514
  183MOL0     C24063   6.547   8.070   4.155 -0.2523 -0.7162 -0.5905
  183MOL0     C24064   6.647   8.179   4.207 -0.7116  0.4806 -1.0754
  183MOL0     C24065   6.768   8.185   4.117 -0.3098  0.6144 -0.4161
  183MOL0     C24066   6.862   8.297   4.168  0.7038  0.2511  0.4688
  183MOL0     C24067   6.960   8.265   4.272 -0.8518 -0.0702  0.1372
  183MOL0    Cl24068   7.110   8.207   4.197  0.0089 -0.5920 -0.1347
  183MOL0     C24069   5.904   7.900   4.320  0.3360 -0.2277  0.3157
  183MOL0     C24070   5.773   7.903   4.369  1.0058  1.0998  0.0096
  183MOL0     O24071   5.587   8.124   4.542 -0.3929  0.5603 -0.0415
  183MOL0     C24072   5.333   8.145   4.628 -0.8245 -0.0282  0.5798
  183MOL0     C24073   5.205   8.170   4.666  0.1525 -0.8504 -0.5927
  183MOL0     N24074   4.535   8.064   4.869  0.2862  0.2293 -0.1568
  183MOL0     N24075   4.441   7.987   4.824 -0.2523  0.2992  0.0853
  183MOL0     C24076   3.348   7.703   4.336 -0.0858  0.0588 -0.0238
  183MOL0     C24077   3.232   7.750   4.275 -0.4678 -0.2862 -0.1905
  183MOL0     C24078   2.760   7.834   4.283 -0.2690  0.4526  0.0848
  183MOL0     C24079   2.630   7.789   4.299  0.5651  0.2511  0.8157
  183MOL0     C24080   2.520   7.849   4.231 -0.2315 -0.4184  0.2357
  183MOL0     C24081   2.542   7.962   4.150  0.3966  0.6998  0.0277
  183MOL0     O24082   2.445   8.023   4.071 -0.4663  0.6743 -0.6818
  183MOL0     C24083   2.321   8.051   4.139  0.4471  0.7676 -0.3466
  183MOL0     C24084   2.252   8.154   4.057  0.1979  0.8752  0.2805
  183MOL0     C24085   2.224   8.116   3.913  1.0195  0.3692 -0.5959
  183MOL0     C24086   2.149   7.986   3.903  0.3800  0.0905  0.3470
  183MOL0     C24087   2.025   7.984   3.981 -0.2619  1.0530 -0.6164
  183MOL0     C24088   1.915   7.979   4.042 -0.1545  0.4103 -0.1197
  183MOL0     C24089   2.666   8.011   4.138  0.4141  0.0758 -0.4020
  183MOL0     C24090   2.773   7.946   4.208 -1.2565 -0.2843 -0.2249
  183MOL0     H24091   3.034   7.755   4.545 -1.7191  0.0948 -1.3763
  183MOL0     H24092   3.238   7.688   4.660 -0.9166  2.8670  0.3953
  183MOL0     H24093   3.601   7.780   4.477 -0.1771  0.3132 -1.1795
  183MOL0     H24094   3.618   7.642   4.376 -1.9495  2.6591 -0.4254
  183MOL0     H24095   3.735   7.522   4.556 -0.3607  0.8489 -1.6802
  183MOL0     H24096   3.696   7.660   4.663 -0.8477 -0.7535  0.5178
  183MOL0     H24097   3.831   7.809   4.538 -0.4486 -0.1871  0.0306
  183MOL0     H24098   3.856   7.694   4.403 -1.6548  0.7605 -0.6010
  183MOL0     H24099   3.954   7.646   4.682 -1.1277 -1.5319 -0.7001
  183MOL0     H24100   3.980   7.538   4.551  2.2546 -0.0504  0.7175
  183MOL0     H24101   4.094   7.726   4.427  2.0217 -2.4530 -0.7181
  183MOL0     H24102   4.171   7.646   4.569 -0.4872 -1.5011 -1.4737
  183MOL0     H24103   4.074   7.849   4.708  1.7104  0.0511  0.1489
  183MOL0     H24104   4.042   7.936   4.554 -0.4842  2.1425  2.6880
  183MOL0     H24105   4.309   7.821   4.639  1.3977  0.5587 -2.0405
  183MOL0     H24106   4.282   7.932   4.508  3.0531 -2.7676  0.4343
  183MOL0     H24107   4.201   7.971   4.804  0.9153 -2.6846  0.3920
  183MOL0     H24108   4.162   8.085   4.664 -0.8895 -0.5662 -1.4978
  183MOL0     H24109   4.339   8.291   4.734  1.6266  0.9151 -2.1328
  183MOL0     H24110   4.582   8.360   4.959  1.0419  0.1030 -0.6629
  183MOL0     H24111   4.555   8.405   4.792 -0.1360  0.8182  1.3211
  183MOL0     H24112   4.784   8.237   4.913  0.6584 -1.4905 -1.7111
  183MOL0     H24113   4.779   8.407   4.844 -4.1115  1.4774  0.6241
  183MOL0     H24114   4.722   8.148   4.706 -0.4096 -0.6879  1.5864
  183MOL0     H24115   4.732   8.305   4.630 -3.6055  1.1076  1.7487
  183MOL0     H24116   4.952   8.159   4.799 -2.5769 -1.6029  0.0923
  183MOL0     H24117   4.980   8.323   4.719 -0.4739 -0.4610 -1.0905
  183MOL0     H24118   5.060   8.024   4.395  1.4775 -2.2714 -0.5086
  183MOL0     H24119   5.297   7.976   4.338  0.7643 -1.6572  0.8851
  183MOL0     H24120   5.639   8.157   4.204  0.1809 -0.2830  1.4163
  183MOL0     H24121   5.872   8.146   4.081  1.3587 -0.5408  0.1765
  183MOL0     H24122   6.192   7.980   4.333  2.2942  0.7051  0.1598
  183MOL0     H24123   6.153   8.146   4.268  3.0176  1.3811 -2.8982
  183MOL0     H24124   6.294   8.095   4.071 -1.3990  1.0352 -0.7188
  183MOL0     H24125   6.316   7.928   4.138  1.3091  0.8004 -0.6674
  183MOL0     H24126   6.416   8.046   4.338 -1.0766 -1.5023  0.1660
  183MOL0     H24127   6.407   8.194   4.242  0.2871  0.2227 -2.7683
  183MOL0     H24128   6.593   7.972   4.171  3.2069  0.8207 -0.1894
  183MOL0     H24129   6.521   8.086   4.050 -2.2074  1.0674  0.0936
  183MOL0     H24130   6.679   8.159   4.309 -2.6111  1.0492 -0.3233
  183MOL0     H24131   6.594   8.275   4.209 -3.3851 -0.9072  0.4736
  183MOL0     H24132   6.750   8.188   4.009 -0.0969 -1.8728 -0.5899
  183MOL0     H24133   6.827   8.094   4.131  1.6025  1.7700 -0.6680
  183MOL0     H24134   6.917   8.339   4.083  1.8216 -0.7261  0.6858
  183MOL0     H24135   6.798   8.378   4.206  0.1477  1.1008 -2.0771
  183MOL0     H24136   6.909   8.197   4.341  0.0466 -1.6703 -0.7292
  183MOL0     H24137   6.990   8.356   4.326  1.7222 -1.4167  1.1911
  183MOL0     H24138   5.968   7.827   4.368 -1.4066 -0.9281  1.6937
  183MOL0     H24139   5.744   7.830   4.444  2.9859 -0.1510 -0.3521
  183MOL0     H24140   5.412   8.203   4.674 -0.5594 -0.2432  0.4020
  183MOL0     H24141   5.177   8.237   4.747 -2.9418 -1.9672 -0.6134
  183MOL0     H24142   3.437   7.692   4.274  0.8460  1.2162  1.0620
  183MOL0     H24143   3.227   7.766   4.168 -2.6773 -1.9147 -0.3989
  183MOL0     H24144   2.614   7.701   4.361 -5.3606  0.3555  0.0393
  183MOL0     H24145   2.426   7.796   4.222 -1.0259  0.7697  1.2543
  183MOL0     H24146   2.347   8.093   4.237  0.0871  0.4072 -0.0972
  183MOL0     H24147   2.259   7.964   4.159 -0.5964  1.2375 -1.3838
  183MOL0     H24148   2.155   8.175   4.104  0.6729 -0.6819  2.0840
  183MOL0     H24149   2.309   8.246   4.072  2.6079 -0.7327  1.6324
  183MOL0     H24150   2.315   8.106   3.853  0.0522 -1.8317 -1.7990
  183MOL0     H24151   2.161   8.190   3.864 -0.8155  0.7584  2.1349
  183MOL0     H24152   2.122   7.968   3.798 -0.1983 -1.3926  0.7269
  183MOL0     H24153   2.211   7.904   3.940  0.6437 -0.1849 -0.6651
  183MOL0     H24154   1.823   7.976   4.095  0.3222  0.9819  0.7618
  183MOL0     H24155   2.681   8.099   4.077 -2.1056 -0.7433 -2.4025
  183MOL0     H24156   2.869   7.997   4.202 -0.6513 -1.3405  0.2360
  184MOL0     O24157   4.712   1.633   1.049  0.1636 -0.3164  0.0537
  184MOL0     C24158   4.816   1.601   0.987 -0.8070 -0.5134  0.1525
  184MOL0     O24159   4.846   1.477   0.946 -0.1594 -1.5388 -0.0230
  184MOL0     C24160   4.753   1.384   0.980 -0.0600  0.2817 -0.4292
  184MOL0     C24161   4.656   1.342   0.888  0.7929 -0.1593 -0.0930
  184MOL0     C24162   4.585   1.225   0.900 -0.0040  0.0936 -0.6066
  184MOL0     C24163   4.609   1.149   1.018 -0.2378 -0.5497  0.3236
  184MOL0     O24164   4.551   1.031   1.046 -0.3214  0.0206 -0.3344
  184MOL0     C24165   4.449   0.989   0.958 -0.0709  0.3489  0.5767
  184MOL0     C24166   4.389   0.850   1.029  0.5992 -0.2156 -0.5676
  184MOL0     C24167   4.277   0.864   1.133 -0.9328  0.9459 -0.6569
  184MOL0     C24168   4.140   0.912   1.064 -0.6210 -0.0203 -0.2555
  184MOL0     C24169   4.035   0.907   1.166  0.0391 -0.5977 -1.1466
  184MOL0     C24170   3.907   0.967   1.109 -0.4055 -0.1225 -0.1375
  184MOL0     C24171   3.796   0.975   1.209 -0.1388 -0.2628  0.3501
  184MOL0     C24172   3.813   1.077   1.323  0.0874  0.1962 -0.0258
  184MOL0     N24173   3.732   1.194   1.302 -0.3506  0.3077 -0.2479
  184MOL0     C24174   3.776   1.307   1.230  0.0916 -0.3277  0.2873
  184MOL0     C24175   3.666   1.385   1.216 -1.0359  0.4092 -0.2667
  184MOL0     C24176   3.648   1.519   1.143  0.0566  0.0764 -0.8470
  184MOL0     C24177   3.720   1.638   1.212 -0.1396  0.3944 -0.5310
  184MOL0     C24178   3.872   1.628   1.199 -0.7232 -0.2145  0.4825
  184MOL0     C24179   3.940   1.761   1.245 -0.0946 -0.4215  0.3263
  184MOL0     O24180   4.066   1.737   1.307  0.0446 -0.2323 -0.1456
  184MOL0     C24181   4.175   1.813   1.280  0.2543  0.9034 -0.2548
  184MOL0     C24182   4.294   1.751   1.244 -0.4837  0.3498 -0.0185
  184MOL0     C24183   4.402   1.826   1.232 -0.4970  0.2323  0.3129
  184MOL0     C24184   4.411   1.964   1.247 -0.2244 -0.3515  0.6689
  184MOL0     C24185   4.526   2.043   1.213 -1.3276  0.5424 -0.2631
  184MOL0     O24186   4.542   2.167   1.262  0.7721 -0.2074  0.6032
  184MOL0     C24187   4.664   2.232   1.231 -0.5727 -0.3142  0.1728
  184MOL0     C24188   4.779   2.201   1.307  0.3891  0.2054 -0.1070
  184MOL0     C24189   4.909   2.234   1.258 -0.0307 -0.4737 -0.3572
  184MOL0     C24190   4.933   2.314   1.142  0.2665  0.0438  0.4430
  184MOL0     O24191   5.051   2.355   1.087 -0.0065 -0.3554 -0.8214
  184MOL0     C24192   5.175   2.333   1.164  0.5991 -0.1903 -0.7745
  184MOL0     C24193   5.198   2.445   1.263 -0.7272 -0.0749  0.6924
  184MOL0     C24194   5.340   2.434   1.327 -0.4968 -0.0940  0.1013
  184MOL0     C24195   5.454   2.478   1.226 -0.0487 -0.6156 -0.9486
  184MOL0     C24196   5.592   2.500   1.284  0.5051  0.1608 -0.6444
  184MOL0     C24197   5.649   2.379   1.346  0.4181 -0.2377 -0.5048
  184MOL0     C24198   5.797   2.411   1.384  0.1507  0.2841 -0.4522
  184MOL0     C24199   5.863   2.291   1.465  0.7979  0.2697 -0.2604
  184MOL0    Cl24200   5.841   2.137   1.376  0.0332  0.0087 -0.0566
  184MOL0     C24201   4.811   2.342   1.066  0.6701 -0.3779 -0.8666
  184MOL0     C24202   4.682   2.310   1.113 -0.1906 -0.6613  0.7148
  184MOL0     O24203   4.611   1.986   1.138  0.3901  0.2853  0.0311
  184MOL0     C24204   4.291   2.024   1.274 -0.9576 -0.1458 -1.2284
  184MOL0     C24205   4.182   1.948   1.301 -0.7106 -0.4857  0.2887
  184MOL0     N24206   3.568   1.333   1.296  0.3208 -0.7542  0.0081
  184MOL0     N24207   3.610   1.222   1.356 -0.0053 -0.0655  0.1179
  184MOL0     C24208   4.707   1.184   1.109  0.1761 -0.5145 -0.3480
  184MOL0     C24209   4.783   1.300   1.091  0.4364 -0.6871 -0.0799
  184MOL0     C24210   4.910   1.715   0.931  0.0575  0.9939  0.3447
  184MOL0     C24211   4.887   1.847   0.952 -0.0053 -0.2120 -0.8126
  184MOL0     C24212   4.978   1.950   0.932  0.0089  0.7958 -0.3677
  184MOL0     C24213   5.100   1.920   0.866  0.6803 -1.6149 -0.3692
  184MOL0     O24214   5.183   2.014   0.816  0.3150  0.0088  0.4489
  184MOL0     C24215   5.135   2.146   0.809 -0.0341 -0.2301 -0.1527
  184MOL0     C24216   5.250   2.242   0.763 -0.1106 -0.0721 -0.5871
  184MOL0     C24217   5.189   2.381   0.750  0.3433  0.3403 -0.2283
  184MOL0     C24218   5.295   2.479   0.695  0.8845  0.1728  0.3488
  184MOL0     C24219   5.396   2.524   0.800  0.1367  0.1919 -0.4387
  184MOL0     C24220   5.484   2.557   0.876 -0.1917 -0.1944 -0.0072
  184MOL0     C24221   5.130   1.788   0.846  0.3040  0.5014  0.1477
  184MOL0     C24222   5.040   1.684   0.879 -0.7474  0.4444  0.6146
  184MOL0     H24223   4.654   1.401   0.797  1.2088 -1.3222 -0.8792
  184MOL0     H24224   4.525   1.196   0.815  1.9198  0.6322 -2.2335
  184MOL0     H24225   4.487   0.960   0.860 -3.1735 -1.8369 -0.1086
  184MOL0     H24226   4.377   1.071   0.947 -1.1828 -0.5063  1.2564
  184MOL0     H24227   4.465   0.796   1.086 -1.1098 -1.3964  0.6733
  184MOL0     H24228   4.352   0.780   0.953 -0.5160 -0.5547  0.2514
  184MOL0     H24229   4.301   0.945   1.203 -2.0968  0.2809  0.5634
  184MOL0     H24230   4.272   0.766   1.183 -1.5867  0.7890 -1.0191
  184MOL0     H24231   4.156   1.009   1.014  2.4440 -1.3151 -2.0625
  184MOL0     H24232   4.112   0.841   0.986 -3.4297 -1.2587  1.7179
  184MOL0     H24233   4.072   0.971   1.247 -0.0583 -0.6751 -1.0413
  184MOL0     H24234   4.023   0.805   1.204 -2.8948  0.4518  1.2034
  184MOL0     H24235   3.881   0.904   1.023  0.1163 -1.7556  0.8667
  184MOL0     H24236   3.928   1.068   1.071  0.4711  0.4787  1.8434
  184MOL0     H24237   3.707   1.014   1.158 -0.4077  0.4438  1.3181
  184MOL0     H24238   3.770   0.881   1.258  2.6853 -0.7121  1.1683
  184MOL0     H24239   3.918   1.106   1.334  0.0659  0.3378 -0.1953
  184MOL0     H24240   3.772   1.036   1.416 -2.4290  1.3152 -0.5652
  184MOL0     H24241   3.879   1.332   1.203 -0.5466  2.3194 -0.0039
  184MOL0     H24242   3.541   1.538   1.143  0.1468  0.7868  0.6769
  184MOL0     H24243   3.685   1.520   1.040 -2.8118 -0.3336 -1.9460
  184MOL0     H24244   3.691   1.648   1.317  1.4510  0.4361 -0.0763
  184MOL0     H24245   3.690   1.730   1.161 -0.0426  0.4058 -0.5669
  184MOL0     H24246   3.912   1.548   1.262 -3.1231  1.2727  4.3038
  184MOL0     H24247   3.890   1.606   1.094  0.4464  0.1222  0.5971
  184MOL0     H24248   3.874   1.822   1.308  0.1392  0.9963 -0.7356
  184MOL0     H24249   3.954   1.832   1.163 -2.1214  0.6656  0.8629
  184MOL0     H24250   4.298   1.643   1.236  1.9027  0.2912  1.1751
  184MOL0     H24251   4.498   1.781   1.208 -0.5979  0.0045  0.3373
  184MOL0     H24252   4.766   2.136   1.393 -0.1192 -2.3238 -1.9568
  184MOL0     H24253   4.989   2.209   1.327  2.2937  2.3913 -1.8072
  184MOL0     H24254   5.259   2.324   1.095  0.8000 -0.9736 -0.4439
  184MOL0     H24255   5.167   2.236   1.214 -1.2687 -1.2764 -2.9889
  184MOL0     H24256   5.118   2.448   1.337  1.3293 -0.5185  3.0632
  184MOL0     H24257   5.186   2.536   1.204 -3.8188 -0.8039  0.0235
  184MOL0     H24258   5.356   2.329   1.354  0.2610  0.4277  1.8164
  184MOL0     H24259   5.340   2.502   1.412  2.6172 -0.3371  0.4123
  184MOL0     H24260   5.461   2.403   1.147  2.9844  1.2621 -2.6579
  184MOL0     H24261   5.417   2.570   1.178  0.6695 -0.6003 -1.4903
  184MOL0     H24262   5.589   2.586   1.351  0.1664  1.2634 -2.0385
  184MOL0     H24263   5.660   2.522   1.201  1.5723  0.6483  0.3183
  184MOL0     H24264   5.648   2.299   1.272  1.2667 -1.7357  1.0325
  184MOL0     H24265   5.588   2.337   1.427  1.2402 -1.2336 -0.3805
  184MOL0     H24266   5.854   2.419   1.292 -0.6643 -0.3440 -1.0230
  184MOL0     H24267   5.806   2.503   1.443 -2.8947 -0.4237  1.3556
  184MOL0     H24268   5.801   2.284   1.555  1.0232 -1.1911 -0.1912
  184MOL0     H24269   5.970   2.308   1.476  1.9057 -4.7914 -1.0181
  184MOL0     H24270   4.815   2.395   0.972  0.3138 -0.8838 -1.1703
  184MOL0     H24271   4.607   2.333   1.037  0.2452 -0.6095  0.2960
  184MOL0     H24272   4.285   2.128   1.306  0.5351 -0.8555  1.8297
  184MOL0     H24273   4.095   2.009   1.327  1.0704  1.3739  2.2368
  184MOL0     H24274   4.716   1.131   1.204 -0.4463  1.5181  0.9025
  184MOL0     H24275   4.859   1.339   1.158 -2.0192  1.2981  1.7381
  184MOL0     H24276   4.792   1.868   1.002  1.4317  1.5154  1.3980
  184MOL0     H24277   4.942   2.051   0.951 -2.3722 -0.0404 -0.1316
  184MOL0     H24278   5.089   2.184   0.900  0.0014 -1.2567  0.3061
  184MOL0     H24279   5.053   2.142   0.736 -2.9688  3.0182  2.6544
  184MOL0     H24280   5.329   2.248   0.838 -0.7969 -0.4049  0.1760
  184MOL0     H24281   5.295   2.208   0.669  2.6104 -1.9729  1.2595
  184MOL0     H24282   5.141   2.422   0.839  0.6215  0.7452 -0.2619
  184MOL0     H24283   5.115   2.388   0.669  2.3599 -1.2436 -2.3630
  184MOL0     H24284   5.339   2.437   0.604  1.3393  0.1334  0.5837
  184MOL0     H24285   5.253   2.562   0.638 -0.7817 -0.5415  0.4842
  184MOL0     H24286   5.575   2.582   0.928  0.1229  1.0390 -1.1076
  184MOL0     H24287   5.229   1.772   0.804 -0.8357  0.3175 -2.6663
  184MOL0     H24288   5.082   1.585   0.867 -2.1836 -0.1530  0.1851
  185MOL0     O24289   3.101   0.824   7.279 -0.1787  0.4924 -0.1238
  185MOL0     C24290   3.165   0.732   7.336  0.4233 -0.3196 -0.3330
  185MOL0     O24291   3.106   0.625   7.401  0.3879  0.1281 -0.2360
  185MOL0     C24292   2.976   0.636   7.433  1.0703 -0.3853 -0.4260
  185MOL0     C24293   2.907   0.507   7.438  0.8888 -0.6808  0.2580
  185MOL0     C24294   2.779   0.503   7.489  1.1815  0.4679 -0.0329
  185MOL0     C24295   2.720   0.604   7.568  0.8015 -0.8576  0.7085
  185MOL0     O24296   2.605   0.599   7.641  0.1584  0.2837 -0.1352
  185MOL0     C24297   2.522   0.496   7.596  1.1111  0.2131  0.0670
  185MOL0     C24298   2.381   0.535   7.633  0.6450 -0.6223  0.4050
  185MOL0     C24299   2.322   0.657   7.556  0.2979 -0.4663  0.7026
  185MOL0     C24300   2.168   0.664   7.571 -0.1314 -0.7133  0.3243
  185MOL0     C24301   2.109   0.668   7.709  1.3105 -0.6746 -0.3599
  185MOL0     C24302   1.970   0.738   7.711  1.7191  0.5281 -0.4218
  185MOL0     C24303   1.967   0.892   7.719  0.0927 -0.3388 -0.1456
  185MOL0     C24304   1.830   0.947   7.771 -0.2026 -0.4671 -0.7587
  185MOL0     N24305   1.725   0.953   7.668 -0.0591 -0.2182  0.1223
  185MOL0     C24306   1.742   1.008   7.545  0.1130  0.5690 -0.3991
  185MOL0     C24307   1.659   0.951   7.458 -0.1127 -0.0980  0.9731
  185MOL0     C24308   1.649   1.002   7.314  0.3847 -0.9390 -0.5597
  185MOL0     C24309   1.692   0.885   7.223  0.2336  0.4218  0.9782
  185MOL0     C24310   1.654   0.924   7.079 -0.3355  0.8747 -0.3859
  185MOL0     C24311   1.686   0.826   6.967 -0.5724  0.1510  0.2785
  185MOL0     O24312   1.674   0.865   6.827  0.7816  0.2526  0.1785
  185MOL0     C24313   1.562   0.926   6.776 -0.2548  0.4872  0.1896
  185MOL0     C24314   1.578   0.986   6.649 -0.3702 -0.0488 -0.1308
  185MOL0     C24315   1.476   1.063   6.593 -0.5317 -0.2980  0.4646
  185MOL0     C24316   1.363   1.084   6.663  0.5095 -0.0918 -0.7800
  185MOL0     C24317   1.256   1.170   6.600 -0.2440 -0.6812 -1.0216
  185MOL0     O24318   1.249   1.177   6.464  0.3983 -0.2285 -0.2165
  185MOL0     C24319   1.154   1.260   6.412 -0.4339 -0.4215  0.7670
  185MOL0     C24320   1.027   1.207   6.412 -0.3051  0.3202  0.4600
  185MOL0     C24321   0.928   1.277   6.341  0.4654 -0.0661  0.9685
  185MOL0     C24322   0.950   1.391   6.273 -1.0031 -0.0718 -0.1490
  185MOL0     O24323   0.842   1.445   6.208  0.6480 -0.2540  0.1438
  185MOL0     C24324   0.846   1.582   6.153  0.3406 -0.3973 -0.3580
  185MOL0     C24325   0.714   1.613   6.089 -0.9209 -0.8384  0.8185
  185MOL0     C24326   0.740   1.746   5.995  0.4635  0.7108  0.7844
  185MOL0     C24327   0.753   1.867   6.089  0.6841  0.0654 -0.1715
  185MOL0     C24328   0.791   1.999   6.018 -0.1756 -0.3989  0.5459
  185MOL0     C24329   0.697   2.033   5.897  0.1227  0.3111 -0.1459
  185MOL0     C24330   0.549   2.066   5.939  0.0605  0.3385  0.5154
  185MOL0     C24331   0.461   2.104   5.810  0.3565 -1.6530 -0.5979
  185MOL0    Cl24332   0.513   2.265   5.743 -0.2426  0.2063 -0.1612
  185MOL0     C24333   1.087   1.447   6.272  0.7341 -0.1201 -0.4144
  185MOL0     C24334   1.188   1.380   6.345  0.4041 -0.1585  0.0439
  185MOL0     O24335   1.170   1.213   6.681 -0.3781  0.0927  0.6486
  185MOL0     C24336   1.337   1.014   6.783 -0.9223  0.7049  0.0557
  185MOL0     C24337   1.434   0.938   6.842 -0.3403  0.0317  0.0339
  185MOL0     N24338   1.597   0.849   7.533 -0.4261 -0.1001 -0.6248
  185MOL0     N24339   1.643   0.846   7.651  1.1675  0.2897 -0.6454
  185MOL0     C24340   2.790   0.731   7.555 -0.2052 -0.2932 -0.4325
  185MOL0     C24341   2.908   0.746   7.481  1.2156 -0.3865  0.0349
  185MOL0     C24342   3.309   0.730   7.327  0.2360  0.8948 -0.2349
  185MOL0     C24343   3.384   0.622   7.386  0.2085  0.9123  0.2883
  185MOL0     C24344   3.522   0.622   7.379  0.5305  0.4211  0.5452
  185MOL0     C24345   3.591   0.714   7.311  0.3712 -0.4284 -0.2354
  185MOL0     O24346   3.727   0.691   7.297  0.5247  0.1268  0.4441
  185MOL0     C24347   3.808   0.787   7.216 -0.3585 -0.0530  0.0622
  185MOL0     C24348   3.940   0.725   7.230 -0.2501 -0.0176 -0.7612
  185MOL0     C24349   4.052   0.800   7.172 -1.0256  0.3280 -0.2643
  185MOL0     C24350   4.172   0.711   7.187 -0.4006 -0.2779  0.4798
  185MOL0     C24351   4.293   0.784   7.162 -0.0876 -0.2917 -0.2637
  185MOL0     C24352   4.398   0.840   7.144 -0.0748  0.6441 -0.0854
  185MOL0     C24353   3.524   0.822   7.251  0.7842  0.6609  0.2841
  185MOL0     C24354   3.384   0.828   7.260 -0.4675 -0.0065 -0.3328
  185MOL0     H24355   2.959   0.433   7.378 -3.0750 -2.0510 -1.8475
  185MOL0     H24356   2.748   0.402   7.464 -1.9200  0.7015  2.1584
  185MOL0     H24357   2.545   0.401   7.645 -0.5267 -0.6252 -0.7135
  185MOL0     H24358   2.525   0.482   7.488  1.2608 -1.8998  0.3053
  185MOL0     H24359   2.361   0.562   7.736 -0.4451  1.9407 -0.3992
  185MOL0     H24360   2.314   0.452   7.609 -0.0516 -0.6583  2.3468
  185MOL0     H24361   2.334   0.651   7.447 -1.6711  0.8288  0.3643
  185MOL0     H24362   2.361   0.748   7.602 -1.1617  0.2769  0.5139
  185MOL0     H24363   2.132   0.744   7.506  3.2062 -0.8215 -1.9453
  185MOL0     H24364   2.126   0.576   7.522 -0.8734  1.0509 -2.4847
  185MOL0     H24365   2.172   0.719   7.783  0.1898  1.1203 -0.5787
  185MOL0     H24366   2.084   0.569   7.747  0.0641  0.2136  1.2914
  185MOL0     H24367   1.921   0.692   7.797  0.7522 -1.7330 -2.0960
  185MOL0     H24368   1.910   0.719   7.622  0.4557  4.6598 -0.6559
  185MOL0     H24369   2.049   0.917   7.787  1.3372  0.0162 -1.7090
  185MOL0     H24370   1.991   0.937   7.622 -0.9921  1.5114  0.3975
  185MOL0     H24371   1.837   1.048   7.813 -3.6521 -1.6028  3.1941
  185MOL0     H24372   1.798   0.877   7.849 -1.5575  0.0834 -0.8043
  185MOL0     H24373   1.807   1.089   7.514 -1.4498  2.6017  1.3313
  185MOL0     H24374   1.718   1.084   7.293  0.1103 -0.5168  0.1480
  185MOL0     H24375   1.548   1.038   7.293  0.0868 -1.2549  0.2741
  185MOL0     H24376   1.638   0.792   7.243  0.3146 -0.9638 -3.9380
  185MOL0     H24377   1.799   0.868   7.239  0.4483  0.1367 -0.5907
  185MOL0     H24378   1.548   0.948   7.081 -0.8031 -0.5241 -2.9819
  185MOL0     H24379   1.703   1.018   7.051 -0.4139  1.3482  1.0291
  185MOL0     H24380   1.625   0.737   6.987 -1.4995  0.3314 -1.5042
  185MOL0     H24381   1.793   0.804   6.971 -0.6736 -0.4295 -0.1750
  185MOL0     H24382   1.672   0.984   6.594  1.6086 -0.1658  3.0025
  185MOL0     H24383   1.495   1.101   6.493  1.0719  0.6054  1.0747
  185MOL0     H24384   1.003   1.116   6.465 -0.3343  1.1549  1.9569
  185MOL0     H24385   0.829   1.233   6.350  1.0793 -2.4705 -2.0405
  185MOL0     H24386   0.935   1.587   6.091  0.4732 -1.0789 -0.2331
  185MOL0     H24387   0.866   1.650   6.237 -0.6326 -1.0233  0.4010
  185MOL0     H24388   0.640   1.634   6.167  0.4601  0.6019  1.8086
  185MOL0     H24389   0.684   1.522   6.036  3.0531 -1.2643 -1.0342
  185MOL0     H24390   0.649   1.773   5.942  0.6430  1.2270  0.7297
  185MOL0     H24391   0.821   1.731   5.923  0.6348  3.3185  0.3422
  185MOL0     H24392   0.661   1.876   6.148  0.6619  0.7381 -0.2953
  185MOL0     H24393   0.825   1.851   6.169 -3.9079  0.5931  4.6270
  185MOL0     H24394   0.894   1.998   5.983 -0.0935 -1.1396  0.7921
  185MOL0     H24395   0.778   2.075   6.096 -4.2076 -1.4497  1.1450
  185MOL0     H24396   0.704   1.967   5.810  0.0504  2.4022 -1.7963
  185MOL0     H24397   0.734   2.130   5.865 -3.1375  2.7373  2.6534
  185MOL0     H24398   0.506   1.974   5.978  0.4763  0.6343  1.7211
  185MOL0     H24399   0.538   2.144   6.015 -0.5641  2.1165 -1.2992
  185MOL0     H24400   0.353   2.103   5.831 -0.7483 -0.9982 -5.1694
  185MOL0     H24401   0.469   2.033   5.727  1.2387 -2.0011 -0.2202
  185MOL0     H24402   1.117   1.539   6.223 -0.9288  0.3469 -0.5984
  185MOL0     H24403   1.288   1.421   6.348  0.5526 -0.5550  0.4919
  185MOL0     H24404   1.243   1.008   6.836 -0.1819 -0.2266  1.3124
  185MOL0     H24405   1.412   0.881   6.932 -3.1106 -2.1953 -1.8625
  185MOL0     H24406   2.731   0.808   7.604  0.5795  1.2380 -1.8041
  185MOL0     H24407   2.948   0.846   7.490  0.1484  0.0418  0.1568
  185MOL0     H24408   3.344   0.531   7.431 -0.7937 -0.9370 -3.8496
  185MOL0     H24409   3.574   0.535   7.418  0.9941 -1.2674 -3.3543
  185MOL0     H24410   3.815   0.881   7.271 -1.9472 -0.4485  1.0241
  185MOL0     H24411   3.789   0.797   7.109 -1.7323  1.8318  0.4161
  185MOL0     H24412   3.956   0.711   7.337 -2.7575 -0.5412 -0.3967
  185MOL0     H24413   3.939   0.626   7.183  0.6927 -0.3393 -0.1370
  185MOL0     H24414   4.058   0.895   7.224 -0.8175  0.0641  0.1970
  185MOL0     H24415   4.042   0.820   7.065 -0.5275  2.5358  0.0577
  185MOL0     H24416   4.168   0.652   7.279  1.1207 -2.8853 -0.9786
  185MOL0     H24417   4.177   0.629   7.114  1.4408 -0.5020  0.8084
  185MOL0     H24418   4.498   0.878   7.152  0.6127 -1.2795  1.2484
  185MOL0     H24419   3.579   0.894   7.192  0.0276  0.9806 -0.0496
  185MOL0     H24420   3.334   0.913   7.214 -0.8277 -1.1775 -2.1729
  186MOL0     O24421   6.823   5.325   0.196 -0.1044  0.3178 -0.3489
  186MOL0     C24422   6.908   5.254   0.141  0.6915 -0.6906 -0.3050
  186MOL0     O24423   6.883   5.157   0.053  0.5431  0.3266 -0.8387
  186MOL0     C24424   6.751   5.135   0.021 -0.4346 -0.9605  0.4511
  186MOL0     C24425   6.670   5.235  -0.027  0.8663 -0.7343  0.7536
  186MOL0     C24426   6.540   5.214  -0.072 -0.1758  0.6221 -0.1605
  186MOL0     C24427   6.486   5.083  -0.069  0.1109  0.2937 -0.8096
  186MOL0     O24428   6.353   5.065  -0.112 -0.0045 -0.6197  0.1599
  186MOL0     C24429   6.304   4.930  -0.129  0.3339 -1.4498  0.6809
  186MOL0     C24430   6.154   4.929  -0.169  0.1967  0.5162 -0.3480
  186MOL0     C24431   6.113   4.807  -0.253  0.4504 -0.8320 -0.5973
  186MOL0     C24432   5.966   4.815  -0.287  0.3040 -0.4379  1.0575
  186MOL0     C24433   5.936   4.694  -0.378  0.1296 -0.9356 -0.0827
  186MOL0     C24434   5.801   4.708  -0.457  0.0581 -0.1863  0.2901
  186MOL0     C24435   5.770   4.578  -0.527  0.3010 -0.2361 -0.5524
  186MOL0     C24436   5.706   4.600  -0.661  0.1026 -1.4411 -0.1896
  186MOL0     N24437   5.575   4.640  -0.642  0.3032  0.4668  0.1328
  186MOL0     C24438   5.511   4.759  -0.632 -0.5683 -0.0436  0.0399
  186MOL0     C24439   5.379   4.731  -0.642 -0.9870  0.2496 -0.6534
  186MOL0     C24440   5.282   4.842  -0.622  0.2684  0.4143 -0.7328
  186MOL0     C24441   5.278   4.889  -0.478 -0.6873 -0.1122 -0.1023
  186MOL0     C24442   5.230   4.776  -0.376  0.6073 -0.4376  0.2344
  186MOL0     C24443   5.092   4.718  -0.404 -0.3911  0.4793  0.3915
  186MOL0     O24444   4.993   4.818  -0.420 -0.1322 -0.0887 -0.0406
  186MOL0     C24445   4.857   4.785  -0.412 -0.7315 -0.0352 -0.2237
  186MOL0     C24446   4.800   4.682  -0.493 -0.7979 -0.5541 -0.7561
  186MOL0     C24447   4.663   4.660  -0.492  0.1192 -0.1428 -1.0393
  186MOL0     C24448   4.581   4.721  -0.392 -0.0507 -0.2624 -0.3573
  186MOL0     C24449   4.437   4.708  -0.386 -0.0034 -0.0421  1.0923
  186MOL0     O24450   4.375   4.736  -0.266  0.0057  0.2124 -0.1878
  186MOL0     C24451   4.235   4.716  -0.264  0.3898 -0.4428 -0.3969
  186MOL0     C24452   4.162   4.822  -0.194 -0.6289 -0.1734 -0.0493
  186MOL0     C24453   4.019   4.820  -0.185  0.2758  0.0188 -0.9323
  186MOL0     C24454   3.953   4.700  -0.225  0.8768 -0.0832  0.9187
  186MOL0     O24455   3.817   4.666  -0.224  0.1942  0.4732 -0.5874
  186MOL0     C24456   3.756   4.722  -0.107  0.8291  0.1534 -0.4852
  186MOL0     C24457   3.625   4.645  -0.083 -0.6731  0.4431  0.9602
  186MOL0     C24458   3.567   4.678   0.052  0.2734 -0.9168  0.0748
  186MOL0     C24459   3.416   4.670   0.047  0.2762  0.2037  0.0968
  186MOL0     C24460   3.348   4.698   0.185  0.1360  0.2033 -0.1756
  186MOL0     C24461   3.200   4.654   0.200 -1.0450 -0.6376  0.5244
  186MOL0     C24462   3.189   4.506   0.175  0.3773  0.5727 -0.2211
  186MOL0     C24463   3.056   4.467   0.213  1.1491 -0.2814 -0.0185
  186MOL0    Cl24464   3.050   4.291   0.206 -0.0096  0.2643 -0.5255
  186MOL0     C24465   4.027   4.603  -0.296 -0.1281  0.7034  0.4533
  186MOL0     C24466   4.162   4.613  -0.322 -0.9374 -0.7117  0.2030
  186MOL0     O24467   4.383   4.676  -0.499 -0.2654 -0.0787 -0.7918
  186MOL0     C24468   4.643   4.809  -0.301 -0.3896 -0.1455 -0.1096
  186MOL0     C24469   4.781   4.843  -0.311  0.8513  0.0655 -0.2858
  186MOL0     N24470   5.369   4.585  -0.638  0.0670 -0.0819 -0.2256
  186MOL0     N24471   5.489   4.537  -0.653 -0.3664  0.5025  0.1803
  186MOL0     C24472   6.573   4.983  -0.018  0.1212 -0.0116  0.7862
  186MOL0     C24473   6.705   5.009   0.029  0.4111  0.9398 -0.0673
  186MOL0     C24474   7.047   5.288   0.183 -0.3298 -0.4776 -0.2421
  186MOL0     C24475   7.157   5.225   0.123 -0.7784 -0.1003 -0.8541
  186MOL0     C24476   7.288   5.246   0.151  0.5506 -0.4307 -0.3453
  186MOL0     C24477   7.321   5.322   0.267 -0.2445 -0.7021 -0.3346
  186MOL0     O24478   7.455   5.353   0.292  0.5038 -0.4627  0.6584
  186MOL0     C24479   7.515   5.268   0.396 -0.3220  0.2418 -0.3931
  186MOL0     C24480   7.656   5.319   0.431 -0.1904  0.6217 -0.8432
  186MOL0     C24481   7.699   5.278   0.570  0.3165  0.2238 -0.8593
  186MOL0     C24482   7.704   5.130   0.586 -0.0863 -0.1739  0.0962
  186MOL0     C24483   7.777   5.088   0.701 -0.2938  0.3619 -0.1951
  186MOL0     C24484   7.832   5.051   0.805 -0.1906  0.3292  0.6191
  186MOL0     C24485   7.218   5.389   0.332 -0.1297  0.4306 -0.7743
  186MOL0     C24486   7.084   5.372   0.292  0.6276 -0.0048  0.5971
  186MOL0     H24487   6.695   5.340  -0.038 -1.8135 -0.1253 -0.2723
  186MOL0     H24488   6.481   5.294  -0.113  0.1665  1.1480  0.3555
  186MOL0     H24489   6.324   4.882  -0.032 -1.9187 -2.1616  0.8615
  186MOL0     H24490   6.355   4.880  -0.212  0.0973 -0.3293 -0.1624
  186MOL0     H24491   6.136   5.011  -0.239  1.6780  2.2346  1.1717
  186MOL0     H24492   6.089   4.938  -0.082 -1.9421 -1.8256 -1.5580
  186MOL0     H24493   6.130   4.718  -0.193  0.7220  0.5812  1.5154
  186MOL0     H24494   6.171   4.805  -0.346  0.1157 -0.6442 -0.8136
  186MOL0     H24495   5.908   4.818  -0.194 -2.1756 -2.8134 -0.2808
  186MOL0     H24496   5.960   4.904  -0.351 -3.1659 -2.2925 -1.5345
  186MOL0     H24497   5.936   4.602  -0.318 -0.0097 -0.0581  1.3077
  186MOL0     H24498   6.012   4.686  -0.456 -1.7857  0.9134 -2.2866
  186MOL0     H24499   5.817   4.775  -0.542  1.6442 -1.5300 -0.5148
  186MOL0     H24500   5.711   4.737  -0.402 -1.6502  0.5385 -2.6619
  186MOL0     H24501   5.864   4.525  -0.547 -1.6914 -3.4400 -2.2172
  186MOL0     H24502   5.715   4.503  -0.469  0.8494  1.9899  3.2133
  186MOL0     H24503   5.715   4.508  -0.720  1.1427  0.3925 -3.1392
  186MOL0     H24504   5.745   4.680  -0.726 -0.5658  0.3003  1.4599
  186MOL0     H24505   5.549   4.861  -0.624 -2.0507  0.3665  4.9985
  186MOL0     H24506   5.186   4.803  -0.656 -0.9427  0.1549  2.6399
  186MOL0     H24507   5.318   4.926  -0.683 -1.6362  0.5868 -1.7034
  186MOL0     H24508   5.197   4.963  -0.472  0.4941  1.3015 -0.7532
  186MOL0     H24509   5.368   4.947  -0.454  0.1285 -0.8605 -1.2542
  186MOL0     H24510   5.307   4.699  -0.385  0.0085 -0.8741 -1.6673
  186MOL0     H24511   5.223   4.824  -0.278  0.8435  0.7694 -0.3240
  186MOL0     H24512   5.066   4.658  -0.316  0.8077 -1.4967 -0.5253
  186MOL0     H24513   5.085   4.650  -0.489 -1.0238 -0.9745  1.5749
  186MOL0     H24514   4.861   4.634  -0.569 -0.5775  1.2655 -1.7774
  186MOL0     H24515   4.631   4.593  -0.571 -1.5635  0.3144 -0.7846
  186MOL0     H24516   4.220   4.906  -0.159 -0.9713  0.5113 -1.0795
  186MOL0     H24517   3.959   4.900  -0.143  0.5995  0.5766 -1.5088
  186MOL0     H24518   3.744   4.831  -0.110 -0.2345  0.1271  1.5626
  186MOL0     H24519   3.816   4.693  -0.021 -0.7774  0.4073  0.7881
  186MOL0     H24520   3.638   4.537  -0.094  3.1610  0.4791  3.2966
  186MOL0     H24521   3.551   4.678  -0.157  1.0154  1.2593 -0.4569
  186MOL0     H24522   3.585   4.786   0.062  0.8127 -1.0859  1.0850
  186MOL0     H24523   3.605   4.621   0.137 -0.0448 -2.1942 -0.6137
  186MOL0     H24524   3.376   4.737  -0.030  1.2790 -1.2038 -1.7303
  186MOL0     H24525   3.391   4.567   0.019 -0.1337  0.1254  0.7346
  186MOL0     H24526   3.359   4.806   0.199 -1.1373  0.5856 -1.8865
  186MOL0     H24527   3.404   4.648   0.265 -1.8677  1.0431  1.8833
  186MOL0     H24528   3.126   4.718   0.150  0.6380  2.8310  2.1277
  186MOL0     H24529   3.171   4.670   0.304 -1.5544 -2.2596  0.6609
  186MOL0     H24530   3.216   4.471   0.075  0.4244 -3.5371  1.0204
  186MOL0     H24531   3.257   4.448   0.238 -0.5428  0.4653  0.6991
  186MOL0     H24532   2.971   4.508   0.156 -0.4806 -1.1648  1.6493
  186MOL0     H24533   3.030   4.482   0.318  0.6848 -0.2210 -0.1355
  186MOL0     H24534   3.981   4.514  -0.337 -0.5241  2.6788 -3.9701
  186MOL0     H24535   4.216   4.542  -0.385 -1.4127  0.5565 -1.7188
  186MOL0     H24536   4.602   4.860  -0.214  2.5493  0.8660  0.8236
  186MOL0     H24537   4.826   4.911  -0.239 -0.2633 -0.4029  0.9131
  186MOL0     H24538   6.540   4.879  -0.017 -1.7813  0.5494  0.5362
  186MOL0     H24539   6.759   4.922   0.065 -2.0284  0.0462  1.7226
  186MOL0     H24540   7.145   5.160   0.037 -1.0261  0.2711 -1.1014
  186MOL0     H24541   7.365   5.215   0.082  2.0861 -0.2380  1.1937
  186MOL0     H24542   7.515   5.162   0.369 -0.8670  0.4341 -1.1964
  186MOL0     H24543   7.460   5.280   0.490  1.1537 -0.2613  0.5633
  186MOL0     H24544   7.725   5.282   0.355  0.3309  1.7418 -0.9299
  186MOL0     H24545   7.658   5.428   0.442  1.2445  0.4194  1.5172
  186MOL0     H24546   7.623   5.318   0.639  1.3239  3.1907 -1.2956
  186MOL0     H24547   7.788   5.334   0.601 -2.4802  3.6766  1.8991
  186MOL0     H24548   7.601   5.092   0.578  0.2910 -1.0598 -0.8723
  186MOL0     H24549   7.756   5.096   0.496 -1.8929 -2.0793 -0.3290
  186MOL0     H24550   7.877   4.998   0.886 -2.7718  0.6393  2.3908
  186MOL0     H24551   7.248   5.457   0.410 -0.1188  1.7945 -1.9221
  186MOL0     H24552   7.011   5.426   0.352  1.2587  0.5989  0.8419
  187MOL0     O24553   0.473   6.041   9.179  0.6172 -0.1287 -0.5993
  187MOL0     C24554   0.530   6.028   9.068  1.0135  0.6487  0.4307
  187MOL0     O24555   0.475   6.022   8.945 -0.3727 -0.6358 -0.0177
  187MOL0     C24556   0.344   6.048   8.915  0.2350  0.0849  0.4760
  187MOL0     C24557   0.232   6.074   9.000 -0.1169  0.7168 -0.9225
  187MOL0     C24558   0.110   6.094   8.948 -0.1436 -0.3864 -0.1433
  187MOL0     C24559   0.076   6.080   8.810 -1.1597  0.9808 -0.6628
  187MOL0     O24560  -0.053   6.100   8.770 -0.4844 -0.2420 -0.8157
  187MOL0     C24561  -0.084   6.084   8.632 -0.2452 -0.7003  0.0133
  187MOL0     C24562  -0.232   6.081   8.609  0.3918  0.0698 -0.8543
  187MOL0     C24563  -0.310   5.972   8.673 -0.1231  0.3838  0.3600
  187MOL0     C24564  -0.449   5.976   8.599 -0.5135 -0.0866 -0.7233
  187MOL0     C24565  -0.540   5.884   8.672  0.5845  0.1525  0.2217
  187MOL0     C24566  -0.671   5.873   8.593  0.2678 -0.2518  0.0382
  187MOL0     C24567  -0.782   5.789   8.667  0.3964 -0.3724  0.0159
  187MOL0     C24568  -0.898   5.785   8.573  1.0342  0.1588  0.5068
  187MOL0     N24569  -0.950   5.916   8.524 -0.3259 -0.3160  0.1348
  187MOL0     C24570  -1.059   5.987   8.575 -0.7964 -1.0093  0.1069
  187MOL0     C24571  -1.099   6.072   8.482 -1.2645 -0.4716 -0.2062
  187MOL0     C24572  -1.192   6.197   8.500  0.3399 -0.0734 -0.0064
  187MOL0     C24573  -1.285   6.199   8.389  0.3072  0.0961 -0.2958
  187MOL0     C24574  -1.394   6.309   8.386  1.0940  0.1398 -0.0679
  187MOL0     C24575  -1.471   6.311   8.249  0.8196  0.0184 -0.6727
  187MOL0     O24576  -1.498   6.179   8.202 -1.0079  0.2084  0.1415
  187MOL0     C24577  -1.618   6.146   8.149 -0.0559 -0.1646  0.6908
  187MOL0     C24578  -1.664   6.014   8.166  1.2100  0.7381  0.1722
  187MOL0     C24579  -1.773   5.971   8.096 -0.2407  0.2182  0.1750
  187MOL0     C24580  -1.842   6.054   8.007  0.9255  0.3830  0.1184
  187MOL0     C24581  -1.963   5.997   7.944 -0.5065  0.4649 -0.0994
  187MOL0     O24582  -2.011   5.879   7.998  0.4391  0.2232  0.1866
  187MOL0     C24583  -2.122   5.811   7.949  0.7771 -0.1537 -0.0052
  187MOL0     C24584  -2.167   5.708   8.025  0.0674 -0.0614 -0.5222
  187MOL0     C24585  -2.268   5.628   7.996  0.6776  0.1302 -0.3340
  187MOL0     C24586  -2.342   5.643   7.876  0.1492 -0.7060 -0.0614
  187MOL0     O24587  -2.444   5.557   7.853 -0.1022 -0.7324  0.6528
  187MOL0     C24588  -2.540   5.582   7.748  0.1152 -0.3510  0.1500
  187MOL0     C24589  -2.647   5.468   7.762  0.0207 -0.3195 -0.2352
  187MOL0     C24590  -2.679   5.425   7.913  0.4983  0.5932 -0.0452
  187MOL0     C24591  -2.818   5.368   7.933 -0.5792  0.8253 -0.5458
  187MOL0     C24592  -2.828   5.319   8.081 -0.5696  0.9089  0.8092
  187MOL0     C24593  -2.960   5.244   8.111 -0.0989  0.6012  0.6241
  187MOL0     C24594  -2.970   5.205   8.253  0.0513  0.5450  0.0083
  187MOL0     C24595  -3.095   5.120   8.288  0.0399 -0.0356  0.6342
  187MOL0    Cl24596  -3.244   5.203   8.242  0.1705  0.2504 -0.2673
  187MOL0     C24597  -2.299   5.749   7.788 -0.0706 -1.0240  0.2823
  187MOL0     C24598  -2.187   5.834   7.822 -0.0173  0.6130  0.0158
  187MOL0     O24599  -2.001   6.050   7.843  0.5740  0.4234 -0.0294
  187MOL0     C24600  -1.800   6.184   7.980 -0.2703 -0.3156 -0.0194
  187MOL0     C24601  -1.686   6.228   8.053  0.4964 -0.6078 -0.1768
  187MOL0     N24602  -1.025   6.037   8.369 -0.3387  0.0084 -0.2722
  187MOL0     N24603  -0.934   5.950   8.395 -0.8333 -0.5531  0.6032
  187MOL0     C24604   0.182   6.051   8.727  0.4519 -0.1544 -0.3329
  187MOL0     C24605   0.308   6.030   8.780  0.2477 -0.1706  0.5131
  187MOL0     C24606   0.674   6.012   9.074 -0.6313 -0.5076 -0.4838
  187MOL0     C24607   0.756   6.024   8.963  0.1020 -0.1017  0.0032
  187MOL0     C24608   0.893   6.003   8.972 -0.6003 -0.2790 -0.4396
  187MOL0     C24609   0.955   5.968   9.092 -0.5447  0.4280  0.3316
  187MOL0     O24610   1.091   5.954   9.080  0.2606  0.1422 -0.2112
  187MOL0     C24611   1.169   5.930   9.200 -0.4895  0.3300  0.3396
  187MOL0     C24612   1.200   6.058   9.279  0.1228 -0.0945  0.8348
  187MOL0     C24613   1.243   6.172   9.179  0.8451  0.1061 -0.8369
  187MOL0     C24614   1.271   6.303   9.243  0.5158 -0.1721 -0.8409
  187MOL0     C24615   1.168   6.358   9.337  0.9112 -0.3563 -0.0884
  187MOL0     C24616   1.075   6.382   9.414  0.4140 -0.3363 -0.5723
  187MOL0     C24617   0.875   5.954   9.208 -0.4656  0.0425  0.1530
  187MOL0     C24618   0.736   5.979   9.198 -0.3660 -0.7836  0.5943
  187MOL0     H24619   0.238   6.081   9.108  2.0747  1.2486 -1.0432
  187MOL0     H24620   0.016   6.106   9.000 -1.5399  0.5295 -2.7190
  187MOL0     H24621  -0.051   5.987   8.595 -1.2064 -0.2812 -2.0507
  187MOL0     H24622  -0.053   6.172   8.575 -0.5424 -1.1721 -0.8954
  187MOL0     H24623  -0.250   6.086   8.502  2.7372  3.1085 -1.2375
  187MOL0     H24624  -0.266   6.169   8.664 -0.8884 -1.0113  0.1659
  187MOL0     H24625  -0.329   5.965   8.781 -1.2062 -1.3108  0.0961
  187MOL0     H24626  -0.262   5.875   8.653 -2.3891 -1.0085  1.2248
  187MOL0     H24627  -0.484   6.079   8.593  1.4129  0.6278 -0.4444
  187MOL0     H24628  -0.438   5.936   8.497 -0.3470 -4.3743  0.7659
  187MOL0     H24629  -0.562   5.936   8.765  2.9766 -0.2490  1.1030
  187MOL0     H24630  -0.494   5.787   8.695  0.6495  0.4617  1.4955
  187MOL0     H24631  -0.656   5.828   8.495 -3.1889 -0.0144 -0.7194
  187MOL0     H24632  -0.715   5.972   8.576 -2.0149 -1.1832  0.2115
  187MOL0     H24633  -0.742   5.692   8.700  4.0540  1.0238  0.2209
  187MOL0     H24634  -0.808   5.845   8.758  0.2017 -1.8871  0.9308
  187MOL0     H24635  -0.974   5.735   8.636  0.2928  0.1815 -0.3508
  187MOL0     H24636  -0.872   5.725   8.486 -0.3857  0.4460 -0.1531
  187MOL0     H24637  -1.096   5.985   8.677 -0.1820 -0.8437  0.3346
  187MOL0     H24638  -1.127   6.285   8.505  0.7023 -0.3106 -0.3994
  187MOL0     H24639  -1.247   6.187   8.594 -4.7456 -2.1214 -2.8119
  187MOL0     H24640  -1.335   6.102   8.395 -0.6596  0.6203  0.4147
  187MOL0     H24641  -1.238   6.199   8.290 -0.1665 -0.2776 -0.5258
  187MOL0     H24642  -1.460   6.287   8.471 -1.1630 -2.7463 -2.3572
  187MOL0     H24643  -1.343   6.405   8.397  1.8267 -0.1455 -0.9112
  187MOL0     H24644  -1.408   6.355   8.172  3.8075 -0.5306  1.3019
  187MOL0     H24645  -1.562   6.372   8.260  1.7777  1.6675 -1.6164
  187MOL0     H24646  -1.626   5.935   8.230  0.8949  0.9780  0.6627
  187MOL0     H24647  -1.820   5.883   8.139  0.6556  0.3686  1.4884
  187MOL0     H24648  -2.122   5.703   8.124  1.0361  2.3006 -0.7931
  187MOL0     H24649  -2.291   5.543   8.059  1.5275 -0.0993 -0.3288
  187MOL0     H24650  -2.491   5.579   7.650  0.9117  1.9700  0.4108
  187MOL0     H24651  -2.589   5.679   7.755  0.8167  0.1313 -1.1361
  187MOL0     H24652  -2.627   5.381   7.699 -0.7671  0.4090 -1.5379
  187MOL0     H24653  -2.735   5.508   7.712  0.1109 -0.9061 -0.8794
  187MOL0     H24654  -2.673   5.515   7.976  2.1004  1.4895 -1.3952
  187MOL0     H24655  -2.607   5.348   7.941  1.5642  0.4970 -2.7547
  187MOL0     H24656  -2.896   5.444   7.925 -2.7968 -1.1451  0.7893
  187MOL0     H24657  -2.838   5.289   7.860  1.9859  0.9103 -1.4368
  187MOL0     H24658  -2.829   5.407   8.147  0.6800 -0.0971  2.2459
  187MOL0     H24659  -2.741   5.259   8.108 -0.2745  1.6550  1.5957
  187MOL0     H24660  -2.961   5.154   8.048 -0.7539  1.8416 -1.2144
  187MOL0     H24661  -3.046   5.307   8.088 -1.1711 -1.0466 -0.0730
  187MOL0     H24662  -2.882   5.145   8.278 -0.0820  0.9923  1.6774
  187MOL0     H24663  -2.967   5.292   8.319  0.6619  0.8266 -0.3791
  187MOL0     H24664  -3.089   5.089   8.393  1.2730  1.5493  1.0736
  187MOL0     H24665  -3.100   5.028   8.229  4.2765 -1.1875  1.7058
  187MOL0     H24666  -2.342   5.757   7.689 -0.5073 -1.9968  0.3867
  187MOL0     H24667  -2.152   5.905   7.747 -0.1662 -1.1910 -1.8367
  187MOL0     H24668  -1.847   6.247   7.905  1.0256 -0.2152 -0.7745
  187MOL0     H24669  -1.643   6.328   8.057  3.4120 -1.7664  0.3202
  187MOL0     H24670   0.177   6.029   8.621 -1.6420  0.8457 -0.4903
  187MOL0     H24671   0.388   6.007   8.711  1.0806  0.9423  1.0680
  187MOL0     H24672   0.720   6.050   8.864  1.8102  3.1012  0.0963
  187MOL0     H24673   0.964   6.008   8.890  2.6663 -0.9762  2.1365
  187MOL0     H24674   1.265   5.884   9.176 -0.8630 -1.5265  2.0540
  187MOL0     H24675   1.108   5.862   9.260 -2.2045  1.1714 -0.3861
  187MOL0     H24676   1.109   6.084   9.334  0.3153 -0.9647  1.5806
  187MOL0     H24677   1.277   6.046   9.355  2.4916  3.9671 -0.5948
  187MOL0     H24678   1.152   6.190   9.121 -0.0716  0.6548  0.7118
  187MOL0     H24679   1.328   6.125   9.128  0.6302 -0.6635 -0.5050
  187MOL0     H24680   1.364   6.290   9.299 -0.7302 -0.6036  1.2621
  187MOL0     H24681   1.285   6.376   9.163 -1.1191  0.4572 -0.5912
  187MOL0     H24682   0.991   6.406   9.477  1.8354 -1.4247  1.8863
  187MOL0     H24683   0.917   5.928   9.305 -0.8510 -1.5084 -0.0669
  187MOL0     H24684   0.683   5.975   9.292  1.4258 -0.4894  1.6568
  188MOL0     O24685   6.172   2.901   3.183 -0.5673 -0.3748 -0.4189
  188MOL0     C24686   6.163   3.000   3.255  0.5151 -0.6974 -0.5266
  188MOL0     O24687   6.056   3.088   3.263 -0.2973 -0.0848 -0.3996
  188MOL0     C24688   5.961   3.067   3.171  0.2009  0.0074 -0.1031
  188MOL0     C24689   5.985   3.073   3.034  0.6089 -0.3096 -0.0176
  188MOL0     C24690   5.882   3.032   2.949 -0.3792  0.2292 -0.4600
  188MOL0     C24691   5.753   3.021   2.990 -0.6028  0.1326 -0.2566
  188MOL0     O24692   5.646   2.997   2.913  0.0273 -0.2335 -0.0742
  188MOL0     C24693   5.649   3.042   2.774  0.7409 -0.8348 -1.0760
  188MOL0     C24694   5.510   3.059   2.711  0.8267  1.3069  0.2812
  188MOL0     C24695   5.421   2.925   2.729  0.1086 -0.0809  0.6289
  188MOL0     C24696   5.294   2.930   2.650  0.1050 -0.0887 -0.8753
  188MOL0     C24697   5.186   2.826   2.693 -0.5119 -0.4203 -0.0064
  188MOL0     C24698   5.128   2.881   2.825 -0.0568  0.0206  1.1724
  188MOL0     C24699   4.981   2.843   2.844  0.3224 -0.5518 -0.2354
  188MOL0     C24700   4.973   2.693   2.866  0.1466 -0.0793  0.6620
  188MOL0     N24701   4.834   2.656   2.885 -0.5909 -0.4808  0.0612
  188MOL0     C24702   4.796   2.592   2.998 -0.7270 -0.2825  0.6802
  188MOL0     C24703   4.661   2.575   2.977 -1.4660  0.0535  0.2747
  188MOL0     C24704   4.563   2.530   3.082  0.5454 -0.7623 -0.0634
  188MOL0     C24705   4.438   2.462   3.025 -0.7186 -0.7709  0.0364
  188MOL0     C24706   4.343   2.405   3.140  0.7024 -0.3500  1.6155
  188MOL0     C24707   4.233   2.306   3.102  0.3748  0.9698 -0.4232
  188MOL0     O24708   4.160   2.260   3.223  0.6529  0.7389 -0.3859
  188MOL0     C24709   4.055   2.174   3.208  0.3248 -1.2780 -0.1701
  188MOL0     C24710   3.977   2.145   3.329  0.3309  0.0050  0.2982
  188MOL0     C24711   3.859   2.068   3.322  0.8896  0.6814  0.2295
  188MOL0     C24712   3.814   2.018   3.197 -0.4416  1.0811  0.7758
  188MOL0     C24713   3.692   1.943   3.165 -0.3687 -0.0059 -0.2140
  188MOL0     O24714   3.635   1.885   3.277  0.0716 -0.1635  0.3926
  188MOL0     C24715   3.500   1.857   3.262  0.2214 -1.3101 -0.0026
  188MOL0     C24716   3.443   1.730   3.273  1.1961 -0.8154  0.2450
  188MOL0     C24717   3.302   1.723   3.256  0.8515 -0.4392  0.0450
  188MOL0     C24718   3.220   1.831   3.221  0.4581 -0.0728  0.7112
  188MOL0     O24719   3.086   1.809   3.213 -0.6510 -0.1679  0.2432
  188MOL0     C24720   3.004   1.900   3.131 -0.3812  0.6628 -0.3029
  188MOL0     C24721   2.882   1.822   3.098 -0.1039 -0.3051  0.8892
  188MOL0     C24722   2.787   1.894   2.998  0.3880  0.0803  0.2910
  188MOL0     C24723   2.667   1.806   2.975 -0.3759 -0.3178  0.7120
  188MOL0     C24724   2.570   1.872   2.879 -0.3392  0.2084 -0.5664
  188MOL0     C24725   2.491   1.987   2.948  0.9628 -0.0316 -0.0953
  188MOL0     C24726   2.339   1.964   2.931  0.5183  0.6315 -0.5332
  188MOL0     C24727   2.283   1.850   3.018  0.8333 -0.0117 -0.2792
  188MOL0    Cl24728   2.107   1.867   2.999  0.3980 -0.0293  0.1574
  188MOL0     C24729   3.276   1.957   3.207  0.2476  0.4826  0.7884
  188MOL0     C24730   3.415   1.976   3.216 -0.0579  0.1675 -0.2213
  188MOL0     O24731   3.658   1.924   3.052 -0.4737 -0.3053  0.4856
  188MOL0     C24732   3.902   2.027   3.087  0.2184 -0.2686  0.1268
  188MOL0     C24733   4.018   2.112   3.089  0.6578  0.3858  0.0455
  188MOL0     N24734   4.619   2.621   2.856  0.1563  1.0375 -0.1916
  188MOL0     N24735   4.727   2.659   2.799 -0.6298 -0.8041  0.0980
  188MOL0     C24736   5.725   3.026   3.131 -0.3588  0.5466  0.2998
  188MOL0     C24737   5.832   3.038   3.213 -0.4328  0.2357  0.1199
  188MOL0     C24738   6.284   3.027   3.342  0.0597 -0.9684 -0.0845
  188MOL0     C24739   6.266   3.115   3.456 -0.3037  0.6048 -0.0326
  188MOL0     C24740   6.373   3.155   3.535 -0.6975 -0.0519 -0.3342
  188MOL0     C24741   6.501   3.111   3.502  0.6250 -0.6101  0.1030
  188MOL0     O24742   6.605   3.176   3.568  0.0331 -0.5538  0.1546
  188MOL0     C24743   6.744   3.157   3.531 -0.1951  0.5038  1.0748
  188MOL0     C24744   6.828   3.240   3.632  0.1911 -0.4924  0.2850
  188MOL0     C24745   6.796   3.185   3.775  0.3277  0.3091 -0.2452
  188MOL0     C24746   6.890   3.246   3.882 -0.0742 -0.9466 -0.1258
  188MOL0     C24747   6.898   3.159   3.998 -0.1494  0.6409  0.3331
  188MOL0     C24748   6.911   3.095   4.095 -0.6132 -0.2707  0.6628
  188MOL0     C24749   6.521   3.023   3.395 -0.0994  1.1716 -0.3713
  188MOL0     C24750   6.417   2.992   3.315  1.0421 -0.0928 -0.0144
  188MOL0     H24751   6.084   3.086   2.992  0.2425  2.4329 -0.2144
  188MOL0     H24752   5.892   3.025   2.841 -2.4579  2.3560 -0.8871
  188MOL0     H24753   5.709   2.973   2.713  1.6254  0.2046 -1.4204
  188MOL0     H24754   5.709   3.134   2.775  1.1071 -1.0366  1.6830
  188MOL0     H24755   5.512   3.081   2.603 -0.7603 -0.3145 -0.1292
  188MOL0     H24756   5.455   3.140   2.760  0.4834  0.0627  2.0510
  188MOL0     H24757   5.407   2.905   2.835  0.4575 -1.3812  0.4401
  188MOL0     H24758   5.479   2.840   2.693 -0.2409 -0.2886  0.5443
  188MOL0     H24759   5.255   3.032   2.649  0.9325  0.2769  0.7607
  188MOL0     H24760   5.320   2.911   2.545  2.0616  1.6972 -0.7903
  188MOL0     H24761   5.223   2.723   2.696 -2.7931 -1.4632 -2.7095
  188MOL0     H24762   5.104   2.826   2.620  2.1846  1.7326 -3.3055
  188MOL0     H24763   5.144   2.988   2.841  4.2861  0.1206 -2.1538
  188MOL0     H24764   5.188   2.838   2.906  1.2018 -0.8100 -0.1496
  188MOL0     H24765   4.950   2.887   2.939  0.2919  3.9577 -2.1057
  188MOL0     H24766   4.922   2.888   2.763 -0.6181  0.3616  0.9162
  188MOL0     H24767   5.034   2.645   2.943 -1.6594 -2.6465  0.6098
  188MOL0     H24768   5.000   2.646   2.771 -0.4676  1.2203 -0.1784
  188MOL0     H24769   4.849   2.576   3.091  0.4895 -0.3536 -0.0035
  188MOL0     H24770   4.514   2.614   3.131  0.8355 -0.5044 -0.2074
  188MOL0     H24771   4.617   2.464   3.151  1.5464  0.6109  0.5116
  188MOL0     H24772   4.468   2.386   2.952 -0.3645  0.3265 -0.9911
  188MOL0     H24773   4.382   2.533   2.963 -1.4527 -1.2428  0.1413
  188MOL0     H24774   4.402   2.354   3.217  0.7214 -2.6135  0.2040
  188MOL0     H24775   4.300   2.493   3.187  1.0648 -0.7820  2.8017
  188MOL0     H24776   4.278   2.226   3.043  0.8565  0.2191  0.9295
  188MOL0     H24777   4.168   2.369   3.040 -0.9645 -2.0880 -2.3839
  188MOL0     H24778   4.020   2.172   3.425 -1.5409  1.0017  0.9101
  188MOL0     H24779   3.814   2.029   3.413 -0.7424  2.4245  0.2287
  188MOL0     H24780   3.503   1.641   3.285 -0.1751 -1.8542 -0.2150
  188MOL0     H24781   3.236   1.637   3.257 -1.0350  0.9240  0.1375
  188MOL0     H24782   3.057   1.930   3.041  4.4445 -0.5983  1.7632
  188MOL0     H24783   2.992   1.989   3.193 -0.5754 -0.7466  1.8157
  188MOL0     H24784   2.836   1.803   3.195  0.7473 -1.9162  1.0284
  188MOL0     H24785   2.906   1.718   3.074  1.8036 -0.3852  2.8159
  188MOL0     H24786   2.849   1.906   2.909 -0.2489  0.2407 -0.1321
  188MOL0     H24787   2.756   1.995   3.025 -0.2854  1.6835 -5.1753
  188MOL0     H24788   2.703   1.711   2.935 -1.0500 -0.4038  0.3010
  188MOL0     H24789   2.612   1.783   3.067 -1.2320 -0.5829  0.1439
  188MOL0     H24790   2.511   1.783   2.857 -0.2487 -0.0416  0.1661
  188MOL0     H24791   2.620   1.907   2.788 -2.5610  1.9787 -1.1965
  188MOL0     H24792   2.522   2.078   2.897 -0.1492  0.1244 -0.5130
  188MOL0     H24793   2.516   2.000   3.054  3.8996  0.4394 -0.7588
  188MOL0     H24794   2.290   2.056   2.964 -3.2994 -0.6810 -1.9997
  188MOL0     H24795   2.299   1.960   2.830 -1.4314  1.5283  0.1635
  188MOL0     H24796   2.310   1.853   3.124 -2.3009 -0.4286  0.6323
  188MOL0     H24797   2.308   1.755   2.971  0.8621  0.5395 -1.4226
  188MOL0     H24798   3.227   2.046   3.168 -0.5035 -0.4861 -0.5449
  188MOL0     H24799   3.463   2.072   3.205  0.2599  0.1294  0.8137
  188MOL0     H24800   3.867   1.984   2.994 -1.2917  1.7141 -0.3120
  188MOL0     H24801   4.086   2.121   3.005 -0.0115 -2.9772 -1.0331
  188MOL0     H24802   5.624   3.004   3.162  0.1285 -0.7893  1.0347
  188MOL0     H24803   5.821   3.038   3.321 -0.5237  2.8668  0.1780
  188MOL0     H24804   6.163   3.128   3.488 -0.8064 -1.7571 -0.4491
  188MOL0     H24805   6.360   3.240   3.601  1.7963  1.3622 -1.4972
  188MOL0     H24806   6.769   3.181   3.427  1.3100 -1.0705  1.0227
  188MOL0     H24807   6.767   3.050   3.542 -0.6620  0.5301  2.5867
  188MOL0     H24808   6.931   3.230   3.597 -0.6212  1.8598 -3.3040
  188MOL0     H24809   6.801   3.346   3.631 -3.1642 -1.0597  4.0314
  188MOL0     H24810   6.822   3.079   3.763 -1.7821 -0.2917  0.1390
  188MOL0     H24811   6.692   3.207   3.799  0.5934  1.0346  0.2437
  188MOL0     H24812   6.996   3.245   3.854  0.0076  1.7422 -0.1816
  188MOL0     H24813   6.866   3.351   3.902 -1.3331 -1.4523  1.2282
  188MOL0     H24814   6.925   3.038   4.185  0.3474  1.6001  1.7711
  188MOL0     H24815   6.623   2.991   3.375 -0.7227 -2.7895  1.6502
  188MOL0     H24816   6.433   2.926   3.230  1.1956  0.5637 -0.5071
  189MOL0     O24817   6.725  10.008   8.133  1.0158  0.2059 -0.4371
  189MOL0     C24818   6.774  10.055   8.236  0.5403 -0.4640  0.1845
  189MOL0     O24819   6.723  10.164   8.309 -0.0884 -0.3818 -0.2550
  189MOL0     C24820   6.600  10.214   8.272  0.0606  0.4270 -0.9828
  189MOL0     C24821   6.504  10.217   8.379 -0.4062  0.1425 -0.7150
  189MOL0     C24822   6.381  10.268   8.339 -0.0239 -1.2437 -0.7955
  189MOL0     C24823   6.347  10.308   8.207  0.3692  0.3515 -0.4662
  189MOL0     O24824   6.230  10.365   8.175  1.2963 -0.2828 -0.8171
  189MOL0     C24825   6.112  10.357   8.261 -0.6274  0.8415  0.6840
  189MOL0     C24826   6.014  10.472   8.225 -0.5700  0.5391 -0.4638
  189MOL0     C24827   5.882  10.463   8.308 -0.3588 -0.2422  1.2095
  189MOL0     C24828   5.785  10.573   8.274 -0.5162 -0.3461  0.0791
  189MOL0     C24829   5.743  10.588   8.125  1.3292  0.2120 -0.4849
  189MOL0     C24830   5.678  10.455   8.068 -0.0482 -0.4671  0.4381
  189MOL0     C24831   5.534  10.446   8.133  0.2563 -0.4695 -0.3643
  189MOL0     C24832   5.441  10.369   8.041  1.2693 -0.3747  0.3030
  189MOL0     N24833   5.375  10.451   7.944  0.0765 -0.2005 -0.5375
  189MOL0     C24834   5.245  10.500   7.952 -0.7274  0.2611 -0.1276
  189MOL0     C24835   5.236  10.570   7.836 -0.2604 -0.0569  0.0151
  189MOL0     C24836   5.113  10.638   7.795  0.0638 -0.1341  0.4115
  189MOL0     C24837   5.034  10.551   7.702 -0.0015 -0.7498  0.7798
  189MOL0     C24838   4.936  10.645   7.626 -0.9564  1.0293 -0.3006
  189MOL0     C24839   4.834  10.561   7.539  0.3910 -0.2966 -0.3471
  189MOL0     O24840   4.747  10.488   7.625 -0.0998 -0.6574  0.6513
  189MOL0     C24841   4.630  10.436   7.576 -0.0848 -0.2535 -0.5720
  189MOL0     C24842   4.542  10.374   7.665 -0.8360 -0.3271 -0.3938
  189MOL0     C24843   4.420  10.312   7.613  0.7176  0.4165 -0.7090
  189MOL0     C24844   4.386  10.315   7.481  0.7752 -0.4104 -0.2195
  189MOL0     C24845   4.272  10.240   7.432 -0.2009  0.6825  0.7506
  189MOL0     O24846   4.161  10.219   7.518 -0.2419  0.0630 -0.7262
  189MOL0     C24847   4.057  10.136   7.486  0.7995 -0.0666 -0.4920
  189MOL0     C24848   4.048  10.033   7.394  0.0903  0.3269 -0.1814
  189MOL0     C24849   3.924   9.971   7.380 -1.0243  0.0277  1.2535
  189MOL0     C24850   3.813   9.993   7.452 -0.0460 -0.3528  0.7525
  189MOL0     O24851   3.700   9.917   7.435 -0.2173  0.3559 -0.2167
  189MOL0     C24852   3.581   9.984   7.491  0.2479  0.8954  0.1640
  189MOL0     C24853   3.466   9.904   7.436 -0.2392 -0.4859 -0.0272
  189MOL0     C24854   3.332   9.955   7.485 -0.0375 -0.0974  1.1857
  189MOL0     C24855   3.213   9.864   7.480  0.2716  0.6980  0.5870
  189MOL0     C24856   3.074   9.925   7.516 -0.5151  0.1565 -0.5532
  189MOL0     C24857   2.969   9.820   7.488 -0.6956 -0.1020  0.0862
  189MOL0     C24858   2.827   9.878   7.493 -1.1003 -1.2477 -0.1509
  189MOL0     C24859   2.736   9.773   7.442  0.5297  0.5947  0.7242
  189MOL0    Cl24860   2.567   9.835   7.445  0.1937 -0.1722  0.2828
  189MOL0     C24861   3.827  10.093   7.544  0.9018 -0.1788 -0.6397
  189MOL0     C24862   3.946  10.166   7.563 -0.5162  0.6572  0.4893
  189MOL0     O24863   4.282  10.197   7.318 -0.6081 -0.9748  0.4511
  189MOL0     C24864   4.480  10.375   7.402 -0.1887  0.3222  0.3191
  189MOL0     C24865   4.593  10.440   7.448 -1.0145 -0.3229  1.2817
  189MOL0     N24866   5.351  10.564   7.758  0.6637 -0.3232 -1.1742
  189MOL0     N24867   5.434  10.493   7.826 -0.4791 -0.2621  0.6724
  189MOL0     C24868   6.435  10.288   8.109  0.7690  0.2480  0.0812
  189MOL0     C24869   6.568  10.247   8.139  0.3856 -0.0063 -0.8270
  189MOL0     C24870   6.891   9.988   8.273 -0.9708  0.0459  1.6512
  189MOL0     C24871   6.974  10.053   8.364  0.0561  0.0703  0.5922
  189MOL0     C24872   7.087   9.993   8.409  0.1956  0.1270 -0.1762
  189MOL0     C24873   7.142   9.877   8.350  0.1147  0.0205 -0.2090
  189MOL0     O24874   7.264   9.838   8.405 -0.0331  0.1855  0.1670
  189MOL0     C24875   7.318   9.712   8.374  0.3302 -1.3324 -0.5906
  189MOL0     C24876   7.468   9.699   8.411 -0.5914 -0.1246 -0.5128
  189MOL0     C24877   7.539   9.609   8.310 -0.1307 -0.6165 -0.0105
  189MOL0     C24878   7.693   9.592   8.332 -0.4367  0.5021 -0.4507
  189MOL0     C24879   7.762   9.722   8.306 -0.0609 -0.0925 -0.6732
  189MOL0     C24880   7.815   9.826   8.273  0.1883 -0.2269 -0.6070
  189MOL0     C24881   7.065   9.812   8.255 -0.2536  0.9572  0.6098
  189MOL0     C24882   6.940   9.865   8.216  0.8713 -0.0827 -0.8238
  189MOL0     H24883   6.517  10.184   8.481  0.9194 -0.3735 -1.0325
  189MOL0     H24884   6.311  10.272   8.422  0.9989  0.7920  0.0581
  189MOL0     H24885   6.147  10.371   8.364  0.8044  0.7989  0.2266
  189MOL0     H24886   6.056  10.266   8.237  1.8971 -0.1360 -2.1110
  189MOL0     H24887   5.991  10.452   8.120 -0.4080  0.8865 -0.5634
  189MOL0     H24888   6.064  10.569   8.231 -0.7310  0.6167 -0.3640
  189MOL0     H24889   5.913  10.481   8.411  1.1379 -0.5241  0.8331
  189MOL0     H24890   5.822  10.372   8.297 -2.5818  0.9829  2.4605
  189MOL0     H24891   5.695  10.555   8.334 -1.6431 -2.1244 -2.0416
  189MOL0     H24892   5.832  10.665   8.313 -0.7273 -0.9404  1.8301
  189MOL0     H24893   5.832  10.612   8.067  0.3445  1.2493 -1.6085
  189MOL0     H24894   5.681  10.677   8.117  0.3107 -0.2411  1.6402
  189MOL0     H24895   5.735  10.365   8.093 -1.1397 -1.3764 -0.2525
  189MOL0     H24896   5.664  10.467   7.961 -2.5429  4.1517  1.0109
  189MOL0     H24897   5.524  10.408   8.236 -2.2116  3.4406  1.0835
  189MOL0     H24898   5.488  10.546   8.139  0.6416 -0.3014 -0.1991
  189MOL0     H24899   5.362  10.321   8.100  2.5975 -1.8757  0.9522
  189MOL0     H24900   5.499  10.291   7.989 -0.3958 -2.7647  1.7962
  189MOL0     H24901   5.169  10.494   8.029 -2.3788  2.2705 -1.5036
  189MOL0     H24902   5.146  10.736   7.759  1.0125 -0.4575  0.3848
  189MOL0     H24903   5.049  10.659   7.882  1.3312 -0.3488  1.4223
  189MOL0     H24904   4.978  10.473   7.754 -0.4273 -2.0866 -1.5268
  189MOL0     H24905   5.098  10.510   7.623 -3.4063  2.0988 -3.9805
  189MOL0     H24906   4.884  10.718   7.688 -3.7224 -0.0177 -1.2059
  189MOL0     H24907   5.004  10.695   7.556  4.1994 -3.0586  1.1368
  189MOL0     H24908   4.884  10.485   7.478 -1.9046 -1.5324 -0.8019
  189MOL0     H24909   4.789  10.639   7.477  1.0407  3.3751  3.3599
  189MOL0     H24910   4.576  10.367   7.768  1.3757  2.0000 -0.8660
  189MOL0     H24911   4.359  10.250   7.677  1.0121 -0.4572 -1.2393
  189MOL0     H24912   4.132  10.018   7.327  0.1990  2.6591 -0.6157
  189MOL0     H24913   3.908   9.902   7.297  1.5755  1.3350 -0.5089
  189MOL0     H24914   3.565  10.087   7.458  1.6604  1.4673  1.1500
  189MOL0     H24915   3.586   9.987   7.600  0.0541  0.7648  0.1773
  189MOL0     H24916   3.471   9.800   7.468 -1.4811 -0.4808  0.2450
  189MOL0     H24917   3.465   9.899   7.327  3.4196  2.3454 -0.3948
  189MOL0     H24918   3.301  10.026   7.408 -1.4150 -1.4307  0.4421
  189MOL0     H24919   3.328  10.008   7.580  2.0641  0.2506  1.1144
  189MOL0     H24920   3.201   9.832   7.376  3.1325 -1.0786  0.7034
  189MOL0     H24921   3.238   9.778   7.543 -0.2393 -0.2773 -0.5055
  189MOL0     H24922   3.047  10.017   7.464 -0.5008  0.6537  0.2934
  189MOL0     H24923   3.063   9.960   7.620 -0.6915 -0.1154 -0.4800
  189MOL0     H24924   2.974   9.741   7.563 -0.4195 -0.5181 -0.3656
  189MOL0     H24925   2.984   9.781   7.387 -1.2595  1.4950 -0.6604
  189MOL0     H24926   2.803   9.903   7.596  1.3966 -0.5094  0.3389
  189MOL0     H24927   2.835   9.967   7.430 -0.5110 -1.5476 -0.5136
  189MOL0     H24928   2.734   9.685   7.507  1.2331 -1.3522 -1.7684
  189MOL0     H24929   2.751   9.743   7.338 -2.0142 -2.0552  1.0158
  189MOL0     H24930   3.749  10.115   7.616  1.9865  0.9232  0.2375
  189MOL0     H24931   3.968  10.251   7.627  3.7895  1.0501 -1.1542
  189MOL0     H24932   4.463  10.373   7.295  1.2209  2.0519  0.0169
  189MOL0     H24933   4.654  10.489   7.371 -1.3500 -1.5662  0.1935
  189MOL0     H24934   6.417  10.303   8.003  0.1830  0.3134  0.1856
  189MOL0     H24935   6.649  10.230   8.069 -0.1548 -0.1516 -1.4257
  189MOL0     H24936   6.933  10.140   8.414  1.6849  0.8102  0.6989
  189MOL0     H24937   7.146  10.045   8.484  1.7205  0.1017 -1.3071
  189MOL0     H24938   7.301   9.695   8.267 -3.0419 -1.2976 -0.1934
  189MOL0     H24939   7.265   9.638   8.434  1.0404  0.8166  2.9630
  189MOL0     H24940   7.519   9.795   8.424  1.4761 -1.4268  1.8571
  189MOL0     H24941   7.476   9.652   8.509  2.1189  1.1974 -0.0115
  189MOL0     H24942   7.518   9.644   8.209  0.0086 -0.6013 -0.0347
  189MOL0     H24943   7.494   9.509   8.313 -2.6430  0.4683  0.8449
  189MOL0     H24944   7.708   9.554   8.434  1.2999 -3.8387 -2.0861
  189MOL0     H24945   7.731   9.515   8.265 -1.5687  1.5222 -2.3437
  189MOL0     H24946   7.856   9.923   8.252 -1.3881  0.2298 -1.7794
  189MOL0     H24947   7.099   9.723   8.203  1.4432  0.5846  2.2324
  189MOL0     H24948   6.894   9.813   8.133  0.9861  0.4669 -1.2422
  190MOL0     O24949   3.793   5.808   5.676 -0.7216 -0.1124  0.4554
  190MOL0     C24950   3.759   5.925   5.712  0.2362 -0.1689  0.0515
  190MOL0     O24951   3.836   6.042   5.709 -0.0449  0.0237  0.9391
  190MOL0     C24952   3.961   6.050   5.673 -0.6759 -0.7535  0.1462
  190MOL0     C24953   4.062   5.952   5.699 -0.6415  0.4574 -0.5152
  190MOL0     C24954   4.179   5.969   5.635 -0.1130 -1.0508  0.6778
  190MOL0     C24955   4.208   6.077   5.543  0.0265 -0.0042  0.0322
  190MOL0     O24956   4.338   6.100   5.513  0.2330  0.1376 -0.0762
  190MOL0     C24957   4.422   6.115   5.628 -0.0208 -0.4261  0.5639
  190MOL0     C24958   4.556   6.159   5.567  0.2402  0.0347  0.2887
  190MOL0     C24959   4.562   6.308   5.535  0.1113  0.1647  1.2050
  190MOL0     C24960   4.702   6.358   5.494  0.5942  0.1090  0.0308
  190MOL0     C24961   4.782   6.409   5.611 -0.2864  0.0364  0.5178
  190MOL0     C24962   4.895   6.486   5.568 -0.8782  0.1339 -0.3587
  190MOL0     C24963   4.998   6.418   5.485  0.8573  0.2263 -0.4560
  190MOL0     C24964   5.068   6.295   5.543  1.0381 -0.5606 -0.1650
  190MOL0     N24965   5.153   6.331   5.659  0.0006 -0.3472 -0.4515
  190MOL0     C24966   5.118   6.293   5.784 -0.2556 -0.0798  1.1289
  190MOL0     C24967   5.197   6.374   5.862  0.6428 -0.1361 -1.5855
  190MOL0     C24968   5.205   6.363   6.012  0.1385 -0.4992  0.2249
  190MOL0     C24969   5.092   6.312   6.098  0.5008 -0.2579  0.1142
  190MOL0     C24970   4.959   6.384   6.071 -0.8438  0.4794  0.1722
  190MOL0     C24971   4.848   6.323   6.155  0.9597  0.5314 -0.1452
  190MOL0     O24972   4.838   6.181   6.134 -0.1535  0.2115  0.0639
  190MOL0     C24973   4.714   6.127   6.123 -0.2063 -0.3400 -0.6508
  190MOL0     C24974   4.615   6.120   6.229  0.3780  0.0832 -0.2626
  190MOL0     C24975   4.494   6.052   6.205 -1.1195 -0.4761 -0.1710
  190MOL0     C24976   4.455   6.008   6.079  0.5525 -1.0440  0.5572
  190MOL0     C24977   4.323   5.947   6.054 -0.3761  0.4905 -0.4471
  190MOL0     O24978   4.258   5.905   6.161 -0.0013 -0.0212 -0.1722
  190MOL0     C24979   4.131   5.852   6.167  0.6264  0.2222  0.5105
  190MOL0     C24980   4.052   5.887   6.278  0.3360 -0.4954 -0.0494
  190MOL0     C24981   3.920   5.842   6.296 -0.1617  0.0607  0.7139
  190MOL0     C24982   3.852   5.781   6.199  0.3052 -0.7183  0.1255
  190MOL0     O24983   3.716   5.760   6.224  0.4425  0.0243 -0.1229
  190MOL0     C24984   3.628   5.689   6.135 -0.2265 -0.0740 -0.1433
  190MOL0     C24985   3.484   5.670   6.195 -0.6443 -0.4728  0.4068
  190MOL0     C24986   3.475   5.587   6.326  0.5811 -0.0014  0.4947
  190MOL0     C24987   3.332   5.560   6.370  0.2781 -0.0631 -0.1608
  190MOL0     C24988   3.321   5.433   6.457  0.1181  0.5227  0.4392
  190MOL0     C24989   3.171   5.397   6.498  0.3269  0.4748 -0.1606
  190MOL0     C24990   3.166   5.265   6.577 -0.3301 -0.4200  0.2680
  190MOL0     C24991   3.040   5.188   6.579  0.3960  0.1116  0.1739
  190MOL0    Cl24992   2.916   5.289   6.671 -0.6627 -0.2048  0.1145
  190MOL0     C24993   3.930   5.745   6.086 -0.2049  0.1273  1.2610
  190MOL0     C24994   4.071   5.776   6.071  0.0178  0.0392  0.0172
  190MOL0     O24995   4.290   5.930   5.937  0.0803  0.1578 -0.0672
  190MOL0     C24996   4.546   6.035   5.971 -0.1878 -0.1521  0.1287
  190MOL0     C24997   4.671   6.084   5.996 -0.8082 -0.4223 -1.2232
  190MOL0     N24998   5.285   6.441   5.791 -0.0937 -0.6685  0.1073
  190MOL0     N24999   5.263   6.412   5.669  0.6928 -0.0842  0.1213
  190MOL0     C25000   4.105   6.166   5.506  0.6210 -0.4198  0.5570
  190MOL0     C25001   3.988   6.150   5.577  0.0503  0.6111 -0.4604
  190MOL0     C25002   3.614   5.939   5.745  0.6630 -0.0829 -0.6535
  190MOL0     C25003   3.524   5.835   5.735  0.3526 -0.1929  0.6575
  190MOL0     C25004   3.392   5.838   5.782  0.9052 -0.3669 -0.1755
  190MOL0     C25005   3.348   5.954   5.849 -0.2135 -0.5279 -0.1717
  190MOL0     O25006   3.217   5.944   5.885  0.3257 -0.5278 -0.1940
  190MOL0     C25007   3.180   6.009   6.008  0.0075 -0.2962  0.1258
  190MOL0     C25008   3.077   5.928   6.088 -0.3044 -0.3191 -0.6778
  190MOL0     C25009   3.093   5.773   6.070  0.3546  0.3035 -0.0941
  190MOL0     C25010   3.019   5.693   6.177  0.0559 -0.1292 -0.2799
  190MOL0     C25011   2.877   5.712   6.138 -0.4017  0.3887 -0.4334
  190MOL0     C25012   2.765   5.722   6.099  0.4147 -0.1180 -0.3229
  190MOL0     C25013   3.438   6.060   5.861  0.5908  0.4371 -0.5252
  190MOL0     C25014   3.567   6.057   5.812  0.3594  0.2677 -0.0309
  190MOL0     H25015   4.047   5.877   5.776  0.0775 -3.5346 -3.9064
  190MOL0     H25016   4.259   5.904   5.668 -0.9973 -1.3759  2.2995
  190MOL0     H25017   4.436   6.015   5.669 -0.7920 -1.0852 -0.7033
  190MOL0     H25018   4.387   6.187   5.702  2.4024 -1.8955  3.3551
  190MOL0     H25019   4.579   6.100   5.478 -2.4577  0.0450 -0.5042
  190MOL0     H25020   4.636   6.147   5.641  0.9861  2.0761 -0.1028
  190MOL0     H25021   4.518   6.371   5.613 -1.2555 -0.7107  1.1747
  190MOL0     H25022   4.493   6.323   5.451  0.6082 -0.9981  0.5625
  190MOL0     H25023   4.768   6.282   5.453 -1.3957 -2.2173  0.8736
  190MOL0     H25024   4.687   6.430   5.413  0.2667  0.5821  0.4975
  190MOL0     H25025   4.822   6.333   5.679  2.5261  0.5733 -0.4159
  190MOL0     H25026   4.726   6.474   5.678 -0.5549 -2.1857  2.6082
  190MOL0     H25027   4.955   6.527   5.649  3.0436 -0.6783 -2.5887
  190MOL0     H25028   4.869   6.573   5.506  2.5219  1.4209 -0.1600
  190MOL0     H25029   4.958   6.391   5.387 -0.5493  3.5518 -0.9399
  190MOL0     H25030   5.079   6.487   5.459  2.2487 -0.9945  0.5211
  190MOL0     H25031   5.137   6.256   5.467 -0.3817 -0.4094 -1.5801
  190MOL0     H25032   4.993   6.221   5.572  0.0977  0.1755 -0.6762
  190MOL0     H25033   5.047   6.216   5.809  0.3400 -0.3769  1.9564
  190MOL0     H25034   5.219   6.463   6.052  0.7798 -0.4447 -0.1307
  190MOL0     H25035   5.286   6.292   6.029 -2.3095 -3.7959 -0.8204
  190MOL0     H25036   5.112   6.315   6.205  0.2452 -1.0768  0.1887
  190MOL0     H25037   5.082   6.209   6.062 -2.0971  0.2134 -0.6975
  190MOL0     H25038   4.977   6.489   6.099 -0.7067  0.0050  2.0129
  190MOL0     H25039   4.929   6.380   5.966  1.6859 -1.0970 -0.5513
  190MOL0     H25040   4.762   6.384   6.127 -0.4452 -1.6048 -0.6916
  190MOL0     H25041   4.872   6.336   6.261  0.2561 -2.6871  0.5073
  190MOL0     H25042   4.636   6.137   6.334  0.8878  1.2619 -0.5438
  190MOL0     H25043   4.434   6.048   6.295  1.6833  0.3048  1.8415
  190MOL0     H25044   4.101   5.951   6.350  0.7588 -0.6934 -0.1527
  190MOL0     H25045   3.863   5.873   6.382  0.3494  1.3675  0.6033
  190MOL0     H25046   3.674   5.594   6.107 -2.7489 -1.0314 -1.3526
  190MOL0     H25047   3.604   5.731   6.036  0.4013 -0.7007 -0.5710
  190MOL0     H25048   3.428   5.621   6.115 -0.3375 -1.3844  0.7365
  190MOL0     H25049   3.446   5.772   6.210  0.0944 -0.0640 -0.4185
  190MOL0     H25050   3.532   5.644   6.400 -1.2250 -0.3184  2.1853
  190MOL0     H25051   3.511   5.485   6.314 -0.7630 -0.4552  0.2566
  190MOL0     H25052   3.299   5.655   6.414 -2.0685 -0.4819 -0.9125
  190MOL0     H25053   3.266   5.548   6.284  1.2286 -2.1814 -0.6510
  190MOL0     H25054   3.383   5.449   6.546 -2.4352  1.1182  2.2188
  190MOL0     H25055   3.376   5.360   6.397  2.2426  1.4886  1.0751
  190MOL0     H25056   3.126   5.373   6.401 -2.2568  0.5282  0.9581
  190MOL0     H25057   3.117   5.478   6.548 -1.3473 -0.4787 -0.3385
  190MOL0     H25058   3.239   5.197   6.532 -0.8998  0.0775 -1.4723
  190MOL0     H25059   3.181   5.297   6.681 -0.4852  3.9980 -0.8582
  190MOL0     H25060   3.052   5.102   6.646  1.9799 -0.6043 -0.9714
  190MOL0     H25061   3.005   5.146   6.484 -0.6158  0.8143  0.2186
  190MOL0     H25062   3.881   5.714   5.994  1.0405  2.7427 -0.4367
  190MOL0     H25063   4.123   5.755   5.978 -1.0257 -1.1769 -0.3262
  190MOL0     H25064   4.530   5.991   5.873 -1.8561 -3.4280  1.6945
  190MOL0     H25065   4.747   6.082   5.918 -1.2288  0.3414 -1.6521
  190MOL0     H25066   4.117   6.243   5.431 -0.1772 -0.2783  0.5731
  190MOL0     H25067   3.898   6.203   5.545 -1.0646 -2.7775 -3.6880
  190MOL0     H25068   3.562   5.745   5.688  1.2946 -0.8132  2.5145
  190MOL0     H25069   3.319   5.758   5.772 -1.0044  1.0344  1.6744
  190MOL0     H25070   3.141   6.109   5.985 -0.9781 -1.2239 -2.6024
  190MOL0     H25071   3.274   6.022   6.062 -0.9651  0.4421  1.7348
  190MOL0     H25072   3.091   5.945   6.195 -0.5559  1.8094 -0.9316
  190MOL0     H25073   2.982   5.969   6.054  1.6316  3.3373 -2.3109
  190MOL0     H25074   3.200   5.751   6.075  0.1728 -0.3524  1.8261
  190MOL0     H25075   3.055   5.741   5.973 -1.4144  1.8108  0.0434
  190MOL0     H25076   3.041   5.586   6.176  0.3799 -0.0610 -0.4734
  190MOL0     H25077   3.032   5.733   6.278 -1.5666 -2.7392  1.0634
  190MOL0     H25078   2.664   5.720   6.062  0.4931 -0.6487 -0.5224
  190MOL0     H25079   3.415   6.144   5.926  0.9730  0.7413 -0.7783
  190MOL0     H25080   3.633   6.136   5.846  0.3679 -0.1925  1.0398
  191MOL0     O25081   0.425   0.708  10.192 -0.3143 -0.5183 -0.0399
  191MOL0     C25082   0.429   0.759  10.304 -0.7516  0.0032  0.0379
  191MOL0     O25083   0.342   0.852  10.356  0.2097 -0.6371 -0.6200
  191MOL0     C25084   0.252   0.917  10.283 -0.6161  0.0555 -0.0746
  191MOL0     C25085   0.169   0.862  10.193  0.0414  0.0440  0.6679
  191MOL0     C25086   0.077   0.935  10.112 -0.0392  0.0254 -0.4084
  191MOL0     C25087   0.054   1.065  10.150  0.0736 -0.0690 -0.2620
  191MOL0     O25088  -0.027   1.151  10.086  0.3730 -0.6576  0.1058
  191MOL0     C25089  -0.087   1.106   9.964 -0.3153  0.2524  0.6437
  191MOL0     C25090  -0.162   1.217   9.893 -0.3258 -0.5744 -0.0358
  191MOL0     C25091  -0.298   1.258   9.956 -0.3704  0.0264  0.2182
  191MOL0     C25092  -0.396   1.147   9.921  0.2182 -0.2345 -0.5959
  191MOL0     C25093  -0.533   1.195   9.976 -0.6335  0.1264 -0.1156
  191MOL0     C25094  -0.647   1.088   9.952 -0.9589 -0.5914  0.0229
  191MOL0     C25095  -0.777   1.138  10.016  0.1737 -0.2239  0.3061
  191MOL0     C25096  -0.887   1.058   9.956 -0.1700  0.6235  0.7359
  191MOL0     N25097  -1.016   1.092  10.013  0.9236  0.2279 -0.3849
  191MOL0     C25098  -1.112   1.169   9.954  0.5935  0.2009  0.1501
  191MOL0     C25099  -1.220   1.160  10.028  0.2220  0.1535 -0.0185
  191MOL0     C25100  -1.345   1.228   9.992  0.4970  0.2848 -0.5368
  191MOL0     C25101  -1.455   1.116   9.994 -0.5853  0.8490 -0.1520
  191MOL0     C25102  -1.592   1.181   9.984 -0.2147  0.5173  0.1928
  191MOL0     C25103  -1.709   1.075   9.974  0.1465 -0.2196 -0.3027
  191MOL0     O25104  -1.700   1.014  10.099 -0.0732  0.6663  0.0689
  191MOL0     C25105  -1.813   0.964  10.161  0.0697  0.2538  0.1440
  191MOL0     C25106  -1.818   0.957  10.302 -0.1948  0.5545  0.4164
  191MOL0     C25107  -1.923   0.908  10.374  0.4033 -0.4043  0.1358
  191MOL0     C25108  -2.036   0.856  10.298 -0.7034  0.0350  0.1427
  191MOL0     C25109  -2.162   0.803  10.369 -0.1254  0.8806 -0.2201
  191MOL0     O25110  -2.255   0.728  10.301  0.4816 -0.3605 -0.4708
  191MOL0     C25111  -2.356   0.668  10.378 -0.4752  0.3312 -0.0329
  191MOL0     C25112  -2.345   0.536  10.423  0.0965 -0.0024  0.1538
  191MOL0     C25113  -2.448   0.484  10.506 -0.4521 -0.1517 -0.2278
  191MOL0     C25114  -2.572   0.552  10.528 -0.2407  0.6577 -0.6412
  191MOL0     O25115  -2.671   0.485  10.595 -0.0271 -0.1465 -0.3706
  191MOL0     C25116  -2.752   0.563  10.683  0.1364 -0.0490 -0.0646
  191MOL0     C25117  -2.785   0.469  10.800  0.4196 -0.0405  0.2555
  191MOL0     C25118  -2.667   0.407  10.879  0.1025 -0.1093  0.7882
  191MOL0     C25119  -2.577   0.513  10.930  0.3530  0.8072 -0.2889
  191MOL0     C25120  -2.459   0.461  11.013 -0.2042 -0.0321  0.6700
  191MOL0     C25121  -2.366   0.574  11.047  0.4416  0.2585  0.2970
  191MOL0     C25122  -2.242   0.516  11.117  0.4231 -0.7944  0.1745
  191MOL0     C25123  -2.243   0.554  11.267  0.4926 -0.3761 -0.3045
  191MOL0    Cl25124  -2.110   0.454  11.343  0.1368 -0.0434  0.2486
  191MOL0     C25125  -2.582   0.686  10.480 -0.7491 -0.0762 -0.4932
  191MOL0     C25126  -2.474   0.740  10.409  0.2223  0.1696 -0.3540
  191MOL0     O25127  -2.161   0.816  10.490 -0.5453  0.1924 -0.3974
  191MOL0     C25128  -2.033   0.863  10.156 -0.0263  0.5129 -0.4402
  191MOL0     C25129  -1.929   0.915  10.093 -0.2340 -0.3985  0.2463
  191MOL0     N25130  -1.184   1.092  10.143 -0.8478  0.2241  0.4734
  191MOL0     N25131  -1.059   1.046  10.129  0.0720 -1.1648 -0.2053
  191MOL0     C25132   0.133   1.133  10.250  0.4373 -0.5621 -0.0446
  191MOL0     C25133   0.231   1.052  10.311  0.0591 -0.1638 -0.4923
  191MOL0     C25134   0.538   0.721  10.391  0.1214 -1.1875 -0.3466
  191MOL0     C25135   0.542   0.780  10.518 -0.5607  0.1581 -0.0543
  191MOL0     C25136   0.650   0.767  10.605  0.1521 -0.7131  0.0948
  191MOL0     C25137   0.754   0.676  10.566  0.0774  0.0398 -0.3783
  191MOL0     O25138   0.855   0.637  10.656 -0.5816  0.0235 -0.2057
  191MOL0     C25139   0.866   0.703  10.783  0.5438  0.4147  0.5355
  191MOL0     C25140   0.981   0.649  10.866 -0.7437 -0.0005 -0.2529
  191MOL0     C25141   1.011   0.502  10.843 -0.4325  0.3429  0.5987
  191MOL0     C25142   1.096   0.443  10.945 -0.6755 -0.2547 -0.5011
  191MOL0     C25143   1.118   0.299  10.943 -0.5002  0.2844  0.0511
  191MOL0     C25144   1.153   0.185  10.926 -0.6152 -0.0080 -0.1356
  191MOL0     C25145   0.749   0.616  10.441  0.1890 -0.6342  0.1656
  191MOL0     C25146   0.638   0.632  10.356 -0.8292 -0.3312  0.0049
  191MOL0     H25147   0.183   0.757  10.171 -1.4090 -0.4899  2.1951
  191MOL0     H25148   0.016   0.882  10.039  0.0870 -0.4707 -0.1613
  191MOL0     H25149  -0.155   1.024   9.985  0.5826 -0.7722 -0.3188
  191MOL0     H25150  -0.011   1.053   9.906 -1.1540  0.0965 -0.3318
  191MOL0     H25151  -0.183   1.188   9.790 -2.9382 -0.4785  0.3978
  191MOL0     H25152  -0.105   1.310   9.889 -2.8171  1.1118  1.3058
  191MOL0     H25153  -0.326   1.357   9.918 -1.5058  0.2176  1.4368
  191MOL0     H25154  -0.288   1.266  10.065  0.3009  2.5755  0.0289
  191MOL0     H25155  -0.406   1.139   9.812  0.9900 -2.2376 -0.5535
  191MOL0     H25156  -0.370   1.052   9.967 -2.2895  0.2218  2.1024
  191MOL0     H25157  -0.570   1.282   9.922  3.3866  1.7958 -0.5095
  191MOL0     H25158  -0.510   1.215  10.081  0.6587 -0.5295 -0.2620
  191MOL0     H25159  -0.624   0.988   9.991 -2.1953 -0.5140  1.0027
  191MOL0     H25160  -0.648   1.086   9.843 -2.1885 -0.8289  0.0211
  191MOL0     H25161  -0.787   1.133  10.125 -2.4555 -0.0552  0.1326
  191MOL0     H25162  -0.787   1.242   9.984  1.3543 -0.8027 -2.1429
  191MOL0     H25163  -0.869   0.952   9.977  3.1221  1.1224  0.8977
  191MOL0     H25164  -0.891   1.074   9.848 -2.3622 -1.2798  0.4534
  191MOL0     H25165  -1.111   1.226   9.862 -1.0963  1.1635  0.6861
  191MOL0     H25166  -1.346   1.287   9.900 -3.1821  0.8507 -0.2905
  191MOL0     H25167  -1.362   1.298  10.075 -0.4056 -3.5171  2.7967
  191MOL0     H25168  -1.457   1.069  10.092 -1.0187 -1.3510 -1.1662
  191MOL0     H25169  -1.444   1.036   9.921  1.7760  0.1469  0.8865
  191MOL0     H25170  -1.598   1.233  10.080 -0.1460  1.7492 -0.4500
  191MOL0     H25171  -1.581   1.248   9.898  1.0274  3.0065  2.1414
  191MOL0     H25172  -1.685   1.011   9.888  2.1106 -0.2282  0.2158
  191MOL0     H25173  -1.810   1.116   9.961  0.1095 -0.5583 -1.2092
  191MOL0     H25174  -1.723   0.988  10.345  0.4284 -0.2513 -0.3485
  191MOL0     H25175  -1.917   0.897  10.482 -0.0337 -0.7997  0.1216
  191MOL0     H25176  -2.268   0.463  10.402 -3.0317 -4.1949  1.9251
  191MOL0     H25177  -2.438   0.379  10.531  1.0245 -0.0212 -0.1570
  191MOL0     H25178  -2.839   0.580  10.618  1.1696 -1.5568 -1.9652
  191MOL0     H25179  -2.701   0.655  10.713  1.4337 -1.3263  1.8646
  191MOL0     H25180  -2.846   0.385  10.767 -0.6923  0.0220  1.9820
  191MOL0     H25181  -2.847   0.522  10.873  2.0494 -0.4192  2.0103
  191MOL0     H25182  -2.605   0.342  10.817  1.4030  2.1051 -0.3996
  191MOL0     H25183  -2.703   0.337  10.954 -1.1694 -1.8214 -1.2984
  191MOL0     H25184  -2.545   0.575  10.846  0.4010 -2.0530 -2.5234
  191MOL0     H25185  -2.635   0.581  10.994  0.6431  1.8011 -1.0401
  191MOL0     H25186  -2.401   0.398  10.944 -0.6981  2.5050 -2.2881
  191MOL0     H25187  -2.486   0.408  11.105 -1.0372 -0.1727  0.3584
  191MOL0     H25188  -2.406   0.649  11.115 -4.1974 -0.1408 -1.6607
  191MOL0     H25189  -2.332   0.627  10.958 -0.4710 -0.5852 -0.5895
  191MOL0     H25190  -2.223   0.409  11.106 -1.2369 -1.1252  0.2137
  191MOL0     H25191  -2.157   0.568  11.073 -2.1863  1.2897 -2.9582
  191MOL0     H25192  -2.341   0.529  11.308 -1.3873  0.3348 -3.9806
  191MOL0     H25193  -2.223   0.660  11.281  1.8282 -0.6476  0.0121
  191MOL0     H25194  -2.674   0.743  10.484 -2.8543 -3.3010  2.4012
  191MOL0     H25195  -2.473   0.846  10.386 -1.3750  0.2934  0.0209
  191MOL0     H25196  -2.112   0.814  10.100  1.2760  0.0248 -1.9303
  191MOL0     H25197  -1.937   0.915   9.984 -2.5290 -0.8675  0.3677
  191MOL0     H25198   0.121   1.237  10.280  1.2404  0.1360 -1.9903
  191MOL0     H25199   0.297   1.101  10.381 -0.8325 -2.1325  1.8645
  191MOL0     H25200   0.461   0.851  10.533 -2.2918 -1.7888  0.1572
  191MOL0     H25201   0.648   0.807  10.706  0.1110 -1.1518  0.2711
  191MOL0     H25202   0.775   0.687  10.840 -0.6051  3.6673 -0.1628
  191MOL0     H25203   0.871   0.810  10.762 -2.0793  0.5571  0.3058
  191MOL0     H25204   1.057   0.721  10.835 -0.6892 -0.3284 -0.8962
  191MOL0     H25205   0.955   0.670  10.970  1.0287  5.6155 -0.6018
  191MOL0     H25206   1.059   0.503  10.744 -0.8787  0.9248  0.3764
  191MOL0     H25207   0.916   0.449  10.833  0.5537 -1.4017  0.0569
  191MOL0     H25208   1.195   0.490  10.937 -0.4980 -0.6739 -0.7743
  191MOL0     H25209   1.050   0.468  11.041 -0.9977  2.7177 -1.3223
  191MOL0     H25210   1.187   0.084  10.921 -0.0713  0.1483  0.3302
  191MOL0     H25211   0.812   0.538  10.399 -1.0988 -0.7453 -1.6847
  191MOL0     H25212   0.634   0.584  10.259  0.1494 -1.5770  0.5538
  192MOL0     O25213   6.040   1.774   3.702 -0.3133 -0.8052  0.1380
  192MOL0     C25214   6.059   1.866   3.778  0.2736 -0.2218  0.5251
  192MOL0     O25215   5.957   1.943   3.833  0.2451  0.0851 -0.2860
  192MOL0     C25216   5.828   1.926   3.784 -0.0043 -0.2833 -0.1542
  192MOL0     C25217   5.802   1.948   3.647  1.0960  0.3619 -0.1395
  192MOL0     C25218   5.678   1.923   3.594  0.3328  0.4950 -0.0534
  192MOL0     C25219   5.577   1.851   3.665 -0.3571 -0.1664  0.0129
  192MOL0     O25220   5.453   1.826   3.612  0.0813  0.1290  0.3797
  192MOL0     C25221   5.420   1.859   3.471 -0.4714 -0.8898  0.0227
  192MOL0     C25222   5.283   1.812   3.442  0.0085  0.7571 -0.0726
  192MOL0     C25223   5.180   1.897   3.512  0.5233 -0.4347 -0.2851
  192MOL0     C25224   5.047   1.826   3.504  0.4355  0.3715 -0.5794
  192MOL0     C25225   4.948   1.913   3.588 -0.7361 -0.4459 -0.0065
  192MOL0     C25226   4.809   1.859   3.584 -0.0928 -0.5377  0.4048
  192MOL0     C25227   4.737   1.858   3.714 -0.3002 -0.1191  1.0138
  192MOL0     C25228   4.725   2.002   3.766 -1.2176 -0.8369 -0.2107
  192MOL0     N25229   4.601   2.030   3.838 -0.7677  0.3640 -0.0950
  192MOL0     C25230   4.555   1.980   3.956  1.0759 -0.3726  0.7630
  192MOL0     C25231   4.432   2.040   3.980 -0.0932  0.2653  0.2709
  192MOL0     C25232   4.343   2.025   4.105  0.0484 -0.2290  0.5185
  192MOL0     C25233   4.392   1.923   4.204  0.1979 -0.5068  0.2056
  192MOL0     C25234   4.325   1.910   4.340 -0.0543  0.0627  0.1093
  192MOL0     C25235   4.181   1.953   4.332  0.5076 -0.9658 -0.3177
  192MOL0     O25236   4.098   1.865   4.248  0.7286 -0.2757 -0.1834
  192MOL0     C25237   3.972   1.901   4.221  0.5590  0.2314 -0.4479
  192MOL0     C25238   3.915   1.832   4.122 -0.0523 -0.4828  0.1767
  192MOL0     C25239   3.775   1.846   4.106 -0.5783  0.6518  0.0727
  192MOL0     C25240   3.698   1.920   4.198 -0.1788 -0.0821 -0.0795
  192MOL0     C25241   3.551   1.918   4.196 -0.7667 -0.5114 -0.4760
  192MOL0     O25242   3.485   1.987   4.295 -0.1709  0.3025  0.4525
  192MOL0     C25243   3.354   1.963   4.324 -0.2897  0.1859  0.2289
  192MOL0     C25244   3.301   1.931   4.448  0.0035 -1.1583 -0.1814
  192MOL0     C25245   3.165   1.924   4.474  1.0170 -0.5746 -0.2997
  192MOL0     C25246   3.074   1.951   4.365  0.2991  0.2120 -0.4606
  192MOL0     O25247   2.934   1.941   4.358 -0.4224  0.6853 -0.4543
  192MOL0     C25248   2.887   1.856   4.457  0.4652  0.4037 -0.4121
  192MOL0     C25249   2.755   1.799   4.403  0.6287 -1.2189  0.6350
  192MOL0     C25250   2.624   1.881   4.442 -0.5091  0.2354 -0.2212
  192MOL0     C25251   2.500   1.824   4.371  0.4409  0.2243  0.2919
  192MOL0     C25252   2.370   1.899   4.427 -0.1942  0.1871  0.0334
  192MOL0     C25253   2.255   1.794   4.428 -0.0848  0.1390  0.5169
  192MOL0     C25254   2.129   1.863   4.467  0.8404 -0.8708 -0.0147
  192MOL0     C25255   2.011   1.810   4.395  0.3599  1.2015 -0.4501
  192MOL0    Cl25256   1.965   1.638   4.448 -0.0694  0.2539 -0.1843
  192MOL0     C25257   3.132   2.009   4.254 -0.4269 -0.3925  0.3140
  192MOL0     C25258   3.269   2.019   4.233 -0.8644 -0.3584  0.4212
  192MOL0     O25259   3.495   1.847   4.115  0.4544 -0.6393  0.3988
  192MOL0     C25260   3.764   1.998   4.295 -0.4011  0.0594  0.5743
  192MOL0     C25261   3.896   1.990   4.309 -0.1386  0.4589  0.2288
  192MOL0     N25262   4.401   2.106   3.862  0.3477 -0.0600 -0.4488
  192MOL0     N25263   4.499   2.092   3.784 -0.1378 -0.1299  1.6953
  192MOL0     C25264   5.611   1.816   3.791 -1.0302 -0.6291  0.4003
  192MOL0     C25265   5.733   1.855   3.857  1.2046 -0.6368 -0.0486
  192MOL0     C25266   6.195   1.894   3.834  0.1153  0.8920 -0.2765
  192MOL0     C25267   6.303   1.825   3.775  0.6009  0.8155  0.2334
  192MOL0     C25268   6.434   1.855   3.804  0.6699  0.3056  0.1183
  192MOL0     C25269   6.466   1.952   3.900  0.0355  0.9318 -0.3729
  192MOL0     O25270   6.594   1.977   3.923 -0.0083  0.5433  0.8742
  192MOL0     C25271   6.639   1.978   4.066 -0.2720  0.2672 -0.3636
  192MOL0     C25272   6.743   2.091   4.093  0.4897 -0.1160  0.3295
  192MOL0     C25273   6.877   2.044   4.037 -1.0984 -0.9255 -0.1344
  192MOL0     C25274   6.988   2.142   4.087  0.5850 -0.2091 -0.9125
  192MOL0     C25275   7.118   2.085   4.039  0.0415 -0.9733 -0.6827
  192MOL0     C25276   7.224   2.055   3.987  0.2976  0.3055  0.6272
  192MOL0     C25277   6.357   2.012   3.966 -0.1388 -0.5092 -0.0431
  192MOL0     C25278   6.222   1.978   3.935 -0.5443 -0.1700 -0.5132
  192MOL0     H25279   5.877   1.999   3.586  0.9748  2.1066  1.0872
  192MOL0     H25280   5.653   1.938   3.490  0.5853  0.5989 -0.0982
  192MOL0     H25281   5.495   1.818   3.402 -0.5949 -2.5757  0.8585
  192MOL0     H25282   5.420   1.968   3.455 -0.8963 -0.9952 -0.7420
  192MOL0     H25283   5.273   1.706   3.465 -1.1027  0.9772  0.5359
  192MOL0     H25284   5.262   1.816   3.335  3.9179  0.8650 -0.9592
  192MOL0     H25285   5.167   1.995   3.464  3.1872  0.4438  0.6435
  192MOL0     H25286   5.199   1.923   3.616  1.1354 -1.9060 -0.0060
  192MOL0     H25287   4.999   1.815   3.406  0.1470  0.0642 -0.4054
  192MOL0     H25288   5.061   1.729   3.554  0.1589  0.1633 -0.8995
  192MOL0     H25289   4.962   2.017   3.557 -0.4604 -0.8971 -1.4888
  192MOL0     H25290   4.980   1.914   3.692  2.3021  3.8850 -0.7327
  192MOL0     H25291   4.821   1.752   3.565  0.2257 -0.5724  0.7908
  192MOL0     H25292   4.747   1.911   3.511  1.7055  0.1706 -0.6682
  192MOL0     H25293   4.638   1.822   3.682 -0.6765  0.5060  1.4596
  192MOL0     H25294   4.779   1.790   3.788 -0.2288 -0.9695  0.2148
  192MOL0     H25295   4.721   2.063   3.675 -0.9282 -1.2874 -0.5338
  192MOL0     H25296   4.807   2.036   3.829 -2.9717 -2.6815  3.3257
  192MOL0     H25297   4.597   1.911   4.030 -0.0392  0.6573  2.4245
  192MOL0     H25298   4.245   2.000   4.063 -0.5026  0.9631  1.0560
  192MOL0     H25299   4.339   2.117   4.164  0.8557  0.0138  0.2057
  192MOL0     H25300   4.497   1.942   4.229  0.2337 -0.2337 -0.1566
  192MOL0     H25301   4.371   1.823   4.163 -0.9180 -1.0736  2.0403
  192MOL0     H25302   4.333   1.803   4.364  3.3512  0.0041 -0.8120
  192MOL0     H25303   4.378   1.967   4.417 -0.6734 -1.6129  1.8657
  192MOL0     H25304   4.169   2.059   4.305  2.7036 -1.1831 -2.5298
  192MOL0     H25305   4.151   1.955   4.437 -0.5581 -1.5407 -0.5960
  192MOL0     H25306   3.973   1.775   4.050 -1.7601  0.5100 -2.1182
  192MOL0     H25307   3.743   1.793   4.017  1.6815  1.2168 -1.1484
  192MOL0     H25308   3.361   1.922   4.538 -1.0357 -1.6480  0.4843
  192MOL0     H25309   3.122   1.902   4.571 -1.9337  0.5890 -1.2220
  192MOL0     H25310   2.853   1.899   4.552 -0.5938 -0.6858 -0.2746
  192MOL0     H25311   2.952   1.769   4.469 -0.3836 -0.2896 -0.7379
  192MOL0     H25312   2.744   1.697   4.443 -0.1174 -1.3280  0.1568
  192MOL0     H25313   2.753   1.780   4.295 -0.6117 -2.8349  0.8982
  192MOL0     H25314   2.637   1.978   4.393  4.7387 -0.3959 -0.7285
  192MOL0     H25315   2.616   1.883   4.551  1.6624  0.6359 -0.0135
  192MOL0     H25316   2.501   1.830   4.262 -0.5497  1.9892  0.3367
  192MOL0     H25317   2.493   1.719   4.403 -1.8377  0.8677  2.2186
  192MOL0     H25318   2.343   1.979   4.357 -0.3547  0.7005  0.6729
  192MOL0     H25319   2.404   1.945   4.520 -0.4600  1.3986 -0.4485
  192MOL0     H25320   2.279   1.710   4.493  1.2588 -1.6160 -2.0497
  192MOL0     H25321   2.250   1.753   4.327  3.8733 -1.4281  0.7713
  192MOL0     H25322   2.102   1.853   4.572 -0.0595 -1.1665 -0.2619
  192MOL0     H25323   2.142   1.968   4.436  3.0672 -2.0560 -3.7632
  192MOL0     H25324   2.040   1.802   4.290 -1.7604 -0.2346 -0.9988
  192MOL0     H25325   1.919   1.869   4.399 -1.2828 -1.2951  0.7827
  192MOL0     H25326   3.085   2.050   4.166  0.4732 -0.4428 -0.2064
  192MOL0     H25327   3.314   2.065   4.145 -2.1869 -0.4557 -0.3448
  192MOL0     H25328   3.699   2.059   4.357  0.8701 -0.5469  2.6136
  192MOL0     H25329   3.944   2.032   4.397  4.7210 -0.7090 -1.5479
  192MOL0     H25330   5.552   1.748   3.851 -0.3425 -0.1091  1.7142
  192MOL0     H25331   5.753   1.821   3.958 -1.4458 -1.9759  0.1069
  192MOL0     H25332   6.287   1.751   3.697 -0.1651  0.4127  0.7614
  192MOL0     H25333   6.510   1.801   3.750  0.3218  1.3759 -1.5170
  192MOL0     H25334   6.683   1.882   4.094 -1.6650 -0.1355  0.4956
  192MOL0     H25335   6.555   2.001   4.132  1.0525  1.1779  1.0861
  192MOL0     H25336   6.707   2.180   4.042 -0.5203  0.1425  1.4359
  192MOL0     H25337   6.747   2.113   4.201  2.6901  0.8710  0.1032
  192MOL0     H25338   6.867   2.040   3.928 -3.9548  3.0964 -0.2772
  192MOL0     H25339   6.896   1.943   4.074  2.8140  0.0879  1.1363
  192MOL0     H25340   6.977   2.248   4.062 -2.1544  0.0548  1.0052
  192MOL0     H25341   6.983   2.141   4.196  0.9406  0.2358 -0.8881
  192MOL0     H25342   7.317   2.020   3.949  0.9099 -0.7804  2.9372
  192MOL0     H25343   6.371   2.103   4.023 -0.7636  1.3380 -2.6298
  192MOL0     H25344   6.150   2.046   3.980 -0.9010  0.3070 -1.7539
  193MOL0     O25345   1.283   4.142   8.733 -0.5616  0.5928 -0.2599
  193MOL0     C25346   1.349   4.154   8.628  0.1243  0.7893 -0.0244
  193MOL0     O25347   1.300   4.147   8.501 -0.1958  0.2244 -0.4863
  193MOL0     C25348   1.173   4.130   8.462 -1.2706  0.2342  0.6556
  193MOL0     C25349   1.155   4.101   8.327 -1.0118  0.6803  0.4401
  193MOL0     C25350   1.029   4.086   8.265 -1.0002  0.2968  0.1615
  193MOL0     C25351   0.914   4.104   8.342 -0.3291  0.7652  0.2225
  193MOL0     O25352   0.787   4.091   8.295  0.9246 -0.3773 -0.4136
  193MOL0     C25353   0.755   4.118   8.154 -0.1855  0.8923 -0.0895
  193MOL0     C25354   0.607   4.151   8.136  0.5858 -0.8149  0.3565
  193MOL0     C25355   0.581   4.230   8.002  0.3474  0.8048 -0.6988
  193MOL0     C25356   0.458   4.319   8.003  0.6001 -0.2067  0.3812
  193MOL0     C25357   0.325   4.248   8.041 -0.1800 -0.2204  0.1148
  193MOL0     C25358   0.201   4.334   8.001 -0.2463 -0.2864 -0.1588
  193MOL0     C25359   0.072   4.276   8.068  0.4991 -0.9569  0.6328
  193MOL0     C25360  -0.053   4.291   7.974 -0.8735 -0.8915 -0.2236
  193MOL0     N25361  -0.171   4.244   8.036  0.7447  0.8035 -0.7669
  193MOL0     C25362  -0.218   4.111   8.033 -0.1033  0.4627  0.6772
  193MOL0     C25363  -0.346   4.125   8.077  0.5769 -0.0001 -0.0119
  193MOL0     C25364  -0.452   4.007   8.101 -0.1479 -1.0548  0.8686
  193MOL0     C25365  -0.591   4.025   8.044  0.3966  0.1171  1.0411
  193MOL0     C25366  -0.605   3.963   7.905  0.6970  0.2684 -0.6404
  193MOL0     C25367  -0.632   3.809   7.917  0.4382  0.1870 -0.6021
  193MOL0     O25368  -0.749   3.787   8.000  0.3761  0.0968  0.1093
  193MOL0     C25369  -0.874   3.766   7.945  0.3023  0.2799 -0.1932
  193MOL0     C25370  -0.900   3.781   7.809 -0.8494  0.0260 -0.1626
  193MOL0     C25371  -1.026   3.760   7.758  0.5668  0.6827  0.6734
  193MOL0     C25372  -1.135   3.722   7.838  0.6256 -0.0062 -0.3295
  193MOL0     C25373  -1.272   3.682   7.785  0.5924 -0.3869 -0.0323
  193MOL0     O25374  -1.359   3.622   7.878  0.0311 -0.0192  0.0691
  193MOL0     C25375  -1.465   3.549   7.846 -0.3964 -0.4777 -0.4753
  193MOL0     C25376  -1.555   3.582   7.739  0.1908 -0.6935 -1.2112
  193MOL0     C25377  -1.675   3.521   7.719  0.3142 -0.3760 -0.3042
  193MOL0     C25378  -1.708   3.406   7.794 -0.0144 -0.2012  0.0875
  193MOL0     O25379  -1.819   3.336   7.758  0.7936  0.0505  0.0762
  193MOL0     C25380  -1.890   3.270   7.861 -0.3745  0.0510 -0.9021
  193MOL0     C25381  -2.039   3.261   7.832  0.1534 -0.0376  0.0040
  193MOL0     C25382  -2.112   3.189   7.948 -0.2314  0.0705  0.5889
  193MOL0     C25383  -2.256   3.177   7.911 -0.2639  0.5698 -0.4382
  193MOL0     C25384  -2.311   3.053   7.971  0.6246  0.1603  0.2182
  193MOL0     C25385  -2.469   3.044   7.964 -0.6407 -0.4190 -1.0467
  193MOL0     C25386  -2.504   2.968   7.836 -0.4245 -0.2730 -0.6828
  193MOL0     C25387  -2.656   2.955   7.830  0.4111 -0.4669 -0.6152
  193MOL0    Cl25388  -2.687   2.872   7.682 -0.0272  0.1325  0.2283
  193MOL0     C25389  -1.608   3.361   7.890  0.3147 -0.2553  0.5502
  193MOL0     C25390  -1.499   3.437   7.923  0.1953  0.7386 -0.4683
  193MOL0     O25391  -1.283   3.687   7.663 -0.3611  0.5715 -0.2262
  193MOL0     C25392  -1.102   3.689   7.971 -0.0777  0.7512  0.6071
  193MOL0     C25393  -0.976   3.716   8.027  0.7161 -0.3623  0.6500
  193MOL0     N25394  -0.368   4.254   8.112 -0.1575 -0.2724 -0.7640
  193MOL0     N25395  -0.271   4.328   8.077  0.0783  0.5576  0.1515
  193MOL0     C25396   0.928   4.137   8.479 -0.3623 -0.1919  0.5686
  193MOL0     C25397   1.052   4.146   8.545  0.4239  0.1284 -1.0181
  193MOL0     C25398   1.487   4.189   8.637  0.1514  0.0617 -0.3868
  193MOL0     C25399   1.570   4.188   8.521  0.3225 -0.0550  0.4151
  193MOL0     C25400   1.705   4.214   8.525  0.6072 -0.6727 -0.3319
  193MOL0     C25401   1.768   4.233   8.644 -0.0176 -0.8196 -0.6371
  193MOL0     O25402   1.910   4.273   8.651 -0.3232 -0.0749 -0.3994
  193MOL0     C25403   1.990   4.222   8.757  0.0208 -0.1548  0.3488
  193MOL0     C25404   2.144   4.237   8.739  0.5680 -0.5518 -0.6651
  193MOL0     C25405   2.223   4.158   8.844  0.6299 -0.2070 -0.1778
  193MOL0     C25406   2.368   4.203   8.839 -1.2282 -1.1307  0.9296
  193MOL0     C25407   2.445   4.125   8.929 -0.2045 -0.1778 -0.5301
  193MOL0     C25408   2.506   4.073   9.021  0.1115  0.8836 -0.1173
  193MOL0     C25409   1.688   4.228   8.762 -0.1859 -0.2266  0.1583
  193MOL0     C25410   1.552   4.212   8.761 -0.2666  0.0550 -0.1473
  193MOL0     H25411   1.244   4.091   8.266 -0.2740 -0.7858  1.6821
  193MOL0     H25412   1.013   4.060   8.161  0.8875  0.9696 -0.3398
  193MOL0     H25413   0.787   4.031   8.096  0.5418  0.9013  0.2939
  193MOL0     H25414   0.822   4.195   8.115  2.0626 -0.7464  0.3420
  193MOL0     H25415   0.559   4.209   8.215  0.4743 -0.2992 -0.0748
  193MOL0     H25416   0.548   4.060   8.130 -2.5147  0.9597  1.6947
  193MOL0     H25417   0.558   4.144   7.939 -4.6573  1.5063 -0.2437
  193MOL0     H25418   0.664   4.299   7.985  2.3678 -0.4110  3.1693
  193MOL0     H25419   0.472   4.394   8.081  1.3309  0.4410 -0.3505
  193MOL0     H25420   0.444   4.364   7.905  2.7502  2.6884  1.2879
  193MOL0     H25421   0.341   4.226   8.147 -1.0538  0.1418  0.3391
  193MOL0     H25422   0.303   4.151   7.997 -1.4303  0.8991 -1.9114
  193MOL0     H25423   0.195   4.328   7.892 -3.1739  0.2496 -0.1228
  193MOL0     H25424   0.214   4.438   8.031 -1.8267  1.3656 -4.3902
  193MOL0     H25425   0.083   4.172   8.101 -3.1395 -1.1816  1.5240
  193MOL0     H25426   0.056   4.340   8.155 -2.1056  0.0985 -0.5082
  193MOL0     H25427  -0.039   4.231   7.884  1.4800 -1.1434  0.2476
  193MOL0     H25428  -0.064   4.399   7.956  3.7850 -0.1594  0.1757
  193MOL0     H25429  -0.168   4.021   7.999 -0.9301  0.6952 -1.3032
  193MOL0     H25430  -0.468   4.003   8.209 -1.5481  1.1272  0.8021
  193MOL0     H25431  -0.407   3.914   8.064  0.1710  0.2009 -2.1551
  193MOL0     H25432  -0.589   4.132   8.020 -0.7338 -0.5950 -2.8819
  193MOL0     H25433  -0.673   3.987   8.106 -1.6563  0.7306 -1.1258
  193MOL0     H25434  -0.683   4.020   7.854 -0.0399 -1.3447 -1.3880
  193MOL0     H25435  -0.519   3.979   7.839  1.1476  0.3658 -0.0302
  193MOL0     H25436  -0.553   3.756   7.971  0.6805  2.0778  1.0265
  193MOL0     H25437  -0.635   3.761   7.819 -0.2958  1.8141 -1.4056
  193MOL0     H25438  -0.828   3.846   7.762 -2.0816  2.4033  1.0442
  193MOL0     H25439  -1.038   3.776   7.652  3.8265 -1.2477 -0.1530
  193MOL0     H25440  -1.535   3.659   7.666  0.2063  0.9637  0.4634
  193MOL0     H25441  -1.757   3.545   7.652 -1.1492 -0.1008  1.5050
  193MOL0     H25442  -1.877   3.313   7.960 -5.9886  1.9953 -0.6471
  193MOL0     H25443  -1.857   3.166   7.871 -0.8722 -0.2288 -1.9400
  193MOL0     H25444  -2.060   3.208   7.738 -1.6518 -0.1604  0.4426
  193MOL0     H25445  -2.071   3.365   7.829  0.8358  0.3960  3.5917
  193MOL0     H25446  -2.099   3.243   8.042  1.0693  2.0758 -0.6512
  193MOL0     H25447  -2.061   3.093   7.958  0.9992  0.4264 -1.5682
  193MOL0     H25448  -2.309   3.270   7.934 -0.7396 -0.1312  1.4878
  193MOL0     H25449  -2.268   3.165   7.803 -2.5913  2.9004 -0.5593
  193MOL0     H25450  -2.290   3.039   8.078 -1.1770 -2.6672  0.3115
  193MOL0     H25451  -2.265   2.960   7.937 -0.1141 -0.8013  1.7330
  193MOL0     H25452  -2.513   3.145   7.965 -0.3742 -0.3091 -0.4203
  193MOL0     H25453  -2.517   2.994   8.049  0.7821 -0.0539  0.0066
  193MOL0     H25454  -2.475   3.024   7.748 -0.2056  0.2999 -0.2498
  193MOL0     H25455  -2.459   2.869   7.848  0.5008  0.1819 -0.2788
  193MOL0     H25456  -2.721   3.042   7.816 -1.7559 -2.1362 -1.6644
  193MOL0     H25457  -2.702   2.903   7.915  0.9702 -0.4787 -0.3166
  193MOL0     H25458  -1.635   3.262   7.926  0.9548 -1.1855 -1.4141
  193MOL0     H25459  -1.421   3.416   7.996  0.8138 -0.5226 -1.4416
  193MOL0     H25460  -1.179   3.649   8.036  1.8632 -1.2282  1.8268
  193MOL0     H25461  -0.945   3.698   8.130  0.0235 -0.3910  0.8622
  193MOL0     H25462   0.834   4.152   8.533 -1.8481 -0.8318 -1.6908
  193MOL0     H25463   1.058   4.185   8.646 -1.1958  3.6303 -2.0853
  193MOL0     H25464   1.531   4.167   8.422 -0.1269  0.0792  0.5617
  193MOL0     H25465   1.769   4.214   8.438  3.0996 -1.3553  1.3978
  193MOL0     H25466   1.964   4.115   8.759  0.8532 -0.5385 -3.0850
  193MOL0     H25467   1.970   4.258   8.858  0.7190 -2.1142  1.2504
  193MOL0     H25468   2.175   4.222   8.635  0.5561  0.3419 -0.8031
  193MOL0     H25469   2.174   4.341   8.755  3.6283 -1.2946 -0.8886
  193MOL0     H25470   2.218   4.050   8.826  0.1917  0.0665 -1.9433
  193MOL0     H25471   2.184   4.181   8.944 -0.2335  1.3009 -0.8163
  193MOL0     H25472   2.420   4.183   8.745  1.8594  2.2752  1.6761
  193MOL0     H25473   2.375   4.310   8.861 -0.8475 -0.5177 -1.7585
  193MOL0     H25474   2.552   4.032   9.109 -0.1674 -1.2048 -0.8762
  193MOL0     H25475   1.724   4.253   8.861  0.2530  1.4550 -0.3962
  193MOL0     H25476   1.501   4.207   8.857  0.1455 -2.1833  0.0046
  194MOL0     O25477   7.580   8.403   3.287  0.0264 -0.0278 -0.2811
  194MOL0     C25478   7.668   8.426   3.372 -0.3689 -0.0332  0.2881
  194MOL0     O25479   7.634   8.449   3.499 -0.3322 -0.0695  0.2548
  194MOL0     C25480   7.507   8.497   3.527  0.0176  1.2092 -0.3707
  194MOL0     C25481   7.457   8.621   3.491 -0.3950 -0.4655  0.4117
  194MOL0     C25482   7.332   8.671   3.539  0.6080  0.3628  0.6162
  194MOL0     C25483   7.255   8.583   3.621  0.1905 -0.0942 -0.0229
  194MOL0     O25484   7.136   8.615   3.685  0.0690  0.3600 -0.0132
  194MOL0     C25485   7.071   8.735   3.651 -0.1761 -0.4558  0.1159
  194MOL0     C25486   6.938   8.753   3.716  0.0744  0.9334  0.4162
  194MOL0     C25487   6.892   8.900   3.727 -0.1659 -0.3170 -0.6535
  194MOL0     C25488   6.782   8.923   3.836 -0.0055 -0.4575 -0.3592
  194MOL0     C25489   6.750   9.077   3.850 -0.3493  0.4652 -1.3666
  194MOL0     C25490   6.634   9.107   3.957 -0.0057 -0.2083 -0.0861
  194MOL0     C25491   6.505   9.057   3.910 -0.5689  0.2359  0.0230
  194MOL0     C25492   6.401   9.103   4.010 -0.1947  0.2299  0.3631
  194MOL0     N25493   6.278   9.056   3.953 -0.4972 -1.3363  0.3632
  194MOL0     C25494   6.218   9.087   3.838  0.3208  0.5312  1.0598
  194MOL0     C25495   6.099   9.028   3.845 -0.4044  1.0694  1.5470
  194MOL0     C25496   5.983   9.057   3.746  0.0543  0.4387  0.0471
  194MOL0     C25497   5.880   8.942   3.754  0.6547 -0.1368  0.4373
  194MOL0     C25498   5.931   8.801   3.719  1.3884  0.2889 -0.4118
  194MOL0     C25499   5.826   8.680   3.715 -0.1832 -1.0932  0.0559
  194MOL0     O25500   5.736   8.692   3.821 -0.0810  0.0306  0.7629
  194MOL0     C25501   5.652   8.583   3.844  0.2350 -0.8043 -0.2688
  194MOL0     C25502   5.642   8.461   3.783 -1.1592  0.2567 -0.1693
  194MOL0     C25503   5.552   8.365   3.827 -0.3597  0.2559 -0.0038
  194MOL0     C25504   5.492   8.377   3.947  0.7910  0.3364 -0.3460
  194MOL0     C25505   5.424   8.256   4.005  0.1580 -1.0356 -0.2174
  194MOL0     O25506   5.394   8.160   3.919 -0.6146  0.7174 -0.2782
  194MOL0     C25507   5.341   8.048   3.973  0.5119  0.8596  0.2147
  194MOL0     C25508   5.203   8.020   3.965  0.4751  0.0022 -0.2824
  194MOL0     C25509   5.150   7.898   4.021 -0.1201 -0.3549  0.2068
  194MOL0     C25510   5.231   7.804   4.097 -0.2662  0.1017  0.0114
  194MOL0     O25511   5.192   7.691   4.158  0.3672 -0.0794  0.8761
  194MOL0     C25512   5.053   7.666   4.158 -0.4774  0.1023 -0.6309
  194MOL0     C25513   5.022   7.574   4.274  0.6991  0.1786 -0.4876
  194MOL0     C25514   5.088   7.436   4.264  0.0636  0.9121 -0.2234
  194MOL0     C25515   5.085   7.354   4.390 -0.1825  0.5771  0.5507
  194MOL0     C25516   5.145   7.217   4.365 -0.6466  0.5173 -0.2629
  194MOL0     C25517   5.293   7.220   4.292  0.7895 -0.1041  0.6690
  194MOL0     C25518   5.355   7.083   4.305 -0.0352 -0.1385 -0.1976
  194MOL0     C25519   5.482   7.066   4.223  0.1474 -0.3255 -0.1430
  194MOL0    Cl25520   5.602   7.196   4.262 -0.3142  0.0306  0.3762
  194MOL0     C25521   5.366   7.836   4.101 -0.4615  0.5261 -0.3764
  194MOL0     C25522   5.415   7.952   4.048 -0.0742 -0.0616  0.0128
  194MOL0     O25523   5.404   8.254   4.123 -0.4309 -0.4098 -0.5981
  194MOL0     C25524   5.499   8.503   4.009  0.5566 -0.2252 -0.6184
  194MOL0     C25525   5.576   8.605   3.962 -0.8953  0.2932  0.2535
  194MOL0     N25526   6.091   8.951   3.959  0.3625  0.2078  0.5455
  194MOL0     N25527   6.192   8.977   4.030 -0.8354  0.4095 -0.7200
  194MOL0     C25528   7.305   8.458   3.664 -0.6384  0.0329  0.0410
  194MOL0     C25529   7.428   8.423   3.613 -0.2416 -0.3983 -0.8733
  194MOL0     C25530   7.809   8.429   3.338 -0.9467  0.3865  0.5144
  194MOL0     C25531   7.912   8.426   3.434  0.7274  0.1601 -0.1002
  194MOL0     C25532   8.043   8.427   3.387  0.1414  0.1377 -1.0587
  194MOL0     C25533   8.082   8.410   3.256  0.9184 -0.0473  0.3682
  194MOL0     O25534   8.210   8.397   3.204  0.3284 -0.3618 -0.3173
  194MOL0     C25535   8.321   8.417   3.296 -0.5488  0.8898  0.2857
  194MOL0     C25536   8.359   8.557   3.329 -0.2709 -0.2470  1.1812
  194MOL0     C25537   8.503   8.573   3.363 -0.1230  0.1330 -0.3207
  194MOL0     C25538   8.538   8.525   3.504 -0.0315  0.2683 -0.2088
  194MOL0     C25539   8.681   8.513   3.520  0.6516  0.3082 -0.4681
  194MOL0     C25540   8.804   8.501   3.542  1.1357  1.0721  0.2759
  194MOL0     C25541   7.973   8.407   3.164 -0.0394 -0.6355 -0.0590
  194MOL0     C25542   7.840   8.404   3.202  0.1235  0.3894  0.0572
  194MOL0     H25543   7.523   8.691   3.439 -0.7462 -0.3061  0.1746
  194MOL0     H25544   7.301   8.768   3.501  1.0050 -0.3980 -1.8095
  194MOL0     H25545   7.064   8.747   3.542  1.8965 -0.6122 -0.0643
  194MOL0     H25546   7.137   8.815   3.685  0.1474 -0.8781  0.5042
  194MOL0     H25547   6.958   8.713   3.816  2.5843 -0.6211 -0.6089
  194MOL0     H25548   6.862   8.688   3.671 -0.3001  0.3733  1.7698
  194MOL0     H25549   6.853   8.933   3.630 -0.5222 -0.1183 -0.4416
  194MOL0     H25550   6.975   8.965   3.759 -1.5133  1.2843 -0.2881
  194MOL0     H25551   6.692   8.874   3.798 -0.2531 -0.1249 -0.1977
  194MOL0     H25552   6.822   8.882   3.930  1.1834  0.5749 -0.3819
  194MOL0     H25553   6.739   9.118   3.749 -0.7937  1.6964 -0.8446
  194MOL0     H25554   6.838   9.123   3.896 -0.6959 -1.8949  1.9428
  194MOL0     H25555   6.614   9.213   3.977 -1.4886  0.3132 -3.5587
  194MOL0     H25556   6.663   9.048   4.044  0.9345 -1.8269 -1.4266
  194MOL0     H25557   6.483   9.099   3.812 -1.4592  1.1441  0.5919
  194MOL0     H25558   6.507   8.949   3.892  0.5089  0.2039  0.2434
  194MOL0     H25559   6.401   9.212   4.018  0.5504  0.4955 -2.2802
  194MOL0     H25560   6.421   9.064   4.110  0.8105  0.3193  0.1994
  194MOL0     H25561   6.247   9.150   3.754  0.4817 -0.5597  0.2732
  194MOL0     H25562   6.033   9.059   3.649 -1.9022  2.1212 -1.0174
  194MOL0     H25563   5.937   9.152   3.776  1.3141  0.3493  2.5157
  194MOL0     H25564   5.802   8.974   3.685  2.3919  3.5965 -0.0449
  194MOL0     H25565   5.828   8.947   3.851 -1.1324  1.6922 -0.5280
  194MOL0     H25566   5.968   8.813   3.617  2.2271  1.2299 -0.0172
  194MOL0     H25567   6.003   8.767   3.793  0.6393  1.5761  0.9793
  194MOL0     H25568   5.877   8.583   3.720  0.8299 -0.5122  1.7911
  194MOL0     H25569   5.773   8.679   3.619  2.4805  3.4667 -1.7954
  194MOL0     H25570   5.710   8.429   3.705 -2.3487 -1.5771 -0.5327
  194MOL0     H25571   5.551   8.269   3.776  2.3012 -1.2565  2.5271
  194MOL0     H25572   5.153   8.084   3.893  2.9660  2.2739 -0.1526
  194MOL0     H25573   5.043   7.891   4.004 -0.5896  2.5526  1.4678
  194MOL0     H25574   5.028   7.612   4.066  0.6325 -1.5666  0.0114
  194MOL0     H25575   4.995   7.759   4.160  0.7341  0.9430 -2.4184
  194MOL0     H25576   4.914   7.554   4.276  0.8384 -0.8670 -2.0172
  194MOL0     H25577   5.052   7.628   4.365  1.7879 -0.1330 -0.6501
  194MOL0     H25578   5.190   7.453   4.228  0.6130  2.3203  1.8415
  194MOL0     H25579   5.031   7.377   4.192 -0.8386  2.2904 -0.6639
  194MOL0     H25580   5.126   7.414   4.471 -0.0597 -0.1816  1.0626
  194MOL0     H25581   4.981   7.339   4.421 -0.5444  0.9343 -0.4331
  194MOL0     H25582   5.086   7.152   4.300 -1.9392  0.8932  0.5126
  194MOL0     H25583   5.158   7.157   4.456 -0.4301 -2.7487 -2.2619
  194MOL0     H25584   5.352   7.295   4.345  2.3659 -3.3737  3.9957
  194MOL0     H25585   5.281   7.246   4.187  0.0330 -2.4026  0.1258
  194MOL0     H25586   5.389   7.063   4.407  1.5434 -2.7746 -1.1364
  194MOL0     H25587   5.288   7.001   4.277 -2.3084  0.9383  1.7881
  194MOL0     H25588   5.457   7.079   4.117  3.2435 -5.9417 -1.9888
  194MOL0     H25589   5.525   6.966   4.228  0.1420 -0.4712 -2.1199
  194MOL0     H25590   5.427   7.770   4.162 -3.4948 -0.6619  1.6076
  194MOL0     H25591   5.514   7.990   4.072 -2.0208  3.1163  4.4468
  194MOL0     H25592   5.435   8.521   4.096 -0.9725 -1.7847 -1.3604
  194MOL0     H25593   5.585   8.695   4.023  0.8493 -1.7647  3.2998
  194MOL0     H25594   7.252   8.393   3.733 -1.5194 -1.5653 -2.0278
  194MOL0     H25595   7.457   8.321   3.638 -0.0578  0.0691  0.9992
  194MOL0     H25596   7.877   8.440   3.536 -2.0291 -0.1031 -0.9216
  194MOL0     H25597   8.126   8.429   3.456  0.2026 -3.8708 -0.8093
  194MOL0     H25598   8.407   8.370   3.246 -0.9921  0.8061 -0.4172
  194MOL0     H25599   8.305   8.367   3.392 -2.7124 -0.6276 -0.7792
  194MOL0     H25600   8.334   8.613   3.239 -0.0565 -2.1047 -0.1045
  194MOL0     H25601   8.296   8.590   3.411  0.3665 -1.8135  2.3480
  194MOL0     H25602   8.539   8.676   3.358 -0.0515  0.1582  0.5069
  194MOL0     H25603   8.560   8.520   3.287  1.1355  3.8564 -2.1977
  194MOL0     H25604   8.505   8.595   3.582 -0.6250 -2.0841  1.7517
  194MOL0     H25605   8.477   8.438   3.528 -2.6506  2.2557  0.7490
  194MOL0     H25606   8.908   8.497   3.568  1.2513  1.9527 -0.0224
  194MOL0     H25607   7.984   8.393   3.057  1.1561 -1.4850  0.1568
  194MOL0     H25608   7.766   8.397   3.124  0.4831 -0.9447 -0.1901
  195MOL0     O25609   1.760   6.283  10.012 -0.4254 -0.1361  0.4951
  195MOL0     C25610   1.846   6.307  10.097 -0.6316  0.1077 -0.1733
  195MOL0     O25611   1.824   6.353  10.225 -0.0779  0.2911  0.7395
  195MOL0     C25612   1.698   6.361  10.260 -0.0257  0.4294 -0.8443
  195MOL0     C25613   1.624   6.249  10.289  0.0117  0.5962 -0.0518
  195MOL0     C25614   1.490   6.265  10.319  0.0859  0.5553 -0.8310
  195MOL0     C25615   1.441   6.397  10.340  0.7856 -0.1685  0.3598
  195MOL0     O25616   1.304   6.417  10.367 -0.0028  1.1502 -0.5203
  195MOL0     C25617   1.223   6.302  10.344  0.4998  0.2288  0.0044
  195MOL0     C25618   1.076   6.355  10.379 -0.8175 -0.0977  0.4342
  195MOL0     C25619   0.972   6.268  10.330 -0.0902  0.4969  0.5208
  195MOL0     C25620   0.833   6.322  10.372 -0.3015 -0.1410 -0.0626
  195MOL0     C25621   0.729   6.229  10.321 -0.0429 -0.6699 -0.3367
  195MOL0     C25622   0.594   6.262  10.385 -0.1221 -0.0363  0.5406
  195MOL0     C25623   0.472   6.190  10.312  0.4499 -0.7232  0.6187
  195MOL0     C25624   0.490   6.037  10.275  0.7644  0.2885 -0.4279
  195MOL0     N25625   0.354   5.981  10.248 -0.2006 -0.2990 -0.3102
  195MOL0     C25626   0.290   5.986  10.126 -0.7955  1.0902 -0.3951
  195MOL0     C25627   0.182   5.901  10.141  0.5496  0.3287 -0.4130
  195MOL0     C25628   0.088   5.876  10.027  0.8521  0.8074  0.0215
  195MOL0     C25629  -0.052   5.834  10.087 -0.6375  0.7705 -0.0519
  195MOL0     C25630  -0.146   5.835   9.970 -1.1054 -0.1585  0.0971
  195MOL0     C25631  -0.287   5.802  10.010  0.0852  0.6996  0.8444
  195MOL0     O25632  -0.309   5.660  10.015 -0.1835 -0.9712 -0.1948
  195MOL0     C25633  -0.437   5.616  10.029  0.3063  0.6898  0.7994
  195MOL0     C25634  -0.458   5.474  10.032 -1.1618 -0.5931  0.1908
  195MOL0     C25635  -0.583   5.415  10.047 -0.5889  0.3933  0.4110
  195MOL0     C25636  -0.692   5.499  10.062 -0.3125 -0.0060 -0.0251
  195MOL0     C25637  -0.824   5.447  10.105  0.3963 -0.1024  0.1238
  195MOL0     O25638  -0.916   5.538  10.161 -0.7038 -0.9973  0.1798
  195MOL0     C25639  -1.035   5.500  10.209  0.5085 -0.4576 -0.3361
  195MOL0     C25640  -1.061   5.391  10.291  0.2832 -0.8681 -0.4998
  195MOL0     C25641  -1.193   5.368  10.341 -0.3097 -0.2833 -1.2183
  195MOL0     C25642  -1.289   5.468  10.336  0.8982  1.7651  0.1040
  195MOL0     O25643  -1.415   5.435  10.385 -0.4226 -0.0515 -0.5736
  195MOL0     C25644  -1.481   5.533  10.465  0.5696 -0.3183 -0.3935
  195MOL0     C25645  -1.628   5.506  10.497  0.0483  0.2516 -0.7523
  195MOL0     C25646  -1.677   5.593  10.610  0.1335 -0.0651 -0.0470
  195MOL0     C25647  -1.812   5.534  10.657 -0.3180  0.5308  0.0803
  195MOL0     C25648  -1.925   5.524  10.546 -0.3183  1.0666  0.4554
  195MOL0     C25649  -2.055   5.469  10.604 -0.5721  0.0230  0.0427
  195MOL0     C25650  -2.125   5.569  10.711  1.1014 -0.3992  0.2056
  195MOL0     C25651  -2.270   5.541  10.723  0.6690 -0.0971 -0.1241
  195MOL0    Cl25652  -2.364   5.586  10.584 -0.4438  0.2979  0.2168
  195MOL0     C25653  -1.257   5.577  10.259  0.1507  0.4113  0.6537
  195MOL0     C25654  -1.136   5.594  10.202 -0.0662  0.5502  0.3076
  195MOL0     O25655  -0.844   5.326  10.092 -0.5444  0.4582 -0.6989
  195MOL0     C25656  -0.675   5.639  10.068 -0.0763  0.3761  0.4168
  195MOL0     C25657  -0.547   5.701  10.045  0.4001 -0.7949  0.4049
  195MOL0     N25658   0.200   5.839  10.254  0.6043  0.4074 -0.1081
  195MOL0     N25659   0.293   5.890  10.327 -0.2935  0.2072  0.5153
  195MOL0     C25660   1.516   6.513  10.321  0.9416  0.0735 -0.0998
  195MOL0     C25661   1.646   6.487  10.283 -0.3408  0.0462 -0.3987
  195MOL0     C25662   1.988   6.274  10.077 -0.7898 -0.5429  0.4872
  195MOL0     C25663   2.028   6.197   9.975  0.4368  0.5841  0.1229
  195MOL0     C25664   2.169   6.183   9.951  0.2183 -0.6675  0.7115
  195MOL0     C25665   2.262   6.234  10.040 -0.3769 -0.2654  0.2803
  195MOL0     O25666   2.398   6.215  10.038 -0.2162  0.2684 -0.3252
  195MOL0     C25667   2.455   6.164   9.918  0.0693 -0.8698  0.1096
  195MOL0     C25668   2.604   6.136   9.952 -0.5176  0.3597 -0.0468
  195MOL0     C25669   2.678   6.075   9.825 -0.2414  0.2087  0.5418
  195MOL0     C25670   2.816   6.025   9.865 -0.7193  0.5797  0.4432
  195MOL0     C25671   2.903   6.138   9.901  0.5336  0.2196 -0.6460
  195MOL0     C25672   2.991   6.218   9.943  0.4986  0.0781  0.6584
  195MOL0     C25673   2.216   6.311  10.153 -0.4972  0.2853  0.4527
  195MOL0     C25674   2.082   6.326  10.169  0.9181  0.5798 -0.7887
  195MOL0     H25675   1.680   6.156  10.278  0.5173  1.0965 -2.1761
  195MOL0     H25676   1.427   6.178  10.334 -1.7516  1.9441 -0.1474
  195MOL0     H25677   1.246   6.222  10.414  1.2759 -0.3056 -0.8332
  195MOL0     H25678   1.235   6.264  10.242 -1.7915  0.1628 -0.2763
  195MOL0     H25679   1.062   6.448  10.324 -3.8328  0.3247  1.7276
  195MOL0     H25680   1.071   6.378  10.486  2.1541 -1.1774  0.8933
  195MOL0     H25681   0.998   6.170  10.372 -0.6625 -0.3823 -1.1229
  195MOL0     H25682   0.980   6.251  10.223  1.4996 -2.0545  0.9477
  195MOL0     H25683   0.823   6.344  10.479 -1.0732  1.3845 -0.4246
  195MOL0     H25684   0.818   6.418  10.323  2.8936 -0.0440 -1.0172
  195MOL0     H25685   0.759   6.127  10.344 -0.2284 -0.4917  0.7374
  195MOL0     H25686   0.720   6.240  10.213  0.4366  1.2265 -0.2325
  195MOL0     H25687   0.582   6.370  10.371 -0.8947 -0.2866 -0.9891
  195MOL0     H25688   0.588   6.237  10.491 -2.6586 -0.3163  0.3969
  195MOL0     H25689   0.383   6.197  10.374 -1.5388 -0.2029 -2.1256
  195MOL0     H25690   0.457   6.253  10.223 -1.9437  0.0111  1.4836
  195MOL0     H25691   0.538   5.986  10.359 -0.5968 -0.1296  0.1187
  195MOL0     H25692   0.566   6.031  10.195  2.6758  4.7709  0.7617
  195MOL0     H25693   0.315   6.051  10.042 -0.3368  2.1005  0.4949
  195MOL0     H25694   0.120   5.803   9.951 -1.2850 -2.7829  2.2364
  195MOL0     H25695   0.067   5.966   9.968 -0.1715  1.1335  0.8487
  195MOL0     H25696  -0.090   5.904  10.162 -0.7159 -1.2441  1.8970
  195MOL0     H25697  -0.045   5.738  10.139 -2.0876  1.1600  0.8973
  195MOL0     H25698  -0.148   5.940   9.940 -1.0039  0.0259  0.7264
  195MOL0     H25699  -0.118   5.770   9.887  0.2501  0.7721 -0.2001
  195MOL0     H25700  -0.341   5.824   9.918 -0.3439 -0.8530  0.7136
  195MOL0     H25701  -0.319   5.875  10.085 -1.5384  0.9867 -0.0811
  195MOL0     H25702  -0.376   5.404  10.018 -0.1789  0.7056 -0.8227
  195MOL0     H25703  -0.589   5.307  10.048  0.2124  0.2819 -1.6738
  195MOL0     H25704  -0.984   5.317  10.310 -2.5746 -3.3060  3.0847
  195MOL0     H25705  -1.218   5.278  10.395 -0.6891  0.0416 -0.8502
  195MOL0     H25706  -1.468   5.635  10.426  0.6729  0.2835  1.1240
  195MOL0     H25707  -1.431   5.531  10.562 -2.0618 -1.6391  1.0434
  195MOL0     H25708  -1.636   5.402  10.530  3.1668  0.3257  0.5426
  195MOL0     H25709  -1.681   5.528  10.403 -2.9905  1.8829  1.1716
  195MOL0     H25710  -1.696   5.690  10.563 -1.1775  0.7094  1.9631
  195MOL0     H25711  -1.604   5.606  10.691  0.4173 -2.8581  0.2374
  195MOL0     H25712  -1.777   5.436  10.690 -0.5211 -0.5269 -2.5965
  195MOL0     H25713  -1.838   5.613  10.728  0.8197  1.6067 -0.6653
  195MOL0     H25714  -1.885   5.443  10.484  1.9262  1.5549  1.1886
  195MOL0     H25715  -1.948   5.612  10.485 -0.0659  0.7237 -0.1390
  195MOL0     H25716  -2.026   5.375  10.651  1.0765  0.4296 -0.0722
  195MOL0     H25717  -2.136   5.459  10.531 -1.0300  0.3234  0.5066
  195MOL0     H25718  -2.072   5.547  10.804  2.2688 -3.0430 -0.9641
  195MOL0     H25719  -2.114   5.672  10.678 -0.5832 -0.9065 -2.2109
  195MOL0     H25720  -2.308   5.606  10.803  0.4210 -0.9451  0.4701
  195MOL0     H25721  -2.291   5.435  10.740  0.2300  0.2472  1.7258
  195MOL0     H25722  -1.331   5.655  10.248  0.5507  0.9326  1.5770
  195MOL0     H25723  -1.121   5.686  10.147 -0.1652  1.6677  2.0557
  195MOL0     H25724  -0.762   5.704  10.077  2.2945  3.6705  1.6569
  195MOL0     H25725  -0.548   5.809  10.057 -0.2803 -0.8243  0.6497
  195MOL0     H25726   1.476   6.612  10.342  0.6020 -0.0798 -0.0025
  195MOL0     H25727   1.703   6.578  10.270 -2.1395  0.9636 -2.3192
  195MOL0     H25728   1.958   6.159   9.901  1.1481 -0.3819 -0.0750
  195MOL0     H25729   2.202   6.128   9.863  1.1686 -0.4111  0.8967
  195MOL0     H25730   2.438   6.227   9.830  1.4909  1.1486  1.1877
  195MOL0     H25731   2.405   6.069   9.898  2.8358 -3.0863  2.7936
  195MOL0     H25732   2.660   6.227   9.975  0.7517 -0.2672 -0.5858
  195MOL0     H25733   2.610   6.058  10.028 -3.7081 -0.8953 -0.9105
  195MOL0     H25734   2.689   6.150   9.747  2.3897 -2.2097 -1.6291
  195MOL0     H25735   2.618   5.989   9.792  1.0415 -0.6932  0.5054
  195MOL0     H25736   2.820   5.956   9.949  1.0010 -1.1110 -0.9470
  195MOL0     H25737   2.864   5.979   9.778  1.8249  0.6945  1.7187
  195MOL0     H25738   3.071   6.279   9.979 -0.6373  2.0565 -0.0028
  195MOL0     H25739   2.279   6.373  10.217  1.6711 -0.5166 -0.8078
  195MOL0     H25740   2.059   6.373  10.264 -1.0988 -1.9574  0.0759
  196MOL0     O25741   5.047   2.432   9.114 -0.6111 -1.1200 -0.9009
  196MOL0     C25742   5.089   2.392   9.008 -0.0805 -0.1830  0.6354
  196MOL0     O25743   5.030   2.298   8.927  1.0496 -0.4381 -0.7202
  196MOL0     C25744   4.900   2.268   8.964 -0.3855 -0.7942 -0.5556
  196MOL0     C25745   4.805   2.365   8.965 -0.3128 -0.6648  0.2588
  196MOL0     C25746   4.673   2.329   8.985  0.4797 -0.2468 -0.3972
  196MOL0     C25747   4.643   2.205   9.036  0.7747  0.0199  0.8854
  196MOL0     O25748   4.512   2.170   9.063 -0.1835  0.0509 -0.0076
  196MOL0     C25749   4.428   2.139   8.949  0.0590  0.1542 -0.5108
  196MOL0     C25750   4.287   2.114   8.997 -0.2765 -0.0898 -0.1959
  196MOL0     C25751   4.188   2.090   8.884  0.5098  0.1281 -0.6160
  196MOL0     C25752   4.059   2.051   8.951 -0.7316  0.8099 -0.9932
  196MOL0     C25753   3.936   2.076   8.861 -0.6773 -0.0440 -0.3326
  196MOL0     C25754   3.917   1.954   8.769 -0.5011 -0.0374  0.3312
  196MOL0     C25755   3.789   1.947   8.686 -0.4468 -0.0832  0.6056
  196MOL0     C25756   3.785   2.023   8.551  0.6533  0.0522 -0.9848
  196MOL0     N25757   3.650   2.007   8.500  0.7391  0.4188  0.4864
  196MOL0     C25758   3.611   1.902   8.430  0.4573 -0.1859 -0.2285
  196MOL0     C25759   3.474   1.916   8.423 -0.4145  0.0142  0.3704
  196MOL0     C25760   3.394   1.818   8.342  0.8598 -0.3518  0.0661
  196MOL0     C25761   3.354   1.869   8.204 -0.2723 -0.3013  0.0653
  196MOL0     C25762   3.329   1.758   8.108  0.1149 -1.0476 -0.8563
  196MOL0     C25763   3.289   1.798   7.961 -0.0222 -0.1219  0.2379
  196MOL0     O25764   3.148   1.837   7.975  0.0379  0.6307 -0.2298
  196MOL0     C25765   3.076   1.861   7.860  0.3241  0.5971  0.2004
  196MOL0     C25766   2.941   1.839   7.859 -0.1337 -0.1385  1.1928
  196MOL0     C25767   2.868   1.825   7.745  0.0714 -0.4576 -0.1284
  196MOL0     C25768   2.932   1.834   7.621  0.0830 -0.0103 -0.0149
  196MOL0     C25769   2.862   1.788   7.501  0.0175  0.1965  0.7175
  196MOL0     O25770   2.735   1.735   7.519  0.1478  0.4237  0.4086
  196MOL0     C25771   2.672   1.685   7.403 -0.2519 -0.2778 -0.8483
  196MOL0     C25772   2.646   1.546   7.404 -0.6694 -0.2459 -0.0434
  196MOL0     C25773   2.587   1.489   7.290 -0.6540  0.5385  0.5817
  196MOL0     C25774   2.552   1.561   7.173  0.2150 -0.3152 -0.3506
  196MOL0     O25775   2.485   1.518   7.072  0.2416 -0.2429  0.1423
  196MOL0     C25776   2.412   1.398   7.095  0.2715  0.5557  0.4563
  196MOL0     C25777   2.316   1.383   6.973 -0.0106 -0.3500  0.0156
  196MOL0     C25778   2.390   1.352   6.836  0.2521  0.0734  0.8590
  196MOL0     C25779   2.454   1.216   6.835 -0.2844  0.1832 -0.2537
  196MOL0     C25780   2.503   1.165   6.696  0.2218 -0.5107 -0.6229
  196MOL0     C25781   2.580   1.031   6.694  0.9273 -1.0922 -1.2496
  196MOL0     C25782   2.486   0.905   6.710  0.6728 -0.7620 -0.5529
  196MOL0     C25783   2.565   0.780   6.667 -0.0374  0.6356 -0.1546
  196MOL0    Cl25784   2.483   0.632   6.724 -0.2778 -0.5564 -0.8132
  196MOL0     C25785   2.590   1.698   7.172  0.5943 -0.6042 -0.3253
  196MOL0     C25786   2.637   1.760   7.289 -0.4993  0.7878 -0.7366
  196MOL0     O25787   2.934   1.757   7.408 -0.0418 -0.0596 -0.2116
  196MOL0     C25788   3.071   1.871   7.619 -0.2891 -0.2642 -0.2065
  196MOL0     C25789   3.138   1.884   7.733 -0.5521 -0.1597 -0.5468
  196MOL0     N25790   3.442   2.038   8.483 -0.7808 -0.0663 -0.0539
  196MOL0     N25791   3.548   2.091   8.521  0.4097  0.3187 -0.7055
  196MOL0     C25792   4.736   2.112   9.044 -0.9750  0.2136 -0.3297
  196MOL0     C25793   4.870   2.144   9.004  0.2186  0.2755 -1.6726
  196MOL0     C25794   5.216   2.444   8.969 -0.3958  0.8506 -0.7140
  196MOL0     C25795   5.290   2.521   9.059 -0.9201 -0.3624 -0.3390
  196MOL0     C25796   5.417   2.569   9.024  0.1701 -0.3587 -0.7669
  196MOL0     C25797   5.476   2.546   8.904 -0.6162 -0.6670 -0.2236
  196MOL0     O25798   5.604   2.586   8.891  0.4331 -0.4761 -0.1917
  196MOL0     C25799   5.653   2.630   8.762  1.1170 -0.1833 -0.5506
  196MOL0     C25800   5.790   2.584   8.721  0.4046  0.8053 -0.2077
  196MOL0     C25801   5.801   2.437   8.696  0.8289 -0.0215 -0.6437
  196MOL0     C25802   5.934   2.390   8.634  1.0959  0.1308  0.5371
  196MOL0     C25803   5.923   2.251   8.599  0.1937 -0.8762 -0.1074
  196MOL0     C25804   5.929   2.133   8.588  0.7496 -0.7318  0.7073
  196MOL0     C25805   5.396   2.476   8.806  0.0293 -0.1559 -0.3176
  196MOL0     C25806   5.276   2.430   8.845  0.5580 -0.4998  0.1164
  196MOL0     H25807   4.820   2.464   8.924  0.6372 -0.5430  0.8830
  196MOL0     H25808   4.591   2.398   8.964  0.7664  1.4806  3.3753
  196MOL0     H25809   4.467   2.067   8.878  1.5666 -0.9643  1.3500
  196MOL0     H25810   4.429   2.237   8.900  2.4593  1.7451  2.3819
  196MOL0     H25811   4.250   2.193   9.064 -0.1450  0.4917 -0.7987
  196MOL0     H25812   4.302   2.025   9.058  0.8867  0.8003  0.8865
  196MOL0     H25813   4.226   2.011   8.819 -2.1053 -0.7678 -1.1450
  196MOL0     H25814   4.173   2.183   8.828  0.2546  0.2593 -0.3308
  196MOL0     H25815   4.052   1.949   8.989 -0.8032  1.3728  0.5569
  196MOL0     H25816   4.045   2.118   9.036 -0.6330  1.2591 -1.3208
  196MOL0     H25817   3.950   2.169   8.805 -0.5908 -1.1888 -2.2905
  196MOL0     H25818   3.855   2.111   8.925 -1.4469 -2.0219 -0.1482
  196MOL0     H25819   3.908   1.870   8.837 -0.2254  0.5616  1.1192
  196MOL0     H25820   4.001   1.932   8.703 -1.8629  0.8427 -1.8208
  196MOL0     H25821   3.765   1.843   8.660 -0.6016  0.0446  0.2339
  196MOL0     H25822   3.712   1.993   8.748  1.6276  3.8849  0.5764
  196MOL0     H25823   3.863   1.989   8.482 -0.1972 -1.6701 -1.1607
  196MOL0     H25824   3.809   2.122   8.588  3.1743 -1.5984  2.2960
  196MOL0     H25825   3.672   1.818   8.400 -0.7719 -0.5861 -1.7747
  196MOL0     H25826   3.303   1.794   8.398  1.7977 -1.6077  1.1069
  196MOL0     H25827   3.451   1.725   8.337  1.7379  0.1713  0.0971
  196MOL0     H25828   3.435   1.937   8.174 -0.4010 -1.0074 -2.0988
  196MOL0     H25829   3.260   1.922   8.218 -0.9161 -0.8385 -1.8655
  196MOL0     H25830   3.418   1.696   8.105 -0.7257 -2.5636  2.0274
  196MOL0     H25831   3.245   1.705   8.153 -0.6930  0.2310 -0.7955
  196MOL0     H25832   3.298   1.720   7.885 -0.1991  0.6114 -0.5478
  196MOL0     H25833   3.355   1.878   7.927  0.8809 -1.0454 -0.2459
  196MOL0     H25834   2.885   1.829   7.951 -3.8898  2.3494 -0.5756
  196MOL0     H25835   2.761   1.803   7.749  0.1759 -0.9782 -0.0908
  196MOL0     H25836   2.681   1.488   7.489  2.8366  0.5139 -0.8309
  196MOL0     H25837   2.566   1.384   7.306  3.1653 -0.1404  2.1148
  196MOL0     H25838   2.350   1.407   7.184 -1.1175 -2.2737 -0.0974
  196MOL0     H25839   2.472   1.307   7.093 -0.3593  0.1433 -0.0191
  196MOL0     H25840   2.270   1.482   6.966 -1.6804 -1.1524 -0.8789
  196MOL0     H25841   2.245   1.310   7.011  0.5929 -1.5639 -1.1333
  196MOL0     H25842   2.464   1.430   6.819 -0.5946  0.8726  0.7619
  196MOL0     H25843   2.325   1.355   6.748  2.2989  0.0260 -0.7263
  196MOL0     H25844   2.549   1.215   6.889 -0.5298  0.6552  0.2019
  196MOL0     H25845   2.385   1.144   6.881  0.1035  0.4533  0.7769
  196MOL0     H25846   2.571   1.240   6.656  0.0396 -0.1621 -0.2869
  196MOL0     H25847   2.420   1.150   6.626  0.4032 -4.5569 -0.2250
  196MOL0     H25848   2.651   1.048   6.775 -1.3012  2.4192  0.1847
  196MOL0     H25849   2.636   1.014   6.601  2.7770  1.0774 -0.6232
  196MOL0     H25850   2.460   0.898   6.816 -0.6346  0.6893 -0.7388
  196MOL0     H25851   2.393   0.915   6.652 -0.0281 -0.8392  0.5437
  196MOL0     H25852   2.662   0.785   6.716 -0.6826  3.3143  1.0185
  196MOL0     H25853   2.582   0.777   6.559 -0.2057 -1.1198 -0.1709
  196MOL0     H25854   2.561   1.765   7.092 -0.5925 -0.0854  0.4984
  196MOL0     H25855   2.654   1.867   7.285  0.8013  0.5726 -2.2343
  196MOL0     H25856   3.125   1.868   7.525  0.9460 -0.5692  0.5009
  196MOL0     H25857   3.245   1.902   7.737 -0.8146  1.4584  0.5182
  196MOL0     H25858   4.712   2.013   9.082 -0.5927  0.0607 -0.4863
  196MOL0     H25859   4.947   2.068   8.994  0.3301  0.0247  0.5406
  196MOL0     H25860   5.245   2.521   9.158 -0.4995 -3.7216 -0.0234
  196MOL0     H25861   5.479   2.621   9.096  1.8088  0.5606 -2.7314
  196MOL0     H25862   5.653   2.739   8.755  4.9786  0.1166  1.6127
  196MOL0     H25863   5.583   2.590   8.688  0.1951 -1.2516  0.8278
  196MOL0     H25864   5.807   2.626   8.621 -2.1307 -0.9527 -1.4952
  196MOL0     H25865   5.871   2.613   8.789  1.1960  0.3110 -0.9186
  196MOL0     H25866   5.718   2.408   8.631  0.8618  2.3077 -1.8391
  196MOL0     H25867   5.790   2.389   8.793  1.1786  0.4031 -0.3872
  196MOL0     H25868   5.962   2.443   8.542  0.7513 -1.4020 -0.4942
  196MOL0     H25869   6.016   2.390   8.706  1.9873  0.9187 -0.4324
  196MOL0     H25870   5.939   2.027   8.569  0.6723 -0.1093 -4.1712
  196MOL0     H25871   5.428   2.451   8.706 -0.1771 -0.7700 -0.2292
  196MOL0     H25872   5.228   2.371   8.768  0.5370 -0.5107  0.1383
  197MOL0     O25873  10.649   8.711   6.834 -0.0810  0.2004  0.1089
  197MOL0     C25874  10.661   8.603   6.889 -0.1104  0.1974  0.4021
  197MOL0     O25875  10.566   8.501   6.887 -0.1142  0.0121  0.2851
  197MOL0     C25876  10.453   8.526   6.808 -1.0020  0.3763 -0.4684
  197MOL0     C25877  10.332   8.486   6.854  0.7338 -0.1152 -0.8229
  197MOL0     C25878  10.209   8.500   6.778 -0.1266  0.5519 -0.4213
  197MOL0     C25879  10.210   8.552   6.648 -0.3779  0.4230 -0.0502
  197MOL0     O25880  10.093   8.548   6.581 -0.1281 -0.7643  0.5843
  197MOL0     C25881  10.062   8.642   6.476  0.2938  0.0807  0.3437
  197MOL0     C25882  10.008   8.784   6.522  0.5839 -0.2899 -0.3398
  197MOL0     C25883   9.896   8.836   6.429  0.3953  0.0641 -0.3882
  197MOL0     C25884   9.844   8.973   6.478  0.1160  0.1095 -0.6606
  197MOL0     C25885   9.710   9.014   6.401  0.0259  0.3852 -0.3202
  197MOL0     C25886   9.593   8.926   6.457  0.0585  0.6776  0.2095
  197MOL0     C25887   9.450   8.976   6.437  0.6894  0.2140 -0.1790
  197MOL0     C25888   9.405   8.926   6.301 -0.6539  0.2958  0.6164
  197MOL0     N25889   9.274   8.981   6.271  0.1553 -0.5093 -0.1823
  197MOL0     C25890   9.153   8.929   6.300 -0.0410 -0.2359 -0.6753
  197MOL0     C25891   9.059   9.021   6.277 -0.0941 -0.1626 -0.8137
  197MOL0     C25892   8.919   9.016   6.312 -1.0002 -0.0552  0.0441
  197MOL0     C25893   8.810   9.021   6.204  0.0768 -0.3278 -0.2911
  197MOL0     C25894   8.802   8.889   6.133 -0.3986 -0.6566 -0.3518
  197MOL0     C25895   8.694   8.896   6.022 -0.2464 -1.1188  0.4006
  197MOL0     O25896   8.565   8.901   6.096  0.5265 -0.6148 -0.2166
  197MOL0     C25897   8.463   8.838   6.036  1.1942  0.3452 -0.6994
  197MOL0     C25898   8.452   8.823   5.899  0.3904  0.3242 -0.0849
  197MOL0     C25899   8.348   8.752   5.839  0.7596 -0.7209  0.0917
  197MOL0     C25900   8.242   8.706   5.919 -1.2529 -0.3908 -0.7162
  197MOL0     C25901   8.134   8.629   5.865 -0.1919  0.1120 -0.0737
  197MOL0     O25902   8.168   8.557   5.761  0.1191  0.4555  0.7954
  197MOL0     C25903   8.081   8.472   5.694  0.6042 -0.1393 -0.5266
  197MOL0     C25904   8.114   8.442   5.571  0.2803  0.1030  0.7132
  197MOL0     C25905   8.042   8.358   5.487 -0.0721 -0.5366 -0.7887
  197MOL0     C25906   7.939   8.285   5.542  1.4157 -0.3241  0.1741
  197MOL0     O25907   7.877   8.191   5.464  0.5507 -0.4028 -0.3654
  197MOL0     C25908   7.735   8.182   5.451  0.0010 -0.5419  0.1229
  197MOL0     C25909   7.694   8.034   5.459  0.5837  0.1947 -0.1472
  197MOL0     C25910   7.738   7.939   5.347  0.0322 -0.2328  0.2192
  197MOL0     C25911   7.680   7.956   5.205 -0.5767 -0.0485  0.1707
  197MOL0     C25912   7.526   7.925   5.211 -0.0093  0.7697 -0.1612
  197MOL0     C25913   7.473   7.867   5.076  0.5118  0.0077 -0.2157
  197MOL0     C25914   7.314   7.875   5.079 -0.1944 -0.0589 -0.4912
  197MOL0     C25915   7.247   7.766   5.166  1.0271  0.6114  0.9250
  197MOL0    Cl25916   7.274   7.599   5.089 -0.0664  0.2051  0.2563
  197MOL0     C25917   7.909   8.303   5.678  0.7559 -0.1328 -0.4668
  197MOL0     C25918   7.982   8.393   5.759  0.0686  0.2694  0.2013
  197MOL0     O25919   8.032   8.622   5.935 -0.4936 -0.1950 -0.0770
  197MOL0     C25920   8.245   8.729   6.059  0.1602 -0.6318  0.6555
  197MOL0     C25921   8.354   8.796   6.119 -0.1208  0.0261  0.7907
  197MOL0     N25922   9.123   9.139   6.233  0.1405 -0.1563 -0.3441
  197MOL0     N25923   9.249   9.114   6.237  0.0701  0.4700  0.7992
  197MOL0     C25924  10.337   8.589   6.598  0.3262 -0.0854  0.4189
  197MOL0     C25925  10.458   8.568   6.672 -0.1146  0.1900  0.3127
  197MOL0     C25926  10.792   8.568   6.960  0.3333  0.8519 -0.8110
  197MOL0     C25927  10.802   8.446   7.044 -0.1373 -0.3353 -0.4843
  197MOL0     C25928  10.912   8.431   7.124 -0.7218  0.2618 -0.7576
  197MOL0     C25929  11.026   8.522   7.112  0.8832  0.1004  0.0655
  197MOL0     O25930  11.135   8.495   7.185 -0.5088  0.4430 -0.2394
  197MOL0     C25931  11.256   8.559   7.161 -0.3246  0.0780  0.3334
  197MOL0     C25932  11.368   8.480   7.225  0.0707 -0.2714  0.2526
  197MOL0     C25933  11.497   8.548   7.233  0.5963 -0.1343  0.2021
  197MOL0     C25934  11.596   8.450   7.319 -0.0174  0.0797  0.2813
  197MOL0     C25935  11.729   8.512   7.316 -0.1900  0.1453 -0.1883
  197MOL0     C25936  11.827   8.584   7.305  0.2631 -0.2657  0.1928
  197MOL0     C25937  11.013   8.635   7.028 -0.5096  0.2826 -0.5567
  197MOL0     C25938  10.899   8.656   6.956 -0.4376 -0.0173  0.0794
  197MOL0     H25939  10.317   8.445   6.954 -0.9905 -2.1150 -1.8221
  197MOL0     H25940  10.119   8.465   6.829  0.6005 -1.2270 -0.2825
  197MOL0     H25941   9.977   8.597   6.424  2.6420  0.2294 -4.0761
  197MOL0     H25942  10.138   8.651   6.398 -1.6833 -1.3576 -1.8761
  197MOL0     H25943  10.093   8.853   6.531  1.4502 -1.3469 -0.1915
  197MOL0     H25944   9.969   8.773   6.623 -0.0491  1.1399 -0.4140
  197MOL0     H25945   9.815   8.763   6.428 -0.1567  0.6762 -0.6712
  197MOL0     H25946   9.933   8.839   6.326 -2.3196 -0.0162 -1.4302
  197MOL0     H25947   9.840   8.976   6.587  1.9562 -3.0270 -0.3879
  197MOL0     H25948   9.922   9.041   6.444  0.0901  0.4161 -0.1122
  197MOL0     H25949   9.732   8.996   6.295  2.6819  0.7501  0.0874
  197MOL0     H25950   9.692   9.118   6.428 -0.9919 -0.2344  1.6189
  197MOL0     H25951   9.609   8.909   6.563 -0.6538  0.3682  0.2759
  197MOL0     H25952   9.604   8.831   6.403  0.0684  0.2623  0.9305
  197MOL0     H25953   9.378   8.943   6.512 -1.1038  1.9576 -1.0413
  197MOL0     H25954   9.451   9.085   6.433 -0.4595  0.2034 -2.1292
  197MOL0     H25955   9.391   8.818   6.290 -0.9752  0.1587  2.0495
  197MOL0     H25956   9.477   8.966   6.229 -1.2034  1.9635  0.9412
  197MOL0     H25957   9.149   8.837   6.358  1.1057 -0.2157 -0.5519
  197MOL0     H25958   8.909   9.096   6.386  2.5562  2.7832 -2.2011
  197MOL0     H25959   8.904   8.920   6.362 -0.7123 -0.4858 -0.6802
  197MOL0     H25960   8.832   9.100   6.132  2.7480 -0.1905  0.5731
  197MOL0     H25961   8.715   9.044   6.252  0.1731 -0.6738  0.0710
  197MOL0     H25962   8.899   8.854   6.096  0.0987 -3.0656  2.7687
  197MOL0     H25963   8.767   8.810   6.199 -2.1888  0.4071  0.0432
  197MOL0     H25964   8.692   8.819   5.944 -0.7057  0.3199 -1.0724
  197MOL0     H25965   8.721   8.982   5.960  0.7149 -2.3568 -0.9793
  197MOL0     H25966   8.533   8.871   5.846  0.9957  1.3520  1.6959
  197MOL0     H25967   8.340   8.742   5.731 -1.9581  1.2246  0.0212
  197MOL0     H25968   8.195   8.496   5.524 -1.0151 -0.9308 -3.0842
  197MOL0     H25969   8.079   8.342   5.386 -1.9458 -2.4630 -1.2694
  197MOL0     H25970   7.709   8.217   5.350  2.6334  0.2842 -0.3593
  197MOL0     H25971   7.702   8.254   5.527  3.4180  0.6115  0.7071
  197MOL0     H25972   7.585   8.037   5.463  0.6169  0.6299  0.7573
  197MOL0     H25973   7.731   7.997   5.555 -1.7379 -3.5103 -0.4561
  197MOL0     H25974   7.726   7.835   5.377 -1.7685 -0.3924 -0.8912
  197MOL0     H25975   7.847   7.946   5.341  0.2550 -3.2169 -1.6197
  197MOL0     H25976   7.684   8.049   5.149 -2.7988 -0.5310 -0.9247
  197MOL0     H25977   7.726   7.880   5.140  1.3168  0.6042  0.6895
  197MOL0     H25978   7.466   8.006   5.254 -1.4533 -0.3432 -0.0033
  197MOL0     H25979   7.514   7.846   5.285  2.7493  1.4659  1.1975
  197MOL0     H25980   7.512   7.769   5.046 -0.3272 -0.1892 -0.7046
  197MOL0     H25981   7.516   7.935   5.002  4.7056 -1.4609  0.6439
  197MOL0     H25982   7.291   7.977   5.112  0.1194 -0.1115 -0.0982
  197MOL0     H25983   7.277   7.871   4.976  1.7371 -0.0456 -1.2291
  197MOL0     H25984   7.140   7.779   5.147  1.0413 -1.9607 -1.5221
  197MOL0     H25985   7.287   7.763   5.268 -0.8915 -2.6990  1.7369
  197MOL0     H25986   7.814   8.262   5.711  1.8650 -2.3625  0.1302
  197MOL0     H25987   7.933   8.421   5.852 -2.0546 -0.7097 -0.5297
  197MOL0     H25988   8.167   8.697   6.127 -0.7840 -0.4087 -0.2862
  197MOL0     H25989   8.353   8.808   6.227 -0.3147 -1.6524  1.0134
  197MOL0     H25990  10.349   8.625   6.496 -3.3816  2.8481  0.8121
  197MOL0     H25991  10.553   8.582   6.622 -0.4251 -2.7933 -1.3294
  197MOL0     H25992  10.713   8.384   7.054 -0.0135 -0.4610 -0.1808
  197MOL0     H25993  10.927   8.340   7.181  0.3009  0.1648 -1.1620
  197MOL0     H25994  11.250   8.658   7.208  0.3614 -0.7428  2.2389
  197MOL0     H25995  11.277   8.576   7.055 -1.9439 -1.9747 -0.3731
  197MOL0     H25996  11.335   8.451   7.325  2.3491 -2.4697  0.4832
  197MOL0     H25997  11.365   8.381   7.179 -0.8644  0.1551 -0.6419
  197MOL0     H25998  11.486   8.631   7.304  1.4861  0.7963 -0.7160
  197MOL0     H25999  11.531   8.590   7.138  1.4899  0.9935  0.9933
  197MOL0     H26000  11.561   8.444   7.422  1.0826  4.1818  1.0451
  197MOL0     H26001  11.591   8.357   7.261 -1.9864  0.5980 -0.4620
  197MOL0     H26002  11.906   8.649   7.275 -2.8093  2.6774 -2.3001
  197MOL0     H26003  11.096   8.701   7.003  0.6747 -1.5250 -1.6695
  197MOL0     H26004  10.876   8.735   6.885 -2.6432 -0.0570  0.6572
  198MOL0     O26005   3.228   7.900  10.729  0.4261  0.1278 -0.4095
  198MOL0     C26006   3.177   8.000  10.771  0.0300 -0.8997  0.0594
  198MOL0     O26007   3.051   8.016  10.796 -0.6186  0.1032 -0.2297
  198MOL0     C26008   2.968   7.913  10.775  0.0465  0.6417  0.4319
  198MOL0     C26009   2.961   7.811  10.872  0.5918  0.6737  0.7075
  198MOL0     C26010   2.891   7.691  10.832 -0.1812  0.0063 -0.1456
  198MOL0     C26011   2.822   7.680  10.708 -0.4178 -1.1240  0.4258
  198MOL0     O26012   2.764   7.566  10.684 -0.2600  0.4539  0.0617
  198MOL0     C26013   2.637   7.579  10.619  1.1331 -0.2553  0.4040
  198MOL0     C26014   2.517   7.661  10.694 -0.2117 -0.2663 -0.0776
  198MOL0     C26015   2.481   7.583  10.821  0.0766  0.2753 -0.3277
  198MOL0     C26016   2.397   7.668  10.914 -0.8662  0.4794 -0.6015
  198MOL0     C26017   2.255   7.706  10.872  0.3546  0.4872  0.5713
  198MOL0     C26018   2.183   7.750  11.004  0.0853 -0.1913  0.0992
  198MOL0     C26019   2.032   7.765  10.971 -0.0813  0.2821  0.1340
  198MOL0     C26020   1.953   7.793  11.095  0.0575  0.1151 -0.0771
  198MOL0     N26021   1.809   7.775  11.083  0.1869 -0.3180  0.0539
  198MOL0     C26022   1.739   7.801  10.967  0.1664  0.1895  0.8736
  198MOL0     C26023   1.612   7.777  11.000  0.8871  0.4773  0.2123
  198MOL0     C26024   1.498   7.786  10.894 -0.6372  0.5732  0.5190
  198MOL0     C26025   1.426   7.901  10.932  0.3067  0.0399  0.0320
  198MOL0     C26026   1.337   7.972  10.832  0.5516  0.0016  0.1822
  198MOL0     C26027   1.200   7.890  10.820 -1.3244  0.7269 -0.1353
  198MOL0     O26028   1.115   7.972  10.741  0.1032  0.2845  0.5169
  198MOL0     C26029   0.996   7.915  10.709 -0.5411  0.2877 -1.1239
  198MOL0     C26030   0.898   8.013  10.699 -0.3467  0.7060  0.0503
  198MOL0     C26031   0.764   7.970  10.678  0.9820  0.2159  0.4736
  198MOL0     C26032   0.730   7.835  10.679 -0.3631 -0.7106 -0.6252
  198MOL0     C26033   0.585   7.801  10.658  0.1352  0.3757 -0.4983
  198MOL0     O26034   0.492   7.899  10.628 -0.2433 -0.3998 -0.0645
  198MOL0     C26035   0.360   7.862  10.624  0.2219 -0.1930 -0.6107
  198MOL0     C26036   0.316   7.836  10.495  0.7226  0.0222  0.0152
  198MOL0     C26037   0.175   7.816  10.493 -0.1759  0.5435  0.0549
  198MOL0     C26038   0.080   7.820  10.598 -0.2072  0.1844 -0.1821
  198MOL0     O26039  -0.045   7.788  10.573  0.8260 -0.5140 -0.4027
  198MOL0     C26040  -0.108   7.717  10.675  0.6250 -0.3597  0.2084
  198MOL0     C26041  -0.229   7.650  10.609  0.2431  0.3075 -0.3716
  198MOL0     C26042  -0.332   7.603  10.712  0.0063  0.0060 -0.3257
  198MOL0     C26043  -0.424   7.485  10.670  0.1290 -0.3270  0.6662
  198MOL0     C26044  -0.483   7.431  10.795 -0.4955 -0.4611  0.6403
  198MOL0     C26045  -0.602   7.336  10.766  0.3728 -0.4968 -0.0488
  198MOL0     C26046  -0.543   7.205  10.696  0.0320 -0.3969 -0.0663
  198MOL0     C26047  -0.650   7.099  10.683 -0.1926  0.0040  0.0454
  198MOL0    Cl26048  -0.578   6.962  10.599  0.5495  0.0801  0.7975
  198MOL0     C26049   0.132   7.871  10.715  0.0923  0.3424  0.2508
  198MOL0     C26050   0.266   7.893  10.719 -0.8800  0.4434 -0.7003
  198MOL0     O26051   0.560   7.686  10.697  0.5199 -0.4225  0.3455
  198MOL0     C26052   0.832   7.736  10.690  0.4640  0.1805  0.1715
  198MOL0     C26053   0.962   7.783  10.709 -1.0277  0.1703  0.0614
  198MOL0     N26054   1.597   7.737  11.129 -0.8426  0.0485 -0.0047
  198MOL0     N26055   1.718   7.724  11.178  0.0015 -0.1260 -0.3468
  198MOL0     C26056   2.824   7.793  10.624  0.1456  0.3349  0.0539
  198MOL0     C26057   2.896   7.906  10.656 -0.9321 -0.5710 -0.6953
  198MOL0     C26058   3.263   8.115  10.806  0.2437  0.4918 -0.4895
  198MOL0     C26059   3.402   8.132  10.750  0.0096  1.3501  0.2591
  198MOL0     C26060   3.475   8.241  10.800 -0.1700 -0.6071 -0.2652
  198MOL0     C26061   3.414   8.345  10.879 -0.9920  0.1316 -1.1003
  198MOL0     O26062   3.480   8.458  10.918  0.0359  0.3718 -0.2927
  198MOL0     C26063   3.576   8.432  11.022  1.0800 -0.3210  0.0129
  198MOL0     C26064   3.520   8.436  11.163 -0.7038 -0.2629 -0.4218
  198MOL0     C26065   3.430   8.555  11.196 -0.2382 -0.0790  0.1969
  198MOL0     C26066   3.453   8.615  11.342 -0.7723 -0.4511 -0.1161
  198MOL0     C26067   3.598   8.640  11.365 -0.7825  0.7655 -1.1308
  198MOL0     C26068   3.714   8.665  11.396 -0.9611 -0.1710  0.1476
  198MOL0     C26069   3.284   8.327  10.917  0.5655 -0.1885 -0.4947
  198MOL0     C26070   3.210   8.217  10.882  0.0504 -0.7371 -0.5280
  198MOL0     H26071   3.036   7.825  10.950  0.7324  2.3821  0.3004
  198MOL0     H26072   2.911   7.604  10.894  0.7325  0.7362  0.6124
  198MOL0     H26073   2.589   7.481  10.608 -0.6795  0.5315  0.8273
  198MOL0     H26074   2.649   7.620  10.518  0.1566 -1.4190 -0.2201
  198MOL0     H26075   2.428   7.670  10.631  0.2090 -2.0552 -0.9973
  198MOL0     H26076   2.559   7.757  10.726  0.7461 -1.2296  1.6949
  198MOL0     H26077   2.574   7.558  10.872 -1.2726 -1.2971  1.5038
  198MOL0     H26078   2.433   7.487  10.799  1.1283  0.0052 -1.5587
  198MOL0     H26079   2.387   7.601  11.000 -1.4413  0.5103 -0.6392
  198MOL0     H26080   2.456   7.758  10.931  0.8138 -0.2307 -2.3726
  198MOL0     H26081   2.215   7.617  10.823  2.2174 -0.7240  1.1053
  198MOL0     H26082   2.264   7.792  10.805 -1.0743  0.3436  0.1614
  198MOL0     H26083   2.232   7.841  11.037  0.2529 -0.5601  0.8974
  198MOL0     H26084   2.191   7.675  11.083 -2.5968  0.0725  0.7194
  198MOL0     H26085   2.022   7.847  10.899 -2.9000 -0.6619 -0.6632
  198MOL0     H26086   2.001   7.668  10.931 -2.0409  1.2970 -0.9595
  198MOL0     H26087   1.974   7.897  11.121 -2.2959  0.2002  1.8722
  198MOL0     H26088   1.989   7.728  11.175  1.2844 -0.9430 -1.4218
  198MOL0     H26089   1.768   7.840  10.870  0.2255  0.9576  1.1852
  198MOL0     H26090   1.432   7.698  10.896 -1.3111  1.0650  2.5171
  198MOL0     H26091   1.546   7.793  10.796 -0.5891 -0.4066  0.4642
  198MOL0     H26092   1.496   7.983  10.951 -1.5218  1.3548  1.4690
  198MOL0     H26093   1.372   7.889  11.026  0.2107  0.8989  0.0886
  198MOL0     H26094   1.305   8.069  10.874 -2.5321 -0.8452  0.0380
  198MOL0     H26095   1.390   7.980  10.737 -0.4045  1.4063 -0.2785
  198MOL0     H26096   1.169   7.860  10.921  1.0674 -3.6954 -0.4750
  198MOL0     H26097   1.213   7.792  10.774 -2.2265 -0.1085  1.3125
  198MOL0     H26098   0.928   8.116  10.714  2.1427  0.1164 -0.4703
  198MOL0     H26099   0.703   8.060  10.687  2.4869  1.8877 -3.7084
  198MOL0     H26100   0.355   7.800  10.401 -1.0502 -3.6605  0.5359
  198MOL0     H26101   0.129   7.801  10.396  0.6404  2.2120 -0.6239
  198MOL0     H26102  -0.142   7.786  10.752  0.8112 -0.8449  0.7358
  198MOL0     H26103  -0.046   7.643  10.727 -0.9708 -0.2437  2.4039
  198MOL0     H26104  -0.196   7.558  10.559  0.5711  0.0576  0.2901
  198MOL0     H26105  -0.291   7.711  10.543 -1.3664  0.6504  1.3844
  198MOL0     H26106  -0.399   7.681  10.751  0.3161 -0.2602  0.7862
  198MOL0     H26107  -0.279   7.576  10.804  1.3784  0.5670 -0.9232
  198MOL0     H26108  -0.499   7.522  10.600 -2.8333 -2.8300  2.2637
  198MOL0     H26109  -0.372   7.411  10.608  1.7189  3.7931 -3.5076
  198MOL0     H26110  -0.521   7.516  10.852 -0.2983 -0.3402  0.5894
  198MOL0     H26111  -0.405   7.377  10.850  0.5942  0.2801 -0.1350
  198MOL0     H26112  -0.681   7.389  10.712 -0.7224 -1.1105  0.9088
  198MOL0     H26113  -0.639   7.302  10.863  0.7952 -0.2911  0.1830
  198MOL0     H26114  -0.504   7.228  10.596 -0.1608  4.0836  0.6530
  198MOL0     H26115  -0.468   7.159  10.760 -0.0636 -0.5267 -0.0488
  198MOL0     H26116  -0.729   7.138  10.618 -1.7254 -1.8300  0.7306
  198MOL0     H26117  -0.693   7.074  10.780 -2.9527  1.8663 -0.5853
  198MOL0     H26118   0.066   7.893  10.798 -0.7650 -1.4899  0.1003
  198MOL0     H26119   0.297   7.928  10.817 -0.4357 -0.6285 -0.4435
  198MOL0     H26120   0.806   7.631  10.703 -1.1819  0.0112 -3.4476
  198MOL0     H26121   1.031   7.703  10.735 -1.0785  0.0479 -0.1775
  198MOL0     H26122   2.785   7.794  10.522 -2.2542  2.2773  0.8712
  198MOL0     H26123   2.902   7.996  10.596  2.0294 -1.1633 -1.4358
  198MOL0     H26124   3.455   8.052  10.700 -0.7793  1.2799 -0.4693
  198MOL0     H26125   3.578   8.247  10.768  0.4311 -1.4550  1.3777
  198MOL0     H26126   3.646   8.515  11.019 -2.2897  2.7726 -0.3614
  198MOL0     H26127   3.629   8.337  11.009 -1.5291 -1.5477 -3.4059
  198MOL0     H26128   3.457   8.347  11.169 -0.8688 -0.1852 -0.9230
  198MOL0     H26129   3.603   8.428  11.233  1.5581  0.9004 -2.7981
  198MOL0     H26130   3.324   8.535  11.179 -0.0612 -1.3483  0.4981
  198MOL0     H26131   3.450   8.633  11.122 -0.5604 -0.6610 -0.5220
  198MOL0     H26132   3.404   8.712  11.351 -1.2404 -0.7198  0.2895
  198MOL0     H26133   3.404   8.540  11.405 -0.3878 -1.3855 -0.8982
  198MOL0     H26134   3.811   8.689  11.435 -1.1533  3.1788 -1.0644
  198MOL0     H26135   3.231   8.410  10.963 -0.0036 -0.5094 -0.5619
  198MOL0     H26136   3.105   8.213  10.912 -0.6957  3.6285 -1.8498
  199MOL0     O26137   8.830   9.113   7.992  0.5157  0.3811  0.0415
  199MOL0     C26138   8.854   9.058   8.105  0.4435 -0.4573  0.2484
  199MOL0     O26139   8.777   8.988   8.180  0.1489 -0.0891  0.2138
  199MOL0     C26140   8.641   8.970   8.163  0.4606 -0.7484  0.3908
  199MOL0     C26141   8.554   9.067   8.107 -0.7810 -0.0624  0.3171
  199MOL0     C26142   8.420   9.054   8.103  0.7810  0.9909 -0.1687
  199MOL0     C26143   8.362   8.936   8.152  0.1350 -0.6172 -0.3537
  199MOL0     O26144   8.227   8.929   8.133  0.6598  0.4559 -0.0657
  199MOL0     C26145   8.154   8.805   8.171 -0.4862 -0.2478 -0.0036
  199MOL0     C26146   8.001   8.810   8.124 -0.2429  0.3656 -0.0073
  199MOL0     C26147   7.926   8.699   8.194  0.5025  1.1548 -0.1010
  199MOL0     C26148   7.803   8.657   8.111  0.2412  0.5520  0.5930
  199MOL0     C26149   7.690   8.765   8.118 -0.5627  0.2501  0.3131
  199MOL0     C26150   7.559   8.687   8.096  0.3181  0.2620 -1.0895
  199MOL0     C26151   7.437   8.783   8.115 -0.2482  0.0964 -0.1131
  199MOL0     C26152   7.313   8.702   8.102  0.1961  0.3966 -0.3232
  199MOL0     N26153   7.187   8.770   8.136 -0.4651 -0.8916 -0.9116
  199MOL0     C26154   7.111   8.845   8.050 -0.2193 -0.7024 -0.7659
  199MOL0     C26155   7.030   8.906   8.131  1.0497 -1.0388 -0.4213
  199MOL0     C26156   6.915   8.988   8.088 -0.2069  0.4698  0.1283
  199MOL0     C26157   6.786   8.912   8.120 -1.1256 -0.1566  0.6224
  199MOL0     C26158   6.655   8.987   8.097  1.2738 -0.1659 -0.3452
  199MOL0     C26159   6.633   9.107   8.188  0.0552  0.8721  0.9634
  199MOL0     O26160   6.524   9.176   8.117 -0.0989  0.6451  0.3533
  199MOL0     C26161   6.398   9.178   8.172 -0.3036  0.0230 -0.2184
  199MOL0     C26162   6.348   9.084   8.255 -0.2030  0.3496  0.7227
  199MOL0     C26163   6.227   9.088   8.311  0.3148  0.0937  0.0376
  199MOL0     C26164   6.138   9.196   8.276 -0.3766 -0.1387  0.3412
  199MOL0     C26165   6.007   9.216   8.346  0.5265  0.3133 -0.1226
  199MOL0     O26166   5.935   9.330   8.309 -0.4188  0.3420  0.2440
  199MOL0     C26167   5.809   9.356   8.366  0.0091  0.0900  0.0693
  199MOL0     C26168   5.798   9.459   8.455  0.5409 -0.0525  0.6159
  199MOL0     C26169   5.670   9.485   8.511 -0.4379  0.2286  0.3399
  199MOL0     C26170   5.556   9.405   8.479 -0.3458 -0.1749  0.3457
  199MOL0     O26171   5.431   9.441   8.514 -0.2854 -0.7115  0.0080
  199MOL0     C26172   5.407   9.543   8.616 -0.9478 -0.4923 -0.1770
  199MOL0     C26173   5.267   9.541   8.669  0.2734 -0.5271  0.5597
  199MOL0     C26174   5.240   9.413   8.752  0.7421  0.2799 -0.7758
  199MOL0     C26175   5.091   9.376   8.768  0.0620 -0.0667 -0.0340
  199MOL0     C26176   5.016   9.461   8.874 -0.5521  0.3448  0.4883
  199MOL0     C26177   4.868   9.501   8.829  0.1213 -0.1372 -0.2871
  199MOL0     C26178   4.791   9.555   8.952 -0.6108  0.0452 -0.1407
  199MOL0     C26179   4.844   9.684   9.006 -0.3488  0.0143  0.5454
  199MOL0    Cl26180   4.862   9.812   8.889 -0.1335 -0.1053 -0.3843
  199MOL0     C26181   5.573   9.301   8.382  0.3809  0.4371  0.9828
  199MOL0     C26182   5.697   9.284   8.326  0.0603 -1.0946 -0.9053
  199MOL0     O26183   5.969   9.126   8.416 -0.2198 -0.7118 -0.3784
  199MOL0     C26184   6.186   9.286   8.174 -0.6917  0.0706 -0.4647
  199MOL0     C26185   6.311   9.273   8.118 -0.4510 -0.4711  0.1690
  199MOL0     N26186   7.061   8.869   8.263  0.3635 -0.4657  0.6094
  199MOL0     N26187   7.161   8.790   8.270 -0.2429  0.1184  0.7454
  199MOL0     C26188   8.442   8.835   8.212  0.1012  0.4234  0.0956
  199MOL0     C26189   8.581   8.856   8.222  0.1459  1.2077 -0.9190
  199MOL0     C26190   8.991   9.071   8.149 -0.6730  0.3506  0.0262
  199MOL0     C26191   9.093   9.126   8.071 -0.3335  0.2116 -0.3399
  199MOL0     C26192   9.227   9.127   8.115 -0.4933  0.0055 -0.3503
  199MOL0     C26193   9.255   9.102   8.253  0.2576  0.5150 -0.1359
  199MOL0     O26194   9.367   9.120   8.330  0.1774 -0.2745  0.9637
  199MOL0     C26195   9.474   9.201   8.277  0.5644 -0.7035 -0.2902
  199MOL0     C26196   9.573   9.241   8.392  0.2588 -0.7306  0.4433
  199MOL0     C26197   9.698   9.303   8.330 -0.1479 -0.1587 -0.0417
  199MOL0     C26198   9.785   9.374   8.443 -0.0909  0.1806  0.4477
  199MOL0     C26199   9.854   9.486   8.379  0.0494  0.2637  0.5247
  199MOL0     C26200   9.918   9.564   8.326 -0.3673  0.6726 -0.1752
  199MOL0     C26201   9.146   9.059   8.333  0.6191 -0.2931 -0.8550
  199MOL0     C26202   9.021   9.035   8.282 -0.3835  0.1573 -0.1994
  199MOL0     H26203   8.589   9.163   8.072  1.7298 -0.6892  0.8954
  199MOL0     H26204   8.349   9.120   8.055 -1.5988 -2.9716 -2.7100
  199MOL0     H26205   8.158   8.804   8.281  4.6720 -4.0299  0.1172
  199MOL0     H26206   8.200   8.715   8.131 -3.5080 -1.6163 -0.6799
  199MOL0     H26207   7.991   8.801   8.016  1.0372  1.1279 -0.2129
  199MOL0     H26208   7.955   8.908   8.140  1.1749  1.5112 -2.3526
  199MOL0     H26209   7.890   8.728   8.293 -0.9082 -1.0541  0.1257
  199MOL0     H26210   7.993   8.614   8.211  0.7555  1.9295  3.3490
  199MOL0     H26211   7.832   8.642   8.007 -1.5996  1.4098 -0.0767
  199MOL0     H26212   7.771   8.560   8.150 -2.0141  0.0193 -2.2850
  199MOL0     H26213   7.703   8.839   8.039 -2.4159 -0.5488 -0.8091
  199MOL0     H26214   7.683   8.809   8.218 -0.4918 -0.0142  0.4376
  199MOL0     H26215   7.548   8.599   8.159 -2.8597  0.9899 -0.4568
  199MOL0     H26216   7.567   8.649   7.994 -2.3393  0.5126 -1.4585
  199MOL0     H26217   7.437   8.834   8.212  1.0754  7.4624 -3.3688
  199MOL0     H26218   7.439   8.869   8.048 -0.2438  1.0467  1.0710
  199MOL0     H26219   7.332   8.605   8.149  1.6046  0.4567 -0.6950
  199MOL0     H26220   7.293   8.685   7.996 -1.1799  2.5169 -0.4576
  199MOL0     H26221   7.122   8.856   7.942 -1.6900  1.6630 -0.7410
  199MOL0     H26222   6.934   8.996   7.981  0.8313  0.7963  0.3190
  199MOL0     H26223   6.915   9.089   8.131 -2.0847  0.4554  0.2257
  199MOL0     H26224   6.782   8.868   8.221 -0.5217 -0.3370  0.5762
  199MOL0     H26225   6.776   8.826   8.053 -0.2319 -1.9175  2.6122
  199MOL0     H26226   6.665   9.017   7.993  0.9417 -1.4120 -0.7471
  199MOL0     H26227   6.573   8.919   8.123 -0.9820  2.8258  0.9733
  199MOL0     H26228   6.724   9.167   8.179  1.1906 -0.9910 -0.9801
  199MOL0     H26229   6.608   9.084   8.292 -1.1262  0.1831  0.5377
  199MOL0     H26230   6.401   8.992   8.278 -2.3177 -1.4726 -1.2526
  199MOL0     H26231   6.204   9.009   8.380  1.5250 -0.5825 -0.3039
  199MOL0     H26232   5.881   9.524   8.480  0.3843  0.7153 -0.7795
  199MOL0     H26233   5.653   9.569   8.578  0.0710  0.6212 -0.0157
  199MOL0     H26234   5.420   9.645   8.577 -1.1153 -0.2977  0.2697
  199MOL0     H26235   5.481   9.530   8.696 -0.2247  0.1767 -0.7124
  199MOL0     H26236   5.194   9.553   8.589  0.6241 -0.1610  0.2930
  199MOL0     H26237   5.255   9.627   8.736 -2.5092 -1.0303  0.8406
  199MOL0     H26238   5.286   9.414   8.851 -0.9417  1.4145  0.0381
  199MOL0     H26239   5.277   9.320   8.708 -1.7543 -3.3289  3.7654
  199MOL0     H26240   5.042   9.391   8.671  0.5946 -3.1315 -0.8745
  199MOL0     H26241   5.069   9.273   8.794 -1.7888  0.1308 -0.6507
  199MOL0     H26242   5.056   9.559   8.903 -1.1996  1.7641 -2.9817
  199MOL0     H26243   5.012   9.402   8.966 -1.1531  0.8588  0.7999
  199MOL0     H26244   4.812   9.410   8.806  0.4500 -1.0143  2.1043
  199MOL0     H26245   4.863   9.573   8.747  1.7226  1.6067  1.0606
  199MOL0     H26246   4.691   9.578   8.914 -0.9584 -0.3635  0.5054
  199MOL0     H26247   4.772   9.481   9.030 -0.4143  0.8779  0.7215
  199MOL0     H26248   4.939   9.671   9.060  0.1710 -2.2366 -0.7485
  199MOL0     H26249   4.782   9.721   9.088 -2.4119  3.5083 -2.3234
  199MOL0     H26250   5.495   9.239   8.340  2.2653 -0.8800 -0.7445
  199MOL0     H26251   5.706   9.209   8.248 -1.8631 -1.0084 -1.2637
  199MOL0     H26252   6.130   9.355   8.112 -1.0447 -1.6405 -2.1489
  199MOL0     H26253   6.347   9.319   8.026  0.7022 -3.5651 -1.0564
  199MOL0     H26254   8.395   8.754   8.267  2.9273 -0.6968  1.0444
  199MOL0     H26255   8.645   8.787   8.276  0.0847  0.2279 -2.0669
  199MOL0     H26256   9.063   9.169   7.976 -1.0751  1.5333  0.4751
  199MOL0     H26257   9.303   9.152   8.042 -3.2284  2.8561 -2.4923
  199MOL0     H26258   9.441   9.294   8.231  0.9765 -0.8886 -0.9746
  199MOL0     H26259   9.533   9.150   8.200  0.4547  3.5121 -3.4769
  199MOL0     H26260   9.533   9.315   8.462  0.2651  0.4101 -0.7109
  199MOL0     H26261   9.619   9.154   8.440  2.5655 -0.1082 -0.5278
  199MOL0     H26262   9.665   9.380   8.259  0.8934 -0.7853 -1.2274
  199MOL0     H26263   9.760   9.239   8.268 -1.3896 -2.6807  1.1744
  199MOL0     H26264   9.717   9.403   8.524 -2.3410 -0.8458 -1.0062
  199MOL0     H26265   9.855   9.303   8.488 -1.3284 -1.9457 -0.8413
  199MOL0     H26266   9.970   9.646   8.281  0.0218  1.1215  1.0677
  199MOL0     H26267   9.181   9.046   8.435 -0.9388  2.4806  0.1176
  199MOL0     H26268   8.943   9.011   8.354 -3.7065  2.3354 -2.7583
  200MOL0     O26269   4.243   4.853   3.344 -0.2237  0.0667 -0.1685
  200MOL0     C26270   4.267   4.771   3.434  0.3832 -0.2610  0.0995
  200MOL0     O26271   4.178   4.664   3.459  0.0137  0.1621  0.3010
  200MOL0     C26272   4.061   4.662   3.380 -0.5110 -0.4728 -0.3748
  200MOL0     C26273   4.059   4.605   3.250  0.6706  0.8163 -0.1202
  200MOL0     C26274   3.951   4.629   3.172  0.2786  0.6545 -0.5835
  200MOL0     C26275   3.841   4.700   3.219 -0.1093  0.0999  0.5391
  200MOL0     O26276   3.736   4.719   3.133 -0.3201 -0.0048 -0.0094
  200MOL0     C26277   3.617   4.792   3.171 -0.6205 -0.2889 -0.3175
  200MOL0     C26278   3.521   4.814   3.050  0.1896  0.1315  0.2921
  200MOL0     C26279   3.402   4.911   3.070  0.2680  0.4464 -0.2898
  200MOL0     C26280   3.317   4.869   3.195 -0.1327  0.3465  0.6758
  200MOL0     C26281   3.175   4.933   3.183  0.0053  0.2995 -0.1974
  200MOL0     C26282   3.088   4.900   3.308 -0.2299 -0.1870  0.1158
  200MOL0     C26283   2.953   4.974   3.284 -0.0502 -0.0383 -0.0257
  200MOL0     C26284   2.877   4.961   3.413 -0.0368  0.4086  1.1006
  200MOL0     N26285   2.743   5.007   3.387 -0.2792  0.0674 -0.3739
  200MOL0     C26286   2.712   5.126   3.338 -0.2919  0.2975 -0.3636
  200MOL0     C26287   2.581   5.121   3.307  0.0450 -0.2026 -0.2265
  200MOL0     C26288   2.510   5.224   3.219 -0.1714 -0.4202 -0.7631
  200MOL0     C26289   2.361   5.240   3.256 -0.6034  1.0763  0.3772
  200MOL0     C26290   2.344   5.284   3.410  0.1308 -0.3423  0.4750
  200MOL0     C26291   2.197   5.292   3.430 -0.5585 -0.2134 -0.0101
  200MOL0     O26292   2.125   5.163   3.421  0.1125 -0.0880  0.4694
  200MOL0     C26293   2.005   5.153   3.476 -0.2623  0.7198 -0.0369
  200MOL0     C26294   1.959   5.023   3.512  0.3662  0.0286  0.3169
  200MOL0     C26295   1.825   4.996   3.555  0.2851 -0.4244 -0.3337
  200MOL0     C26296   1.733   5.103   3.567 -0.4275  0.2078 -0.1282
  200MOL0     C26297   1.595   5.070   3.612  0.3517 -0.4634  0.2050
  200MOL0     O26298   1.546   4.947   3.616 -0.7790  0.2106 -0.6822
  200MOL0     C26299   1.415   4.929   3.661 -0.4650  0.0431 -0.7664
  200MOL0     C26300   1.357   5.005   3.771  0.6602 -0.7544  0.6434
  200MOL0     C26301   1.218   4.979   3.813 -0.7266  0.1557  0.0943
  200MOL0     C26302   1.149   4.876   3.752 -0.4566  0.5907 -0.6343
  200MOL0     O26303   1.023   4.871   3.799 -0.1280  0.1765  0.9113
  200MOL0     C26304   0.938   4.771   3.739 -0.3189  0.1012 -0.2789
  200MOL0     C26305   0.866   4.818   3.615 -0.0748  0.5963  0.2264
  200MOL0     C26306   0.735   4.725   3.575 -0.4641  0.4318  0.9329
  200MOL0     C26307   0.676   4.776   3.446  0.0969  0.2090  0.1614
  200MOL0     C26308   0.531   4.752   3.411 -0.5672  0.5394 -1.0787
  200MOL0     C26309   0.439   4.767   3.525 -0.1975  0.3301 -0.0028
  200MOL0     C26310   0.300   4.755   3.465 -0.2008 -0.1959 -0.0881
  200MOL0     C26311   0.187   4.755   3.562 -0.1408 -0.0552  0.1078
  200MOL0    Cl26312   0.014   4.738   3.512  0.1608 -0.1129  0.3919
  200MOL0     C26313   1.206   4.805   3.646 -0.3365 -0.8058 -0.4791
  200MOL0     C26314   1.339   4.832   3.604 -0.3230 -0.0028 -0.5609
  200MOL0     O26315   1.535   5.177   3.636 -0.5841 -0.1762 -0.1490
  200MOL0     C26316   1.778   5.233   3.529  0.0415  0.4966 -0.1342
  200MOL0     C26317   1.912   5.260   3.491 -0.4192  0.0842  0.2992
  200MOL0     N26318   2.523   5.004   3.349 -0.5135  0.0095 -1.2660
  200MOL0     N26319   2.623   4.938   3.390  0.2205  0.4264 -0.3890
  200MOL0     C26320   3.840   4.757   3.345  1.2622 -0.2947  0.3401
  200MOL0     C26321   3.952   4.732   3.423  0.6607  0.2009 -0.3850
  200MOL0     C26322   4.369   4.807   3.534  0.2727  0.1417  0.7735
  200MOL0     C26323   4.447   4.919   3.509 -0.1238 -0.4420 -0.3629
  200MOL0     C26324   4.542   4.968   3.607 -0.5722  0.5701  1.2034
  200MOL0     C26325   4.554   4.901   3.731  0.1601 -0.0626 -0.0768
  200MOL0     O26326   4.653   4.954   3.808  0.4231 -0.1809 -0.2166
  200MOL0     C26327   4.659   4.908   3.944 -0.3919  0.1734  0.4445
  200MOL0     C26328   4.752   4.791   3.955  0.2032  0.2432 -0.7705
  200MOL0     C26329   4.909   4.824   3.974  0.7402 -0.0761  0.2683
  200MOL0     C26330   4.980   4.693   4.015  0.2560 -0.1918  0.8959
  200MOL0     C26331   5.122   4.707   4.019 -0.5740 -0.3776 -0.6868
  200MOL0     C26332   5.243   4.706   4.029  0.4070  0.2061 -0.5807
  200MOL0     C26333   4.493   4.772   3.748 -0.1109 -0.3958  0.5659
  200MOL0     C26334   4.405   4.728   3.648 -0.0084  0.2270 -0.1081
  200MOL0     H26335   4.146   4.547   3.221 -0.5244 -1.3518  0.3508
  200MOL0     H26336   3.940   4.593   3.071  1.1694  1.1318 -0.8541
  200MOL0     H26337   3.655   4.890   3.203 -1.3090 -0.0925 -0.0838
  200MOL0     H26338   3.566   4.741   3.253 -0.8894 -1.5286 -1.2383
  200MOL0     H26339   3.472   4.719   3.026 -0.0980  0.2473  0.4126
  200MOL0     H26340   3.588   4.842   2.968  0.2358  1.9206  0.8969
  200MOL0     H26341   3.331   4.903   2.987 -2.9102 -0.0384  2.2554
  200MOL0     H26342   3.425   5.018   3.074  1.3382  0.2035  0.5799
  200MOL0     H26343   3.326   4.760   3.197  2.7322  0.5037  0.3903
  200MOL0     H26344   3.362   4.893   3.292 -0.4246  0.9985  0.6529
  200MOL0     H26345   3.116   4.918   3.092 -0.7512  1.1166  0.1405
  200MOL0     H26346   3.202   5.039   3.194  1.9575 -0.2021  0.0945
  200MOL0     H26347   3.147   4.936   3.393  0.7864 -2.2934  0.3712
  200MOL0     H26348   3.074   4.792   3.308  1.8456 -0.5046  1.5737
  200MOL0     H26349   2.980   5.080   3.276  2.6235 -0.4730  1.6019
  200MOL0     H26350   2.904   4.933   3.196  3.6883 -0.6118 -2.0385
  200MOL0     H26351   2.929   5.024   3.486  1.1734 -0.9982  1.4997
  200MOL0     H26352   2.878   4.859   3.451  4.5260 -1.0893 -2.2028
  200MOL0     H26353   2.783   5.204   3.314  1.9808 -0.3803  3.3603
  200MOL0     H26354   2.521   5.196   3.113 -2.2325 -0.8792 -0.8908
  200MOL0     H26355   2.558   5.321   3.234 -1.9471  0.2511  1.0131
  200MOL0     H26356   2.303   5.148   3.241 -0.5464  0.4115  3.4671
  200MOL0     H26357   2.318   5.316   3.191 -2.4268 -0.7817 -0.7248
  200MOL0     H26358   2.399   5.212   3.470  0.9371 -0.0759  0.0733
  200MOL0     H26359   2.389   5.383   3.424 -1.1193  0.4594 -0.8368
  200MOL0     H26360   2.153   5.362   3.357  1.5597  0.3472 -0.8102
  200MOL0     H26361   2.183   5.326   3.533  0.0983 -0.2229  0.0817
  200MOL0     H26362   2.032   4.943   3.509 -0.8722 -1.2272  2.1205
  200MOL0     H26363   1.781   4.899   3.575 -1.8800  0.8124  1.5392
  200MOL0     H26364   1.416   5.075   3.830  1.5445  1.5799 -2.7262
  200MOL0     H26365   1.175   5.037   3.894 -0.8770 -0.3370  0.3703
  200MOL0     H26366   0.864   4.743   3.815 -1.7691 -0.7039 -1.9151
  200MOL0     H26367   0.998   4.681   3.721 -0.5488 -0.2152  0.4952
  200MOL0     H26368   0.942   4.818   3.536 -0.4792 -1.0514 -0.1981
  200MOL0     H26369   0.824   4.916   3.637 -0.5394  0.9111 -1.8896
  200MOL0     H26370   0.660   4.729   3.655 -2.0689 -3.0301 -0.1748
  200MOL0     H26371   0.766   4.621   3.559 -1.1713  0.5829 -1.9878
  200MOL0     H26372   0.682   4.883   3.465  0.3984 -0.1501  2.4357
  200MOL0     H26373   0.740   4.745   3.363  1.4684 -0.0529  1.2778
  200MOL0     H26374   0.522   4.650   3.372  0.5781 -0.0072  0.0354
  200MOL0     H26375   0.507   4.821   3.330 -1.4197 -0.6795 -1.8979
  200MOL0     H26376   0.460   4.865   3.570 -2.2236  0.2911  1.1326
  200MOL0     H26377   0.457   4.682   3.591 -3.9189 -1.2670 -0.7946
  200MOL0     H26378   0.289   4.846   3.406 -0.4324  1.3241  2.1675
  200MOL0     H26379   0.294   4.665   3.403 -0.6821 -0.7951  0.8147
  200MOL0     H26380   0.191   4.847   3.622 -1.4298  0.1556 -0.1188
  200MOL0     H26381   0.214   4.669   3.624  0.0274 -1.0673 -1.3199
  200MOL0     H26382   1.161   4.717   3.601 -2.7244 -0.6176  1.3624
  200MOL0     H26383   1.372   4.765   3.525 -2.0104 -4.7219  2.3038
  200MOL0     H26384   1.710   5.315   3.551 -1.0502 -1.4091  4.9385
  200MOL0     H26385   1.945   5.363   3.477  1.0667 -0.7246 -3.3816
  200MOL0     H26386   3.762   4.816   3.392  2.0078  0.9049  0.1094
  200MOL0     H26387   3.951   4.767   3.525 -1.5236 -1.8646  0.4011
  200MOL0     H26388   4.430   4.977   3.419 -2.6555  0.2200  0.4640
  200MOL0     H26389   4.606   5.054   3.588  2.8851 -1.9509  0.4003
  200MOL0     H26390   4.562   4.876   3.984  0.1086 -0.8974  0.8403
  200MOL0     H26391   4.685   4.989   4.013 -0.1846  0.1011  0.4500
  200MOL0     H26392   4.728   4.721   4.035 -0.4756 -0.2667 -1.4125
  200MOL0     H26393   4.742   4.732   3.864 -2.0381 -1.4950  0.5258
  200MOL0     H26394   4.924   4.897   4.054  0.7543 -0.3978  0.5630
  200MOL0     H26395   4.948   4.870   3.883  2.2734 -3.6696 -1.0881
  200MOL0     H26396   4.954   4.658   4.116  2.8069  0.1835  1.7594
  200MOL0     H26397   4.945   4.616   3.946  0.6047  2.8151 -2.9448
  200MOL0     H26398   5.347   4.715   4.052 -0.1307 -0.4557  2.4375
  200MOL0     H26399   4.499   4.708   3.835 -1.8885 -0.4007  0.7160
  200MOL0     H26400   4.360   4.630   3.662  0.7208 -0.2498 -1.0537
  201MOL0     O26401   1.443   7.022   4.390  0.0756  1.2981 -0.2706
  201MOL0     C26402   1.511   7.080   4.478 -0.1394 -0.5862  0.0338
  201MOL0     O26403   1.463   7.134   4.590 -0.1049 -0.3883  0.7177
  201MOL0     C26404   1.334   7.118   4.613 -0.3539 -0.6466  0.0892
  201MOL0     C26405   1.241   7.187   4.539  0.1488  0.0024 -0.5542
  201MOL0     C26406   1.106   7.181   4.570  0.7180  0.4974  0.5079
  201MOL0     C26407   1.065   7.102   4.687 -0.4755  0.3868  0.8927
  201MOL0     O26408   0.939   7.080   4.735  0.2131 -0.1331  0.3086
  201MOL0     C26409   0.842   7.168   4.690  0.5035 -0.3640 -0.1446
  201MOL0     C26410   0.720   7.162   4.773  0.0193 -0.1373 -0.1560
  201MOL0     C26411   0.622   7.270   4.733 -0.1734 -0.1816 -0.0379
  201MOL0     C26412   0.524   7.294   4.848 -0.3482 -0.0658 -0.0447
  201MOL0     C26413   0.443   7.424   4.820  0.7135  0.4500  0.1301
  201MOL0     C26414   0.335   7.452   4.936  0.2499  0.0851 -0.0344
  201MOL0     C26415   0.184   7.461   4.895  0.1623  0.2390 -0.4371
  201MOL0     C26416   0.159   7.546   4.772  0.5899  0.5051 -0.3496
  201MOL0     N26417   0.013   7.579   4.769  0.3954 -0.0079  0.4249
  201MOL0     C26418  -0.030   7.709   4.785  0.5598  0.5931 -0.0077
  201MOL0     C26419  -0.160   7.715   4.755  0.7881 -0.7481  0.2915
  201MOL0     C26420  -0.267   7.831   4.750  0.3666 -0.1515 -0.1261
  201MOL0     C26421  -0.276   7.880   4.603  0.5090  0.1101  0.5442
  201MOL0     C26422  -0.330   7.773   4.509 -0.2957  0.2639 -0.9618
  201MOL0     C26423  -0.469   7.736   4.526  0.6876 -0.7638  1.2380
  201MOL0     O26424  -0.557   7.837   4.464  0.0157  0.6825 -0.1031
  201MOL0     C26425  -0.690   7.829   4.481  0.5815 -0.4906 -1.6348
  201MOL0     C26426  -0.752   7.725   4.551 -0.0907  0.4746 -0.8184
  201MOL0     C26427  -0.890   7.712   4.565 -0.2791 -0.2389  0.7396
  201MOL0     C26428  -0.969   7.823   4.513  0.5753  0.0664  0.9608
  201MOL0     C26429  -1.109   7.820   4.537  0.4420 -0.1736  0.3558
  201MOL0     O26430  -1.160   7.692   4.537  0.5105 -0.5219 -0.3612
  201MOL0     C26431  -1.292   7.692   4.577  0.3970 -0.6342  0.1874
  201MOL0     C26432  -1.403   7.707   4.495 -0.0811  0.1563  0.7831
  201MOL0     C26433  -1.533   7.707   4.538 -0.0495  0.0801  0.6298
  201MOL0     C26434  -1.563   7.683   4.669 -0.8010  0.1718  0.5103
  201MOL0     O26435  -1.692   7.678   4.704  0.2797 -0.4822 -0.6198
  201MOL0     C26436  -1.719   7.723   4.839 -0.4818  0.2347  0.1353
  201MOL0     C26437  -1.867   7.757   4.842 -0.0436  0.2493  0.9422
  201MOL0     C26438  -1.921   7.873   4.751 -0.1717  0.4210 -0.1759
  201MOL0     C26439  -2.070   7.864   4.737  0.1674 -0.5035 -0.3518
  201MOL0     C26440  -2.150   7.897   4.865 -0.0087 -0.2972  0.4640
  201MOL0     C26441  -2.145   8.042   4.915 -0.4525 -0.8409  0.4262
  201MOL0     C26442  -2.258   8.073   5.015 -0.4576  0.2751  0.0322
  201MOL0     C26443  -2.274   8.215   5.028  0.7065 -0.6705  0.6169
  201MOL0    Cl26444  -2.302   8.308   4.877  0.1752  0.7558 -0.1342
  201MOL0     C26445  -1.449   7.657   4.756  0.2126 -0.5865  0.3430
  201MOL0     C26446  -1.319   7.655   4.709  0.7892 -0.1922 -0.3372
  201MOL0     O26447  -1.169   7.928   4.549 -0.1780 -0.2824  0.6182
  201MOL0     C26448  -0.909   7.936   4.460 -0.3665  0.4943  0.0191
  201MOL0     C26449  -0.767   7.929   4.436  0.8163  0.5546 -0.1693
  201MOL0     N26450  -0.203   7.584   4.755  0.2407 -0.8154  0.7223
  201MOL0     N26451  -0.100   7.510   4.761  0.0623  0.4811 -0.2449
  201MOL0     C26452   1.168   7.030   4.756  0.0366  0.5467 -0.0488
  201MOL0     C26453   1.298   7.033   4.717  0.5716 -0.1101  0.1858
  201MOL0     C26454   1.664   7.078   4.466  0.1263  0.2887 -0.4223
  201MOL0     C26455   1.749   7.173   4.532 -0.7948  0.4446 -0.0597
  201MOL0     C26456   1.882   7.180   4.510  0.4831 -0.3013 -0.0615
  201MOL0     C26457   1.934   7.100   4.406  0.0518  0.0446  0.4727
  201MOL0     O26458   2.062   7.113   4.375  0.0144  0.2682  0.1757
  201MOL0     C26459   2.146   6.993   4.383  0.2756 -0.0285 -0.0744
  201MOL0     C26460   2.188   6.963   4.528  0.7787  0.0331 -0.4602
  201MOL0     C26461   2.268   6.836   4.556 -0.3116  0.2100  0.3025
  201MOL0     C26462   2.382   6.819   4.453 -0.8868  0.7046 -0.2837
  201MOL0     C26463   2.477   6.930   4.449 -0.1199  0.3400  0.0126
  201MOL0     C26464   2.564   7.016   4.440  0.3352 -0.2740  0.3254
  201MOL0     C26465   1.854   7.014   4.327  0.0477  0.1199 -0.5597
  201MOL0     C26466   1.716   6.997   4.368 -0.2106  0.5321  0.5858
  201MOL0     H26467   1.269   7.247   4.453  2.6634  2.2843  1.6497
  201MOL0     H26468   1.031   7.219   4.502  1.3953 -2.6409 -2.2398
  201MOL0     H26469   0.822   7.155   4.583  2.7549  2.1918 -1.0187
  201MOL0     H26470   0.891   7.266   4.701  1.7673 -1.1228  1.3879
  201MOL0     H26471   0.738   7.195   4.876 -0.3218  1.3575 -0.5566
  201MOL0     H26472   0.679   7.061   4.761  2.4364 -1.1313 -0.7379
  201MOL0     H26473   0.564   7.242   4.645 -0.8456 -0.7408  0.5716
  201MOL0     H26474   0.678   7.361   4.709  1.6107 -1.6656 -1.8127
  201MOL0     H26475   0.464   7.205   4.867 -0.4925  0.0989  0.2690
  201MOL0     H26476   0.580   7.317   4.939 -0.4756 -1.2656  0.3472
  201MOL0     H26477   0.396   7.400   4.724  4.2398 -2.8108 -1.0448
  201MOL0     H26478   0.516   7.505   4.823  0.6035  0.5691 -0.3624
  201MOL0     H26479   0.357   7.548   4.983  1.5375 -2.1153  4.3600
  201MOL0     H26480   0.355   7.376   5.013 -2.8361 -2.4064 -1.4482
  201MOL0     H26481   0.157   7.357   4.875  1.0484 -0.1235  0.1648
  201MOL0     H26482   0.126   7.505   4.976  1.2379  0.3892  0.2721
  201MOL0     H26483   0.193   7.479   4.692  0.8074 -0.6459  0.6731
  201MOL0     H26484   0.226   7.632   4.777  2.4918 -0.9284  0.0178
  201MOL0     H26485   0.035   7.794   4.805 -0.2146  1.1397  0.2065
  201MOL0     H26486  -0.222   7.912   4.809  0.6779  0.6332 -1.3939
  201MOL0     H26487  -0.362   7.802   4.795  0.8898 -1.2170  0.3319
  201MOL0     H26488  -0.175   7.917   4.580 -0.0956  1.1153 -0.5342
  201MOL0     H26489  -0.329   7.975   4.595  2.9790  1.6900  1.5752
  201MOL0     H26490  -0.319   7.808   4.406  0.1164  1.0319 -0.6650
  201MOL0     H26491  -0.270   7.682   4.519 -0.4652  0.2863  0.3706
  201MOL0     H26492  -0.484   7.724   4.634  0.4642  0.6515  1.3805
  201MOL0     H26493  -0.499   7.640   4.484 -1.4912  0.2946  0.2544
  201MOL0     H26494  -0.692   7.642   4.588 -0.3916  0.2277 -0.8785
  201MOL0     H26495  -0.931   7.618   4.600  1.4075 -1.9393 -1.5324
  201MOL0     H26496  -1.383   7.738   4.393 -2.7704  0.0831  0.1689
  201MOL0     H26497  -1.616   7.721   4.470 -2.3963 -2.6204  2.6875
  201MOL0     H26498  -1.667   7.818   4.857  1.0512 -0.4170 -0.6540
  201MOL0     H26499  -1.692   7.646   4.911 -1.7794 -1.1281 -0.7887
  201MOL0     H26500  -1.895   7.778   4.946  1.8472  0.7318  1.3936
  201MOL0     H26501  -1.915   7.664   4.810 -1.0706  0.6998  1.1182
  201MOL0     H26502  -1.870   7.877   4.655 -0.3525  2.5473 -0.2214
  201MOL0     H26503  -1.896   7.971   4.792 -0.0183  0.4384 -0.3110
  201MOL0     H26504  -2.106   7.933   4.660 -2.4849  0.1063  1.2889
  201MOL0     H26505  -2.078   7.759   4.707 -0.3064  0.0450 -2.2634
  201MOL0     H26506  -2.127   7.824   4.943  1.4009 -3.7734 -2.9322
  201MOL0     H26507  -2.257   7.875   4.854 -0.8523  2.4180  2.1882
  201MOL0     H26508  -2.164   8.105   4.827  0.1964 -0.9871  0.1771
  201MOL0     H26509  -2.043   8.058   4.952 -0.3723 -0.2105 -0.0406
  201MOL0     H26510  -2.356   8.039   4.981 -0.7403  1.0239  0.0932
  201MOL0     H26511  -2.245   8.022   5.111  0.1027  1.8082  0.7944
  201MOL0     H26512  -2.193   8.260   5.087 -1.0516  1.8318  1.3060
  201MOL0     H26513  -2.365   8.242   5.083  1.4106 -1.1374  2.0771
  201MOL0     H26514  -1.454   7.670   4.864  1.6425  1.1939  0.2291
  201MOL0     H26515  -1.244   7.637   4.786  2.5926 -1.9933 -2.3977
  201MOL0     H26516  -0.969   8.020   4.426 -2.6983 -1.8639 -2.1411
  201MOL0     H26517  -0.706   8.005   4.388  0.9856 -0.1137 -1.0240
  201MOL0     H26518   1.135   6.966   4.837  1.3390  0.0224  0.0769
  201MOL0     H26519   1.363   6.986   4.790  1.6130 -0.6596 -1.0729
  201MOL0     H26520   1.704   7.244   4.601 -0.4315  1.9649 -1.3318
  201MOL0     H26521   1.936   7.260   4.559 -3.3145  2.4377  0.0737
  201MOL0     H26522   2.240   7.014   4.330  2.0606  2.0779  3.4865
  201MOL0     H26523   2.106   6.900   4.342 -0.5898 -1.7356  4.1263
  201MOL0     H26524   2.258   7.042   4.559 -1.5243  1.4834  1.4090
  201MOL0     H26525   2.098   6.963   4.589 -1.2235 -1.2881 -3.2262
  201MOL0     H26526   2.206   6.746   4.564 -1.7691  1.3542  3.8100
  201MOL0     H26527   2.318   6.854   4.652 -1.0825 -2.0330  1.1890
  201MOL0     H26528   2.447   6.733   4.471  1.0692  2.0885 -0.4289
  201MOL0     H26529   2.335   6.820   4.354 -0.1890  0.2544 -0.6213
  201MOL0     H26530   2.628   7.102   4.445  0.4370  0.0430 -3.5557
  201MOL0     H26531   1.888   6.954   4.244  2.2873  0.7312 -0.1686
  201MOL0     H26532   1.649   6.932   4.312 -0.1956  0.9921  0.0247
  202MOL0     O26533   8.651  10.907   4.896  0.2490 -0.1828  0.4863
  202MOL0     C26534   8.706  10.959   4.987  0.4089  0.0957 -0.9018
  202MOL0     O26535   8.636  11.028   5.089  0.2169 -0.5086 -1.3536
  202MOL0     C26536   8.499  11.017   5.109  0.4355  0.3081  0.0302
  202MOL0     C26537   8.404  11.001   5.011 -0.3018 -0.1490 -0.7381
  202MOL0     C26538   8.273  11.003   5.038 -0.2397  0.3818 -0.6856
  202MOL0     C26539   8.225  11.011   5.177  1.0487  0.5651  0.5289
  202MOL0     O26540   8.093  11.006   5.226 -0.0752 -0.6343  0.2794
  202MOL0     C26541   7.993  11.028   5.119  0.4359 -0.3574 -0.4406
  202MOL0     C26542   7.852  11.007   5.179 -0.1053 -0.5117 -0.2131
  202MOL0     C26543   7.791  10.872   5.177 -0.0256  0.7841  0.1028
  202MOL0     C26544   7.765  10.821   5.033  0.1535 -0.1241  0.3015
  202MOL0     C26545   7.667  10.706   5.032 -0.3684  0.1190  0.8462
  202MOL0     C26546   7.567  10.728   4.917 -0.0037 -0.5054 -0.1901
  202MOL0     C26547   7.449  10.632   4.936  0.1972  0.9223  0.0901
  202MOL0     C26548   7.371  10.646   4.807  0.2182  0.4620 -0.9151
  202MOL0     N26549   7.260  10.557   4.802  0.3068  0.3962  0.2580
  202MOL0     C26550   7.147  10.578   4.864 -0.2868 -0.2355  0.3269
  202MOL0     C26551   7.065  10.473   4.831 -0.4379 -0.2277 -0.6102
  202MOL0     C26552   6.917  10.456   4.873 -0.3285 -0.5194  0.6996
  202MOL0     C26553   6.929  10.414   5.025 -0.6456  0.2816 -0.1085
  202MOL0     C26554   6.798  10.407   5.099  0.5610 -0.5171  0.5195
  202MOL0     C26555   6.747  10.551   5.119  0.0803  0.0898  0.1530
  202MOL0     O26556   6.683  10.611   5.005 -0.3161 -1.1948 -0.5081
  202MOL0     C26557   6.570  10.555   4.960  0.5953 -0.0739 -0.6627
  202MOL0     C26558   6.547  10.556   4.829  0.2301  0.7510  0.0773
  202MOL0     C26559   6.430  10.510   4.775 -0.1072  0.2671 -0.0147
  202MOL0     C26560   6.327  10.458   4.858  0.1523 -0.0039  0.3363
  202MOL0     C26561   6.197  10.415   4.799 -0.2684  0.0485 -0.0256
  202MOL0     O26562   6.178  10.419   4.662  0.4843  0.0328 -0.6768
  202MOL0     C26563   6.058  10.402   4.601 -0.0656  0.6854 -0.6051
  202MOL0     C26564   5.941  10.462   4.644  0.2132  0.4175  0.3469
  202MOL0     C26565   5.822  10.426   4.579  0.6435 -0.1807 -0.2478
  202MOL0     C26566   5.814  10.327   4.479 -0.3012  0.5593 -0.8884
  202MOL0     O26567   5.683  10.294   4.443  0.1449 -0.5434  0.0850
  202MOL0     C26568   5.671  10.214   4.325  0.4256 -0.6565  0.2316
  202MOL0     C26569   5.531  10.203   4.271  0.3597  0.1910 -1.2665
  202MOL0     C26570   5.435  10.128   4.375  0.3052 -0.2253  0.2675
  202MOL0     C26571   5.291  10.150   4.320  0.1648 -0.3275  0.2488
  202MOL0     C26572   5.178  10.120   4.416  0.3688 -0.0111 -0.4261
  202MOL0     C26573   5.040  10.121   4.341 -0.3241  0.3922 -0.1280
  202MOL0     C26574   4.932  10.061   4.447 -0.0130  0.1563  0.6296
  202MOL0     C26575   4.799  10.058   4.381  0.1658  0.6628  1.0551
  202MOL0    Cl26576   4.683   9.936   4.462 -0.2765  0.1339 -0.0314
  202MOL0     C26577   5.932  10.277   4.433  0.6381 -0.7052  0.2371
  202MOL0     C26578   6.050  10.321   4.486  0.2845 -0.1373  0.5071
  202MOL0     O26579   6.110  10.383   4.881  0.2594  0.1996 -0.7664
  202MOL0     C26580   6.356  10.444   4.992 -0.9019 -1.1557 -0.5925
  202MOL0     C26581   6.471  10.498   5.043 -0.4805  0.4101 -0.1805
  202MOL0     N26582   7.142  10.388   4.747  0.1967 -0.1650 -0.7900
  202MOL0     N26583   7.251  10.449   4.726  0.3184 -0.1588 -0.0298
  202MOL0     C26584   8.322  11.005   5.273  1.1631 -0.3551  0.2062
  202MOL0     C26585   8.455  11.009   5.244 -0.1533 -0.3575 -0.4565
  202MOL0     C26586   8.848  10.965   4.977 -1.1663 -0.5365 -0.1578
  202MOL0     C26587   8.917  11.019   5.088 -0.3042  0.7781 -0.0132
  202MOL0     C26588   9.053  11.008   5.089 -0.5636  0.0869 -0.3458
  202MOL0     C26589   9.118  10.951   4.969  0.1464 -0.3839  0.0285
  202MOL0     O26590   9.256  10.934   4.961  0.0204 -0.6436 -0.1002
  202MOL0     C26591   9.328  11.032   5.032 -0.4880  0.5528 -0.4936
  202MOL0     C26592   9.480  11.030   4.983  0.0671 -0.0762  0.2031
  202MOL0     C26593   9.499  11.052   4.835  0.5537 -0.0012 -0.5809
  202MOL0     C26594   9.642  11.073   4.787  0.8757  0.1197 -0.4045
  202MOL0     C26595   9.718  11.173   4.854 -1.0072 -0.5066 -0.6352
  202MOL0     C26596   9.776  11.275   4.910  0.1820  1.3141 -0.8706
  202MOL0     C26597   9.045  10.908   4.862  0.2170 -0.8698  0.0743
  202MOL0     C26598   8.908  10.908   4.866  0.4183 -0.7473  0.3874
  202MOL0     H26599   8.420  10.991   4.905  0.0519 -0.4636 -0.6574
  202MOL0     H26600   8.201  10.995   4.958 -1.3853 -3.0505  0.5331
  202MOL0     H26601   8.003  10.965   5.030 -0.7098 -3.5958  1.5265
  202MOL0     H26602   8.006  11.132   5.089  0.5657 -0.5225 -0.9722
  202MOL0     H26603   7.784  11.077   5.130 -0.3464  0.2068  1.1082
  202MOL0     H26604   7.863  11.038   5.283 -0.7522 -4.1309  1.0840
  202MOL0     H26605   7.706  10.867   5.246  1.0272  1.4135  1.4839
  202MOL0     H26606   7.858  10.800   5.225  1.2709  1.5001 -0.5912
  202MOL0     H26607   7.730  10.910   4.980 -1.2735 -0.2713  0.9413
  202MOL0     H26608   7.852  10.782   4.980 -0.5507 -1.7166  0.2549
  202MOL0     H26609   7.615  10.693   5.127  1.8515 -3.0131  1.7882
  202MOL0     H26610   7.722  10.614   5.011 -1.5212 -0.0273 -1.9493
  202MOL0     H26611   7.620  10.711   4.823  0.6252 -0.4355  0.1452
  202MOL0     H26612   7.544  10.835   4.912  2.9778  0.1894 -1.6865
  202MOL0     H26613   7.481  10.531   4.965 -3.3022  0.0733  1.4774
  202MOL0     H26614   7.392  10.661   5.024 -1.7422  0.4490 -0.9641
  202MOL0     H26615   7.429  10.630   4.715 -1.3927  1.3600 -2.1481
  202MOL0     H26616   7.331  10.748   4.805 -0.5654  0.2587  1.5024
  202MOL0     H26617   7.116  10.665   4.921 -0.9199 -0.9411  1.0751
  202MOL0     H26618   6.872  10.378   4.812 -1.0697 -0.5982  1.3309
  202MOL0     H26619   6.855  10.545   4.856 -1.5931 -1.3370  0.9137
  202MOL0     H26620   7.004  10.480   5.070  0.0573 -0.7468  0.2624
  202MOL0     H26621   6.967  10.313   5.008 -0.9258  0.3543 -1.2901
  202MOL0     H26622   6.723  10.333   5.069  1.5793 -0.9553 -1.0354
  202MOL0     H26623   6.819  10.373   5.201 -0.1882 -0.6795  0.6301
  202MOL0     H26624   6.832  10.615   5.141  1.3928 -0.6450 -2.3991
  202MOL0     H26625   6.674  10.550   5.201 -1.0315  1.4188 -0.7643
  202MOL0     H26626   6.625  10.596   4.765  1.5061 -0.5070  0.7903
  202MOL0     H26627   6.424  10.507   4.666  1.1949  3.3318 -0.2746
  202MOL0     H26628   5.938  10.534   4.726  2.3394  0.4540  0.4374
  202MOL0     H26629   5.727  10.470   4.609  0.1700 -2.8932  2.7874
  202MOL0     H26630   5.710  10.114   4.339  2.8405  0.4526  2.0200
  202MOL0     H26631   5.730  10.265   4.248 -0.8786 -0.8969 -0.9793
  202MOL0     H26632   5.540  10.149   4.176 -0.7080 -1.6968 -0.3546
  202MOL0     H26633   5.505  10.308   4.253  2.1681  0.7413 -0.8325
  202MOL0     H26634   5.445  10.179   4.471 -2.0996  2.2592 -0.6710
  202MOL0     H26635   5.451  10.020   4.379 -2.0881 -0.6210  0.8978
  202MOL0     H26636   5.283  10.251   4.281  2.8644  0.0892  0.6476
  202MOL0     H26637   5.296  10.076   4.240 -0.5081  1.0890 -1.1466
  202MOL0     H26638   5.180  10.194   4.497  1.9949 -2.5556  2.0341
  202MOL0     H26639   5.198  10.023   4.461  1.3788 -0.1288 -1.1120
  202MOL0     H26640   5.054  10.058   4.253  1.1264  1.9607 -1.0859
  202MOL0     H26641   5.013  10.221   4.305 -2.5603 -0.2687 -0.4107
  202MOL0     H26642   4.966   9.959   4.464  1.9948  0.3264 -1.8389
  202MOL0     H26643   4.936  10.120   4.539 -0.6071  2.5389 -0.7810
  202MOL0     H26644   4.823  10.017   4.282  1.4940 -1.5936  2.2445
  202MOL0     H26645   4.738  10.149   4.370  1.6730  1.5706 -0.1307
  202MOL0     H26646   5.926  10.208   4.349  0.7755  0.1200 -0.4721
  202MOL0     H26647   6.141  10.298   4.431 -0.7495 -0.7010 -1.0491
  202MOL0     H26648   6.299  10.395   5.070  1.1556 -0.8847  1.1516
  202MOL0     H26649   6.480  10.473   5.148  0.1350 -0.1827 -0.3651
  202MOL0     H26650   8.291  11.018   5.377 -0.1221  1.9622 -0.4046
  202MOL0     H26651   8.531  11.010   5.322  0.9833 -1.1546 -1.5116
  202MOL0     H26652   8.872  11.069   5.173  0.6504  1.2014  0.2674
  202MOL0     H26653   9.111  11.049   5.171 -3.8914  2.3961  1.0606
  202MOL0     H26654   9.320  11.013   5.139  0.6497 -0.0662 -0.5056
  202MOL0     H26655   9.281  11.129   5.013 -1.2672 -0.0458 -1.7155
  202MOL0     H26656   9.536  11.112   5.030  0.1549  2.4040 -3.7439
  202MOL0     H26657   9.513  10.927   5.001 -0.8735 -0.6664 -1.2363
  202MOL0     H26658   9.442  11.141   4.806 -1.2928 -1.3467 -1.2936
  202MOL0     H26659   9.456  10.965   4.784  1.6055  0.6904 -2.7944
  202MOL0     H26660   9.706  10.987   4.804 -1.0526 -1.9115 -2.6582
  202MOL0     H26661   9.638  11.085   4.678  0.0590  0.5781 -0.3361
  202MOL0     H26662   9.822  11.356   4.963  0.2314  0.7318  0.0045
  202MOL0     H26663   9.096  10.867   4.776 -1.4380 -0.2468 -1.2488
  202MOL0     H26664   8.848  10.880   4.780 -0.9507  1.6892  0.4328
  203MOL0     O26665   9.609   9.231   4.953  0.6995  0.0108 -0.4035
  203MOL0     C26666   9.703   9.213   5.028  0.4741  0.4628 -0.9591
  203MOL0     O26667   9.748   9.085   5.053  0.6593 -0.0119 -0.1247
  203MOL0     C26668   9.669   8.979   5.053  0.4468 -0.1896  1.2214
  203MOL0     C26669   9.739   8.853   5.070 -0.1350 -0.4283 -0.0039
  203MOL0     C26670   9.675   8.733   5.074 -0.7143  0.5473 -0.3831
  203MOL0     C26671   9.534   8.729   5.071  0.3059  1.2242  0.1221
  203MOL0     O26672   9.455   8.617   5.044  0.5092 -0.0413 -0.0574
  203MOL0     C26673   9.507   8.491   5.038  0.0074  0.7678 -0.2136
  203MOL0     C26674   9.400   8.395   4.972 -0.3426 -0.0331 -0.7795
  203MOL0     C26675   9.358   8.442   4.831 -0.1734 -0.2192  0.2173
  203MOL0     C26676   9.264   8.342   4.753 -0.6017  1.1367  0.2601
  203MOL0     C26677   9.191   8.393   4.632 -0.0149  0.4510  0.3910
  203MOL0     C26678   9.146   8.282   4.531 -0.1129  0.4301 -0.0442
  203MOL0     C26679   9.044   8.331   4.439  0.1677  0.6548 -0.4870
  203MOL0     C26680   9.026   8.238   4.321 -0.0828 -0.2834 -0.2835
  203MOL0     N26681   8.952   8.290   4.205 -0.2587  0.1857 -0.1056
  203MOL0     C26682   8.852   8.388   4.211  0.0625  0.4618 -1.1603
  203MOL0     C26683   8.818   8.396   4.085  0.1759 -0.7562 -0.3663
  203MOL0     C26684   8.715   8.502   4.042  0.0513  0.3580  0.3798
  203MOL0     C26685   8.591   8.423   3.986 -0.0598 -0.3269 -0.4460
  203MOL0     C26686   8.610   8.386   3.844  0.2632  1.1180  0.1300
  203MOL0     C26687   8.491   8.298   3.791 -0.2436 -0.1201  0.4709
  203MOL0     O26688   8.372   8.370   3.780  0.2792  0.3191 -0.5045
  203MOL0     C26689   8.257   8.298   3.760  0.5803 -0.4288  0.6318
  203MOL0     C26690   8.150   8.342   3.838 -0.1535  0.0879 -0.7605
  203MOL0     C26691   8.029   8.279   3.819  0.3033 -0.0958 -0.8981
  203MOL0     C26692   8.009   8.186   3.719  0.8208 -0.6297  0.5970
  203MOL0     C26693   7.871   8.130   3.703 -0.7622  0.1250 -0.0960
  203MOL0     O26694   7.777   8.190   3.770  0.4870 -0.5349 -0.6785
  203MOL0     C26695   7.647   8.145   3.776  0.4668 -0.2569  0.2667
  203MOL0     C26696   7.570   8.053   3.705 -0.6486 -0.3761 -0.4400
  203MOL0     C26697   7.437   8.022   3.740 -1.3495  0.0446 -0.2570
  203MOL0     C26698   7.366   8.080   3.841 -0.6019 -1.1441 -0.2177
  203MOL0     O26699   7.237   8.058   3.882  0.2632 -0.3000  0.0845
  203MOL0     C26700   7.164   7.976   3.792  0.2515  0.4103 -0.1150
  203MOL0     C26701   7.008   7.981   3.834  0.2833  0.0891  0.1278
  203MOL0     C26702   6.927   7.886   3.763  0.6464  0.7888 -0.1946
  203MOL0     C26703   6.775   7.890   3.790 -1.1726  0.4210  0.1536
  203MOL0     C26704   6.679   7.802   3.706  0.2204 -0.3528  0.6546
  203MOL0     C26705   6.671   7.865   3.569  0.1004  0.4465  0.1907
  203MOL0     C26706   6.562   7.804   3.483  0.0506  0.6554  0.2711
  203MOL0     C26707   6.523   7.908   3.376 -0.3049 -0.0757  0.4039
  203MOL0    Cl26708   6.399   7.830   3.270 -0.1453  0.4352  0.2787
  203MOL0     C26709   7.442   8.183   3.908  0.1197 -0.2012 -0.0207
  203MOL0     C26710   7.573   8.218   3.872 -0.6454  0.6486 -0.3353
  203MOL0     O26711   7.869   8.016   3.655  0.0354 -0.2061  0.2911
  203MOL0     C26712   8.120   8.146   3.643  0.3311  0.5170 -0.7518
  203MOL0     C26713   8.250   8.199   3.669 -0.0632  0.4012  0.1538
  203MOL0     N26714   8.894   8.315   4.008 -0.5607 -0.1788  0.3198
  203MOL0     N26715   8.973   8.250   4.083 -0.2179  0.2808 -0.0943
  203MOL0     C26716   9.462   8.845   5.070  0.6614 -0.2034 -0.7302
  203MOL0     C26717   9.525   8.973   5.061 -0.0525  0.0393  0.1769
  203MOL0     C26718   9.788   9.326   5.069 -0.2144  0.9762 -0.4245
  203MOL0     C26719   9.881   9.322   5.171 -0.0742 -0.4906  0.7046
  203MOL0     C26720   9.959   9.437   5.204 -0.1896  0.4039  0.1495
  203MOL0     C26721   9.954   9.555   5.129  0.1670 -0.1635  0.5057
  203MOL0     O26722  10.016   9.673   5.161  0.8011 -0.8992 -0.4318
  203MOL0     C26723  10.104   9.684   5.275  0.5370  0.9308  0.1553
  203MOL0     C26724  10.159   9.824   5.289 -0.5411 -0.9798  0.9246
  203MOL0     C26725  10.054   9.924   5.343 -0.5766 -0.0386  0.0986
  203MOL0     C26726   9.928   9.941   5.255  0.0870 -0.2330  0.9609
  203MOL0     C26727   9.938   9.997   5.116 -0.0739 -0.2295  0.0756
  203MOL0     C26728   9.948  10.020   4.994  0.2109 -0.3348  0.2138
  203MOL0     C26729   9.850   9.565   5.029 -0.2397  0.1378 -0.7846
  203MOL0     C26730   9.779   9.449   5.004  0.1545  0.5059 -0.1453
  203MOL0     H26731   9.845   8.873   5.084 -0.5080  2.5504 -0.7880
  203MOL0     H26732   9.730   8.640   5.065 -1.4185  0.2984 -2.9499
  203MOL0     H26733   9.539   8.450   5.134  2.0234  1.4665 -0.5255
  203MOL0     H26734   9.590   8.500   4.966  1.5924 -2.4386  0.9966
  203MOL0     H26735   9.316   8.384   5.040 -0.9112 -0.1402 -1.4899
  203MOL0     H26736   9.454   8.300   4.960 -2.5143 -1.3917 -0.2850
  203MOL0     H26737   9.452   8.460   4.778 -0.5930 -1.5877 -1.0394
  203MOL0     H26738   9.310   8.539   4.845 -2.7737 -1.4352  0.1851
  203MOL0     H26739   9.334   8.268   4.712  1.5636  2.7713  0.8157
  203MOL0     H26740   9.181   8.304   4.814  0.3065 -1.7783 -0.1531
  203MOL0     H26741   9.261   8.458   4.578 -1.5451  0.3335 -1.8864
  203MOL0     H26742   9.114   8.459   4.672  1.0989  1.5402  0.7830
  203MOL0     H26743   9.107   8.202   4.595 -0.3365 -0.5554 -1.3685
  203MOL0     H26744   9.231   8.242   4.475 -0.0591 -0.1442  0.4353
  203MOL0     H26745   8.955   8.348   4.501  1.7754  0.7283  1.9141
  203MOL0     H26746   9.071   8.431   4.403  3.6198  0.0997  0.2875
  203MOL0     H26747   8.970   8.148   4.347 -0.6849 -0.4228 -1.9059
  203MOL0     H26748   9.126   8.205   4.291 -0.1710  0.6544 -1.7101
  203MOL0     H26749   8.802   8.437   4.294 -0.4969 -2.6402  0.5059
  203MOL0     H26750   8.754   8.574   3.969  1.5967  0.8873  1.6782
  203MOL0     H26751   8.681   8.564   4.125 -0.4690  3.6924 -2.0878
  203MOL0     H26752   8.499   8.483   3.988 -0.7332 -1.3472  0.5859
  203MOL0     H26753   8.566   8.346   4.060 -1.3158 -1.4291 -1.9394
  203MOL0     H26754   8.614   8.485   3.798  0.2106  0.6539 -0.8993
  203MOL0     H26755   8.704   8.332   3.829  0.0392  0.7367  0.0825
  203MOL0     H26756   8.480   8.221   3.868  2.9965 -0.1266  1.0572
  203MOL0     H26757   8.520   8.266   3.691  1.4317  1.8728  0.2403
  203MOL0     H26758   8.154   8.438   3.888  0.2030 -0.2956 -0.0468
  203MOL0     H26759   7.941   8.315   3.870  0.4914 -1.0209  0.1058
  203MOL0     H26760   7.623   8.000   3.627  2.0021 -0.9949  1.6547
  203MOL0     H26761   7.399   7.947   3.671 -1.2167  0.3714 -0.6901
  203MOL0     H26762   7.197   7.872   3.801  0.4506  0.3551 -1.3414
  203MOL0     H26763   7.178   8.005   3.688  1.2792 -1.7145 -0.6128
  203MOL0     H26764   6.965   8.081   3.824 -0.0447 -0.2354 -2.1929
  203MOL0     H26765   7.000   7.958   3.941 -0.3096 -2.4203 -0.4042
  203MOL0     H26766   6.964   7.787   3.792  0.9474  1.5838  2.3579
  203MOL0     H26767   6.945   7.896   3.655 -1.5532 -0.2269 -0.7157
  203MOL0     H26768   6.754   7.863   3.894 -0.4998  0.7678  0.3895
  203MOL0     H26769   6.739   7.993   3.797  0.3146  1.1082 -1.4458
  203MOL0     H26770   6.578   7.796   3.749 -0.3261 -2.1481 -0.7866
  203MOL0     H26771   6.713   7.699   3.702  2.8254  0.4777 -0.7063
  203MOL0     H26772   6.767   7.854   3.518 -0.5724 -1.0360 -0.7907
  203MOL0     H26773   6.652   7.972   3.582  2.7696  1.1579 -0.9834
  203MOL0     H26774   6.589   7.704   3.447 -2.2061 -0.3289  1.0737
  203MOL0     H26775   6.472   7.791   3.544 -0.4767  0.0495 -0.6018
  203MOL0     H26776   6.602   7.953   3.313 -4.0127  2.8953 -2.6484
  203MOL0     H26777   6.476   7.993   3.427  0.9120  0.4599  0.6885
  203MOL0     H26778   7.380   8.227   3.985 -2.4684 -2.7814 -0.4267
  203MOL0     H26779   7.627   8.287   3.935  0.4131 -0.7900  0.4011
  203MOL0     H26780   8.098   8.074   3.565 -1.5550 -0.8707  0.9560
  203MOL0     H26781   8.336   8.165   3.612 -0.9759 -2.3589  0.3180
  203MOL0     H26782   9.354   8.844   5.077  0.6952 -0.2013 -0.2301
  203MOL0     H26783   9.465   9.062   5.078  3.0654  1.7967  3.7517
  203MOL0     H26784   9.881   9.238   5.239  0.0557  0.6010  2.1018
  203MOL0     H26785  10.042   9.429   5.272 -0.2639 -2.3712  0.0388
  203MOL0     H26786  10.176   9.603   5.260 -0.2378  0.1881  0.3697
  203MOL0     H26787  10.054   9.651   5.367  1.3264 -0.7494  0.0282
  203MOL0     H26788  10.246   9.817   5.355  0.3365  2.3363  0.2736
  203MOL0     H26789  10.199   9.856   5.193  2.4008  1.3267  2.7586
  203MOL0     H26790  10.115  10.014   5.353 -0.1737 -0.3860  0.8091
  203MOL0     H26791  10.019   9.889   5.440 -1.9523 -0.6949 -0.6033
  203MOL0     H26792   9.881   9.843   5.257  0.8438 -0.7634 -1.8032
  203MOL0     H26793   9.856  10.009   5.300 -0.4272 -1.1565  1.5677
  203MOL0     H26794   9.964  10.042   4.891  1.3455 -1.6511  0.0864
  203MOL0     H26795   9.820   9.660   4.986 -0.9049  0.0842 -0.4506
  203MOL0     H26796   9.700   9.461   4.931 -0.5564  3.0196  0.9021
  204MOL0     O26797   4.606   0.762   4.934 -0.0369  0.6683 -0.0127
  204MOL0     C26798   4.675   0.742   4.833  0.3847  0.8405 -0.9422
  204MOL0     O26799   4.628   0.696   4.711  0.4835 -0.0951 -0.0649
  204MOL0     C26800   4.500   0.664   4.704  0.4799 -0.5549  0.2645
  204MOL0     C26801   4.439   0.577   4.791 -0.1790  0.9205  0.3578
  204MOL0     C26802   4.307   0.532   4.771  0.3289  0.4665  1.3906
  204MOL0     C26803   4.243   0.561   4.653  0.7490 -0.6057  0.7312
  204MOL0     O26804   4.111   0.528   4.622 -0.1404  0.0772  0.5926
  204MOL0     C26805   4.039   0.436   4.700  0.6795  0.1373  0.3616
  204MOL0     C26806   3.894   0.478   4.680 -0.1923  0.9425 -0.2104
  204MOL0     C26807   3.786   0.372   4.713 -1.2535  0.0921 -0.3226
  204MOL0     C26808   3.657   0.392   4.637  0.7061 -0.7934  0.1912
  204MOL0     C26809   3.547   0.302   4.680 -0.1741  0.2331 -0.0106
  204MOL0     C26810   3.403   0.353   4.648  0.0854 -0.1583 -0.1588
  204MOL0     C26811   3.288   0.243   4.655 -0.2321 -0.4671 -0.0910
  204MOL0     C26812   3.253   0.161   4.527 -0.4214  0.0299 -0.0418
  204MOL0     N26813   3.134   0.080   4.553 -0.4033  0.2958 -0.8193
  204MOL0     C26814   3.017   0.081   4.484  0.5020  0.2930  1.0690
  204MOL0     C26815   2.938  -0.019   4.523  0.1937  1.1867 -0.4705
  204MOL0     C26816   2.803  -0.071   4.461 -1.0030 -0.3693 -0.6516
  204MOL0     C26817   2.690   0.006   4.535 -0.0376 -0.5076 -0.0120
  204MOL0     C26818   2.561  -0.030   4.469  0.1144 -0.1273 -0.5219
  204MOL0     C26819   2.440   0.030   4.541  0.3141 -0.3002 -0.2588
  204MOL0     O26820   2.441   0.168   4.503 -0.2675 -0.6716 -0.2994
  204MOL0     C26821   2.327   0.246   4.529 -0.4404 -0.3720 -0.5318
  204MOL0     C26822   2.340   0.362   4.601 -0.0807  0.5081 -0.4250
  204MOL0     C26823   2.225   0.438   4.623 -0.3693  0.6113  0.1687
  204MOL0     C26824   2.102   0.390   4.586  0.6058 -0.6284  0.3155
  204MOL0     C26825   1.983   0.464   4.623  0.6085 -0.1351  0.3363
  204MOL0     O26826   1.993   0.595   4.666  0.6319 -0.6276 -0.1561
  204MOL0     C26827   1.875   0.663   4.712  0.7857 -1.0766  0.6852
  204MOL0     C26828   1.765   0.611   4.778  0.3503 -0.9593 -0.3295
  204MOL0     C26829   1.651   0.691   4.809  0.2999 -0.5045  0.0922
  204MOL0     C26830   1.646   0.827   4.781  1.0031 -0.3029 -0.9445
  204MOL0     O26831   1.540   0.908   4.829  0.0623  0.2869 -0.0962
  204MOL0     C26832   1.452   0.848   4.923  0.0975  1.1089  0.2752
  204MOL0     C26833   1.357   0.954   4.973  0.3659 -0.0851  0.2480
  204MOL0     C26834   1.251   0.993   4.876 -0.2991  0.4697 -0.7520
  204MOL0     C26835   1.168   1.108   4.924  0.7552  0.6861  0.2081
  204MOL0     C26836   1.094   1.178   4.803  0.5862 -0.2961  1.1581
  204MOL0     C26837   0.965   1.099   4.771 -0.0786 -0.7208  0.3372
  204MOL0     C26838   0.866   1.189   4.701 -0.0754 -0.2896  0.1003
  204MOL0     C26839   0.747   1.128   4.629 -0.3780  0.4661 -0.4580
  204MOL0    Cl26840   0.607   1.090   4.731 -0.2741  0.2217  0.4036
  204MOL0     C26841   1.754   0.876   4.717  0.7528 -0.0732  0.0019
  204MOL0     C26842   1.864   0.800   4.672  0.5499 -0.5439 -0.4475
  204MOL0     O26843   1.880   0.411   4.593  0.4667  0.1781 -0.3767
  204MOL0     C26844   2.086   0.273   4.516  0.4794 -0.2307 -0.4656
  204MOL0     C26845   2.203   0.202   4.490 -0.5174  0.8725 -1.0188
  204MOL0     N26846   3.004  -0.084   4.625 -0.2067 -0.4630  0.0549
  204MOL0     N26847   3.118  -0.030   4.638  0.8391  0.0146 -0.9877
  204MOL0     C26848   4.293   0.667   4.576  0.2672  0.3720  0.6052
  204MOL0     C26849   4.419   0.723   4.602 -0.4454  0.6973 -0.3003
  204MOL0     C26850   4.811   0.796   4.832  0.2552  0.0764  0.0432
  204MOL0     C26851   4.860   0.877   4.938 -0.0575 -0.6419  0.0597
  204MOL0     C26852   4.997   0.909   4.927  0.3914 -0.2530 -0.5089
  204MOL0     C26853   5.081   0.886   4.826 -0.6203  0.2948  0.4896
  204MOL0     O26854   5.212   0.934   4.828 -0.3752  0.3482 -0.3343
  204MOL0     C26855   5.298   0.892   4.717  0.8951  0.3530  0.4286
  204MOL0     C26856   5.431   0.948   4.741  0.0964 -0.0862  0.1761
  204MOL0     C26857   5.525   0.892   4.637 -0.2587  0.0590  1.1080
  204MOL0     C26858   5.674   0.948   4.642  0.4577 -0.5411 -0.0127
  204MOL0     C26859   5.679   1.100   4.623 -0.3104  0.8613 -0.5465
  204MOL0     C26860   5.672   1.219   4.619 -0.5680  0.5940 -0.2329
  204MOL0     C26861   5.036   0.804   4.723  1.0173 -0.7953  1.6030
  204MOL0     C26862   4.903   0.760   4.726  0.3915 -0.3336  0.1084
  204MOL0     H26863   4.488   0.526   4.873 -1.6502 -0.9763  0.1225
  204MOL0     H26864   4.252   0.466   4.837 -1.2671 -0.7054 -0.9778
  204MOL0     H26865   4.067   0.448   4.805  5.5030  2.7248 -0.9196
  204MOL0     H26866   4.048   0.330   4.675 -6.1966 -0.7512 -0.1122
  204MOL0     H26867   3.884   0.507   4.575 -1.8176 -0.6644 -0.5423
  204MOL0     H26868   3.875   0.570   4.736 -1.7297  0.3594  0.2650
  204MOL0     H26869   3.772   0.369   4.821 -0.6051 -2.0998 -0.2590
  204MOL0     H26870   3.827   0.277   4.678 -2.3551 -0.2882 -0.6350
  204MOL0     H26871   3.639   0.494   4.672  2.0356 -0.6674  0.5280
  204MOL0     H26872   3.665   0.389   4.527 -4.9817  1.9348 -0.6651
  204MOL0     H26873   3.549   0.289   4.789 -2.0915 -2.8487 -0.2344
  204MOL0     H26874   3.555   0.204   4.633 -2.4798 -0.5647  1.0926
  204MOL0     H26875   3.408   0.387   4.544 -0.4945 -1.2727 -0.5621
  204MOL0     H26876   3.388   0.438   4.716 -0.2607 -1.2796  1.1986
  204MOL0     H26877   3.303   0.172   4.737 -0.3184 -0.6688 -0.2494
  204MOL0     H26878   3.203   0.301   4.690  3.1146  2.4043  4.4289
  204MOL0     H26879   3.341   0.102   4.500  0.0128 -0.2944  1.9375
  204MOL0     H26880   3.232   0.228   4.443 -2.7774  0.2614  0.6558
  204MOL0     H26881   2.996   0.161   4.413  0.4105  0.6088  1.4494
  204MOL0     H26882   2.781  -0.177   4.480  2.5923 -1.8313 -3.3031
  204MOL0     H26883   2.802  -0.062   4.352 -0.8880 -2.0956 -0.8311
  204MOL0     H26884   2.716   0.113   4.529  1.4095 -0.7858  0.7825
  204MOL0     H26885   2.684  -0.015   4.642 -3.1727  3.5180  0.8621
  204MOL0     H26886   2.549   0.007   4.367  0.8120  1.3156 -0.1138
  204MOL0     H26887   2.546  -0.138   4.469  2.5834 -0.5338  0.4890
  204MOL0     H26888   2.443   0.032   4.650 -0.1487  1.4700 -0.2431
  204MOL0     H26889   2.349  -0.022   4.507  0.3589 -2.1844  2.2255
  204MOL0     H26890   2.436   0.394   4.639 -1.0924  1.0891  1.7972
  204MOL0     H26891   2.232   0.518   4.695  2.0800 -0.2340  0.9916
  204MOL0     H26892   1.753   0.505   4.795 -2.7024 -1.0080 -2.1344
  204MOL0     H26893   1.566   0.637   4.851  0.2389  0.4655  1.2777
  204MOL0     H26894   1.512   0.813   5.007  1.1837  0.0961 -0.8954
  204MOL0     H26895   1.392   0.765   4.884 -2.5614  1.9452  2.2205
  204MOL0     H26896   1.406   1.046   5.006 -1.6903  0.9724  0.4988
  204MOL0     H26897   1.300   0.914   5.057 -1.2014  1.7738  0.1437
  204MOL0     H26898   1.195   0.904   4.845  3.3410 -2.9555  1.5901
  204MOL0     H26899   1.318   1.021   4.794  1.1027 -2.5292 -0.7834
  204MOL0     H26900   1.096   1.075   5.000 -2.6741  1.7009 -2.3689
  204MOL0     H26901   1.219   1.190   4.975  0.5866  0.0783  1.4003
  204MOL0     H26902   1.164   1.196   4.721  2.5158 -0.0650  2.7722
  204MOL0     H26903   1.067   1.279   4.835 -1.1682 -0.3493 -0.0199
  204MOL0     H26904   0.936   1.062   4.869  3.7560  0.0611  1.9486
  204MOL0     H26905   0.989   1.004   4.724 -2.3406 -2.0391  1.6519
  204MOL0     H26906   0.819   1.263   4.767 -0.4488 -0.6458  0.2412
  204MOL0     H26907   0.922   1.249   4.629  0.2848 -0.2161  0.4428
  204MOL0     H26908   0.788   1.044   4.572  0.5655  0.2669  0.4808
  204MOL0     H26909   0.701   1.210   4.573  1.8832  3.2445  1.4450
  204MOL0     H26910   1.757   0.984   4.704  1.4770 -0.3771 -3.1510
  204MOL0     H26911   1.953   0.845   4.631 -0.7563  1.4525 -1.2356
  204MOL0     H26912   1.991   0.230   4.484  1.1759 -5.2928  3.0451
  204MOL0     H26913   2.177   0.109   4.442 -3.5299  0.4171  1.1820
  204MOL0     H26914   4.234   0.692   4.488  0.1855 -1.7697 -0.0130
  204MOL0     H26915   4.461   0.792   4.530  2.9208 -1.0976 -0.2256
  204MOL0     H26916   4.798   0.907   5.022 -0.7461  1.8647 -1.2619
  204MOL0     H26917   5.043   0.958   5.013 -1.7104 -1.1019  1.1751
  204MOL0     H26918   5.260   0.935   4.623 -0.9593  2.7920  2.1534
  204MOL0     H26919   5.301   0.783   4.706 -2.0935  0.1208  1.0268
  204MOL0     H26920   5.433   1.056   4.726  0.5112 -0.3544 -2.0325
  204MOL0     H26921   5.469   0.932   4.842 -0.5229  0.7666  0.5550
  204MOL0     H26922   5.487   0.896   4.535  0.1288 -1.4470  0.8725
  204MOL0     H26923   5.542   0.785   4.655 -0.3333 -0.3783 -1.1585
  204MOL0     H26924   5.712   0.919   4.741 -0.5554 -1.4755  0.1173
  204MOL0     H26925   5.736   0.908   4.561 -0.8656  1.0963 -1.9270
  204MOL0     H26926   5.674   1.324   4.598 -0.6840  0.9297  1.2697
  204MOL0     H26927   5.094   0.759   4.643 -1.6797 -0.4245 -0.7410
  204MOL0     H26928   4.883   0.684   4.651  1.2356  0.2728 -0.7440
  205MOL0     O26929   7.638   1.487   7.591  0.4488  0.5132  0.0393
  205MOL0     C26930   7.599   1.415   7.498  0.5176  1.1126 -1.0770
  205MOL0     O26931   7.463   1.398   7.457 -0.4903 -0.5143  0.2236
  205MOL0     C26932   7.365   1.455   7.530 -0.3929  0.3621 -0.2036
  205MOL0     C26933   7.280   1.374   7.604 -0.1997  0.1665  0.2433
  205MOL0     C26934   7.177   1.435   7.681 -0.1731 -0.2968  0.4357
  205MOL0     C26935   7.151   1.575   7.662  0.5016  0.0572  0.5155
  205MOL0     O26936   7.045   1.643   7.718  0.1265 -0.5223  0.1237
  205MOL0     C26937   6.927   1.570   7.756 -0.2840 -0.1451 -1.4650
  205MOL0     C26938   6.813   1.671   7.759 -0.0058  0.3418 -0.2846
  205MOL0     C26939   6.687   1.612   7.823 -0.4027  0.1718 -0.1507
  205MOL0     C26940   6.583   1.725   7.808 -0.2520  0.0317 -0.0685
  205MOL0     C26941   6.446   1.716   7.882 -0.3139  1.1924  0.7225
  205MOL0     C26942   6.460   1.746   8.037 -0.4515  0.3448  0.4146
  205MOL0     C26943   6.336   1.711   8.120  0.0227 -0.4659  0.4418
  205MOL0     C26944   6.207   1.779   8.074  0.3048 -0.0872  0.2163
  205MOL0     N26945   6.131   1.811   8.191  0.3579  0.0519  1.0510
  205MOL0     C26946   6.013   1.755   8.241 -0.1189  0.5707  0.7688
  205MOL0     C26947   5.956   1.839   8.330  0.7366 -0.1308 -0.2653
  205MOL0     C26948   5.839   1.793   8.413 -0.6190  0.2580 -0.3734
  205MOL0     C26949   5.703   1.755   8.339 -0.6940 -0.6594 -0.2507
  205MOL0     C26950   5.655   1.881   8.263  0.7939 -0.3976  0.6441
  205MOL0     C26951   5.506   1.863   8.224  1.0890 -0.3397  0.6702
  205MOL0     O26952   5.428   1.912   8.336 -0.1101  0.3644  0.5301
  205MOL0     C26953   5.308   1.848   8.353  0.0501 -0.0953  0.0121
  205MOL0     C26954   5.216   1.860   8.249 -0.2213 -0.1397 -0.2744
  205MOL0     C26955   5.095   1.802   8.256  0.3283  0.1305  0.1933
  205MOL0     C26956   5.054   1.728   8.366 -0.6817  0.2977 -0.0407
  205MOL0     C26957   4.925   1.646   8.371  0.3263 -0.3173  0.3038
  205MOL0     O26958   4.855   1.657   8.251 -0.0233 -0.1867 -0.2483
  205MOL0     C26959   4.729   1.603   8.235  0.3899 -0.5548 -0.0140
  205MOL0     C26960   4.714   1.487   8.158  0.0243  0.6270 -0.0036
  205MOL0     C26961   4.585   1.427   8.141 -0.0991  0.4040  0.1030
  205MOL0     C26962   4.482   1.482   8.215  0.1625  0.1223 -0.1533
  205MOL0     O26963   4.358   1.430   8.209 -0.2697 -0.6919  0.0127
  205MOL0     C26964   4.279   1.467   8.097 -0.2417 -0.8122 -0.2166
  205MOL0     C26965   4.154   1.382   8.075  0.2760  0.4223 -0.0132
  205MOL0     C26966   4.160   1.231   8.122  0.5811  0.2702  0.4879
  205MOL0     C26967   4.251   1.144   8.038  0.4633 -0.0357 -0.6577
  205MOL0     C26968   4.240   0.998   8.091 -0.0311 -0.0135  0.1276
  205MOL0     C26969   4.303   0.906   7.994 -0.0222  0.0243 -0.2794
  205MOL0     C26970   4.364   0.780   8.061 -0.5879 -0.8442 -0.2031
  205MOL0     C26971   4.263   0.673   8.100 -0.7650 -0.3326  0.2597
  205MOL0    Cl26972   4.334   0.503   8.074 -0.0280  0.1133  0.1835
  205MOL0     C26973   4.501   1.603   8.289  0.6916 -0.2360 -0.4238
  205MOL0     C26974   4.616   1.674   8.298 -0.3959  0.3068 -0.7292
  205MOL0     O26975   4.887   1.585   8.467  0.4699  0.3762  0.7093
  205MOL0     C26976   5.143   1.726   8.477  0.2118 -0.0358 -0.3367
  205MOL0     C26977   5.268   1.785   8.473 -0.2289 -0.8167  0.6026
  205MOL0     N26978   6.035   1.952   8.342  0.8251 -0.3468 -0.7180
  205MOL0     N26979   6.125   1.934   8.247  0.3306 -0.0183 -0.9888
  205MOL0     C26980   7.234   1.660   7.586 -1.2909 -0.0512  0.3494
  205MOL0     C26981   7.346   1.597   7.524  0.0173  0.4922  0.5814
  205MOL0     C26982   7.700   1.337   7.427 -0.4818  0.3231  0.3391
  205MOL0     C26983   7.830   1.336   7.470 -0.7843  0.6700  0.5093
  205MOL0     C26984   7.932   1.268   7.398  0.7340  0.8195 -0.1170
  205MOL0     C26985   7.900   1.180   7.295  0.5215 -0.4075  0.4106
  205MOL0     O26986   8.006   1.109   7.244  0.2455  0.1908 -0.1122
  205MOL0     C26987   7.981   0.983   7.163  0.1384  0.3778  0.0412
  205MOL0     C26988   8.026   1.012   7.017  0.8026  0.1050  0.1270
  205MOL0     C26989   8.171   1.072   7.017  0.7701  0.0069  0.9517
  205MOL0     C26990   8.214   1.118   6.885 -0.1132  0.6085  1.1161
  205MOL0     C26991   8.351   1.169   6.900  0.3086 -0.3646 -0.0193
  205MOL0     C26992   8.463   1.216   6.898  0.1075  0.4143  0.2946
  205MOL0     C26993   7.772   1.171   7.252  0.5547  0.7765  0.6016
  205MOL0     C26994   7.667   1.252   7.314 -0.5628  0.2631 -0.0134
  205MOL0     H26995   7.297   1.267   7.599 -0.5274  0.1683 -2.6697
  205MOL0     H26996   7.116   1.377   7.749  1.8851  0.1134  2.7592
  205MOL0     H26997   6.939   1.522   7.854  0.4253  2.1378 -0.3565
  205MOL0     H26998   6.901   1.485   7.693  0.7190  0.1203 -2.2514
  205MOL0     H26999   6.799   1.706   7.656  1.6775 -0.5585 -0.8618
  205MOL0     H27000   6.839   1.755   7.825 -2.3266  0.4564  0.5935
  205MOL0     H27001   6.710   1.576   7.923 -0.6858 -0.2693 -0.2409
  205MOL0     H27002   6.645   1.523   7.775  0.5645 -0.6675  0.5213
  205MOL0     H27003   6.630   1.817   7.843  0.8782  0.8493 -3.3400
  205MOL0     H27004   6.559   1.743   7.702 -0.1722  3.3915  0.3745
  205MOL0     H27005   6.397   1.622   7.856  0.2115  1.1182 -0.0225
  205MOL0     H27006   6.377   1.793   7.845  0.0463  1.2081  0.0833
  205MOL0     H27007   6.482   1.852   8.056  0.0973  0.4575 -0.7232
  205MOL0     H27008   6.550   1.697   8.075  0.7736  1.6315 -0.7028
  205MOL0     H27009   6.311   1.605   8.123 -2.1456  0.0121  1.0707
  205MOL0     H27010   6.356   1.727   8.226 -0.3911  0.4507  0.3883
  205MOL0     H27011   6.157   1.711   8.005 -0.3009 -0.0401  0.6041
  205MOL0     H27012   6.232   1.870   8.019  2.4984  2.2812  4.5829
  205MOL0     H27013   5.985   1.654   8.212 -0.9389  0.9758  0.0840
  205MOL0     H27014   5.818   1.873   8.485 -0.3135  1.9517 -2.1136
  205MOL0     H27015   5.874   1.703   8.466 -1.0075 -0.8663 -1.9748
  205MOL0     H27016   5.641   1.727   8.425  1.5867 -4.3274  0.4097
  205MOL0     H27017   5.718   1.672   8.270 -1.4218 -0.8163 -0.2272
  205MOL0     H27018   5.654   1.964   8.334  1.7402 -1.0921  1.5153
  205MOL0     H27019   5.712   1.902   8.172 -1.0838 -0.8067 -0.6866
  205MOL0     H27020   5.496   1.756   8.202  1.6211 -0.6766  1.9786
  205MOL0     H27021   5.478   1.922   8.136 -2.0615 -2.9391 -0.2580
  205MOL0     H27022   5.242   1.920   8.162  1.3634  0.1163  0.3413
  205MOL0     H27023   5.030   1.820   8.171  0.8443  2.7645  0.2685
  205MOL0     H27024   4.799   1.448   8.102 -1.0180 -1.4893 -0.1854
  205MOL0     H27025   4.589   1.344   8.071  1.8826  1.6855 -1.3912
  205MOL0     H27026   4.338   1.476   8.006  0.3858  1.1110  0.3234
  205MOL0     H27027   4.246   1.571   8.098 -0.3226 -0.7566  2.8891
  205MOL0     H27028   4.123   1.373   7.971 -1.8193 -0.1479  0.5985
  205MOL0     H27029   4.067   1.431   8.119  0.7128  1.0047  0.2050
  205MOL0     H27030   4.056   1.200   8.110  0.5968 -0.4377  2.0065
  205MOL0     H27031   4.189   1.233   8.227  1.0572  1.9197  0.3604
  205MOL0     H27032   4.216   1.140   7.935  0.8103 -1.0867 -0.7541
  205MOL0     H27033   4.354   1.179   8.050 -0.7733  3.2073  1.9340
  205MOL0     H27034   4.136   0.966   8.102  0.6359 -1.4687  3.3995
  205MOL0     H27035   4.295   0.996   8.186 -0.8740  2.0704  0.7029
  205MOL0     H27036   4.379   0.954   7.931  0.5237  0.1586  0.4623
  205MOL0     H27037   4.222   0.882   7.925  0.1845  2.4349 -1.4706
  205MOL0     H27038   4.428   0.726   7.991  0.3363 -1.8176  1.3377
  205MOL0     H27039   4.435   0.821   8.134 -1.0389 -0.3929 -0.0137
  205MOL0     H27040   4.171   0.674   8.040  0.2001  1.4887 -1.2765
  205MOL0     H27041   4.232   0.678   8.205 -2.2257 -2.7048  0.0282
  205MOL0     H27042   4.403   1.628   8.327  0.9803 -0.1480  0.2933
  205MOL0     H27043   4.624   1.759   8.365 -1.7859 -0.6820  0.7522
  205MOL0     H27044   5.109   1.675   8.567  3.3085 -1.5902  0.1319
  205MOL0     H27045   5.342   1.763   8.549  0.6839 -3.3063 -0.8581
  205MOL0     H27046   7.215   1.766   7.574 -0.5233  0.0482 -0.0772
  205MOL0     H27047   7.407   1.647   7.450 -0.9460 -0.4268 -0.8728
  205MOL0     H27048   7.871   1.382   7.559 -1.2195 -2.8325  2.7435
  205MOL0     H27049   8.037   1.269   7.425  0.4173 -0.7639  1.3563
  205MOL0     H27050   7.883   0.936   7.176 -0.6648  1.7583 -0.7449
  205MOL0     H27051   8.054   0.914   7.205  1.8869  1.8407 -0.4386
  205MOL0     H27052   8.050   0.914   6.974  3.4065 -0.0744  1.7295
  205MOL0     H27053   7.959   1.061   6.947  0.0996 -0.1923  0.5840
  205MOL0     H27054   8.240   0.993   7.048 -1.1036 -0.7583  3.4808
  205MOL0     H27055   8.173   1.159   7.083 -2.7984 -0.0443  1.3092
  205MOL0     H27056   8.218   1.035   6.815 -0.0998 -0.3896  2.2631
  205MOL0     H27057   8.146   1.199   6.857  0.7032  1.9883  2.8955
  205MOL0     H27058   8.561   1.255   6.884 -0.3264  2.2126  1.8103
  205MOL0     H27059   7.739   1.107   7.170 -2.9825  0.7921  1.8396
  205MOL0     H27060   7.562   1.239   7.290 -1.6033 -0.9196  4.2430
  206MOL0     O27061   7.593  11.181   0.529  0.5737 -0.3386  0.1056
  206MOL0     C27062   7.637  11.108   0.619 -0.4549  0.0221  0.0730
  206MOL0     O27063   7.585  10.984   0.673  0.0422 -0.0838 -0.0389
  206MOL0     C27064   7.467  10.943   0.615  0.2666 -1.0224 -0.0334
  206MOL0     C27065   7.354  11.032   0.616  1.1110  1.2599 -0.1390
  206MOL0     C27066   7.228  10.991   0.558  0.5750  0.1334 -0.4874
  206MOL0     C27067   7.217  10.865   0.506 -0.1167  0.4421  0.9023
  206MOL0     O27068   7.096  10.816   0.456  0.1109  0.3333  0.1428
  206MOL0     C27069   6.966  10.879   0.475 -0.1641 -0.0969 -0.1876
  206MOL0     C27070   6.879  10.830   0.359  0.1980 -0.1338  0.1351
  206MOL0     C27071   6.747  10.906   0.370 -0.5085 -0.0888 -0.1216
  206MOL0     C27072   6.658  10.849   0.484  0.2313  0.3493 -0.4888
  206MOL0     C27073   6.517  10.913   0.489 -0.0271  0.3588  0.7174
  206MOL0     C27074   6.423  10.883   0.369 -0.4544  0.3818 -0.9250
  206MOL0     C27075   6.285  10.948   0.396 -0.1096 -0.3283  0.1762
  206MOL0     C27076   6.203  10.889   0.506  0.2166 -0.1068 -0.5098
  206MOL0     N27077   6.065  10.946   0.531  0.8691 -0.3649  0.0227
  206MOL0     C27078   5.965  10.942   0.438 -0.4728  0.2030 -0.5392
  206MOL0     C27079   5.854  10.975   0.506  0.0039  0.0641  0.5196
  206MOL0     C27080   5.722  10.987   0.440 -0.3525 -1.0945 -0.2116
  206MOL0     C27081   5.714  11.142   0.410  0.3967 -0.2211  0.5697
  206MOL0     C27082   5.575  11.172   0.348  0.1382 -0.2473  0.1442
  206MOL0     C27083   5.454  11.151   0.447 -0.0563 -0.0131 -0.3090
  206MOL0     O27084   5.325  11.182   0.386 -0.7422 -0.1093  0.1602
  206MOL0     C27085   5.218  11.211   0.475  0.1161 -0.8640  0.2956
  206MOL0     C27086   5.097  11.259   0.419 -0.1845 -0.5882  0.0582
  206MOL0     C27087   4.988  11.290   0.505 -0.3467 -0.0178  0.2389
  206MOL0     C27088   4.995  11.274   0.646 -1.1165  0.1078 -0.3542
  206MOL0     C27089   4.884  11.299   0.733 -0.1592  0.2146  1.1706
  206MOL0     O27090   4.765  11.354   0.671  0.4346 -0.5386  0.3967
  206MOL0     C27091   4.653  11.404   0.730  0.7158  0.7437  0.5450
  206MOL0     C27092   4.596  11.510   0.668 -0.3995 -0.4930  0.1036
  206MOL0     C27093   4.490  11.579   0.719  0.1970 -0.3951 -0.5955
  206MOL0     C27094   4.427  11.530   0.835 -0.6443  0.7810  0.4606
  206MOL0     O27095   4.313  11.596   0.878 -0.0717  0.0381  0.1070
  206MOL0     C27096   4.236  11.534   0.984  0.3841 -0.7855 -1.2228
  206MOL0     C27097   4.296  11.567   1.122  0.6658  0.4224 -0.2458
  206MOL0     C27098   4.320  11.716   1.143 -0.0116  0.2479  0.0926
  206MOL0     C27099   4.396  11.732   1.281 -0.1071  0.1422  0.7379
  206MOL0     C27100   4.312  11.712   1.406  0.1457 -0.1725  0.4451
  206MOL0     C27101   4.398  11.706   1.530 -0.6660  0.6074 -1.0846
  206MOL0     C27102   4.453  11.572   1.549 -0.0729 -0.4666 -0.8284
  206MOL0     C27103   4.535  11.567   1.672  0.0478  0.8834 -0.6421
  206MOL0    Cl27104   4.639  11.421   1.676  0.1256 -0.3820  0.1804
  206MOL0     C27105   4.479  11.415   0.894  0.6336  1.5872 -0.4052
  206MOL0     C27106   4.592  11.346   0.841 -0.1459 -0.2109  0.5988
  206MOL0     O27107   4.889  11.280   0.852  0.2677 -0.1211  0.8927
  206MOL0     C27108   5.114  11.214   0.693 -1.0716  0.2116  0.6279
  206MOL0     C27109   5.222  11.182   0.613 -0.0847  0.6275 -0.2075
  206MOL0     N27110   5.884  11.002   0.634  0.0554 -0.3623  0.0935
  206MOL0     N27111   6.015  10.985   0.649  0.4136  0.0426 -0.0024
  206MOL0     C27112   7.327  10.786   0.489  0.3311 -0.1929  0.4362
  206MOL0     C27113   7.448  10.818   0.549 -0.1988  0.0474 -0.0758
  206MOL0     C27114   7.762  11.157   0.677 -0.0860 -0.2656 -0.0275
  206MOL0     C27115   7.809  11.290   0.653 -0.4433 -0.3730  0.3889
  206MOL0     C27116   7.929  11.337   0.713  0.2084  0.0628  0.2962
  206MOL0     C27117   8.004  11.260   0.794 -0.7059  0.2420  0.9105
  206MOL0     O27118   8.114  11.324   0.850 -0.1192 -0.2301  0.2180
  206MOL0     C27119   8.218  11.242   0.912 -0.1897 -0.6509 -0.4280
  206MOL0     C27120   8.191  11.172   1.055 -0.4221 -0.1616  0.4837
  206MOL0     C27121   8.305  11.188   1.158 -0.4659  0.0304  0.0816
  206MOL0     C27122   8.442  11.122   1.126  0.3571 -0.6325 -0.1949
  206MOL0     C27123   8.534  11.160   1.240 -0.0822 -0.1608  0.1451
  206MOL0     C27124   8.606  11.177   1.334 -0.6653  0.9324 -0.1675
  206MOL0     C27125   7.957  11.129   0.822 -0.4070  0.0845  1.0732
  206MOL0     C27126   7.838  11.080   0.767  0.2996 -0.2739  0.5126
  206MOL0     H27127   7.354  11.132   0.660  1.8472  1.8563 -1.4339
  206MOL0     H27128   7.139  11.052   0.558 -0.8692 -1.8642 -1.2106
  206MOL0     H27129   6.977  10.987   0.470 -0.4305 -0.0894 -0.6924
  206MOL0     H27130   6.929  10.857   0.576 -0.5964  0.9967 -0.0900
  206MOL0     H27131   6.868  10.722   0.369  0.1022 -0.1013  0.3878
  206MOL0     H27132   6.924  10.863   0.265  0.0903  1.0105  0.4688
  206MOL0     H27133   6.696  10.886   0.275  2.2848  0.2880 -1.8393
  206MOL0     H27134   6.760  11.013   0.390  0.9999 -0.1934 -0.3964
  206MOL0     H27135   6.654  10.740   0.470 -0.6850  0.1613  1.0129
  206MOL0     H27136   6.701  10.860   0.584  0.3566 -1.5806 -0.2889
  206MOL0     H27137   6.521  11.021   0.503  0.1824  0.6253 -1.1521
  206MOL0     H27138   6.482  10.864   0.581  0.6950 -0.6163  0.4900
  206MOL0     H27139   6.406  10.776   0.354  0.4677  0.0998 -0.1163
  206MOL0     H27140   6.455  10.930   0.276 -0.2129 -2.7095 -2.5414
  206MOL0     H27141   6.293  11.054   0.423 -0.9359 -0.2985  0.3319
  206MOL0     H27142   6.233  10.942   0.300 -0.5493 -0.5632  0.4269
  206MOL0     H27143   6.265  10.896   0.595 -0.7011 -0.6077  0.1962
  206MOL0     H27144   6.200  10.783   0.478  2.5028 -0.3646  0.0472
  206MOL0     H27145   5.984  10.926   0.333 -0.5014  2.5502 -0.9548
  206MOL0     H27146   5.639  10.964   0.507 -0.5274 -2.7655 -0.9483
  206MOL0     H27147   5.706  10.922   0.353  0.7068  2.1462 -3.0778
  206MOL0     H27148   5.785  11.174   0.333  0.5000  1.1788  1.2245
  206MOL0     H27149   5.728  11.203   0.500 -2.0339 -0.3702  1.1061
  206MOL0     H27150   5.562  11.279   0.331 -2.7648 -0.8650 -2.4415
  206MOL0     H27151   5.556  11.131   0.249 -2.1713  1.8911 -0.3873
  206MOL0     H27152   5.480  11.207   0.537  1.5748 -1.3270  0.1081
  206MOL0     H27153   5.453  11.051   0.493 -1.0069  0.6581  1.2122
  206MOL0     H27154   5.103  11.288   0.314  2.5398 -0.6478  0.1201
  206MOL0     H27155   4.886  11.312   0.477  0.0374  0.1503 -1.1249
  206MOL0     H27156   4.647  11.537   0.576  0.1903 -0.9659  0.2888
  206MOL0     H27157   4.444  11.663   0.669  0.9101  0.2042 -0.2705
  206MOL0     H27158   4.228  11.428   0.962  2.3072 -0.6966 -2.6283
  206MOL0     H27159   4.134  11.575   0.978  1.0517  1.1134 -0.5146
  206MOL0     H27160   4.390  11.513   1.138  0.4860  0.4580  1.0189
  206MOL0     H27161   4.222  11.532   1.195  3.2332 -0.4356  2.1199
  206MOL0     H27162   4.228  11.775   1.138  1.6155  2.9129  0.0066
  206MOL0     H27163   4.384  11.747   1.060 -0.6559  0.2502 -0.4061
  206MOL0     H27164   4.473  11.656   1.269 -1.5367 -1.2229 -0.0435
  206MOL0     H27165   4.441  11.832   1.277 -1.2042  0.6129 -1.3857
  206MOL0     H27166   4.251  11.622   1.397  0.8048 -0.4454 -1.8902
  206MOL0     H27167   4.240  11.792   1.426 -0.3404 -0.3338 -0.5704
  206MOL0     H27168   4.331  11.736   1.611  1.1858  0.2196  0.6784
  206MOL0     H27169   4.477  11.782   1.526 -0.9804  1.0790  0.7062
  206MOL0     H27170   4.365  11.510   1.566 -0.4900  0.3681  0.1528
  206MOL0     H27171   4.518  11.549   1.464  0.3407  1.0029 -0.9480
  206MOL0     H27172   4.467  11.578   1.757 -1.0432 -2.5494 -0.9105
  206MOL0     H27173   4.604  11.652   1.678  0.4440  0.4579  2.3057
  206MOL0     H27174   4.433  11.362   0.977 -1.1450 -0.8036 -2.7553
  206MOL0     H27175   4.618  11.251   0.888  0.0287 -1.7157 -2.2930
  206MOL0     H27176   5.133  11.196   0.798 -1.5339 -1.7320  0.3967
  206MOL0     H27177   5.311  11.145   0.663 -1.6020 -2.2842  0.5582
  206MOL0     H27178   7.326  10.694   0.432  0.2683 -0.2989  0.6082
  206MOL0     H27179   7.534  10.754   0.532 -1.4325 -1.2323 -2.0449
  206MOL0     H27180   7.746  11.361   0.601 -0.4712  0.9887  2.2012
  206MOL0     H27181   7.953  11.442   0.704  0.2235  0.0679  0.3908
  206MOL0     H27182   8.303  11.310   0.922  0.3260 -1.3929  0.3877
  206MOL0     H27183   8.245  11.156   0.849  0.8727 -0.1820 -0.6384
  206MOL0     H27184   8.095  11.207   1.093 -2.5971 -3.2155 -1.7388
  206MOL0     H27185   8.179  11.065   1.035  0.8386 -0.2337  0.0163
  206MOL0     H27186   8.273  11.155   1.256  0.5154  1.0077  0.7626
  206MOL0     H27187   8.330  11.295   1.157  2.3909 -0.5349 -1.2589
  206MOL0     H27188   8.445  11.014   1.137  2.6803 -0.6749 -0.5866
  206MOL0     H27189   8.474  11.157   1.027 -0.7414  2.9488  0.5737
  206MOL0     H27190   8.678  11.190   1.412  0.5643 -0.3818 -1.0310
  206MOL0     H27191   8.019  11.060   0.879 -1.4790 -1.2088  0.7384
  206MOL0     H27192   7.815  10.976   0.786  2.2991 -0.4542  2.3222
  207MOL0     O27193   7.631   7.577   2.904 -0.0562  0.4036 -0.3668
  207MOL0     C27194   7.664   7.537   3.021  0.0545  0.5065  0.5750
  207MOL0     O27195   7.581   7.533   3.123 -0.0404 -0.3232  0.2757
  207MOL0     C27196   7.452   7.584   3.093  0.0580  0.4497  0.4227
  207MOL0     C27197   7.431   7.718   3.082  0.3535  0.5177 -0.1293
  207MOL0     C27198   7.297   7.755   3.069  0.6279 -0.7324 -0.0466
  207MOL0     C27199   7.191   7.664   3.070  0.4203 -0.4736 -0.2736
  207MOL0     O27200   7.069   7.715   3.044 -0.1750 -0.5389  0.0854
  207MOL0     C27201   6.960   7.680   3.132  0.2195 -0.1937 -0.6579
  207MOL0     C27202   6.865   7.800   3.130 -0.5888 -0.0170  0.6330
  207MOL0     C27203   6.733   7.775   3.055 -0.8194 -0.0791 -0.5123
  207MOL0     C27204   6.644   7.660   3.104 -0.3905 -0.8485  0.7442
  207MOL0     C27205   6.507   7.657   3.016 -0.4421 -0.0540 -0.1734
  207MOL0     C27206   6.411   7.552   3.079 -0.5311 -0.6681 -1.2854
  207MOL0     C27207   6.268   7.571   3.023 -0.6514  0.0936 -0.3468
  207MOL0     C27208   6.261   7.535   2.877  0.3921  0.4433 -0.4642
  207MOL0     N27209   6.123   7.548   2.830  0.4139  0.2095 -0.3719
  207MOL0     C27210   6.040   7.650   2.838  0.2159 -0.7809 -1.1350
  207MOL0     C27211   5.931   7.616   2.766 -0.7347  0.2286 -0.1644
  207MOL0     C27212   5.814   7.694   2.730  0.3881 -0.2920 -0.2642
  207MOL0     C27213   5.834   7.847   2.728  0.3237 -0.7357 -0.2567
  207MOL0     C27214   5.705   7.930   2.699 -0.1873 -0.9862 -0.4800
  207MOL0     C27215   5.674   7.945   2.556 -0.2776  0.4479 -0.3902
  207MOL0     O27216   5.559   8.022   2.524  0.1354  0.1207 -0.4595
  207MOL0     C27217   5.434   7.967   2.542  0.1828 -1.2376  0.4595
  207MOL0     C27218   5.339   8.070   2.553  0.1862  1.0545 -0.4042
  207MOL0     C27219   5.198   8.036   2.573  0.3141 -0.1195 -0.0450
  207MOL0     C27220   5.158   7.901   2.591 -0.5544 -0.7328 -0.7232
  207MOL0     C27221   5.017   7.851   2.595  0.5848 -0.3912 -0.5378
  207MOL0     O27222   4.995   7.733   2.668  0.4106  0.4692 -0.0077
  207MOL0     C27223   4.871   7.711   2.720  0.1453  0.5732 -0.0741
  207MOL0     C27224   4.809   7.583   2.725  0.1057 -0.8284 -1.3087
  207MOL0     C27225   4.694   7.570   2.803  0.5406 -0.3892 -0.3459
  207MOL0     C27226   4.634   7.671   2.876 -0.0381 -0.0559  0.0304
  207MOL0     O27227   4.521   7.666   2.951 -0.0113 -0.2094 -0.2381
  207MOL0     C27228   4.443   7.542   2.950  0.4124 -0.4429 -0.3032
  207MOL0     C27229   4.300   7.552   3.013  0.3929 -0.3577 -0.1801
  207MOL0     C27230   4.311   7.583   3.162  0.6515 -0.1813  0.0478
  207MOL0     C27231   4.168   7.595   3.228  0.6160  0.7192 -0.8296
  207MOL0     C27232   4.095   7.465   3.260 -0.5896  1.0412 -0.0050
  207MOL0     C27233   3.992   7.482   3.374  0.0934  0.0369 -0.4907
  207MOL0     C27234   3.870   7.393   3.373  0.6811  0.7211 -1.0709
  207MOL0     C27235   3.757   7.441   3.464  0.2672 -0.2110 -0.9228
  207MOL0    Cl27236   3.617   7.333   3.442  0.1083  0.2711 -0.1204
  207MOL0     C27237   4.694   7.798   2.874  0.2132 -0.3165  0.1167
  207MOL0     C27238   4.811   7.815   2.793  0.8449  0.0081  0.0308
  207MOL0     O27239   4.932   7.933   2.560  0.0119 -0.1644  0.2289
  207MOL0     C27240   5.267   7.802   2.583  0.8913  0.0990 -0.5731
  207MOL0     C27241   5.397   7.832   2.560  0.6419  0.1039 -0.0469
  207MOL0     N27242   5.948   7.482   2.722 -0.1251  0.0377 -0.1830
  207MOL0     N27243   6.068   7.449   2.760 -0.2287  0.0560 -0.6861
  207MOL0     C27244   7.212   7.532   3.094 -0.0145  0.4345  0.3021
  207MOL0     C27245   7.346   7.491   3.106  0.6369  0.5855 -0.3061
  207MOL0     C27246   7.814   7.528   3.039  0.1814  0.0681 -0.4620
  207MOL0     C27247   7.911   7.540   2.935  1.1635  0.5605  0.0055
  207MOL0     C27248   8.049   7.530   2.965  0.4292  0.4581  0.0649
  207MOL0     C27249   8.092   7.504   3.089  0.0950 -0.4197 -0.7440
  207MOL0     O27250   8.222   7.508   3.137  0.5074 -0.2297 -0.0375
  207MOL0     C27251   8.335   7.513   3.052 -0.3580 -0.0410 -0.0522
  207MOL0     C27252   8.460   7.468   3.127  0.1206 -1.1565  0.0217
  207MOL0     C27253   8.582   7.542   3.075 -1.0585 -0.9669  0.6284
  207MOL0     C27254   8.698   7.443   3.030  0.1425 -0.4956 -0.8379
  207MOL0     C27255   8.659   7.359   2.918 -0.3829 -0.7384  0.9222
  207MOL0     C27256   8.623   7.311   2.817 -1.4735  0.1457 -0.2603
  207MOL0     C27257   8.003   7.480   3.191 -0.2703  0.0254  0.7766
  207MOL0     C27258   7.863   7.490   3.168 -0.9593 -0.4234  0.1233
  207MOL0     H27259   7.513   7.789   3.080  0.6318  0.2071  0.2105
  207MOL0     H27260   7.284   7.862   3.060 -1.0169 -0.7002  1.8729
  207MOL0     H27261   7.003   7.675   3.233  2.3633  1.6062 -1.3890
  207MOL0     H27262   6.920   7.585   3.095  2.1926 -1.0357 -0.7442
  207MOL0     H27263   6.910   7.888   3.084  0.2486 -0.6748  0.1789
  207MOL0     H27264   6.851   7.829   3.235 -1.5216  1.5271  0.1168
  207MOL0     H27265   6.754   7.755   2.950 -3.2205  2.2701 -1.5405
  207MOL0     H27266   6.683   7.871   3.074  1.5398  1.1286  0.0319
  207MOL0     H27267   6.692   7.561   3.106  1.9291  0.2258  1.3988
  207MOL0     H27268   6.618   7.680   3.208  0.7873 -0.5564  1.0016
  207MOL0     H27269   6.539   7.624   2.917  1.7726  0.1084  0.4278
  207MOL0     H27270   6.461   7.756   3.003 -0.8065 -0.4673 -2.3586
  207MOL0     H27271   6.400   7.555   3.188 -1.1190 -0.5612 -1.3467
  207MOL0     H27272   6.453   7.453   3.064  0.4209 -0.3068 -1.1362
  207MOL0     H27273   6.207   7.505   3.084  3.2944 -2.2829  1.4341
  207MOL0     H27274   6.242   7.677   3.022 -0.7485  0.0872 -1.9542
  207MOL0     H27275   6.304   7.435   2.871  2.7239  1.3829 -0.3430
  207MOL0     H27276   6.327   7.598   2.817  1.7095 -0.8984 -0.4946
  207MOL0     H27277   6.062   7.749   2.877  1.5835 -0.4353 -2.7238
  207MOL0     H27278   5.733   7.672   2.800 -1.5628 -1.1844 -2.6648
  207MOL0     H27279   5.772   7.659   2.635  0.7105 -1.3298 -0.0295
  207MOL0     H27280   5.927   7.879   2.679  0.8315  4.4925  3.3107
  207MOL0     H27281   5.853   7.880   2.831  0.7335  1.9900 -1.1109
  207MOL0     H27282   5.621   7.887   2.754 -0.4495  1.3949  1.1377
  207MOL0     H27283   5.719   8.028   2.747  0.2478 -1.3061  0.0542
  207MOL0     H27284   5.663   7.843   2.519  1.0182 -0.6101  1.9722
  207MOL0     H27285   5.754   7.983   2.491 -0.5119 -0.1144 -1.0173
  207MOL0     H27286   5.362   8.176   2.544 -1.3992  1.3742 -0.9609
  207MOL0     H27287   5.124   8.115   2.575 -2.1121 -2.2618  1.7457
  207MOL0     H27288   4.848   7.500   2.667  1.6432 -1.3978  0.4338
  207MOL0     H27289   4.647   7.472   2.803 -3.0495  1.1565 -1.5153
  207MOL0     H27290   4.500   7.453   2.981  1.2933 -0.7495 -2.6564
  207MOL0     H27291   4.428   7.516   2.845 -2.1427  0.8228 -0.3250
  207MOL0     H27292   4.247   7.457   3.009 -1.5029  0.5214  2.0582
  207MOL0     H27293   4.241   7.630   2.964  0.5945  1.2022  1.9471
  207MOL0     H27294   4.363   7.679   3.171  2.5033 -1.0903 -0.4227
  207MOL0     H27295   4.376   7.515   3.217  2.1170  0.0037 -1.3997
  207MOL0     H27296   4.196   7.633   3.326  1.3173 -1.1544 -0.2557
  207MOL0     H27297   4.099   7.664   3.179 -1.8661 -1.8154 -1.1567
  207MOL0     H27298   4.171   7.390   3.283  0.2001  1.4791 -1.0590
  207MOL0     H27299   4.047   7.420   3.172 -0.0655  1.9836 -0.7990
  207MOL0     H27300   3.953   7.584   3.360 -1.5251 -0.2655  1.3318
  207MOL0     H27301   4.047   7.471   3.467  1.4047  4.6622 -0.4703
  207MOL0     H27302   3.818   7.392   3.277 -1.0814  0.0107 -0.1620
  207MOL0     H27303   3.902   7.292   3.399  2.1270  1.7296  1.4167
  207MOL0     H27304   3.723   7.542   3.439 -0.4713 -0.5796 -1.4570
  207MOL0     H27305   3.789   7.433   3.568  2.2017 -1.0931 -1.5392
  207MOL0     H27306   4.656   7.884   2.928  1.1584 -0.5169  1.1451
  207MOL0     H27307   4.857   7.913   2.804  0.4209  0.2136 -0.0407
  207MOL0     H27308   5.238   7.698   2.577  1.9172 -0.2121 -0.4449
  207MOL0     H27309   5.464   7.746   2.565 -0.5036 -0.8676 -0.8058
  207MOL0     H27310   7.141   7.449   3.089 -0.4970  0.8115  0.8077
  207MOL0     H27311   7.364   7.387   3.132  0.5866  0.5018 -0.5943
  207MOL0     H27312   7.877   7.547   2.832  0.0722  0.4910  0.3485
  207MOL0     H27313   8.123   7.535   2.886  2.4353 -1.7419  1.6691
  207MOL0     H27314   8.353   7.609   3.003  1.5615 -0.9808 -1.2784
  207MOL0     H27315   8.313   7.439   2.975  0.9469  2.2866 -2.8209
  207MOL0     H27316   8.436   7.488   3.231  1.0902  1.8023 -0.2197
  207MOL0     H27317   8.467   7.360   3.117 -0.5290 -1.2458  0.4987
  207MOL0     H27318   8.632   7.602   3.151  4.1850 -0.7318 -2.5807
  207MOL0     H27319   8.551   7.610   2.996 -2.3709 -0.9117  1.1606
  207MOL0     H27320   8.780   7.509   3.002 -0.0327  0.4378  0.7366
  207MOL0     H27321   8.727   7.379   3.114  0.4248  0.5141 -0.1419
  207MOL0     H27322   8.610   7.283   2.715 -2.4635 -0.0481 -0.0916
  207MOL0     H27323   8.043   7.454   3.288  1.1140 -1.8172 -0.2229
  207MOL0     H27324   7.788   7.476   3.246 -2.7179 -0.5587 -1.5173
  208MOL0     O27325   1.027   6.502   0.099  0.2737  0.1672  0.5482
  208MOL0     C27326   1.068   6.608   0.146  0.8209  0.3832  0.7637
  208MOL0     O27327   0.984   6.698   0.201 -0.2421 -1.3821  0.6733
  208MOL0     C27328   0.861   6.669   0.244 -0.1174 -0.0221  0.0065
  208MOL0     C27329   0.826   6.538   0.297 -0.3471  0.3342 -0.1293
  208MOL0     C27330   0.696   6.506   0.332 -0.8944 -0.6651  0.0347
  208MOL0     C27331   0.599   6.605   0.338 -0.8190  0.1752  0.4689
  208MOL0     O27332   0.479   6.560   0.388  0.5020 -0.5998  0.9040
  208MOL0     C27333   0.367   6.651   0.373 -0.1133  0.2176 -0.6580
  208MOL0     C27334   0.239   6.566   0.372  0.0123  0.6652  1.2104
  208MOL0     C27335   0.118   6.644   0.419 -0.2480  0.7862 -0.1008
  208MOL0     C27336  -0.008   6.587   0.369  0.5321  0.7331 -0.1376
  208MOL0     C27337  -0.130   6.641   0.450 -0.6057 -0.2754  0.0312
  208MOL0     C27338  -0.141   6.791   0.458 -0.0597  0.1577 -0.3242
  208MOL0     C27339  -0.270   6.831   0.525  0.3575 -0.3996 -0.8675
  208MOL0     C27340  -0.289   6.985   0.560  0.0013  0.0517  0.3525
  208MOL0     N27341  -0.394   7.009   0.662  0.5704  0.4278  0.2240
  208MOL0     C27342  -0.534   6.978   0.642 -0.6863  0.9708  0.0692
  208MOL0     C27343  -0.591   7.014   0.756 -0.1722 -0.4635 -1.5933
  208MOL0     C27344  -0.733   6.985   0.802 -0.0329  0.6703 -0.3893
  208MOL0     C27345  -0.804   7.106   0.856  0.0030  0.1618 -0.0373
  208MOL0     C27346  -0.911   7.056   0.949  0.3493  0.0558  0.2969
  208MOL0     C27347  -1.032   7.144   0.944  0.5154 -0.3906 -0.3205
  208MOL0     O27348  -1.140   7.079   1.016  0.3142 -0.5956 -0.5735
  208MOL0     C27349  -1.257   7.144   1.031  0.1151 -0.8036  0.1483
  208MOL0     C27350  -1.280   7.279   0.982 -0.3835 -0.1823  0.2741
  208MOL0     C27351  -1.407   7.339   0.990  0.3616 -0.9296 -0.5514
  208MOL0     C27352  -1.512   7.273   1.053 -0.1551  0.4471  0.7566
  208MOL0     C27353  -1.650   7.324   1.042  0.9124 -0.4461 -0.3168
  208MOL0     O27354  -1.747   7.241   1.092 -0.2442 -0.5826  0.7473
  208MOL0     C27355  -1.877   7.267   1.082  0.0300  0.3077  0.3369
  208MOL0     C27356  -1.952   7.250   0.961 -0.3335 -0.3272  0.3582
  208MOL0     C27357  -2.084   7.281   0.947 -0.1312  0.9435  0.0760
  208MOL0     C27358  -2.152   7.331   1.061  0.3920 -0.3694  0.1283
  208MOL0     O27359  -2.291   7.347   1.058  0.1204  0.0797  0.0943
  208MOL0     C27360  -2.374   7.279   0.955  0.2562 -0.2434 -0.4803
  208MOL0     C27361  -2.523   7.311   1.000 -0.2852 -0.4639 -0.1196
  208MOL0     C27362  -2.545   7.243   1.128  0.6321  1.4862 -0.5269
  208MOL0     C27363  -2.691   7.275   1.173 -0.2210  0.2661 -0.1943
  208MOL0     C27364  -2.730   7.209   1.305  0.7312  0.2415 -0.4897
  208MOL0     C27365  -2.865   7.262   1.346  0.0811 -0.3172  0.1209
  208MOL0     C27366  -2.920   7.204   1.484  0.1890 -0.3275  0.2778
  208MOL0     C27367  -2.842   7.279   1.594  0.3738 -0.6142  0.0326
  208MOL0    Cl27368  -2.912   7.436   1.622 -0.1337 -0.3834  0.1724
  208MOL0     C27369  -2.086   7.343   1.180  0.8834  0.2496 -0.1819
  208MOL0     C27370  -1.946   7.323   1.192  0.1796  1.0743  0.6583
  208MOL0     O27371  -1.670   7.432   1.002  0.1382  0.2637 -0.2902
  208MOL0     C27372  -1.488   7.140   1.105 -0.7357  0.1649  0.4899
  208MOL0     C27373  -1.360   7.076   1.089  0.5088 -0.5131  0.0396
  208MOL0     N27374  -0.497   7.059   0.845 -0.6246  0.3698 -0.5068
  208MOL0     N27375  -0.378   7.049   0.788  0.3794 -0.7142 -0.5065
  208MOL0     C27376   0.634   6.734   0.296 -0.0493 -0.1968  0.2739
  208MOL0     C27377   0.765   6.765   0.253 -0.2867  0.2528  0.5440
  208MOL0     C27378   1.207   6.629   0.148 -0.3751  0.4224  0.0933
  208MOL0     C27379   1.264   6.732   0.228 -0.6745 -0.0478  0.0303
  208MOL0     C27380   1.400   6.747   0.237 -1.0909 -0.5777  0.2951
  208MOL0     C27381   1.492   6.660   0.173  0.5318  0.0666  0.1488
  208MOL0     O27382   1.620   6.688   0.178  0.4492  0.2306 -0.9906
  208MOL0     C27383   1.697   6.617   0.080 -0.4676  0.6496  0.6751
  208MOL0     C27384   1.839   6.667   0.079  0.0796 -0.5484  0.9373
  208MOL0     C27385   1.925   6.603  -0.030 -0.3873 -0.0938  0.1302
  208MOL0     C27386   2.056   6.678  -0.040 -0.1957 -0.0320  0.2327
  208MOL0     C27387   2.162   6.621   0.049 -0.1068 -0.1074 -0.1367
  208MOL0     C27388   2.237   6.554   0.112 -0.0374 -0.1927 -0.0855
  208MOL0     C27389   1.432   6.547   0.100 -0.4856 -0.2887 -0.4451
  208MOL0     C27390   1.291   6.533   0.089 -1.0771 -0.5648  0.3859
  208MOL0     H27391   0.890   6.456   0.326 -0.6294  0.6315  1.4068
  208MOL0     H27392   0.670   6.405   0.360 -2.7552  0.1163  1.3259
  208MOL0     H27393   0.374   6.717   0.286 -0.2912 -0.5507 -1.2736
  208MOL0     H27394   0.361   6.706   0.467 -0.5662 -2.4601  1.0018
  208MOL0     H27395   0.256   6.473   0.427  1.3856  1.8796  2.9605
  208MOL0     H27396   0.207   6.538   0.272 -1.7042  2.4700  1.2092
  208MOL0     H27397   0.117   6.744   0.375 -2.2481  0.7733 -0.1901
  208MOL0     H27398   0.110   6.646   0.528 -0.7177  1.0020 -0.1333
  208MOL0     H27399  -0.027   6.615   0.265  1.5771  0.8657 -0.3042
  208MOL0     H27400  -0.011   6.478   0.379 -0.4314  0.8477  1.0361
  208MOL0     H27401  -0.115   6.599   0.550  1.5575 -0.0682 -0.1664
  208MOL0     H27402  -0.220   6.604   0.400 -0.5170 -1.6224  0.8197
  208MOL0     H27403  -0.136   6.838   0.359 -0.3796  0.2417 -0.3039
  208MOL0     H27404  -0.057   6.831   0.515 -0.8136  3.6434 -1.3828
  208MOL0     H27405  -0.359   6.786   0.480 -1.5423  0.1571  2.0589
  208MOL0     H27406  -0.270   6.786   0.624 -0.8803  0.7451 -0.3290
  208MOL0     H27407  -0.336   7.041   0.479 -0.6394  0.9774  1.3435
  208MOL0     H27408  -0.194   7.030   0.593  0.2611  0.8439 -1.3653
  208MOL0     H27409  -0.582   6.920   0.565  1.6479  0.4694 -1.0711
  208MOL0     H27410  -0.723   6.913   0.884  1.5385  1.1808 -0.0854
  208MOL0     H27411  -0.788   6.933   0.724 -1.6890  1.2835  0.3374
  208MOL0     H27412  -0.834   7.167   0.770  4.8049  1.0034 -1.4218
  208MOL0     H27413  -0.729   7.151   0.923  2.1354 -4.4533  1.0871
  208MOL0     H27414  -0.949   6.957   0.921 -1.2958  0.8251 -0.3263
  208MOL0     H27415  -0.877   7.063   1.053  2.0050  1.1056 -0.2775
  208MOL0     H27416  -1.065   7.155   0.841 -2.6082  1.9596  0.7513
  208MOL0     H27417  -1.019   7.243   0.987 -1.5751  1.3210 -3.2888
  208MOL0     H27418  -1.203   7.340   0.935 -0.8556  1.0631  1.0606
  208MOL0     H27419  -1.414   7.437   0.943  3.1689 -0.4150 -0.0531
  208MOL0     H27420  -1.904   7.216   0.870 -1.4864  0.3870 -0.5527
  208MOL0     H27421  -2.140   7.261   0.856 -0.8279 -0.7012  0.8405
  208MOL0     H27422  -2.360   7.171   0.961  0.9160 -0.1033  1.0165
  208MOL0     H27423  -2.351   7.317   0.855  3.7892 -2.5496 -0.7024
  208MOL0     H27424  -2.585   7.273   0.919  0.0672  2.2142 -1.7715
  208MOL0     H27425  -2.535   7.420   1.005  1.3169 -0.2784  0.2264
  208MOL0     H27426  -2.488   7.274   1.216  0.6676  1.4424 -0.5340
  208MOL0     H27427  -2.543   7.133   1.125  0.3943  1.4619  0.0961
  208MOL0     H27428  -2.714   7.381   1.184 -0.7628  0.2701 -1.2396
  208MOL0     H27429  -2.762   7.249   1.093 -0.0813  1.7459 -0.8306
  208MOL0     H27430  -2.652   7.223   1.381  1.5182 -0.5283 -1.1237
  208MOL0     H27431  -2.741   7.104   1.277  0.9328  0.4336 -1.3271
  208MOL0     H27432  -2.932   7.234   1.265 -0.7637 -0.1101  0.7365
  208MOL0     H27433  -2.852   7.369   1.360 -1.7288  0.4692 -3.2243
  208MOL0     H27434  -3.023   7.239   1.488 -0.5116 -2.0721 -0.9730
  208MOL0     H27435  -2.920   7.095   1.484 -0.0637 -0.3282 -0.0512
  208MOL0     H27436  -2.744   7.312   1.559 -1.4767  2.8035 -2.6184
  208MOL0     H27437  -2.836   7.233   1.693  0.2012 -0.0129  0.3275
  208MOL0     H27438  -2.147   7.378   1.264 -1.2558  1.3272 -2.0700
  208MOL0     H27439  -1.898   7.351   1.285 -1.8842 -0.0787  2.1213
  208MOL0     H27440  -1.568   7.094   1.163  1.7544 -1.8140  2.6197
  208MOL0     H27441  -1.344   6.978   1.132 -2.9323 -1.4028 -0.4774
  208MOL0     H27442   0.555   6.809   0.297 -1.2878 -1.4551 -0.2780
  208MOL0     H27443   0.792   6.869   0.234 -2.1902  0.5693 -0.7060
  208MOL0     H27444   1.195   6.793   0.285  0.4856  0.4906  0.9160
  208MOL0     H27445   1.438   6.825   0.302 -2.4357 -0.5340  1.0726
  208MOL0     H27446   1.651   6.621  -0.019  3.4290 -0.6981 -1.3988
  208MOL0     H27447   1.697   6.508   0.092  0.7353  0.3217 -1.7997
  208MOL0     H27448   1.827   6.776   0.073 -1.1036 -0.7284 -0.3901
  208MOL0     H27449   1.881   6.635   0.175 -0.9878 -0.5474  1.4213
  208MOL0     H27450   1.875   6.608  -0.127 -1.2321  1.6045  0.6146
  208MOL0     H27451   1.928   6.496  -0.009 -0.1601  0.1017  1.1676
  208MOL0     H27452   2.088   6.657  -0.142 -2.0159 -1.6155 -0.0780
  208MOL0     H27453   2.052   6.787  -0.028  2.9885  0.3024 -0.7327
  208MOL0     H27454   2.310   6.491   0.161  1.3137 -1.0836 -3.0107
  208MOL0     H27455   1.497   6.475   0.051  0.9495  0.9361 -0.4202
  208MOL0     H27456   1.279   6.448   0.022  1.9803  0.7294 -2.0160
  209MOL0     O27457   5.876   3.748   4.938 -0.0362 -0.1034 -0.3142
  209MOL0     C27458   5.820   3.763   5.048 -0.5477  0.5926 -0.9392
  209MOL0     O27459   5.841   3.871   5.130  0.3700  0.2203 -0.2774
  209MOL0     C27460   5.944   3.953   5.086  0.1088 -0.1014  0.0555
  209MOL0     C27461   5.926   4.041   4.975 -0.0475 -0.0489 -0.6991
  209MOL0     C27462   6.028   4.125   4.937 -0.2183  0.5309 -0.2458
  209MOL0     C27463   6.151   4.119   4.990 -0.1815 -1.2559  0.6507
  209MOL0     O27464   6.244   4.217   4.948 -0.3653  0.0868  0.9385
  209MOL0     C27465   6.372   4.229   5.015  0.9875 -0.3865  0.8087
  209MOL0     C27466   6.470   4.337   4.957  0.3374  0.9458  0.5498
  209MOL0     C27467   6.605   4.327   5.024  0.1000  0.1628 -0.5238
  209MOL0     C27468   6.692   4.403   4.926  0.8240  0.1668 -0.0712
  209MOL0     C27469   6.844   4.373   4.941  0.3625  0.1930 -0.1682
  209MOL0     C27470   6.906   4.414   5.076  0.1051 -0.6767 -0.7454
  209MOL0     C27471   7.046   4.379   5.104 -0.0875  0.5934  0.2922
  209MOL0     C27472   7.081   4.237   5.072 -0.5405  0.4345  0.1817
  209MOL0     N27473   6.997   4.139   5.146  0.8415  0.1723 -0.1233
  209MOL0     C27474   6.886   4.067   5.099 -0.0875  0.4046  0.3016
  209MOL0     C27475   6.845   3.988   5.201  0.1388 -0.4083  0.1005
  209MOL0     C27476   6.723   3.910   5.206 -1.4777  0.0371 -0.1735
  209MOL0     C27477   6.626   3.974   5.307  0.7730  0.8138  0.0059
  209MOL0     C27478   6.511   3.873   5.321  0.6620 -0.4593  0.3978
  209MOL0     C27479   6.403   3.937   5.406  0.2502  0.8214 -0.5926
  209MOL0     O27480   6.313   3.833   5.449  0.2339 -0.0692  0.5472
  209MOL0     C27481   6.181   3.860   5.460  0.3174 -0.1462 -0.5429
  209MOL0     C27482   6.126   3.983   5.489  0.3769 -0.3907 -0.8521
  209MOL0     C27483   5.987   4.002   5.507 -0.0580 -0.7604  0.2245
  209MOL0     C27484   5.903   3.893   5.487 -0.0448  0.7139 -0.6404
  209MOL0     C27485   5.755   3.908   5.519  0.1702  0.5592  0.3203
  209MOL0     O27486   5.701   4.024   5.480 -0.7747 -0.4156  0.2167
  209MOL0     C27487   5.573   4.048   5.490  0.4910 -0.5427 -0.4966
  209MOL0     C27488   5.466   3.992   5.416 -0.8467  0.0180 -0.0969
  209MOL0     C27489   5.335   4.018   5.446 -0.0950 -0.6172 -0.0148
  209MOL0     C27490   5.301   4.122   5.534  0.1079 -0.5604  0.4481
  209MOL0     O27491   5.178   4.170   5.573 -0.0632  1.7753 -0.0357
  209MOL0     C27492   5.071   4.078   5.566 -0.8949  0.0232 -0.3327
  209MOL0     C27493   4.973   4.109   5.681  0.3098  1.0907 -0.6391
  209MOL0     C27494   4.883   4.227   5.655  0.4207  0.2934 -0.4083
  209MOL0     C27495   4.800   4.269   5.793 -0.1456  0.0518  0.0679
  209MOL0     C27496   4.698   4.166   5.840  0.1152  0.4468  0.1000
  209MOL0     C27497   4.645   4.209   5.977  0.2911  0.0299  0.7346
  209MOL0     C27498   4.564   4.085   6.029 -0.7923  0.9859  0.4904
  209MOL0     C27499   4.458   4.114   6.139 -0.0902 -0.5197 -0.0991
  209MOL0    Cl27500   4.511   4.243   6.254 -0.0371  0.0177 -0.2780
  209MOL0     C27501   5.404   4.190   5.607  0.4698  0.4982 -0.4632
  209MOL0     C27502   5.534   4.144   5.587 -0.6199  0.0865 -0.1871
  209MOL0     O27503   5.691   3.807   5.561  0.5169  0.3455  0.0765
  209MOL0     C27504   5.958   3.768   5.459 -0.1553 -0.5596 -0.4681
  209MOL0     C27505   6.098   3.754   5.451 -0.1416  0.1385  0.0086
  209MOL0     N27506   6.945   4.003   5.299 -0.1310  0.1032  0.0359
  209MOL0     N27507   7.038   4.087   5.265  0.9447  0.1312 -0.2514
  209MOL0     C27508   6.173   4.030   5.093 -0.0648  0.2215  0.1652
  209MOL0     C27509   6.073   3.950   5.135 -0.6630  0.9847  0.3164
  209MOL0     C27510   5.721   3.664   5.092  0.7758  0.0100 -0.2236
  209MOL0     C27511   5.698   3.543   5.033 -0.9379 -0.6777  0.3083
  209MOL0     C27512   5.594   3.457   5.082 -1.1418 -0.0059 -1.1105
  209MOL0     C27513   5.515   3.493   5.188  0.9467 -0.2031  0.4538
  209MOL0     O27514   5.416   3.416   5.228 -0.1879 -0.7700  0.6469
  209MOL0     C27515   5.391   3.285   5.162  0.0085 -0.2899  0.4333
  209MOL0     C27516   5.286   3.191   5.226 -0.1314 -0.2213  0.2004
  209MOL0     C27517   5.340   3.111   5.343  0.3661 -0.6106 -0.4825
  209MOL0     C27518   5.367   3.194   5.467 -0.3989 -0.1318 -0.2772
  209MOL0     C27519   5.252   3.243   5.526 -0.6376  0.5629 -0.1113
  209MOL0     C27520   5.160   3.292   5.588 -0.8197 -0.1828  0.0722
  209MOL0     C27521   5.546   3.610   5.257  0.2281 -0.6335  0.6202
  209MOL0     C27522   5.647   3.691   5.207 -0.0928  0.4545  0.2360
  209MOL0     H27523   5.835   4.044   4.916  1.6656 -0.4022 -3.5505
  209MOL0     H27524   6.003   4.196   4.858  3.4739  0.2953 -1.7895
  209MOL0     H27525   6.408   4.127   4.997 -0.5049 -0.7388 -0.3726
  209MOL0     H27526   6.352   4.236   5.123 -0.6227  0.4772  0.4814
  209MOL0     H27527   6.434   4.440   4.969 -0.3696  0.9890 -1.6056
  209MOL0     H27528   6.473   4.308   4.852  3.2950 -2.1441  1.3406
  209MOL0     H27529   6.638   4.224   5.017 -0.2860  0.1507 -2.6834
  209MOL0     H27530   6.610   4.362   5.128  0.3179 -1.9020  0.1962
  209MOL0     H27531   6.684   4.365   4.823 -1.5173  0.1860  0.0452
  209MOL0     H27532   6.673   4.511   4.922 -2.2166 -0.2795 -0.3305
  209MOL0     H27533   6.897   4.431   4.865  0.6531  0.7457  0.4479
  209MOL0     H27534   6.852   4.267   4.915 -1.6283 -0.1011  0.2020
  209MOL0     H27535   6.849   4.369   5.158  0.0175  2.7771  1.2827
  209MOL0     H27536   6.904   4.523   5.087  2.6780 -0.6409 -0.0322
  209MOL0     H27537   7.117   4.430   5.038  0.2401 -0.4723 -0.2059
  209MOL0     H27538   7.066   4.399   5.209 -0.3750 -0.5319  0.5731
  209MOL0     H27539   7.183   4.216   5.104 -0.4489 -2.6303 -1.7109
  209MOL0     H27540   7.082   4.221   4.964 -1.2884 -0.9660  0.3659
  209MOL0     H27541   6.840   4.082   5.002  0.0689 -0.8074  0.0323
  209MOL0     H27542   6.733   3.807   5.243  1.4652  0.9542  2.0487
  209MOL0     H27543   6.683   3.908   5.105 -0.2096  1.2625 -0.7393
  209MOL0     H27544   6.585   4.064   5.261 -3.1490  0.3005  2.0795
  209MOL0     H27545   6.674   4.002   5.401  0.2736 -0.2175  0.5792
  209MOL0     H27546   6.469   3.839   5.226 -0.6805 -3.5135  1.9523
  209MOL0     H27547   6.551   3.785   5.373  0.9495  0.3991  1.6957
  209MOL0     H27548   6.343   4.009   5.350 -1.8180  0.3622  0.9044
  209MOL0     H27549   6.439   3.996   5.490  0.9675 -0.9163  0.3884
  209MOL0     H27550   6.194   4.067   5.500  0.6907 -0.6989 -0.3851
  209MOL0     H27551   5.943   4.094   5.543  1.8532  1.1072 -1.9240
  209MOL0     H27552   5.488   3.911   5.347 -1.0741 -0.1975  0.0859
  209MOL0     H27553   5.259   3.955   5.402 -1.0535  0.5181 -0.0297
  209MOL0     H27554   5.098   3.973   5.574  1.2876  0.6554  1.5843
  209MOL0     H27555   5.015   4.083   5.472  1.2123 -0.6059 -1.7034
  209MOL0     H27556   5.026   4.130   5.775  0.7042 -0.6128 -0.4535
  209MOL0     H27557   4.921   4.018   5.711 -0.1887  1.7379  0.5903
  209MOL0     H27558   4.814   4.207   5.572  0.9048  2.1287 -1.3362
  209MOL0     H27559   4.940   4.314   5.621  0.7213  0.9434  1.6649
  209MOL0     H27560   4.867   4.280   5.878 -0.4066 -4.2215  1.0866
  209MOL0     H27561   4.745   4.360   5.767 -1.5426 -1.2627 -1.9400
  209MOL0     H27562   4.723   4.060   5.843 -2.2654 -0.1985 -0.5502
  209MOL0     H27563   4.618   4.167   5.766 -0.6078 -1.3176  0.8207
  209MOL0     H27564   4.577   4.292   5.960 -0.5469 -0.7328  0.2898
  209MOL0     H27565   4.723   4.227   6.052 -1.2727 -0.7251  2.6560
  209MOL0     H27566   4.505   4.044   5.947 -3.4863  1.4063  2.0893
  209MOL0     H27567   4.632   4.007   6.068 -0.2846  0.1981 -1.8340
  209MOL0     H27568   4.432   4.028   6.201 -1.3764 -0.4610 -0.5355
  209MOL0     H27569   4.372   4.159   6.089  0.5035  1.5529  0.6350
  209MOL0     H27570   5.388   4.265   5.684  0.2629 -0.4018  0.3933
  209MOL0     H27571   5.617   4.180   5.648 -2.2754  0.3516  2.0774
  209MOL0     H27572   5.906   3.673   5.455  0.5173 -0.9921  0.5661
  209MOL0     H27573   6.139   3.656   5.430 -2.4509 -1.3291  1.8494
  209MOL0     H27574   6.273   4.024   5.136  0.5644  1.5586 -1.0100
  209MOL0     H27575   6.090   3.877   5.213 -1.6988  0.3103 -0.0565
  209MOL0     H27576   5.751   3.524   4.941  0.3019 -0.5610  0.9754
  209MOL0     H27577   5.581   3.366   5.024  0.8901  0.6975 -2.8014
  209MOL0     H27578   5.486   3.233   5.151  0.5069  0.6018  0.4048
  209MOL0     H27579   5.360   3.299   5.058 -2.2537  0.2153  1.1163
  209MOL0     H27580   5.198   3.249   5.253  0.2343  0.9507 -1.0413
  209MOL0     H27581   5.251   3.116   5.154  1.8899 -1.5591  0.5161
  209MOL0     H27582   5.432   3.060   5.314 -0.5410 -2.5979 -0.0364
  209MOL0     H27583   5.276   3.025   5.363  2.4179 -1.4766  3.3708
  209MOL0     H27584   5.415   3.123   5.535 -0.6688  1.4963  1.6819
  209MOL0     H27585   5.432   3.280   5.452 -1.7381  0.5495 -2.6333
  209MOL0     H27586   5.071   3.315   5.643 -0.7965 -0.0653  0.0609
  209MOL0     H27587   5.500   3.642   5.351 -1.0042  0.3837 -0.2832
  209MOL0     H27588   5.665   3.779   5.267 -0.3745  2.0294 -1.9102
  210MOL0     O27589  10.059   8.710   2.805 -0.4161  0.7183 -0.8820
  210MOL0     C27590  10.086   8.815   2.744  0.1272  0.9074 -0.3072
  210MOL0     O27591   9.996   8.885   2.670 -1.0132 -0.0692  0.0380
  210MOL0     C27592   9.862   8.858   2.664  0.0135 -0.6388  0.5276
  210MOL0     C27593   9.795   8.973   2.622 -0.0409 -0.5950 -0.1554
  210MOL0     C27594   9.661   8.963   2.583  0.1042  0.1455 -0.0855
  210MOL0     C27595   9.594   8.838   2.584  0.2640 -0.7758  1.0022
  210MOL0     O27596   9.460   8.819   2.548  0.4188  0.0679 -0.7339
  210MOL0     C27597   9.382   8.923   2.480 -1.4077  1.0161 -0.0650
  210MOL0     C27598   9.373   8.877   2.334 -0.7419  0.5178 -0.7546
  210MOL0     C27599   9.268   8.967   2.271  0.1761 -0.0309  0.8481
  210MOL0     C27600   9.119   8.969   2.324  0.4488 -0.2046 -1.1687
  210MOL0     C27601   9.062   8.835   2.340 -0.2662  0.1285 -0.0602
  210MOL0     C27602   8.926   8.824   2.410  0.8171 -0.0443 -0.0697
  210MOL0     C27603   8.861   8.687   2.387 -0.8685 -0.6693  0.3542
  210MOL0     C27604   8.744   8.661   2.485  0.0029  0.4808 -0.0030
  210MOL0     N27605   8.630   8.759   2.486  0.1938 -0.0918  0.1297
  210MOL0     C27606   8.556   8.785   2.375  0.4242  0.4612  0.3515
  210MOL0     C27607   8.446   8.844   2.419  0.0752  0.3903 -0.1715
  210MOL0     C27608   8.334   8.904   2.329 -0.2661  0.8594  0.5182
  210MOL0     C27609   8.193   8.853   2.352  0.7206  0.5806 -0.4738
  210MOL0     C27610   8.157   8.708   2.303 -0.7253 -0.6943  0.5986
  210MOL0     C27611   8.014   8.678   2.285 -0.7774  0.2156 -0.1333
  210MOL0     O27612   7.944   8.716   2.405 -0.3133  0.6517  0.4691
  210MOL0     C27613   7.809   8.700   2.407 -0.3650 -0.5119 -0.3751
  210MOL0     C27614   7.752   8.741   2.528  0.1052 -0.2701 -0.2396
  210MOL0     C27615   7.611   8.748   2.551 -0.6752 -0.3877  0.3826
  210MOL0     C27616   7.527   8.696   2.449 -0.4899  0.8013 -0.0015
  210MOL0     C27617   7.386   8.688   2.470  0.3410 -0.0692  0.4008
  210MOL0     O27618   7.328   8.737   2.576 -0.3000  0.1275  0.0878
  210MOL0     C27619   7.186   8.738   2.589 -0.4235  0.1301 -0.9199
  210MOL0     C27620   7.091   8.757   2.492  0.6160 -0.4906  0.1583
  210MOL0     C27621   6.952   8.773   2.512  0.5373 -0.4731 -0.1631
  210MOL0     C27622   6.906   8.752   2.644  0.0231 -0.4996 -0.0983
  210MOL0     O27623   6.778   8.750   2.678  0.4364 -0.2194 -0.5516
  210MOL0     C27624   6.710   8.862   2.628 -0.0468 -0.4570 -0.2745
  210MOL0     C27625   6.579   8.875   2.700  0.4009 -0.2921 -0.4068
  210MOL0     C27626   6.487   8.999   2.668  0.1072 -0.9639 -0.2197
  210MOL0     C27627   6.375   9.015   2.779 -1.0237 -0.0355 -0.4767
  210MOL0     C27628   6.420   9.090   2.910 -0.2244 -0.8440 -0.4275
  210MOL0     C27629   6.331   9.204   2.931 -0.0215 -0.3422  0.2270
  210MOL0     C27630   6.190   9.151   2.957 -0.1522  0.0110 -0.6188
  210MOL0     C27631   6.102   9.252   3.031  0.0370 -0.2204  0.4637
  210MOL0    Cl27632   5.943   9.191   3.084  0.1824 -0.2961  0.1256
  210MOL0     C27633   6.998   8.730   2.753 -0.4782 -0.2650  0.8524
  210MOL0     C27634   7.135   8.721   2.720  0.0970  0.4224  0.4922
  210MOL0     O27635   7.331   8.617   2.389  0.2594 -0.9950 -0.1712
  210MOL0     C27636   7.592   8.653   2.323  0.2273 -0.4106 -0.4602
  210MOL0     C27637   7.734   8.656   2.304  0.4310 -0.2414 -0.9549
  210MOL0     N27638   8.445   8.852   2.558  0.3364 -0.3526  0.1838
  210MOL0     N27639   8.560   8.809   2.592  0.0277  0.3069  0.0895
  210MOL0     C27640   9.670   8.731   2.637  1.1560 -0.3499  0.2144
  210MOL0     C27641   9.804   8.734   2.673 -0.4892 -0.9929  0.3055
  210MOL0     C27642  10.224   8.855   2.751  0.2163  0.6190 -0.2304
  210MOL0     C27643  10.321   8.812   2.852  0.4596 -0.8326 -0.0630
  210MOL0     C27644  10.451   8.867   2.850 -0.2063  0.1200 -0.2371
  210MOL0     C27645  10.496   8.967   2.770  0.1161  0.4518 -0.1046
  210MOL0     O27646  10.631   8.993   2.773 -0.2649 -0.1598  0.3058
  210MOL0     C27647  10.708   9.023   2.658 -0.4421 -0.6780  0.0427
  210MOL0     C27648  10.686   8.921   2.541 -0.4316 -0.2243  0.0475
  210MOL0     C27649  10.791   8.947   2.431  0.8589  0.2785  0.3027
  210MOL0     C27650  10.753   8.880   2.291 -0.3780 -0.0224 -0.1427
  210MOL0     C27651  10.737   8.732   2.311 -1.0574 -0.0330  0.0138
  210MOL0     C27652  10.720   8.617   2.332 -0.1398  0.0213 -0.0707
  210MOL0     C27653  10.403   9.010   2.675 -0.1647 -0.4291  0.0019
  210MOL0     C27654  10.271   8.959   2.666 -0.5089 -0.0039  0.0922
  210MOL0     H27655   9.854   9.064   2.615  1.2244 -1.4742 -1.5070
  210MOL0     H27656   9.623   9.057   2.545  1.1378  1.1441  1.2402
  210MOL0     H27657   9.426   9.022   2.490 -1.4839  0.8741  2.3986
  210MOL0     H27658   9.288   8.934   2.536 -0.3951 -0.1709  1.9864
  210MOL0     H27659   9.346   8.773   2.312 -1.5685  0.9285 -1.7233
  210MOL0     H27660   9.467   8.891   2.279 -1.4425  2.6693 -1.4777
  210MOL0     H27661   9.265   8.930   2.168 -0.1458 -2.5765  1.6863
  210MOL0     H27662   9.314   9.066   2.263 -1.2578  0.6498  0.8530
  210MOL0     H27663   9.113   9.024   2.418 -1.2821  1.2543 -2.0735
  210MOL0     H27664   9.069   9.039   2.256  2.1286  2.9486  0.6386
  210MOL0     H27665   9.138   8.768   2.381 -0.3791 -0.5928 -0.9880
  210MOL0     H27666   9.055   8.795   2.239 -0.0944 -1.5425  0.5574
  210MOL0     H27667   8.857   8.895   2.364 -0.6188 -1.5905 -0.3950
  210MOL0     H27668   8.924   8.850   2.517  0.6964 -4.0184  1.0406
  210MOL0     H27669   8.829   8.694   2.283 -1.5240 -2.1893  0.4258
  210MOL0     H27670   8.933   8.605   2.397  0.9090  0.7030 -0.6970
  210MOL0     H27671   8.794   8.652   2.582  0.4369  1.4725 -0.1134
  210MOL0     H27672   8.696   8.568   2.453  1.5531 -0.0317 -0.9547
  210MOL0     H27673   8.572   8.756   2.271 -1.6241 -0.9777  0.3654
  210MOL0     H27674   8.372   8.894   2.227  1.6623 -0.7985  1.3193
  210MOL0     H27675   8.340   9.011   2.352  1.2311  0.4094  2.5090
  210MOL0     H27676   8.125   8.923   2.302 -0.3957  1.2160  1.8025
  210MOL0     H27677   8.171   8.850   2.459  1.2411  0.4458 -0.3667
  210MOL0     H27678   8.212   8.688   2.211 -1.3836 -0.2236  0.0980
  210MOL0     H27679   8.198   8.643   2.381  0.2831  1.5446  2.0395
  210MOL0     H27680   8.016   8.569   2.271  1.5437  0.0988  0.5922
  210MOL0     H27681   7.977   8.733   2.199  2.0937  0.7324 -1.1575
  210MOL0     H27682   7.814   8.772   2.611  1.5692 -2.2542 -0.5372
  210MOL0     H27683   7.570   8.795   2.640 -2.4991  0.9571 -1.1068
  210MOL0     H27684   7.132   8.777   2.393  2.1869 -1.0504  0.6576
  210MOL0     H27685   6.874   8.786   2.438 -0.1315 -2.2379  0.1742
  210MOL0     H27686   6.696   8.843   2.521 -0.1192 -0.0540 -0.3377
  210MOL0     H27687   6.771   8.952   2.640 -2.1241  1.0719 -0.4981
  210MOL0     H27688   6.602   8.882   2.807 -0.4352 -2.5316 -0.0214
  210MOL0     H27689   6.525   8.782   2.681  0.5522 -0.3181 -0.7122
  210MOL0     H27690   6.445   8.990   2.568  0.7337  3.8954 -1.1592
  210MOL0     H27691   6.543   9.093   2.666 -3.6211  1.4443 -0.3129
  210MOL0     H27692   6.297   9.062   2.718  0.3214  2.4729 -0.4108
  210MOL0     H27693   6.350   8.913   2.809  0.5599 -0.0944  0.7512
  210MOL0     H27694   6.517   9.139   2.897  0.0277 -1.3532 -0.4768
  210MOL0     H27695   6.430   9.026   2.999 -1.2502  2.1937  2.0722
  210MOL0     H27696   6.336   9.254   2.834  1.4887 -1.2239 -0.1838
  210MOL0     H27697   6.356   9.277   3.009  0.5360  1.3166 -1.4262
  210MOL0     H27698   6.144   9.117   2.865  1.7276 -0.1806 -1.5448
  210MOL0     H27699   6.192   9.066   3.026 -3.3859  0.0991 -0.2820
  210MOL0     H27700   6.086   9.341   2.970  1.6865 -0.4300 -0.2979
  210MOL0     H27701   6.151   9.293   3.119  2.7875  2.3668 -2.0807
  210MOL0     H27702   6.977   8.709   2.857 -1.1872  2.4670  1.3405
  210MOL0     H27703   7.210   8.697   2.794  1.4130 -0.3905 -1.0321
  210MOL0     H27704   7.533   8.621   2.237  0.9209  1.9486 -1.9000
  210MOL0     H27705   7.776   8.599   2.221 -1.4486 -2.3093 -0.6010
  210MOL0     H27706   9.617   8.637   2.651  0.9707 -0.0853  1.3225
  210MOL0     H27707   9.869   8.647   2.670  2.4982  1.0828  0.7677
  210MOL0     H27708  10.291   8.750   2.936 -5.8629  0.0379 -1.1673
  210MOL0     H27709  10.519   8.827   2.925  0.6430 -0.0724 -1.0964
  210MOL0     H27710  10.814   9.025   2.684 -1.1511  2.5867  3.4036
  210MOL0     H27711  10.678   9.127   2.645  0.1145 -0.0508  3.0398
  210MOL0     H27712  10.710   8.820   2.577 -0.0421 -0.3750 -0.6181
  210MOL0     H27713  10.586   8.924   2.497 -0.3281 -0.1482 -0.1847
  210MOL0     H27714  10.883   8.894   2.456 -0.9915 -3.6075 -0.3408
  210MOL0     H27715  10.811   9.049   2.395  0.1018 -0.5785 -2.9158
  210MOL0     H27716  10.663   8.925   2.249 -0.2269  0.1679 -0.2611
  210MOL0     H27717  10.825   8.899   2.212  0.8328 -0.7118  0.7573
  210MOL0     H27718  10.698   8.513   2.345  0.7441 -0.2270 -0.4883
  210MOL0     H27719  10.416   9.088   2.601 -4.7694 -0.2228 -0.8809
  210MOL0     H27720  10.198   8.978   2.587 -1.9918  1.0238  1.6399
  211MOL0     O27721   9.956  10.530   6.724  0.2495 -0.0143  0.7059
  211MOL0     C27722   9.977  10.576   6.832 -0.9114 -0.1783  0.1950
  211MOL0     O27723   9.877  10.596   6.925  0.6378 -0.8202 -0.1145
  211MOL0     C27724   9.748  10.560   6.896  0.0323  0.2079  0.4545
  211MOL0     C27725   9.640  10.657   6.901  0.1431  0.0621  0.0907
  211MOL0     C27726   9.505  10.621   6.894  0.1812  0.6151  0.1547
  211MOL0     C27727   9.472  10.485   6.885 -0.2362 -1.3550 -0.8891
  211MOL0     O27728   9.342  10.445   6.887  0.6790  0.5698 -0.0442
  211MOL0     C27729   9.273  10.484   7.001 -0.0679  0.5899  0.6639
  211MOL0     C27730   9.147  10.398   7.001 -0.7190  0.0072 -0.1664
  211MOL0     C27731   9.175  10.250   7.029 -0.4910 -0.0021 -0.2740
  211MOL0     C27732   9.058  10.164   7.000 -1.0158  0.1895  0.7502
  211MOL0     C27733   8.970  10.171   7.124 -0.0414 -0.4657  0.1777
  211MOL0     C27734   8.860  10.059   7.117  1.2167  0.5129 -0.7556
  211MOL0     C27735   8.780  10.042   7.253 -0.8415  0.4022 -0.6768
  211MOL0     C27736   8.667   9.937   7.241  0.2227 -1.1131  0.1967
  211MOL0     N27737   8.554   9.962   7.332 -0.4999 -0.4426  0.0484
  211MOL0     C27738   8.425  10.014   7.313 -0.2955 -0.7872 -0.4697
  211MOL0     C27739   8.379  10.041   7.440 -0.5205  0.0251 -0.1454
  211MOL0     C27740   8.258  10.135   7.469  0.4115  0.5995 -1.4040
  211MOL0     C27741   8.127  10.061   7.487 -0.1294 -0.3839  0.2285
  211MOL0     C27742   8.024  10.128   7.574  0.1719 -1.2673 -1.1725
  211MOL0     C27743   7.895  10.069   7.579 -0.2097 -0.3292  0.4215
  211MOL0     O27744   7.817  10.150   7.493  0.3848  0.5987 -0.5439
  211MOL0     C27745   7.695  10.103   7.450  0.2395  0.3316 -0.3643
  211MOL0     C27746   7.618  10.005   7.506  0.7264 -0.3327 -0.1580
  211MOL0     C27747   7.488   9.987   7.456  0.4393 -0.0778  0.2305
  211MOL0     C27748   7.436  10.059   7.348  0.0586  0.5379 -0.3173
  211MOL0     C27749   7.299  10.044   7.301  0.2891 -0.1688 -0.2398
  211MOL0     O27750   7.257  10.132   7.210 -0.2036 -0.4666 -0.0446
  211MOL0     C27751   7.144  10.104   7.138 -0.5938  0.4411  0.3819
  211MOL0     C27752   7.041  10.203   7.142 -0.7482 -0.4822  1.0056
  211MOL0     C27753   6.924  10.188   7.059 -0.4807  0.0154 -0.4744
  211MOL0     C27754   6.893  10.070   6.984 -0.2585 -0.5368  1.1073
  211MOL0     O27755   6.775  10.052   6.917  0.1267 -0.4251 -0.5619
  211MOL0     C27756   6.715  10.164   6.844  0.6025  1.0969 -0.2155
  211MOL0     C27757   6.563  10.143   6.842 -0.3051  0.1258  0.3726
  211MOL0     C27758   6.496  10.244   6.743 -0.3544  0.2835  0.2655
  211MOL0     C27759   6.348  10.251   6.757  0.2848  0.0742  0.3938
  211MOL0     C27760   6.279  10.359   6.673 -0.1550 -0.1706  0.2631
  211MOL0     C27761   6.126  10.358   6.681 -0.2560 -0.5594  0.6170
  211MOL0     C27762   6.066  10.460   6.577  0.6697 -0.4771 -0.1510
  211MOL0     C27763   5.913  10.507   6.602  0.0585  0.4288  0.2698
  211MOL0    Cl27764   5.893  10.538   6.773 -0.1052  0.4674 -0.2069
  211MOL0     C27765   6.989   9.976   6.986  0.0266 -0.3318  0.2261
  211MOL0     C27766   7.110   9.991   7.062 -0.2780 -0.6826 -0.8579
  211MOL0     O27767   7.228   9.957   7.355 -0.0889  0.0580  0.4328
  211MOL0     C27768   7.514  10.163   7.301 -0.1188  0.4298 -0.1668
  211MOL0     C27769   7.643  10.187   7.355  0.1819  0.2609 -0.6074
  211MOL0     N27770   8.468   9.996   7.535 -0.1798  0.9994 -1.3136
  211MOL0     N27771   8.567   9.947   7.470 -0.0429  0.8034  0.0432
  211MOL0     C27772   9.576  10.387   6.864  0.0858 -0.8648  0.3780
  211MOL0     C27773   9.712  10.417   6.878  0.4663 -1.0269 -0.0796
  211MOL0     C27774  10.117  10.609   6.872 -0.5499 -0.5022  0.8777
  211MOL0     C27775  10.223  10.561   6.790  0.3640 -0.3298  0.2025
  211MOL0     C27776  10.358  10.578   6.822  0.3128 -0.2914 -0.6657
  211MOL0     C27777  10.398  10.642   6.941  0.4284 -0.6714 -0.2986
  211MOL0     O27778  10.525  10.658   6.983 -0.4456  0.0496 -0.7136
  211MOL0     C27779  10.619  10.556   6.947 -0.8321 -0.5296 -0.1468
  211MOL0     C27780  10.762  10.602   7.000 -0.1908 -0.1187 -0.5163
  211MOL0     C27781  10.871  10.518   6.950 -0.1707  0.2094  1.1419
  211MOL0     C27782  10.991  10.511   7.039 -0.4970  0.4546  0.2122
  211MOL0     C27783  11.056  10.638   7.036 -0.4532  0.1048 -0.0056
  211MOL0     C27784  11.111  10.745   7.037  0.2723  0.3594  0.0722
  211MOL0     C27785  10.293  10.709   7.016  0.1516  0.4031  0.1970
  211MOL0     C27786  10.158  10.685   6.981 -0.2885 -0.9422  0.0248
  211MOL0     H27787   9.677  10.758   6.919  1.5552 -0.4207  0.0604
  211MOL0     H27788   9.423  10.692   6.901  0.9313  1.3243  3.7521
  211MOL0     H27789   9.251  10.591   6.994  1.9157  0.9970  0.1806
  211MOL0     H27790   9.329  10.461   7.092 -0.1529  0.8970  0.7930
  211MOL0     H27791   9.097  10.404   6.903  0.6279  2.5384 -0.7763
  211MOL0     H27792   9.079  10.427   7.082 -1.2932 -2.3042  0.2487
  211MOL0     H27793   9.207  10.248   7.133  1.3567  0.3775 -0.7854
  211MOL0     H27794   9.261  10.216   6.970 -0.1886  0.2024  0.0471
  211MOL0     H27795   8.994  10.197   6.918 -0.3734  4.2375  1.6159
  211MOL0     H27796   9.088  10.061   6.982 -1.9599 -0.2427  1.5477
  211MOL0     H27797   8.915  10.265   7.129 -0.2064 -0.6080  1.4943
  211MOL0     H27798   9.029  10.155   7.215  0.0080  3.5136  0.9882
  211MOL0     H27799   8.898   9.961   7.086  0.1928  0.2615 -1.2611
  211MOL0     H27800   8.781  10.087   7.047  1.0182  0.7945 -0.4134
  211MOL0     H27801   8.848  10.016   7.334  1.8253  1.0113 -2.5739
  211MOL0     H27802   8.727  10.137   7.262 -1.3158  0.1951 -1.2392
  211MOL0     H27803   8.719   9.843   7.261  4.3526  1.0931  0.9106
  211MOL0     H27804   8.619   9.935   7.142 -0.8035  1.0278  0.6050
  211MOL0     H27805   8.372  10.034   7.221  0.2213 -2.5058 -1.1894
  211MOL0     H27806   8.259  10.217   7.397  2.7851  0.6720 -1.3883
  211MOL0     H27807   8.281  10.178   7.567 -1.5581  0.1240 -0.6882
  211MOL0     H27808   8.140   9.957   7.520 -1.0588  0.3298  3.1500
  211MOL0     H27809   8.084  10.067   7.387 -2.4158 -2.8574  0.9429
  211MOL0     H27810   8.064  10.141   7.675  3.4849 -0.6412 -2.4287
  211MOL0     H27811   8.016  10.234   7.549  0.2793 -1.1646 -0.7906
  211MOL0     H27812   7.859  10.081   7.682  1.0818  0.9841  0.7468
  211MOL0     H27813   7.888   9.970   7.534 -0.7835 -0.1728  0.1556
  211MOL0     H27814   7.654   9.953   7.595  2.4014  1.5064  0.3428
  211MOL0     H27815   7.425   9.902   7.482  0.3785 -1.3588 -3.4897
  211MOL0     H27816   7.052  10.293   7.200  0.2951 -1.1428  1.8709
  211MOL0     H27817   6.848  10.265   7.063  1.7372  2.4296 -1.8957
  211MOL0     H27818   6.768  10.168   6.748 -2.3295 -0.3271 -2.0393
  211MOL0     H27819   6.737  10.262   6.886  1.7606 -0.3684  2.8769
  211MOL0     H27820   6.534  10.173   6.943 -2.7031  1.3136 -0.6002
  211MOL0     H27821   6.537  10.041   6.813  4.1101 -1.0425 -0.2797
  211MOL0     H27822   6.524  10.209   6.643  1.0960 -1.2360  1.1401
  211MOL0     H27823   6.534  10.345   6.760 -1.7212  0.8786 -0.1087
  211MOL0     H27824   6.303  10.155   6.729 -0.3557  1.0408 -2.2373
  211MOL0     H27825   6.327  10.271   6.862  1.0693  3.5327  0.0123
  211MOL0     H27826   6.306  10.349   6.567 -0.4237  1.0946  0.0586
  211MOL0     H27827   6.320  10.458   6.693 -1.3172  0.1053  1.3503
  211MOL0     H27828   6.088  10.370   6.782  0.1392 -2.0985  0.9792
  211MOL0     H27829   6.103  10.256   6.648 -0.0764  0.3885 -2.8168
  211MOL0     H27830   6.115  10.557   6.584 -1.6256  1.1575 -3.7313
  211MOL0     H27831   6.072  10.421   6.475 -0.3162  0.5473 -0.6272
  211MOL0     H27832   5.851  10.420   6.581  1.7436 -0.9130  0.5817
  211MOL0     H27833   5.892  10.597   6.544  1.2379  2.5407  2.8762
  211MOL0     H27834   6.967   9.883   6.936  0.4372  0.6746 -1.9221
  211MOL0     H27835   7.184   9.914   7.046  1.7040  0.9498  0.0281
  211MOL0     H27836   7.477  10.234   7.228  0.6287 -0.5131 -1.5201
  211MOL0     H27837   7.705  10.270   7.323  0.3250  0.7057  0.7412
  211MOL0     H27838   9.551  10.286   6.834  3.8508 -1.6455 -0.6355
  211MOL0     H27839   9.789  10.341   6.885 -0.3063 -1.7107  1.4520
  211MOL0     H27840  10.203  10.496   6.705  2.0400  0.0344 -0.5117
  211MOL0     H27841  10.423  10.531   6.748  0.1342 -3.7492  1.1784
  211MOL0     H27842  10.628  10.528   6.842  2.9060  0.1524 -0.1487
  211MOL0     H27843  10.594  10.468   7.007 -2.0351  0.4270  0.8099
  211MOL0     H27844  10.777  10.701   6.956 -1.7532 -0.3238 -1.6010
  211MOL0     H27845  10.774  10.601   7.109 -0.0846 -3.4505 -0.4541
  211MOL0     H27846  10.912  10.559   6.858  2.6023 -1.0511  1.7174
  211MOL0     H27847  10.830  10.419   6.931  2.5843 -0.9339  0.7860
  211MOL0     H27848  10.972  10.465   7.137  0.8121 -1.6132 -0.4519
  211MOL0     H27849  11.067  10.455   6.984  1.6620  2.9654  0.4854
  211MOL0     H27850  11.168  10.835   7.026  1.6770 -0.5282 -0.1564
  211MOL0     H27851  10.324  10.776   7.096 -0.1097  0.6384  0.1011
  211MOL0     H27852  10.077  10.733   7.034  2.4479  2.2934  1.6357
  212MOL0     O27853   9.063   6.213   3.384 -0.4400 -0.0384  0.4821
  212MOL0     C27854   8.998   6.106   3.402 -0.3593 -0.9119  0.5946
  212MOL0     O27855   8.882   6.075   3.329  0.3588  0.1091  0.3587
  212MOL0     C27856   8.799   6.174   3.281 -0.8301  0.7814  0.1761
  212MOL0     C27857   8.786   6.293   3.349 -0.3421 -0.3374 -0.5363
  212MOL0     C27858   8.690   6.388   3.299  1.0014  0.3406 -0.6092
  212MOL0     C27859   8.602   6.360   3.194  0.7852 -0.8908  0.8161
  212MOL0     O27860   8.512   6.461   3.171 -0.5129 -0.1779  0.1189
  212MOL0     C27861   8.399   6.405   3.110  0.2379 -0.4289  0.6927
  212MOL0     C27862   8.285   6.494   3.113  0.4694 -0.0906  0.0016
  212MOL0     C27863   8.253   6.548   3.248  0.6112  0.5302 -1.0894
  212MOL0     C27864   8.146   6.664   3.257 -0.3018  0.4289 -0.6137
  212MOL0     C27865   8.004   6.609   3.246  0.0308 -0.0026 -0.8454
  212MOL0     C27866   7.905   6.726   3.265 -0.1542 -0.5555 -0.0586
  212MOL0     C27867   7.767   6.681   3.213  0.9873  0.0921  0.2223
  212MOL0     C27868   7.735   6.537   3.254  0.3059 -0.6158 -0.2489
  212MOL0     N27869   7.590   6.496   3.240  0.5461  0.0959 -0.8598
  212MOL0     C27870   7.484   6.570   3.284 -0.4356  0.0676  0.7114
  212MOL0     C27871   7.377   6.507   3.234  0.1257  0.3946  0.1225
  212MOL0     C27872   7.231   6.546   3.261 -0.1585 -1.1743  0.2659
  212MOL0     C27873   7.193   6.696   3.227  0.6110  1.6656  0.2035
  212MOL0     C27874   7.044   6.727   3.237 -0.1646  0.0309  0.8397
  212MOL0     C27875   7.005   6.752   3.379 -1.0919 -0.5097 -0.1594
  212MOL0     O27876   6.879   6.813   3.379  0.2865  0.3760  0.4241
  212MOL0     C27877   6.781   6.763   3.464 -0.1930 -0.1816 -0.3462
  212MOL0     C27878   6.680   6.854   3.498 -0.7611 -0.0586  0.1680
  212MOL0     C27879   6.579   6.814   3.587  0.6618  0.1716  0.0584
  212MOL0     C27880   6.564   6.682   3.632 -0.1877 -0.0023  0.6380
  212MOL0     C27881   6.441   6.633   3.692 -0.2416  0.9129 -0.0326
  212MOL0     O27882   6.430   6.499   3.721 -0.1420 -0.2022 -0.3577
  212MOL0     C27883   6.317   6.435   3.781  0.4234  0.2650  0.4953
  212MOL0     C27884   6.179   6.483   3.757  0.7834 -1.2086  0.2619
  212MOL0     C27885   6.076   6.404   3.808 -0.4786 -0.5300 -0.6332
  212MOL0     C27886   6.101   6.298   3.900 -0.1667 -0.5880 -0.1964
  212MOL0     O27887   5.994   6.226   3.951 -0.0106  0.2419  0.3104
  212MOL0     C27888   5.911   6.305   4.032  0.4502  0.0828  0.0652
  212MOL0     C27889   5.787   6.232   4.026  0.4263  1.2014 -0.7370
  212MOL0     C27890   5.674   6.293   4.120  0.5385 -0.0073 -0.0800
  212MOL0     C27891   5.538   6.232   4.104 -0.4998 -0.6428 -0.4787
  212MOL0     C27892   5.435   6.288   4.203 -1.2888 -0.0591 -0.0564
  212MOL0     C27893   5.286   6.234   4.169 -0.8792  0.3442  0.2078
  212MOL0     C27894   5.237   6.196   4.305  1.5443  0.5688 -0.0683
  212MOL0     C27895   5.090   6.134   4.294 -0.6780  1.1736  0.9878
  212MOL0    Cl27896   4.973   6.244   4.202 -0.4084  0.4558  0.1456
  212MOL0     C27897   6.232   6.261   3.917  0.2043 -0.0851 -0.1179
  212MOL0     C27898   6.339   6.324   3.857 -0.1461  0.1732  0.2806
  212MOL0     O27899   6.348   6.709   3.682  0.6944  0.3497  0.1248
  212MOL0     C27900   6.673   6.597   3.613 -0.0776  0.8443  0.7640
  212MOL0     C27901   6.777   6.633   3.519  0.0760  0.6016  0.4944
  212MOL0     N27902   7.415   6.394   3.173 -0.4661  0.6444  0.5322
  212MOL0     N27903   7.546   6.386   3.178 -0.3878 -0.0322 -0.2041
  212MOL0     C27904   8.620   6.240   3.123 -0.6358 -1.0664  0.6121
  212MOL0     C27905   8.722   6.147   3.166 -0.6306 -0.1836  0.0462
  212MOL0     C27906   9.058   6.002   3.486 -0.2848 -0.3198  0.6812
  212MOL0     C27907   9.195   6.013   3.534 -0.0021 -0.3392  0.2903
  212MOL0     C27908   9.243   5.907   3.613 -0.2276 -0.1932  0.0813
  212MOL0     C27909   9.168   5.793   3.641  0.0524  0.3793  0.9630
  212MOL0     O27910   9.220   5.689   3.712  0.5866 -0.3871  0.0538
  212MOL0     C27911   9.344   5.709   3.784  0.2959  0.2800  0.7146
  212MOL0     C27912   9.374   5.577   3.849  0.8657  0.1364  0.7219
  212MOL0     C27913   9.458   5.478   3.764  0.4976  0.1100  0.6422
  212MOL0     C27914   9.603   5.486   3.801 -0.3709  0.2739 -0.0816
  212MOL0     C27915   9.678   5.378   3.734  0.2507  0.5118 -1.1170
  212MOL0     C27916   9.750   5.297   3.679  0.1351 -0.4802 -0.3309
  212MOL0     C27917   9.037   5.785   3.584 -0.4760  0.0893 -0.1717
  212MOL0     C27918   8.981   5.892   3.514 -0.6229 -0.0415 -0.7125
  212MOL0     H27919   8.844   6.317   3.437 -0.9559  0.8500 -0.4349
  212MOL0     H27920   8.688   6.487   3.343  2.8413  1.1904 -2.2552
  212MOL0     H27921   8.370   6.307   3.150 -1.8030  0.0512  0.5007
  212MOL0     H27922   8.414   6.394   3.002 -0.5416  0.7990  0.4409
  212MOL0     H27923   8.195   6.441   3.078  1.0744 -0.2573 -1.3519
  212MOL0     H27924   8.301   6.581   3.049  0.3457  1.2068  1.6622
  212MOL0     H27925   8.348   6.572   3.296  1.2719 -0.3951 -1.8997
  212MOL0     H27926   8.212   6.462   3.304  0.7934  0.4386 -1.0962
  212MOL0     H27927   8.170   6.707   3.355  1.3865 -0.8239 -0.4181
  212MOL0     H27928   8.162   6.736   3.177  0.4631 -0.5792 -1.3950
  212MOL0     H27929   7.987   6.536   3.325  0.4424  2.8846  2.1536
  212MOL0     H27930   7.993   6.562   3.148 -3.0085 -1.6586  0.1702
  212MOL0     H27931   7.936   6.796   3.186  3.0269 -1.8305 -0.0667
  212MOL0     H27932   7.888   6.775   3.361 -3.9030  0.0569 -0.8583
  212MOL0     H27933   7.692   6.759   3.231  1.6449  0.5684  0.9981
  212MOL0     H27934   7.770   6.681   3.104  0.6622 -2.4304  0.1639
  212MOL0     H27935   7.776   6.519   3.355 -3.1289  2.7974  2.0128
  212MOL0     H27936   7.792   6.469   3.190 -1.3431 -2.0721 -0.2712
  212MOL0     H27937   7.489   6.661   3.344 -4.1301  2.2175 -1.8533
  212MOL0     H27938   7.222   6.529   3.369  3.0514  0.9795  1.0181
  212MOL0     H27939   7.163   6.480   3.206 -1.8462  0.6223  0.1193
  212MOL0     H27940   7.211   6.701   3.119 -3.4801 -0.3465 -0.7874
  212MOL0     H27941   7.252   6.758   3.294 -1.7635  0.6899  3.4701
  212MOL0     H27942   7.024   6.819   3.182  0.7548 -0.7597 -0.8806
  212MOL0     H27943   6.987   6.650   3.185 -2.2787  1.5613  0.7859
  212MOL0     H27944   7.082   6.820   3.417 -0.9339  0.3070 -1.8428
  212MOL0     H27945   7.010   6.664   3.444 -2.3915 -1.2556 -1.0266
  212MOL0     H27946   6.692   6.949   3.447 -0.6522 -1.2241 -2.1223
  212MOL0     H27947   6.490   6.876   3.597  0.6898  0.3381 -0.6723
  212MOL0     H27948   6.159   6.560   3.683  0.1185 -0.3477  1.2992
  212MOL0     H27949   5.974   6.426   3.780 -0.1340 -1.6760 -3.0451
  212MOL0     H27950   5.890   6.407   3.999 -1.3454  0.1309  1.2069
  212MOL0     H27951   5.945   6.317   4.135 -0.3573 -0.4160  0.3964
  212MOL0     H27952   5.810   6.136   4.073 -0.9551  1.5833  0.8461
  212MOL0     H27953   5.761   6.210   3.922 -1.8676 -0.1045  0.0350
  212MOL0     H27954   5.660   6.400   4.100  2.4763  0.8388  2.4870
  212MOL0     H27955   5.712   6.274   4.221  2.2027  1.1893 -0.4378
  212MOL0     H27956   5.495   6.254   4.007 -0.4519  0.7876 -0.1979
  212MOL0     H27957   5.546   6.124   4.124  1.5136 -0.4206  0.1836
  212MOL0     H27958   5.428   6.397   4.197  1.1634  0.1087 -1.0649
  212MOL0     H27959   5.463   6.270   4.307  0.1546  0.3759 -0.3454
  212MOL0     H27960   5.302   6.141   4.113  3.0762  0.2303  1.1608
  212MOL0     H27961   5.224   6.300   4.108  0.1306  0.3106 -0.8922
  212MOL0     H27962   5.311   6.130   4.351 -1.1254 -2.1245  0.6960
  212MOL0     H27963   5.228   6.279   4.376 -0.0646 -1.3316  2.0841
  212MOL0     H27964   5.066   6.097   4.394  2.1204 -0.3603  1.1798
  212MOL0     H27965   5.098   6.045   4.231  1.9787 -0.3371  3.2453
  212MOL0     H27966   6.259   6.167   3.965  1.2933 -0.5748 -1.6101
  212MOL0     H27967   6.440   6.292   3.879 -0.6690 -0.7270  1.4957
  212MOL0     H27968   6.680   6.493   3.640  3.4285  1.0942  1.2669
  212MOL0     H27969   6.855   6.563   3.490 -0.9006 -0.5275  0.5081
  212MOL0     H27970   8.572   6.217   3.028  4.0363 -0.0270 -2.3061
  212MOL0     H27971   8.742   6.052   3.117  2.3048  0.6359 -0.4955
  212MOL0     H27972   9.265   6.096   3.525 -1.5817  0.8895 -1.2861
  212MOL0     H27973   9.341   5.925   3.658  0.4847  1.6145 -2.0235
  212MOL0     H27974   9.340   5.784   3.863  0.2956 -1.6749  2.6478
  212MOL0     H27975   9.421   5.746   3.715 -0.6439  3.2732  1.1469
  212MOL0     H27976   9.422   5.592   3.946 -0.1348 -0.4363  1.3271
  212MOL0     H27977   9.278   5.536   3.882  1.2414 -0.6212  0.8803
  212MOL0     H27978   9.428   5.493   3.659 -0.4060 -0.3372  0.8229
  212MOL0     H27979   9.418   5.379   3.786  2.4062 -0.8978 -0.1614
  212MOL0     H27980   9.643   5.585   3.781 -0.9398  0.7854  1.2052
  212MOL0     H27981   9.608   5.471   3.909  0.1662  2.7671  0.2948
  212MOL0     H27982   9.802   5.222   3.623  1.0079 -0.4914  0.4671
  212MOL0     H27983   8.977   5.695   3.600 -0.4655 -0.6070 -3.3696
  212MOL0     H27984   8.878   5.887   3.480 -1.1936 -0.7393  1.0080
  213MOL0     O27985   4.780   8.467   6.497 -0.1826  0.0608  0.2875
  213MOL0     C27986   4.799   8.399   6.393  0.9874 -0.3811  0.1013
  213MOL0     O27987   4.922   8.384   6.333 -0.3400  0.2532  0.4142
  213MOL0     C27988   5.042   8.396   6.401  0.0722 -0.2859 -0.0392
  213MOL0     C27989   5.058   8.397   6.543  0.0483  0.1617  0.4572
  213MOL0     C27990   5.183   8.430   6.596 -0.3109  0.4397  0.8817
  213MOL0     C27991   5.298   8.445   6.520 -0.0846 -0.4067 -0.2432
  213MOL0     O27992   5.407   8.490   6.583 -0.3293 -0.3394  0.0163
  213MOL0     C27993   5.535   8.431   6.571  0.2794  0.0307  0.1382
  213MOL0     C27994   5.654   8.525   6.618 -0.1108 -0.4063 -0.1605
  213MOL0     C27995   5.651   8.656   6.540  0.1613  0.3948  0.2752
  213MOL0     C27996   5.768   8.741   6.590 -0.9980  0.2009  0.2977
  213MOL0     C27997   5.774   8.884   6.515  0.5829  0.5950 -0.3231
  213MOL0     C27998   5.797   8.893   6.367  0.5097 -0.3413 -0.2700
  213MOL0     C27999   5.806   9.043   6.320 -0.4978 -0.2666 -0.2832
  213MOL0     C28000   5.781   9.061   6.168 -0.7646  0.1216  0.1785
  213MOL0     N28001   5.639   9.030   6.137  0.0480 -0.2246 -0.3485
  213MOL0     C28002   5.583   8.916   6.081  0.4482 -0.1865 -0.5184
  213MOL0     C28003   5.456   8.947   6.048 -0.7714  0.0366 -0.3651
  213MOL0     C28004   5.363   8.863   5.970  1.3185 -0.3575  0.3685
  213MOL0     C28005   5.314   8.747   6.046  0.6587 -0.1812  0.4036
  213MOL0     C28006   5.221   8.787   6.161  0.1944 -0.0535  0.6597
  213MOL0     C28007   5.094   8.845   6.116  0.0385 -0.0421 -0.6666
  213MOL0     O28008   4.997   8.818   6.222  0.7224 -0.0908  0.0975
  213MOL0     C28009   4.866   8.864   6.210 -0.0891  0.2456 -0.2922
  213MOL0     C28010   4.828   8.958   6.117  0.4377  0.5324 -0.1112
  213MOL0     C28011   4.698   9.010   6.108  0.1698 -0.2524 -0.1366
  213MOL0     C28012   4.602   8.966   6.202  0.2367 -1.1573 -0.2145
  213MOL0     C28013   4.470   9.037   6.203  0.1879  1.0943  0.1801
  213MOL0     O28014   4.444   9.123   6.108 -0.0258  0.2408 -0.5107
  213MOL0     C28015   4.324   9.191   6.113  0.8391  0.4553  0.0704
  213MOL0     C28016   4.242   9.183   5.994  0.1874  0.0753  0.0845
  213MOL0     C28017   4.121   9.251   5.987  0.1100 -0.2447  0.2256
  213MOL0     C28018   4.079   9.330   6.096  0.5686 -0.3257  0.4736
  213MOL0     O28019   3.957   9.398   6.077 -0.1415 -0.1595  0.3084
  213MOL0     C28020   3.896   9.458   6.198 -0.4778 -0.2195  1.1450
  213MOL0     C28021   3.773   9.532   6.144 -0.7120  0.5420  0.0289
  213MOL0     C28022   3.661   9.436   6.100 -1.1251  0.0701 -0.1316
  213MOL0     C28023   3.596   9.370   6.220  0.3113 -0.0635 -0.1420
  213MOL0     C28024   3.468   9.281   6.202 -0.2619  0.4180 -0.0171
  213MOL0     C28025   3.355   9.378   6.172 -0.5987 -0.2849 -0.6763
  213MOL0     C28026   3.222   9.307   6.144 -1.1636 -0.4309 -0.3572
  213MOL0     C28027   3.181   9.221   6.268 -0.2382 -0.0943  0.6430
  213MOL0    Cl28028   3.173   9.313   6.431 -0.0412  0.0330 -0.4909
  213MOL0     C28029   4.158   9.335   6.212 -0.1298  0.2666 -0.9893
  213MOL0     C28030   4.280   9.269   6.218  0.2860  0.0128 -0.1917
  213MOL0     O28031   4.391   8.998   6.293 -0.1380 -0.0407 -0.0183
  213MOL0     C28032   4.636   8.871   6.295 -0.8412  0.3865  0.5334
  213MOL0     C28033   4.765   8.819   6.298  0.0401  0.3232 -0.6245
  213MOL0     N28034   5.430   9.079   6.094  0.1749  0.1868  0.6745
  213MOL0     N28035   5.539   9.123   6.143  0.4704  0.1486 -0.2648
  213MOL0     C28036   5.285   8.437   6.385 -0.1755 -0.1292 -0.1352
  213MOL0     C28037   5.159   8.411   6.327  0.0714  0.2365 -0.4278
  213MOL0     C28038   4.692   8.317   6.332  0.2085  0.3497 -0.2630
  213MOL0     C28039   4.713   8.259   6.207 -0.4999  0.5538  0.1552
  213MOL0     C28040   4.619   8.173   6.143 -0.7519 -0.0783 -0.4864
  213MOL0     C28041   4.507   8.138   6.214 -0.2324 -0.4449  1.2296
  213MOL0     O28042   4.430   8.038   6.163 -0.0263  0.2495  0.2136
  213MOL0     C28043   4.347   8.058   6.052 -0.0909 -0.1179  0.0149
  213MOL0     C28044   4.257   7.930   6.033  0.2404  0.8255 -0.6006
  213MOL0     C28045   4.137   7.921   6.129 -0.2745  0.1771  0.2801
  213MOL0     C28046   4.181   7.913   6.279  0.3484  0.0201  1.0265
  213MOL0     C28047   4.072   7.872   6.370 -0.5842 -0.2566 -0.5645
  213MOL0     C28048   3.971   7.834   6.436 -0.1910 -0.6122  1.2768
  213MOL0     C28049   4.479   8.194   6.342 -0.9825 -0.2655 -0.0098
  213MOL0     C28050   4.575   8.280   6.402 -0.1669  0.3695  0.3738
  213MOL0     H28051   4.979   8.385   6.615 -1.0766  2.0019 -0.3851
  213MOL0     H28052   5.192   8.445   6.703  0.3852  1.5562  0.6784
  213MOL0     H28053   5.544   8.396   6.468 -3.2856  0.6422 -0.5203
  213MOL0     H28054   5.536   8.347   6.642  1.7639  0.5125  0.7248
  213MOL0     H28055   5.751   8.474   6.617 -0.5984 -1.4309 -2.2887
  213MOL0     H28056   5.637   8.546   6.724  1.0213 -0.1769 -0.0187
  213MOL0     H28057   5.553   8.700   6.556 -0.0347 -0.2358  0.8541
  213MOL0     H28058   5.652   8.638   6.432 -1.1968 -1.7432  0.5653
  213MOL0     H28059   5.766   8.755   6.698  0.7741 -1.4494  0.5865
  213MOL0     H28060   5.860   8.694   6.555  0.1230  0.2718  2.9444
  213MOL0     H28061   5.852   8.944   6.562 -0.9339  0.2388  2.9450
  213MOL0     H28062   5.680   8.933   6.541  1.1495  1.0392  0.9674
  213MOL0     H28063   5.710   8.846   6.322  0.6105 -1.8781  1.0574
  213MOL0     H28064   5.890   8.840   6.340 -0.6718 -2.6669 -0.0592
  213MOL0     H28065   5.729   9.096   6.377  0.5674 -2.0311  3.0111
  213MOL0     H28066   5.902   9.084   6.353 -0.4717 -0.4866 -0.0836
  213MOL0     H28067   5.848   8.999   6.109 -1.3446  0.8054 -1.2502
  213MOL0     H28068   5.801   9.168   6.154 -0.7129 -0.0597 -1.2278
  213MOL0     H28069   5.626   8.819   6.058 -2.8353 -1.8282 -0.3199
  213MOL0     H28070   5.414   8.825   5.881  0.8110  0.3041 -0.2152
  213MOL0     H28071   5.281   8.924   5.931  1.0991 -0.1150  1.2002
  213MOL0     H28072   5.399   8.691   6.086 -0.2800 -1.9379  0.0393
  213MOL0     H28073   5.264   8.674   5.982  2.0505  0.1010 -1.0917
  213MOL0     H28074   5.202   8.698   6.222 -0.9822 -0.9852 -0.9645
  213MOL0     H28075   5.263   8.862   6.229  0.9754 -0.8877  1.1239
  213MOL0     H28076   5.056   8.792   6.028  0.3938  0.0185 -0.8556
  213MOL0     H28077   5.104   8.952   6.097  0.6417 -0.2119 -1.3295
  213MOL0     H28078   4.900   8.978   6.039  3.0832 -2.3409  1.3690
  213MOL0     H28079   4.690   9.092   6.037 -2.2582 -1.1241 -0.9862
  213MOL0     H28080   4.274   9.116   5.915  0.7565 -0.9564  1.1504
  213MOL0     H28081   4.068   9.254   5.893  0.5399 -4.2325 -0.3330
  213MOL0     H28082   3.970   9.532   6.231  0.3387  0.3343 -1.6707
  213MOL0     H28083   3.868   9.389   6.278 -1.2231  1.3116  2.2814
  213MOL0     H28084   3.817   9.595   6.067  1.6519 -0.7916  0.1835
  213MOL0     H28085   3.734   9.594   6.225 -0.9604  0.7178 -0.2280
  213MOL0     H28086   3.707   9.366   6.028  1.9173  0.2411  1.4659
  213MOL0     H28087   3.590   9.490   6.036  1.2187  1.0671 -2.0841
  213MOL0     H28088   3.675   9.303   6.256  0.8884 -1.0553 -3.0424
  213MOL0     H28089   3.570   9.446   6.294  0.6237 -1.5713  1.6223
  213MOL0     H28090   3.453   9.231   6.299  1.2042  0.6239  0.3289
  213MOL0     H28091   3.480   9.207   6.123 -2.6113  0.4333 -0.4555
  213MOL0     H28092   3.374   9.446   6.089 -4.8879  0.9369 -0.9327
  213MOL0     H28093   3.338   9.444   6.258  1.9595  2.0462 -1.8272
  213MOL0     H28094   3.150   9.388   6.130 -0.6092  0.5153  1.8585
  213MOL0     H28095   3.231   9.235   6.062  0.4730 -1.0073  0.2988
  213MOL0     H28096   3.254   9.142   6.289 -0.2567 -0.3497 -0.2216
  213MOL0     H28097   3.082   9.186   6.237 -1.4907  1.9522  2.0308
  213MOL0     H28098   4.132   9.386   6.304  2.5950  0.1107 -0.0335
  213MOL0     H28099   4.339   9.285   6.308 -0.6754 -2.4674  0.9931
  213MOL0     H28100   4.563   8.858   6.375  0.2378  2.5650  1.9861
  213MOL0     H28101   4.786   8.748   6.378 -0.4683  0.1109 -0.6800
  213MOL0     H28102   5.365   8.471   6.320  0.0809 -2.8758 -1.3988
  213MOL0     H28103   5.156   8.402   6.219 -2.2128 -2.2721 -0.2712
  213MOL0     H28104   4.804   8.292   6.158 -0.3921  0.8554  0.5598
  213MOL0     H28105   4.635   8.124   6.048  2.2575  1.8653 -1.1097
  213MOL0     H28106   4.410   8.051   5.962  1.0106  0.1842  0.7493
  213MOL0     H28107   4.299   8.156   6.063 -0.1466 -0.0010 -1.1345
  213MOL0     H28108   4.215   7.916   5.933 -1.4871 -2.1586  0.3982
  213MOL0     H28109   4.317   7.839   6.047 -2.8401 -0.9423  3.3737
  213MOL0     H28110   4.078   7.835   6.097  0.8761  0.3732 -2.7012
  213MOL0     H28111   4.070   8.007   6.116  0.0415  0.3355 -0.3794
  213MOL0     H28112   4.259   7.837   6.290 -1.0456 -1.6095  0.1552
  213MOL0     H28113   4.208   8.015   6.307 -1.6336  0.5728  1.0741
  213MOL0     H28114   3.889   7.794   6.492  0.0275 -1.1899  1.1880
  213MOL0     H28115   4.387   8.167   6.391 -1.9246  0.1130 -1.5063
  213MOL0     H28116   4.562   8.312   6.505 -0.6322 -0.1162  0.4709
  214MOL0     O28117  10.287   1.166   2.490 -0.0045  0.1795  0.3040
  214MOL0     C28118  10.384   1.096   2.456 -0.3264 -0.3532 -1.0521
  214MOL0     O28119  10.370   0.976   2.400 -0.6044 -0.3262  0.2410
  214MOL0     C28120  10.251   0.915   2.370  1.3317 -0.0747  0.1133
  214MOL0     C28121  10.143   0.971   2.296  0.2549 -0.1001 -0.3438
  214MOL0     C28122  10.021   0.909   2.280  0.1718 -1.0057 -0.1904
  214MOL0     C28123   9.993   0.787   2.344 -0.1741 -0.1456 -0.0156
  214MOL0     O28124   9.875   0.725   2.344  0.4201 -0.4617 -0.1282
  214MOL0     C28125   9.758   0.809   2.314  0.0403  0.4214 -0.6410
  214MOL0     C28126   9.641   0.725   2.365 -0.5261  0.1133  0.6343
  214MOL0     C28127   9.655   0.685   2.514 -0.2120  0.0777 -0.5571
  214MOL0     C28128   9.534   0.616   2.585  0.1106  0.4645 -0.0366
  214MOL0     C28129   9.544   0.646   2.737 -0.5886 -0.6279  0.1974
  214MOL0     C28130   9.414   0.594   2.815 -0.0659  0.0889 -0.4726
  214MOL0     C28131   9.396   0.445   2.812 -0.8753  0.0045  0.4700
  214MOL0     C28132   9.290   0.405   2.919 -0.3826 -0.4427 -0.0160
  214MOL0     N28133   9.155   0.443   2.863  0.8108 -0.3329  0.6317
  214MOL0     C28134   9.096   0.381   2.756  0.1402 -0.9659 -0.0691
  214MOL0     C28135   8.984   0.456   2.734  0.0403  0.1165  0.3282
  214MOL0     C28136   8.896   0.428   2.606 -0.4462  0.4187  0.5365
  214MOL0     C28137   8.772   0.335   2.637 -0.5545 -0.3471 -0.0244
  214MOL0     C28138   8.715   0.282   2.510 -0.3539  0.3375  0.5233
  214MOL0     C28139   8.611   0.364   2.444 -0.2600 -0.5228 -0.5144
  214MOL0     O28140   8.492   0.349   2.526 -0.8975 -0.6190  0.1878
  214MOL0     C28141   8.388   0.289   2.475 -0.4667  0.5626  0.0581
  214MOL0     C28142   8.329   0.328   2.346 -0.7101 -0.5567  0.6326
  214MOL0     C28143   8.210   0.266   2.309  0.2551  0.6266  0.5966
  214MOL0     C28144   8.161   0.152   2.378  0.6904 -0.7401 -0.7698
  214MOL0     C28145   8.029   0.097   2.334 -0.1268 -0.0967  0.6190
  214MOL0     O28146   7.984  -0.021   2.390  0.3645  0.6032  0.2213
  214MOL0     C28147   7.878  -0.073   2.316 -0.2383  0.2782 -0.4435
  214MOL0     C28148   7.746  -0.052   2.354  0.5066 -0.5685  0.2828
  214MOL0     C28149   7.641  -0.112   2.297 -0.1450  0.1524  0.2912
  214MOL0     C28150   7.666  -0.206   2.188 -0.1913 -0.4101 -0.3873
  214MOL0     O28151   7.557  -0.271   2.129  0.6959 -0.3673  0.3216
  214MOL0     C28152   7.558  -0.328   1.992 -0.2040 -1.0450 -0.5290
  214MOL0     C28153   7.575  -0.212   1.893  0.9887  0.1951 -0.7946
  214MOL0     C28154   7.439  -0.158   1.850  1.1777 -0.4785 -0.2024
  214MOL0     C28155   7.451  -0.042   1.751 -0.5193  0.2899  0.3289
  214MOL0     C28156   7.337   0.064   1.751 -0.0949 -0.1442 -0.0720
  214MOL0     C28157   7.204  -0.005   1.734  0.3768  0.4585 -0.0344
  214MOL0     C28158   7.097   0.097   1.704  0.1825  0.6448 -0.0425
  214MOL0     C28159   6.951   0.040   1.718  0.2635  0.9277  0.4844
  214MOL0    Cl28160   6.886  -0.037   1.579 -0.4941 -0.1327  0.2161
  214MOL0     C28161   7.798  -0.233   2.143  0.2798 -0.0211  0.3823
  214MOL0     C28162   7.903  -0.173   2.217 -0.4410 -0.3698  0.4589
  214MOL0     O28163   7.976   0.163   2.244  0.8805  0.6436  0.3560
  214MOL0     C28164   8.236   0.101   2.481 -0.0940  0.7237 -0.1105
  214MOL0     C28165   8.349   0.173   2.529  0.2898  0.2156 -0.8172
  214MOL0     N28166   8.975   0.556   2.833 -0.2897 -0.3486  0.5146
  214MOL0     N28167   9.075   0.545   2.907 -0.3666  0.2550  0.1005
  214MOL0     C28168  10.099   0.726   2.424  1.0428 -0.1173  0.4825
  214MOL0     C28169  10.221   0.797   2.438  0.6224  0.5433  0.5703
  214MOL0     C28170  10.519   1.140   2.483 -1.0878 -0.1815  0.7555
  214MOL0     C28171  10.623   1.054   2.519  0.9669 -0.1264 -0.6230
  214MOL0     C28172  10.747   1.103   2.567 -0.6893 -0.2808 -0.1547
  214MOL0     C28173  10.769   1.240   2.579  0.1388  0.4403  0.8069
  214MOL0     O28174  10.892   1.293   2.608 -0.5811  0.0007  0.0368
  214MOL0     C28175  11.005   1.213   2.655 -0.0350  0.1216 -0.2836
  214MOL0     C28176  11.123   1.300   2.690  0.0234 -1.0021 -0.4864
  214MOL0     C28177  11.224   1.230   2.777  0.8994 -0.2194 -0.3685
  214MOL0     C28178  11.358   1.308   2.797 -0.4447 -0.8724 -0.2476
  214MOL0     C28179  11.444   1.311   2.685  0.7523 -0.5137  0.1875
  214MOL0     C28180  11.515   1.330   2.591 -0.3163 -0.2102 -0.1140
  214MOL0     C28181  10.665   1.326   2.565  0.2264  0.1132  0.6981
  214MOL0     C28182  10.548   1.279   2.511 -0.2815  0.7144  1.2114
  214MOL0     H28183  10.172   1.065   2.250 -0.0241 -0.6160 -1.5977
  214MOL0     H28184   9.950   0.972   2.227 -0.2670  0.0171  1.5333
  214MOL0     H28185   9.755   0.832   2.207  2.8345  4.7828 -0.0256
  214MOL0     H28186   9.756   0.904   2.368 -1.6855  1.0653 -1.7390
  214MOL0     H28187   9.619   0.637   2.303  0.2832  1.1530 -1.2049
  214MOL0     H28188   9.545   0.777   2.356  0.7399  2.4032 -0.3116
  214MOL0     H28189   9.678   0.778   2.567 -0.9979 -0.3976  0.6779
  214MOL0     H28190   9.739   0.616   2.523 -0.4832 -0.2231 -0.2918
  214MOL0     H28191   9.431   0.650   2.568 -1.2029 -2.8301  0.4805
  214MOL0     H28192   9.524   0.511   2.556  0.8630 -0.3218  2.3119
  214MOL0     H28193   9.543   0.754   2.751 -1.1596 -0.2165 -2.5917
  214MOL0     H28194   9.633   0.604   2.786 -1.6588 -1.2851  1.6536
  214MOL0     H28195   9.326   0.638   2.766  0.3524  2.1854  0.5919
  214MOL0     H28196   9.404   0.616   2.921 -1.0375 -0.1614 -0.4986
  214MOL0     H28197   9.362   0.424   2.710  0.2293  1.7241 -0.3041
  214MOL0     H28198   9.490   0.394   2.837  0.1650  0.6156 -1.9475
  214MOL0     H28199   9.314   0.453   3.015  1.4185 -0.7235 -0.2857
  214MOL0     H28200   9.291   0.297   2.931 -2.7927 -0.5049 -0.0520
  214MOL0     H28201   9.132   0.292   2.703  0.9735  0.3806 -1.8849
  214MOL0     H28202   8.971   0.382   2.541 -0.7123  2.4089 -1.2647
  214MOL0     H28203   8.874   0.526   2.564 -0.0609  0.1769 -0.2527
  214MOL0     H28204   8.704   0.400   2.693  0.5860  0.5668  0.3408
  214MOL0     H28205   8.804   0.246   2.692  1.5288  0.1459 -0.3766
  214MOL0     H28206   8.800   0.262   2.443  0.4670 -0.0719  1.6446
  214MOL0     H28207   8.679   0.179   2.522 -0.4191  0.4028  0.8988
  214MOL0     H28208   8.609   0.324   2.342  1.4734  1.3916 -1.3475
  214MOL0     H28209   8.637   0.470   2.436  2.6282 -1.1656 -0.8686
  214MOL0     H28210   8.365   0.415   2.293 -2.8022 -0.7727 -1.2637
  214MOL0     H28211   8.162   0.310   2.222  0.9074  2.0524  0.9272
  214MOL0     H28212   7.721   0.011   2.439 -2.4612 -0.0512 -0.8396
  214MOL0     H28213   7.539  -0.084   2.325 -1.0323 -1.1272 -1.4686
  214MOL0     H28214   7.462  -0.379   1.977 -0.2143 -1.2568  0.1955
  214MOL0     H28215   7.633  -0.407   1.980  2.5653  1.5281 -1.1816
  214MOL0     H28216   7.645  -0.242   1.814 -1.3495 -1.1191 -2.4730
  214MOL0     H28217   7.623  -0.132   1.950  0.0767 -0.8735  1.6304
  214MOL0     H28218   7.390  -0.121   1.941  1.8690 -0.6967  0.2614
  214MOL0     H28219   7.387  -0.246   1.812 -0.2829 -1.2156  3.1368
  214MOL0     H28220   7.548   0.003   1.775 -0.2393 -0.5268  0.7445
  214MOL0     H28221   7.459  -0.095   1.655  1.9339 -4.2820  2.7212
  214MOL0     H28222   7.348   0.135   1.670 -1.9136  0.1263 -0.1264
  214MOL0     H28223   7.329   0.117   1.846 -4.3630 -0.5049 -0.0191
  214MOL0     H28224   7.168  -0.054   1.825 -1.5456  0.9042 -0.5215
  214MOL0     H28225   7.224  -0.079   1.656  4.0997 -0.4968  1.5739
  214MOL0     H28226   7.099   0.185   1.769 -1.0373  0.9169 -0.3497
  214MOL0     H28227   7.113   0.132   1.602 -0.4620  1.3818  0.1003
  214MOL0     H28228   6.892   0.130   1.739 -2.4950 -0.6468  0.0031
  214MOL0     H28229   6.944  -0.018   1.811 -2.4965  0.9037  0.3523
  214MOL0     H28230   7.827  -0.298   2.061  1.0251 -0.4762  0.9888
  214MOL0     H28231   8.001  -0.188   2.173 -1.4308 -0.4117 -1.9052
  214MOL0     H28232   8.218   0.013   2.541  1.3856  1.3015  1.2497
  214MOL0     H28233   8.405   0.125   2.608 -1.4804 -3.7163 -1.6970
  214MOL0     H28234  10.089   0.626   2.464  0.3737 -0.0974  0.3689
  214MOL0     H28235  10.302   0.759   2.499  0.0999  1.4914  1.9176
  214MOL0     H28236  10.610   0.949   2.496  0.9227 -0.8151  2.1980
  214MOL0     H28237  10.819   1.031   2.606 -0.8116  0.0481  0.7026
  214MOL0     H28238  11.034   1.141   2.579 -3.3360 -0.8697 -0.7844
  214MOL0     H28239  10.970   1.157   2.742 -0.8691 -0.5789 -1.0581
  214MOL0     H28240  11.176   1.332   2.600  0.0529 -1.5112 -0.6533
  214MOL0     H28241  11.071   1.383   2.738  1.4047  1.1100 -2.4239
  214MOL0     H28242  11.249   1.136   2.725 -0.9552 -0.7817 -0.3118
  214MOL0     H28243  11.171   1.205   2.869 -0.1218  0.6175 -0.7129
  214MOL0     H28244  11.341   1.412   2.826 -0.0749 -1.0504  0.6256
  214MOL0     H28245  11.415   1.252   2.871 -2.3711 -0.3021  1.7753
  214MOL0     H28246  11.587   1.341   2.513  0.5722 -3.8294  0.0337
  214MOL0     H28247  10.666   1.433   2.582 -0.2588  0.3674 -0.6857
  214MOL0     H28248  10.467   1.352   2.510  0.0261  1.0652 -0.1022
  215MOL0     O28249   6.690   3.413   7.566  0.1862  0.6084 -0.2698
  215MOL0     C28250   6.756   3.316   7.593 -0.7883  0.1727 -0.4125
  215MOL0     O28251   6.712   3.202   7.654  0.8361  0.9404 -0.4418
  215MOL0     C28252   6.592   3.211   7.729 -0.4078  0.5595  0.6784
  215MOL0     C28253   6.469   3.227   7.662  0.6772  0.5297 -0.3740
  215MOL0     C28254   6.350   3.224   7.738 -0.2531  0.4465 -0.4419
  215MOL0     C28255   6.359   3.226   7.880  0.1769 -0.6689  0.3499
  215MOL0     O28256   6.246   3.211   7.949  0.0334  0.6446 -0.0009
  215MOL0     C28257   6.228   3.288   8.072 -0.2398  0.3466 -0.5331
  215MOL0     C28258   6.180   3.437   8.044  0.7668 -1.1434 -0.1873
  215MOL0     C28259   6.037   3.444   7.980  0.0500  0.7278  0.5105
  215MOL0     C28260   5.930   3.386   8.079 -0.3543 -0.2906 -0.6611
  215MOL0     C28261   5.789   3.395   8.019  0.9427 -0.1662 -0.0434
  215MOL0     C28262   5.685   3.401   8.139 -0.6160  0.2738 -0.0475
  215MOL0     C28263   5.547   3.452   8.091 -0.3634  0.9141 -0.2845
  215MOL0     C28264   5.483   3.343   8.009 -0.2122  0.2921  0.0898
  215MOL0     N28265   5.337   3.370   8.004  0.5927  0.2917  0.8056
  215MOL0     C28266   5.260   3.385   7.886  0.8191  0.0885  0.1038
  215MOL0     C28267   5.134   3.398   7.922  0.7241 -0.4320 -0.7440
  215MOL0     C28268   5.008   3.389   7.837 -0.3166  0.9660  0.9464
  215MOL0     C28269   4.929   3.519   7.825 -0.2404  0.5596  0.2930
  215MOL0     C28270   4.831   3.538   7.941  0.1470  0.0538 -0.2489
  215MOL0     C28271   4.708   3.443   7.925  0.2355  0.4934  0.6516
  215MOL0     O28272   4.641   3.476   7.798  0.2513 -0.0770 -0.1670
  215MOL0     C28273   4.509   3.529   7.798 -0.5949  0.0258 -0.3175
  215MOL0     C28274   4.411   3.505   7.897  0.5869 -0.1546  0.5418
  215MOL0     C28275   4.287   3.562   7.887  0.3374 -1.0116  0.5161
  215MOL0     C28276   4.262   3.665   7.791 -0.4442  0.0931  0.6356
  215MOL0     C28277   4.137   3.743   7.781 -0.3962  0.1966  0.2923
  215MOL0     O28278   4.035   3.682   7.850  0.5133  0.2893  0.0432
  215MOL0     C28279   3.905   3.729   7.829 -0.1527  0.1866 -0.3007
  215MOL0     C28280   3.821   3.717   7.942  0.4556  0.2374 -0.0948
  215MOL0     C28281   3.681   3.743   7.928 -0.0383 -0.2767  0.4840
  215MOL0     C28282   3.621   3.781   7.801 -0.1762 -0.3153  0.6331
  215MOL0     O28283   3.483   3.804   7.798 -0.3436 -0.0048 -0.0210
  215MOL0     C28284   3.421   3.793   7.676 -0.1434 -0.2437  0.5095
  215MOL0     C28285   3.271   3.815   7.715  0.0297 -0.4327 -0.4999
  215MOL0     C28286   3.181   3.852   7.586  0.8038  0.7214 -0.9687
  215MOL0     C28287   3.028   3.836   7.616 -1.0436  0.1840  0.0355
  215MOL0     C28288   2.964   3.902   7.485 -0.0309  0.7577 -0.2867
  215MOL0     C28289   2.971   3.805   7.359 -0.3457  0.7497 -0.7466
  215MOL0     C28290   2.836   3.801   7.281  0.7509 -0.1269 -0.0977
  215MOL0     C28291   2.861   3.726   7.152 -0.2801  0.4418  0.9817
  215MOL0    Cl28292   2.981   3.823   7.050 -0.0588  0.6067 -0.1379
  215MOL0     C28293   3.714   3.806   7.695  0.0755  0.0246 -0.3851
  215MOL0     C28294   3.845   3.771   7.709  0.2458  0.5179  0.1432
  215MOL0     O28295   4.131   3.842   7.707 -0.5248  0.5109  0.1304
  215MOL0     C28296   4.359   3.685   7.695 -0.7425  0.5300 -0.0854
  215MOL0     C28297   4.480   3.623   7.697 -0.2115  0.6279 -0.5399
  215MOL0     N28298   5.133   3.374   8.064  0.1467  0.7363 -0.6250
  215MOL0     N28299   5.249   3.365   8.112 -1.3352 -0.1218 -1.1048
  215MOL0     C28300   6.489   3.216   7.941  0.0658  0.0280  0.0809
  215MOL0     C28301   6.605   3.206   7.865 -0.6794 -0.7479 -0.3749
  215MOL0     C28302   6.911   3.327   7.578 -0.4042  0.3409  0.4347
  215MOL0     C28303   6.993   3.210   7.571 -1.3263  0.6223 -0.0755
  215MOL0     C28304   7.132   3.220   7.554 -0.2491  0.7607  1.1809
  215MOL0     C28305   7.191   3.343   7.555 -1.2022 -0.3277  0.0887
  215MOL0     O28306   7.323   3.353   7.537  0.0231 -0.2919 -0.1769
  215MOL0     C28307   7.404   3.440   7.627 -0.6700  0.4041  0.2778
  215MOL0     C28308   7.397   3.385   7.766 -0.6495  0.1744  0.0583
  215MOL0     C28309   7.472   3.487   7.851 -0.3534 -0.2736  0.3295
  215MOL0     C28310   7.549   3.433   7.965  0.0183 -0.2614  0.1172
  215MOL0     C28311   7.636   3.524   8.037  0.4303  0.5366 -0.4818
  215MOL0     C28312   7.693   3.610   8.099  0.0968 -0.0437 -0.1678
  215MOL0     C28313   7.120   3.461   7.567  0.7590 -0.0098 -0.4769
  215MOL0     C28314   6.978   3.454   7.571  0.7408 -0.0835 -0.4548
  215MOL0     H28315   6.449   3.226   7.555 -6.5694  0.7187  0.4743
  215MOL0     H28316   6.248   3.218   7.702 -0.4592  1.5675 -0.1042
  215MOL0     H28317   6.326   3.295   8.121 -1.4008  0.3910  1.9646
  215MOL0     H28318   6.158   3.237   8.139 -2.3442  1.5150 -1.7398
  215MOL0     H28319   6.258   3.500   8.000 -0.0686 -0.1643 -0.3112
  215MOL0     H28320   6.169   3.478   8.145 -0.8832 -0.6971 -0.5237
  215MOL0     H28321   6.030   3.385   7.889  2.2543 -0.0053  0.7585
  215MOL0     H28322   6.021   3.551   7.962 -0.0982  0.2552 -2.6706
  215MOL0     H28323   5.953   3.279   8.091  2.6166  0.5614  3.1429
  215MOL0     H28324   5.941   3.430   8.178  0.8827 -2.9353  0.4921
  215MOL0     H28325   5.776   3.310   7.952  0.6383  1.4370 -2.1013
  215MOL0     H28326   5.785   3.480   7.951 -0.6133 -0.0401  0.1666
  215MOL0     H28327   5.721   3.477   8.209 -0.2402  1.4728 -1.4940
  215MOL0     H28328   5.668   3.307   8.193 -1.7310  0.8333  0.6238
  215MOL0     H28329   5.495   3.467   8.186  1.0028 -2.3790  1.1541
  215MOL0     H28330   5.543   3.549   8.040 -1.3065 -0.1337 -2.3285
  215MOL0     H28331   5.488   3.251   8.068  0.0938  1.0548  1.2832
  215MOL0     H28332   5.526   3.326   7.910 -0.2501 -3.9067  0.6053
  215MOL0     H28333   5.287   3.362   7.783 -2.4383  1.1254 -1.1117
  215MOL0     H28334   4.943   3.308   7.873  0.0173 -0.6939 -1.8479
  215MOL0     H28335   5.034   3.350   7.738  2.4383  0.2677  1.8429
  215MOL0     H28336   4.879   3.515   7.728  0.7254 -2.4983 -0.1964
  215MOL0     H28337   4.997   3.604   7.811 -0.0975  0.2455 -1.1501
  215MOL0     H28338   4.880   3.537   8.038 -0.2704  1.1359 -0.0101
  215MOL0     H28339   4.786   3.637   7.925 -0.0370 -0.2468 -1.7274
  215MOL0     H28340   4.645   3.438   8.014  0.5784  2.4671  1.0600
  215MOL0     H28341   4.745   3.341   7.914 -0.0136  0.3652  0.9866
  215MOL0     H28342   4.425   3.436   7.980  1.0790 -0.5981  0.0935
  215MOL0     H28343   4.211   3.528   7.957  0.5634 -0.4626  1.0419
  215MOL0     H28344   3.857   3.673   8.034  0.1193  0.0408 -0.0581
  215MOL0     H28345   3.620   3.737   8.018  1.2500  0.7848  1.4698
  215MOL0     H28346   3.424   3.693   7.630 -1.2663 -0.3965  0.7304
  215MOL0     H28347   3.447   3.872   7.606 -3.6975 -0.2656 -1.0477
  215MOL0     H28348   3.252   3.906   7.773 -3.0692 -0.6691 -0.9608
  215MOL0     H28349   3.235   3.730   7.774 -0.4796 -0.8782 -1.4270
  215MOL0     H28350   3.208   3.794   7.497 -2.6897 -2.0161 -0.4735
  215MOL0     H28351   3.193   3.958   7.561  0.2092  0.4446 -2.5832
  215MOL0     H28352   2.995   3.733   7.634 -4.1411  1.6699  4.2739
  215MOL0     H28353   2.999   3.893   7.704 -1.2839  0.8737 -0.4819
  215MOL0     H28354   3.006   4.000   7.460  1.7900  0.2834  0.7939
  215MOL0     H28355   2.857   3.922   7.500 -0.4298  0.4332 -2.3853
  215MOL0     H28356   2.997   3.705   7.394  0.2877  0.4033 -2.1251
  215MOL0     H28357   3.055   3.839   7.298  0.0525  1.7334  0.3079
  215MOL0     H28358   2.760   3.743   7.334 -0.3446  1.4315  0.1034
  215MOL0     H28359   2.797   3.900   7.259  0.2944  0.0610  1.4005
  215MOL0     H28360   2.773   3.709   7.089  1.0043  1.5764 -1.2227
  215MOL0     H28361   2.908   3.628   7.162  0.0152  0.4156 -0.3984
  215MOL0     H28362   3.686   3.830   7.593 -0.2689  1.7476  0.0803
  215MOL0     H28363   3.907   3.773   7.620 -1.2843 -0.3460 -0.9859
  215MOL0     H28364   4.341   3.747   7.607 -0.0192 -0.0141 -0.6358
  215MOL0     H28365   4.551   3.654   7.621 -0.1812  0.3706 -0.6171
  215MOL0     H28366   6.503   3.199   8.047 -0.0679  0.5937  0.1941
  215MOL0     H28367   6.701   3.197   7.915 -0.4285  0.1380 -0.6752
  215MOL0     H28368   6.946   3.112   7.562  1.8877 -1.0370 -0.2478
  215MOL0     H28369   7.190   3.133   7.528  0.8780  1.4050  1.4396
  215MOL0     H28370   7.360   3.540   7.620 -0.1947  0.5731 -0.4474
  215MOL0     H28371   7.505   3.450   7.587 -1.8722  1.3628 -2.8719
  215MOL0     H28372   7.299   3.366   7.810 -0.7471 -3.3189 -1.3514
  215MOL0     H28373   7.450   3.289   7.764  1.3054  1.2039 -1.0438
  215MOL0     H28374   7.399   3.555   7.896 -0.3993 -0.8009  1.0609
  215MOL0     H28375   7.538   3.550   7.791  0.0893 -1.0074  0.0331
  215MOL0     H28376   7.484   3.376   8.031  0.4545 -1.0337 -0.1020
  215MOL0     H28377   7.605   3.356   7.912  0.7971 -0.7407  1.5794
  215MOL0     H28378   7.738   3.696   8.143 -0.1265 -0.1984  0.3806
  215MOL0     H28379   7.166   3.558   7.553  1.4020 -0.3593 -0.8549
  215MOL0     H28380   6.930   3.551   7.574 -0.1181 -0.3874  4.6242
  216MOL0     O28381   3.536   0.190   7.193 -0.4188 -0.0231  0.4357
  216MOL0     C28382   3.580   0.265   7.102  0.4038  0.0367 -1.2920
  216MOL0     O28383   3.505   0.358   7.034  0.4530  0.3148  0.5016
  216MOL0     C28384   3.375   0.327   7.038  0.1784  0.6937  0.4264
  216MOL0     C28385   3.285   0.412   7.105 -0.3147 -0.5232  0.0001
  216MOL0     C28386   3.147   0.386   7.107  0.0657  0.2497  0.2870
  216MOL0     C28387   3.094   0.274   7.035 -0.0031  0.8051 -0.0754
  216MOL0     O28388   2.960   0.254   7.042 -1.0323 -0.4540 -0.0760
  216MOL0     C28389   2.916   0.119   7.016  0.2101 -0.3920  0.4481
  216MOL0     C28390   2.768   0.105   7.051  0.7363  0.5357 -0.6144
  216MOL0     C28391   2.716  -0.033   7.012  0.2139 -0.4310 -0.9121
  216MOL0     C28392   2.563  -0.031   7.030 -0.4630 -0.3187  0.1528
  216MOL0     C28393   2.499  -0.170   7.022  0.1923 -0.2502  0.6041
  216MOL0     C28394   2.539  -0.245   6.893  0.2630 -0.2571  0.3348
  216MOL0     C28395   2.434  -0.355   6.869  0.3549 -0.3861 -0.3293
  216MOL0     C28396   2.466  -0.426   6.736 -0.7885  0.1095  0.1662
  216MOL0     N28397   2.372  -0.518   6.677  0.0857  0.5982 -0.4784
  216MOL0     C28398   2.263  -0.561   6.752  0.6412 -0.3012 -0.6485
  216MOL0     C28399   2.213  -0.655   6.677  0.2881  0.2940  0.2702
  216MOL0     C28400   2.089  -0.738   6.706  0.0641  0.3424  0.3514
  216MOL0     C28401   1.966  -0.694   6.636 -0.3223 -0.0928 -0.2918
  216MOL0     C28402   1.835  -0.757   6.690 -0.1611 -0.3937 -0.0328
  216MOL0     C28403   1.826  -0.908   6.665  0.4165 -0.2387  0.1266
  216MOL0     O28404   1.813  -0.925   6.528 -0.4785 -1.3245 -0.2490
  216MOL0     C28405   1.695  -0.906   6.467  0.7410  0.6489  0.1007
  216MOL0     C28406   1.573  -0.898   6.520  0.6118 -0.0184 -0.2980
  216MOL0     C28407   1.455  -0.894   6.438  0.9456 -0.0703 -0.9084
  216MOL0     C28408   1.463  -0.914   6.299 -0.2034 -0.1619  0.0826
  216MOL0     C28409   1.339  -0.930   6.221  0.3653  0.1463 -0.2290
  216MOL0     O28410   1.220  -0.945   6.286 -0.0102 -0.1602 -0.2466
  216MOL0     C28411   1.104  -0.981   6.236 -0.1341  0.6112 -0.2847
  216MOL0     C28412   0.991  -0.913   6.277  0.3843 -0.6634 -0.3550
  216MOL0     C28413   0.864  -0.961   6.232 -0.3915 -0.4765  0.1857
  216MOL0     C28414   0.864  -1.067   6.146 -0.5730  0.0774 -0.1267
  216MOL0     O28415   0.743  -1.097   6.090  0.5461  0.2800  0.0851
  216MOL0     C28416   0.705  -1.241   6.103  0.5244  0.2743 -0.5168
  216MOL0     C28417   0.560  -1.264   6.057  0.6187  0.2915 -0.5806
  216MOL0     C28418   0.525  -1.218   5.920  0.6894  0.8797 -0.9458
  216MOL0     C28419   0.584  -1.302   5.810  1.0652  0.2466 -0.8646
  216MOL0     C28420   0.545  -1.230   5.682 -0.6210 -0.2063 -0.0841
  216MOL0     C28421   0.564  -1.307   5.560  0.2867 -0.6790  0.4994
  216MOL0     C28422   0.453  -1.415   5.535  0.2942  0.6230 -0.0532
  216MOL0     C28423   0.313  -1.360   5.488  0.3527 -1.0395 -0.7020
  216MOL0    Cl28424   0.223  -1.502   5.460 -0.4450 -0.1487 -0.0466
  216MOL0     C28425   0.976  -1.130   6.099 -0.0339  0.7592 -0.3984
  216MOL0     C28426   1.096  -1.085   6.141  0.1686 -0.0525  1.0410
  216MOL0     O28427   1.356  -0.929   6.097 -0.0796 -0.4320 -0.0146
  216MOL0     C28428   1.596  -0.918   6.246 -0.1492 -0.5602 -0.1457
  216MOL0     C28429   1.706  -0.919   6.330 -0.3419  0.3841  0.2687
  216MOL0     N28430   2.289  -0.667   6.566 -0.4444 -0.3035 -0.4410
  216MOL0     N28431   2.392  -0.588   6.568 -0.4243  0.7484 -0.0758
  216MOL0     C28432   3.186   0.181   6.977 -1.0369 -0.4240 -0.0860
  216MOL0     C28433   3.321   0.219   6.967 -0.6026  0.2911  0.2559
  216MOL0     C28434   3.725   0.269   7.086 -0.2237 -0.5364 -0.9296
  216MOL0     C28435   3.808   0.164   7.129  0.3626  0.1402  0.6933
  216MOL0     C28436   3.948   0.172   7.106  0.4846  0.3130  0.6259
  216MOL0     C28437   4.005   0.283   7.039 -0.4872 -1.0043 -0.0160
  216MOL0     O28438   4.145   0.291   7.023  0.0454  0.5498  0.8400
  216MOL0     C28439   4.188   0.371   6.919  0.5341  0.7100 -0.0189
  216MOL0     C28440   4.319   0.321   6.849 -0.3202  0.2957 -0.1476
  216MOL0     C28441   4.415   0.252   6.945 -0.5669 -0.4206 -0.4113
  216MOL0     C28442   4.503   0.369   7.000  0.0515  0.1579 -0.1774
  216MOL0     C28443   4.613   0.426   6.913  1.2306  0.4839  0.1142
  216MOL0     C28444   4.709   0.468   6.854  0.6173  0.6513 -0.5962
  216MOL0     C28445   3.921   0.386   7.006 -0.5383 -0.1731 -0.7850
  216MOL0     C28446   3.780   0.380   7.027  0.2380  0.3246  0.1448
  216MOL0     H28447   3.342   0.491   7.152  1.2485 -0.3060 -2.1366
  216MOL0     H28448   3.074   0.451   7.154 -2.4561 -1.0255 -1.5828
  216MOL0     H28449   2.973   0.039   7.063 -0.5717 -2.1539 -1.4158
  216MOL0     H28450   2.939   0.102   6.910  1.2521 -3.6466  1.0769
  216MOL0     H28451   2.723   0.183   6.989 -0.6023  1.8512  1.8807
  216MOL0     H28452   2.748   0.124   7.156  1.3880  0.9587 -0.5630
  216MOL0     H28453   2.767  -0.111   7.069 -0.2296 -0.6656 -0.8282
  216MOL0     H28454   2.728  -0.046   6.904  0.2001 -0.1282 -0.9504
  216MOL0     H28455   2.537   0.004   7.130 -0.6904 -3.3923  1.2981
  216MOL0     H28456   2.517   0.033   6.954 -1.5251 -0.3051  0.7818
  216MOL0     H28457   2.390  -0.159   7.019  0.0154 -1.5079  1.6320
  216MOL0     H28458   2.515  -0.226   7.114  0.1907  2.3050  2.2457
  216MOL0     H28459   2.631  -0.305   6.892 -0.7639 -2.2650 -4.7532
  216MOL0     H28460   2.557  -0.188   6.801 -0.5375 -1.3178 -0.5016
  216MOL0     H28461   2.445  -0.418   6.958  0.0648  1.2645  0.9108
  216MOL0     H28462   2.331  -0.318   6.862  0.4080  0.1508  1.3149
  216MOL0     H28463   2.559  -0.482   6.742 -0.2836  0.2806 -3.6715
  216MOL0     H28464   2.482  -0.349   6.660  0.5812 -2.8889 -2.8069
  216MOL0     H28465   2.227  -0.526   6.848  1.5975  0.6322 -0.6176
  216MOL0     H28466   2.064  -0.731   6.812 -1.9233 -2.3334  0.1669
  216MOL0     H28467   2.110  -0.845   6.697  0.1955  0.3163  0.9516
  216MOL0     H28468   1.972  -0.717   6.530  1.1304 -3.4864  0.4113
  216MOL0     H28469   1.957  -0.585   6.645  0.1073 -0.1938  2.4453
  216MOL0     H28470   1.833  -0.740   6.798  2.0431 -0.6200  0.0771
  216MOL0     H28471   1.744  -0.721   6.642 -1.3456 -1.9842  0.8863
  216MOL0     H28472   1.740  -0.952   6.715  0.0601 -2.5311 -2.2378
  216MOL0     H28473   1.918  -0.950   6.706  0.1464 -0.6637  0.3040
  216MOL0     H28474   1.559  -0.873   6.625 -0.5408  4.1895 -1.2857
  216MOL0     H28475   1.358  -0.873   6.482  1.4586  0.1479  0.1609
  216MOL0     H28476   0.996  -0.829   6.345  1.0511  1.6047 -3.0520
  216MOL0     H28477   0.770  -0.913   6.257 -1.2698 -1.6935 -0.6343
  216MOL0     H28478   0.712  -1.280   6.205 -2.5768 -0.5318 -0.5034
  216MOL0     H28479   0.781  -1.300   6.050  1.6676  0.7765  0.5272
  216MOL0     H28480   0.502  -1.209   6.132  1.0145  0.0864 -0.1218
  216MOL0     H28481   0.528  -1.368   6.070 -0.5231  0.5800 -0.9140
  216MOL0     H28482   0.566  -1.117   5.919  1.5705  0.7055  2.5483
  216MOL0     H28483   0.416  -1.226   5.907  0.3619  2.8044  0.1543
  216MOL0     H28484   0.692  -1.305   5.824  0.9526  1.6978  0.7617
  216MOL0     H28485   0.540  -1.401   5.816  3.5503 -0.8728  0.2979
  216MOL0     H28486   0.590  -1.130   5.679 -1.0243  0.0540  1.6075
  216MOL0     H28487   0.438  -1.211   5.690 -0.0112  3.4523  1.2265
  216MOL0     H28488   0.659  -1.358   5.580  0.3479 -0.7451  0.0488
  216MOL0     H28489   0.557  -1.239   5.474 -1.8481 -2.1371 -0.5619
  216MOL0     H28490   0.495  -1.483   5.460 -1.8257 -2.1008  1.0438
  216MOL0     H28491   0.430  -1.476   5.623  1.3083  2.4717  1.5573
  216MOL0     H28492   0.328  -1.304   5.395 -0.2517 -2.7578 -1.8684
  216MOL0     H28493   0.265  -1.305   5.570 -3.5722 -3.7659 -0.8853
  216MOL0     H28494   0.966  -1.212   6.029  0.3005  0.1910  0.2074
  216MOL0     H28495   1.187  -1.133   6.106 -0.6640 -1.3280  0.5950
  216MOL0     H28496   1.614  -0.923   6.139 -0.4810  1.0759 -0.3034
  216MOL0     H28497   1.804  -0.932   6.285 -1.1161 -0.0376 -1.3625
  216MOL0     H28498   3.156   0.089   6.929  0.2245  0.4646 -2.8297
  216MOL0     H28499   3.377   0.146   6.910 -1.2051 -2.0543  2.4610
  216MOL0     H28500   3.757   0.084   7.181  0.3734 -2.5774 -3.0602
  216MOL0     H28501   4.009   0.088   7.137 -0.8648 -1.0484 -0.2321
  216MOL0     H28502   4.200   0.472   6.961  3.0178  0.9975 -1.2218
  216MOL0     H28503   4.117   0.381   6.837  1.8932  1.0392 -1.1897
  216MOL0     H28504   4.302   0.244   6.772 -0.1704 -1.2054  1.2691
  216MOL0     H28505   4.368   0.402   6.795 -1.2462  2.1666  1.6963
  216MOL0     H28506   4.475   0.182   6.886  1.0055  2.0946 -1.9891
  216MOL0     H28507   4.374   0.200   7.032  2.6157  0.8217  2.0662
  216MOL0     H28508   4.437   0.451   7.030 -1.8125 -1.2981 -0.0978
  216MOL0     H28509   4.553   0.338   7.092  1.3243 -1.9661 -1.5156
  216MOL0     H28510   4.795   0.510   6.806  0.1808  0.8742 -1.1923
  216MOL0     H28511   3.965   0.473   6.958  2.2677 -0.0278  1.7335
  216MOL0     H28512   3.716   0.465   7.004 -0.8125  0.5677  3.3950
  217MOL0     O28513   7.671  10.090   5.490 -0.1818 -0.4431 -0.4828
  217MOL0     C28514   7.670  10.035   5.376 -0.1279  0.2929 -0.8626
  217MOL0     O28515   7.774  10.024   5.292 -0.5361  0.1758 -0.3639
  217MOL0     C28516   7.897  10.069   5.335 -0.1790 -0.1255 -0.8058
  217MOL0     C28517   7.963  10.031   5.450  0.0274 -0.3925  0.0414
  217MOL0     C28518   8.090  10.075   5.485  0.3594 -0.2741 -0.3539
  217MOL0     C28519   8.151  10.170   5.403 -0.1712  0.4420  0.3060
  217MOL0     O28520   8.286  10.190   5.434 -0.5091 -0.1519  0.5492
  217MOL0     C28521   8.373  10.144   5.324 -0.6268  0.7681 -0.9797
  217MOL0     C28522   8.516  10.155   5.386 -0.0751  0.7557  0.5758
  217MOL0     C28523   8.621  10.105   5.278 -0.3137  0.7563 -0.9499
  217MOL0     C28524   8.773  10.170   5.296 -0.0839 -0.0517  0.3394
  217MOL0     C28525   8.845  10.094   5.415 -0.0766 -0.6078  0.0802
  217MOL0     C28526   8.982  10.151   5.457  0.5896 -0.4331 -0.0513
  217MOL0     C28527   9.044  10.232   5.346 -0.7667 -0.1661 -0.2542
  217MOL0     C28528   9.190  10.241   5.381 -0.5875  0.0325  0.5347
  217MOL0     N28529   9.208  10.304   5.511 -0.0715 -0.2048 -0.4734
  217MOL0     C28530   9.171  10.425   5.560 -0.1256 -0.2208 -0.1230
  217MOL0     C28531   9.233  10.437   5.672  0.0811  0.3229 -0.2287
  217MOL0     C28532   9.231  10.568   5.752 -0.7354  0.4099  0.4007
  217MOL0     C28533   9.096  10.604   5.820 -0.3174 -0.6725  0.1387
  217MOL0     C28534   9.053  10.514   5.940  0.4342  0.7866  0.0957
  217MOL0     C28535   8.924  10.581   6.008 -0.3043  0.4884 -0.3030
  217MOL0     O28536   8.868  10.481   6.090  1.0049  0.3700 -0.6183
  217MOL0     C28537   8.742  10.506   6.137  0.6574 -0.4648 -0.0160
  217MOL0     C28538   8.628  10.423   6.133  0.3322  0.1262  0.4507
  217MOL0     C28539   8.506  10.454   6.200 -0.9761  0.1169 -0.3454
  217MOL0     C28540   8.491  10.592   6.252 -0.4846 -0.6347  0.9568
  217MOL0     C28541   8.362  10.646   6.291 -0.0593 -0.5299 -0.0476
  217MOL0     O28542   8.345  10.782   6.311  0.5605  0.2903  0.6819
  217MOL0     C28543   8.221  10.845   6.286  0.6572 -0.0427  0.3123
  217MOL0     C28544   8.197  10.952   6.366  0.6231 -0.2465 -0.2623
  217MOL0     C28545   8.077  11.023   6.357 -0.5460  0.0734  0.3444
  217MOL0     C28546   7.977  10.976   6.275  0.6820  0.3706  0.2080
  217MOL0     O28547   7.860  11.048   6.282 -0.3555 -0.1592 -0.6514
  217MOL0     C28548   7.759  10.955   6.316  0.6872  0.3410  0.0983
  217MOL0     C28549   7.634  11.033   6.356 -0.5338  0.3437  0.5548
  217MOL0     C28550   7.523  10.940   6.418  0.1811 -0.0836 -0.0695
  217MOL0     C28551   7.444  10.855   6.318 -0.0605  0.7178  1.1736
  217MOL0     C28552   7.321  10.784   6.383 -0.2643 -0.3192  0.8253
  217MOL0     C28553   7.197  10.869   6.395 -0.9956  0.2582  1.1025
  217MOL0     C28554   7.111  10.802   6.500 -0.2396  0.3753  1.1285
  217MOL0     C28555   6.975  10.859   6.511  0.6628 -0.1440 -0.5743
  217MOL0    Cl28556   6.876  10.818   6.369 -0.2390  0.2352  0.3648
  217MOL0     C28557   7.995  10.864   6.195 -0.3444  0.1501 -0.0156
  217MOL0     C28558   8.117  10.801   6.202  0.3205  0.2481  0.2148
  217MOL0     O28559   8.266  10.563   6.292  0.4210  0.9067 -1.0505
  217MOL0     C28560   8.602  10.681   6.243  0.5971  0.1634 -0.4992
  217MOL0     C28561   8.720  10.634   6.198  0.1260  0.2028  0.5152
  217MOL0     N28562   9.306  10.321   5.695  0.5003 -0.7517  0.3172
  217MOL0     N28563   9.279  10.247   5.605 -0.2387 -0.0130 -0.0110
  217MOL0     C28564   8.080  10.223   5.298 -0.1654 -0.0100 -0.7383
  217MOL0     C28565   7.954  10.178   5.259 -0.1875  0.0785 -0.8184
  217MOL0     C28566   7.542   9.973   5.334  0.6495  0.0415  0.1293
  217MOL0     C28567   7.517   9.884   5.225  0.6825  0.2813  1.1896
  217MOL0     C28568   7.390   9.834   5.203  0.2071 -0.4168  0.4314
  217MOL0     C28569   7.280   9.869   5.276  0.2086  0.5477  0.4777
  217MOL0     O28570   7.158   9.805   5.247  0.6552 -0.4396  0.6187
  217MOL0     C28571   7.052   9.821   5.349 -0.0071  0.2344 -0.2009
  217MOL0     C28572   6.937   9.735   5.304 -0.2923  0.6025  0.3447
  217MOL0     C28573   6.858   9.803   5.195 -0.0456  0.1023  0.3192
  217MOL0     C28574   6.757   9.709   5.133 -0.5135  0.3420  0.2927
  217MOL0     C28575   6.695   9.752   5.005 -0.9592 -0.1493  0.3901
  217MOL0     C28576   6.636   9.798   4.912  0.7579  0.5758  0.5887
  217MOL0     C28577   7.297   9.948   5.393 -0.5832 -1.8463 -0.3155
  217MOL0     C28578   7.425  10.000   5.417  0.2658 -1.0765  0.4642
  217MOL0     H28579   7.920   9.952   5.511 -2.3791  0.3279 -0.6345
  217MOL0     H28580   8.139  10.024   5.566 -0.8190 -2.8735 -1.1734
  217MOL0     H28581   8.354  10.209   5.238  1.8614  2.8423 -0.0854
  217MOL0     H28582   8.337  10.044   5.299  0.6725  0.2099 -0.6853
  217MOL0     H28583   8.525  10.094   5.477  4.1549  0.6696  0.3139
  217MOL0     H28584   8.527  10.259   5.416  0.3157  0.8837  0.0151
  217MOL0     H28585   8.607  10.141   5.175 -0.9968 -0.0862 -1.1601
  217MOL0     H28586   8.627   9.996   5.279 -1.1456  0.6544  1.6879
  217MOL0     H28587   8.830  10.135   5.209 -0.9735  0.4365 -0.4515
  217MOL0     H28588   8.777  10.278   5.309  0.3612  0.0570 -0.6145
  217MOL0     H28589   8.855   9.990   5.383 -3.3543 -0.2792 -2.5203
  217MOL0     H28590   8.783  10.090   5.505 -0.9932 -0.9945 -0.5496
  217MOL0     H28591   9.042  10.068   5.493  1.2876  0.5060  1.0254
  217MOL0     H28592   8.957  10.224   5.534 -0.0505 -1.7490  1.0276
  217MOL0     H28593   9.032  10.182   5.250 -3.6429 -0.9244  0.3967
  217MOL0     H28594   8.999  10.332   5.338  0.2351  0.1901 -2.1553
  217MOL0     H28595   9.241  10.306   5.310  0.8905  1.4045  2.7260
  217MOL0     H28596   9.236  10.142   5.386  1.3412  0.9014  1.0449
  217MOL0     H28597   9.108  10.496   5.508 -1.4104 -1.0440  0.2579
  217MOL0     H28598   9.245  10.648   5.678  0.6016  1.0315  1.2901
  217MOL0     H28599   9.302  10.550   5.833  0.3875  1.5450 -0.3006
  217MOL0     H28600   9.027  10.612   5.736  0.1088  4.4290 -0.0467
  217MOL0     H28601   9.101  10.709   5.851  1.1800  0.2940 -2.9483
  217MOL0     H28602   9.032  10.412   5.910 -2.7687  1.7888 -1.5036
  217MOL0     H28603   9.125  10.512   6.023  1.4368 -1.3510 -0.7594
  217MOL0     H28604   8.846  10.617   5.941  0.2463  2.1894 -0.0615
  217MOL0     H28605   8.964  10.673   6.052 -0.9295  0.9598 -0.7117
  217MOL0     H28606   8.639  10.325   6.087 -2.8175  0.6240 -1.6500
  217MOL0     H28607   8.427  10.380   6.196  1.4660 -2.7110  0.1256
  217MOL0     H28608   8.270  10.984   6.440  0.2881 -2.4886  1.1325
  217MOL0     H28609   8.063  11.116   6.411  2.8456  1.0409 -0.2182
  217MOL0     H28610   7.787  10.895   6.403 -3.7333 -2.0401  0.1701
  217MOL0     H28611   7.733  10.888   6.233  1.4643  2.4326 -1.9157
  217MOL0     H28612   7.605  11.088   6.266  0.2268  0.9165  0.6463
  217MOL0     H28613   7.670  11.102   6.433 -0.3841 -0.2328  1.0060
  217MOL0     H28614   7.450  11.008   6.461  1.4344  1.3538 -0.1198
  217MOL0     H28615   7.566  10.885   6.502 -0.8518 -1.8654 -0.6544
  217MOL0     H28616   7.420  10.914   6.229 -1.5406 -4.2140 -2.1028
  217MOL0     H28617   7.518  10.781   6.284  0.4058  1.3922  0.7080
  217MOL0     H28618   7.350  10.753   6.484  2.3614 -1.8921 -0.3028
  217MOL0     H28619   7.295  10.697   6.321  0.3365 -0.5157  0.8405
  217MOL0     H28620   7.144  10.882   6.300 -1.4347 -2.8758  0.8229
  217MOL0     H28621   7.217  10.964   6.446  0.5016 -0.5957  2.1888
  217MOL0     H28622   7.095  10.698   6.471  0.1795 -0.1162  2.5390
  217MOL0     H28623   7.163  10.795   6.597 -0.8741  0.9010  1.5128
  217MOL0     H28624   6.976  10.966   6.535  0.3455 -0.4201  0.7638
  217MOL0     H28625   6.920  10.814   6.594  3.2661 -0.2514  1.2146
  217MOL0     H28626   7.918  10.821   6.132 -0.4421 -0.8279  0.7532
  217MOL0     H28627   8.130  10.711   6.143  0.0611  0.7296 -0.5889
  217MOL0     H28628   8.600  10.777   6.294  0.5309 -0.1047  0.0067
  217MOL0     H28629   8.801  10.705   6.213 -1.7515  2.0278  3.1125
  217MOL0     H28630   8.120  10.298   5.231 -0.4351 -1.4998 -2.6675
  217MOL0     H28631   7.902  10.222   5.175  0.4616  1.7123 -0.4002
  217MOL0     H28632   7.599   9.869   5.156 -0.7250  0.7324 -0.6327
  217MOL0     H28633   7.379   9.764   5.120  0.7627  0.5091 -0.4542
  217MOL0     H28634   7.008   9.922   5.350  2.7850  1.5495  1.7253
  217MOL0     H28635   7.100   9.786   5.441 -0.4383  0.8736  0.2827
  217MOL0     H28636   6.965   9.633   5.274  1.6251  1.6840 -1.8515
  217MOL0     H28637   6.870   9.726   5.390  0.6298  0.9355  1.1148
  217MOL0     H28638   6.927   9.827   5.114 -0.5766 -1.3567 -0.5975
  217MOL0     H28639   6.811   9.889   5.244 -2.7551 -1.2951  0.3622
  217MOL0     H28640   6.795   9.608   5.115 -2.2059  0.1129 -2.4502
  217MOL0     H28641   6.670   9.699   5.198 -0.1134 -1.9155  0.5919
  217MOL0     H28642   6.589   9.848   4.830  2.4029  0.4056 -0.5078
  217MOL0     H28643   7.212   9.983   5.451  0.6447 -0.5299  0.7739
  217MOL0     H28644   7.440  10.065   5.502  2.7304 -1.4619  0.4091
  218MOL0     O28645   0.670   6.117   0.211  0.1530  0.5830  0.4807
  218MOL0     C28646   0.739   6.016   0.234 -0.1483  0.2679  1.1410
  218MOL0     O28647   0.698   5.889   0.261  0.0266  0.0406  0.1313
  218MOL0     C28648   0.565   5.880   0.294  0.5420  0.4799 -0.0036
  218MOL0     C28649   0.463   5.903   0.201 -0.2053  0.5042  0.0931
  218MOL0     C28650   0.331   5.896   0.241 -0.0417 -0.0736  0.1478
  218MOL0     C28651   0.294   5.859   0.373  0.1370  0.2728 -0.4213
  218MOL0     O28652   0.165   5.831   0.427  0.1778  0.6870  0.9022
  218MOL0     C28653   0.068   5.796   0.324  0.7806 -0.1856  0.3717
  218MOL0     C28654  -0.066   5.793   0.402  0.7592 -0.2030 -0.3679
  218MOL0     C28655  -0.194   5.772   0.322  0.6703  0.1497  0.5265
  218MOL0     C28656  -0.319   5.727   0.405 -0.2554 -0.4107 -0.1365
  218MOL0     C28657  -0.371   5.845   0.491  0.9324 -0.3836 -0.3491
  218MOL0     C28658  -0.506   5.804   0.546  0.4536 -0.1294  0.1387
  218MOL0     C28659  -0.570   5.901   0.647  0.1579 -1.2358 -0.0576
  218MOL0     C28660  -0.500   5.914   0.789 -0.2538  0.9269  0.0214
  218MOL0     N28661  -0.513   5.783   0.853 -0.2194  0.3663  0.2017
  218MOL0     C28662  -0.636   5.720   0.883 -0.8574  0.0944 -0.1721
  218MOL0     C28663  -0.596   5.599   0.933 -0.2292 -0.1411 -0.2608
  218MOL0     C28664  -0.679   5.498   0.997  0.1405  0.0886  0.2604
  218MOL0     C28665  -0.787   5.439   0.900 -0.4493  0.3676 -0.2954
  218MOL0     C28666  -0.852   5.318   0.970 -0.1219 -0.6948 -0.3492
  218MOL0     C28667  -0.955   5.255   0.885 -0.9953  0.1289 -0.3216
  218MOL0     O28668  -1.081   5.319   0.900  0.7704 -0.2998 -0.1022
  218MOL0     C28669  -1.183   5.292   0.806 -0.5814  0.4672  0.3420
  218MOL0     C28670  -1.152   5.231   0.688  0.5244  0.4629  0.3419
  218MOL0     C28671  -1.248   5.193   0.589  0.9246  0.9016  0.0463
  218MOL0     C28672  -1.387   5.232   0.603 -0.6166  0.1726 -0.4487
  218MOL0     C28673  -1.485   5.194   0.503 -0.2209  0.6016  0.2888
  218MOL0     O28674  -1.613   5.207   0.539 -0.1839  0.3823  0.6049
  218MOL0     C28675  -1.719   5.177   0.458 -0.8737  0.2495 -0.5346
  218MOL0     C28676  -1.840   5.144   0.526 -0.1332 -0.2502  0.9260
  218MOL0     C28677  -1.964   5.134   0.463  0.2175  1.1108 -0.0477
  218MOL0     C28678  -1.987   5.136   0.327  0.5550 -0.6737  0.5158
  218MOL0     O28679  -2.110   5.102   0.271 -0.1665  0.4007 -0.1682
  218MOL0     C28680  -2.137   5.142   0.138  0.1784 -0.3758 -0.7924
  218MOL0     C28681  -2.263   5.242   0.144 -0.3875 -0.1171  0.1358
  218MOL0     C28682  -2.294   5.281   0.000  0.7104 -0.1720  0.3864
  218MOL0     C28683  -2.433   5.344   0.002 -0.5096 -0.6148 -0.3595
  218MOL0     C28684  -2.450   5.401  -0.138  0.4395  0.0244  0.1870
  218MOL0     C28685  -2.592   5.450  -0.165  0.3907 -0.0514 -0.2219
  218MOL0     C28686  -2.604   5.501  -0.304 -0.6543  0.2105 -0.5995
  218MOL0     C28687  -2.741   5.568  -0.315 -0.9059  0.0588  0.8034
  218MOL0    Cl28688  -2.779   5.588  -0.488  0.2456 -0.1750 -0.3160
  218MOL0     C28689  -1.865   5.168   0.254 -0.0880  0.3698  0.0001
  218MOL0     C28690  -1.738   5.194   0.322  0.7159  0.4511 -0.8163
  218MOL0     O28691  -1.438   5.171   0.389  0.7916  0.5015  0.3199
  218MOL0     C28692  -1.420   5.285   0.730 -0.7204 -0.0149  0.3406
  218MOL0     C28693  -1.319   5.313   0.825 -0.1173  0.5884 -1.4490
  218MOL0     N28694  -0.455   5.589   0.944 -0.7755  0.0335  0.0574
  218MOL0     N28695  -0.409   5.705   0.896 -0.2945  0.7908 -0.5003
  218MOL0     C28696   0.392   5.834   0.468  1.1571  1.0425  0.7271
  218MOL0     C28697   0.525   5.847   0.426 -0.0895  0.2041 -0.0296
  218MOL0     C28698   0.882   6.041   0.221  0.3412 -0.3401  0.3918
  218MOL0     C28699   0.976   5.936   0.231  1.0440  0.5305  0.6642
  218MOL0     C28700   1.115   5.956   0.214  0.8893 -0.2725 -0.3724
  218MOL0     C28701   1.162   6.086   0.198 -0.2483  0.6099 -0.0170
  218MOL0     O28702   1.293   6.125   0.194 -0.0727 -0.9189 -0.1322
  218MOL0     C28703   1.393   6.028   0.221 -0.6255  0.8161 -0.0353
  218MOL0     C28704   1.516   6.097   0.285  0.4105  0.2088  0.1246
  218MOL0     C28705   1.579   6.190   0.179  0.4137 -0.1259  0.2661
  218MOL0     C28706   1.711   6.262   0.220  0.0631 -0.4291  0.1707
  218MOL0     C28707   1.816   6.169   0.259 -0.1638  0.6913 -0.2524
  218MOL0     C28708   1.876   6.070   0.303  0.0357  0.1657  0.1825
  218MOL0     C28709   1.075   6.188   0.184 -0.2225 -0.6623 -0.0279
  218MOL0     C28710   0.938   6.175   0.195  0.3120 -0.4985 -0.5192
  218MOL0     H28711   0.502   5.928   0.103 -1.0194 -1.6982 -0.8614
  218MOL0     H28712   0.251   5.920   0.172  0.3523 -2.6917 -1.3424
  218MOL0     H28713   0.078   5.696   0.282  2.1202 -0.5741  1.5567
  218MOL0     H28714   0.064   5.871   0.244 -1.4818  1.6378  2.0657
  218MOL0     H28715  -0.077   5.889   0.454  0.5716 -0.6584  0.4414
  218MOL0     H28716  -0.065   5.705   0.467 -4.2948 -0.9751 -0.9092
  218MOL0     H28717  -0.181   5.698   0.242  0.1511  1.7934 -1.1707
  218MOL0     H28718  -0.226   5.860   0.265  0.1732  0.8555  1.8547
  218MOL0     H28719  -0.405   5.709   0.339  0.6411 -2.1523 -0.8909
  218MOL0     H28720  -0.289   5.642   0.468  1.6143 -0.0603 -0.4924
  218MOL0     H28721  -0.388   5.938   0.436  1.4597  0.8267  1.4288
  218MOL0     H28722  -0.302   5.881   0.568 -0.7238  0.2952  0.8814
  218MOL0     H28723  -0.511   5.701   0.582 -1.7429  0.2611  1.1483
  218MOL0     H28724  -0.580   5.808   0.465  0.3259 -1.8766  0.1325
  218MOL0     H28725  -0.576   5.997   0.595 -1.9269 -0.3087  1.7548
  218MOL0     H28726  -0.673   5.872   0.672  0.3883 -0.2638  2.2559
  218MOL0     H28727  -0.549   5.984   0.856  1.0073  0.0590  1.9524
  218MOL0     H28728  -0.394   5.941   0.780 -0.8711  3.4693 -0.3140
  218MOL0     H28729  -0.734   5.766   0.877 -1.7061 -1.4704  0.9083
  218MOL0     H28730  -0.718   5.541   1.089 -1.5213 -0.5968 -0.0928
  218MOL0     H28731  -0.627   5.409   1.035 -1.0002 -0.1158  1.4071
  218MOL0     H28732  -0.743   5.410   0.804 -0.8020 -0.9485 -0.0717
  218MOL0     H28733  -0.850   5.524   0.869  2.1192  1.6008 -2.6256
  218MOL0     H28734  -0.780   5.245   1.008  3.5524  2.2813 -0.9664
  218MOL0     H28735  -0.915   5.353   1.052 -2.4387  0.5958 -2.5543
  218MOL0     H28736  -0.965   5.149   0.909 -0.5100  0.0990 -0.2331
  218MOL0     H28737  -0.907   5.253   0.786  0.4057 -0.5880  0.3454
  218MOL0     H28738  -1.049   5.205   0.663  0.0708  0.4181 -1.7124
  218MOL0     H28739  -1.219   5.137   0.501  3.3915  1.4786  0.4191
  218MOL0     H28740  -1.829   5.146   0.634 -1.3198 -0.4630  1.0654
  218MOL0     H28741  -2.051   5.132   0.528 -0.1722 -3.5933 -0.3534
  218MOL0     H28742  -2.159   5.057   0.073  1.8060 -0.4595 -1.2640
  218MOL0     H28743  -2.057   5.201   0.092  0.1829  2.1817  2.1144
  218MOL0     H28744  -2.231   5.336   0.191  1.8493 -1.0876  0.6762
  218MOL0     H28745  -2.346   5.194   0.197  0.1504  0.5859  1.6846
  218MOL0     H28746  -2.289   5.195  -0.067  0.2617  0.2101 -0.1506
  218MOL0     H28747  -2.216   5.351  -0.027 -0.1200 -0.9930 -5.2072
  218MOL0     H28748  -2.518   5.284   0.036 -0.8757  0.0018 -0.1710
  218MOL0     H28749  -2.438   5.425   0.075 -0.7428 -0.9538  0.0016
  218MOL0     H28750  -2.443   5.318  -0.209 -1.8474  0.4539 -0.6112
  218MOL0     H28751  -2.378   5.479  -0.163  1.8791 -1.4594 -0.4710
  218MOL0     H28752  -2.616   5.532  -0.095  2.5862  0.6414 -0.2001
  218MOL0     H28753  -2.653   5.360  -0.153  3.3965 -1.9477  2.2323
  218MOL0     H28754  -2.522   5.570  -0.326  0.4588 -0.6363  0.7767
  218MOL0     H28755  -2.601   5.425  -0.383 -2.3419  0.8756 -1.3514
  218MOL0     H28756  -2.735   5.664  -0.263  2.0923  0.6395 -0.4297
  218MOL0     H28757  -2.817   5.505  -0.269  1.0284 -1.0374  2.6715
  218MOL0     H28758  -1.873   5.179   0.146 -1.2184  0.4292  0.0784
  218MOL0     H28759  -1.654   5.229   0.263 -0.6117  1.6063 -2.1235
  218MOL0     H28760  -1.524   5.315   0.744 -0.3371  2.4435 -1.3225
  218MOL0     H28761  -1.356   5.360   0.916 -1.8075 -0.8656 -1.3123
  218MOL0     H28762   0.363   5.814   0.571 -0.3856  2.1365  0.5488
  218MOL0     H28763   0.605   5.820   0.494  0.3665 -2.6012 -1.5142
  218MOL0     H28764   0.946   5.834   0.252  0.7941 -0.2759 -2.9240
  218MOL0     H28765   1.184   5.875   0.238  0.4925  0.4427  3.9608
  218MOL0     H28766   1.420   5.989   0.123  2.4900  2.7668 -0.0904
  218MOL0     H28767   1.351   5.959   0.295 -1.0206  3.5578  2.5197
  218MOL0     H28768   1.498   6.169   0.365 -0.3346  1.6650 -1.3015
  218MOL0     H28769   1.593   6.026   0.316 -0.1124  0.4447  2.0798
  218MOL0     H28770   1.508   6.273   0.174 -0.2956 -0.7785 -1.0146
  218MOL0     H28771   1.577   6.133   0.086 -3.4072  2.2694 -1.3450
  218MOL0     H28772   1.742   6.318   0.131 -1.5861 -0.1716 -0.2600
  218MOL0     H28773   1.673   6.331   0.296 -2.0162  0.3918 -1.5446
  218MOL0     H28774   1.916   5.980   0.344 -2.4797 -1.5279 -0.8427
  218MOL0     H28775   1.115   6.289   0.175  1.1315 -1.2895 -1.6585
  218MOL0     H28776   0.884   6.268   0.182  1.7206  0.0602 -3.2858
  219MOL0     O28777   3.917   6.908   8.090 -0.1367  0.8162 -0.6237
  219MOL0     C28778   3.936   7.024   8.050 -0.3879 -0.5644 -0.3673
  219MOL0     O28779   3.847   7.131   8.047 -0.3707  0.5033 -0.6184
  219MOL0     C28780   3.718   7.104   8.073  0.0382 -0.4772  0.0342
  219MOL0     C28781   3.641   7.030   7.978 -0.6160 -0.2230 -0.4647
  219MOL0     C28782   3.507   7.001   8.001  0.2391  0.4185  0.0491
  219MOL0     C28783   3.438   7.043   8.115 -0.0439 -0.0511 -0.6726
  219MOL0     O28784   3.301   7.018   8.144 -1.0187  0.1148  0.1952
  219MOL0     C28785   3.221   6.973   8.036 -0.1449 -0.1881  0.0172
  219MOL0     C28786   3.076   6.959   8.081  0.6338  0.3115 -0.6881
  219MOL0     C28787   3.011   7.096   8.088  0.4435 -0.8059  0.4011
  219MOL0     C28788   2.873   7.074   8.142 -0.2234  0.1874 -0.0240
  219MOL0     C28789   2.800   7.209   8.166 -0.0039 -0.1572  0.2924
  219MOL0     C28790   2.648   7.202   8.200  0.1692 -0.3848  0.4489
  219MOL0     C28791   2.548   7.173   8.085  0.1930  0.5300  0.1892
  219MOL0     C28792   2.397   7.173   8.143  0.1359  0.1562 -0.2317
  219MOL0     N28793   2.316   7.150   8.023 -0.3067  0.2041 -0.2980
  219MOL0     C28794   2.283   7.030   7.974  0.2291  0.5015 -0.6062
  219MOL0     C28795   2.183   7.060   7.887  0.3144  0.9692 -0.0116
  219MOL0     C28796   2.104   6.956   7.821 -0.2459  0.3386 -0.1876
  219MOL0     C28797   1.972   6.961   7.889  0.0563  0.0693  0.5167
  219MOL0     C28798   1.868   6.916   7.787  0.5449 -0.2903 -0.3131
  219MOL0     C28799   1.739   6.921   7.843  0.4316 -0.1699 -0.4295
  219MOL0     O28800   1.641   6.900   7.752 -0.1136  0.0501  0.1302
  219MOL0     C28801   1.509   6.883   7.796  0.0479  0.0480  0.6469
  219MOL0     C28802   1.410   6.855   7.697  0.6664  0.2841 -0.0662
  219MOL0     C28803   1.269   6.850   7.715  0.4417  0.3407  0.6354
  219MOL0     C28804   1.228   6.859   7.846  0.2929  0.7615 -0.2124
  219MOL0     C28805   1.079   6.860   7.879  0.8861  0.1995 -0.2442
  219MOL0     O28806   0.990   6.902   7.784 -0.2074  0.6455  0.3006
  219MOL0     C28807   0.857   6.918   7.816 -1.4026 -0.7065 -0.1973
  219MOL0     C28808   0.802   6.982   7.932  0.2703 -0.3670 -0.8182
  219MOL0     C28809   0.660   7.008   7.933 -0.0662 -0.6267  0.1586
  219MOL0     C28810   0.570   6.956   7.837 -0.5237 -1.5754  0.1575
  219MOL0     O28811   0.439   6.950   7.864  0.8151 -0.4498 -0.3185
  219MOL0     C28812   0.361   6.880   7.757 -0.1465  0.2959 -0.4583
  219MOL0     C28813   0.213   6.870   7.805 -0.2886 -0.3920  0.0890
  219MOL0     C28814   0.099   6.854   7.701 -0.5740  0.2384 -0.7449
  219MOL0     C28815  -0.030   6.902   7.769  0.2007 -0.6694  0.5023
  219MOL0     C28816  -0.153   6.855   7.688 -0.2241  0.3997  0.4203
  219MOL0     C28817  -0.285   6.883   7.759  0.3474  0.0099 -0.0835
  219MOL0     C28818  -0.398   6.876   7.653  0.4177  0.0140 -0.1993
  219MOL0     C28819  -0.523   6.895   7.728 -0.7437  0.5178  0.1028
  219MOL0    Cl28820  -0.667   6.886   7.625 -0.0671  0.0924  0.0220
  219MOL0     C28821   0.636   6.918   7.720 -0.1482  0.1162 -0.4243
  219MOL0     C28822   0.773   6.890   7.709  0.4500 -0.2081 -0.1313
  219MOL0     O28823   1.046   6.801   7.984 -0.1337 -0.3545 -0.7674
  219MOL0     C28824   1.325   6.874   7.953  1.1077  0.5343 -0.2944
  219MOL0     C28825   1.464   6.894   7.928  0.1335 -0.1103  0.0090
  219MOL0     N28826   2.164   7.196   7.888 -0.2279  0.0519  0.1931
  219MOL0     N28827   2.246   7.250   7.966 -0.0210  0.4160 -0.9249
  219MOL0     C28828   3.515   7.126   8.200  0.3029 -0.0232  0.3894
  219MOL0     C28829   3.647   7.154   8.182  0.2722  0.1895  0.5905
  219MOL0     C28830   4.076   7.065   8.001  0.7512  0.2694  0.1655
  219MOL0     C28831   4.087   7.185   7.933 -0.7746  0.4379  0.7284
  219MOL0     C28832   4.210   7.229   7.885 -0.3937 -0.8370  0.5782
  219MOL0     C28833   4.325   7.154   7.912 -0.4155 -0.4595  0.2640
  219MOL0     O28834   4.456   7.186   7.869  0.7803 -0.2992 -0.4379
  219MOL0     C28835   4.478   7.317   7.797  0.7398  0.0364  0.0428
  219MOL0     C28836   4.616   7.329   7.732 -0.7732 -0.2351  0.1807
  219MOL0     C28837   4.726   7.311   7.835 -0.1895  0.4381  0.4415
  219MOL0     C28838   4.871   7.324   7.776  0.3765 -0.1466  0.1480
  219MOL0     C28839   4.963   7.313   7.884  0.4870  0.1528  0.4467
  219MOL0     C28840   5.059   7.303   7.956  0.2939 -0.1389 -0.5321
  219MOL0     C28841   4.324   7.038   7.990 -0.1183 -0.1725  0.4664
  219MOL0     C28842   4.196   6.993   8.034 -0.3484  0.0802 -0.6248
  219MOL0     H28843   3.693   6.991   7.891  0.3470  0.3440 -0.1651
  219MOL0     H28844   3.479   6.930   7.924  0.6057 -0.7977  1.0032
  219MOL0     H28845   3.267   6.875   8.022  0.3988  0.2374 -1.3238
  219MOL0     H28846   3.228   7.036   7.947 -1.8907  0.7944  0.5319
  219MOL0     H28847   3.072   6.918   8.182 -1.1299  1.4027 -0.2678
  219MOL0     H28848   3.026   6.891   8.012 -1.0387  0.4701  0.3207
  219MOL0     H28849   3.006   7.141   7.988 -2.4190  0.2797  0.9270
  219MOL0     H28850   3.065   7.163   8.155  0.9954 -0.3768 -0.4572
  219MOL0     H28851   2.818   7.005   8.078  1.5228 -0.5458 -0.7680
  219MOL0     H28852   2.880   7.028   8.241 -1.1086 -1.1119 -0.5288
  219MOL0     H28853   2.805   7.258   8.068 -2.1561 -1.2449 -0.4372
  219MOL0     H28854   2.857   7.261   8.243  2.5289 -1.5080 -0.5826
  219MOL0     H28855   2.624   7.302   8.236 -1.5034 -1.2246  1.8058
  219MOL0     H28856   2.635   7.131   8.281  1.6010 -0.6074  0.5135
  219MOL0     H28857   2.544   7.251   8.008 -2.6364 -0.7948 -1.1193
  219MOL0     H28858   2.574   7.081   8.032 -0.1722  0.7436 -0.3783
  219MOL0     H28859   2.374   7.271   8.186 -1.5355  0.2417 -1.2157
  219MOL0     H28860   2.366   7.095   8.212 -2.0486  0.2100 -1.0859
  219MOL0     H28861   2.318   6.933   8.008  0.1831  0.7823  0.2637
  219MOL0     H28862   2.135   6.851   7.826  0.4758  0.5775  0.5713
  219MOL0     H28863   2.110   6.979   7.714 -0.3600 -3.9917 -1.2977
  219MOL0     H28864   1.950   7.065   7.912  1.6805  0.1834  1.6565
  219MOL0     H28865   1.976   6.890   7.972  0.6545 -1.7769 -0.9965
  219MOL0     H28866   1.861   6.982   7.701  0.7236  1.9244  1.2753
  219MOL0     H28867   1.899   6.818   7.749  0.0744 -0.9421  0.9063
  219MOL0     H28868   1.727   7.016   7.896  0.0251  0.1540 -1.0979
  219MOL0     H28869   1.732   6.844   7.921 -0.0724  1.4552  1.1987
  219MOL0     H28870   1.458   6.846   7.600  1.8250 -0.7852  0.5842
  219MOL0     H28871   1.201   6.844   7.631 -0.5099 -0.5793  1.4381
  219MOL0     H28872   0.856   7.021   8.018 -1.8355 -0.8069  0.7774
  219MOL0     H28873   0.626   7.042   8.030  1.6164  0.3833  0.4396
  219MOL0     H28874   0.404   6.781   7.743 -1.3607 -0.0115 -2.3268
  219MOL0     H28875   0.369   6.931   7.661 -2.4884 -2.8976 -2.5609
  219MOL0     H28876   0.193   6.968   7.850 -0.9374 -0.3821 -0.2193
  219MOL0     H28877   0.219   6.802   7.891  3.4488  1.9298  1.9247
  219MOL0     H28878   0.105   6.748   7.674  0.9465 -1.2252  4.3096
  219MOL0     H28879   0.122   6.906   7.607 -0.7982  4.6788  1.3911
  219MOL0     H28880  -0.027   6.858   7.869 -0.6904 -1.9172 -0.0011
  219MOL0     H28881  -0.038   7.011   7.771 -0.9551 -0.6494 -1.8026
  219MOL0     H28882  -0.145   6.751   7.654 -3.5094  0.1740 -0.0131
  219MOL0     H28883  -0.156   6.919   7.599 -0.8372  2.0847  1.5901
  219MOL0     H28884  -0.285   6.982   7.806  0.4730 -0.0292  0.0005
  219MOL0     H28885  -0.310   6.808   7.834 -0.7154  0.2450 -0.1837
  219MOL0     H28886  -0.390   6.944   7.568 -1.2678 -0.6605 -0.9304
  219MOL0     H28887  -0.394   6.773   7.616  1.3517 -1.5644  3.7923
  219MOL0     H28888  -0.519   6.993   7.777 -1.5277  1.2693 -1.2618
  219MOL0     H28889  -0.516   6.823   7.810 -0.8140  0.4619  0.0599
  219MOL0     H28890   0.569   6.898   7.637 -3.3052  1.8325  1.4638
  219MOL0     H28891   0.803   6.850   7.613 -0.3097  1.3365 -1.0579
  219MOL0     H28892   1.288   6.876   8.054 -1.1093 -0.0041 -1.0339
  219MOL0     H28893   1.535   6.909   8.009  0.9396 -1.6665 -0.3670
  219MOL0     H28894   3.459   7.178   8.278  0.0294 -0.6026  0.5804
  219MOL0     H28895   3.685   7.226   8.254  1.0996 -1.3391  1.7462
  219MOL0     H28896   3.998   7.246   7.922  1.2027  3.1498 -1.6252
  219MOL0     H28897   4.227   7.323   7.834 -0.1457 -0.3491  1.5195
  219MOL0     H28898   4.487   7.401   7.866 -0.9259 -0.0295  0.3821
  219MOL0     H28899   4.402   7.345   7.723  1.3659 -0.2870 -0.7376
  219MOL0     H28900   4.626   7.256   7.651  1.9982  1.3072 -1.0110
  219MOL0     H28901   4.638   7.432   7.702  1.8378 -0.6341  0.5129
  219MOL0     H28902   4.714   7.212   7.881 -0.1436  0.5419  0.6780
  219MOL0     H28903   4.714   7.382   7.918  0.2501 -0.4643  1.3038
  219MOL0     H28904   4.880   7.240   7.707 -0.7883 -0.6325  0.5686
  219MOL0     H28905   4.887   7.418   7.722  1.6129 -1.4133 -1.8137
  219MOL0     H28906   5.139   7.295   8.026 -1.1347 -1.0813  1.0662
  219MOL0     H28907   4.414   6.989   8.023  0.4745 -1.0869 -2.2208
  219MOL0     H28908   4.187   6.910   8.103 -0.6926  1.4323  1.0141
  220MOL0     O28909   3.579  10.083   3.033 -0.1476 -0.1870 -0.1098
  220MOL0     C28910   3.579  10.084   2.909  0.3462 -0.2274  0.2321
  220MOL0     O28911   3.468  10.081   2.825  0.1918  0.4181  0.2057
  220MOL0     C28912   3.354  10.051   2.884 -0.4521  0.1938  0.9787
  220MOL0     C28913   3.254  10.150   2.892  0.1217  0.2408 -0.0263
  220MOL0     C28914   3.127  10.112   2.928  0.4023  0.6115  0.2165
  220MOL0     C28915   3.101   9.989   2.981  0.8363 -0.6343 -0.2633
  220MOL0     O28916   2.984   9.947   3.036  0.4650 -0.0757 -0.1904
  220MOL0     C28917   2.881   9.909   2.953  0.8187  0.5504  0.1244
  220MOL0     C28918   2.767   9.871   3.046 -0.1185  0.3515  0.0936
  220MOL0     C28919   2.652   9.814   2.965 -0.9868  0.5728 -0.9202
  220MOL0     C28920   2.545   9.775   3.067  0.8171  0.0876  0.2758
  220MOL0     C28921   2.437   9.682   3.008  0.7619  0.1451 -0.3521
  220MOL0     C28922   2.325   9.657   3.117 -0.3505 -0.5787 -0.7771
  220MOL0     C28923   2.227   9.777   3.119 -0.5386  0.5327 -0.0400
  220MOL0     C28924   2.124   9.751   3.233  0.3233 -0.5817  0.3662
  220MOL0     N28925   2.026   9.646   3.214 -0.4890  0.6182  0.5360
  220MOL0     C28926   1.937   9.638   3.110 -0.6849  0.0976  0.9072
  220MOL0     C28927   1.864   9.527   3.140 -0.0469 -0.8141 -0.5869
  220MOL0     C28928   1.739   9.481   3.074 -0.3050 -0.8386 -0.4591
  220MOL0     C28929   1.653   9.399   3.170 -0.3111 -0.1672 -0.1813
  220MOL0     C28930   1.536   9.335   3.092 -0.0511 -0.3263 -0.4973
  220MOL0     C28931   1.432   9.269   3.178 -0.6781 -0.2471  0.7280
  220MOL0     O28932   1.326   9.219   3.095 -0.3012 -0.7829  0.2170
  220MOL0     C28933   1.215   9.160   3.156 -0.1106 -0.6653  0.5618
  220MOL0     C28934   1.093   9.208   3.107  0.4505 -0.2808  0.1733
  220MOL0     C28935   0.975   9.145   3.155  0.0314  0.5001 -1.2682
  220MOL0     C28936   0.982   9.034   3.251  0.2738 -0.2919 -0.1932
  220MOL0     C28937   0.858   8.963   3.283 -0.4468  0.1020  0.1178
  220MOL0     O28938   0.745   9.011   3.219  0.4433  0.7665 -0.1454
  220MOL0     C28939   0.625   8.975   3.258 -0.2692 -0.2592  0.3772
  220MOL0     C28940   0.575   9.008   3.386 -0.8671 -0.9631 -0.7778
  220MOL0     C28941   0.444   8.974   3.413  0.3198  0.6600  0.9855
  220MOL0     C28942   0.358   8.909   3.319 -0.2968 -0.3280 -0.4619
  220MOL0     O28943   0.226   8.884   3.354 -0.4498 -0.5585  0.1606
  220MOL0     C28944   0.137   8.804   3.272 -0.8020 -0.3016  0.2193
  220MOL0     C28945  -0.004   8.805   3.331  0.0855  0.7978 -0.4256
  220MOL0     C28946  -0.112   8.721   3.247  0.2861 -0.2782 -0.4877
  220MOL0     C28947  -0.131   8.773   3.114 -0.0022 -0.2521  1.1490
  220MOL0     C28948  -0.234   8.688   3.025 -0.3376 -0.7138  0.3759
  220MOL0     C28949  -0.297   8.778   2.916  0.0116 -0.4244  0.0833
  220MOL0     C28950  -0.209   8.846   2.815  0.8030  0.4416 -0.1945
  220MOL0     C28951  -0.132   8.759   2.726  0.0009  0.3909  0.4977
  220MOL0    Cl28952  -0.242   8.662   2.604  0.0696  0.1593  0.0666
  220MOL0     C28953   0.410   8.873   3.194 -0.2115  0.0884 -0.2055
  220MOL0     C28954   0.541   8.900   3.167  0.2401  0.0039  0.0820
  220MOL0     O28955   0.872   8.863   3.352  0.0739 -0.2345  0.9018
  220MOL0     C28956   1.107   9.016   3.317 -0.0882 -0.7992 -0.4729
  220MOL0     C28957   1.221   9.088   3.273 -0.7223  0.4451  0.3762
  220MOL0     N28958   1.911   9.469   3.249 -0.3345 -0.0379  0.4213
  220MOL0     N28959   2.015   9.538   3.290  0.6505  0.0482 -0.9580
  220MOL0     C28960   3.195   9.889   2.967 -0.4078 -0.3673  0.2971
  220MOL0     C28961   3.318   9.918   2.919 -0.7177  0.1638 -0.4879
  220MOL0     C28962   3.709  10.105   2.841  0.7561  0.3980 -0.4365
  220MOL0     C28963   3.725  10.092   2.700  0.4244 -0.1866 -0.2691
  220MOL0     C28964   3.851  10.117   2.639  0.5456  0.0990 -0.1358
  220MOL0     C28965   3.965  10.151   2.722  0.8804 -0.5058  0.8217
  220MOL0     O28966   4.088  10.178   2.669 -0.0168  0.4306 -0.6066
  220MOL0     C28967   4.117  10.125   2.535 -0.5891 -0.1953 -0.5863
  220MOL0     C28968   4.246  10.160   2.484  0.6855  0.1388 -0.0503
  220MOL0     C28969   4.369  10.118   2.568  1.0208 -0.0388 -0.0173
  220MOL0     C28970   4.506  10.187   2.523 -0.1035  0.1332  0.1551
  220MOL0     C28971   4.601  10.165   2.629 -0.4138  0.4112 -0.6178
  220MOL0     C28972   4.692  10.157   2.713 -0.0358 -0.1210 -0.4400
  220MOL0     C28973   3.952  10.167   2.860  1.1051 -0.2550  0.2857
  220MOL0     C28974   3.826  10.149   2.917  0.8289  0.3484  0.1068
  220MOL0     H28975   3.256  10.254   2.864 -2.7841  0.3719 -0.0783
  220MOL0     H28976   3.032  10.165   2.924 -1.0371 -1.8219  0.6275
  220MOL0     H28977   2.909   9.816   2.901 -1.8090 -0.2491 -0.0347
  220MOL0     H28978   2.834   9.981   2.885  0.2841 -0.5929 -0.7567
  220MOL0     H28979   2.735   9.963   3.095 -1.6680  0.1091 -0.3984
  220MOL0     H28980   2.798   9.790   3.112  1.5840 -0.0510 -1.1516
  220MOL0     H28981   2.688   9.734   2.900 -3.2905 -0.1768 -1.3755
  220MOL0     H28982   2.610   9.897   2.907 -0.1041  0.0752 -2.3081
  220MOL0     H28983   2.586   9.730   3.158 -2.0310 -2.4075  0.5121
  220MOL0     H28984   2.497   9.868   3.096  0.2870  0.6750 -2.2586
  220MOL0     H28985   2.477   9.586   2.974  2.7683  0.0628  1.9277
  220MOL0     H28986   2.385   9.723   2.922 -2.1818  0.6746  1.5281
  220MOL0     H28987   2.370   9.645   3.216 -0.3957  2.3009 -0.3129
  220MOL0     H28988   2.278   9.560   3.099 -0.3165 -0.8191  0.3792
  220MOL0     H28989   2.282   9.868   3.142 -0.8837  0.6957  0.1497
  220MOL0     H28990   2.186   9.793   3.019 -0.3237  1.0006 -0.0570
  220MOL0     H28991   2.071   9.846   3.251  2.4716  0.7809 -0.1828
  220MOL0     H28992   2.182   9.736   3.324  2.7189 -1.6537 -1.2423
  220MOL0     H28993   1.916   9.718   3.039  2.8493  0.5283  0.1861
  220MOL0     H28994   1.773   9.414   2.995  1.4914 -1.0771  0.4596
  220MOL0     H28995   1.694   9.568   3.026  1.4088  0.0580 -0.4976
  220MOL0     H28996   1.613   9.461   3.251 -1.0102 -1.4016  0.4497
  220MOL0     H28997   1.716   9.315   3.199  2.4473 -0.0698 -4.9504
  220MOL0     H28998   1.491   9.410   3.027  0.3579 -0.7681 -1.3107
  220MOL0     H28999   1.582   9.265   3.021  0.2323  0.6074 -1.2597
  220MOL0     H29000   1.398   9.338   3.256 -1.3171 -0.2126  0.4257
  220MOL0     H29001   1.473   9.186   3.236 -2.0555 -0.3810  1.5406
  220MOL0     H29002   1.081   9.280   3.027  1.1932  0.1690  0.4599
  220MOL0     H29003   0.878   9.157   3.107  0.4628  0.3519 -2.1946
  220MOL0     H29004   0.634   9.054   3.465 -0.9256  0.9914 -1.7925
  220MOL0     H29005   0.408   8.989   3.514  1.7215 -1.6715  1.9292
  220MOL0     H29006   0.180   8.704   3.260 -1.1478 -0.4483  0.2041
  220MOL0     H29007   0.124   8.858   3.178 -2.1741  2.5774  1.9210
  220MOL0     H29008  -0.052   8.903   3.344  0.3598  0.5861  2.8567
  220MOL0     H29009   0.009   8.776   3.435  0.0892  2.0339 -0.0611
  220MOL0     H29010  -0.209   8.723   3.296  0.9751 -3.8639  1.3807
  220MOL0     H29011  -0.078   8.617   3.254 -1.6585 -0.8167  2.5785
  220MOL0     H29012  -0.162   8.878   3.114  0.5665 -0.0171 -1.1108
  220MOL0     H29013  -0.039   8.759   3.056 -1.4709 -0.0506 -1.4164
  220MOL0     H29014  -0.322   8.657   3.082  0.3823 -3.4360  0.1105
  220MOL0     H29015  -0.191   8.594   2.989 -1.0382 -1.2483  0.9003
  220MOL0     H29016  -0.343   8.857   2.976  1.1226  0.2347  0.0866
  220MOL0     H29017  -0.375   8.722   2.864 -0.6051  1.4020 -1.0554
  220MOL0     H29018  -0.281   8.906   2.759 -1.1415  0.0668  1.7504
  220MOL0     H29019  -0.145   8.921   2.863  4.1840 -1.6286 -1.1360
  220MOL0     H29020  -0.067   8.690   2.781 -0.5659 -0.2012  0.4478
  220MOL0     H29021  -0.064   8.821   2.666 -1.5882  1.6384 -0.0922
  220MOL0     H29022   0.352   8.829   3.113  0.1006  0.1266 -0.4490
  220MOL0     H29023   0.578   8.868   3.071 -1.0686  2.8412 -1.5141
  220MOL0     H29024   1.119   8.944   3.397  0.4395  0.9099  1.0350
  220MOL0     H29025   1.322   9.064   3.307 -1.4449  0.1206  2.4548
  220MOL0     H29026   3.177   9.785   2.995 -0.6603  0.0231  1.6653
  220MOL0     H29027   3.398   9.845   2.907 -0.1454  0.3420  1.7763
  220MOL0     H29028   3.643  10.059   2.637 -2.1039 -0.2333  2.8411
  220MOL0     H29029   3.854  10.087   2.534 -1.9686 -2.4658  0.4185
  220MOL0     H29030   4.046  10.155   2.458 -0.2378 -3.0212 -2.1409
  220MOL0     H29031   4.104  10.017   2.545  4.0606 -0.9510 -0.6977
  220MOL0     H29032   4.242  10.119   2.382  1.9244  4.4578 -2.0692
  220MOL0     H29033   4.257  10.267   2.469  3.5713  0.2038  1.8132
  220MOL0     H29034   4.372  10.009   2.569 -0.5844 -0.1397  2.2491
  220MOL0     H29035   4.363  10.159   2.670  0.1087  1.7224 -0.7439
  220MOL0     H29036   4.551  10.139   2.436 -0.5580 -2.4524  1.2344
  220MOL0     H29037   4.501  10.295   2.506 -1.5070  0.2706  1.2295
  220MOL0     H29038   4.752  10.158   2.801  0.2292 -2.5612 -0.4999
  220MOL0     H29039   4.033  10.209   2.919 -0.3256  0.8115  1.5488
  220MOL0     H29040   3.808  10.170   3.021  2.4324  0.2335  0.4306
  221MOL0     O29041   5.455   7.857   5.821 -0.2369  0.1141  0.1364
  221MOL0     C29042   5.549   7.770   5.826  0.0916 -0.0066 -0.0979
  221MOL0     O29043   5.537   7.629   5.831  0.3537  0.0488 -0.6974
  221MOL0     C29044   5.410   7.573   5.844  0.0973  0.3207 -0.4302
  221MOL0     C29045   5.373   7.534   5.967  0.6723 -0.2329 -0.1551
  221MOL0     C29046   5.251   7.473   5.992  0.4726  0.2726  0.3688
  221MOL0     C29047   5.155   7.451   5.883 -0.0929 -0.2637  0.4839
  221MOL0     O29048   5.047   7.380   5.914 -0.3556  0.6750  0.2364
  221MOL0     C29049   4.928   7.386   5.835 -0.5870 -0.4131  0.1031
  221MOL0     C29050   4.828   7.288   5.883 -0.7629 -0.6839 -0.2368
  221MOL0     C29051   4.692   7.282   5.808 -0.3813 -0.6936 -0.7613
  221MOL0     C29052   4.611   7.157   5.836  0.2589  0.1624 -0.8781
  221MOL0     C29053   4.464   7.152   5.787  0.9383  0.1143  0.6432
  221MOL0     C29054   4.377   7.261   5.859  0.4151  0.1280  0.0463
  221MOL0     C29055   4.224   7.243   5.860  0.0251 -0.1533 -1.0092
  221MOL0     C29056   4.167   7.271   5.722  0.1360  0.1685 -0.6290
  221MOL0     N29057   4.021   7.234   5.718 -0.6216 -0.2808  0.5838
  221MOL0     C29058   3.922   7.304   5.785  0.4271 -0.1514  0.3568
  221MOL0     C29059   3.813   7.226   5.796  0.3181  0.1962 -0.2484
  221MOL0     C29060   3.679   7.267   5.864  0.2208  0.8329 -0.0261
  221MOL0     C29061   3.589   7.315   5.761  0.2261 -0.2600 -0.1649
  221MOL0     C29062   3.444   7.330   5.823  0.1762 -0.9806  0.7245
  221MOL0     C29063   3.355   7.209   5.803  0.0876 -0.0736  0.7046
  221MOL0     O29064   3.230   7.229   5.853  0.1113 -0.3325  0.2160
  221MOL0     C29065   3.153   7.127   5.901  0.0564 -0.1622  0.7497
  221MOL0     C29066   3.037   7.163   5.978  0.4453 -0.2229 -0.1601
  221MOL0     C29067   2.941   7.066   6.002  0.0943  0.3168 -0.3558
  221MOL0     C29068   2.959   6.929   5.972 -1.0180 -0.7741 -0.0521
  221MOL0     C29069   2.854   6.828   6.010  0.8030 -0.4568 -0.1029
  221MOL0     O29070   2.735   6.890   6.066  0.0986  0.2879  0.7051
  221MOL0     C29071   2.641   6.820   6.133 -0.3988  0.3505  0.1400
  221MOL0     C29072   2.578   6.697   6.092  0.5065  1.0798  0.0075
  221MOL0     C29073   2.489   6.625   6.172 -0.1317  1.2473 -0.2141
  221MOL0     C29074   2.463   6.668   6.302 -0.0694  0.4597  0.1015
  221MOL0     O29075   2.355   6.616   6.364  0.2189 -0.5161 -0.2695
  221MOL0     C29076   2.338   6.642   6.509  0.5516 -0.5715 -0.7373
  221MOL0     C29077   2.213   6.575   6.559  0.5606 -0.4366  0.0219
  221MOL0     C29078   2.096   6.663   6.534  0.6171 -0.3242  0.6166
  221MOL0     C29079   1.966   6.613   6.599 -0.1490 -0.4348  0.4094
  221MOL0     C29080   1.968   6.600   6.754 -0.3712 -0.0659  0.4351
  221MOL0     C29081   1.825   6.572   6.792 -0.6666  0.3047  0.3531
  221MOL0     C29082   1.757   6.441   6.737  0.2035 -0.0630  0.7509
  221MOL0     C29083   1.616   6.425   6.769  0.7771 -0.0613  0.9515
  221MOL0    Cl29084   1.607   6.439   6.943 -0.0701  0.4916  0.0227
  221MOL0     C29085   2.537   6.783   6.350 -0.4576 -0.5178  0.0342
  221MOL0     C29086   2.620   6.851   6.266 -0.0838  0.2608 -0.1863
  221MOL0     O29087   2.871   6.711   5.992 -0.1682 -0.3471 -0.5489
  221MOL0     C29088   3.075   6.896   5.902  0.2628  0.6681 -0.2353
  221MOL0     C29089   3.170   6.995   5.860 -0.2887 -0.3850  0.0992
  221MOL0     N29090   3.842   7.101   5.739  0.3276 -0.1931  0.0796
  221MOL0     N29091   3.971   7.102   5.712 -0.0369  0.3657  0.2539
  221MOL0     C29092   5.191   7.512   5.764 -0.5852 -0.1852  1.0069
  221MOL0     C29093   5.312   7.573   5.742 -0.4274  1.1441  0.1581
  221MOL0     C29094   5.684   7.826   5.817 -0.6150  0.1436  0.7921
  221MOL0     C29095   5.792   7.741   5.795  0.1491  0.3941 -0.5043
  221MOL0     C29096   5.922   7.789   5.803 -0.2026 -0.0915 -0.7126
  221MOL0     C29097   5.953   7.921   5.821 -0.3447 -0.6331  0.2588
  221MOL0     O29098   6.086   7.963   5.842  0.2023 -0.1042 -0.0569
  221MOL0     C29099   6.198   7.884   5.825 -0.3414 -0.4608 -0.6357
  221MOL0     C29100   6.317   7.973   5.808  0.3131  0.3655 -0.4660
  221MOL0     C29101   6.361   8.054   5.936  0.7088  0.3753  0.3748
  221MOL0     C29102   6.474   8.150   5.899  0.6436 -0.0866  0.2422
  221MOL0     C29103   6.606   8.087   5.863  0.2845 -0.2536 -0.3861
  221MOL0     C29104   6.715   8.050   5.832 -0.4441  0.0192 -0.1415
  221MOL0     C29105   5.842   8.013   5.841  0.2489  0.8331  0.6333
  221MOL0     C29106   5.709   7.962   5.841 -0.0672  0.4279 -0.3017
  221MOL0     H29107   5.438   7.559   6.050 -0.5795  1.7894  0.2960
  221MOL0     H29108   5.220   7.448   6.094  2.3444 -2.4580  0.3800
  221MOL0     H29109   4.952   7.375   5.729  0.5028  0.9583  0.1809
  221MOL0     H29110   4.892   7.489   5.845 -0.4439 -0.4258  0.7595
  221MOL0     H29111   4.804   7.297   5.989 -2.6201 -1.7461 -0.5222
  221MOL0     H29112   4.869   7.187   5.870  2.0657 -0.0841  2.7899
  221MOL0     H29113   4.710   7.290   5.700 -1.4317  2.5417 -0.7983
  221MOL0     H29114   4.643   7.376   5.836  1.4799 -0.1950  1.0689
  221MOL0     H29115   4.655   7.071   5.785 -2.4680 -0.5933 -2.1280
  221MOL0     H29116   4.603   7.124   5.940 -1.9341 -1.0247 -1.3725
  221MOL0     H29117   4.423   7.054   5.812 -1.8314  1.2621  0.9614
  221MOL0     H29118   4.447   7.174   5.681 -2.7184  1.4166  1.3539
  221MOL0     H29119   4.403   7.357   5.812  0.6927 -0.5025 -1.1150
  221MOL0     H29120   4.419   7.263   5.960  0.0659 -0.9955  0.2239
  221MOL0     H29121   4.202   7.151   5.916  2.0495  0.0252  0.1762
  221MOL0     H29122   4.188   7.323   5.925  0.2799 -0.9540  0.1618
  221MOL0     H29123   4.221   7.202   5.658  3.2714  0.4686  1.4870
  221MOL0     H29124   4.185   7.375   5.694  3.8574 -0.2340 -0.1287
  221MOL0     H29125   3.937   7.400   5.833 -0.7126 -0.0010  0.4224
  221MOL0     H29126   3.709   7.332   5.946 -1.3066  1.5295  0.0130
  221MOL0     H29127   3.636   7.177   5.909 -1.0229  2.5970  2.4992
  221MOL0     H29128   3.588   7.257   5.669 -1.7821 -0.4894 -0.0487
  221MOL0     H29129   3.618   7.414   5.725 -2.3696  0.1402 -1.4405
  221MOL0     H29130   3.453   7.339   5.932  3.0064 -3.4604  0.8193
  221MOL0     H29131   3.400   7.426   5.793  0.0809 -0.5087  2.2660
  221MOL0     H29132   3.397   7.121   5.853 -2.0690 -0.6429  1.6156
  221MOL0     H29133   3.344   7.195   5.695 -0.4007  3.3984  0.1972
  221MOL0     H29134   3.017   7.261   6.020 -3.4903 -0.2104 -1.6303
  221MOL0     H29135   2.849   7.104   6.046 -0.4329  0.0070 -1.1525
  221MOL0     H29136   2.603   6.658   5.994  0.5691  1.7743 -0.2562
  221MOL0     H29137   2.451   6.530   6.135  1.2679 -0.3250  2.1003
  221MOL0     H29138   2.331   6.749   6.531  0.4991 -0.6520 -0.3633
  221MOL0     H29139   2.410   6.591   6.573 -0.8868 -1.4838  0.2036
  221MOL0     H29140   2.235   6.555   6.665  0.4475  1.3179  0.4097
  221MOL0     H29141   2.197   6.482   6.504 -0.1141  0.1866 -0.8481
  221MOL0     H29142   2.081   6.653   6.426  3.1623 -0.2126  0.1935
  221MOL0     H29143   2.113   6.764   6.572  0.9163 -0.7306  1.5775
  221MOL0     H29144   1.877   6.674   6.580 -0.8901 -1.3725  0.7862
  221MOL0     H29145   1.950   6.513   6.556  2.7036 -0.6589 -0.3539
  221MOL0     H29146   2.012   6.687   6.802 -1.3034  0.1822  0.8406
  221MOL0     H29147   2.038   6.517   6.772 -0.2278  0.4413  2.3207
  221MOL0     H29148   1.758   6.656   6.770 -0.5106  0.1773 -0.6682
  221MOL0     H29149   1.825   6.566   6.901  0.5414 -0.5368  0.3210
  221MOL0     H29150   1.755   6.447   6.628  0.7436  1.4886  0.7939
  221MOL0     H29151   1.807   6.349   6.768 -0.8051  0.0385  2.8144
  221MOL0     H29152   1.581   6.328   6.733 -2.0225  1.6884 -1.5040
  221MOL0     H29153   1.552   6.495   6.714  0.4971  0.2562  1.6708
  221MOL0     H29154   2.528   6.821   6.452  1.5084 -0.5207  0.2344
  221MOL0     H29155   2.673   6.935   6.309 -2.3804  0.6318  2.1415
  221MOL0     H29156   3.085   6.790   5.879 -1.1197  1.3804 -5.4138
  221MOL0     H29157   3.244   6.956   5.792  1.2434 -1.4262  2.2330
  221MOL0     H29158   5.126   7.509   5.676  0.0256  3.6415  0.2687
  221MOL0     H29159   5.346   7.593   5.641 -1.7338 -0.0635 -0.5516
  221MOL0     H29160   5.773   7.635   5.780 -1.5563  0.5712  0.2206
  221MOL0     H29161   6.003   7.721   5.781  2.1296  2.0215  0.8109
  221MOL0     H29162   6.195   7.834   5.727 -1.3285  2.5041 -2.2340
  221MOL0     H29163   6.204   7.806   5.901 -1.1657 -0.8037 -0.9159
  221MOL0     H29164   6.405   7.911   5.790 -0.5950 -1.2017  0.2182
  221MOL0     H29165   6.306   8.042   5.724  1.3498 -0.1422 -1.0419
  221MOL0     H29166   6.393   7.978   6.007 -0.0911  0.0351  0.3775
  221MOL0     H29167   6.277   8.116   5.971 -1.4605 -0.9620 -2.0712
  221MOL0     H29168   6.454   8.208   5.809  1.5722 -1.4858 -0.9036
  221MOL0     H29169   6.480   8.222   5.982 -0.6445 -0.2697  0.5228
  221MOL0     H29170   6.810   8.006   5.810 -0.0966 -1.1668  3.2443
  221MOL0     H29171   5.867   8.117   5.860 -0.2357  1.0480  0.1185
  221MOL0     H29172   5.621   8.024   5.856 -0.0330  0.6291 -0.9121
  222MOL0     O29173   8.243   4.096   3.678 -0.4354  0.3939  0.2910
  222MOL0     C29174   8.279   4.206   3.723 -0.3592  0.1281  0.6983
  222MOL0     O29175   8.213   4.330   3.715 -0.8296 -0.0015  0.2648
  222MOL0     C29176   8.082   4.336   3.666 -0.5714 -0.5699  0.0277
  222MOL0     C29177   7.982   4.259   3.711 -0.5180  0.3336  0.4530
  222MOL0     C29178   7.851   4.277   3.659 -0.0007 -0.3018 -1.2687
  222MOL0     C29179   7.813   4.389   3.585 -0.2632 -0.8153  0.3903
  222MOL0     O29180   7.681   4.398   3.543 -0.4293 -0.7690 -0.4649
  222MOL0     C29181   7.645   4.461   3.419 -0.2461 -0.4547 -0.6373
  222MOL0     C29182   7.517   4.543   3.433  0.5592  0.7002 -0.4015
  222MOL0     C29183   7.472   4.611   3.309  0.7054  0.5895 -0.0157
  222MOL0     C29184   7.377   4.722   3.336  1.0099 -0.6016  0.8539
  222MOL0     C29185   7.325   4.784   3.205  0.8781 -0.2883 -0.2119
  222MOL0     C29186   7.197   4.866   3.229 -0.1097 -0.2862  0.7259
  222MOL0     C29187   7.126   4.904   3.098 -0.3374  0.3781  0.2965
  222MOL0     C29188   7.015   4.801   3.068 -0.1577  0.0467 -0.0122
  222MOL0     N29189   6.895   4.848   3.126  0.6247  0.2102  0.2410
  222MOL0     C29190   6.864   4.834   3.255 -0.5028 -0.3368 -1.3314
  222MOL0     C29191   6.733   4.854   3.263  0.0922 -0.8414  0.4825
  222MOL0     C29192   6.644   4.854   3.384 -0.3358 -0.4806  0.3227
  222MOL0     C29193   6.583   4.717   3.411 -0.4283 -0.3214  0.4269
  222MOL0     C29194   6.455   4.698   3.334 -0.7193  0.4650  0.1561
  222MOL0     C29195   6.408   4.553   3.336  1.2660 -0.0762 -0.3784
  222MOL0     O29196   6.282   4.553   3.269 -0.6053 -0.1824  1.0441
  222MOL0     C29197   6.224   4.434   3.244  0.4501 -0.2489 -0.4257
  222MOL0     C29198   6.129   4.428   3.141 -0.7877 -0.7032  0.6716
  222MOL0     C29199   6.070   4.313   3.095  0.2811  0.0484 -0.1541
  222MOL0     C29200   6.107   4.192   3.151 -0.0721  1.4350 -0.4328
  222MOL0     C29201   6.038   4.061   3.108  0.8942  0.4480 -0.1938
  222MOL0     O29202   5.926   4.081   3.037  1.1527  0.2404 -0.0216
  222MOL0     C29203   5.866   3.970   2.993  0.0100  0.5474 -0.0371
  222MOL0     C29204   5.866   3.927   2.859  0.7887 -0.2181 -0.6942
  222MOL0     C29205   5.784   3.817   2.825  0.6207  0.0870 -0.3488
  222MOL0     C29206   5.717   3.742   2.920  0.0857 -0.2017  0.5880
  222MOL0     O29207   5.668   3.628   2.870 -0.6110  0.0088 -0.1146
  222MOL0     C29208   5.543   3.591   2.924 -0.2401  0.3383  0.5855
  222MOL0     C29209   5.489   3.460   2.864 -0.1918 -0.8569 -0.3222
  222MOL0     C29210   5.338   3.451   2.890  0.3403 -0.3465 -0.4073
  222MOL0     C29211   5.257   3.341   2.819 -0.1925 -0.3970 -1.0070
  222MOL0     C29212   5.102   3.372   2.842  0.4817  0.7060 -0.8302
  222MOL0     C29213   5.009   3.256   2.805  0.6803  0.1076  0.5962
  222MOL0     C29214   4.863   3.305   2.804  0.5178 -0.4499  0.1267
  222MOL0     C29215   4.763   3.194   2.771  0.3262 -0.2408  1.0923
  222MOL0    Cl29216   4.772   3.147   2.602  0.1460 -0.3509 -0.2670
  222MOL0     C29217   5.715   3.788   3.054 -0.9249 -0.7984 -0.0784
  222MOL0     C29218   5.787   3.904   3.089  0.3302 -0.1290 -0.1894
  222MOL0     O29219   6.086   3.955   3.144 -0.6198  0.6197 -0.3173
  222MOL0     C29220   6.183   4.190   3.265 -0.7640  0.2174 -0.0970
  222MOL0     C29221   6.251   4.303   3.308 -1.0066 -0.6515  0.1244
  222MOL0     N29222   6.682   4.879   3.143  0.2738  0.5027  1.1750
  222MOL0     N29223   6.779   4.873   3.062 -0.3513 -0.2544 -0.3955
  222MOL0     C29224   7.919   4.478   3.546 -0.5426 -0.2710  0.0617
  222MOL0     C29225   8.053   4.450   3.586 -0.5051  0.1109 -0.3250
  222MOL0     C29226   8.409   4.210   3.787 -0.2682  0.1370 -0.0344
  222MOL0     C29227   8.479   4.092   3.829  0.1860  0.2891  1.2926
  222MOL0     C29228   8.596   4.115   3.895 -0.4400  0.1208 -0.0790
  222MOL0     C29229   8.656   4.240   3.919 -0.1327  1.3418  0.0609
  222MOL0     O29230   8.771   4.268   3.986  0.1318  0.3891  0.0604
  222MOL0     C29231   8.849   4.161   4.036 -0.2675 -0.0860 -0.1354
  222MOL0     C29232   8.933   4.217   4.151 -0.3019  0.2264  0.3902
  222MOL0     C29233   9.020   4.339   4.107 -0.0048  0.3304  0.8992
  222MOL0     C29234   9.068   4.346   3.957 -0.1389 -0.0576 -1.0931
  222MOL0     C29235   9.124   4.483   3.939  0.8802  0.8916  0.5558
  222MOL0     C29236   9.170   4.598   3.948  0.1732 -0.2130  0.5547
  222MOL0     C29237   8.593   4.350   3.864 -0.5490  0.0895  0.0024
  222MOL0     C29238   8.474   4.341   3.796 -0.4512 -0.4056  0.6156
  222MOL0     H29239   8.012   4.184   3.784  1.0070  2.3961  2.0812
  222MOL0     H29240   7.770   4.212   3.692 -1.6077  1.4984 -1.5003
  222MOL0     H29241   7.650   4.382   3.342 -0.9582  0.9198 -2.1505
  222MOL0     H29242   7.725   4.532   3.396 -1.5324  0.9349 -0.9863
  222MOL0     H29243   7.539   4.611   3.516  0.9371  0.1756 -0.0649
  222MOL0     H29244   7.429   4.486   3.466  0.9473  1.5831  2.4799
  222MOL0     H29245   7.427   4.538   3.242  1.0720 -0.5984  0.9904
  222MOL0     H29246   7.559   4.652   3.255 -1.5010  2.9429 -2.0601
  222MOL0     H29247   7.291   4.691   3.396 -2.0251  0.7750 -2.3945
  222MOL0     H29248   7.430   4.802   3.388 -0.0695  0.5654  0.2169
  222MOL0     H29249   7.296   4.701   3.140 -0.7132 -2.0685  2.5555
  222MOL0     H29250   7.402   4.844   3.155  0.9548 -0.7264 -0.6235
  222MOL0     H29251   7.230   4.961   3.270 -1.0195 -0.0730  0.9882
  222MOL0     H29252   7.134   4.816   3.303  0.6235 -1.4025  0.6284
  222MOL0     H29253   7.083   5.003   3.113  0.6833  0.8705  0.0635
  222MOL0     H29254   7.188   4.917   3.008 -0.3126 -1.6121 -0.0340
  222MOL0     H29255   7.035   4.696   3.092 -0.4021  0.3250  1.4903
  222MOL0     H29256   6.988   4.821   2.963  1.0948  0.5550 -0.2528
  222MOL0     H29257   6.931   4.813   3.338  0.1187  0.4458 -1.6163
  222MOL0     H29258   6.565   4.928   3.367 -1.1019 -1.3732 -0.1119
  222MOL0     H29259   6.703   4.881   3.472  0.6065 -1.0744 -0.1126
  222MOL0     H29260   6.567   4.720   3.520  0.8709  1.6826  0.6174
  222MOL0     H29261   6.652   4.634   3.392 -0.8709 -0.3570 -1.1285
  222MOL0     H29262   6.377   4.768   3.366 -1.9672 -0.9085  0.2443
  222MOL0     H29263   6.473   4.724   3.229  2.6878 -1.7778  0.0396
  222MOL0     H29264   6.401   4.532   3.443 -0.0646  3.0453  0.2599
  222MOL0     H29265   6.480   4.495   3.279  1.7423  1.5204 -1.4738
  222MOL0     H29266   6.091   4.513   3.084  0.7315  0.5935  1.5213
  222MOL0     H29267   6.005   4.323   3.009  0.7790  0.9120 -0.4407
  222MOL0     H29268   5.912   3.983   2.778  0.5776  1.8572  0.5529
  222MOL0     H29269   5.771   3.812   2.717  2.7480 -3.9917 -0.5789
  222MOL0     H29270   5.472   3.674   2.914  2.3121  2.5895 -0.1801
  222MOL0     H29271   5.559   3.580   3.031  1.7747  0.6703  0.3634
  222MOL0     H29272   5.538   3.365   2.886  0.7961 -0.3564 -0.3148
  222MOL0     H29273   5.500   3.464   2.755 -1.4117 -2.6233 -0.5562
  222MOL0     H29274   5.294   3.547   2.859  0.9458 -1.0878 -3.9461
  222MOL0     H29275   5.323   3.445   2.998 -1.7866  1.9180 -0.4862
  222MOL0     H29276   5.270   3.343   2.710  1.0441  1.8976 -0.9013
  222MOL0     H29277   5.280   3.240   2.853 -1.9320 -0.2008  0.9719
  222MOL0     H29278   5.076   3.454   2.775  0.6882  0.7136 -0.9029
  222MOL0     H29279   5.086   3.408   2.944  1.8806 -0.7707 -0.0340
  222MOL0     H29280   5.021   3.179   2.882 -1.2602 -0.3906  0.4427
  222MOL0     H29281   5.033   3.213   2.708 -0.0739  1.8327 -0.3919
  222MOL0     H29282   4.832   3.334   2.905  1.6281 -0.7310  0.5549
  222MOL0     H29283   4.848   3.389   2.735  0.7443 -0.2748  0.2878
  222MOL0     H29284   4.661   3.225   2.795 -0.0375 -1.3252  1.0114
  222MOL0     H29285   4.772   3.100   2.825 -3.2014 -1.7261 -0.5570
  222MOL0     H29286   5.681   3.723   3.134  2.7094 -0.4062  2.0524
  222MOL0     H29287   5.773   3.929   3.194  0.1085 -0.7367 -0.0655
  222MOL0     H29288   6.219   4.100   3.314  1.6508  0.5409 -1.0986
  222MOL0     H29289   6.325   4.293   3.387 -2.6239 -0.0061  1.8056
  222MOL0     H29290   7.913   4.566   3.484  3.6046  0.3136  0.1888
  222MOL0     H29291   8.135   4.517   3.561  2.3352 -2.2535  1.9145
  222MOL0     H29292   8.444   3.990   3.816 -2.3593  1.1877  0.5400
  222MOL0     H29293   8.635   4.021   3.933  0.6437  0.4957 -0.2209
  222MOL0     H29294   8.916   4.120   3.960  0.5106  1.1398 -0.1354
  222MOL0     H29295   8.787   4.079   4.074  0.6653 -1.5745 -1.6326
  222MOL0     H29296   8.865   4.248   4.231  1.4182  3.0648  0.8956
  222MOL0     H29297   8.996   4.137   4.192  1.4389 -0.2515 -2.8996
  222MOL0     H29298   9.108   4.342   4.171  1.2505 -1.8597 -0.6006
  222MOL0     H29299   8.963   4.431   4.126  1.0959  1.1574  0.2525
  222MOL0     H29300   9.139   4.272   3.921 -0.7261 -0.4910 -1.3703
  222MOL0     H29301   8.982   4.340   3.889  0.1937 -0.7779 -1.4594
  222MOL0     H29302   9.208   4.696   3.967  0.4291 -0.0575 -0.6852
  222MOL0     H29303   8.640   4.448   3.871 -0.3678 -0.1382  3.1353
  222MOL0     H29304   8.432   4.428   3.747 -0.0308 -0.6711 -0.2348
  223MOL0     O29305   4.554   7.791   9.314 -0.2022 -0.4246 -0.2943
  223MOL0     C29306   4.622   7.885   9.357 -0.6611 -0.5924 -0.2635
  223MOL0     O29307   4.571   7.993   9.426  0.2711  0.6383  0.7068
  223MOL0     C29308   4.437   8.005   9.456  0.3276 -0.4329  0.3930
  223MOL0     C29309   4.370   8.125   9.432  0.3892  0.0945 -1.0628
  223MOL0     C29310   4.242   8.148   9.472  0.2856  0.3705  0.2557
  223MOL0     C29311   4.176   8.049   9.548 -0.7219  0.2925 -1.1239
  223MOL0     O29312   4.053   8.080   9.596  0.3809 -0.3622  0.4143
  223MOL0     C29313   3.951   8.001   9.537 -0.1099 -0.1191  0.8972
  223MOL0     C29314   3.828   8.020   9.623 -0.4379  0.3889 -0.3510
  223MOL0     C29315   3.710   7.926   9.593 -0.1614 -0.7583 -1.0447
  223MOL0     C29316   3.621   7.940   9.463 -1.1815  0.0508 -0.0766
  223MOL0     C29317   3.519   8.050   9.469 -0.2696  0.1587  0.3327
  223MOL0     C29318   3.387   8.034   9.556 -1.0684 -0.0804 -0.8617
  223MOL0     C29319   3.330   7.894   9.526  0.2004 -0.3392  0.2526
  223MOL0     C29320   3.187   7.871   9.568 -0.1966  0.1965 -0.0666
  223MOL0     N29321   3.084   7.967   9.521 -0.2474  0.3485  0.1354
  223MOL0     C29322   3.050   8.001   9.386 -0.0209  0.0490  0.0812
  223MOL0     C29323   2.936   8.080   9.401 -0.7146  0.5306  0.6025
  223MOL0     C29324   2.843   8.121   9.293  0.1009  1.0110  0.2829
  223MOL0     C29325   2.756   8.232   9.339  0.3881  0.0513  0.1102
  223MOL0     C29326   2.671   8.284   9.231 -0.0967 -0.3527 -0.6529
  223MOL0     C29327   2.587   8.406   9.281 -0.6059  0.1460  1.3995
  223MOL0     O29328   2.543   8.482   9.161  0.1048 -0.6300 -0.7184
  223MOL0     C29329   2.409   8.483   9.148  0.6256 -0.6600  1.2420
  223MOL0     C29330   2.348   8.426   9.030  0.1438  0.1485 -0.7032
  223MOL0     C29331   2.209   8.410   9.025 -0.1190  0.2007  0.7940
  223MOL0     C29332   2.126   8.454   9.128 -0.1555 -1.0040  0.3132
  223MOL0     C29333   1.978   8.467   9.122  0.3927  0.7182 -0.4010
  223MOL0     O29334   1.918   8.424   9.001  0.1376 -0.2208 -0.5808
  223MOL0     C29335   1.781   8.458   8.981  0.2844  0.6443  0.1786
  223MOL0     C29336   1.671   8.416   9.050  0.1189 -0.0359 -0.7576
  223MOL0     C29337   1.541   8.460   9.020  0.2875 -0.3754 -0.0318
  223MOL0     C29338   1.514   8.543   8.914 -0.8915 -0.2341 -0.4666
  223MOL0     O29339   1.391   8.592   8.884 -0.3561 -0.6482 -0.0075
  223MOL0     C29340   1.297   8.606   8.993  0.7093  0.0273 -0.0741
  223MOL0     C29341   1.157   8.584   8.935  0.1826 -1.0831  0.5411
  223MOL0     C29342   1.111   8.724   8.885  1.1026 -0.0475 -0.1003
  223MOL0     C29343   0.967   8.722   8.828  1.3465  0.8965 -0.5368
  223MOL0     C29344   0.911   8.861   8.791  0.2169 -0.0670 -0.3043
  223MOL0     C29345   1.015   8.963   8.732 -0.5559 -0.1212  0.2480
  223MOL0     C29346   0.938   9.089   8.683  0.4862 -0.9363  0.8964
  223MOL0     C29347   1.017   9.199   8.621 -0.2729 -0.4924  0.0875
  223MOL0    Cl29348   1.132   9.271   8.741  0.4032 -0.1763  0.2384
  223MOL0     C29349   1.623   8.577   8.836  0.0030  0.9776 -0.5109
  223MOL0     C29350   1.754   8.539   8.871  0.6961  0.1481 -0.2350
  223MOL0     O29351   1.925   8.531   9.216 -0.5688 -0.0719 -0.6382
  223MOL0     C29352   2.187   8.494   9.247 -0.5890  0.1498 -0.4149
  223MOL0     C29353   2.327   8.501   9.260 -0.6218  0.9824  0.0542
  223MOL0     N29354   2.902   8.083   9.540 -0.7942 -0.8451  0.2936
  223MOL0     N29355   2.990   8.019   9.603  0.5050  0.5282 -0.5330
  223MOL0     C29356   4.235   7.934   9.587  0.5547 -0.1165  0.0563
  223MOL0     C29357   4.367   7.907   9.541  0.5973  0.6014 -0.5267
  223MOL0     C29358   4.763   7.902   9.318 -0.7959  0.9106 -0.5837
  223MOL0     C29359   4.817   8.028   9.298 -1.4932 -0.1969  0.8227
  223MOL0     C29360   4.956   8.043   9.271 -0.2918 -0.2902  0.0688
  223MOL0     C29361   5.034   7.924   9.247  0.1193 -0.3505 -0.0208
  223MOL0     O29362   5.162   7.936   9.209 -0.1023 -0.3561 -0.7957
  223MOL0     C29363   5.255   7.831   9.235  1.2951 -0.1638  0.2348
  223MOL0     C29364   5.393   7.885   9.217  0.9286 -0.1054 -0.0738
  223MOL0     C29365   5.506   7.794   9.270 -0.2841 -1.1434  0.3320
  223MOL0     C29366   5.649   7.844   9.228 -0.6216  0.0413  0.0335
  223MOL0     C29367   5.741   7.794   9.323  0.3110  0.3633 -0.0200
  223MOL0     C29368   5.825   7.761   9.411 -0.3146 -0.0976 -0.5808
  223MOL0     C29369   4.970   7.800   9.248 -0.9738  0.5089 -0.4437
  223MOL0     C29370   4.837   7.789   9.292  0.4231 -0.3465  0.1655
  223MOL0     H29371   4.415   8.199   9.367 -1.5123  3.9451  1.5782
  223MOL0     H29372   4.192   8.241   9.444  1.1307  0.7180 -0.1226
  223MOL0     H29373   3.972   7.895   9.547 -1.7647 -0.5076  0.5103
  223MOL0     H29374   3.949   8.028   9.431  0.9067 -0.9642  0.6526
  223MOL0     H29375   3.799   8.125   9.618 -3.4355 -0.3374 -0.3265
  223MOL0     H29376   3.846   8.012   9.730 -2.0494  2.1499  0.1082
  223MOL0     H29377   3.646   7.936   9.681  0.4578  0.1593 -0.6865
  223MOL0     H29378   3.754   7.826   9.594  2.5081  0.2507  2.9927
  223MOL0     H29379   3.693   7.966   9.386  0.0304 -0.2689  0.9179
  223MOL0     H29380   3.574   7.843   9.446  0.3888 -0.5064 -1.3965
  223MOL0     H29381   3.484   8.068   9.367  1.0751  1.7591  0.1070
  223MOL0     H29382   3.574   8.140   9.500  1.6048 -1.7621  3.1361
  223MOL0     H29383   3.322   8.113   9.516 -1.4014  0.0220 -0.1384
  223MOL0     H29384   3.406   8.054   9.662  0.1373  0.3991 -1.1522
  223MOL0     H29385   3.327   7.872   9.419 -0.3271  0.8106  0.0141
  223MOL0     H29386   3.391   7.817   9.574  2.8907  1.6305  0.2194
  223MOL0     H29387   3.174   7.872   9.676  1.3054  0.1549  0.1410
  223MOL0     H29388   3.155   7.778   9.521 -0.4772  0.1025  0.3099
  223MOL0     H29389   3.096   7.970   9.293  1.3472 -2.0485  1.3713
  223MOL0     H29390   2.785   8.036   9.256  2.4120 -0.3647 -0.3917
  223MOL0     H29391   2.913   8.148   9.214  2.0413  0.1375  1.6170
  223MOL0     H29392   2.810   8.317   9.382  0.0977 -0.3440  1.2943
  223MOL0     H29393   2.697   8.189   9.420 -0.2875 -0.2178 -0.5186
  223MOL0     H29394   2.736   8.315   9.149  0.9993  0.3945  0.4465
  223MOL0     H29395   2.598   8.210   9.197 -0.6405  0.4377 -1.2462
  223MOL0     H29396   2.649   8.469   9.345  0.3590 -0.2532  0.8785
  223MOL0     H29397   2.508   8.368   9.347 -0.2910 -1.1447  1.0636
  223MOL0     H29398   2.393   8.378   8.943 -4.9867 -0.6732 -3.2683
  223MOL0     H29399   2.164   8.370   8.935 -2.5087  3.6359  0.2601
  223MOL0     H29400   1.670   8.344   9.131 -0.1702  2.5042  1.6357
  223MOL0     H29401   1.463   8.426   9.086 -0.3013  1.5714  0.3333
  223MOL0     H29402   1.313   8.703   9.041 -0.5985  1.6705 -2.6815
  223MOL0     H29403   1.293   8.527   9.069 -1.1286  1.2096  1.1428
  223MOL0     H29404   1.094   8.562   9.021  0.9796 -2.3640  0.8047
  223MOL0     H29405   1.146   8.508   8.857 -0.1034  1.0532 -1.6285
  223MOL0     H29406   1.179   8.750   8.804  2.3727 -4.0072 -0.5011
  223MOL0     H29407   1.101   8.805   8.959 -2.6921  0.9259 -1.4316
  223MOL0     H29408   0.971   8.651   8.745 -0.0145 -0.8467  0.8210
  223MOL0     H29409   0.890   8.685   8.897 -0.5954 -0.0112 -3.0265
  223MOL0     H29410   0.861   8.905   8.877  1.0489  0.9524 -0.3138
  223MOL0     H29411   0.829   8.860   8.719 -0.2793 -1.8112  0.2461
  223MOL0     H29412   1.063   8.936   8.638 -0.1135  1.8299 -0.1208
  223MOL0     H29413   1.092   8.992   8.804 -0.2187 -0.9295  0.2189
  223MOL0     H29414   0.878   9.054   8.599  0.7951  1.1845 -0.2745
  223MOL0     H29415   0.880   9.136   8.763  2.6343  1.9585  0.9297
  223MOL0     H29416   0.945   9.268   8.575 -0.3978 -1.3896 -1.1180
  223MOL0     H29417   1.079   9.160   8.539 -0.8734  0.1918 -0.7147
  223MOL0     H29418   1.618   8.633   8.743 -1.1432  0.5129 -0.7422
  223MOL0     H29419   1.841   8.567   8.812  0.5598 -0.2679 -0.6386
  223MOL0     H29420   2.123   8.518   9.332  1.4905  0.5454  1.1251
  223MOL0     H29421   2.364   8.533   9.356  0.8935  1.4683 -0.6657
  223MOL0     H29422   4.180   7.856   9.640 -3.2407  0.0735 -3.1627
  223MOL0     H29423   4.407   7.808   9.561 -0.0776  0.1470 -1.3911
  223MOL0     H29424   4.752   8.114   9.305  0.4657  1.4731 -0.3166
  223MOL0     H29425   5.008   8.138   9.271 -0.1515 -0.3613  1.0397
  223MOL0     H29426   5.228   7.750   9.167 -2.6171  1.8103 -0.8311
  223MOL0     H29427   5.248   7.801   9.340  2.3257 -0.3201  0.2744
  223MOL0     H29428   5.402   7.906   9.110 -0.8360  0.9155 -0.0667
  223MOL0     H29429   5.389   7.975   9.279 -0.9396  0.0631 -0.3786
  223MOL0     H29430   5.485   7.694   9.231 -2.4965 -0.4415 -0.4464
  223MOL0     H29431   5.502   7.796   9.379  0.8758  1.0695  0.3840
  223MOL0     H29432   5.682   7.821   9.126  1.2138 -0.6167  0.7294
  223MOL0     H29433   5.643   7.953   9.230 -0.9847  0.0579 -1.1669
  223MOL0     H29434   5.891   7.733   9.491 -0.3970  0.5723 -0.2711
  223MOL0     H29435   5.009   7.701   9.226  0.5987  1.1065 -0.4464
  223MOL0     H29436   4.799   7.688   9.294  1.0237 -0.5618  0.9465
  224MOL0     O29437   3.745   6.660   0.830  0.3959  0.6260 -0.1357
  224MOL0     C29438   3.792   6.601   0.930 -0.0969  0.7143  0.1329
  224MOL0     O29439   3.729   6.582   1.051  0.6491 -0.4017  0.5055
  224MOL0     C29440   3.591   6.618   1.070 -1.4281 -0.2559  0.0230
  224MOL0     C29441   3.495   6.588   0.973  0.1902 -0.1637 -0.1493
  224MOL0     C29442   3.362   6.639   0.990 -0.2423  0.6848  0.4461
  224MOL0     C29443   3.326   6.698   1.109  0.3995 -1.1553 -1.1493
  224MOL0     O29444   3.191   6.740   1.118 -0.5277  0.4188  0.0801
  224MOL0     C29445   3.143   6.768   1.246 -0.4561  0.1506 -0.1972
  224MOL0     C29446   2.989   6.770   1.235 -0.9951  0.6814 -0.5582
  224MOL0     C29447   2.925   6.856   1.347 -0.7528  0.6594 -0.4248
  224MOL0     C29448   2.775   6.870   1.343 -0.8723  0.1011 -0.3955
  224MOL0     C29449   2.724   6.911   1.484 -0.5216 -0.1733  0.6170
  224MOL0     C29450   2.572   6.919   1.479  0.3118  0.4159 -0.8817
  224MOL0     C29451   2.508   6.996   1.370 -0.6302  0.0389  0.7666
  224MOL0     C29452   2.354   7.013   1.386 -0.6518 -0.0911 -0.5272
  224MOL0     N29453   2.294   6.889   1.352 -0.5527  0.0730 -0.0474
  224MOL0     C29454   2.214   6.873   1.239 -0.1845 -0.0190  0.4748
  224MOL0     C29455   2.161   6.753   1.253  0.3602 -0.0573  0.4422
  224MOL0     C29456   2.055   6.703   1.166 -0.3241 -0.0266 -0.3883
  224MOL0     C29457   2.044   6.547   1.201 -0.2082 -0.2257 -0.1142
  224MOL0     C29458   1.911   6.489   1.154  0.2442  0.4553  0.4144
  224MOL0     C29459   1.864   6.491   1.009 -0.0118 -0.6320  0.7159
  224MOL0     O29460   1.754   6.579   0.993  0.7283 -0.3835 -0.2841
  224MOL0     C29461   1.625   6.534   1.010  0.3268 -0.1880  0.1699
  224MOL0     C29462   1.518   6.600   0.941 -0.2333 -0.7101  0.1974
  224MOL0     C29463   1.386   6.556   0.959  0.7703  0.6629 -0.2029
  224MOL0     C29464   1.353   6.442   1.037  0.5461 -0.3239  0.1144
  224MOL0     C29465   1.217   6.396   1.047  0.4274  0.5124 -0.0760
  224MOL0     O29466   1.121   6.439   0.957 -0.1408 -0.1278 -0.5740
  224MOL0     C29467   0.986   6.435   0.983 -0.1911 -0.2831 -0.3850
  224MOL0     C29468   0.915   6.554   0.946 -0.2588 -0.2841  1.0817
  224MOL0     C29469   0.775   6.564   0.956 -1.0246 -0.8163  0.2201
  224MOL0     C29470   0.700   6.450   0.998  0.0976  0.3488  0.6179
  224MOL0     O29471   0.559   6.469   1.016  0.1684 -0.0796  0.2004
  224MOL0     C29472   0.498   6.378   1.113 -0.2395 -0.3177  0.1024
  224MOL0     C29473   0.367   6.463   1.147 -0.4196 -0.1953  0.6959
  224MOL0     C29474   0.271   6.390   1.242 -0.1960  0.2164 -0.9993
  224MOL0     C29475   0.131   6.455   1.255 -0.3188  0.0806  0.5538
  224MOL0     C29476   0.031   6.373   1.343 -0.3535  0.4123  0.3223
  224MOL0     C29477  -0.099   6.444   1.364  0.1411  0.5048 -0.1585
  224MOL0     C29478  -0.210   6.333   1.397  0.6238 -0.1972 -0.8859
  224MOL0     C29479  -0.338   6.401   1.440  0.1980  0.2771 -0.1957
  224MOL0    Cl29480  -0.483   6.288   1.447  0.4444 -0.1195  0.3323
  224MOL0     C29481   0.775   6.333   1.040  0.0328 -0.5378  0.4164
  224MOL0     C29482   0.922   6.328   1.036  1.0122  0.6869  0.1676
  224MOL0     O29483   1.204   6.316   1.140  0.2535  0.6215 -0.0155
  224MOL0     C29484   1.461   6.385   1.108 -0.2254 -0.0952  1.2264
  224MOL0     C29485   1.595   6.427   1.096  0.0031 -0.6279 -0.3342
  224MOL0     N29486   2.231   6.686   1.354 -0.0829  0.1605 -0.5508
  224MOL0     N29487   2.305   6.770   1.417  0.3435 -1.0178  0.4812
  224MOL0     C29488   3.424   6.719   1.214  0.0657 -0.4927  0.0213
  224MOL0     C29489   3.555   6.684   1.190  0.0932 -0.1838  0.9032
  224MOL0     C29490   3.930   6.549   0.914 -0.1253  1.2445  0.4612
  224MOL0     C29491   4.019   6.602   0.819  0.1776 -0.4183  0.7131
  224MOL0     C29492   4.157   6.569   0.822 -0.2213  0.4469 -0.1559
  224MOL0     C29493   4.201   6.463   0.906  0.2257 -0.5311  0.4722
  224MOL0     O29494   4.327   6.409   0.911 -0.5448  0.0882  0.0003
  224MOL0     C29495   4.421   6.473   0.818  0.5032  0.1388 -0.3248
  224MOL0     C29496   4.561   6.424   0.842  0.0429 -1.1195  0.1718
  224MOL0     C29497   4.664   6.488   0.747  0.1997 -0.6163 -0.4582
  224MOL0     C29498   4.801   6.413   0.737 -0.4654  0.1279 -0.8060
  224MOL0     C29499   4.895   6.502   0.673 -0.6362 -0.1086 -0.1049
  224MOL0     C29500   4.982   6.577   0.629  0.3358 -0.7879 -0.8443
  224MOL0     C29501   4.114   6.413   0.997  0.3593  0.1506 -1.2178
  224MOL0     C29502   3.978   6.457   1.010  0.1619 -0.1783 -0.7561
  224MOL0     H29503   3.519   6.531   0.884  0.0707 -0.2515 -0.1242
  224MOL0     H29504   3.290   6.616   0.912  0.7761  0.7502 -0.5505
  224MOL0     H29505   3.176   6.864   1.288 -0.0898 -1.7530  4.5397
  224MOL0     H29506   3.178   6.688   1.312  1.6136  1.0206 -0.1625
  224MOL0     H29507   2.958   6.665   1.235  3.8869 -1.0349  1.3645
  224MOL0     H29508   2.970   6.812   1.135  1.9718  0.3433 -1.3496
  224MOL0     H29509   2.954   6.960   1.331  0.1754  1.0242  2.9039
  224MOL0     H29510   2.964   6.812   1.439  0.0713  0.1897 -0.9922
  224MOL0     H29511   2.758   6.938   1.259 -0.0318 -1.5628 -1.9800
  224MOL0     H29512   2.720   6.777   1.328  0.2216 -0.4033 -1.3806
  224MOL0     H29513   2.764   7.009   1.511  1.7790 -1.1892  1.1345
  224MOL0     H29514   2.754   6.828   1.549  1.9473  0.2014  0.0375
  224MOL0     H29515   2.553   6.974   1.572 -2.3024  2.6064 -2.5391
  224MOL0     H29516   2.532   6.818   1.485  0.9147  0.2134 -0.0547
  224MOL0     H29517   2.563   7.089   1.357  0.8202 -0.8003  0.7220
  224MOL0     H29518   2.525   6.931   1.283  0.5375  0.2430  0.8305
  224MOL0     H29519   2.317   7.093   1.320 -3.2591  0.3157  1.2685
  224MOL0     H29520   2.327   7.042   1.488 -0.5300  0.4459 -0.6450
  224MOL0     H29521   2.187   6.945   1.163 -1.2907  1.2997  2.0685
  224MOL0     H29522   2.076   6.720   1.060 -3.2762 -1.2040 -1.2665
  224MOL0     H29523   1.956   6.749   1.177 -1.4545 -1.5988 -3.0418
  224MOL0     H29524   2.061   6.521   1.306  0.5157 -3.3290 -0.9095
  224MOL0     H29525   2.129   6.502   1.150  0.6085  0.9366  0.1692
  224MOL0     H29526   1.907   6.383   1.180 -4.0177 -0.0200 -1.3212
  224MOL0     H29527   1.824   6.532   1.206 -0.4710  0.8238 -1.0384
  224MOL0     H29528   1.851   6.390   0.970  2.7711 -0.5381 -0.7426
  224MOL0     H29529   1.950   6.519   0.947  0.6299 -2.4295  0.7487
  224MOL0     H29530   1.540   6.682   0.873 -0.0120  0.8665  2.0863
  224MOL0     H29531   1.311   6.597   0.893  0.1708  1.8309  1.1568
  224MOL0     H29532   0.962   6.648   0.916 -3.4786  0.7305 -1.4440
  224MOL0     H29533   0.714   6.654   0.951 -1.6812 -1.0101  3.1027
  224MOL0     H29534   0.552   6.367   1.208  2.3397 -0.2667 -1.2822
  224MOL0     H29535   0.485   6.278   1.070 -0.6111  0.0610 -0.6971
  224MOL0     H29536   0.306   6.488   1.059  0.0791  1.7166  0.8471
  224MOL0     H29537   0.390   6.561   1.188 -1.0988  0.6594 -0.8495
  224MOL0     H29538   0.318   6.372   1.340  1.2020  1.2739 -1.4402
  224MOL0     H29539   0.252   6.291   1.201  0.5180  0.5623 -2.2170
  224MOL0     H29540   0.142   6.553   1.301  0.3361  0.8463 -1.1415
  224MOL0     H29541   0.092   6.468   1.153 -2.1947  0.2008  1.2512
  224MOL0     H29542   0.078   6.343   1.438 -1.9186 -2.2935  0.3455
  224MOL0     H29543   0.013   6.279   1.289  0.8777  0.6140 -0.4781
  224MOL0     H29544  -0.122   6.500   1.273 -0.8421  1.3557  0.5908
  224MOL0     H29545  -0.084   6.511   1.450  1.1511 -0.4402  0.4239
  224MOL0     H29546  -0.250   6.275   1.314  1.4621 -3.2161  0.6844
  224MOL0     H29547  -0.174   6.270   1.479  1.5756  2.4516  0.8549
  224MOL0     H29548  -0.350   6.480   1.365  0.4753  1.4724  0.9609
  224MOL0     H29549  -0.333   6.445   1.541 -2.6697 -1.8632  0.9950
  224MOL0     H29550   0.721   6.239   1.050  1.6644 -1.5090  0.3503
  224MOL0     H29551   0.969   6.235   1.065 -0.0055  0.5556  1.5107
  224MOL0     H29552   1.436   6.313   1.185 -0.2719 -1.1873  0.2120
  224MOL0     H29553   1.662   6.381   1.168 -1.4799 -0.3738  1.2675
  224MOL0     H29554   3.412   6.783   1.301 -1.1200  0.9834 -1.1676
  224MOL0     H29555   3.635   6.707   1.260 -0.4658  1.6977  0.9659
  224MOL0     H29556   3.985   6.679   0.751  0.3607  1.0449  2.2021
  224MOL0     H29557   4.224   6.631   0.764 -0.6706  0.6393 -0.4755
  224MOL0     H29558   4.428   6.582   0.813  3.5961 -0.0035 -1.5546
  224MOL0     H29559   4.376   6.435   0.726 -2.4946 -1.0202  1.4393
  224MOL0     H29560   4.585   6.454   0.945 -2.4217 -0.1840  0.5307
  224MOL0     H29561   4.569   6.316   0.831  2.9434 -0.8775 -1.0684
  224MOL0     H29562   4.688   6.588   0.784 -0.8583 -0.6838  0.4470
  224MOL0     H29563   4.622   6.498   0.646  0.1060 -0.3633 -0.3947
  224MOL0     H29564   4.826   6.383   0.840 -1.3214 -0.7792 -0.8401
  224MOL0     H29565   4.787   6.317   0.686 -0.6908 -0.4085  0.2190
  224MOL0     H29566   5.051   6.651   0.596  2.1826 -1.9447  0.2543
  224MOL0     H29567   4.156   6.339   1.064 -2.0170  1.1132  1.5617
  224MOL0     H29568   3.907   6.427   1.087 -0.6611  1.0119 -1.0150
  225MOL0     O29569   3.047   8.196   1.475  0.1972 -0.6728  0.4488
  225MOL0     C29570   3.059   8.315   1.468 -0.5141 -1.2900 -0.3358
  225MOL0     O29571   2.959   8.399   1.461 -0.2944  0.0599 -0.4745
  225MOL0     C29572   2.832   8.348   1.477 -0.1448 -0.7282  0.5447
  225MOL0     C29573   2.799   8.248   1.563  0.3617 -0.4828 -0.5346
  225MOL0     C29574   2.664   8.202   1.567  0.2208 -0.0146  0.3231
  225MOL0     C29575   2.568   8.247   1.480  0.5170 -0.0579 -0.3049
  225MOL0     O29576   2.454   8.172   1.486  0.1417 -0.9612  0.0859
  225MOL0     C29577   2.323   8.221   1.446  0.7086 -0.7995  0.7813
  225MOL0     C29578   2.225   8.111   1.436 -0.6296  0.6764  0.2836
  225MOL0     C29579   2.167   8.058   1.578 -0.3451  0.5514 -0.2920
  225MOL0     C29580   2.043   7.964   1.580 -0.0936  0.0539  0.5109
  225MOL0     C29581   1.914   8.032   1.533 -0.0803  0.2015 -0.3130
  225MOL0     C29582   1.781   7.947   1.533  0.5010  0.6584 -0.1226
  225MOL0     C29583   1.665   8.023   1.477  0.6378  0.9326  0.1704
  225MOL0     C29584   1.673   8.057   1.325  0.2266  0.2799  0.0358
  225MOL0     N29585   1.550   8.135   1.292 -0.7225 -0.5178  0.1105
  225MOL0     C29586   1.424   8.085   1.283 -0.6058 -0.4317 -0.1516
  225MOL0     C29587   1.366   8.174   1.200 -0.3208 -0.6332 -0.7669
  225MOL0     C29588   1.238   8.128   1.139 -0.0557 -0.1455  0.3096
  225MOL0     C29589   1.124   8.225   1.183  0.6705  0.7368 -0.2730
  225MOL0     C29590   1.140   8.372   1.139  0.1960  0.1470 -0.2819
  225MOL0     C29591   0.995   8.435   1.126  0.6616  0.2353  0.8327
  225MOL0     O29592   0.908   8.422   1.241 -0.1255  0.5936  0.0756
  225MOL0     C29593   0.775   8.451   1.228 -0.0020 -1.4001 -0.3720
  225MOL0     C29594   0.685   8.418   1.329 -0.3974  0.4286 -0.4908
  225MOL0     C29595   0.544   8.436   1.315 -0.7330 -1.2025 -0.0571
  225MOL0     C29596   0.488   8.486   1.193  0.2102  0.6791  0.2277
  225MOL0     C29597   0.341   8.499   1.181 -0.2802  0.2759 -0.3583
  225MOL0     O29598   0.267   8.461   1.292 -0.0218 -0.0608  0.0202
  225MOL0     C29599   0.137   8.500   1.291  0.7289  0.0844  0.6033
  225MOL0     C29600   0.082   8.584   1.390 -0.3246 -0.6159  0.0552
  225MOL0     C29601  -0.060   8.603   1.394 -0.3159  0.6121 -0.0075
  225MOL0     C29602  -0.151   8.554   1.295 -1.4602  0.5233  0.1091
  225MOL0     O29603  -0.286   8.586   1.307 -0.3472  0.4436  0.2376
  225MOL0     C29604  -0.381   8.515   1.220 -0.8305 -0.2725  0.9411
  225MOL0     C29605  -0.519   8.573   1.267  0.4972 -0.6582 -0.0489
  225MOL0     C29606  -0.636   8.523   1.175  0.1927  0.6227  0.8838
  225MOL0     C29607  -0.761   8.606   1.191 -0.1792 -0.4940 -0.6767
  225MOL0     C29608  -0.875   8.535   1.119  0.3473  0.1087 -0.1337
  225MOL0     C29609  -0.999   8.626   1.097  0.5068 -0.2499 -0.1971
  225MOL0     C29610  -1.115   8.523   1.062 -0.4810  1.2334 -1.3769
  225MOL0     C29611  -1.243   8.602   0.998  0.5181 -0.2554  0.5330
  225MOL0    Cl29612  -1.296   8.731   1.112  0.0416 -0.1885  0.0543
  225MOL0     C29613  -0.088   8.462   1.205 -0.2989  0.4279  0.8785
  225MOL0     C29614   0.046   8.437   1.195 -0.4281  0.3317  0.8070
  225MOL0     O29615   0.302   8.550   1.077  0.4308 -0.4490 -0.0093
  225MOL0     C29616   0.584   8.519   1.089  0.4668 -0.1455  0.4687
  225MOL0     C29617   0.722   8.508   1.104  0.2430 -0.4758 -0.8649
  225MOL0     N29618   1.442   8.285   1.185 -0.2875  0.6860 -0.1603
  225MOL0     N29619   1.552   8.262   1.243 -0.3556 -0.0303  0.4194
  225MOL0     C29620   2.597   8.347   1.388 -0.9037 -0.2296 -0.4355
  225MOL0     C29621   2.734   8.397   1.385  0.0016 -0.6354 -0.4576
  225MOL0     C29622   3.196   8.371   1.482  0.0430 -0.1142  0.0771
  225MOL0     C29623   3.303   8.277   1.494  0.0934  0.2424 -0.0803
  225MOL0     C29624   3.435   8.331   1.491 -0.2963 -0.1495 -0.8069
  225MOL0     C29625   3.459   8.460   1.483 -0.0351 -0.8052 -0.0695
  225MOL0     O29626   3.583   8.514   1.471 -0.7873 -0.6016 -0.8159
  225MOL0     C29627   3.646   8.521   1.347 -0.3338 -0.2478 -0.3387
  225MOL0     C29628   3.778   8.589   1.360  0.2620  0.3129  0.4707
  225MOL0     C29629   3.877   8.515   1.451  0.7298  0.5525 -0.6997
  225MOL0     C29630   4.016   8.553   1.403  0.1539 -0.5749 -0.1708
  225MOL0     C29631   4.045   8.693   1.408 -0.7450  0.1793  0.1618
  225MOL0     C29632   4.055   8.816   1.407  0.4441 -0.9022  0.4568
  225MOL0     C29633   3.350   8.552   1.479  0.2352  0.0451 -0.6277
  225MOL0     C29634   3.216   8.504   1.478  0.0432 -0.4552  0.4006
  225MOL0     H29635   2.863   8.209   1.641 -1.7580 -1.8437  0.6147
  225MOL0     H29636   2.633   8.124   1.635  0.0348  0.2451  0.5385
  225MOL0     H29637   2.336   8.277   1.353 -1.9434  0.1847  0.9376
  225MOL0     H29638   2.275   8.288   1.518 -1.0155 -0.1487 -0.8750
  225MOL0     H29639   2.275   8.027   1.387 -0.4176  0.9752 -0.0066
  225MOL0     H29640   2.142   8.150   1.377 -0.1403  1.5584  0.1705
  225MOL0     H29641   2.153   8.143   1.645 -1.8741  0.8635 -0.9462
  225MOL0     H29642   2.253   8.001   1.614  0.5558  2.3142  0.4475
  225MOL0     H29643   2.067   7.871   1.528  1.3741 -0.2211  1.5980
  225MOL0     H29644   2.033   7.933   1.684 -2.0492  0.4885  0.4880
  225MOL0     H29645   1.931   8.058   1.428 -0.2137  1.1577 -0.1074
  225MOL0     H29646   1.918   8.126   1.589  1.4021  1.3327 -2.1988
  225MOL0     H29647   1.768   7.920   1.639 -0.6980  1.0482 -0.1540
  225MOL0     H29648   1.792   7.858   1.471  0.8734  2.4680 -2.8010
  225MOL0     H29649   1.571   7.972   1.497  0.0925  2.0164  0.4563
  225MOL0     H29650   1.647   8.115   1.534  2.4753 -0.0564  2.5287
  225MOL0     H29651   1.677   7.969   1.261 -0.2095  1.1051 -1.1578
  225MOL0     H29652   1.760   8.110   1.284 -0.7944  2.6817  0.7805
  225MOL0     H29653   1.380   7.988   1.302 -0.9021 -1.0545 -3.5018
  225MOL0     H29654   1.210   8.030   1.179 -1.9592  0.6889  1.1192
  225MOL0     H29655   1.249   8.123   1.030 -0.4115  2.9712  0.0445
  225MOL0     H29656   1.098   8.225   1.289 -0.8550  1.2120 -0.6230
  225MOL0     H29657   1.038   8.186   1.128  0.5290  0.5539  0.0798
  225MOL0     H29658   1.209   8.424   1.207 -0.1859  1.2055 -0.6767
  225MOL0     H29659   1.196   8.377   1.045 -1.7248 -0.7125 -1.5310
  225MOL0     H29660   0.948   8.381   1.043 -0.8250  3.1452 -0.3593
  225MOL0     H29661   1.006   8.539   1.091 -1.4710  0.1348 -0.2823
  225MOL0     H29662   0.721   8.370   1.419  4.2527  1.3763 -1.5951
  225MOL0     H29663   0.481   8.419   1.401 -1.7426  0.9201 -0.3159
  225MOL0     H29664   0.151   8.624   1.464  0.3225 -0.1107 -0.8013
  225MOL0     H29665  -0.108   8.662   1.472 -0.1914  1.6141 -0.6644
  225MOL0     H29666  -0.382   8.408   1.243  2.8122 -0.3652  1.2803
  225MOL0     H29667  -0.360   8.532   1.114 -3.0641  0.9513  0.6352
  225MOL0     H29668  -0.509   8.680   1.246  0.5509 -1.0024 -1.9238
  225MOL0     H29669  -0.552   8.545   1.367 -3.2830 -0.7434 -1.1490
  225MOL0     H29670  -0.644   8.416   1.194 -0.0682  0.5249  0.2339
  225MOL0     H29671  -0.608   8.535   1.070 -3.3418 -2.3420 -0.6184
  225MOL0     H29672  -0.768   8.625   1.298  2.1161  0.3627 -0.6413
  225MOL0     H29673  -0.742   8.702   1.142  0.6150  0.0739  0.7106
  225MOL0     H29674  -0.910   8.454   1.183  1.4278  0.8938  1.5116
  225MOL0     H29675  -0.840   8.493   1.024  2.8430  0.9878  0.3446
  225MOL0     H29676  -0.977   8.706   1.026  0.9695 -1.0343 -0.9661
  225MOL0     H29677  -1.021   8.680   1.190 -0.3817 -1.0139  0.0513
  225MOL0     H29678  -1.080   8.438   1.002 -0.2447 -0.7141  1.3370
  225MOL0     H29679  -1.142   8.477   1.157  2.8925 -1.0708 -1.3462
  225MOL0     H29680  -1.323   8.532   0.976  1.0768 -0.4464 -1.0342
  225MOL0     H29681  -1.223   8.650   0.902 -3.1153  0.3097 -0.0545
  225MOL0     H29682  -0.147   8.401   1.137  1.7448 -2.5989  1.6319
  225MOL0     H29683   0.078   8.365   1.121  1.7738  1.3401  0.7090
  225MOL0     H29684   0.546   8.548   0.992 -1.4898 -0.6084  1.0474
  225MOL0     H29685   0.786   8.527   1.018 -0.1703 -0.5619 -1.1909
  225MOL0     H29686   2.515   8.373   1.322 -1.9666  0.1199  0.9741
  225MOL0     H29687   2.750   8.468   1.304  0.6794 -1.4398 -1.0544
  225MOL0     H29688   3.285   8.170   1.489  1.1328  0.1079 -3.5764
  225MOL0     H29689   3.519   8.263   1.487  0.0522  0.1142  1.1200
  225MOL0     H29690   3.585   8.584   1.282 -1.6287  0.3239  1.3562
  225MOL0     H29691   3.658   8.423   1.298  0.7462 -1.3830  2.0402
  225MOL0     H29692   3.822   8.594   1.259  2.3236 -0.6211  1.2667
  225MOL0     H29693   3.759   8.693   1.389  0.1813  0.1036  1.1705
  225MOL0     H29694   3.859   8.408   1.460  0.6784  0.6520  0.5731
  225MOL0     H29695   3.860   8.557   1.550 -4.6852 -1.3386 -0.4966
  225MOL0     H29696   4.089   8.500   1.465 -1.6662 -2.3417  0.5483
  225MOL0     H29697   4.026   8.523   1.298 -2.8526 -0.4153 -0.5823
  225MOL0     H29698   4.050   8.923   1.419 -0.1449 -1.0952  2.2917
  225MOL0     H29699   3.371   8.658   1.491  1.2972 -0.4003  2.7198
  225MOL0     H29700   3.131   8.571   1.477  0.3630 -0.0323  0.8524
  226MOL0     O29701   4.610   3.154   8.060  0.2211 -0.0825 -0.1756
  226MOL0     C29702   4.610   3.032   8.044  0.2928  0.4867  0.7710
  226MOL0     O29703   4.513   2.954   7.991 -0.1169  0.3768  0.7269
  226MOL0     C29704   4.404   3.025   7.944 -0.0468  0.0487 -0.2549
  226MOL0     C29705   4.270   2.995   7.985  0.2011  0.1322 -0.2084
  226MOL0     C29706   4.157   3.060   7.951 -0.1407 -0.1078  0.0985
  226MOL0     C29707   4.161   3.176   7.870  0.7508  1.5313 -0.2767
  226MOL0     O29708   4.042   3.237   7.839 -0.4165  0.4823  0.0764
  226MOL0     C29709   4.045   3.351   7.744  0.0187  0.3610 -0.3079
  226MOL0     C29710   3.900   3.387   7.713 -0.0147 -0.1013  0.0379
  226MOL0     C29711   3.806   3.276   7.690  0.3062  0.3275  0.2826
  226MOL0     C29712   3.848   3.197   7.563 -0.1771 -0.2720  0.7802
  226MOL0     C29713   3.770   3.067   7.538 -0.5600 -1.1403  0.2561
  226MOL0     C29714   3.752   2.983   7.662 -0.3796  0.2479 -0.5440
  226MOL0     C29715   3.725   2.834   7.630 -0.2106 -0.0930  0.3189
  226MOL0     C29716   3.584   2.814   7.559 -0.2266  0.5307  0.1479
  226MOL0     N29717   3.538   2.674   7.573 -0.6427  0.4626  0.4173
  226MOL0     C29718   3.542   2.604   7.690  0.4003  0.4561 -0.5747
  226MOL0     C29719   3.552   2.473   7.652 -0.3031 -0.3682 -0.4262
  226MOL0     C29720   3.539   2.371   7.758  0.4571  0.1969 -0.8876
  226MOL0     C29721   3.435   2.261   7.730  0.1508  0.1745 -0.1542
  226MOL0     C29722   3.288   2.307   7.677  0.6552  0.8524  0.8160
  226MOL0     C29723   3.187   2.364   7.785  0.6924  0.4591 -0.1323
  226MOL0     O29724   3.081   2.430   7.714  0.1504 -0.4676  0.1532
  226MOL0     C29725   2.976   2.369   7.654 -0.0841  0.3339 -0.2620
  226MOL0     C29726   2.943   2.232   7.670  0.3101 -0.6609 -0.1310
  226MOL0     C29727   2.826   2.173   7.607 -0.3774 -0.6983 -0.4942
  226MOL0     C29728   2.748   2.262   7.525 -0.2886  0.3481  0.5613
  226MOL0     C29729   2.632   2.212   7.451  0.9751  0.1803  1.0228
  226MOL0     O29730   2.612   2.256   7.322 -0.4114 -0.3108  0.1520
  226MOL0     C29731   2.515   2.192   7.251  0.2903  0.0935 -0.3571
  226MOL0     C29732   2.561   2.151   7.121  0.1237 -0.1503  0.0195
  226MOL0     C29733   2.478   2.078   7.035  0.3274  0.2067  0.0676
  226MOL0     C29734   2.348   2.045   7.072  0.3703  0.5973  0.8749
  226MOL0     O29735   2.255   1.976   6.987 -0.0553 -0.4211  0.5435
  226MOL0     C29736   2.297   1.887   6.889 -0.6603  1.3045  0.2944
  226MOL0     C29737   2.189   1.794   6.838  0.1936  1.1846  0.5034
  226MOL0     C29738   2.052   1.865   6.804 -0.4799  0.3008  1.1956
  226MOL0     C29739   1.946   1.780   6.745 -0.2323  0.4578 -0.1988
  226MOL0     C29740   1.820   1.859   6.726 -0.5720 -0.4330 -0.8588
  226MOL0     C29741   1.694   1.771   6.726 -0.4477 -0.7755 -0.0901
  226MOL0     C29742   1.712   1.641   6.644  0.1919  0.0754  0.3701
  226MOL0     C29743   1.575   1.576   6.620  0.0512  0.9758  0.1706
  226MOL0    Cl29744   1.592   1.444   6.506 -0.4059 -0.1113  0.1618
  226MOL0     C29745   2.305   2.087   7.201 -1.4357  0.5643  0.0791
  226MOL0     C29746   2.382   2.161   7.283  0.5279  0.1174  1.2678
  226MOL0     O29747   2.567   2.128   7.506 -0.2388 -0.5663 -0.6401
  226MOL0     C29748   2.783   2.397   7.511  0.6337  1.2160  0.5361
  226MOL0     C29749   2.892   2.448   7.578 -0.2959 -0.0338 -0.0244
  226MOL0     N29750   3.557   2.468   7.513 -0.2020 -0.1808  0.0806
  226MOL0     N29751   3.555   2.588   7.464 -0.1603  0.2994 -0.1236
  226MOL0     C29752   4.290   3.205   7.826 -0.0502 -0.6582  0.1041
  226MOL0     C29753   4.414   3.137   7.863 -0.0004 -0.3682  0.1699
  226MOL0     C29754   4.736   2.950   8.070 -0.6723 -0.0941 -0.6617
  226MOL0     C29755   4.854   3.020   8.098 -0.4362  0.1303 -1.2113
  226MOL0     C29756   4.972   2.960   8.121 -0.8326  0.6586  0.5841
  226MOL0     C29757   4.984   2.821   8.099 -0.0164  0.3935 -0.2184
  226MOL0     O29758   5.110   2.774   8.127  0.0833  0.4359  0.2381
  226MOL0     C29759   5.130   2.636   8.151 -0.5772 -0.0710 -0.3573
  226MOL0     C29760   5.284   2.626   8.163 -0.2129  0.2724 -0.8899
  226MOL0     C29761   5.348   2.642   8.023 -0.4265  0.0162  0.3609
  226MOL0     C29762   5.486   2.586   8.027  0.5413 -0.3298  0.0903
  226MOL0     C29763   5.572   2.636   7.922  0.1817  0.5266  0.0867
  226MOL0     C29764   5.652   2.671   7.839  0.6639  0.2186  0.5503
  226MOL0     C29765   4.869   2.740   8.071 -0.4229  0.3127 -0.1086
  226MOL0     C29766   4.745   2.811   8.073  1.0781  0.2982 -0.3376
  226MOL0     H29767   4.265   2.905   8.046  1.0313  0.6797  0.6971
  226MOL0     H29768   4.067   3.012   7.988 -1.4122  2.1762  0.2012
  226MOL0     H29769   4.099   3.331   7.650  0.6801  2.0875 -0.3287
  226MOL0     H29770   4.084   3.435   7.802  1.2092 -0.3886  0.0147
  226MOL0     H29771   3.900   3.457   7.628  0.4809 -1.8860 -1.4937
  226MOL0     H29772   3.863   3.441   7.800  0.6885  1.9189 -0.8468
  226MOL0     H29773   3.713   3.329   7.669 -0.0404  1.3924  3.8065
  226MOL0     H29774   3.789   3.224   7.785  2.1119  0.3901  0.6838
  226MOL0     H29775   3.842   3.262   7.475  0.2884 -1.4763 -0.1614
  226MOL0     H29776   3.955   3.186   7.579  0.5551  2.3902 -1.4556
  226MOL0     H29777   3.837   3.011   7.473 -1.1405 -2.0923  0.4591
  226MOL0     H29778   3.674   3.079   7.487 -1.7346  3.2318  2.9071
  226MOL0     H29779   3.675   3.024   7.728 -0.4141  0.3504 -0.6477
  226MOL0     H29780   3.842   2.988   7.724 -0.1360  3.1012 -1.0076
  226MOL0     H29781   3.808   2.809   7.564 -1.9809  2.1375 -3.0723
  226MOL0     H29782   3.730   2.777   7.723 -2.0532  0.4986  0.8227
  226MOL0     H29783   3.589   2.839   7.453  0.1619 -0.5002 -0.0782
  226MOL0     H29784   3.514   2.882   7.609  2.2465  2.9315  0.6366
  226MOL0     H29785   3.536   2.656   7.785 -0.4275  3.0375 -1.9343
  226MOL0     H29786   3.515   2.426   7.849  1.1045  0.0001 -0.5956
  226MOL0     H29787   3.637   2.324   7.771 -0.5191 -2.4967 -2.5364
  226MOL0     H29788   3.428   2.206   7.824 -1.4518  3.1591  1.6206
  226MOL0     H29789   3.477   2.204   7.647  0.4892 -1.0316  0.8265
  226MOL0     H29790   3.303   2.380   7.596 -2.9766 -1.2459 -2.0498
  226MOL0     H29791   3.239   2.222   7.630  1.5036  1.4703 -1.3443
  226MOL0     H29792   3.244   2.425   7.856  1.2029 -1.2841  1.0173
  226MOL0     H29793   3.156   2.275   7.841  0.0563  0.7051 -0.0859
  226MOL0     H29794   2.993   2.170   7.744 -1.4037 -0.3322  1.4001
  226MOL0     H29795   2.796   2.074   7.637 -3.2977  0.5081  0.9092
  226MOL0     H29796   2.652   2.196   7.083 -0.6982  2.1615  0.6184
  226MOL0     H29797   2.512   2.050   6.936 -0.2508 -0.2905  0.0045
  226MOL0     H29798   2.384   1.832   6.927  0.4137  0.5842 -2.8365
  226MOL0     H29799   2.342   1.946   6.809 -0.0243  1.2495  0.6078
  226MOL0     H29800   2.182   1.719   6.917  1.9443 -1.5277 -1.7260
  226MOL0     H29801   2.219   1.746   6.744 -1.5698 -0.9200  0.9380
  226MOL0     H29802   2.067   1.928   6.715 -0.5593 -0.4985  0.6095
  226MOL0     H29803   2.019   1.931   6.885  0.8873  4.0915 -1.0879
  226MOL0     H29804   1.983   1.726   6.657 -0.0731 -2.2410  1.3927
  226MOL0     H29805   1.923   1.703   6.819  2.0142  0.7272  0.8575
  226MOL0     H29806   1.827   1.927   6.640  2.2977  0.8234  0.2209
  226MOL0     H29807   1.810   1.926   6.813 -1.1365 -0.4315 -0.9237
  226MOL0     H29808   1.611   1.832   6.688  1.0726  1.0638 -0.5858
  226MOL0     H29809   1.668   1.745   6.829  0.2875  0.5921  0.4527
  226MOL0     H29810   1.769   1.662   6.553  1.6994  0.9792  1.4862
  226MOL0     H29811   1.763   1.572   6.713 -0.3273  0.3080  0.9942
  226MOL0     H29812   1.505   1.650   6.580 -2.2310 -0.4628  1.3231
  226MOL0     H29813   1.538   1.535   6.715  1.8346 -1.7164 -0.1860
  226MOL0     H29814   2.199   2.070   7.220 -1.7430  2.7352  0.5647
  226MOL0     H29815   2.355   2.189   7.385  2.1393  1.7678  1.2953
  226MOL0     H29816   2.740   2.462   7.435 -0.0612 -1.4030 -1.4734
  226MOL0     H29817   2.909   2.555   7.566  0.2026  0.0548  1.3040
  226MOL0     H29818   4.299   3.293   7.764 -2.1346 -0.3836  0.1175
  226MOL0     H29819   4.507   3.179   7.827 -2.2632  4.9846 -0.4288
  226MOL0     H29820   4.854   3.128   8.091  3.3379  0.2965 -0.6234
  226MOL0     H29821   5.060   3.019   8.143 -2.5552  2.5134  3.0607
  226MOL0     H29822   5.103   2.568   8.070  2.0068 -1.0337 -0.5205
  226MOL0     H29823   5.082   2.595   8.240 -2.2213  0.4990 -0.9357
  226MOL0     H29824   5.329   2.702   8.228 -0.3004 -0.4076 -0.0072
  226MOL0     H29825   5.314   2.526   8.196 -0.6112  0.5380  0.3529
  226MOL0     H29826   5.344   2.747   7.993  1.4178  0.3124  1.0413
  226MOL0     H29827   5.308   2.587   7.938 -0.4141 -1.4202  1.2429
  226MOL0     H29828   5.536   2.618   8.120  0.9301 -0.5698 -0.0306
  226MOL0     H29829   5.480   2.477   8.034 -1.7578 -0.2075  0.8314
  226MOL0     H29830   5.704   2.722   7.760  1.1287 -0.3283  0.4882
  226MOL0     H29831   4.882   2.634   8.049 -0.6756  0.5959 -1.7738
  226MOL0     H29832   4.655   2.749   8.071  2.2799 -1.9166  3.2999
  227MOL0     O29833   5.794   1.970   5.222  0.8001  0.6868  0.4100
  227MOL0     C29834   5.767   1.879   5.298  0.0591  0.3089  0.0580
  227MOL0     O29835   5.855   1.772   5.329  0.4680  0.8030  0.3180
  227MOL0     C29836   5.980   1.776   5.272 -0.0506  0.6076 -0.0728
  227MOL0     C29837   6.004   1.784   5.133  0.0646 -0.8539 -0.0796
  227MOL0     C29838   6.134   1.770   5.071 -0.2688 -0.0059 -0.6828
  227MOL0     C29839   6.250   1.754   5.156  0.5889  0.5721 -0.5744
  227MOL0     O29840   6.381   1.733   5.126  0.2875  0.5617  0.3404
  227MOL0     C29841   6.395   1.724   4.979 -0.0819 -0.0997  0.0138
  227MOL0     C29842   6.535   1.663   4.948  0.7662  0.0853  0.9580
  227MOL0     C29843   6.654   1.732   5.010  0.4585 -0.2931  0.5550
  227MOL0     C29844   6.781   1.688   4.952  0.3417  0.6452  0.3841
  227MOL0     C29845   6.901   1.742   5.029  0.1510 -0.3262  0.9084
  227MOL0     C29846   7.030   1.703   4.968 -1.2731  0.2375  0.0508
  227MOL0     C29847   7.146   1.768   5.058 -0.1112  0.2078  0.2417
  227MOL0     C29848   7.203   1.675   5.166  0.4671  0.1159 -0.5744
  227MOL0     N29849   7.097   1.610   5.249 -0.2338  0.9089 -0.3137
  227MOL0     C29850   7.049   1.650   5.372 -0.7138 -0.4366 -0.5772
  227MOL0     C29851   6.962   1.548   5.400  0.8885  0.2749 -0.1193
  227MOL0     C29852   6.872   1.542   5.524  0.1251  0.0123  0.8576
  227MOL0     C29853   6.744   1.625   5.512 -0.2686  0.7405  0.4508
  227MOL0     C29854   6.660   1.566   5.403  0.2875 -0.5740 -0.0809
  227MOL0     C29855   6.630   1.417   5.408 -0.5803 -0.4706  0.1488
  227MOL0     O29856   6.526   1.394   5.309 -0.7200 -0.2603  0.4547
  227MOL0     C29857   6.394   1.409   5.347  0.2308 -0.4272 -0.2836
  227MOL0     C29858   6.294   1.356   5.256  0.3023  0.1016 -0.0191
  227MOL0     C29859   6.164   1.355   5.300  0.5682  0.3611  0.1949
  227MOL0     C29860   6.125   1.415   5.418  0.0349  0.0343  0.2007
  227MOL0     C29861   5.980   1.418   5.448 -0.3465  0.7727 -0.1791
  227MOL0     O29862   5.889   1.356   5.361  0.5058 -0.4945  0.2582
  227MOL0     C29863   5.759   1.382   5.383  0.3306  0.7251  0.0246
  227MOL0     C29864   5.681   1.447   5.294  0.2016  0.5209 -0.7403
  227MOL0     C29865   5.544   1.450   5.293 -0.5714 -0.1483  0.7266
  227MOL0     C29866   5.480   1.409   5.401 -0.0206  0.8836  0.3904
  227MOL0     O29867   5.339   1.418   5.387 -0.3679  0.4850  0.1259
  227MOL0     C29868   5.251   1.384   5.492  0.2059 -0.2305 -1.3477
  227MOL0     C29869   5.110   1.448   5.457  0.1171  0.8012  0.1719
  227MOL0     C29870   4.983   1.402   5.530  0.0756 -0.2817 -0.3851
  227MOL0     C29871   4.857   1.488   5.516  0.0499 -0.0984  0.5784
  227MOL0     C29872   4.742   1.431   5.606 -0.4918 -0.1806  0.3154
  227MOL0     C29873   4.626   1.526   5.588 -0.4076 -0.1873 -0.1003
  227MOL0     C29874   4.500   1.466   5.656 -0.1099  0.0907  0.1854
  227MOL0     C29875   4.376   1.544   5.623  0.4539  0.8126  0.1129
  227MOL0    Cl29876   4.404   1.715   5.667  0.2654  0.6389 -0.7045
  227MOL0     C29877   5.554   1.345   5.504  0.4324  0.1407 -0.4564
  227MOL0     C29878   5.691   1.324   5.493 -0.8228  0.5743  0.2494
  227MOL0     O29879   5.955   1.480   5.552  0.0374 -0.2703 -0.4131
  227MOL0     C29880   6.219   1.478   5.501 -0.3553 -0.5748 -0.5057
  227MOL0     C29881   6.355   1.467   5.468  0.6611 -0.0400  0.7382
  227MOL0     N29882   6.971   1.449   5.306 -0.2445 -0.1392 -0.8042
  227MOL0     N29883   7.052   1.491   5.219 -0.5035 -0.4679 -1.1757
  227MOL0     C29884   6.222   1.756   5.295  0.5283  0.1954 -0.3473
  227MOL0     C29885   6.091   1.762   5.352  0.6587  0.6816 -0.9080
  227MOL0     C29886   5.636   1.884   5.361  0.9733  0.3960 -0.1865
  227MOL0     C29887   5.551   1.996   5.349  0.6995 -0.0747  0.6035
  227MOL0     C29888   5.417   1.985   5.384 -0.6041 -0.2908 -0.0051
  227MOL0     C29889   5.365   1.876   5.457  0.4769 -0.2511  0.4461
  227MOL0     O29890   5.234   1.865   5.507 -0.4367 -0.1214 -0.1211
  227MOL0     C29891   5.193   1.982   5.577 -0.1176 -0.0514  0.1510
  227MOL0     C29892   5.049   1.980   5.634  0.3278 -0.3021  0.6520
  227MOL0     C29893   5.030   1.884   5.747 -0.1148 -0.7032  0.2472
  227MOL0     C29894   4.903   1.905   5.827  0.1679  0.4774  0.0098
  227MOL0     C29895   4.788   1.898   5.740  0.0589  0.2101  0.1800
  227MOL0     C29896   4.690   1.896   5.666  0.3560  0.3170  0.0228
  227MOL0     C29897   5.450   1.769   5.472  0.1964  0.3845 -0.4114
  227MOL0     C29898   5.581   1.769   5.422 -0.8088 -0.3540  0.6866
  227MOL0     H29899   5.913   1.779   5.074 -1.6273  0.7301  2.2388
  227MOL0     H29900   6.141   1.757   4.963  1.2820 -0.0285 -0.5999
  227MOL0     H29901   6.397   1.823   4.933  1.5188 -0.1521 -0.0640
  227MOL0     H29902   6.321   1.655   4.937  0.4046 -1.3647  1.1319
  227MOL0     H29903   6.540   1.662   4.839 -2.2543  0.2478  0.7244
  227MOL0     H29904   6.517   1.557   4.970 -1.7646 -0.2079 -1.8152
  227MOL0     H29905   6.650   1.731   5.119 -0.0181  1.6298  0.5881
  227MOL0     H29906   6.651   1.839   4.988  2.5609 -0.0095  1.3560
  227MOL0     H29907   6.782   1.578   4.949  0.7464  0.4156  3.9694
  227MOL0     H29908   6.786   1.713   4.846 -0.6412 -2.4489 -0.5164
  227MOL0     H29909   6.900   1.716   5.135 -0.2944  1.6366  1.4349
  227MOL0     H29910   6.881   1.849   5.019  0.8189 -0.4064 -2.4921
  227MOL0     H29911   7.047   1.747   4.869  2.8134 -0.5908  0.2050
  227MOL0     H29912   7.037   1.594   4.960 -1.1550  0.3221 -1.2098
  227MOL0     H29913   7.224   1.805   4.991 -0.2013 -2.5508 -1.5715
  227MOL0     H29914   7.110   1.859   5.106 -0.8448 -1.6663  3.5751
  227MOL0     H29915   7.263   1.724   5.243  0.1055 -2.0044  1.1757
  227MOL0     H29916   7.278   1.608   5.122  3.5347  1.6263  1.8954
  227MOL0     H29917   7.070   1.740   5.429 -0.2213 -0.9132  0.0107
  227MOL0     H29918   6.934   1.587   5.603  1.8493  2.2893 -1.6316
  227MOL0     H29919   6.869   1.435   5.549 -0.8284 -0.4598 -1.1017
  227MOL0     H29920   6.763   1.732   5.512 -0.5266  0.7885  0.7127
  227MOL0     H29921   6.693   1.610   5.608 -0.7567  4.6400  0.9366
  227MOL0     H29922   6.566   1.621   5.397 -0.2354 -1.5720 -1.7199
  227MOL0     H29923   6.723   1.586   5.316  0.9269  1.4328  0.7866
  227MOL0     H29924   6.610   1.404   5.515 -1.4316  1.8762  0.3288
  227MOL0     H29925   6.717   1.354   5.387 -0.3338 -0.2801  0.5974
  227MOL0     H29926   6.321   1.298   5.169 -2.0843 -0.9301 -0.1443
  227MOL0     H29927   6.095   1.306   5.232  0.4143  4.7239 -3.2250
  227MOL0     H29928   5.748   1.494   5.224  2.3852  0.4225  1.1536
  227MOL0     H29929   5.491   1.501   5.213  0.2228  0.5049  0.5945
  227MOL0     H29930   5.291   1.426   5.585 -2.9278 -3.5574  1.8684
  227MOL0     H29931   5.247   1.275   5.499 -2.1075 -0.2936 -2.5724
  227MOL0     H29932   5.096   1.434   5.349  3.4163 -1.8196 -0.0693
  227MOL0     H29933   5.108   1.557   5.465 -2.4450  0.6722  2.4949
  227MOL0     H29934   5.015   1.397   5.635  1.5917 -0.5813 -0.8449
  227MOL0     H29935   4.961   1.296   5.515  0.0626 -0.9822  3.4371
  227MOL0     H29936   4.877   1.593   5.539  0.4145 -0.0030 -0.1487
  227MOL0     H29937   4.827   1.489   5.411  2.5006  1.4714 -0.2073
  227MOL0     H29938   4.775   1.422   5.710  1.4794 -0.1571 -0.2590
  227MOL0     H29939   4.707   1.333   5.574 -1.4999  0.1955  0.2458
  227MOL0     H29940   4.612   1.527   5.479 -0.0881 -2.3715 -0.2215
  227MOL0     H29941   4.655   1.625   5.624 -0.4373 -0.3205  0.2957
  227MOL0     H29942   4.486   1.364   5.619  0.6442  0.9169 -2.6043
  227MOL0     H29943   4.518   1.468   5.764  0.1220  1.3456  0.1321
  227MOL0     H29944   4.284   1.500   5.663  1.1434 -0.9993 -0.2044
  227MOL0     H29945   4.356   1.548   5.516 -2.9985 -0.2931  0.6079
  227MOL0     H29946   5.500   1.306   5.590  1.6005 -0.1725  0.1476
  227MOL0     H29947   5.747   1.273   5.571 -0.1040  3.4158  1.7120
  227MOL0     H29948   6.204   1.536   5.591  3.3276  1.2569 -0.8939
  227MOL0     H29949   6.425   1.504   5.542 -1.3504  3.6731  1.0230
  227MOL0     H29950   6.303   1.762   5.367  0.8844  2.7782 -0.8544
  227MOL0     H29951   6.077   1.759   5.460  5.2920 -1.8271 -0.1516
  227MOL0     H29952   5.584   2.090   5.306  2.9750 -1.5501 -1.1145
  227MOL0     H29953   5.347   2.068   5.384  1.9760  2.1494  3.0932
  227MOL0     H29954   5.197   2.066   5.507 -0.2528 -1.7933 -2.0731
  227MOL0     H29955   5.265   2.002   5.656  1.8510 -0.7668 -1.3540
  227MOL0     H29956   5.011   2.080   5.657 -0.2344  0.0165 -1.4478
  227MOL0     H29957   4.993   1.956   5.543  0.5052  1.3239  0.0792
  227MOL0     H29958   5.101   1.905   5.828  0.2739 -0.4916 -0.1513
  227MOL0     H29959   5.041   1.779   5.718  1.0242 -1.2509  2.3673
  227MOL0     H29960   4.901   1.827   5.903 -1.8738 -1.3000 -1.7421
  227MOL0     H29961   4.903   2.003   5.877  0.4605  1.2259 -1.3998
  227MOL0     H29962   4.610   1.903   5.595 -0.8286 -0.1544  1.2790
  227MOL0     H29963   5.422   1.674   5.515 -1.7471  0.7076 -0.8708
  227MOL0     H29964   5.641   1.680   5.432 -1.0601 -0.5897  0.1445
  228MOL0     O29965   2.675   8.498   6.902 -0.1000  0.0286  0.4381
  228MOL0     C29966   2.702   8.406   6.834  0.1219  0.3372 -0.8233
  228MOL0     O29967   2.635   8.288   6.835  0.0934 -1.0154 -0.0333
  228MOL0     C29968   2.510   8.292   6.881 -0.0911 -0.0188  0.1665
  228MOL0     C29969   2.405   8.322   6.794  0.5553 -0.0942  0.0605
  228MOL0     C29970   2.268   8.305   6.829  0.0927  0.6607 -0.3306
  228MOL0     C29971   2.241   8.282   6.967 -0.4971 -0.5303 -0.1503
  228MOL0     O29972   2.115   8.266   7.009  0.4328 -0.1489 -0.3044
  228MOL0     C29973   2.027   8.374   6.996 -0.1331  0.3085 -0.2108
  228MOL0     C29974   1.907   8.369   7.096 -0.3003  0.2819  0.3755
  228MOL0     C29975   1.814   8.487   7.094 -0.0103  0.0170 -0.5149
  228MOL0     C29976   1.736   8.487   7.224 -0.1508  0.5920 -0.8352
  228MOL0     C29977   1.605   8.570   7.218  0.1440 -0.4316 -0.0965
  228MOL0     C29978   1.511   8.530   7.337 -0.6082  0.3825  0.2384
  228MOL0     C29979   1.393   8.622   7.326  0.1181  0.0824 -0.0556
  228MOL0     C29980   1.282   8.563   7.409 -0.6007  0.0238  0.0558
  228MOL0     N29981   1.174   8.655   7.414  1.0841  0.2851 -0.6075
  228MOL0     C29982   1.166   8.766   7.496 -0.1065 -0.6662  0.2196
  228MOL0     C29983   1.039   8.821   7.483 -0.5418 -0.2499  0.7750
  228MOL0     C29984   0.994   8.942   7.544  0.6239 -0.6469 -0.8141
  228MOL0     C29985   0.903   8.918   7.667 -0.6160  0.4056 -0.1506
  228MOL0     C29986   0.774   8.846   7.627  0.1232 -0.0486  0.3608
  228MOL0     C29987   0.668   8.831   7.739 -0.4754 -0.1305 -0.0752
  228MOL0     O29988   0.555   8.755   7.685  0.4292  0.7443  0.3069
  228MOL0     C29989   0.429   8.818   7.667 -0.7417 -1.4011 -1.0095
  228MOL0     C29990   0.410   8.955   7.652  0.0371 -0.0901  0.0867
  228MOL0     C29991   0.286   9.006   7.611 -0.2536 -0.5179 -0.5695
  228MOL0     C29992   0.171   8.925   7.599  0.4881 -0.5703 -0.1663
  228MOL0     C29993   0.038   8.976   7.558  0.1215  0.4149  0.0325
  228MOL0     O29994   0.014   9.111   7.579 -0.7799 -0.4655  0.6922
  228MOL0     C29995  -0.101   9.155   7.504 -0.2920 -0.4388  0.6472
  228MOL0     C29996  -0.236   9.138   7.539  0.1794  0.2085  0.4646
  228MOL0     C29997  -0.344   9.202   7.473 -0.7585  0.2408 -0.2286
  228MOL0     C29998  -0.314   9.283   7.362 -0.6398 -0.0389 -1.0209
  228MOL0     O29999  -0.407   9.351   7.296  0.5396 -0.0538 -0.0253
  228MOL0     C30000  -0.521   9.282   7.245  0.0472 -0.1683 -0.1667
  228MOL0     C30001  -0.587   9.367   7.136 -0.2912 -0.1414  0.5569
  228MOL0     C30002  -0.698   9.277   7.075 -0.2367  0.2349 -0.3970
  228MOL0     C30003  -0.768   9.352   6.962  0.3548  0.3460 -0.6926
  228MOL0     C30004  -0.880   9.279   6.895 -0.1497 -0.2904 -0.1524
  228MOL0     C30005  -0.901   9.348   6.758 -0.0218  0.0809 -0.3655
  228MOL0     C30006  -1.015   9.286   6.678  0.2464 -0.4357  1.0240
  228MOL0     C30007  -1.109   9.394   6.620 -0.3028 -0.0743 -0.2671
  228MOL0    Cl30008  -1.263   9.330   6.562  0.1057  0.0704 -0.3412
  228MOL0     C30009  -0.175   9.304   7.326  0.0481 -0.0533 -1.1105
  228MOL0     C30010  -0.076   9.235   7.392 -1.2502  0.3437  0.1914
  228MOL0     O30011  -0.039   8.893   7.513 -0.1949  0.5946  0.2032
  228MOL0     C30012   0.198   8.790   7.603  0.3181  0.1900  0.2494
  228MOL0     C30013   0.319   8.732   7.634 -0.5021 -0.9837 -1.3318
  228MOL0     N30014   0.979   8.745   7.393  1.1203 -0.1615 -0.1163
  228MOL0     N30015   1.057   8.646   7.347  0.2856 -0.4049 -0.1826
  228MOL0     C30016   2.347   8.257   7.056  0.2129 -0.1273  0.1540
  228MOL0     C30017   2.483   8.261   7.012 -0.6429 -0.3240 -0.4327
  228MOL0     C30018   2.830   8.407   6.768 -0.2691  1.4876  0.0800
  228MOL0     C30019   2.879   8.293   6.700  1.1826  0.1371 -0.1141
  228MOL0     C30020   2.989   8.291   6.622 -0.5182 -0.1208  0.5018
  228MOL0     C30021   3.070   8.407   6.616 -0.3605 -0.1751 -0.8837
  228MOL0     O30022   3.184   8.379   6.546  0.5465 -0.1438  0.0395
  228MOL0     C30023   3.236   8.492   6.481 -0.1369 -0.6469  0.6230
  228MOL0     C30024   3.371   8.454   6.429 -0.8802 -0.3340  0.3096
  228MOL0     C30025   3.438   8.580   6.368  0.1469 -0.5396  0.3437
  228MOL0     C30026   3.578   8.544   6.328 -0.0054  0.9508 -0.3711
  228MOL0     C30027   3.672   8.558   6.435 -0.6351  0.1255 -0.6405
  228MOL0     C30028   3.751   8.611   6.522 -0.4003  1.0763  0.6012
  228MOL0     C30029   3.033   8.517   6.688  0.1208 -0.0194  0.3738
  228MOL0     C30030   2.920   8.516   6.768  0.1548 -0.1839  0.3156
  228MOL0     H30031   2.411   8.345   6.688  0.3563  2.1157  0.4847
  228MOL0     H30032   2.191   8.335   6.759  1.3766  2.0972 -1.1894
  228MOL0     H30033   1.997   8.377   6.890 -2.4265 -0.7834  0.3350
  228MOL0     H30034   2.079   8.468   7.015 -0.3518 -0.1628  3.2084
  228MOL0     H30035   1.953   8.365   7.195 -1.7715  0.6789  1.1130
  228MOL0     H30036   1.849   8.278   7.077 -0.1183  0.1567  0.4246
  228MOL0     H30037   1.753   8.483   7.003 -0.6609 -1.8629 -0.0539
  228MOL0     H30038   1.874   8.578   7.082  2.5886 -1.3360  1.3294
  228MOL0     H30039   1.715   8.384   7.253 -0.0350  0.2373 -1.9586
  228MOL0     H30040   1.794   8.536   7.302  0.6161  1.5880 -1.9881
  228MOL0     H30041   1.560   8.569   7.118  1.7576  1.3311 -0.9028
  228MOL0     H30042   1.635   8.672   7.243  0.4451 -0.1531 -1.5145
  228MOL0     H30043   1.565   8.552   7.429 -0.2415  0.8683 -0.0888
  228MOL0     H30044   1.478   8.426   7.350 -0.8954  0.2294 -1.4300
  228MOL0     H30045   1.419   8.727   7.343  4.7813 -0.8262 -0.1708
  228MOL0     H30046   1.357   8.614   7.223 -0.3348 -1.7738  0.2183
  228MOL0     H30047   1.328   8.563   7.508 -2.7898 -0.5785  1.1428
  228MOL0     H30048   1.255   8.462   7.376  1.8738 -0.1655 -1.6193
  228MOL0     H30049   1.254   8.798   7.550  0.8985 -0.0572 -1.6734
  228MOL0     H30050   0.942   9.004   7.470 -0.3449  1.6963  1.6251
  228MOL0     H30051   1.079   9.004   7.574 -0.7021  4.4524 -5.7212
  228MOL0     H30052   0.883   9.016   7.712  1.0672  0.0503  1.4885
  228MOL0     H30053   0.965   8.862   7.738 -0.5055  2.6657  1.6534
  228MOL0     H30054   0.724   8.882   7.537 -3.0075  2.1732  2.7630
  228MOL0     H30055   0.811   8.745   7.607  0.3791  0.5540 -2.5180
  228MOL0     H30056   0.637   8.932   7.765  1.2903  1.4921 -3.6026
  228MOL0     H30057   0.703   8.777   7.828 -2.5368 -0.6969  0.4647
  228MOL0     H30058   0.488   9.030   7.664 -0.5550  0.3130  1.6955
  228MOL0     H30059   0.290   9.112   7.592  0.3946 -0.9117 -3.0840
  228MOL0     H30060  -0.268   9.068   7.616 -1.3895  1.1070  0.6826
  228MOL0     H30061  -0.447   9.186   7.506 -0.5939 -0.1704  0.0941
  228MOL0     H30062  -0.586   9.260   7.331 -0.7683  2.1818 -0.1190
  228MOL0     H30063  -0.488   9.185   7.207 -0.7611 -1.3597  1.9372
  228MOL0     H30064  -0.516   9.393   7.058 -0.6024 -1.5399 -0.2337
  228MOL0     H30065  -0.630   9.460   7.173 -1.3370 -1.2119  2.1717
  228MOL0     H30066  -0.780   9.242   7.139  0.1879 -0.7890 -0.3917
  228MOL0     H30067  -0.649   9.187   7.038 -2.4769 -0.9433 -0.6875
  228MOL0     H30068  -0.812   9.444   6.998  0.0224 -0.1815  0.2700
  228MOL0     H30069  -0.696   9.371   6.882  0.6277 -2.4252 -1.2329
  228MOL0     H30070  -0.975   9.297   6.945 -1.2449  0.3010 -2.3230
  228MOL0     H30071  -0.848   9.176   6.882  1.8561  0.2451  0.1530
  228MOL0     H30072  -0.810   9.337   6.699 -0.0031  1.2215 -0.5763
  228MOL0     H30073  -0.912   9.456   6.774  0.8896  0.5499 -2.5974
  228MOL0     H30074  -0.982   9.220   6.597  1.8263 -1.6210  2.5791
  228MOL0     H30075  -1.077   9.239   6.755  2.9053 -3.6386  1.4195
  228MOL0     H30076  -1.065   9.459   6.544  1.7633 -0.9188  0.1337
  228MOL0     H30077  -1.138   9.455   6.706 -1.7980  0.9399 -1.4359
  228MOL0     H30078  -0.141   9.367   7.244  1.2731 -0.8783 -1.2745
  228MOL0     H30079   0.028   9.252   7.363 -0.7008 -0.8461  1.3114
  228MOL0     H30080   0.126   8.712   7.581  1.1929 -1.9617  4.2049
  228MOL0     H30081   0.327   8.624   7.638  0.6136 -0.9000  1.2423
  228MOL0     H30082   2.324   8.239   7.160  1.1765 -1.1344  0.2124
  228MOL0     H30083   2.554   8.233   7.089 -0.3567 -0.1418 -0.6229
  228MOL0     H30084   2.833   8.195   6.704  1.3773  0.0418 -0.1571
  228MOL0     H30085   3.023   8.196   6.583  0.6794  1.6125 -3.1050
  228MOL0     H30086   3.237   8.580   6.545  1.0278  0.3933 -0.7582
  228MOL0     H30087   3.162   8.515   6.403  0.2899  0.0321  0.4101
  228MOL0     H30088   3.419   8.409   6.516 -0.8119 -0.5884  0.1438
  228MOL0     H30089   3.364   8.376   6.353 -0.8156 -0.3269  0.2971
  228MOL0     H30090   3.438   8.673   6.425  2.0991  0.0827 -0.5711
  228MOL0     H30091   3.380   8.610   6.280  2.3434  2.5419 -0.2246
  228MOL0     H30092   3.584   8.440   6.295 -2.2524  1.3132 -2.2278
  228MOL0     H30093   3.619   8.601   6.244  0.1481  1.7769  0.2522
  228MOL0     H30094   3.830   8.643   6.588 -0.1871 -3.4480  2.8877
  228MOL0     H30095   3.078   8.614   6.669  2.2593 -1.3777 -2.1612
  228MOL0     H30096   2.882   8.608   6.812  0.6783  0.3695 -0.3654
  229MOL0     O30097   4.161   7.424   1.115 -0.5466  0.2870 -0.3402
  229MOL0     C30098   4.144   7.378   1.227 -0.1644  0.1523  0.5083
  229MOL0     O30099   4.019   7.366   1.284  0.5339  0.6595  0.1476
  229MOL0     C30100   3.907   7.413   1.228 -0.2319  0.0658  0.3450
  229MOL0     C30101   3.802   7.326   1.219  0.5567  0.2784 -0.5218
  229MOL0     C30102   3.682   7.365   1.150 -0.5507  0.3679 -0.2757
  229MOL0     C30103   3.669   7.488   1.085 -0.1555  0.5283 -0.2819
  229MOL0     O30104   3.565   7.530   1.006 -0.4903  0.3737 -0.7122
  229MOL0     C30105   3.448   7.448   1.007 -0.2607 -0.0708 -0.6422
  229MOL0     C30106   3.328   7.491   0.924 -0.6018 -0.1284  0.0787
  229MOL0     C30107   3.208   7.387   0.927 -0.8727 -0.3085 -0.8713
  229MOL0     C30108   3.100   7.449   0.848 -0.6874  0.0641  0.0830
  229MOL0     C30109   2.982   7.365   0.814 -0.2030 -0.3958  0.3125
  229MOL0     C30110   2.922   7.306   0.946 -0.3676 -0.2182  0.2701
  229MOL0     C30111   2.778   7.250   0.922 -0.4564  0.2479  0.6027
  229MOL0     C30112   2.725   7.196   1.058 -0.7453  0.1385  0.4550
  229MOL0     N30113   2.598   7.132   1.032  0.6872 -0.0043 -0.3939
  229MOL0     C30114   2.566   7.049   0.933  0.7563 -0.0312 -0.1382
  229MOL0     C30115   2.439   6.998   0.950 -0.0868 -0.2339 -0.3467
  229MOL0     C30116   2.356   6.910   0.869 -0.0388 -0.5721  0.1428
  229MOL0     C30117   2.360   6.765   0.931  0.7329  0.6995  0.0773
  229MOL0     C30118   2.499   6.709   0.986  1.2287 -0.1683 -0.5353
  229MOL0     C30119   2.496   6.561   1.019 -0.2738 -0.6132 -0.2270
  229MOL0     O30120   2.624   6.508   1.062 -0.2150  0.3625  0.9807
  229MOL0     C30121   2.716   6.482   0.956  0.8955 -0.0203  0.9053
  229MOL0     C30122   2.842   6.540   0.958  0.7273  0.5413 -0.5221
  229MOL0     C30123   2.941   6.506   0.861 -0.5633 -0.1202  0.3431
  229MOL0     C30124   2.906   6.431   0.746  0.7524  0.5627  0.2126
  229MOL0     C30125   3.010   6.376   0.655  0.0059  0.3854  0.2599
  229MOL0     O30126   3.127   6.448   0.659 -0.1038  0.3298 -0.3349
  229MOL0     C30127   3.228   6.429   0.568  0.1784 -0.3699  1.0778
  229MOL0     C30128   3.235   6.511   0.454 -0.3162 -0.0777  0.1458
  229MOL0     C30129   3.333   6.498   0.354 -0.1812  0.7496 -0.0073
  229MOL0     C30130   3.420   6.387   0.367 -1.0805  0.5074 -0.6532
  229MOL0     O30131   3.537   6.358   0.291  0.6160  0.2810 -0.1087
  229MOL0     C30132   3.555   6.437   0.180  0.2430  0.1926  0.5520
  229MOL0     C30133   3.645   6.371   0.082  0.1211 -0.4945  0.2300
  229MOL0     C30134   3.780   6.343   0.154  0.2373 -0.1077 -0.1774
  229MOL0     C30135   3.897   6.302   0.063  1.0956 -0.2805  0.3689
  229MOL0     C30136   3.960   6.425   0.002 -0.1595  0.0534  0.0058
  229MOL0     C30137   4.087   6.363  -0.057 -0.3501  0.1957  0.4714
  229MOL0     C30138   4.175   6.484  -0.120 -0.1520  0.5554 -0.0397
  229MOL0     C30139   4.266   6.537  -0.012 -0.0298 -0.1236 -0.5969
  229MOL0    Cl30140   4.432   6.447   0.007  0.1301 -0.2742 -0.2829
  229MOL0     C30141   3.415   6.313   0.486  0.4322 -0.0888  0.4733
  229MOL0     C30142   3.313   6.321   0.582 -0.5426 -0.0775 -0.3230
  229MOL0     O30143   2.977   6.293   0.567  0.0402 -0.1797  0.5769
  229MOL0     C30144   2.770   6.379   0.740 -0.1169  0.3303  0.4412
  229MOL0     C30145   2.679   6.401   0.846  0.2231  0.2131 -0.1047
  229MOL0     N30146   2.389   7.065   1.060  0.0625  0.2300 -0.4326
  229MOL0     N30147   2.480   7.142   1.099 -0.2118  0.6546 -0.1312
  229MOL0     C30148   3.774   7.576   1.099 -0.3389  0.2740  0.5486
  229MOL0     C30149   3.892   7.536   1.163  0.5668 -0.1620 -0.1696
  229MOL0     C30150   4.269   7.357   1.303  0.2439 -0.6067  0.1802
  229MOL0     C30151   4.259   7.345   1.439  0.6302 -0.1209 -0.3139
  229MOL0     C30152   4.371   7.315   1.516  0.0880  0.3545 -0.6281
  229MOL0     C30153   4.495   7.310   1.458  0.0637 -0.2875 -0.3158
  229MOL0     O30154   4.600   7.273   1.541  0.1026  0.2585  0.3856
  229MOL0     C30155   4.710   7.209   1.474  0.4823  0.2672 -0.4732
  229MOL0     C30156   4.700   7.056   1.460  0.8262 -0.0247 -0.2454
  229MOL0     C30157   4.658   6.998   1.597  0.4506  0.2567  0.4093
  229MOL0     C30158   4.693   6.846   1.615  0.6195  0.4951  0.8161
  229MOL0     C30159   4.585   6.778   1.538 -0.9262 -0.0886  0.4460
  229MOL0     C30160   4.497   6.719   1.482  0.5318  0.0076 -0.1290
  229MOL0     C30161   4.515   7.352   1.320 -0.0747 -0.1462 -0.3114
  229MOL0     C30162   4.396   7.378   1.249 -1.0827  0.5097  0.0935
  229MOL0     H30163   3.807   7.230   1.268 -1.1669  0.9091  1.0184
  229MOL0     H30164   3.599   7.297   1.134 -1.3490  1.5281 -1.3819
  229MOL0     H30165   3.418   7.441   1.112 -3.6163 -1.0719 -1.5585
  229MOL0     H30166   3.478   7.348   0.974 -2.1777 -1.2614  0.9621
  229MOL0     H30167   3.371   7.514   0.826  0.8288 -1.9727  0.2229
  229MOL0     H30168   3.283   7.587   0.952 -1.8753 -1.2315  2.0036
  229MOL0     H30169   3.192   7.372   1.034  1.9759  0.0627 -0.2999
  229MOL0     H30170   3.248   7.291   0.891 -0.7774 -0.5942 -0.0142
  229MOL0     H30171   3.059   7.536   0.901 -2.1662 -0.8004  0.4317
  229MOL0     H30172   3.156   7.465   0.756  0.0249 -1.4317  0.2210
  229MOL0     H30173   3.005   7.275   0.757  0.8998 -0.6900  1.1775
  229MOL0     H30174   2.905   7.420   0.759  1.4445  2.0867  0.3478
  229MOL0     H30175   2.926   7.389   1.017  4.3214 -0.2814  0.3904
  229MOL0     H30176   2.985   7.226   0.986  0.6337  0.5567  0.2737
  229MOL0     H30177   2.708   7.329   0.890 -1.1158 -0.6895 -0.3505
  229MOL0     H30178   2.774   7.176   0.841  0.5743 -0.1338  0.8821
  229MOL0     H30179   2.713   7.279   1.129 -0.9035 -0.6701  1.4025
  229MOL0     H30180   2.795   7.126   1.104 -0.7897  1.4329  2.6572
  229MOL0     H30181   2.640   7.021   0.859  1.9928  3.4889 -0.4135
  229MOL0     H30182   2.397   6.918   0.768  1.2059 -1.1319  0.5822
  229MOL0     H30183   2.253   6.947   0.860 -0.6737 -2.1211  0.6831
  229MOL0     H30184   2.303   6.697   0.867 -1.8333  0.3205  2.5911
  229MOL0     H30185   2.290   6.765   1.014  1.1038  0.1680  0.3984
  229MOL0     H30186   2.581   6.732   0.917  0.9485  2.3045 -0.1344
  229MOL0     H30187   2.522   6.756   1.082  1.3908  0.1371 -0.7195
  229MOL0     H30188   2.459   6.497   0.938  3.6385 -2.1947 -0.9988
  229MOL0     H30189   2.427   6.542   1.102  2.2683 -1.9793  1.7410
  229MOL0     H30190   2.862   6.605   1.042 -1.0408 -2.3506  2.3974
  229MOL0     H30191   3.046   6.524   0.875 -0.4820 -1.2075  1.3044
  229MOL0     H30192   3.165   6.591   0.429 -0.5516 -1.3979 -4.1321
  229MOL0     H30193   3.332   6.576   0.279 -0.2144  1.9811  1.2428
  229MOL0     H30194   3.598   6.530   0.218  0.9767 -0.6250  1.7673
  229MOL0     H30195   3.457   6.449   0.132  0.3322  1.0166  0.5470
  229MOL0     H30196   3.666   6.435  -0.004 -0.0143 -3.1544 -1.8994
  229MOL0     H30197   3.595   6.280   0.046  0.7657 -1.2936  1.3040
  229MOL0     H30198   3.765   6.260   0.224  1.8154  0.2961  0.6815
  229MOL0     H30199   3.819   6.427   0.212 -1.0984  0.5574 -0.1991
  229MOL0     H30200   3.968   6.240   0.118  2.7130  1.2483  0.0778
  229MOL0     H30201   3.852   6.237  -0.012  0.5906 -2.7090  2.6253
  229MOL0     H30202   3.987   6.493   0.083  3.3406  0.2601 -1.2032
  229MOL0     H30203   3.891   6.470  -0.070 -2.0477  0.1961  1.7969
  229MOL0     H30204   4.070   6.288  -0.134  0.5271  0.3195  0.1393
  229MOL0     H30205   4.158   6.321   0.015 -1.1929 -0.5516  0.8740
  229MOL0     H30206   4.237   6.449  -0.203 -0.5629  1.8087 -0.9144
  229MOL0     H30207   4.105   6.562  -0.152 -2.3500 -0.5822  1.7033
  229MOL0     H30208   4.212   6.528   0.084  0.7716  0.1823 -0.1124
  229MOL0     H30209   4.290   6.642  -0.031  0.6860 -0.4955 -1.8494
  229MOL0     H30210   3.484   6.230   0.494 -1.8330 -2.9307 -4.4709
  229MOL0     H30211   3.301   6.251   0.665  2.2808 -0.6107 -0.2649
  229MOL0     H30212   2.755   6.314   0.655  2.4467 -1.2897  1.1138
  229MOL0     H30213   2.578   6.362   0.838  0.8052 -2.0703  2.2633
  229MOL0     H30214   3.756   7.671   1.049 -2.7955  0.2803  1.3450
  229MOL0     H30215   3.971   7.610   1.153 -1.4780  1.9313 -2.4799
  229MOL0     H30216   4.164   7.342   1.490  0.0025 -0.0147 -1.4557
  229MOL0     H30217   4.351   7.303   1.622 -1.1175  2.6910 -0.5374
  229MOL0     H30218   4.791   7.221   1.546 -0.0802 -1.3516  0.5061
  229MOL0     H30219   4.746   7.256   1.382  0.5151  1.0149 -0.0857
  229MOL0     H30220   4.621   7.038   1.386 -0.3390 -2.1129  1.4152
  229MOL0     H30221   4.792   7.011   1.424 -0.4204 -1.7500 -1.4457
  229MOL0     H30222   4.555   7.030   1.615 -0.5846 -2.0364 -0.9126
  229MOL0     H30223   4.727   7.045   1.668  1.4564  2.4917 -1.9070
  229MOL0     H30224   4.793   6.826   1.575 -0.1411 -0.4690 -0.6655
  229MOL0     H30225   4.679   6.823   1.721 -0.8555  1.6501  0.9082
  229MOL0     H30226   4.427   6.658   1.428  0.0296  1.9264 -1.7526
  229MOL0     H30227   4.609   7.364   1.269 -0.0912 -0.8422 -0.5113
  229MOL0     H30228   4.399   7.411   1.146 -5.2326  1.9178  0.2420
  230MOL0     O30229   3.353   5.985   6.307 -0.4726 -0.1969  0.2252
  230MOL0     C30230   3.363   6.110   6.322 -0.2555  0.4134 -0.4922
  230MOL0     O30231   3.262   6.193   6.368  1.0191  0.5674  0.2122
  230MOL0     C30232   3.145   6.133   6.404 -0.2060  0.8659  0.6097
  230MOL0     C30233   3.127   6.048   6.516  0.6180 -0.6703  0.4531
  230MOL0     C30234   3.003   5.979   6.529 -0.5073 -0.0842  0.6492
  230MOL0     C30235   2.902   5.997   6.438 -0.5160 -0.3454 -0.4788
  230MOL0     O30236   2.785   5.927   6.441 -0.4325 -0.0715 -0.3624
  230MOL0     C30237   2.771   5.806   6.513  0.5215  0.2930  0.3123
  230MOL0     C30238   2.693   5.828   6.648 -0.7763 -0.3903  0.6062
  230MOL0     C30239   2.554   5.883   6.626 -0.2848 -0.1390  0.4411
  230MOL0     C30240   2.457   5.764   6.622 -0.2324  0.6948 -0.4638
  230MOL0     C30241   2.313   5.807   6.586 -0.0396 -0.6562  0.2062
  230MOL0     C30242   2.207   5.707   6.621 -0.4503  0.0228 -0.1931
  230MOL0     C30243   2.068   5.772   6.638  0.5638 -0.6292  0.8297
  230MOL0     C30244   1.982   5.676   6.721  0.2065 -0.0091  0.7612
  230MOL0     N30245   1.838   5.712   6.707 -0.1483  0.2209  0.4011
  230MOL0     C30246   1.755   5.754   6.807  0.7323  0.0731  0.3331
  230MOL0     C30247   1.638   5.798   6.756 -0.3256 -0.0412 -0.0475
  230MOL0     C30248   1.520   5.856   6.830 -0.8949 -1.6414 -0.2588
  230MOL0     C30249   1.395   5.766   6.836  0.2319  0.1686  0.1245
  230MOL0     C30250   1.424   5.631   6.883  0.6231  0.3259 -0.1776
  230MOL0     C30251   1.298   5.554   6.925  0.1673  0.3524 -0.6797
  230MOL0     O30252   1.243   5.602   7.048  0.2446  0.0399 -0.4684
  230MOL0     C30253   1.115   5.572   7.069  0.3906  0.2622  0.0008
  230MOL0     C30254   1.061   5.439   7.053  0.9628 -0.1969  0.4386
  230MOL0     C30255   0.926   5.412   7.062  0.3317 -0.6892  0.1320
  230MOL0     C30256   0.846   5.517   7.124 -0.6926 -0.1253 -0.0738
  230MOL0     C30257   0.712   5.480   7.166  0.1395 -0.1717  0.1408
  230MOL0     O30258   0.694   5.363   7.225  0.3305  0.3842 -0.7324
  230MOL0     C30259   0.571   5.334   7.285  0.2049  0.1924 -0.1688
  230MOL0     C30260   0.462   5.308   7.202  0.1152 -0.6213 -0.0125
  230MOL0     C30261   0.344   5.270   7.262 -0.0301  0.0489  0.7561
  230MOL0     C30262   0.337   5.230   7.397  0.2506 -0.3687 -0.9095
  230MOL0     O30263   0.206   5.192   7.429 -0.3813 -0.5653  0.1931
  230MOL0     C30264   0.163   5.202   7.562  0.1567 -0.7099  0.3093
  230MOL0     C30265   0.017   5.189   7.581  0.8059  0.8697 -0.7071
  230MOL0     C30266  -0.043   5.060   7.540  0.7520  0.3839  0.5890
  230MOL0     C30267  -0.193   5.083   7.492 -0.0461 -0.0668 -0.9036
  230MOL0     C30268  -0.288   5.123   7.610 -1.0677 -0.9465  0.1141
  230MOL0     C30269  -0.433   5.157   7.563  1.0906 -0.0574 -0.4641
  230MOL0     C30270  -0.507   5.032   7.500 -0.4166  0.1670  0.9927
  230MOL0     C30271  -0.650   5.070   7.466  0.3936  0.1587  0.1141
  230MOL0    Cl30272  -0.741   4.918   7.456 -0.4695  0.3259  0.2532
  230MOL0     C30273   0.446   5.260   7.475  0.0938 -0.6447  0.5636
  230MOL0     C30274   0.565   5.317   7.422  0.8569 -1.3678 -0.0538
  230MOL0     O30275   0.621   5.560   7.146 -0.2741  0.7137 -0.2902
  230MOL0     C30276   0.895   5.647   7.144 -0.3584  0.3137 -0.2035
  230MOL0     C30277   1.033   5.676   7.118 -0.1272  0.4816  0.6240
  230MOL0     N30278   1.648   5.772   6.618  0.5516  0.2360 -0.5502
  230MOL0     N30279   1.769   5.724   6.591  0.3117  0.1560  0.2847
  230MOL0     C30280   2.905   6.096   6.337 -0.2679  0.0101  0.6663
  230MOL0     C30281   3.029   6.165   6.324 -0.9683  0.7994 -0.0575
  230MOL0     C30282   3.476   6.171   6.256 -0.0023  0.6374 -0.3128
  230MOL0     C30283   3.462   6.296   6.215  0.3045  0.6571 -0.4762
  230MOL0     C30284   3.561   6.353   6.133  0.1633 -0.0292 -0.1564
  230MOL0     C30285   3.677   6.286   6.099 -0.6178 -0.2416  0.1838
  230MOL0     O30286   3.769   6.341   6.009 -0.2270  0.0029 -0.2867
  230MOL0     C30287   3.906   6.284   6.017 -0.0490 -0.2340  0.0721
  230MOL0     C30288   3.997   6.376   5.937 -0.4590 -0.1015 -0.2229
  230MOL0     C30289   4.147   6.335   5.948  0.7123  0.7950 -0.0920
  230MOL0     C30290   4.245   6.425   5.879  0.5304 -0.0552  0.4284
  230MOL0     C30291   4.386   6.383   5.904  0.2834  1.4199 -0.8478
  230MOL0     C30292   4.504   6.370   5.892 -0.3660 -0.0527 -0.8449
  230MOL0     C30293   3.697   6.161   6.155  0.1475  0.4127 -0.4887
  230MOL0     C30294   3.597   6.109   6.238  0.0862  0.2503  1.2505
  230MOL0     H30295   3.215   6.009   6.567  0.3859 -2.5496 -0.4911
  230MOL0     H30296   3.005   5.903   6.607  0.2588  0.2761  0.9896
  230MOL0     H30297   2.864   5.753   6.536 -0.2206 -1.1255  0.1290
  230MOL0     H30298   2.717   5.737   6.447 -1.2043  2.2450 -0.4442
  230MOL0     H30299   2.757   5.898   6.703  0.9260  1.1484 -3.0037
  230MOL0     H30300   2.684   5.730   6.695  0.2558 -0.4560  0.6849
  230MOL0     H30301   2.539   5.955   6.545  0.0061  2.1187  2.2813
  230MOL0     H30302   2.538   5.946   6.715 -0.8689  0.6116 -0.1777
  230MOL0     H30303   2.485   5.686   6.550 -2.2220 -0.2893 -0.2610
  230MOL0     H30304   2.468   5.726   6.724  1.7361  0.4177 -0.7449
  230MOL0     H30305   2.293   5.832   6.482 -3.3794 -1.7660  0.4564
  230MOL0     H30306   2.292   5.901   6.638  2.6514  0.7739 -1.0739
  230MOL0     H30307   2.225   5.675   6.724  0.8436 -2.1149 -1.0283
  230MOL0     H30308   2.217   5.611   6.570  1.4713 -0.8501  1.6773
  230MOL0     H30309   2.060   5.869   6.689 -2.9164 -1.0826  1.3640
  230MOL0     H30310   2.030   5.789   6.537  0.4395  0.4111  1.0437
  230MOL0     H30311   2.015   5.684   6.825  1.7241  0.3823  0.2767
  230MOL0     H30312   1.996   5.572   6.688 -1.6973 -0.1040  0.1628
  230MOL0     H30313   1.783   5.780   6.909  0.7433  2.6935 -0.2674
  230MOL0     H30314   1.498   5.954   6.788  0.6566 -0.3575  1.7692
  230MOL0     H30315   1.551   5.870   6.934  0.4815  0.0345 -0.8473
  230MOL0     H30316   1.339   5.766   6.742  1.1094 -0.4076 -0.4138
  230MOL0     H30317   1.332   5.808   6.915 -1.4962 -3.4989  0.8897
  230MOL0     H30318   1.471   5.578   6.800 -2.1963 -1.9446 -0.4532
  230MOL0     H30319   1.495   5.634   6.966 -0.4373  2.7167  0.7250
  230MOL0     H30320   1.320   5.447   6.932  0.3543  0.4522  0.2855
  230MOL0     H30321   1.216   5.569   6.854 -1.6600  0.3889  1.3331
  230MOL0     H30322   1.126   5.354   7.036 -0.1927 -0.5610 -3.1253
  230MOL0     H30323   0.882   5.315   7.043  1.5007 -1.6062  1.8147
  230MOL0     H30324   0.454   5.327   7.096  2.8255 -2.4110 -0.6427
  230MOL0     H30325   0.256   5.253   7.201 -1.8474 -0.8850  3.4745
  230MOL0     H30326   0.188   5.302   7.596  1.2938 -0.5624 -0.8619
  230MOL0     H30327   0.217   5.127   7.620 -0.5155 -2.1262 -0.7871
  230MOL0     H30328  -0.041   5.271   7.536 -2.9259 -0.8074  0.6941
  230MOL0     H30329   0.001   5.211   7.687  0.9480 -1.0276 -0.2575
  230MOL0     H30330  -0.043   4.992   7.626 -0.2780  0.6251  0.7843
  230MOL0     H30331   0.011   5.020   7.454 -0.0968  1.0433 -0.2633
  230MOL0     H30332  -0.180   5.165   7.422  1.5723  0.3475 -0.1657
  230MOL0     H30333  -0.227   4.990   7.444  1.9493 -2.2258  1.5357
  230MOL0     H30334  -0.256   5.216   7.658 -2.5715 -0.7897  0.8791
  230MOL0     H30335  -0.297   5.047   7.689 -1.8844 -2.6042 -1.5120
  230MOL0     H30336  -0.432   5.231   7.482  2.7686 -0.8857 -1.2541
  230MOL0     H30337  -0.479   5.189   7.657 -1.3747 -0.7815 -1.3441
  230MOL0     H30338  -0.456   4.995   7.411 -2.5234 -2.6537  0.8382
  230MOL0     H30339  -0.510   4.950   7.572 -2.7312 -1.2242 -0.5418
  230MOL0     H30340  -0.646   5.126   7.372 -2.4635 -0.6215 -0.5843
  230MOL0     H30341  -0.705   5.124   7.544 -0.7169  3.2362 -2.5639
  230MOL0     H30342   0.436   5.243   7.581 -1.3374  0.5340  0.6531
  230MOL0     H30343   0.657   5.333   7.477  1.1271 -1.1237 -0.5802
  230MOL0     H30344   0.826   5.728   7.165  2.1463  2.7841 -0.9028
  230MOL0     H30345   1.070   5.776   7.135  0.1117  0.8377 -1.5937
  230MOL0     H30346   2.819   6.116   6.274 -0.5208 -2.4422  0.1294
  230MOL0     H30347   3.045   6.249   6.258 -0.0181  1.2823  0.7530
  230MOL0     H30348   3.375   6.356   6.238  0.1941 -0.6686  3.3003
  230MOL0     H30349   3.550   6.460   6.118  0.1286 -0.2767 -2.0185
  230MOL0     H30350   3.912   6.182   5.979  3.4902  0.0753 -0.4903
  230MOL0     H30351   3.942   6.278   6.121 -2.4962  0.0739  1.0096
  230MOL0     H30352   3.963   6.375   5.833 -0.8842  1.1855 -0.1085
  230MOL0     H30353   3.979   6.478   5.973 -2.0759 -0.4789  0.0978
  230MOL0     H30354   4.152   6.233   5.907  1.5133  0.9275 -0.3415
  230MOL0     H30355   4.165   6.334   6.056 -1.3781  0.3240  0.2902
  230MOL0     H30356   4.221   6.425   5.772  1.3353  0.8008  0.2428
  230MOL0     H30357   4.237   6.532   5.897  1.2908 -0.1819  1.6233
  230MOL0     H30358   4.608   6.343   5.898 -1.1144 -3.0888  0.0519
  230MOL0     H30359   3.783   6.098   6.134  0.7780  1.5379 -1.3739
  230MOL0     H30360   3.604   6.004   6.265 -3.0735 -0.6456 -0.8246
  231MOL0     O30361   5.350   4.288   2.916 -0.1449  0.7232  0.5232
  231MOL0     C30362   5.467   4.273   2.888  0.4708  0.5988  0.2429
  231MOL0     O30363   5.520   4.172   2.811 -0.3988 -0.0153 -0.5161
  231MOL0     C30364   5.434   4.092   2.736  0.4174 -0.4730 -0.0937
  231MOL0     C30365   5.424   3.955   2.750 -0.4262 -0.4927  1.4798
  231MOL0     C30366   5.331   3.877   2.679 -1.2123  1.0232 -0.1909
  231MOL0     C30367   5.237   3.925   2.596  0.2407  0.0550 -0.4398
  231MOL0     O30368   5.167   3.828   2.526 -0.1821 -0.0952  0.1303
  231MOL0     C30369   5.042   3.870   2.472  0.4526  0.4464  0.6374
  231MOL0     C30370   4.973   3.749   2.404 -0.1307 -0.1448  0.7283
  231MOL0     C30371   4.869   3.800   2.305 -0.5209 -0.9511  0.1307
  231MOL0     C30372   4.741   3.844   2.383 -0.7694  0.9092 -0.6099
  231MOL0     C30373   4.618   3.876   2.294  0.3243 -0.4029  0.1299
  231MOL0     C30374   4.528   3.756   2.263 -0.5935 -0.9021  0.0161
  231MOL0     C30375   4.401   3.787   2.181 -0.3923  0.6997  0.4538
  231MOL0     C30376   4.293   3.853   2.268  0.4329 -0.0655 -0.0511
  231MOL0     N30377   4.167   3.849   2.189  0.6264  0.2624  0.9126
  231MOL0     C30378   4.055   3.780   2.204 -0.3505  0.6288  0.3079
  231MOL0     C30379   3.968   3.799   2.106  0.9130  0.1337 -0.2122
  231MOL0     C30380   3.837   3.743   2.092  0.3423  0.9630  0.5546
  231MOL0     C30381   3.722   3.825   2.158  0.2840 -0.3795 -1.2951
  231MOL0     C30382   3.596   3.744   2.163 -0.2843  0.1464  0.0457
  231MOL0     C30383   3.532   3.736   2.023  0.7159 -0.0489  0.0433
  231MOL0     O30384   3.419   3.643   2.046 -0.1510  0.0302 -0.1138
  231MOL0     C30385   3.328   3.638   1.946 -0.4630  0.3016  0.2264
  231MOL0     C30386   3.210   3.567   1.977  0.3854  0.6790  0.5222
  231MOL0     C30387   3.103   3.566   1.885  0.1267 -0.4883 -0.3842
  231MOL0     C30388   3.106   3.641   1.756  0.0258  0.3026 -0.7756
  231MOL0     C30389   3.001   3.629   1.660 -0.1052  0.2869 -0.3326
  231MOL0     O30390   3.007   3.716   1.559  0.2063  0.0984  0.5170
  231MOL0     C30391   2.906   3.708   1.462  0.0476 -0.6354 -0.4112
  231MOL0     C30392   2.892   3.610   1.368  0.1019  0.0607 -0.0531
  231MOL0     C30393   2.803   3.618   1.256  0.9816 -0.3806 -0.0701
  231MOL0     C30394   2.711   3.727   1.244 -0.0540  0.0314  0.3547
  231MOL0     O30395   2.612   3.720   1.147 -0.0301  0.0021  0.0482
  231MOL0     C30396   2.479   3.695   1.185 -0.0143  0.0308  0.3386
  231MOL0     C30397   2.487   3.553   1.259  0.5842  0.3958  0.3607
  231MOL0     C30398   2.343   3.500   1.295  0.3798  0.3911  0.0030
  231MOL0     C30399   2.359   3.384   1.394  0.3091 -0.0570 -0.1551
  231MOL0     C30400   2.226   3.327   1.443 -1.0439 -0.2345  0.9579
  231MOL0     C30401   2.155   3.255   1.322  0.2123 -0.3082 -1.0388
  231MOL0     C30402   2.006   3.229   1.354  0.3685 -0.0123 -0.1775
  231MOL0     C30403   1.941   3.113   1.281  0.5460 -0.3800  0.1506
  231MOL0    Cl30404   1.919   3.166   1.113 -0.3325 -0.2203 -0.1824
  231MOL0     C30405   2.726   3.823   1.342  0.5398  0.4728  0.5839
  231MOL0     C30406   2.814   3.812   1.444 -0.2103  0.0236  0.0342
  231MOL0     O30407   2.912   3.547   1.675 -0.2528  0.0971  0.0213
  231MOL0     C30408   3.228   3.705   1.738  0.0736 -0.3509  0.6966
  231MOL0     C30409   3.338   3.703   1.822  0.5116 -0.2455  0.0851
  231MOL0     N30410   4.026   3.903   2.032  0.0307 -0.2702 -0.5462
  231MOL0     N30411   4.143   3.933   2.084 -0.0877  0.1207 -0.2903
  231MOL0     C30412   5.232   4.065   2.593  0.3626 -0.2621 -0.2923
  231MOL0     C30413   5.320   4.148   2.666  0.1771 -0.1382 -0.2571
  231MOL0     C30414   5.567   4.357   2.952  0.4288  0.0988  0.6785
  231MOL0     C30415   5.695   4.380   2.893  1.0256 -0.2862 -0.4911
  231MOL0     C30416   5.784   4.471   2.946  1.1466  0.0807 -0.1130
  231MOL0     C30417   5.764   4.530   3.069  0.1943  0.7345 -0.4885
  231MOL0     O30418   5.863   4.616   3.111  0.0001 -0.0971 -0.4309
  231MOL0     C30419   5.861   4.673   3.249  0.4279  1.1485  0.1073
  231MOL0     C30420   5.991   4.736   3.294 -0.0542  0.6510  0.2339
  231MOL0     C30421   5.964   4.809   3.422  0.1238 -0.3404 -0.8488
  231MOL0     C30422   6.098   4.878   3.467 -0.5978 -0.4560  0.3326
  231MOL0     C30423   6.059   4.939   3.597  0.3280  0.3442  0.9365
  231MOL0     C30424   6.032   5.003   3.694 -0.2510  0.1751 -0.4171
  231MOL0     C30425   5.641   4.499   3.131  0.1082  0.6058  0.2607
  231MOL0     C30426   5.549   4.415   3.077  0.0573 -0.1045 -0.2950
  231MOL0     H30427   5.490   3.909   2.822 -0.2435 -0.0401  1.6103
  231MOL0     H30428   5.333   3.769   2.692  1.3581  1.1534  1.1811
  231MOL0     H30429   5.062   3.949   2.399  0.3726 -0.4604 -0.3798
  231MOL0     H30430   4.975   3.920   2.542  0.0451  2.8883 -1.3841
  231MOL0     H30431   4.933   3.674   2.473 -1.7492  2.4346  2.8017
  231MOL0     H30432   5.055   3.710   2.344  0.2852  1.9421 -0.1737
  231MOL0     H30433   4.854   3.720   2.232  1.2937  1.1806 -2.8100
  231MOL0     H30434   4.909   3.878   2.239  0.2870 -1.1901  0.3164
  231MOL0     H30435   4.712   3.756   2.440  2.3110 -0.4144 -0.8528
  231MOL0     H30436   4.758   3.925   2.455 -1.2596  2.4221 -2.1333
  231MOL0     H30437   4.652   3.929   2.205 -0.0806  0.4856  0.4762
  231MOL0     H30438   4.553   3.950   2.344 -0.5984 -0.5318 -0.8444
  231MOL0     H30439   4.508   3.710   2.360 -2.5931  0.0581  0.1052
  231MOL0     H30440   4.593   3.694   2.200  1.3494  0.4773  0.5541
  231MOL0     H30441   4.427   3.853   2.098  0.2351  0.5759  0.5453
  231MOL0     H30442   4.367   3.691   2.141  3.2286 -0.0746 -1.1409
  231MOL0     H30443   4.330   3.950   2.300  0.0925  0.4560 -1.1904
  231MOL0     H30444   4.287   3.795   2.360  0.3414 -0.0182 -0.0280
  231MOL0     H30445   4.024   3.712   2.283 -1.1306  1.0731  0.3989
  231MOL0     H30446   3.847   3.645   2.138  0.7338 -0.7384 -2.8712
  231MOL0     H30447   3.797   3.735   1.991 -1.4710  0.9084  1.2310
  231MOL0     H30448   3.713   3.915   2.096  1.8714  1.3402  0.8094
  231MOL0     H30449   3.756   3.858   2.256 -3.1501  0.8077 -0.3779
  231MOL0     H30450   3.619   3.639   2.187 -0.5302 -0.0961 -0.7609
  231MOL0     H30451   3.538   3.800   2.237  0.8697  1.2829  0.1134
  231MOL0     H30452   3.596   3.700   1.942 -0.3009 -0.2156 -0.7043
  231MOL0     H30453   3.509   3.838   1.989  0.3255  0.4515  1.7209
  231MOL0     H30454   3.194   3.514   2.070  1.2220  0.3737  0.5058
  231MOL0     H30455   3.006   3.526   1.912 -0.6337  2.4246  1.6857
  231MOL0     H30456   2.959   3.525   1.361  1.1406  0.9309 -1.3913
  231MOL0     H30457   2.792   3.536   1.186 -0.7432 -0.8301  0.6944
  231MOL0     H30458   2.412   3.695   1.098  1.2937  0.4333 -0.6936
  231MOL0     H30459   2.446   3.772   1.255 -3.8924  0.1997 -1.3764
  231MOL0     H30460   2.533   3.567   1.357 -0.3389 -1.7366  1.1562
  231MOL0     H30461   2.547   3.478   1.206 -0.3457 -0.4941  0.5416
  231MOL0     H30462   2.289   3.472   1.204 -0.5349  2.1083 -0.0383
  231MOL0     H30463   2.289   3.575   1.354 -0.4005 -0.5852  0.5500
  231MOL0     H30464   2.412   3.306   1.338 -2.0644 -1.8108 -0.1122
  231MOL0     H30465   2.419   3.414   1.480  1.2267 -0.8042 -0.5145
  231MOL0     H30466   2.159   3.399   1.489 -2.0533 -0.3640 -0.2500
  231MOL0     H30467   2.248   3.246   1.513  1.8323  1.6696  2.4609
  231MOL0     H30468   2.211   3.162   1.313  3.0049  1.0926  0.3523
  231MOL0     H30469   2.170   3.319   1.234  5.1936  1.4534  0.7307
  231MOL0     H30470   1.989   3.209   1.460 -0.0804  0.8448 -0.0788
  231MOL0     H30471   1.949   3.319   1.328 -1.1547 -0.4270  1.5561
  231MOL0     H30472   1.843   3.087   1.323  1.6165 -1.2585  2.2193
  231MOL0     H30473   2.010   3.028   1.282 -0.2528 -1.0623  2.6468
  231MOL0     H30474   2.665   3.913   1.345 -0.4031 -0.1728  2.1019
  231MOL0     H30475   2.818   3.897   1.512 -1.4842  1.4180 -1.5678
  231MOL0     H30476   3.235   3.751   1.640 -3.2689 -0.9881  0.0385
  231MOL0     H30477   3.427   3.760   1.796 -0.1717  1.1742  0.7158
  231MOL0     H30478   5.164   4.123   2.531 -2.8689  0.1599  3.2675
  231MOL0     H30479   5.320   4.256   2.657 -2.2661  0.0643  1.2897
  231MOL0     H30480   5.733   4.333   2.803 -3.4798 -1.6015 -1.9913
  231MOL0     H30481   5.874   4.488   2.888  2.4764 -2.4131  1.0760
  231MOL0     H30482   5.840   4.600   3.328  2.1531  1.6940  1.1245
  231MOL0     H30483   5.778   4.744   3.255 -1.2565 -0.2811 -3.4050
  231MOL0     H30484   6.069   4.661   3.310  1.7811  1.9331 -2.2131
  231MOL0     H30485   6.032   4.807   3.222  0.4839  0.7396  0.6245
  231MOL0     H30486   5.931   4.746   3.505 -2.9037  0.5385 -1.2366
  231MOL0     H30487   5.891   4.890   3.409  0.5142  0.5039  1.7787
  231MOL0     H30488   6.183   4.810   3.477  1.5406  2.0530  0.4904
  231MOL0     H30489   6.126   4.954   3.394 -4.3867 -0.5671 -1.4671
  231MOL0     H30490   5.997   5.055   3.781  1.1220  0.6322 -0.1183
  231MOL0     H30491   5.629   4.540   3.231  1.2824 -0.6302  0.9595
  231MOL0     H30492   5.458   4.402   3.136 -0.4227 -2.7713 -1.4691
  232MOL0     O30493   5.316   2.547  10.213 -0.2909  0.3766 -0.4963
  232MOL0     C30494   5.323   2.517  10.329 -0.6119  0.0786  0.6070
  232MOL0     O30495   5.439   2.485  10.393 -0.1349  0.5229  0.3055
  232MOL0     C30496   5.558   2.524  10.340  0.0637  0.9739 -0.3987
  232MOL0     C30497   5.621   2.623  10.411 -0.2701  0.0151 -0.0492
  232MOL0     C30498   5.743   2.667  10.366  0.6001 -0.3140  0.5892
  232MOL0     C30499   5.806   2.604  10.258  0.2214  0.3893  0.4168
  232MOL0     O30500   5.927   2.645  10.208  0.1896 -0.2680  0.1479
  232MOL0     C30501   6.043   2.624  10.291 -0.2294 -0.1073 -0.4446
  232MOL0     C30502   6.085   2.760  10.344  0.5813 -0.6017 -0.5333
  232MOL0     C30503   6.220   2.741  10.410 -0.3478  0.6032  0.2507
  232MOL0     C30504   6.293   2.870  10.449 -0.7211 -0.5680  0.2544
  232MOL0     C30505   6.406   2.847  10.554 -0.2652 -0.0201 -0.3151
  232MOL0     C30506   6.438   2.983  10.610  0.0287 -0.1437  0.0301
  232MOL0     C30507   6.543   2.984  10.714 -0.4545 -0.6780  0.9900
  232MOL0     C30508   6.683   2.941  10.671  1.0938  0.0885 -0.4013
  232MOL0     N30509   6.773   2.965  10.782 -0.7614  0.0089 -0.3956
  232MOL0     C30510   6.822   3.080  10.826 -0.4055  0.0709 -0.1152
  232MOL0     C30511   6.894   3.049  10.940 -0.1985 -0.4012  0.1099
  232MOL0     C30512   6.975   3.136  11.031 -0.7107  0.0526  0.8862
  232MOL0     C30513   6.913   3.151  11.172  0.1091 -0.0625 -0.6429
  232MOL0     C30514   6.769   3.229  11.169  0.2054 -0.3155 -0.1503
  232MOL0     C30515   6.780   3.374  11.126 -0.2189  0.1560  0.7132
  232MOL0     O30516   6.648   3.437  11.152 -0.4068  0.2322  0.6331
  232MOL0     C30517   6.567   3.438  11.043  0.0078 -0.4837  0.4378
  232MOL0     C30518   6.468   3.345  11.018 -0.4571  1.4208 -0.4790
  232MOL0     C30519   6.379   3.359  10.910 -0.3394  0.1407 -0.4448
  232MOL0     C30520   6.398   3.470  10.820  0.6512 -0.0312  0.5294
  232MOL0     C30521   6.323   3.478  10.697  0.8000  0.2036 -0.6793
  232MOL0     O30522   6.300   3.350  10.637  0.0449 -0.3040  0.8793
  232MOL0     C30523   6.251   3.337  10.512  0.2191  0.1561  0.3254
  232MOL0     C30524   6.195   3.214  10.474  0.4255  0.0727  0.7460
  232MOL0     C30525   6.143   3.178  10.348 -0.0852 -0.3779 -0.1018
  232MOL0     C30526   6.165   3.270  10.243 -0.2686 -0.3030 -0.1186
  232MOL0     O30527   6.135   3.247  10.113 -0.7172 -0.6336  0.0251
  232MOL0     C30528   6.183   3.133  10.050 -0.7554  0.5333  0.6672
  232MOL0     C30529   6.067   3.036  10.028 -0.0473  0.2603  0.6922
  232MOL0     C30530   6.132   2.907   9.966 -0.5422  0.0962  0.1903
  232MOL0     C30531   6.026   2.820   9.899 -0.6724 -0.2249 -0.0729
  232MOL0     C30532   6.079   2.686   9.894 -0.8066  0.3606 -0.6905
  232MOL0     C30533   6.000   2.609   9.789 -0.7913  0.3947  0.9069
  232MOL0     C30534   6.005   2.656   9.650  0.4333  0.1009 -0.5036
  232MOL0     C30535   5.910   2.571   9.555 -0.3315 -0.8906 -0.0579
  232MOL0    Cl30536   5.956   2.397   9.570 -0.0716  0.1121 -0.4659
  232MOL0     C30537   6.236   3.387  10.266 -0.4042  0.0826 -0.4134
  232MOL0     C30538   6.271   3.425  10.398  0.6437 -0.0664 -0.3700
  232MOL0     O30539   6.269   3.582  10.664  0.1934 -0.1130  0.2398
  232MOL0     C30540   6.481   3.568  10.851  0.0825  0.1509 -0.2688
  232MOL0     C30541   6.572   3.549  10.955  0.2850 -0.0100 -0.1633
  232MOL0     N30542   6.888   2.915  10.958 -0.1229  0.0292 -0.0363
  232MOL0     N30543   6.816   2.860  10.863  0.0276 -0.2409 -0.2122
  232MOL0     C30544   5.739   2.502  10.190  0.9586  0.0938  0.0057
  232MOL0     C30545   5.614   2.454  10.232 -0.2338  0.2332 -0.8568
  232MOL0     C30546   5.194   2.533  10.405 -0.1706  0.0144  0.3529
  232MOL0     C30547   5.176   2.499  10.541  0.2585 -0.7180  0.0048
  232MOL0     C30548   5.050   2.499  10.607  0.6037 -0.4193 -0.2688
  232MOL0     C30549   4.938   2.539  10.536  0.2830 -0.6799  0.0296
  232MOL0     O30550   4.807   2.534  10.581  0.2004  0.4546 -0.7482
  232MOL0     C30551   4.787   2.521  10.723 -0.1107 -0.6930 -1.2856
  232MOL0     C30552   4.646   2.534  10.771 -0.9440 -0.4905  0.4800
  232MOL0     C30553   4.563   2.625  10.686  0.1006  0.3431 -0.5063
  232MOL0     C30554   4.425   2.665  10.736  0.4177  0.5309  0.0650
  232MOL0     C30555   4.434   2.774  10.827 -0.0585  0.7579  0.0829
  232MOL0     C30556   4.462   2.862  10.897  0.2906  0.6023 -0.3350
  232MOL0     C30557   4.953   2.585  10.405  0.0964  1.0790  0.4367
  232MOL0     C30558   5.079   2.581  10.345  0.3114  0.4030  0.5808
  232MOL0     H30559   5.587   2.669  10.504 -3.8047  0.0023 -1.1755
  232MOL0     H30560   5.793   2.755  10.405  2.1745 -1.3619  1.0099
  232MOL0     H30561   6.117   2.575  10.227 -1.3944 -2.5674 -0.0475
  232MOL0     H30562   6.028   2.559  10.378 -1.7926  3.0532  1.8279
  232MOL0     H30563   6.014   2.794  10.420  0.2855 -0.0469 -1.0459
  232MOL0     H30564   6.094   2.836  10.266 -0.2879 -0.2099 -0.2654
  232MOL0     H30565   6.286   2.688  10.341  1.5815  3.1003  0.0533
  232MOL0     H30566   6.204   2.688  10.504  0.2401  3.9905  2.4170
  232MOL0     H30567   6.329   2.911  10.354 -0.3347 -2.5749 -0.4988
  232MOL0     H30568   6.218   2.939  10.489 -1.6824 -1.1091 -0.6069
  232MOL0     H30569   6.489   2.802  10.499  0.5510  0.3331  0.6094
  232MOL0     H30570   6.376   2.780  10.635  0.2035 -0.6490 -0.6546
  232MOL0     H30571   6.352   3.027  10.661  0.7372  0.8828  0.3878
  232MOL0     H30572   6.476   3.051  10.533  0.3702  0.9095  1.0916
  232MOL0     H30573   6.551   3.088  10.749 -0.4674 -0.1925 -0.3918
  232MOL0     H30574   6.507   2.930  10.802 -1.9922 -2.3049 -0.5676
  232MOL0     H30575   6.721   2.994  10.583 -1.6077 -0.6597 -2.1635
  232MOL0     H30576   6.679   2.836  10.638 -0.2405  0.5348 -1.8232
  232MOL0     H30577   6.818   3.183  10.793 -1.2822  0.6142  1.5580
  232MOL0     H30578   6.997   3.229  10.978  2.0413 -1.1816 -0.3667
  232MOL0     H30579   7.075   3.092  11.043  0.0870  0.7879 -2.1250
  232MOL0     H30580   6.991   3.188  11.239  1.0314 -2.5069 -0.2904
  232MOL0     H30581   6.890   3.049  11.203 -2.2216  0.0304 -1.8396
  232MOL0     H30582   6.711   3.182  11.089 -1.6457 -0.0795  0.9935
  232MOL0     H30583   6.724   3.222  11.269  3.1996  0.3973  1.3788
  232MOL0     H30584   6.817   3.381  11.024 -1.3720  0.7862  0.3181
  232MOL0     H30585   6.859   3.422  11.186  1.4496 -1.6479  0.0527
  232MOL0     H30586   6.459   3.267  11.093  1.9616 -0.2787 -1.8460
  232MOL0     H30587   6.314   3.275  10.886  1.2012 -0.3462 -3.3332
  232MOL0     H30588   6.190   3.148  10.560  1.4702 -2.9501 -1.3247
  232MOL0     H30589   6.076   3.094  10.331 -0.4560 -0.3007  0.9113
  232MOL0     H30590   6.265   3.086  10.106  2.2428  0.5259 -3.2358
  232MOL0     H30591   6.231   3.165   9.957 -1.4101  1.3470  0.6052
  232MOL0     H30592   6.008   3.077   9.946 -0.6269 -1.1550  0.3661
  232MOL0     H30593   6.001   3.006  10.110 -2.6734 -0.7347 -1.6021
  232MOL0     H30594   6.188   2.847  10.039 -1.5698 -2.6326 -1.1448
  232MOL0     H30595   6.208   2.930   9.891  1.0421  1.0171  1.9697
  232MOL0     H30596   5.934   2.814   9.958  0.0072  1.6216  1.2765
  232MOL0     H30597   5.998   2.869   9.806 -0.9181 -0.1911  0.0177
  232MOL0     H30598   6.069   2.625   9.985 -1.5715 -0.6305 -1.4029
  232MOL0     H30599   6.184   2.682   9.865 -0.5760 -0.2555  0.1940
  232MOL0     H30600   5.898   2.618   9.830 -0.5984  1.3514  1.2157
  232MOL0     H30601   6.036   2.506   9.785 -0.3890  0.5564  0.4071
  232MOL0     H30602   5.969   2.759   9.645  0.7542  0.2130 -0.5344
  232MOL0     H30603   6.110   2.648   9.619  0.8651  0.4596  0.8186
  232MOL0     H30604   5.930   2.606   9.454 -1.1701  1.0844  0.4013
  232MOL0     H30605   5.804   2.583   9.578 -0.0564 -0.7735  1.2367
  232MOL0     H30606   6.271   3.453  10.187  2.1417 -1.0309 -0.3090
  232MOL0     H30607   6.324   3.518  10.419 -0.0718  0.2050  0.2996
  232MOL0     H30608   6.496   3.650  10.782  5.1055  0.6479  1.0550
  232MOL0     H30609   6.651   3.621  10.970  1.9227 -1.7133 -0.2012
  232MOL0     H30610   5.771   2.456  10.097  0.9413  0.4661 -0.1852
  232MOL0     H30611   5.566   2.367  10.189  0.5064  0.3974 -2.0636
  232MOL0     H30612   5.267   2.482  10.598  1.2104 -0.0034 -1.2762
  232MOL0     H30613   5.040   2.465  10.710  4.0901  0.9776  0.7076
  232MOL0     H30614   4.850   2.597  10.769 -0.4161 -0.4979 -1.1876
  232MOL0     H30615   4.827   2.423  10.751  0.5484  0.3027  1.5780
  232MOL0     H30616   4.605   2.433  10.760 -0.1191 -0.6943 -0.9249
  232MOL0     H30617   4.657   2.573  10.873 -0.9327 -1.6513  0.9448
  232MOL0     H30618   4.551   2.580  10.588 -0.3841  0.3590 -0.4555
  232MOL0     H30619   4.621   2.717  10.676  1.2446  0.0340  2.2460
  232MOL0     H30620   4.366   2.687  10.646 -0.1816 -0.9947  0.0515
  232MOL0     H30621   4.384   2.572  10.775  1.5492 -1.0477 -2.2869
  232MOL0     H30622   4.495   2.948  10.952 -0.3812  1.5646 -1.3849
  232MOL0     H30623   4.855   2.597  10.361 -0.8892 -4.5832  0.2673
  232MOL0     H30624   5.091   2.609  10.241 -1.1736 -1.5114 -0.1641
  233MOL0     O30625   2.980   0.524   2.109  0.3091  0.0024 -0.1978
  233MOL0     C30626   3.049   0.537   2.208 -0.0989 -0.4245 -0.1043
  233MOL0     O30627   3.031   0.461   2.316  0.7269 -0.1269  0.8445
  233MOL0     C30628   2.919   0.386   2.340 -0.1892  0.4374  0.4994
  233MOL0     C30629   2.912   0.306   2.458  1.4494 -0.6239 -0.3264
  233MOL0     C30630   2.796   0.224   2.488 -0.6740  0.0540  0.1229
  233MOL0     C30631   2.688   0.230   2.402 -0.1656  0.8330  0.2070
  233MOL0     O30632   2.583   0.146   2.418  0.3337  0.0512 -1.2500
  233MOL0     C30633   2.614   0.012   2.466 -1.0273  0.1918  0.2579
  233MOL0     C30634   2.504  -0.091   2.427 -0.4598 -0.9215  0.3256
  233MOL0     C30635   2.383  -0.088   2.521  0.5881  1.4555 -0.6400
  233MOL0     C30636   2.263  -0.166   2.465  0.6854 -0.2667 -0.1930
  233MOL0     C30637   2.144  -0.179   2.562 -0.3455  1.4200 -0.1383
  233MOL0     C30638   2.025  -0.254   2.494 -0.2364 -0.3755 -0.1132
  233MOL0     C30639   2.011  -0.393   2.539 -0.1748  0.9812 -0.1633
  233MOL0     C30640   1.914  -0.466   2.453  0.5383 -0.0183  0.1361
  233MOL0     N30641   1.789  -0.397   2.421 -0.0649 -0.8298  0.8313
  233MOL0     C30642   1.746  -0.343   2.297 -0.3070  0.7145 -0.4650
  233MOL0     C30643   1.614  -0.319   2.307 -0.1415  0.9344  0.5620
  233MOL0     C30644   1.531  -0.262   2.192 -0.1832 -0.0884 -0.5262
  233MOL0     C30645   1.424  -0.173   2.257 -0.0639  0.2276  0.1654
  233MOL0     C30646   1.336  -0.098   2.151 -1.6473  0.3410 -0.7054
  233MOL0     C30647   1.231  -0.190   2.102  0.7607 -0.0146 -0.2125
  233MOL0     O30648   1.146  -0.112   2.011 -0.0634  0.4284  0.2452
  233MOL0     C30649   1.027  -0.170   1.971  0.1031  0.2329  0.2553
  233MOL0     C30650   0.939  -0.086   1.904 -0.3326 -0.3237  0.1825
  233MOL0     C30651   0.812  -0.125   1.860 -0.8024  0.6341  0.4322
  233MOL0     C30652   0.767  -0.259   1.876 -0.2185 -0.5014  0.2696
  233MOL0     C30653   0.646  -0.313   1.808  0.3168  0.3881  0.2726
  233MOL0     O30654   0.593  -0.230   1.714 -0.2419  0.3541  0.0356
  233MOL0     C30655   0.490  -0.258   1.628 -0.4880 -0.1477 -0.5107
  233MOL0     C30656   0.381  -0.339   1.659 -0.8214 -0.0605  0.5114
  233MOL0     C30657   0.281  -0.356   1.568 -0.0683  0.2632 -0.2115
  233MOL0     C30658   0.282  -0.288   1.444 -0.1605 -1.2078  0.6091
  233MOL0     O30659   0.195  -0.290   1.340 -0.2445 -0.1333  0.4244
  233MOL0     C30660   0.111  -0.409   1.339 -0.2837  0.6870  0.7308
  233MOL0     C30661   0.018  -0.411   1.224  0.3311  0.1675  0.5416
  233MOL0     C30662  -0.099  -0.314   1.229 -0.8605 -0.7405  0.6158
  233MOL0     C30663  -0.213  -0.334   1.132 -0.6747  0.3318  0.1150
  233MOL0     C30664  -0.251  -0.205   1.061 -0.3186 -1.1655 -0.3003
  233MOL0     C30665  -0.365  -0.219   0.960 -1.3393 -0.3626  0.6628
  233MOL0     C30666  -0.382  -0.099   0.868 -0.4788  0.1408  0.6175
  233MOL0     C30667  -0.526  -0.065   0.854 -0.1575  0.6259 -1.2797
  233MOL0    Cl30668  -0.554   0.087   0.937  0.0852  0.4240 -0.1281
  233MOL0     C30669   0.386  -0.197   1.422 -0.7953 -0.1942  0.0999
  233MOL0     C30670   0.492  -0.181   1.515 -0.0128 -0.1902  0.6965
  233MOL0     O30671   0.614  -0.429   1.815  0.3808  1.0157 -0.1074
  233MOL0     C30672   0.854  -0.343   1.947  0.3548  0.3484  0.1321
  233MOL0     C30673   0.973  -0.302   2.000 -0.5813  0.0816 -0.6594
  233MOL0     N30674   1.573  -0.345   2.437 -0.6237  0.0891 -0.3496
  233MOL0     N30675   1.685  -0.397   2.499  0.5696 -0.1630 -0.2765
  233MOL0     C30676   2.683   0.316   2.292 -0.6705  0.2695 -0.1765
  233MOL0     C30677   2.799   0.392   2.265 -0.5431 -0.4280  0.0029
  233MOL0     C30678   3.148   0.649   2.184  0.6604  0.2103  0.4884
  233MOL0     C30679   3.223   0.679   2.297  0.3321 -0.9804  0.3239
  233MOL0     C30680   3.312   0.783   2.291  0.2803  0.1034  0.4161
  233MOL0     C30681   3.332   0.851   2.181 -0.2532 -0.6041  0.7594
  233MOL0     O30682   3.427   0.950   2.196  0.1608 -0.2877 -0.4050
  233MOL0     C30683   3.454   1.049   2.098 -0.6859 -0.4004 -0.3602
  233MOL0     C30684   3.523   1.168   2.169 -0.0775 -0.3285  0.1039
  233MOL0     C30685   3.418   1.254   2.266  0.7602  0.0947 -0.3681
  233MOL0     C30686   3.337   1.367   2.207  0.3996  0.3255  0.3021
  233MOL0     C30687   3.266   1.429   2.312  0.2836 -0.5229 -0.1967
  233MOL0     C30688   3.214   1.492   2.402  0.3136 -0.0948 -0.0751
  233MOL0     C30689   3.261   0.825   2.065  0.4070  0.1842 -0.0922
  233MOL0     C30690   3.166   0.724   2.065 -0.3287 -0.2732 -0.2093
  233MOL0     H30691   2.999   0.312   2.523  2.2554  0.0212 -1.4379
  233MOL0     H30692   2.801   0.176   2.586  1.8260  1.4049  0.7674
  233MOL0     H30693   2.633  -0.001   2.573  1.9508  0.1790 -0.1813
  233MOL0     H30694   2.712  -0.017   2.425  0.3641  1.6680  2.3485
  233MOL0     H30695   2.549  -0.190   2.418 -1.0862 -1.1937  0.1664
  233MOL0     H30696   2.468  -0.073   2.325 -1.9938  0.3382  1.0431
  233MOL0     H30697   2.363   0.018   2.541  0.4167  1.9136 -2.9346
  233MOL0     H30698   2.401  -0.135   2.618 -0.1816 -0.1464 -1.2306
  233MOL0     H30699   2.236  -0.121   2.370 -0.6235  2.9271  1.5485
  233MOL0     H30700   2.285  -0.270   2.437 -4.4045 -1.3136 -1.3337
  233MOL0     H30701   2.125  -0.079   2.602 -1.6073  0.0098  3.1344
  233MOL0     H30702   2.172  -0.244   2.646  3.1333 -1.0544 -2.8915
  233MOL0     H30703   2.040  -0.258   2.385 -0.1750  1.5319 -0.1961
  233MOL0     H30704   1.932  -0.197   2.504 -0.9246 -1.8328  2.7422
  233MOL0     H30705   2.102  -0.451   2.554 -0.9312  0.1507  1.4956
  233MOL0     H30706   1.957  -0.397   2.635  1.4429 -2.3317  0.7386
  233MOL0     H30707   1.901  -0.568   2.492  1.6333 -0.4462 -0.5833
  233MOL0     H30708   1.963  -0.477   2.356 -0.4610 -0.0137 -0.3854
  233MOL0     H30709   1.808  -0.327   2.209  2.4046 -1.1168  0.9667
  233MOL0     H30710   1.483  -0.335   2.126 -1.1293  0.3720 -0.3602
  233MOL0     H30711   1.595  -0.198   2.130  1.0522  0.6985  1.4727
  233MOL0     H30712   1.465  -0.098   2.325 -1.2665 -0.3890  1.6070
  233MOL0     H30713   1.362  -0.236   2.320  2.2585 -2.4102 -0.0211
  233MOL0     H30714   1.292  -0.019   2.213  3.2240  3.1887 -0.3982
  233MOL0     H30715   1.392  -0.060   2.065  1.0837 -1.9677 -0.1015
  233MOL0     H30716   1.173  -0.241   2.180  2.1514  0.1527  0.9641
  233MOL0     H30717   1.277  -0.279   2.057 -1.0418 -0.7113 -0.8111
  233MOL0     H30718   0.968   0.018   1.899 -0.8908 -0.1330  0.7018
  233MOL0     H30719   0.749  -0.057   1.804  0.2281  1.1101 -0.1929
  233MOL0     H30720   0.368  -0.397   1.750 -1.1573 -3.0389 -1.2916
  233MOL0     H30721   0.203  -0.429   1.585  1.7356 -1.6828  0.0923
  233MOL0     H30722   0.047  -0.421   1.426 -3.3159 -0.7814 -1.5095
  233MOL0     H30723   0.179  -0.495   1.330  0.5682  1.5232 -1.6967
  233MOL0     H30724  -0.028  -0.509   1.214 -2.3198  1.4359 -0.6231
  233MOL0     H30725   0.070  -0.398   1.129 -0.0879 -2.1945 -0.0686
  233MOL0     H30726  -0.057  -0.213   1.236  1.4895 -1.6438  0.4882
  233MOL0     H30727  -0.149  -0.316   1.326 -0.0228  1.9242  1.1876
  233MOL0     H30728  -0.172  -0.404   1.057  4.2643  2.8730  0.0390
  233MOL0     H30729  -0.289  -0.387   1.190 -0.3919 -0.1357  0.0709
  233MOL0     H30730  -0.164  -0.159   1.013  1.0726 -1.5501  1.7321
  233MOL0     H30731  -0.283  -0.125   1.129  3.2027  2.9550 -2.9720
  233MOL0     H30732  -0.454  -0.258   1.012 -2.1110 -0.1944 -0.4946
  233MOL0     H30733  -0.334  -0.298   0.890 -1.0036 -0.3893  0.8410
  233MOL0     H30734  -0.325  -0.012   0.901 -2.2219  1.0736  1.2769
  233MOL0     H30735  -0.340  -0.124   0.770 -1.1040 -1.8404  0.8052
  233MOL0     H30736  -0.587  -0.151   0.884  1.3922 -0.5346 -1.2731
  233MOL0     H30737  -0.552  -0.049   0.749 -0.3766 -0.7167 -1.4480
  233MOL0     H30738   0.400  -0.130   1.337  1.9332  0.3597  0.8652
  233MOL0     H30739   0.569  -0.105   1.505  0.2549 -0.2558  2.0625
  233MOL0     H30740   0.812  -0.438   1.979 -2.4860  2.5533  3.6446
  233MOL0     H30741   1.031  -0.371   2.059 -1.8076 -1.2096 -0.9226
  233MOL0     H30742   2.582   0.312   2.251 -1.0243 -0.8632  0.7299
  233MOL0     H30743   2.783   0.464   2.186 -1.2303  0.5129  0.9653
  233MOL0     H30744   3.203   0.640   2.396 -0.9716 -0.4371  0.2906
  233MOL0     H30745   3.367   0.808   2.381  1.2505 -0.9838  0.1480
  233MOL0     H30746   3.372   1.081   2.034  0.0852  0.2358 -1.0592
  233MOL0     H30747   3.516   0.999   2.023 -2.0778 -3.7981  0.5640
  233MOL0     H30748   3.604   1.130   2.232  0.1338 -2.0416 -1.1056
  233MOL0     H30749   3.571   1.239   2.101  0.4271 -1.6518 -0.9708
  233MOL0     H30750   3.474   1.299   2.348 -1.1454 -0.5491  1.3815
  233MOL0     H30751   3.340   1.194   2.314  1.5838 -1.4539 -0.8800
  233MOL0     H30752   3.398   1.445   2.160 -0.2262  0.6264 -0.0220
  233MOL0     H30753   3.271   1.337   2.125  1.1661 -2.2822  0.5397
  233MOL0     H30754   3.181   1.552   2.484  1.6695 -0.4018  0.7206
  233MOL0     H30755   3.269   0.882   1.973  0.7490 -0.7923 -0.6914
  233MOL0     H30756   3.102   0.694   1.982 -1.2149  0.0547  0.3470
  234MOL0     O30757   9.277   9.749  10.433  0.3499 -0.2200 -0.3831
  234MOL0     C30758   9.271   9.859  10.486  0.9796 -0.3710  0.6077
  234MOL0     O30759   9.161   9.934  10.507  0.0072  0.5050 -0.3921
  234MOL0     C30760   9.035   9.874  10.489  0.5490  0.2675 -0.3875
  234MOL0     C30761   8.988   9.784  10.587  0.6752 -0.2217  0.1182
  234MOL0     C30762   8.885   9.696  10.555  0.3188 -0.6438  1.4659
  234MOL0     C30763   8.820   9.703  10.429 -0.1016 -0.0678  0.3967
  234MOL0     O30764   8.713   9.624  10.396 -0.9362  0.0434  0.6054
  234MOL0     C30765   8.632   9.569  10.503  0.3206  0.2129 -0.3218
  234MOL0     C30766   8.513   9.499  10.439  0.2163  0.4043  0.3210
  234MOL0     C30767   8.436   9.420  10.537 -0.3369  0.2893  0.0460
  234MOL0     C30768   8.349   9.315  10.461  0.9201  0.0427  0.3420
  234MOL0     C30769   8.259   9.223  10.545  1.0243 -0.3919  0.4390
  234MOL0     C30770   8.121   9.286  10.567  0.4312 -0.1255  0.3296
  234MOL0     C30771   8.024   9.190  10.646 -0.8019 -0.7016 -0.4752
  234MOL0     C30772   7.878   9.233  10.667 -0.9656 -1.2103 -0.2246
  234MOL0     N30773   7.802   9.219  10.540  0.0193 -0.2265  0.4333
  234MOL0     C30774   7.780   9.097  10.480 -1.0702  0.7278  0.7065
  234MOL0     C30775   7.680   9.126  10.392 -0.8087  0.5830  0.1473
  234MOL0     C30776   7.603   9.029  10.306  0.6386 -0.3887 -0.2081
  234MOL0     C30777   7.510   8.938  10.395  0.2362  0.2953  0.3793
  234MOL0     C30778   7.451   9.000  10.521  0.2686 -0.4217 -0.7020
  234MOL0     C30779   7.353   8.908  10.607  0.8386 -0.3254  0.5573
  234MOL0     O30780   7.234   8.879  10.532  0.0796  0.7236 -0.2873
  234MOL0     C30781   7.113   8.921  10.579  0.1938  0.2075 -0.1334
  234MOL0     C30782   7.039   8.840  10.664  0.7727 -0.2799 -0.1567
  234MOL0     C30783   6.913   8.858  10.720 -0.1423 -0.0122 -0.1938
  234MOL0     C30784   6.844   8.969  10.667 -0.6176 -0.5574 -0.1813
  234MOL0     C30785   6.708   8.992  10.712  0.3362  0.0486  0.4891
  234MOL0     O30786   6.655   9.115  10.672  0.0235 -0.0656  0.2626
  234MOL0     C30787   6.529   9.139  10.711  0.1829  0.4449  0.7494
  234MOL0     C30788   6.418   9.056  10.710 -0.0907  0.2071 -0.4175
  234MOL0     C30789   6.302   9.092  10.787 -0.1204 -0.6822  0.1747
  234MOL0     C30790   6.294   9.217  10.850 -0.1896  0.4203 -0.3840
  234MOL0     O30791   6.177   9.255  10.915  0.1471 -0.3570 -1.0721
  234MOL0     C30792   6.177   9.375  10.995  1.1324  1.0576 -0.2050
  234MOL0     C30793   6.069   9.379  11.105  0.1555 -0.4759 -0.3222
  234MOL0     C30794   5.984   9.254  11.127 -0.7410 -0.2729 -1.2704
  234MOL0     C30795   5.873   9.268  11.228 -0.2372  0.8599 -1.0765
  234MOL0     C30796   5.756   9.170  11.214 -1.2649  0.6852  0.2359
  234MOL0     C30797   5.653   9.218  11.310 -0.1130  0.3287 -0.4187
  234MOL0     C30798   5.546   9.111  11.349  0.2596 -0.8058  0.6614
  234MOL0     C30799   5.474   9.064  11.228  0.1492  0.1275 -0.2583
  234MOL0    Cl30800   5.362   9.192  11.166  0.5295 -0.3586  0.2285
  234MOL0     C30801   6.409   9.300  10.844 -0.0773  0.0490 -0.1321
  234MOL0     C30802   6.524   9.264  10.771 -0.2237  0.0646  0.3740
  234MOL0     O30803   6.639   8.902  10.766 -0.4863  0.1655 -0.0119
  234MOL0     C30804   6.903   9.051  10.570 -0.3572 -0.9742 -0.6359
  234MOL0     C30805   7.042   9.031  10.531 -0.3839 -0.1059 -0.2058
  234MOL0     N30806   7.655   9.260  10.398  0.1315 -0.7204 -0.0220
  234MOL0     N30807   7.726   9.316  10.487 -0.0659  0.0772 -0.3545
  234MOL0     C30808   8.868   9.799  10.339 -0.1533  0.9691  0.5849
  234MOL0     C30809   8.983   9.881  10.360 -0.1637  0.7123  0.1554
  234MOL0     C30810   9.406   9.925  10.513 -0.2428  0.0475 -0.5415
  234MOL0     C30811   9.528   9.874  10.472  0.1885  0.2834 -0.4642
  234MOL0     C30812   9.654   9.924  10.507 -0.2745 -0.5018  0.1571
  234MOL0     C30813   9.661  10.036  10.590 -0.1640  0.2669 -0.0359
  234MOL0     O30814   9.789  10.078  10.623 -0.7261 -0.2216  0.7045
  234MOL0     C30815   9.812  10.088  10.769 -0.3975 -0.1338  0.9783
  234MOL0     C30816   9.962  10.102  10.787  0.2572 -0.2214 -0.3733
  234MOL0     C30817  10.033  10.223  10.723 -0.0188  0.7996  0.3257
  234MOL0     C30818  10.186  10.225  10.717 -0.4736  0.5519  0.5406
  234MOL0     C30819  10.256  10.112  10.653  0.2606  0.7885  1.1354
  234MOL0     C30820  10.300  10.010  10.608  0.5119 -0.9913 -0.4416
  234MOL0     C30821   9.539  10.095  10.630  0.3683 -0.7563  0.7586
  234MOL0     C30822   9.417  10.036  10.595 -0.4813 -0.6720  0.3026
  234MOL0     H30823   9.036   9.762  10.681  2.8576 -0.1718 -0.9298
  234MOL0     H30824   8.845   9.631  10.632 -3.1638 -0.1466  0.2466
  234MOL0     H30825   8.601   9.646  10.575  0.8478 -0.2335  0.3882
  234MOL0     H30826   8.682   9.484  10.549 -0.7157 -0.8796 -1.1575
  234MOL0     H30827   8.548   9.437  10.356  0.3430 -3.6680  3.1350
  234MOL0     H30828   8.446   9.570  10.391  1.3739 -0.5800 -3.0661
  234MOL0     H30829   8.374   9.499  10.580  0.4473  0.8144  0.2128
  234MOL0     H30830   8.497   9.371  10.613  1.5226 -2.8488 -3.1443
  234MOL0     H30831   8.290   9.361  10.381  2.0916 -1.6584 -1.6217
  234MOL0     H30832   8.428   9.260  10.408 -0.1304  2.0529 -3.6926
  234MOL0     H30833   8.309   9.201  10.640  1.8708  1.9784  0.5922
  234MOL0     H30834   8.237   9.133  10.485 -0.3572  0.6095 -0.6005
  234MOL0     H30835   8.074   9.298  10.469 -1.4563 -2.6983  0.8053
  234MOL0     H30836   8.128   9.383  10.617 -1.4149 -0.6325  1.6866
  234MOL0     H30837   8.027   9.092  10.599  1.6320 -0.6376 -0.5842
  234MOL0     H30838   8.075   9.180  10.743  1.8683 -2.3389 -1.9414
  234MOL0     H30839   7.874   9.331  10.717 -1.2455 -0.2817 -1.9950
  234MOL0     H30840   7.827   9.162  10.732 -3.3578  1.0105  0.5045
  234MOL0     H30841   7.825   8.998  10.486  0.1028  0.8724 -3.0614
  234MOL0     H30842   7.671   8.966  10.248  2.0381  0.4627  0.4539
  234MOL0     H30843   7.538   9.095  10.247  3.1856  2.8790  0.3399
  234MOL0     H30844   7.569   8.853  10.429  0.9238  0.2186 -0.9700
  234MOL0     H30845   7.419   8.908  10.341 -0.5453 -0.9558  2.2937
  234MOL0     H30846   7.539   9.012  10.586 -1.8727  0.3722  2.2767
  234MOL0     H30847   7.395   9.093  10.506  0.1526 -0.9594 -4.6140
  234MOL0     H30848   7.334   8.945  10.708  0.7145 -0.3787  0.5547
  234MOL0     H30849   7.408   8.817  10.632 -0.4424 -1.5177 -0.7647
  234MOL0     H30850   7.102   8.764  10.709  4.2361  1.3640 -1.8056
  234MOL0     H30851   6.873   8.790  10.794 -2.1866  1.1297 -0.1880
  234MOL0     H30852   6.433   8.958  10.665  1.0011  1.5998 -3.3075
  234MOL0     H30853   6.209   9.036  10.798  0.2982 -1.1752  1.3169
  234MOL0     H30854   6.153   9.467  10.940 -3.4951  0.5809  0.6214
  234MOL0     H30855   6.266   9.389  11.056  0.4696  1.3040  0.7263
  234MOL0     H30856   5.995   9.458  11.088 -1.5816 -2.4007 -2.3784
  234MOL0     H30857   6.120   9.409  11.197  2.3230  0.0734 -1.6219
  234MOL0     H30858   6.047   9.172  11.164 -0.6446  0.2751 -0.1872
  234MOL0     H30859   5.950   9.215  11.030  0.1373 -2.3546 -0.7940
  234MOL0     H30860   5.916   9.247  11.326 -1.3711 -1.0990 -0.9440
  234MOL0     H30861   5.835   9.369  11.212  0.0279  1.2113  0.3502
  234MOL0     H30862   5.779   9.065  11.230  1.2412  0.8521 -1.6796
  234MOL0     H30863   5.715   9.179  11.113  0.3079  0.1761 -0.4671
  234MOL0     H30864   5.603   9.310  11.280 -0.1998  0.2533 -0.5045
  234MOL0     H30865   5.703   9.241  11.405  2.3836 -1.4464 -1.1810
  234MOL0     H30866   5.595   9.021  11.388 -1.6322 -2.1191  0.0967
  234MOL0     H30867   5.471   9.157  11.414 -0.9175 -2.2135  0.3436
  234MOL0     H30868   5.423   8.978  11.271  0.6647 -0.2571 -0.4094
  234MOL0     H30869   5.548   9.026  11.157 -0.8791 -4.3426  0.8013
  234MOL0     H30870   6.414   9.397  10.892 -0.3632 -1.3242  2.9166
  234MOL0     H30871   6.619   9.317  10.771  1.0538 -1.8796 -3.1425
  234MOL0     H30872   6.850   9.136  10.530  0.2150  0.0736  0.7339
  234MOL0     H30873   7.089   9.100  10.461  2.5028 -2.0997 -0.4538
  234MOL0     H30874   8.831   9.803  10.237 -0.4302 -1.0607  0.5572
  234MOL0     H30875   9.028   9.935  10.277 -2.3166  2.1872 -0.1295
  234MOL0     H30876   9.519   9.789  10.405 -2.5561  0.6148 -0.6072
  234MOL0     H30877   9.741   9.869  10.469 -0.0572 -0.1049  0.0728
  234MOL0     H30878   9.775   9.999  10.821  0.9478 -0.8394  0.7723
  234MOL0     H30879   9.776  10.181  10.815  3.0945  1.1819  1.4125
  234MOL0     H30880   9.980  10.101  10.895 -0.6068 -1.1660 -0.2230
  234MOL0     H30881   9.991  10.008  10.739 -0.8592 -0.0138 -1.5041
  234MOL0     H30882  10.008  10.317  10.772 -0.8903  1.8701 -2.0194
  234MOL0     H30883  10.007  10.234  10.618 -2.3347  1.2717  0.8920
  234MOL0     H30884  10.214  10.319  10.667  1.0417 -0.9074 -1.5278
  234MOL0     H30885  10.226  10.243  10.817  1.2408  0.2345 -0.0553
  234MOL0     H30886  10.333   9.918  10.562  0.4120 -0.7359 -1.0313
  234MOL0     H30887   9.539  10.182  10.695  1.6882 -0.5586  0.5143
  234MOL0     H30888   9.334  10.091  10.636  0.7243  1.9177 -0.4792
  235MOL0     O30889   9.013   3.977   9.694  0.2036 -0.6725  0.2923
  235MOL0     C30890   9.079   3.930   9.786 -0.9688 -0.1553  0.4862
  235MOL0     O30891   9.050   3.824   9.873  0.3005 -0.1202  0.4016
  235MOL0     C30892   8.924   3.772   9.853  0.1144  0.2311 -1.3069
  235MOL0     C30893   8.803   3.835   9.886 -0.6647 -0.4381  0.6978
  235MOL0     C30894   8.686   3.766   9.869 -0.4709 -0.8412  0.0126
  235MOL0     C30895   8.686   3.630   9.842  0.3699 -0.0007 -0.6079
  235MOL0     O30896   8.573   3.552   9.842  0.3128 -0.2606 -0.0480
  235MOL0     C30897   8.446   3.625   9.840  0.0161  0.2190 -0.2615
  235MOL0     C30898   8.327   3.531   9.814 -0.3808  0.3737 -0.0938
  235MOL0     C30899   8.201   3.592   9.751 -0.6506 -0.2512 -0.1617
  235MOL0     C30900   8.094   3.492   9.690 -0.5386  0.0653 -0.3275
  235MOL0     C30901   8.033   3.380   9.776 -0.1924  1.0529  0.0780
  235MOL0     C30902   7.935   3.438   9.878 -0.5483 -0.6875 -0.8146
  235MOL0     C30903   7.830   3.337   9.928 -1.4545 -0.4573  0.0731
  235MOL0     C30904   7.713   3.302   9.840  0.4218 -0.2749  0.3951
  235MOL0     N30905   7.595   3.266   9.920 -0.7201  0.5003  0.5201
  235MOL0     C30906   7.601   3.165  10.012  0.0277  0.0229  0.4478
  235MOL0     C30907   7.475   3.166  10.065  0.2791  0.0577 -0.5310
  235MOL0     C30908   7.423   3.077  10.178  0.3619  0.3303  1.2233
  235MOL0     C30909   7.512   2.978  10.240 -0.9045 -0.4749 -0.1199
  235MOL0     C30910   7.573   2.868  10.155  0.8588  0.3326 -0.3160
  235MOL0     C30911   7.490   2.819  10.036 -0.0072 -0.0591 -0.0321
  235MOL0     O30912   7.477   2.922   9.933  0.0130  0.8085 -0.5876
  235MOL0     C30913   7.389   2.887   9.837  0.0036 -0.6540  0.0929
  235MOL0     C30914   7.327   2.757   9.815  0.2928 -0.4581  0.1112
  235MOL0     C30915   7.250   2.739   9.704  0.0438  0.5211  0.1959
  235MOL0     C30916   7.216   2.844   9.620  0.0583  0.1245  0.5278
  235MOL0     C30917   7.115   2.829   9.510 -0.3994  0.2035 -0.8068
  235MOL0     O30918   7.065   2.944   9.453 -0.0750  0.5351 -0.3790
  235MOL0     C30919   6.960   2.944   9.358  1.3077  0.1878  0.3801
  235MOL0     C30920   6.926   2.837   9.274 -0.0334 -0.0463 -0.9214
  235MOL0     C30921   6.810   2.841   9.191 -0.7326 -0.8825  0.2941
  235MOL0     C30922   6.741   2.966   9.188 -0.1462  0.1820  0.2723
  235MOL0     O30923   6.641   2.987   9.092 -0.7781 -0.4907  0.0517
  235MOL0     C30924   6.532   2.902   9.104 -0.0781  0.9854  0.3195
  235MOL0     C30925   6.395   2.957   9.104  0.3192  0.2783  0.2281
  235MOL0     C30926   6.377   3.062   9.216  1.4645  0.4043 -0.1396
  235MOL0     C30927   6.235   3.127   9.219 -0.0250  0.2760 -1.0059
  235MOL0     C30928   6.116   3.028   9.237 -0.4455 -0.4732  0.2507
  235MOL0     C30929   5.980   3.084   9.297  0.2528  0.3181  0.6538
  235MOL0     C30930   5.987   3.155   9.429 -0.5579  0.6840 -0.4692
  235MOL0     C30931   5.999   3.061   9.551  0.1221  0.5893  0.2533
  235MOL0    Cl30932   6.169   3.007   9.572 -0.1090 -0.0437 -0.2157
  235MOL0     C30933   6.772   3.063   9.277  0.1171 -0.6349  0.5853
  235MOL0     C30934   6.880   3.056   9.370  0.4186  0.1259 -0.3341
  235MOL0     O30935   7.072   2.712   9.493 -0.0915 -0.2804  0.4038
  235MOL0     C30936   7.267   2.974   9.648 -0.0911  0.2473 -0.2776
  235MOL0     C30937   7.363   2.991   9.748 -0.7258 -0.1555  0.4017
  235MOL0     N30938   7.400   3.273  10.007  1.1794  0.2275  0.6575
  235MOL0     N30939   7.470   3.309   9.910 -0.0064 -0.2841  0.1255
  235MOL0     C30940   8.804   3.563   9.808  0.7703  1.1726  0.1863
  235MOL0     C30941   8.925   3.636   9.817  0.4003  0.0078  0.2957
  235MOL0     C30942   9.215   3.996   9.793  0.1918 -0.7120  0.8089
  235MOL0     C30943   9.238   4.125   9.739 -0.5198  0.1577  0.6264
  235MOL0     C30944   9.358   4.190   9.746 -1.1365  0.7396 -0.0487
  235MOL0     C30945   9.468   4.124   9.811 -0.4695 -0.4779  0.7420
  235MOL0     O30946   9.598   4.173   9.810 -0.2566 -0.1095 -0.5309
  235MOL0     C30947   9.617   4.288   9.723 -0.0895  0.2278 -1.0947
  235MOL0     C30948   9.751   4.332   9.746 -0.6495  0.5286  0.0264
  235MOL0     C30949   9.856   4.243   9.672  0.2841 -0.3575  0.5303
  235MOL0     C30950   9.998   4.254   9.733  0.0608 -0.6488 -0.3828
  235MOL0     C30951  10.079   4.355   9.657  0.3214 -0.2433  0.1398
  235MOL0     C30952  10.135   4.442   9.593 -0.8201 -0.2804 -1.0185
  235MOL0     C30953   9.446   4.007   9.877  0.6925  0.4410  0.2163
  235MOL0     C30954   9.324   3.946   9.863  0.4566  0.6176 -0.2710
  235MOL0     H30955   8.797   3.939   9.917  2.7237 -0.1645  0.7783
  235MOL0     H30956   8.598   3.830   9.880 -1.2949 -0.9847 -4.0953
  235MOL0     H30957   8.452   3.702   9.762  1.2307  0.6343  0.2196
  235MOL0     H30958   8.415   3.671   9.934 -0.5458  0.5503 -0.6020
  235MOL0     H30959   8.304   3.492   9.914 -1.0005  0.3489 -0.2436
  235MOL0     H30960   8.360   3.444   9.757  0.1374  0.7886 -0.4380
  235MOL0     H30961   8.224   3.657   9.666  0.5066 -2.7839 -1.9096
  235MOL0     H30962   8.150   3.653   9.826  3.3141 -0.8506  3.4849
  235MOL0     H30963   8.018   3.556   9.644  0.2271  2.0742  1.0268
  235MOL0     H30964   8.141   3.452   9.600 -1.6274  1.0124 -1.3505
  235MOL0     H30965   8.104   3.320   9.833 -0.9188 -0.2813 -0.3790
  235MOL0     H30966   7.991   3.311   9.702  1.3899  2.3751 -2.1860
  235MOL0     H30967   7.883   3.523   9.831 -2.9122 -1.5448  0.0708
  235MOL0     H30968   7.989   3.477   9.965  0.0527 -1.7577 -0.6941
  235MOL0     H30969   7.879   3.239   9.931  0.2863  0.3140 -1.3335
  235MOL0     H30970   7.793   3.373  10.025 -1.3856  1.4781 -0.5769
  235MOL0     H30971   7.731   3.224   9.765  0.4794  0.7565 -0.6899
  235MOL0     H30972   7.692   3.392   9.781  1.7695 -1.3348 -1.8434
  235MOL0     H30973   7.690   3.106  10.029  0.8876  1.3919  0.8623
  235MOL0     H30974   7.335   3.027  10.136  0.7794 -0.0422  0.7911
  235MOL0     H30975   7.386   3.158  10.242 -1.5562  1.1020 -0.7652
  235MOL0     H30976   7.451   2.932  10.317  4.3543 -2.6569  3.3356
  235MOL0     H30977   7.598   3.028  10.286 -0.8415  0.6070 -1.3267
  235MOL0     H30978   7.674   2.892  10.120  2.6458 -4.1453  1.0539
  235MOL0     H30979   7.596   2.782  10.218  2.9560 -0.5989 -2.2172
  235MOL0     H30980   7.390   2.788  10.068 -0.2348  1.1352  0.4429
  235MOL0     H30981   7.536   2.728   9.996 -1.5314 -0.3811 -1.1077
  235MOL0     H30982   7.353   2.667   9.869 -0.4579 -0.6279  0.2072
  235MOL0     H30983   7.205   2.642   9.684 -1.1146  1.0364  0.2011
  235MOL0     H30984   6.984   2.746   9.286 -0.6605 -0.5461 -1.6019
  235MOL0     H30985   6.781   2.761   9.124  0.0683 -1.8649  1.1025
  235MOL0     H30986   6.533   2.842   9.196 -0.7623 -0.2539 -0.4478
  235MOL0     H30987   6.538   2.835   9.017 -1.5223  1.3059 -0.0440
  235MOL0     H30988   6.334   2.867   9.109 -2.6630  1.9328 -2.3325
  235MOL0     H30989   6.373   3.009   9.010  2.5363  1.0988  0.1182
  235MOL0     H30990   6.450   3.143   9.220  1.8035  0.0946  3.0647
  235MOL0     H30991   6.403   3.011   9.310  0.1350  0.6948  0.4070
  235MOL0     H30992   6.243   3.186   9.311  0.1228 -0.1638 -0.7353
  235MOL0     H30993   6.212   3.189   9.132 -1.0547  0.7120 -0.4393
  235MOL0     H30994   6.152   2.941   9.293  1.3017  1.3176  2.0378
  235MOL0     H30995   6.106   2.992   9.134  3.1343 -3.0787  0.6231
  235MOL0     H30996   5.905   3.004   9.303  0.7517 -0.3010 -0.9572
  235MOL0     H30997   5.930   3.149   9.224 -0.5962 -2.1302 -1.0566
  235MOL0     H30998   6.062   3.234   9.423 -0.7544  0.8470 -0.7914
  235MOL0     H30999   5.892   3.208   9.434 -0.8159  0.1306  1.1005
  235MOL0     H31000   5.927   2.979   9.549  0.8739 -0.0837 -2.1737
  235MOL0     H31001   5.982   3.111   9.647  0.6828 -0.2324  0.7988
  235MOL0     H31002   6.702   3.146   9.280  1.6213  0.7313 -0.6438
  235MOL0     H31003   6.903   3.123   9.453 -0.3832  2.2204 -1.7177
  235MOL0     H31004   7.241   3.055   9.581 -5.5867 -0.7156  0.2486
  235MOL0     H31005   7.402   3.092   9.756  0.9472 -0.5747 -1.6715
  235MOL0     H31006   8.795   3.459   9.778 -1.1373  1.9550 -2.3488
  235MOL0     H31007   9.019   3.590   9.791 -0.5699 -1.0396 -1.5522
  235MOL0     H31008   9.150   4.181   9.709  0.4415  0.3418 -2.0650
  235MOL0     H31009   9.354   4.285   9.694 -0.4118 -0.3362 -2.1803
  235MOL0     H31010   9.541   4.363   9.746  0.2424 -0.1574  1.4802
  235MOL0     H31011   9.598   4.263   9.618 -2.5862  0.0027 -0.6674
  235MOL0     H31012   9.755   4.435   9.708 -3.6148  0.4819 -0.6101
  235MOL0     H31013   9.780   4.325   9.851 -2.2327  3.0561  0.7233
  235MOL0     H31014   9.854   4.261   9.564 -0.7641  1.2057  0.7886
  235MOL0     H31015   9.828   4.137   9.676  0.8480 -0.7292 -2.5055
  235MOL0     H31016   9.984   4.263   9.841  1.0067 -1.7377 -0.1538
  235MOL0     H31017  10.049   4.160   9.711  0.7034 -1.0687  2.5397
  235MOL0     H31018  10.198   4.511   9.541  1.1878 -0.4398  1.0313
  235MOL0     H31019   9.519   3.952   9.934 -1.6323 -2.8547  0.2999
  235MOL0     H31020   9.307   3.845   9.899 -1.3133  0.6381 -0.9576
  236MOL0     O31021   5.109   7.225   0.961 -0.2042 -0.9037 -0.8162
  236MOL0     C31022   5.102   7.171   1.073  0.2560 -0.0045 -0.3300
  236MOL0     O31023   4.981   7.142   1.140  0.1631 -0.3514 -0.5997
  236MOL0     C31024   4.873   7.206   1.084  0.0575 -0.2306  0.1427
  236MOL0     C31025   4.859   7.347   1.089 -0.2642 -0.1394 -0.8899
  236MOL0     C31026   4.745   7.408   1.035  0.4916  0.2737  0.4897
  236MOL0     C31027   4.647   7.338   0.958 -0.0030  0.3704  0.7376
  236MOL0     O31028   4.539   7.410   0.910  0.0242  0.0610  0.1566
  236MOL0     C31029   4.440   7.345   0.833  0.4209  0.3576  0.4098
  236MOL0     C31030   4.333   7.448   0.800  0.7980 -0.4846  0.4451
  236MOL0     C31031   4.193   7.390   0.762  0.3919  0.1470 -0.9746
  236MOL0     C31032   4.088   7.488   0.715 -0.1420 -0.3282 -0.2540
  236MOL0     C31033   3.954   7.454   0.767  1.1299  0.0738  1.2741
  236MOL0     C31034   3.900   7.308   0.750  0.6554 -0.4367  0.2008
  236MOL0     C31035   3.746   7.315   0.731 -0.1164 -0.1872 -0.5435
  236MOL0     C31036   3.705   7.333   0.583  0.1775 -0.1840 -1.1383
  236MOL0     N31037   3.565   7.370   0.570  0.0763 -0.4676 -0.7529
  236MOL0     C31038   3.528   7.498   0.558  1.6663 -0.8858 -0.2102
  236MOL0     C31039   3.384   7.489   0.562 -0.5825 -0.0684  0.3571
  236MOL0     C31040   3.295   7.619   0.539 -0.5561  0.3124 -0.6332
  236MOL0     C31041   3.302   7.668   0.389  0.5135  0.3339 -0.4112
  236MOL0     C31042   3.226   7.801   0.381 -0.0257 -0.8729  0.2315
  236MOL0     C31043   3.077   7.779   0.404 -0.1089  1.0448 -0.3347
  236MOL0     O31044   3.011   7.903   0.422 -0.6631 -0.7876  0.3007
  236MOL0     C31045   2.877   7.900   0.444  0.2614 -0.4927 -0.0623
  236MOL0     C31046   2.795   7.788   0.458 -0.0716  0.1811  0.4015
  236MOL0     C31047   2.662   7.807   0.485  0.5549 -0.0767  0.2731
  236MOL0     C31048   2.607   7.943   0.510  0.8266  1.0532  0.4251
  236MOL0     C31049   2.471   7.954   0.568  0.1604 -0.1659 -0.1556
  236MOL0     O31050   2.410   8.076   0.569  0.0741  0.3086 -0.1893
  236MOL0     C31051   2.272   8.100   0.582 -0.6341  0.0250  0.6045
  236MOL0     C31052   2.229   8.206   0.505  0.5575 -0.3918 -0.3278
  236MOL0     C31053   2.095   8.249   0.502 -0.0387  0.4243 -0.5518
  236MOL0     C31054   2.004   8.182   0.584 -0.0685 -0.6738 -0.3170
  236MOL0     O31055   1.871   8.225   0.587  0.0490 -0.2755  0.2840
  236MOL0     C31056   1.829   8.319   0.484  0.4006 -0.6133  0.0487
  236MOL0     C31057   1.687   8.348   0.518 -1.1262 -0.1756  0.6595
  236MOL0     C31058   1.621   8.411   0.388  0.1340 -0.7548 -0.7354
  236MOL0     C31059   1.490   8.470   0.430  0.2441  0.5295  1.1112
  236MOL0     C31060   1.411   8.531   0.310 -1.1093  0.0929  0.2140
  236MOL0     C31061   1.284   8.616   0.340 -1.1478 -0.1993 -0.0565
  236MOL0     C31062   1.177   8.536   0.411  0.7578 -0.1209 -0.4755
  236MOL0     C31063   1.042   8.616   0.408  0.0076 -0.3002  0.3890
  236MOL0    Cl31064   1.000   8.684   0.250 -0.1447  0.2259 -0.2830
  236MOL0     C31065   2.052   8.073   0.666  0.2629 -0.3252  0.3797
  236MOL0     C31066   2.180   8.033   0.663 -1.1075 -0.5235 -0.1558
  236MOL0     O31067   2.423   7.855   0.616 -0.8128  0.8462  0.4469
  236MOL0     C31068   2.683   8.049   0.485  0.5047  0.2580 -0.5644
  236MOL0     C31069   2.814   8.024   0.449  0.5075 -0.3826  0.0715
  236MOL0     N31070   3.347   7.354   0.575 -0.1176  1.0928  0.5651
  236MOL0     N31071   3.456   7.283   0.583  0.1183 -0.8699 -0.1053
  236MOL0     C31072   4.658   7.197   0.954 -0.1758  0.1125  0.1622
  236MOL0     C31073   4.762   7.136   1.022 -0.6702  0.1300  0.0954
  236MOL0     C31074   5.227   7.141   1.148 -0.2103 -0.4868  0.2874
  236MOL0     C31075   5.347   7.149   1.078  0.8330  1.0607 -0.0756
  236MOL0     C31076   5.466   7.115   1.146  0.1639 -0.5362  0.5926
  236MOL0     C31077   5.466   7.071   1.277 -0.4230  0.6054  0.0597
  236MOL0     O31078   5.578   7.014   1.325  0.1961 -0.3499 -0.2925
  236MOL0     C31079   5.628   7.058   1.449  1.3707 -0.4313 -0.5838
  236MOL0     C31080   5.780   7.031   1.455  0.2495 -0.2272 -0.1502
  236MOL0     C31081   5.802   6.881   1.470  0.3007 -0.4547  0.6563
  236MOL0     C31082   5.958   6.852   1.483  0.6382  0.5276  0.0673
  236MOL0     C31083   5.970   6.710   1.499  0.0002  0.8214 -0.2156
  236MOL0     C31084   5.983   6.593   1.537 -0.3084 -0.5649  0.9704
  236MOL0     C31085   5.342   7.056   1.348  0.3326 -0.9103  0.6623
  236MOL0     C31086   5.222   7.108   1.285 -0.3882  0.8306  0.0007
  236MOL0     H31087   4.926   7.412   1.146 -1.2289 -1.6473  2.1725
  236MOL0     H31088   4.731   7.511   1.065  2.3088  0.4216  0.9582
  236MOL0     H31089   4.381   7.270   0.888 -1.0986  1.6947  0.6847
  236MOL0     H31090   4.484   7.302   0.743  0.4391 -0.5623  0.8454
  236MOL0     H31091   4.375   7.510   0.721 -0.0410  0.7242  0.9097
  236MOL0     H31092   4.333   7.511   0.889  3.3646 -0.7513  0.6864
  236MOL0     H31093   4.155   7.338   0.850 -0.9206  1.0172 -0.9902
  236MOL0     H31094   4.208   7.315   0.684 -1.0734 -0.1488 -0.9902
  236MOL0     H31095   4.122   7.585   0.752 -1.4926 -0.2569  0.8748
  236MOL0     H31096   4.098   7.488   0.606  2.0778 -1.5397 -0.1077
  236MOL0     H31097   3.882   7.529   0.732  2.8889  0.7046 -1.2882
  236MOL0     H31098   3.940   7.469   0.875 -1.5938 -0.7734  1.1135
  236MOL0     H31099   3.928   7.266   0.847  1.5465 -0.6669 -0.1396
  236MOL0     H31100   3.959   7.249   0.679  0.8269  0.0810 -0.0945
  236MOL0     H31101   3.700   7.224   0.771 -0.2123 -0.6275 -1.6296
  236MOL0     H31102   3.707   7.401   0.786 -1.1499 -0.3580 -0.9854
  236MOL0     H31103   3.727   7.247   0.520  2.0426 -0.5785 -0.0473
  236MOL0     H31104   3.774   7.408   0.542  2.6930 -1.4241  0.5483
  236MOL0     H31105   3.588   7.581   0.521  2.2675 -1.3679 -0.3327
  236MOL0     H31106   3.327   7.697   0.609  2.4470 -0.0809 -1.4165
  236MOL0     H31107   3.199   7.576   0.568 -0.4768 -0.7241 -1.8253
  236MOL0     H31108   3.250   7.600   0.321 -1.4443  3.7620 -2.6763
  236MOL0     H31109   3.409   7.680   0.367  1.3873 -0.3932  2.9017
  236MOL0     H31110   3.256   7.870   0.461  0.0926 -2.8404  1.9579
  236MOL0     H31111   3.228   7.860   0.289 -2.6944  0.1234  0.7049
  236MOL0     H31112   3.070   7.726   0.499  2.2058  0.9062 -0.1685
  236MOL0     H31113   3.054   7.717   0.317 -1.3157 -1.1533  1.4428
  236MOL0     H31114   2.826   7.684   0.446 -3.1021 -0.9428  1.4669
  236MOL0     H31115   2.590   7.727   0.497  0.0697  0.2911 -0.1132
  236MOL0     H31116   2.301   8.254   0.440 -0.0197 -0.1597 -0.8121
  236MOL0     H31117   2.063   8.329   0.436 -2.3458 -1.4136 -1.7732
  236MOL0     H31118   1.832   8.261   0.391  2.2783  1.3398 -1.1830
  236MOL0     H31119   1.882   8.414   0.482 -0.1783 -0.2448  1.2742
  236MOL0     H31120   1.692   8.408   0.610 -0.9854  1.4425 -0.3562
  236MOL0     H31121   1.641   8.251   0.537  2.5032 -1.6785  2.8550
  236MOL0     H31122   1.604   8.327   0.320 -1.2843  0.3832 -1.8523
  236MOL0     H31123   1.687   8.485   0.341 -0.9298  1.6151  1.2681
  236MOL0     H31124   1.434   8.394   0.486  2.1016 -2.9147 -1.3591
  236MOL0     H31125   1.506   8.554   0.498  2.1753 -0.3636  1.8143
  236MOL0     H31126   1.379   8.455   0.238 -0.0929  2.0370 -2.4385
  236MOL0     H31127   1.483   8.597   0.261 -0.7162 -0.0488  0.5916
  236MOL0     H31128   1.244   8.656   0.245  1.0373 -2.4041 -2.0438
  236MOL0     H31129   1.305   8.708   0.396 -0.6425  1.6342 -2.9831
  236MOL0     H31130   1.160   8.433   0.379  0.2963 -0.3679  0.5295
  236MOL0     H31131   1.223   8.526   0.510  1.3003 -2.4407 -0.9023
  236MOL0     H31132   1.050   8.708   0.466  1.2637  0.8876 -1.5331
  236MOL0     H31133   0.959   8.563   0.455 -0.7277  0.6776  0.2305
  236MOL0     H31134   1.979   8.031   0.736  0.6649  0.3668  1.2360
  236MOL0     H31135   2.219   7.951   0.722 -1.0540 -0.3537  0.0456
  236MOL0     H31136   2.647   8.150   0.495 -1.5268 -0.6034  1.9566
  236MOL0     H31137   2.883   8.106   0.432  1.4652 -0.9181  1.2329
  236MOL0     H31138   4.596   7.130   0.894  0.0068 -0.7463  0.9080
  236MOL0     H31139   4.778   7.030   1.009  2.5630  0.3386  1.4687
  236MOL0     H31140   5.350   7.186   0.976 -0.1824  1.6109  0.0826
  236MOL0     H31141   5.558   7.089   1.096  1.0243  2.0758  0.6671
  236MOL0     H31142   5.594   6.996   1.532  0.2257 -0.9407 -1.3945
  236MOL0     H31143   5.604   7.165   1.451 -1.9693 -0.9932 -2.3656
  236MOL0     H31144   5.834   7.071   1.369  3.0748 -1.0188  1.1267
  236MOL0     H31145   5.820   7.069   1.549 -1.9141 -0.4426  0.9369
  236MOL0     H31146   5.758   6.831   1.384  0.6621  1.4396 -0.7031
  236MOL0     H31147   5.762   6.855   1.569  2.5833  0.5517  1.9328
  236MOL0     H31148   5.994   6.883   1.385  0.2153  0.2562 -0.1767
  236MOL0     H31149   6.005   6.898   1.570 -0.5271 -0.0178  1.0191
  236MOL0     H31150   6.018   6.500   1.577  3.0950 -0.6687 -1.7914
  236MOL0     H31151   5.334   7.021   1.450 -1.4416 -2.8406 -0.0843
  236MOL0     H31152   5.125   7.117   1.334 -1.0586 -0.5712 -1.0060
  237MOL0     O31153   6.096   6.052   3.075  0.0426  0.0137 -0.2583
  237MOL0     C31154   6.038   6.154   3.040 -0.0003 -0.2201  1.0958
  237MOL0     O31155   5.904   6.176   3.052  0.5459  0.3194  0.0790
  237MOL0     C31156   5.803   6.081   3.075 -0.2704  0.0689 -0.7800
  237MOL0     C31157   5.813   5.941   3.064  0.3505  0.6037  1.0342
  237MOL0     C31158   5.701   5.856   3.078 -0.0774  0.7087  0.0692
  237MOL0     C31159   5.570   5.907   3.089 -0.5855 -0.5069 -0.4886
  237MOL0     O31160   5.464   5.818   3.083 -0.2865 -0.4748 -0.0778
  237MOL0     C31161   5.326   5.869   3.092 -0.1425  1.2462  0.9468
  237MOL0     C31162   5.228   5.749   3.076  0.6193  0.4526 -0.3395
  237MOL0     C31163   5.208   5.704   2.930  0.1683 -0.9699 -0.2442
  237MOL0     C31164   5.154   5.563   2.923 -0.3756  0.2902  0.3082
  237MOL0     C31165   5.013   5.553   2.966  0.4029  0.2201 -0.0628
  237MOL0     C31166   4.895   5.618   2.888 -0.1205  1.1522 -0.4234
  237MOL0     C31167   4.757   5.566   2.921  0.4457 -0.0822  0.3734
  237MOL0     C31168   4.706   5.588   3.069 -0.3706  0.6503 -0.9775
  237MOL0     N31169   4.561   5.555   3.063  0.2173 -0.7092 -0.5031
  237MOL0     C31170   4.510   5.438   3.011  0.1910  0.4274 -0.9951
  237MOL0     C31171   4.377   5.476   3.008 -0.2526 -0.0062 -0.5390
  237MOL0     C31172   4.267   5.389   2.970  0.0999 -0.7515 -0.0985
  237MOL0     C31173   4.255   5.385   2.814  0.0221 -0.3605  0.2604
  237MOL0     C31174   4.155   5.278   2.755 -0.0119  0.0344  0.1504
  237MOL0     C31175   4.121   5.299   2.612  0.4121 -0.1963  0.3551
  237MOL0     O31176   4.032   5.209   2.543  0.1411  0.5696 -0.3513
  237MOL0     C31177   3.902   5.235   2.519  0.1747  0.0510  0.0527
  237MOL0     C31178   3.819   5.328   2.586  0.8150 -0.5088  0.2647
  237MOL0     C31179   3.691   5.356   2.540 -0.0241 -0.2082  0.7936
  237MOL0     C31180   3.641   5.288   2.420  0.1099 -0.5579 -0.6372
  237MOL0     C31181   3.505   5.316   2.359  0.2503  0.5785  0.1077
  237MOL0     O31182   3.453   5.221   2.270  0.4499  0.5695 -0.0199
  237MOL0     C31183   3.321   5.226   2.235  0.9412  0.1390 -0.3630
  237MOL0     C31184   3.249   5.104   2.237 -0.4620  0.0256  0.6989
  237MOL0     C31185   3.117   5.088   2.190 -0.6840 -0.6279 -0.2162
  237MOL0     C31186   3.041   5.200   2.167  1.0643 -0.4405  0.3375
  237MOL0     O31187   2.909   5.203   2.133 -0.3474  0.9091 -0.2740
  237MOL0     C31188   2.839   5.078   2.150 -0.0933  0.0381 -0.2976
  237MOL0     C31189   2.695   5.114   2.166  0.0437 -0.2967 -0.3571
  237MOL0     C31190   2.608   4.985   2.147 -0.9684 -0.4335  0.0688
  237MOL0     C31191   2.460   5.012   2.100  0.0249  0.6233 -0.7542
  237MOL0     C31192   2.368   5.069   2.207 -1.5476  0.4797 -0.7087
  237MOL0     C31193   2.334   4.961   2.310  0.4172  0.2422  0.2804
  237MOL0     C31194   2.247   5.021   2.427 -0.6420 -0.6242  0.2174
  237MOL0     C31195   2.217   4.920   2.541 -0.0774  0.1334  0.5560
  237MOL0    Cl31196   2.141   4.781   2.481  0.2014 -0.4540  0.2878
  237MOL0     C31197   3.115   5.318   2.146  0.6584 -0.6211 -0.5294
  237MOL0     C31198   3.251   5.337   2.187 -0.1722 -0.0558  0.1744
  237MOL0     O31199   3.445   5.413   2.396 -0.3201  0.0098 -0.5432
  237MOL0     C31200   3.714   5.193   2.353  0.8119 -0.3057  0.2188
  237MOL0     C31201   3.845   5.163   2.403 -0.2741 -0.4086 -0.1211
  237MOL0     N31202   4.354   5.607   3.035  0.4982  0.7263  0.6618
  237MOL0     N31203   4.464   5.658   3.073  0.0160  1.0353  0.4884
  237MOL0     C31204   5.567   6.053   3.086 -0.2727 -0.5258  0.8013
  237MOL0     C31205   5.675   6.135   3.093  0.4650  0.5431 -0.8374
  237MOL0     C31206   6.126   6.250   2.964 -0.2366  0.0065 -0.2767
  237MOL0     C31207   6.078   6.366   2.896  0.0447 -0.9233 -0.2537
  237MOL0     C31208   6.157   6.440   2.812  0.1034 -0.4911 -0.6584
  237MOL0     C31209   6.291   6.400   2.789 -0.0405 -0.2441 -0.2862
  237MOL0     O31210   6.357   6.475   2.694 -0.6760 -0.3587 -0.3002
  237MOL0     C31211   6.496   6.444   2.664  0.4464  0.5753 -1.0130
  237MOL0     C31212   6.549   6.571   2.597 -0.4243 -1.4916  0.0954
  237MOL0     C31213   6.681   6.535   2.532 -0.1702 -1.3012  0.6459
  237MOL0     C31214   6.765   6.656   2.488 -0.4422 -0.0758  0.6007
  237MOL0     C31215   6.881   6.607   2.409  0.4806 -0.0500 -0.2242
  237MOL0     C31216   6.965   6.571   2.328 -0.2627 -0.0534  0.1276
  237MOL0     C31217   6.344   6.302   2.874 -0.2708 -0.9830 -0.1816
  237MOL0     C31218   6.267   6.223   2.963  0.3077  0.2046 -0.4399
  237MOL0     H31219   5.904   5.907   3.015 -1.8685 -1.3963 -2.0086
  237MOL0     H31220   5.715   5.748   3.080 -1.9516  0.4223  2.4796
  237MOL0     H31221   5.318   5.946   3.015 -0.5432  0.7692  0.5081
  237MOL0     H31222   5.298   5.919   3.185 -1.1616 -2.7210  2.9702
  237MOL0     H31223   5.132   5.782   3.115 -0.0853  0.7254 -2.1746
  237MOL0     H31224   5.255   5.660   3.134 -0.5569 -1.6608 -2.7994
  237MOL0     H31225   5.301   5.719   2.874  0.3453  1.1620  0.5207
  237MOL0     H31226   5.136   5.774   2.885  0.8593 -0.2577 -0.2701
  237MOL0     H31227   5.170   5.529   2.820  2.4540 -0.4143  0.8944
  237MOL0     H31228   5.215   5.492   2.979  2.6697  0.0592 -2.9306
  237MOL0     H31229   5.004   5.598   3.066  0.2374  1.6907 -0.7238
  237MOL0     H31230   4.994   5.448   2.990  1.7257  0.2127  1.1149
  237MOL0     H31231   4.906   5.599   2.781  1.0986 -0.7571 -0.0178
  237MOL0     H31232   4.907   5.723   2.916  1.3055  0.9565 -0.2168
  237MOL0     H31233   4.681   5.613   2.858  0.1575  1.4904  1.8037
  237MOL0     H31234   4.752   5.458   2.905 -0.3555 -0.1292  0.9246
  237MOL0     H31235   4.726   5.692   3.098 -3.7648  1.1252  0.1394
  237MOL0     H31236   4.749   5.528   3.150 -0.4988  1.1757 -0.5106
  237MOL0     H31237   4.555   5.347   2.972 -2.5501 -2.4433  1.8766
  237MOL0     H31238   4.166   5.429   2.988  0.2688 -0.6824  0.7342
  237MOL0     H31239   4.267   5.289   3.014  0.9020  0.4816  2.9371
  237MOL0     H31240   4.356   5.360   2.782  0.3671  1.7082 -0.3978
  237MOL0     H31241   4.220   5.478   2.770 -1.2849 -0.3143  1.3407
  237MOL0     H31242   4.211   5.185   2.762  0.5092  0.4213  1.4911
  237MOL0     H31243   4.060   5.264   2.808  0.0445  0.1742  0.2899
  237MOL0     H31244   4.212   5.307   2.553  2.6416 -1.3199  3.4130
  237MOL0     H31245   4.076   5.395   2.582 -0.8953 -1.1980 -1.0367
  237MOL0     H31246   3.854   5.380   2.674  1.6604 -0.4874 -0.0736
  237MOL0     H31247   3.615   5.418   2.586 -1.5804  0.1001 -1.9652
  237MOL0     H31248   3.304   5.013   2.254  0.8150  0.1890 -2.0151
  237MOL0     H31249   3.079   4.986   2.188 -1.8732 -0.2797 -4.7129
  237MOL0     H31250   2.868   5.040   2.248  1.2804 -0.5627 -0.9095
  237MOL0     H31251   2.856   5.002   2.074  0.9870 -1.4220  1.3243
  237MOL0     H31252   2.672   5.200   2.102  0.5921  0.3960  0.3623
  237MOL0     H31253   2.683   5.144   2.270 -0.1137  1.6827 -0.9057
  237MOL0     H31254   2.606   4.932   2.242 -1.6184 -0.5121  0.0169
  237MOL0     H31255   2.659   4.931   2.067  3.5814  1.9678  1.0279
  237MOL0     H31256   2.459   5.080   2.014  2.6652  1.6968 -0.0536
  237MOL0     H31257   2.419   4.919   2.060  1.9732 -0.0650 -1.2713
  237MOL0     H31258   2.273   5.107   2.166 -1.6866  1.7862  0.7618
  237MOL0     H31259   2.421   5.145   2.264 -0.5964 -0.1441 -0.7368
  237MOL0     H31260   2.423   4.904   2.338  0.5406 -0.2322 -1.0234
  237MOL0     H31261   2.285   4.881   2.254  1.7614 -0.4734  0.0822
  237MOL0     H31262   2.310   5.100   2.469  0.2500 -1.5613  0.6545
  237MOL0     H31263   2.157   5.067   2.384 -0.2100 -0.9486 -1.0542
  237MOL0     H31264   2.143   4.956   2.613 -2.8162 -2.5708 -0.6978
  237MOL0     H31265   2.317   4.900   2.582  0.8835 -0.8416 -2.0501
  237MOL0     H31266   3.056   5.405   2.119  1.0141  0.2467  1.3125
  237MOL0     H31267   3.301   5.433   2.176 -0.1499 -0.1475 -0.6055
  237MOL0     H31268   3.682   5.138   2.265  0.2882 -1.9736  1.3930
  237MOL0     H31269   3.911   5.095   2.350  0.5198 -1.6155  2.2628
  237MOL0     H31270   5.473   6.107   3.082  0.8381  1.8849  3.2660
  237MOL0     H31271   5.657   6.241   3.109  2.5366  0.8234 -0.0177
  237MOL0     H31272   5.973   6.389   2.908  0.5418  1.2036  0.4687
  237MOL0     H31273   6.108   6.523   2.762  0.6502  0.5346  0.4491
  237MOL0     H31274   6.491   6.361   2.592 -2.7706  0.5898 -0.9276
  237MOL0     H31275   6.561   6.428   2.750 -0.4495  2.0621 -0.0164
  237MOL0     H31276   6.483   6.587   2.511  0.3721  2.1553 -0.0031
  237MOL0     H31277   6.544   6.663   2.656  0.3916 -1.4755  0.1506
  237MOL0     H31278   6.664   6.466   2.448 -1.5904 -1.1472  0.7779
  237MOL0     H31279   6.740   6.477   2.604 -0.3888 -1.2954  0.8308
  237MOL0     H31280   6.702   6.718   2.424 -0.4112 -3.0185 -2.5341
  237MOL0     H31281   6.802   6.714   2.574  0.7049  0.2827 -0.1048
  237MOL0     H31282   7.033   6.540   2.251 -1.6486  0.6221 -1.4060
  237MOL0     H31283   6.450   6.279   2.875  0.4769  2.0201  1.7475
  237MOL0     H31284   6.332   6.161   3.023  0.8930  1.2785  0.0600
  238MOL0     O31285   5.941   5.373   0.462 -0.7918  0.3634  0.1506
  238MOL0     C31286   6.011   5.287   0.513 -0.7035 -0.3434  0.9430
  238MOL0     O31287   5.958   5.174   0.569 -0.4195  0.8092 -0.4237
  238MOL0     C31288   5.834   5.124   0.543 -0.0723  0.6096 -0.6229
  238MOL0     C31289   5.792   5.032   0.640 -0.3961  0.1796  0.8528
  238MOL0     C31290   5.665   4.968   0.628  0.7854  0.2611  0.1300
  238MOL0     C31291   5.578   4.997   0.517 -0.8740  0.3116 -0.0978
  238MOL0     O31292   5.464   4.933   0.481 -0.0253 -0.0314 -0.2867
  238MOL0     C31293   5.379   4.911   0.593 -0.6178  0.9535 -0.1643
  238MOL0     C31294   5.288   5.027   0.602 -0.1304  0.7473 -0.1106
  238MOL0     C31295   5.159   4.993   0.685 -0.0566 -0.2881 -0.0713
  238MOL0     C31296   5.061   5.106   0.706  0.1417  0.1770 -0.5523
  238MOL0     C31297   4.949   5.080   0.813 -0.7417  0.5664 -0.0189
  238MOL0     C31298   4.854   5.193   0.822 -0.5510 -0.5644  0.3779
  238MOL0     C31299   4.743   5.161   0.914 -0.1790  0.4557 -0.9215
  238MOL0     C31300   4.638   5.270   0.921 -0.7621 -0.1554  0.1666
  238MOL0     N31301   4.531   5.254   1.012 -0.0809  0.2185 -0.1932
  238MOL0     C31302   4.545   5.205   1.142  0.0154 -0.5476  0.8342
  238MOL0     C31303   4.413   5.206   1.183 -0.9301  0.3993  0.7808
  238MOL0     C31304   4.372   5.170   1.319  0.3610 -0.5293  0.2848
  238MOL0     C31305   4.409   5.281   1.423 -0.2766 -0.0151 -0.5448
  238MOL0     C31306   4.310   5.284   1.546 -0.8249  0.2847 -0.3499
  238MOL0     C31307   4.343   5.402   1.640 -0.3623  0.5219 -0.2502
  238MOL0     O31308   4.254   5.376   1.749  0.1809  0.3199  0.4890
  238MOL0     C31309   4.141   5.452   1.750 -0.6698 -0.7139 -0.2803
  238MOL0     C31310   4.136   5.552   1.849  0.1591 -0.2944 -0.7121
  238MOL0     C31311   4.030   5.646   1.852  0.0003 -0.4767 -0.3529
  238MOL0     C31312   3.921   5.633   1.768  0.5136  0.6004  0.0006
  238MOL0     C31313   3.800   5.720   1.779  1.4140  0.3642 -0.1877
  238MOL0     O31314   3.695   5.697   1.692  0.0413 -0.2896 -0.1018
  238MOL0     C31315   3.597   5.795   1.700  0.8150 -0.0157 -0.3256
  238MOL0     C31316   3.606   5.908   1.628 -0.2946 -0.5651  0.2598
  238MOL0     C31317   3.494   6.000   1.617  0.5430  0.2142  0.7627
  238MOL0     C31318   3.375   5.983   1.694  0.8481 -0.0019  0.6070
  238MOL0     O31319   3.276   6.077   1.698  0.1832 -0.3056  0.4491
  238MOL0     C31320   3.133   6.048   1.660 -0.4576  0.8410  0.1374
  238MOL0     C31321   3.058   6.178   1.705  0.6512  0.2325 -0.5630
  238MOL0     C31322   2.908   6.154   1.710  0.3342  0.0291  0.4596
  238MOL0     C31323   2.866   6.120   1.856  0.2477  0.4634 -0.2266
  238MOL0     C31324   2.715   6.111   1.852  0.9268 -0.2630  0.0975
  238MOL0     C31325   2.652   6.067   1.989 -0.3415  0.0799 -0.4748
  238MOL0     C31326   2.518   6.116   2.007 -0.1389 -1.1297 -0.3403
  238MOL0     C31327   2.474   6.115   2.151 -0.4809 -0.1496  0.1443
  238MOL0    Cl31328   2.484   5.941   2.204  0.0939 -0.2358  0.6954
  238MOL0     C31329   3.358   5.857   1.759 -1.2412  0.0940  0.3938
  238MOL0     C31330   3.477   5.771   1.772  0.1296 -0.1078  0.1419
  238MOL0     O31331   3.792   5.806   1.878  0.6693  0.9017 -0.3006
  238MOL0     C31332   3.928   5.542   1.660  0.6557 -0.9227 -0.3630
  238MOL0     C31333   4.035   5.445   1.656 -0.0069  0.0574  0.9547
  238MOL0     N31334   4.324   5.249   1.082 -0.4553 -0.1167 -0.4262
  238MOL0     N31335   4.399   5.283   0.983 -1.1373 -0.4645  0.2221
  238MOL0     C31336   5.630   5.084   0.425  0.3519  0.5559  0.1535
  238MOL0     C31337   5.751   5.141   0.428  0.1985 -0.2694  0.1544
  238MOL0     C31338   6.162   5.307   0.505  0.1910  0.0138 -0.2271
  238MOL0     C31339   6.222   5.425   0.464  0.1137  0.4457 -0.0878
  238MOL0     C31340   6.358   5.450   0.470  0.1492  0.2899  0.1507
  238MOL0     C31341   6.443   5.346   0.509  0.7926 -0.4837  0.5428
  238MOL0     O31342   6.577   5.373   0.504  0.2419  0.3368  0.2617
  238MOL0     C31343   6.662   5.267   0.546 -0.1431 -0.1605  0.0830
  238MOL0     C31344   6.783   5.345   0.593  0.2166 -0.9768  0.2532
  238MOL0     C31345   6.900   5.252   0.623  0.4084  1.2362 -0.2169
  238MOL0     C31346   7.015   5.331   0.676 -0.0939  0.3789 -0.1085
  238MOL0     C31347   7.129   5.240   0.683  0.4538 -0.0470 -0.0108
  238MOL0     C31348   7.222   5.162   0.676 -0.6141  0.1053 -0.2555
  238MOL0     C31349   6.383   5.212   0.529  0.5520 -0.2208  0.3215
  238MOL0     C31350   6.247   5.195   0.539  0.5314  0.3727  0.3439
  238MOL0     H31351   5.855   5.019   0.727  1.2699 -0.0528 -0.3385
  238MOL0     H31352   5.632   4.896   0.702  0.4513  1.2717  0.9932
  238MOL0     H31353   5.434   4.878   0.682 -0.9531 -2.0216 -0.9533
  238MOL0     H31354   5.317   4.826   0.566  0.2923  0.5247 -0.9998
  238MOL0     H31355   5.257   5.047   0.499 -0.2948  2.0090  0.1683
  238MOL0     H31356   5.352   5.107   0.642  1.1279 -1.6974  3.1871
  238MOL0     H31357   5.197   4.948   0.777 -0.3176 -1.2529 -0.4161
  238MOL0     H31358   5.105   4.920   0.624 -2.8886 -0.5076  2.4842
  238MOL0     H31359   5.106   5.197   0.749 -0.7887  0.3515  0.0742
  238MOL0     H31360   5.020   5.147   0.614 -1.0768  3.3706  1.2142
  238MOL0     H31361   4.983   5.075   0.917 -2.8390 -0.0291  0.7096
  238MOL0     H31362   4.891   4.988   0.800 -1.9284  1.3490 -0.4222
  238MOL0     H31363   4.809   5.218   0.725 -0.5291  0.2669  0.5735
  238MOL0     H31364   4.899   5.287   0.855 -1.9962 -0.1593  1.2642
  238MOL0     H31365   4.693   5.068   0.886 -1.4013  1.2236 -1.3943
  238MOL0     H31366   4.779   5.138   1.014 -2.2057 -0.3891 -0.3380
  238MOL0     H31367   4.589   5.289   0.825  0.3684 -2.5373 -0.9524
  238MOL0     H31368   4.685   5.365   0.950 -0.5417  0.2057 -1.2707
  238MOL0     H31369   4.638   5.192   1.196 -0.7525  0.3258  2.4567
  238MOL0     H31370   4.408   5.070   1.345  0.5401 -0.1104  1.7306
  238MOL0     H31371   4.263   5.162   1.307  0.3642  0.0069 -0.1378
  238MOL0     H31372   4.389   5.375   1.371 -0.8532 -0.1253 -0.5300
  238MOL0     H31373   4.510   5.265   1.461 -0.7633 -3.4945 -0.4337
  238MOL0     H31374   4.207   5.300   1.514 -0.4004  1.1773 -1.3381
  238MOL0     H31375   4.316   5.196   1.610 -0.6020  0.9085  0.5019
  238MOL0     H31376   4.326   5.494   1.583 -0.5739  0.9342  0.4549
  238MOL0     H31377   4.442   5.414   1.684 -1.1262  1.7390  1.2596
  238MOL0     H31378   4.219   5.567   1.918 -1.8435 -0.2137  1.8231
  238MOL0     H31379   4.044   5.734   1.914 -0.3347 -1.3443  0.9869
  238MOL0     H31380   3.699   5.910   1.572 -0.1858 -3.9507  0.1646
  238MOL0     H31381   3.494   6.085   1.549  0.2668 -0.8681 -0.6214
  238MOL0     H31382   3.102   5.962   1.720  2.8989 -0.2804  0.4573
  238MOL0     H31383   3.107   6.024   1.557 -0.6161  0.8946  0.1634
  238MOL0     H31384   3.084   6.261   1.638 -0.8357  1.3303  0.1646
  238MOL0     H31385   3.099   6.206   1.803 -0.6419 -0.1331  0.0980
  238MOL0     H31386   2.878   6.068   1.648 -1.2641 -0.1016  1.3462
  238MOL0     H31387   2.855   6.242   1.672  0.2023  0.6879  2.1246
  238MOL0     H31388   2.929   6.031   1.866  1.6283  1.2458 -1.5356
  238MOL0     H31389   2.899   6.199   1.923  2.4139  0.7188 -1.4979
  238MOL0     H31390   2.668   6.052   1.773 -1.7785  0.6848  0.8972
  238MOL0     H31391   2.680   6.214   1.841  2.2562  0.3247  1.0351
  238MOL0     H31392   2.720   6.091   2.071  1.7749  0.5988 -2.2983
  238MOL0     H31393   2.655   5.957   1.987  0.2289  0.1034 -1.2559
  238MOL0     H31394   2.509   6.220   1.974 -2.9461 -1.1436  0.1188
  238MOL0     H31395   2.448   6.058   1.945  1.1711 -2.4552 -0.6570
  238MOL0     H31396   2.374   6.161   2.148 -0.5276 -0.1748  0.9777
  238MOL0     H31397   2.529   6.176   2.224  0.7054  0.7861 -1.4776
  238MOL0     H31398   3.273   5.822   1.817  0.9144 -1.4066  2.8900
  238MOL0     H31399   3.474   5.676   1.824  0.5373  0.3848  1.1084
  238MOL0     H31400   3.842   5.532   1.594  1.6481  4.3795 -2.9827
  238MOL0     H31401   4.030   5.384   1.567 -1.4566  1.3910  0.0747
  238MOL0     H31402   5.557   5.100   0.346 -0.8813  3.5929  1.7341
  238MOL0     H31403   5.767   5.212   0.347 -0.3034  0.9038  1.0575
  238MOL0     H31404   6.151   5.505   0.442  0.6679  2.0364  3.3128
  238MOL0     H31405   6.404   5.543   0.439  1.3301 -1.2328 -3.2157
  238MOL0     H31406   6.693   5.207   0.461  1.0324  0.5663 -0.0196
  238MOL0     H31407   6.623   5.208   0.629  2.1932  3.3760  4.1372
  238MOL0     H31408   6.801   5.408   0.506 -1.6786  2.4126  2.1115
  238MOL0     H31409   6.759   5.405   0.682  1.4788 -0.6918  0.4096
  238MOL0     H31410   6.929   5.210   0.527  0.8159 -2.9194  1.5255
  238MOL0     H31411   6.883   5.170   0.693  2.1723  0.7996 -0.2619
  238MOL0     H31412   7.033   5.413   0.606 -2.4102  3.8194  2.9588
  238MOL0     H31413   7.011   5.385   0.771  1.3086  0.3057  0.0186
  238MOL0     H31414   7.297   5.087   0.668 -1.3387 -0.5408 -1.1983
  238MOL0     H31415   6.436   5.128   0.572  0.9382 -0.0679  0.1477
  238MOL0     H31416   6.213   5.102   0.584 -1.7343  0.7233 -0.5190
  239MOL0     O31417   6.800   4.087   4.683  0.7786 -0.6851 -0.3509
  239MOL0     C31418   6.732   4.142   4.597  0.1428  0.3261 -0.0194
  239MOL0     O31419   6.775   4.248   4.517 -0.0426  0.3984  0.3956
  239MOL0     C31420   6.896   4.303   4.543  0.1013 -0.4565 -0.5642
  239MOL0     C31421   6.900   4.434   4.584  0.4984 -0.9641  0.3593
  239MOL0     C31422   7.010   4.512   4.612 -0.2053  0.0540 -1.1771
  239MOL0     C31423   7.130   4.446   4.602  0.4085  0.3605 -0.1503
  239MOL0     O31424   7.255   4.505   4.617  0.6650 -0.0605 -0.1416
  239MOL0     C31425   7.278   4.533   4.760  0.1062 -0.0670  0.5357
  239MOL0     C31426   7.423   4.517   4.805 -0.6827  0.8962  0.3812
  239MOL0     C31427   7.476   4.377   4.776  0.2133 -0.5175 -1.1761
  239MOL0     C31428   7.420   4.252   4.863 -0.4614  0.0467  0.4827
  239MOL0     C31429   7.522   4.139   4.864 -0.2557  0.0245  0.6671
  239MOL0     C31430   7.469   4.019   4.962  0.1274 -0.0570  0.3323
  239MOL0     C31431   7.474   4.054   5.110  0.3950  0.6677  0.4259
  239MOL0     C31432   7.442   3.925   5.196 -0.5535  0.0382  0.0689
  239MOL0     N31433   7.456   3.949   5.340  0.1902 -0.5887  0.1022
  239MOL0     C31434   7.355   3.998   5.425 -0.3572 -0.0344 -0.5401
  239MOL0     C31435   7.421   4.003   5.547  0.1607  1.0305 -0.6745
  239MOL0     C31436   7.354   4.048   5.675 -0.5237  0.5078  0.5729
  239MOL0     C31437   7.257   3.971   5.757  0.6842  0.5206 -0.2660
  239MOL0     C31438   7.139   3.911   5.678  0.2106  0.5278  0.7880
  239MOL0     C31439   7.008   3.913   5.750  1.3316 -0.6215 -0.5431
  239MOL0     O31440   6.925   3.845   5.657  0.8665  0.3411 -0.1993
  239MOL0     C31441   6.785   3.865   5.668  1.3665  0.2477  0.2325
  239MOL0     C31442   6.710   3.757   5.622  0.3881 -0.5947  0.4138
  239MOL0     C31443   6.577   3.755   5.662 -0.3581 -0.1686 -0.2825
  239MOL0     C31444   6.512   3.845   5.745  0.2279  0.0724  0.4486
  239MOL0     C31445   6.365   3.839   5.774 -0.6314  0.4715 -0.6884
  239MOL0     O31446   6.316   3.940   5.850 -0.2984  0.2310  0.4944
  239MOL0     C31447   6.181   3.937   5.890 -0.1416  0.0013 -0.4790
  239MOL0     C31448   6.079   3.878   5.822  1.0970 -0.6982 -0.5868
  239MOL0     C31449   5.944   3.878   5.873  0.1886  0.7281 -0.4067
  239MOL0     C31450   5.917   3.939   5.995 -0.0333  0.0019 -0.4067
  239MOL0     O31451   5.787   3.958   6.041  0.3414 -0.3253  0.1280
  239MOL0     C31452   5.691   4.010   5.941  0.8619 -0.5358 -0.0595
  239MOL0     C31453   5.564   4.039   6.008 -0.1020  0.0451  0.4109
  239MOL0     C31454   5.465   3.921   5.986 -0.2514  0.0071  0.4839
  239MOL0     C31455   5.319   3.969   6.031 -0.3134  0.5663 -0.1201
  239MOL0     C31456   5.222   3.853   6.007  0.1404 -0.3139  0.2775
  239MOL0     C31457   5.070   3.877   6.020 -0.4688 -0.2899 -0.4735
  239MOL0     C31458   4.996   3.750   6.060  0.0739 -0.1889 -0.4779
  239MOL0     C31459   4.847   3.776   6.090 -0.3069 -0.4955 -0.2556
  239MOL0    Cl31460   4.760   3.779   5.936  0.1453  0.0644  0.0033
  239MOL0     C31461   6.024   3.998   6.070  0.2314  0.0532  0.3733
  239MOL0     C31462   6.156   3.994   6.016 -0.5602 -0.2209 -0.6185
  239MOL0     O31463   6.311   3.733   5.740  0.3488 -0.5141  0.1087
  239MOL0     C31464   6.589   3.954   5.779 -0.5157  0.4554  0.2858
  239MOL0     C31465   6.723   3.962   5.749 -0.4146  0.5207  0.0643
  239MOL0     N31466   7.545   3.944   5.533 -0.4241 -0.1979  0.6365
  239MOL0     N31467   7.565   3.914   5.404 -0.0420 -0.2451  0.5094
  239MOL0     C31468   7.138   4.310   4.564 -0.2991  0.5276 -0.3989
  239MOL0     C31469   7.020   4.237   4.533  0.0687  0.5319 -0.2992
  239MOL0     C31470   6.589   4.093   4.596  0.1741 -0.2319 -0.1937
  239MOL0     C31471   6.540   4.011   4.702  0.2200  0.7432 -0.4862
  239MOL0     C31472   6.403   3.984   4.703 -0.5912 -0.1722  0.2884
  239MOL0     C31473   6.329   3.996   4.589  0.0719 -0.3645 -0.1006
  239MOL0     O31474   6.217   3.935   4.579  0.1654  0.0798  0.5011
  239MOL0     C31475   6.107   4.017   4.588  0.5129 -0.0963 -0.4016
  239MOL0     C31476   5.980   3.927   4.623 -0.3940 -0.6118 -0.1940
  239MOL0     C31477   5.968   3.790   4.560  0.6323 -0.2173 -0.5745
  239MOL0     C31478   5.830   3.731   4.579  0.3324 -0.6759  0.0149
  239MOL0     C31479   5.824   3.608   4.506 -0.3615  0.5395  0.7136
  239MOL0     C31480   5.810   3.509   4.448  1.0231  0.1766  0.2888
  239MOL0     C31481   6.380   4.079   4.486 -0.0516 -0.1856  0.8399
  239MOL0     C31482   6.515   4.130   4.487  0.2534  0.2659 -0.0479
  239MOL0     H31483   6.805   4.487   4.586  0.0018 -1.7617 -0.8466
  239MOL0     H31484   7.000   4.612   4.653 -0.6636 -0.2685 -0.4918
  239MOL0     H31485   7.219   4.478   4.834 -0.9738 -0.7045 -0.7398
  239MOL0     H31486   7.256   4.640   4.768 -0.1980  0.0078 -0.9913
  239MOL0     H31487   7.437   4.544   4.910  2.4872  0.5118  0.1566
  239MOL0     H31488   7.490   4.583   4.750  1.8454 -0.5486  1.5821
  239MOL0     H31489   7.582   4.391   4.799 -0.2437  2.0003 -0.3332
  239MOL0     H31490   7.473   4.346   4.671  0.1580  0.1507 -1.3764
  239MOL0     H31491   7.412   4.293   4.964  1.6299  0.6332  0.4608
  239MOL0     H31492   7.319   4.231   4.828 -1.0586  2.8355  0.2959
  239MOL0     H31493   7.622   4.170   4.895 -0.8424  3.8703 -0.7438
  239MOL0     H31494   7.528   4.105   4.761  5.0179  0.7662  0.4315
  239MOL0     H31495   7.544   3.942   4.943 -0.5105 -0.3852 -1.0186
  239MOL0     H31496   7.372   3.975   4.935 -0.5955  1.8952 -0.4565
  239MOL0     H31497   7.580   4.081   5.121  0.8334  0.3043 -2.2618
  239MOL0     H31498   7.396   4.129   5.125 -3.0704 -2.4347 -0.6373
  239MOL0     H31499   7.513   3.845   5.173 -2.3372 -1.7479  0.4495
  239MOL0     H31500   7.342   3.884   5.176  0.7760 -1.8177 -3.7332
  239MOL0     H31501   7.253   4.029   5.405  0.1071  0.2485 -2.7159
  239MOL0     H31502   7.302   4.142   5.655 -1.0623  0.4856  1.7967
  239MOL0     H31503   7.437   4.076   5.741  0.4236 -0.2967 -0.2303
  239MOL0     H31504   7.214   4.042   5.829  3.1305  0.4629  1.4044
  239MOL0     H31505   7.295   3.888   5.817  1.4045  1.9505  1.3621
  239MOL0     H31506   7.143   3.973   5.588  2.5307 -1.0126 -0.2880
  239MOL0     H31507   7.161   3.807   5.652 -1.2919  1.0119 -2.8950
  239MOL0     H31508   6.981   4.016   5.775  1.0587 -0.0892 -2.8237
  239MOL0     H31509   7.009   3.874   5.852 -1.7061  0.5257  0.0181
  239MOL0     H31510   6.751   3.684   5.554  0.1532 -1.9023  1.6366
  239MOL0     H31511   6.524   3.665   5.633  0.9513 -0.9600 -0.2701
  239MOL0     H31512   6.086   3.829   5.725 -0.7898 -0.6902 -0.7691
  239MOL0     H31513   5.861   3.839   5.815  0.9703  0.0429 -1.0898
  239MOL0     H31514   5.671   3.931   5.868 -0.7095 -0.5242  0.3317
  239MOL0     H31515   5.733   4.102   5.898  0.7076 -1.0001 -1.2476
  239MOL0     H31516   5.533   4.133   5.961  1.4814  1.1820  1.5509
  239MOL0     H31517   5.586   4.049   6.114  2.0421  2.9226 -0.1704
  239MOL0     H31518   5.508   3.824   6.010 -0.9059 -0.6250 -0.7955
  239MOL0     H31519   5.457   3.899   5.879 -0.3974 -0.0268  0.5011
  239MOL0     H31520   5.333   4.005   6.133  1.8827  1.3069 -0.6314
  239MOL0     H31521   5.274   4.050   5.973 -1.4262 -0.6704 -1.0379
  239MOL0     H31522   5.260   3.774   6.072  4.1875 -0.7959 -2.3346
  239MOL0     H31523   5.242   3.823   5.904 -0.2409  1.2535 -0.2885
  239MOL0     H31524   5.044   3.917   5.922  2.9126  1.8595 -0.6633
  239MOL0     H31525   5.046   3.955   6.093 -1.4207 -0.0085 -1.0822
  239MOL0     H31526   5.003   3.674   5.982 -2.3068 -1.7166  0.6613
  239MOL0     H31527   5.036   3.709   6.153  2.5126  2.6438 -0.1395
  239MOL0     H31528   4.819   3.863   6.150 -0.5586 -1.3159  0.8507
  239MOL0     H31529   4.817   3.690   6.151 -0.4700 -1.2533 -1.3705
  239MOL0     H31530   6.013   4.042   6.169  0.7668 -0.1478  0.5274
  239MOL0     H31531   6.239   4.031   6.076 -0.0747 -3.2286  0.7406
  239MOL0     H31532   6.548   4.031   5.843 -1.0119  0.5264 -0.1097
  239MOL0     H31533   6.772   4.055   5.777  0.4894  0.1676 -0.2925
  239MOL0     H31534   7.237   4.265   4.563  0.1641  0.9645  4.2981
  239MOL0     H31535   7.023   4.132   4.503  1.3359  0.0257  1.4470
  239MOL0     H31536   6.602   3.992   4.789  1.3947  0.0079 -1.4391
  239MOL0     H31537   6.359   3.924   4.782 -0.3944 -2.6780 -1.4005
  239MOL0     H31538   6.080   4.047   4.486 -1.7425 -1.2751 -0.2141
  239MOL0     H31539   6.112   4.106   4.651  1.3123  1.1217 -2.0968
  239MOL0     H31540   5.974   3.923   4.732 -1.6877  2.8090 -0.0293
  239MOL0     H31541   5.890   3.983   4.597  0.5951  0.5877 -1.1224
  239MOL0     H31542   6.050   3.726   4.593  1.9435  0.7349 -1.7923
  239MOL0     H31543   5.992   3.814   4.456 -1.4700  1.1615 -0.7841
  239MOL0     H31544   5.807   3.717   4.685 -1.5813  0.2415 -0.2409
  239MOL0     H31545   5.755   3.805   4.552  0.2068 -0.3042  1.3183
  239MOL0     H31546   5.789   3.412   4.408 -0.5365  0.0209  1.3792
  239MOL0     H31547   6.324   4.086   4.393 -0.0696 -5.8531  0.0741
  239MOL0     H31548   6.544   4.194   4.405  0.0315 -2.6240 -2.5396
  240MOL0     O31549   6.291   7.509   5.224 -0.5018  0.3398  0.5261
  240MOL0     C31550   6.331   7.399   5.196  0.2312  0.3780 -0.3203
  240MOL0     O31551   6.256   7.293   5.145  0.1303  0.2635 -1.0081
  240MOL0     C31552   6.121   7.305   5.119  0.0800  0.6513  0.2036
  240MOL0     C31553   6.049   7.189   5.146 -0.7462  0.3642 -0.5076
  240MOL0     C31554   5.916   7.195   5.143  0.4320  0.2119  0.1218
  240MOL0     C31555   5.853   7.311   5.092  1.2080  0.6698 -1.1305
  240MOL0     O31556   5.716   7.308   5.094  0.3438 -0.2693  0.4297
  240MOL0     C31557   5.643   7.415   5.031  0.0399 -0.6280  0.4168
  240MOL0     C31558   5.491   7.408   5.068 -0.8127 -1.1147 -0.1142
  240MOL0     C31559   5.414   7.290   5.000  0.2564  0.6075  0.3771
  240MOL0     C31560   5.270   7.311   5.005 -0.9629 -1.0673 -0.2057
  240MOL0     C31561   5.183   7.209   4.914  0.4760  0.1374 -1.0679
  240MOL0     C31562   5.030   7.230   4.940 -0.5553  0.3877  0.6121
  240MOL0     C31563   4.994   7.201   5.090 -0.9796  0.3054  1.0299
  240MOL0     C31564   4.841   7.177   5.100  0.0829  0.3270  0.1051
  240MOL0     N31565   4.780   7.305   5.072  0.6072 -0.7168 -0.4570
  240MOL0     C31566   4.825   7.434   5.093 -0.2217 -0.5129  0.0629
  240MOL0     C31567   4.720   7.512   5.058 -0.8703  1.0068  0.6127
  240MOL0     C31568   4.718   7.655   5.042 -0.4617  0.0918 -0.7755
  240MOL0     C31569   4.776   7.743   5.150  0.0186  0.0107  0.1342
  240MOL0     C31570   4.769   7.895   5.116 -0.3576 -0.9181  0.1329
  240MOL0     C31571   4.892   7.946   5.050 -0.9555  0.3166  0.2656
  240MOL0     O31572   4.912   8.073   5.109  0.2295 -0.4172  0.3354
  240MOL0     C31573   5.043   8.119   5.105 -0.4706  0.1002  0.5972
  240MOL0     C31574   5.146   8.047   5.165  0.5195 -0.2559 -0.7531
  240MOL0     C31575   5.276   8.076   5.132  0.1554  0.1455  0.6006
  240MOL0     C31576   5.313   8.187   5.041  0.0801 -0.0135 -0.3018
  240MOL0     C31577   5.445   8.209   4.991 -0.5733 -0.0889 -0.0914
  240MOL0     O31578   5.556   8.141   5.052  0.4993 -0.3435  0.1518
  240MOL0     C31579   5.677   8.192   5.022 -0.5736 -0.4936  1.0826
  240MOL0     C31580   5.764   8.249   5.113 -0.8006  0.0475 -0.0788
  240MOL0     C31581   5.897   8.262   5.085 -0.5891 -0.7645 -0.2111
  240MOL0     C31582   5.954   8.208   4.968 -0.5071 -0.1861  0.4337
  240MOL0     O31583   6.086   8.233   4.954 -1.0383 -0.1024  0.5185
  240MOL0     C31584   6.158   8.151   4.863 -0.3958 -0.2860  0.2523
  240MOL0     C31585   6.311   8.174   4.855 -0.2147  0.2501 -0.5586
  240MOL0     C31586   6.378   8.182   4.998 -0.0867  0.3528 -0.1930
  240MOL0     C31587   6.383   8.044   5.071 -0.6874 -0.8773  0.2270
  240MOL0     C31588   6.465   8.068   5.195  0.4122  0.5375 -0.6777
  240MOL0     C31589   6.476   7.938   5.267 -0.4227  0.2114 -0.2953
  240MOL0     C31590   6.537   7.968   5.405 -0.4776  0.2041 -1.1751
  240MOL0     C31591   6.568   7.840   5.482 -0.0891  0.0022 -0.0995
  240MOL0    Cl31592   6.419   7.753   5.528  0.0799  0.2054  0.4437
  240MOL0     C31593   5.865   8.155   4.870 -1.4937  0.4582 -0.7068
  240MOL0     C31594   5.733   8.152   4.900  0.8325 -0.6431 -0.3115
  240MOL0     O31595   5.454   8.298   4.906 -0.1127  0.0913  0.3179
  240MOL0     C31596   5.202   8.262   4.999  0.2445 -0.9497  0.2350
  240MOL0     C31597   5.072   8.222   5.027 -0.3883  0.0687  0.2973
  240MOL0     N31598   4.616   7.433   5.029 -0.1863 -0.8171  0.5546
  240MOL0     N31599   4.648   7.314   5.033 -0.1302 -0.4167 -0.0849
  240MOL0     C31600   5.928   7.412   5.045  0.0677 -0.2891 -0.6113
  240MOL0     C31601   6.065   7.413   5.057  0.6910 -0.3090  0.7911
  240MOL0     C31602   6.471   7.368   5.236 -1.3725  0.2184  0.8694
  240MOL0     C31603   6.544   7.448   5.321  0.0796 -0.3671  0.4583
  240MOL0     C31604   6.683   7.420   5.346 -0.2859 -0.0584  0.2576
  240MOL0     C31605   6.749   7.314   5.280 -0.6205  0.6258 -1.2155
  240MOL0     O31606   6.878   7.289   5.309 -0.0205  0.1221  0.2634
  240MOL0     C31607   6.962   7.225   5.206  0.0320 -0.7233 -0.3940
  240MOL0     C31608   7.106   7.204   5.238  0.4515  0.3504 -0.5489
  240MOL0     C31609   7.164   7.328   5.298  0.0010  0.6854  0.1318
  240MOL0     C31610   7.304   7.317   5.358 -0.4910 -0.7586 -0.1324
  240MOL0     C31611   7.321   7.198   5.449 -0.9897 -1.2755  0.0952
  240MOL0     C31612   7.334   7.109   5.532 -0.1767 -1.0462 -0.0021
  240MOL0     C31613   6.669   7.239   5.190 -0.2806  0.3845  0.0229
  240MOL0     C31614   6.539   7.265   5.165  1.3067 -0.4251  0.4923
  240MOL0     H31615   6.117   7.109   5.176  0.3216  0.9090 -1.3781
  240MOL0     H31616   5.859   7.110   5.180 -2.3658  1.3647 -1.2072
  240MOL0     H31617   5.653   7.412   4.922  0.3314 -0.7132  0.4472
  240MOL0     H31618   5.680   7.509   5.070  0.7113  0.0577 -1.7102
  240MOL0     H31619   5.446   7.506   5.049  0.8312  0.3183  2.7836
  240MOL0     H31620   5.472   7.409   5.176  2.7232  1.2189  0.6453
  240MOL0     H31621   5.446   7.195   5.045 -2.7948  0.0905  1.6685
  240MOL0     H31622   5.445   7.285   4.895  1.0205 -0.8270  0.6403
  240MOL0     H31623   5.237   7.290   5.107  1.4288 -0.4275  0.7559
  240MOL0     H31624   5.236   7.409   4.971 -1.8023 -0.5577  1.9297
  240MOL0     H31625   5.207   7.104   4.934 -2.5641 -0.0844  2.4468
  240MOL0     H31626   5.196   7.229   4.807  0.1842  1.4030 -0.8779
  240MOL0     H31627   4.977   7.155   4.880  0.1880  0.8381 -0.6408
  240MOL0     H31628   4.991   7.327   4.909  1.5227  1.3500  0.8635
  240MOL0     H31629   5.040   7.106   5.120 -1.9931  0.4337  3.1862
  240MOL0     H31630   5.033   7.283   5.151  1.7627 -0.4753  0.4700
  240MOL0     H31631   4.827   7.142   5.202 -1.5149  4.8668  1.6500
  240MOL0     H31632   4.808   7.101   5.028 -0.9119 -0.4015  1.3119
  240MOL0     H31633   4.916   7.483   5.125 -1.1687  0.7063  0.9775
  240MOL0     H31634   4.612   7.682   5.046 -0.6306 -0.4186  4.3320
  240MOL0     H31635   4.753   7.692   4.945 -0.8138 -1.0022 -1.3433
  240MOL0     H31636   4.880   7.712   5.160 -0.0146  0.4008  2.2203
  240MOL0     H31637   4.716   7.723   5.240  0.0896  0.0214  0.1839
  240MOL0     H31638   4.679   7.915   5.057  1.1844  2.5271 -1.3292
  240MOL0     H31639   4.752   7.948   5.210 -3.5378  2.9075 -2.2876
  240MOL0     H31640   4.887   7.964   4.943  0.9445  1.3217  0.3083
  240MOL0     H31641   4.977   7.882   5.073  0.8986  1.4873 -2.7995
  240MOL0     H31642   5.104   7.976   5.236 -1.9704 -1.7954 -3.5506
  240MOL0     H31643   5.359   8.020   5.175  1.1785 -0.6526 -2.2181
  240MOL0     H31644   5.719   8.282   5.206 -1.0888  2.0416 -0.8799
  240MOL0     H31645   5.942   8.312   5.170 -1.6711 -2.4919  1.4695
  240MOL0     H31646   6.113   8.157   4.764  0.8208  1.3443 -0.2401
  240MOL0     H31647   6.130   8.049   4.889 -0.9857 -0.1164  0.2869
  240MOL0     H31648   6.327   8.262   4.793 -2.3547 -1.1894 -3.3700
  240MOL0     H31649   6.341   8.085   4.800 -3.4552 -1.2604 -0.1122
  240MOL0     H31650   6.333   8.262   5.058  2.1032  1.4362  0.1016
  240MOL0     H31651   6.482   8.211   4.980 -0.4319  0.0820 -3.0641
  240MOL0     H31652   6.279   8.031   5.104 -1.1080  2.5990  0.6909
  240MOL0     H31653   6.415   7.957   5.012 -1.4167 -0.8205 -0.2671
  240MOL0     H31654   6.417   8.137   5.265 -1.2958 -1.4570  0.2351
  240MOL0     H31655   6.566   8.104   5.173  0.1393  2.1252  0.4837
  240MOL0     H31656   6.548   7.870   5.220  0.6229  0.0024  1.5161
  240MOL0     H31657   6.376   7.896   5.273  0.2751 -1.2909  2.0656
  240MOL0     H31658   6.629   8.023   5.386  0.9975 -0.4547  3.0145
  240MOL0     H31659   6.469   8.033   5.462  0.7591  0.9707 -0.5382
  240MOL0     H31660   6.616   7.864   5.577  1.1230 -1.4307 -0.3215
  240MOL0     H31661   6.640   7.780   5.425  1.4662  1.8613 -0.1994
  240MOL0     H31662   5.899   8.118   4.773  2.7158  3.2119 -0.5544
  240MOL0     H31663   5.676   8.110   4.818  0.3801  0.5476 -0.6140
  240MOL0     H31664   5.208   8.357   4.947  0.1896 -1.4206 -0.6545
  240MOL0     H31665   5.005   8.288   4.974  1.7618  1.4279 -0.8892
  240MOL0     H31666   5.876   7.492   4.992 -0.4873 -0.4993 -0.3902
  240MOL0     H31667   6.122   7.497   5.018 -0.9483  1.9078  2.8813
  240MOL0     H31668   6.491   7.535   5.358 -2.0094 -0.2079 -2.5413
  240MOL0     H31669   6.746   7.479   5.412  1.8398 -2.3409  0.3940
  240MOL0     H31670   6.959   7.282   5.113 -1.3341  2.8895  1.6472
  240MOL0     H31671   6.915   7.130   5.181  0.9919 -1.7221  1.4392
  240MOL0     H31672   7.113   7.121   5.309  0.1075  1.4315  0.8087
  240MOL0     H31673   7.156   7.172   5.147 -0.9367 -1.7605 -0.6281
  240MOL0     H31674   7.102   7.345   5.387  2.6904 -2.9485  3.0018
  240MOL0     H31675   7.155   7.412   5.229 -1.1117  0.1511 -0.3987
  240MOL0     H31676   7.379   7.313   5.279 -1.4176 -0.7617 -1.0185
  240MOL0     H31677   7.328   7.412   5.406  0.3106 -0.7695 -0.4892
  240MOL0     H31678   7.355   7.049   5.617 -1.5671  0.0350  1.1557
  240MOL0     H31679   6.711   7.154   5.137 -1.7392 -1.4304  1.5960
  240MOL0     H31680   6.486   7.197   5.099  1.9528 -0.8526  0.3968
  241MOL0     O31681   9.517   9.177   0.491  0.2821  0.3651  0.0212
  241MOL0     C31682   9.567   9.143   0.389  0.6322  0.5348  0.1543
  241MOL0     O31683   9.510   9.069   0.286 -0.6376 -0.5835 -0.0072
  241MOL0     C31684   9.392   9.009   0.304  0.0160 -0.0125  0.6905
  241MOL0     C31685   9.284   9.040   0.226 -0.8595 -0.0313  0.4881
  241MOL0     C31686   9.147   8.986   0.250 -0.3092 -0.2462  0.1064
  241MOL0     C31687   9.131   8.892   0.352 -0.0074  0.0893  0.3865
  241MOL0     O31688   9.021   8.833   0.391 -0.1669 -0.0518  0.0181
  241MOL0     C31689   8.906   8.848   0.303 -0.2683 -0.3445 -0.3940
  241MOL0     C31690   8.803   8.744   0.344  0.2897 -0.2371  0.4173
  241MOL0     C31691   8.654   8.778   0.298 -0.2446  0.5980  0.5112
  241MOL0     C31692   8.550   8.673   0.355 -0.0398 -0.5544  1.5291
  241MOL0     C31693   8.399   8.716   0.340 -0.3547 -0.0150 -0.5774
  241MOL0     C31694   8.340   8.670   0.204  0.4912  0.4272  0.6241
  241MOL0     C31695   8.198   8.725   0.206  0.3865  0.2763  0.8228
  241MOL0     C31696   8.108   8.671   0.321 -0.6243  0.5500  1.0488
  241MOL0     N31697   7.964   8.670   0.280  0.6940  0.0285 -0.6945
  241MOL0     C31698   7.890   8.773   0.227 -0.0582 -0.3673  0.2824
  241MOL0     C31699   7.764   8.727   0.203  0.1041 -0.6643  0.4242
  241MOL0     C31700   7.646   8.815   0.150  0.0096 -0.5791 -0.6013
  241MOL0     C31701   7.516   8.775   0.204  0.2134 -0.3423  0.6049
  241MOL0     C31702   7.408   8.873   0.165  0.1710  1.3175  0.1254
  241MOL0     C31703   7.424   9.020   0.226  0.4615 -0.4764  0.2355
  241MOL0     O31704   7.289   9.084   0.234  0.0012  0.0743  0.7571
  241MOL0     C31705   7.224   9.100   0.351 -0.3103 -0.2716 -0.0140
  241MOL0     C31706   7.123   9.188   0.333  0.1153 -0.5157 -0.8837
  241MOL0     C31707   7.047   9.231   0.441  0.2812 -0.7195 -0.2203
  241MOL0     C31708   7.066   9.169   0.567  0.3502 -0.6595 -0.3371
  241MOL0     C31709   6.968   9.194   0.685 -0.0189 -1.0460 -0.1215
  241MOL0     O31710   6.856   9.281   0.661  0.2228 -0.1382  0.2281
  241MOL0     C31711   6.749   9.309   0.749 -0.1690 -0.3770 -0.9799
  241MOL0     C31712   6.742   9.271   0.880 -0.3503 -0.9504 -0.4505
  241MOL0     C31713   6.652   9.327   0.974  0.2143 -1.0170  0.1917
  241MOL0     C31714   6.559   9.411   0.930  0.2547  0.2118 -0.1062
  241MOL0     O31715   6.464   9.472   1.012 -0.5316  0.1651  0.0357
  241MOL0     C31716   6.413   9.384   1.110 -0.4461 -0.0641 -0.2747
  241MOL0     C31717   6.298   9.447   1.198 -0.3679 -0.2083 -0.3739
  241MOL0     C31718   6.194   9.520   1.113 -0.8133 -0.6300 -0.4404
  241MOL0     C31719   6.085   9.594   1.196 -0.8376  1.4816 -0.2725
  241MOL0     C31720   5.994   9.657   1.093 -0.1202 -0.4198 -0.0023
  241MOL0     C31721   5.889   9.747   1.149 -0.8266 -0.2393 -0.3526
  241MOL0     C31722   5.768   9.690   1.214 -0.0905 -0.4641 -0.5495
  241MOL0     C31723   5.643   9.663   1.129  0.2658  0.0066 -0.2552
  241MOL0    Cl31724   5.661   9.584   0.975  0.5286 -0.4894  0.4162
  241MOL0     C31725   6.568   9.451   0.795 -0.4660 -0.6606 -0.2487
  241MOL0     C31726   6.661   9.409   0.709 -0.3107  0.0257 -0.1976
  241MOL0     O31727   7.003   9.154   0.798 -1.1405 -0.4262  0.4797
  241MOL0     C31728   7.177   9.086   0.584  1.1088 -0.4988  1.0182
  241MOL0     C31729   7.262   9.049   0.475 -0.1502  0.3958 -0.1366
  241MOL0     N31730   7.766   8.593   0.236  0.5166  1.0711 -0.0035
  241MOL0     N31731   7.887   8.556   0.267  0.3312  0.4184 -0.3950
  241MOL0     C31732   9.239   8.868   0.430 -0.4043  0.0424 -0.1577
  241MOL0     C31733   9.366   8.920   0.406  0.0845  0.3833  0.2438
  241MOL0     C31734   9.703   9.198   0.379  0.2545  0.5707 -0.2779
  241MOL0     C31735   9.755   9.289   0.470 -0.1978 -0.1761  0.9651
  241MOL0     C31736   9.887   9.347   0.465  0.0896  0.2832  0.3121
  241MOL0     C31737   9.975   9.296   0.363 -0.4048 -0.0077  0.3120
  241MOL0     O31738  10.104   9.342   0.338 -0.4286  0.4696 -0.2250
  241MOL0     C31739  10.161   9.441   0.422  0.3829 -0.7817 -0.0849
  241MOL0     C31740  10.309   9.463   0.391  1.1450  0.2103 -0.3021
  241MOL0     C31741  10.377   9.340   0.454 -0.6656 -0.1568 -0.0176
  241MOL0     C31742  10.523   9.322   0.401  0.0624  0.7412  0.3015
  241MOL0     C31743  10.598   9.247   0.511  0.7834 -0.0097  0.6943
  241MOL0     C31744  10.669   9.183   0.579 -0.3183  0.7738 -0.7189
  241MOL0     C31745   9.930   9.194   0.279  0.3145 -0.0427  0.0574
  241MOL0     C31746   9.794   9.159   0.277  1.0653 -0.6975 -0.4105
  241MOL0     H31747   9.295   9.106   0.141 -0.6688  0.0567  0.5789
  241MOL0     H31748   9.062   9.018   0.190  0.7551  1.1762 -0.6920
  241MOL0     H31749   8.926   8.842   0.196 -1.1787 -2.2944 -0.4907
  241MOL0     H31750   8.865   8.947   0.327 -2.8749 -1.2918 -0.6265
  241MOL0     H31751   8.805   8.718   0.450  1.1307 -4.4428 -0.4630
  241MOL0     H31752   8.828   8.652   0.291  3.8034  0.4013  0.7265
  241MOL0     H31753   8.630   8.773   0.192 -0.4825  1.8542  0.4865
  241MOL0     H31754   8.628   8.879   0.330 -0.5317  1.0252 -1.0250
  241MOL0     H31755   8.572   8.582   0.298  0.1186 -0.3000  1.1837
  241MOL0     H31756   8.571   8.656   0.461  0.2030  1.8548  1.9173
  241MOL0     H31757   8.402   8.826   0.344  0.3535 -0.0650  1.6850
  241MOL0     H31758   8.333   8.690   0.423 -0.1092  4.0229  1.1630
  241MOL0     H31759   8.327   8.563   0.185 -2.6352  1.0434 -1.6576
  241MOL0     H31760   8.398   8.714   0.123 -0.9605 -0.0093 -0.7025
  241MOL0     H31761   8.202   8.833   0.222 -0.6926  0.6443 -1.0971
  241MOL0     H31762   8.152   8.710   0.108  1.2697 -0.1394  0.4626
  241MOL0     H31763   8.126   8.717   0.418  0.4246 -2.6646  2.5310
  241MOL0     H31764   8.133   8.565   0.337  3.7394  1.4789  1.7328
  241MOL0     H31765   7.917   8.877   0.212 -1.1484  0.1432  1.6222
  241MOL0     H31766   7.653   8.824   0.041  1.8337  0.6878 -0.4148
  241MOL0     H31767   7.653   8.918   0.185 -3.9533  0.4994 -2.4046
  241MOL0     H31768   7.523   8.778   0.313  0.4314 -1.6509  0.6462
  241MOL0     H31769   7.481   8.679   0.166  0.2973  0.5914 -1.9896
  241MOL0     H31770   7.400   8.878   0.056  0.4431 -3.0764 -0.2976
  241MOL0     H31771   7.310   8.836   0.198 -0.1372  0.0356 -2.0152
  241MOL0     H31772   7.485   9.085   0.163  0.6822  1.4457  2.2927
  241MOL0     H31773   7.467   9.024   0.326 -1.5026 -1.6667  1.1810
  241MOL0     H31774   7.103   9.229   0.235 -0.3316 -0.2058 -0.6665
  241MOL0     H31775   6.962   9.298   0.427 -0.4240 -1.1092  1.8317
  241MOL0     H31776   6.821   9.214   0.928  2.2634  3.4717  1.1311
  241MOL0     H31777   6.664   9.282   1.072  1.8046 -0.7871  0.1347
  241MOL0     H31778   6.498   9.364   1.176  0.5085  0.8013 -1.1946
  241MOL0     H31779   6.371   9.295   1.063 -3.7401 -0.7855  3.4833
  241MOL0     H31780   6.337   9.513   1.275 -0.1679 -1.8447  0.9864
  241MOL0     H31781   6.249   9.364   1.250 -1.2271  0.2391 -0.4532
  241MOL0     H31782   6.139   9.452   1.047 -2.3882 -1.0348  1.1886
  241MOL0     H31783   6.245   9.600   1.060  1.8865 -0.9509  1.4799
  241MOL0     H31784   6.020   9.521   1.247  0.1357  1.2093  0.6123
  241MOL0     H31785   6.133   9.662   1.267  2.8920 -0.5190 -0.6329
  241MOL0     H31786   5.939   9.581   1.036  1.6166 -0.5645 -1.6058
  241MOL0     H31787   6.053   9.718   1.024 -0.7940  1.3316  0.9206
  241MOL0     H31788   5.850   9.801   1.063 -1.4712 -0.0556  0.0514
  241MOL0     H31789   5.946   9.810   1.219 -1.4967 -0.3896  0.3371
  241MOL0     H31790   5.793   9.590   1.251 -2.8863 -1.2635 -0.6067
  241MOL0     H31791   5.752   9.748   1.306 -0.1982 -1.3830  0.0287
  241MOL0     H31792   5.592   9.759   1.114 -0.2028 -0.3970 -1.3420
  241MOL0     H31793   5.574   9.600   1.184 -2.1751 -0.2588 -3.3628
  241MOL0     H31794   6.490   9.517   0.757 -0.7766  0.4604  2.1861
  241MOL0     H31795   6.670   9.446   0.607 -0.8314 -1.1053 -0.6702
  241MOL0     H31796   7.213   9.058   0.683  0.0616  0.4059  1.6845
  241MOL0     H31797   7.351   8.991   0.494 -1.8578 -2.5395 -0.5891
  241MOL0     H31798   9.221   8.808   0.519 -0.7757  2.2318  1.3290
  241MOL0     H31799   9.448   8.893   0.471 -0.8361 -4.7500 -0.2699
  241MOL0     H31800   9.693   9.314   0.556 -2.6557 -1.4369 -0.3241
  241MOL0     H31801   9.922   9.423   0.534  1.9342 -0.3208  0.1104
  241MOL0     H31802  10.139   9.420   0.527  2.4177 -1.8046  0.1936
  241MOL0     H31803  10.110   9.535   0.398  3.9284  1.0693 -1.1259
  241MOL0     H31804  10.316   9.467   0.282 -3.0561  0.1459 -0.7431
  241MOL0     H31805  10.341   9.555   0.441  1.8728 -0.3003  0.1657
  241MOL0     H31806  10.322   9.247   0.438  1.0176 -1.0948 -0.6043
  241MOL0     H31807  10.386   9.358   0.562  1.5503 -1.2672  0.0358
  241MOL0     H31808  10.524   9.261   0.309 -1.6406  0.9727  0.1039
  241MOL0     H31809  10.581   9.414   0.394 -0.5409  1.2661  1.9017
  241MOL0     H31810  10.720   9.112   0.640 -2.2593 -0.5174 -0.5239
  241MOL0     H31811  10.004   9.163   0.206 -0.1499  0.1075 -0.4945
  241MOL0     H31812   9.756   9.092   0.201 -3.5211  1.7450 -0.6265
  242MOL0     O31813   4.961   1.270   9.578 -0.0020 -0.1880  0.3923
  242MOL0     C31814   4.988   1.243   9.461  0.3182 -0.9762 -0.8575
  242MOL0     O31815   4.914   1.166   9.371  0.2586  0.4521 -0.4793
  242MOL0     C31816   4.778   1.165   9.388  1.0651 -0.0270 -0.6152
  242MOL0     C31817   4.725   1.034   9.374  0.0262 -0.1622 -0.1891
  242MOL0     C31818   4.580   1.021   9.369 -0.6389  0.7491  0.0193
  242MOL0     C31819   4.493   1.130   9.390  0.1418  0.3103  0.5652
  242MOL0     O31820   4.354   1.118   9.387 -0.4740 -0.0292 -1.0320
  242MOL0     C31821   4.308   1.001   9.453  0.0885  0.3556  0.3537
  242MOL0     C31822   4.183   1.045   9.526  0.5033 -0.0505  0.0015
  242MOL0     C31823   4.074   1.121   9.447 -0.4494 -0.0724  0.7062
  242MOL0     C31824   3.944   1.113   9.526 -0.1395 -0.2947 -0.3890
  242MOL0     C31825   3.831   1.161   9.443  1.0914  0.9550 -0.2043
  242MOL0     C31826   3.698   1.179   9.519 -0.4172 -0.6306  0.5498
  242MOL0     C31827   3.583   1.201   9.424  0.3944  0.5133 -0.8501
  242MOL0     C31828   3.589   1.332   9.353  0.1681  0.2724  0.3835
  242MOL0     N31829   3.483   1.344   9.252  0.0659 -0.4104  0.4148
  242MOL0     C31830   3.493   1.289   9.127 -0.3077  0.2774 -0.0056
  242MOL0     C31831   3.377   1.328   9.062  0.1067  0.1278 -0.8977
  242MOL0     C31832   3.316   1.301   8.928  0.2373  1.0309  0.3628
  242MOL0     C31833   3.306   1.153   8.896  0.1684 -0.7198  0.7109
  242MOL0     C31834   3.232   1.133   8.758 -0.3460 -0.5580  0.2763
  242MOL0     C31835   3.095   1.196   8.745  0.3717  0.2399  0.3147
  242MOL0     O31836   3.023   1.135   8.632 -0.2910 -0.4941 -1.0159
  242MOL0     C31837   2.885   1.157   8.625  0.0244 -0.0746 -0.5926
  242MOL0     C31838   2.795   1.058   8.590  0.2322 -0.9486  0.1951
  242MOL0     C31839   2.665   1.085   8.554 -0.9145  0.4012 -0.3527
  242MOL0     C31840   2.624   1.216   8.557  0.1928  0.3907  0.0763
  242MOL0     C31841   2.484   1.251   8.511  0.6645  0.2429  0.3510
  242MOL0     O31842   2.459   1.377   8.494  0.3143 -0.6066  0.3345
  242MOL0     C31843   2.341   1.430   8.448 -0.0400 -0.1723  0.2349
  242MOL0     C31844   2.337   1.512   8.331 -0.1759  0.0397  0.2373
  242MOL0     C31845   2.224   1.573   8.278 -0.3685  0.3116  0.0650
  242MOL0     C31846   2.096   1.550   8.345  0.4187  0.1283 -0.7288
  242MOL0     O31847   1.984   1.615   8.299 -0.1364 -0.1785  0.0691
  242MOL0     C31848   1.884   1.639   8.402 -0.5819  0.1552  0.3268
  242MOL0     C31849   1.803   1.758   8.349 -0.6595 -0.4791  0.9232
  242MOL0     C31850   1.757   1.759   8.201  0.1447  0.1838  0.4808
  242MOL0     C31851   1.644   1.858   8.185 -1.4814 -0.4677  0.0305
  242MOL0     C31852   1.597   1.855   8.029  0.5035 -0.0746 -0.6236
  242MOL0     C31853   1.445   1.890   8.000 -0.5232 -0.1772  0.0027
  242MOL0     C31854   1.419   1.832   7.861 -0.2910  0.1031  0.1361
  242MOL0     C31855   1.273   1.836   7.824  0.5579 -0.6969 -0.9570
  242MOL0    Cl31856   1.213   1.717   7.720  0.3744 -0.3638  0.1246
  242MOL0     C31857   2.096   1.477   8.464 -0.6558  0.7241 -0.2553
  242MOL0     C31858   2.217   1.410   8.511 -0.0042  0.7775  0.1079
  242MOL0     O31859   2.398   1.162   8.471 -0.0405 -0.3904  0.3385
  242MOL0     C31860   2.710   1.313   8.596  0.3309 -0.8685  0.4982
  242MOL0     C31861   2.841   1.287   8.636  0.7485 -0.0200 -0.0331
  242MOL0     N31862   3.314   1.417   9.153  0.5425 -0.0768 -0.9435
  242MOL0     N31863   3.371   1.423   9.267 -0.9418 -0.5432  0.0542
  242MOL0     C31864   4.554   1.260   9.409  0.0876  0.3779 -0.1063
  242MOL0     C31865   4.691   1.271   9.407 -0.0970  0.0260 -0.8397
  242MOL0     C31866   5.134   1.270   9.435 -0.6273 -0.1483  0.9405
  242MOL0     C31867   5.178   1.264   9.303 -0.4495  0.5773 -0.2691
  242MOL0     C31868   5.310   1.288   9.270 -0.3960  0.3123  0.0399
  242MOL0     C31869   5.405   1.336   9.371 -0.2335 -0.2478  0.1152
  242MOL0     O31870   5.520   1.390   9.329  0.2849  0.1956  0.3663
  242MOL0     C31871   5.601   1.465   9.419  0.3105 -0.4264 -1.1141
  242MOL0     C31872   5.730   1.499   9.348 -0.3485  0.6766  0.1257
  242MOL0     C31873   5.850   1.532   9.440 -0.4872  0.7296 -0.7482
  242MOL0     C31874   5.876   1.425   9.545 -0.6058  0.3555 -0.4009
  242MOL0     C31875   6.016   1.393   9.560  1.0890 -0.0308 -0.1509
  242MOL0     C31876   6.133   1.375   9.571 -0.1002  0.0045 -0.0250
  242MOL0     C31877   5.356   1.347   9.501  0.0633  0.1717 -1.1087
  242MOL0     C31878   5.220   1.311   9.535 -0.4258 -0.7470  0.6588
  242MOL0     H31879   4.781   0.944   9.350 -0.3101 -0.0724 -1.3498
  242MOL0     H31880   4.547   0.919   9.350  3.8143 -0.7689 -0.9349
  242MOL0     H31881   4.387   0.960   9.516  1.1700 -0.8974 -1.7194
  242MOL0     H31882   4.288   0.932   9.370  0.6546 -1.7520  1.8938
  242MOL0     H31883   4.211   1.108   9.611  1.4141  0.4465 -0.6403
  242MOL0     H31884   4.146   0.956   9.576 -1.7538 -0.0340 -1.5024
  242MOL0     H31885   4.059   1.079   9.347 -1.4995 -1.0526  1.2465
  242MOL0     H31886   4.097   1.227   9.432 -1.2910  0.0212 -0.0471
  242MOL0     H31887   3.931   1.014   9.571 -0.1947 -0.6602 -1.1863
  242MOL0     H31888   3.967   1.190   9.600 -1.3472 -0.7411  0.4991
  242MOL0     H31889   3.804   1.091   9.363 -0.0971 -2.1741  2.7106
  242MOL0     H31890   3.871   1.254   9.400  0.0825  2.5111  2.0279
  242MOL0     H31891   3.702   1.264   9.587  2.9308  2.2726 -2.8433
  242MOL0     H31892   3.673   1.088   9.575  1.3405 -0.4662  1.6620
  242MOL0     H31893   3.577   1.119   9.353 -0.0894  0.4160 -0.6952
  242MOL0     H31894   3.489   1.206   9.480 -0.7711 -0.9034 -2.6036
  242MOL0     H31895   3.679   1.336   9.290 -0.9592 -2.1585 -1.5839
  242MOL0     H31896   3.589   1.408   9.432  1.9679  0.3985  0.3049
  242MOL0     H31897   3.578   1.232   9.092  0.7955  1.5509  0.5113
  242MOL0     H31898   3.383   1.345   8.854  1.5229 -0.1647  0.7839
  242MOL0     H31899   3.222   1.355   8.919  0.1684  0.9042  0.3103
  242MOL0     H31900   3.262   1.102   8.982 -0.3943 -0.5101  0.5541
  242MOL0     H31901   3.410   1.118   8.892  0.3655 -0.0975  0.2550
  242MOL0     H31902   3.295   1.152   8.671 -0.2567  1.6373  0.7640
  242MOL0     H31903   3.218   1.025   8.761 -2.6425 -0.2897  2.7257
  242MOL0     H31904   3.105   1.304   8.737  2.0202  0.0235 -1.2538
  242MOL0     H31905   3.045   1.170   8.839  0.6922  0.7622  0.6356
  242MOL0     H31906   2.822   0.953   8.586  0.3121 -0.9289  0.2156
  242MOL0     H31907   2.600   1.003   8.525  0.6700 -1.3202  0.7485
  242MOL0     H31908   2.436   1.530   8.290 -0.3348 -1.4530 -0.9026
  242MOL0     H31909   2.230   1.637   8.191  0.8679 -1.6808 -1.4160
  242MOL0     H31910   1.924   1.686   8.492 -1.6582 -0.0711  0.9382
  242MOL0     H31911   1.818   1.553   8.415  1.5997 -1.8054 -0.9567
  242MOL0     H31912   1.867   1.845   8.365 -0.4445 -0.2601 -0.9372
  242MOL0     H31913   1.720   1.779   8.418 -1.4453 -2.9712  0.8411
  242MOL0     H31914   1.721   1.662   8.166 -1.8669  1.5521 -1.5640
  242MOL0     H31915   1.848   1.775   8.144 -0.9541 -0.9223 -1.7093
  242MOL0     H31916   1.563   1.818   8.246 -2.2150  2.5965  1.2304
  242MOL0     H31917   1.669   1.957   8.224 -0.1697 -1.1449  0.9626
  242MOL0     H31918   1.614   1.752   7.997 -2.7451 -1.2819  1.0381
  242MOL0     H31919   1.653   1.931   7.973 -1.8601  3.0712  0.9205
  242MOL0     H31920   1.420   1.997   8.002 -0.2568 -0.1162  1.7131
  242MOL0     H31921   1.390   1.837   8.079 -1.5157  0.6615 -0.1100
  242MOL0     H31922   1.481   1.876   7.783  0.1685 -1.6377 -0.5470
  242MOL0     H31923   1.442   1.725   7.868  0.4679  0.2429 -0.0580
  242MOL0     H31924   1.256   1.930   7.772 -0.8969 -0.4646 -0.1266
  242MOL0     H31925   1.207   1.833   7.912 -0.3646  0.2583 -1.6078
  242MOL0     H31926   2.004   1.463   8.520 -0.4082  0.2467  0.0421
  242MOL0     H31927   2.219   1.343   8.596  2.3849 -2.0660 -1.9756
  242MOL0     H31928   2.682   1.418   8.587  2.5116 -0.3608 -1.6100
  242MOL0     H31929   2.905   1.366   8.673  2.0954 -1.8094  1.7078
  242MOL0     H31930   4.497   1.351   9.424 -0.2166 -0.1102  2.1092
  242MOL0     H31931   4.735   1.369   9.422  0.4363 -0.2373 -0.6356
  242MOL0     H31932   5.104   1.251   9.224 -1.2145  1.5079  0.2803
  242MOL0     H31933   5.340   1.289   9.166 -3.2887 -0.8966 -0.9164
  242MOL0     H31934   5.621   1.411   9.513  2.1496 -0.4197 -1.4638
  242MOL0     H31935   5.558   1.562   9.445  1.3612 -0.7796  2.5635
  242MOL0     H31936   5.764   1.415   9.286  0.5330  1.9792 -1.2526
  242MOL0     H31937   5.715   1.578   9.273  0.9623  2.2077  1.3822
  242MOL0     H31938   5.817   1.623   9.491  2.6580  1.6683 -0.1415
  242MOL0     H31939   5.934   1.562   9.376 -0.3449  1.1735 -0.3564
  242MOL0     H31940   5.870   1.458   9.649  2.8187 -1.0388  0.4013
  242MOL0     H31941   5.813   1.337   9.527  0.7414 -0.8148  0.3313
  242MOL0     H31942   6.240   1.364   9.563 -0.1047 -0.4689  0.4914
  242MOL0     H31943   5.432   1.373   9.573 -0.1684 -1.7548 -0.1123
  242MOL0     H31944   5.187   1.315   9.639  2.5180  0.5566  1.6303
  243MOL0     O31945   1.731   2.896   1.442 -0.0579 -0.1334  1.0432
  243MOL0     C31946   1.802   2.804   1.385 -0.6344  0.8490  0.0708
  243MOL0     O31947   1.759   2.705   1.299  0.2779  0.5409 -0.0572
  243MOL0     C31948   1.628   2.665   1.260  1.1089 -0.5731  0.1658
  243MOL0     C31949   1.631   2.591   1.143 -0.2324  0.2484 -0.5228
  243MOL0     C31950   1.514   2.548   1.083  0.7415 -0.0198 -0.3242
  243MOL0     C31951   1.396   2.572   1.152  0.2753  0.2812  0.3766
  243MOL0     O31952   1.297   2.514   1.082  0.2832 -0.0185  1.1930
  243MOL0     C31953   1.172   2.522   1.144 -0.4294  0.0118 -0.2552
  243MOL0     C31954   1.082   2.425   1.055 -0.1091  0.0248  0.0097
  243MOL0     C31955   0.955   2.363   1.116  0.3418  0.8403 -0.2206
  243MOL0     C31956   0.879   2.284   1.008 -0.7392 -0.3478 -0.3162
  243MOL0     C31957   0.767   2.206   1.078 -0.1234  0.1371  0.0004
  243MOL0     C31958   0.664   2.146   0.987  0.2353 -0.6105 -0.7190
  243MOL0     C31959   0.549   2.087   1.070  0.5325 -0.3621  0.0412
  243MOL0     C31960   0.425   2.039   0.992  0.1886 -0.3977  0.2816
  243MOL0     N31961   0.315   2.004   1.087 -0.1876  0.4687  0.0572
  243MOL0     C31962   0.285   1.882   1.141 -0.8232 -0.4379  0.1530
  243MOL0     C31963   0.187   1.907   1.226  0.4775 -0.5351 -0.4683
  243MOL0     C31964   0.129   1.805   1.317 -0.3050  0.2535  0.2541
  243MOL0     C31965  -0.018   1.792   1.297 -0.2166 -0.8985  1.2134
  243MOL0     C31966  -0.089   1.748   1.427 -0.0864  0.7684  0.6200
  243MOL0     C31967  -0.241   1.721   1.403 -0.3517  0.2949 -0.5499
  243MOL0     O31968  -0.308   1.661   1.518 -0.0239 -0.3222 -0.1397
  243MOL0     C31969  -0.446   1.666   1.508 -0.7035 -0.2301  0.8825
  243MOL0     C31970  -0.516   1.726   1.602 -0.0322 -0.9795 -0.3408
  243MOL0     C31971  -0.650   1.742   1.589  0.4659 -0.0210  0.7484
  243MOL0     C31972  -0.726   1.680   1.487 -0.4224 -0.0522 -0.0193
  243MOL0     C31973  -0.874   1.709   1.468  0.5406 -0.0643 -0.3202
  243MOL0     O31974  -0.928   1.803   1.554 -0.6228  0.7581 -0.0207
  243MOL0     C31975  -1.062   1.839   1.540 -0.0069 -0.5800  0.7422
  243MOL0     C31976  -1.116   1.891   1.659 -0.3542  0.2402  1.2337
  243MOL0     C31977  -1.254   1.929   1.671  0.3505  0.1306  0.0943
  243MOL0     C31978  -1.331   1.936   1.560 -0.0664 -0.3530 -0.6044
  243MOL0     O31979  -1.460   1.985   1.582 -0.2558  0.0290  0.1348
  243MOL0     C31980  -1.572   1.896   1.555  0.5738  0.3239 -0.6625
  243MOL0     C31981  -1.654   1.971   1.455  0.7028 -0.0562  1.2649
  243MOL0     C31982  -1.799   1.919   1.432  0.7639  0.6169  1.2513
  243MOL0     C31983  -1.867   1.989   1.308  0.2081  0.1218  0.1784
  243MOL0     C31984  -1.958   1.880   1.240 -0.4099 -0.5066 -0.6466
  243MOL0     C31985  -2.089   1.862   1.325  1.1747 -0.5792 -0.4029
  243MOL0     C31986  -2.194   1.979   1.339 -0.3784 -0.0833  0.2615
  243MOL0     C31987  -2.334   1.923   1.368  0.0283 -0.4530 -0.1247
  243MOL0    Cl31988  -2.342   1.837   1.524  0.4590  0.1746 -0.0417
  243MOL0     C31989  -1.280   1.885   1.436 -0.5706  0.5573 -0.2301
  243MOL0     C31990  -1.149   1.838   1.427 -0.1672  0.2234 -0.7059
  243MOL0     O31991  -0.932   1.643   1.386 -0.0437  0.1925  0.3886
  243MOL0     C31992  -0.654   1.611   1.391  0.4155  0.4637 -0.3529
  243MOL0     C31993  -0.515   1.611   1.396 -0.6260  0.7182 -0.1480
  243MOL0     N31994   0.148   2.040   1.222  0.1422 -0.0164  0.1137
  243MOL0     N31995   0.228   2.098   1.132  0.2548 -0.4039  0.0674
  243MOL0     C31996   1.389   2.646   1.274  0.1620 -0.0669  0.1352
  243MOL0     C31997   1.508   2.700   1.323 -0.2784 -0.4046  0.4465
  243MOL0     C31998   1.949   2.805   1.379 -0.6774 -0.0494  0.0082
  243MOL0     C31999   2.017   2.763   1.258 -0.4097 -0.1414 -0.1866
  243MOL0     C32000   2.155   2.769   1.246 -0.1481 -0.2092 -0.1188
  243MOL0     C32001   2.227   2.811   1.362  0.1994 -0.1133  0.0052
  243MOL0     O32002   2.364   2.826   1.342  0.0436 -0.6091 -0.4538
  243MOL0     C32003   2.444   2.920   1.422  0.6842  0.3134  0.1750
  243MOL0     C32004   2.587   2.934   1.362  0.0996  0.2995 -1.0037
  243MOL0     C32005   2.587   3.003   1.226  0.0631  0.5423  0.7626
  243MOL0     C32006   2.727   3.067   1.189 -0.3536  0.9055 -0.1132
  243MOL0     C32007   2.759   3.180   1.271 -0.5386  0.4352 -0.0271
  243MOL0     C32008   2.788   3.274   1.346 -0.0509  0.2542  0.3110
  243MOL0     C32009   2.159   2.856   1.481 -0.7514  0.3931 -0.5095
  243MOL0     C32010   2.022   2.851   1.487 -0.9039  0.0135  0.6201
  243MOL0     H32011   1.730   2.585   1.098  0.5089  0.1349  1.0729
  243MOL0     H32012   1.523   2.491   0.991  5.0745  0.3111 -0.3112
  243MOL0     H32013   1.127   2.622   1.144  0.5310  0.5154 -2.7350
  243MOL0     H32014   1.179   2.480   1.244  0.8147  1.4102  0.2880
  243MOL0     H32015   1.151   2.347   1.021  3.4461  3.3649 -1.1442
  243MOL0     H32016   1.061   2.483   0.965  0.7150 -1.4339 -1.1607
  243MOL0     H32017   0.887   2.439   1.155 -2.5223 -2.5410  2.0007
  243MOL0     H32018   0.982   2.300   1.201 -1.6851  0.3821  0.1410
  243MOL0     H32019   0.837   2.350   0.932  2.8565 -1.9017 -4.0649
  243MOL0     H32020   0.950   2.215   0.961 -0.0003 -1.6067  2.4459
  243MOL0     H32021   0.708   2.278   1.135 -3.3445  1.4473 -4.3586
  243MOL0     H32022   0.813   2.126   1.136 -1.5801  2.0576  4.1516
  243MOL0     H32023   0.712   2.074   0.921  0.4150 -1.4719  0.3165
  243MOL0     H32024   0.612   2.222   0.928 -0.2621  2.2970  3.0458
  243MOL0     H32025   0.592   2.003   1.126  1.9617 -0.0315 -0.4908
  243MOL0     H32026   0.511   2.165   1.135  0.0524  0.8629 -1.6300
  243MOL0     H32027   0.450   1.945   0.942 -2.3822 -0.0880 -1.7625
  243MOL0     H32028   0.396   2.114   0.919 -2.8836 -1.0594  0.6887
  243MOL0     H32029   0.328   1.785   1.122  0.6066  0.3306 -0.7670
  243MOL0     H32030   0.167   1.835   1.415  2.9809  0.0192 -0.8332
  243MOL0     H32031   0.185   1.717   1.285  2.3243  2.2635 -1.1169
  243MOL0     H32032  -0.032   1.728   1.210  0.1039 -0.6584  0.9864
  243MOL0     H32033  -0.067   1.889   1.287  1.7213 -0.0594 -1.0281
  243MOL0     H32034  -0.039   1.659   1.466 -0.0785  0.4451 -0.1184
  243MOL0     H32035  -0.090   1.834   1.494 -2.1213  0.8750  0.5263
  243MOL0     H32036  -0.261   1.668   1.310 -0.6875 -0.4549 -0.0638
  243MOL0     H32037  -0.299   1.813   1.390  0.3409  1.5607  3.6183
  243MOL0     H32038  -0.456   1.762   1.684 -0.2844 -2.3395  0.4668
  243MOL0     H32039  -0.702   1.785   1.674 -2.3129 -2.8741  0.6903
  243MOL0     H32040  -1.045   1.891   1.741  1.5436 -2.8086 -0.2356
  243MOL0     H32041  -1.281   1.980   1.762  2.7029 -0.7743  1.3868
  243MOL0     H32042  -1.633   1.877   1.644  1.6188 -2.1546 -0.3877
  243MOL0     H32043  -1.531   1.802   1.516 -0.9094 -0.6709  0.0720
  243MOL0     H32044  -1.603   1.963   1.359 -1.9641  3.8978 -0.7742
  243MOL0     H32045  -1.662   2.079   1.466 -0.4829 -0.1088  1.1204
  243MOL0     H32046  -1.860   1.941   1.520 -1.8508 -1.4684  0.0815
  243MOL0     H32047  -1.802   1.810   1.427  2.5727  0.5474  1.1239
  243MOL0     H32048  -1.922   2.076   1.346 -0.8181 -0.2507 -0.4138
  243MOL0     H32049  -1.799   2.026   1.232  1.7698  0.1871  1.5502
  243MOL0     H32050  -1.900   1.788   1.227  1.6295  0.7582 -1.1543
  243MOL0     H32051  -1.976   1.917   1.138 -0.2888  0.7834 -0.2199
  243MOL0     H32052  -2.060   1.819   1.421  0.1362 -3.3641 -1.2429
  243MOL0     H32053  -2.143   1.778   1.280  1.4710 -0.6738 -0.5851
  243MOL0     H32054  -2.165   2.053   1.414 -2.8015  3.1930 -1.8011
  243MOL0     H32055  -2.205   2.027   1.242 -0.4992 -5.4570 -2.7472
  243MOL0     H32056  -2.366   1.859   1.285 -0.9716 -1.7599  1.2352
  243MOL0     H32057  -2.408   2.005   1.369 -0.4501 -0.8576 -1.0031
  243MOL0     H32058  -1.349   1.899   1.353 -1.3407  0.7396  0.4247
  243MOL0     H32059  -1.105   1.807   1.333  2.0645 -0.8495  0.6069
  243MOL0     H32060  -0.713   1.561   1.315 -0.0711  0.5944 -0.0626
  243MOL0     H32061  -0.443   1.559   1.333  1.5839  3.9149 -0.5041
  243MOL0     H32062   1.302   2.670   1.335  0.2342  0.5553 -0.0037
  243MOL0     H32063   1.513   2.769   1.407  1.3338 -1.7941  1.5432
  243MOL0     H32064   1.946   2.742   1.178 -2.6931 -0.5952  1.8112
  243MOL0     H32065   2.201   2.750   1.150  2.7844 -2.9578  1.6436
  243MOL0     H32066   2.452   2.872   1.520 -3.3887 -2.4779 -0.5967
  243MOL0     H32067   2.393   3.016   1.426  1.1032  0.7307 -2.4913
  243MOL0     H32068   2.643   2.992   1.437  2.0651 -1.1515 -1.2826
  243MOL0     H32069   2.634   2.837   1.347  0.9383  1.0728 -3.9868
  243MOL0     H32070   2.509   3.080   1.220 -1.3953 -0.9448  0.1967
  243MOL0     H32071   2.565   2.938   1.142  1.0900 -1.1117  1.7294
  243MOL0     H32072   2.803   2.988   1.185  0.9606  2.1631 -2.4582
  243MOL0     H32073   2.717   3.102   1.086  4.1934 -0.8018 -1.3604
  243MOL0     H32074   2.799   3.356   1.414 -2.4233  0.4012  0.5848
  243MOL0     H32075   2.220   2.888   1.564  1.0504 -0.6859 -1.3431
  243MOL0     H32076   1.971   2.870   1.581 -1.1696 -1.0974  0.7250
  244MOL0     O32077   7.330   0.577   3.623  0.2576  0.2990  0.2356
  244MOL0     C32078   7.285   0.483   3.558 -0.7689 -0.0810  0.2305
  244MOL0     O32079   7.359   0.395   3.483 -0.5048  0.1764  0.5548
  244MOL0     C32080   7.492   0.407   3.477 -0.3428  0.3145  0.4378
  244MOL0     C32081   7.568   0.421   3.595  0.1297 -0.4481  0.8886
  244MOL0     C32082   7.702   0.441   3.585  0.1343  0.2121 -0.1276
  244MOL0     C32083   7.767   0.440   3.464 -0.4624 -0.0534  0.2401
  244MOL0     O32084   7.896   0.473   3.459 -0.0851 -0.1212 -0.2226
  244MOL0     C32085   7.997   0.394   3.401 -0.5991  0.3596  0.0662
  244MOL0     C32086   8.132   0.455   3.390 -0.7598 -0.4312  0.2406
  244MOL0     C32087   8.183   0.506   3.529  0.3239  0.1991  0.9947
  244MOL0     C32088   8.322   0.556   3.533  0.1458 -0.1369 -0.0507
  244MOL0     C32089   8.339   0.672   3.631 -0.5738  0.1977 -0.8505
  244MOL0     C32090   8.477   0.726   3.637 -0.0196  0.2293  0.2220
  244MOL0     C32091   8.496   0.834   3.731  0.5399 -0.8019  0.4426
  244MOL0     C32092   8.522   0.791   3.872 -0.4920  0.3240 -1.0404
  244MOL0     N32093   8.546   0.909   3.964 -0.0665  0.4977 -0.5948
  244MOL0     C32094   8.666   0.961   4.007  0.3762 -0.3021 -0.0602
  244MOL0     C32095   8.640   1.081   4.049  0.4858  0.3730  0.2702
  244MOL0     C32096   8.739   1.178   4.095 -0.3463  0.1204 -0.4948
  244MOL0     C32097   8.705   1.243   4.225  0.7434  0.6602 -0.5595
  244MOL0     C32098   8.657   1.157   4.348 -0.5600 -0.1105 -0.0987
  244MOL0     C32099   8.760   1.047   4.397 -1.2600  1.0249 -0.2423
  244MOL0     O32100   8.726   0.917   4.346 -0.3653 -0.0545  0.2354
  244MOL0     C32101   8.818   0.856   4.271 -0.8132 -0.8926  0.7116
  244MOL0     C32102   8.942   0.911   4.226 -0.5584  0.8681  0.3049
  244MOL0     C32103   9.025   0.843   4.138  0.6125 -0.0754  0.6986
  244MOL0     C32104   8.996   0.720   4.083 -0.2155  0.6490 -0.4273
  244MOL0     C32105   9.083   0.657   3.986  0.0052 -0.1421 -0.9365
  244MOL0     O32106   9.193   0.729   3.950 -0.0756 -0.5943 -0.1052
  244MOL0     C32107   9.272   0.694   3.843 -0.1440 -0.5866  0.2823
  244MOL0     C32108   9.416   0.708   3.859 -0.3656 -0.9902 -0.4768
  244MOL0     C32109   9.498   0.675   3.754 -0.0445  0.5249  1.0646
  244MOL0     C32110   9.450   0.618   3.634  0.1988 -0.2650 -0.7913
  244MOL0     O32111   9.524   0.592   3.520  0.9848  0.1327 -0.1125
  244MOL0     C32112   9.666   0.584   3.526  0.1340  0.3093 -0.2062
  244MOL0     C32113   9.709   0.463   3.609  0.2307  0.0910 -0.3474
  244MOL0     C32114   9.663   0.328   3.545 -0.4342  0.2272 -0.4112
  244MOL0     C32115   9.667   0.214   3.645 -0.8375  0.0792 -0.1703
  244MOL0     C32116   9.565   0.223   3.758 -0.0152 -0.3891 -0.5940
  244MOL0     C32117   9.426   0.255   3.717 -0.1105 -0.5177 -0.2636
  244MOL0     C32118   9.343   0.255   3.840  1.3055 -0.1307 -0.1381
  244MOL0     C32119   9.192   0.223   3.805 -1.0333  0.2938  0.1200
  244MOL0    Cl32120   9.107   0.187   3.958  0.1303 -0.0112  0.5247
  244MOL0     C32121   9.315   0.582   3.630  0.1592  0.0246 -0.2012
  244MOL0     C32122   9.222   0.622   3.733 -0.5120  0.2466 -0.1280
  244MOL0     O32123   9.050   0.540   3.952 -0.3651 -0.4947 -0.5187
  244MOL0     C32124   8.872   0.662   4.118  0.4900 -0.2948 -0.0193
  244MOL0     C32125   8.788   0.733   4.206  0.1164  0.8438 -0.5149
  244MOL0     N32126   8.501   1.103   4.034  0.2394 -0.0560  0.8110
  244MOL0     N32127   8.444   0.997   3.993 -0.4826  0.2089  0.5497
  244MOL0     C32128   7.697   0.404   3.353 -0.1829  0.1740  0.8627
  244MOL0     C32129   7.557   0.389   3.359 -0.6562 -0.9378 -0.0726
  244MOL0     C32130   7.141   0.459   3.553  0.9343 -0.0536 -0.1807
  244MOL0     C32131   7.056   0.527   3.641  1.2598 -0.6572 -1.3104
  244MOL0     C32132   6.915   0.529   3.628 -0.2249  0.6147 -0.5783
  244MOL0     C32133   6.856   0.458   3.530  0.9438  0.1740 -0.0521
  244MOL0     O32134   6.717   0.451   3.527  0.0696  0.0543 -0.0558
  244MOL0     C32135   6.648   0.412   3.401  0.0501 -0.5462  0.0808
  244MOL0     C32136   6.502   0.420   3.425 -0.4443 -0.6812 -0.3618
  244MOL0     C32137   6.432   0.374   3.302 -0.4306  0.4661 -0.0342
  244MOL0     C32138   6.283   0.405   3.287  0.2272  0.3193  0.5699
  244MOL0     C32139   6.218   0.343   3.406 -0.1606 -0.1921 -0.4884
  244MOL0     C32140   6.161   0.283   3.495  0.0075  0.0478 -0.1898
  244MOL0     C32141   6.937   0.381   3.444 -0.4798 -0.6332  0.1612
  244MOL0     C32142   7.083   0.377   3.460 -0.1921  0.4130  0.5712
  244MOL0     H32143   7.518   0.426   3.691 -0.9453 -2.2996  0.4770
  244MOL0     H32144   7.758   0.453   3.677  1.4095 -1.9351 -0.5543
  244MOL0     H32145   7.964   0.374   3.299  0.0147  1.1553 -0.2893
  244MOL0     H32146   7.998   0.306   3.467  1.8070 -0.6033 -1.1697
  244MOL0     H32147   8.128   0.537   3.318 -0.8297 -1.5227 -1.0450
  244MOL0     H32148   8.211   0.387   3.355 -1.2112 -0.6514 -0.3791
  244MOL0     H32149   8.174   0.425   3.603  1.9983 -0.8270  0.1276
  244MOL0     H32150   8.118   0.589   3.557  1.1662  0.9074  0.8967
  244MOL0     H32151   8.386   0.469   3.556  0.0928 -0.0860  0.2911
  244MOL0     H32152   8.341   0.594   3.433 -0.5721  0.0647 -0.1129
  244MOL0     H32153   8.325   0.631   3.731 -3.0108  0.9269 -0.8149
  244MOL0     H32154   8.267   0.749   3.602  0.1171  0.2839 -2.4261
  244MOL0     H32155   8.506   0.757   3.536  0.0377 -0.4905  0.0076
  244MOL0     H32156   8.539   0.644   3.675 -2.5673 -0.8096  2.4494
  244MOL0     H32157   8.581   0.891   3.692 -0.7925 -1.3967 -3.9379
  244MOL0     H32158   8.414   0.905   3.720  2.3001  1.3659  0.6122
  244MOL0     H32159   8.596   0.711   3.873 -1.9547 -1.0714  0.3516
  244MOL0     H32160   8.429   0.749   3.912  0.1062  0.6775  0.8604
  244MOL0     H32161   8.767   0.920   4.002  0.3021 -0.5660  0.5422
  244MOL0     H32162   8.743   1.257   4.020  1.9714  2.6770  2.0819
  244MOL0     H32163   8.839   1.133   4.100  0.5371  2.0562 -0.0489
  244MOL0     H32164   8.638   1.328   4.209  2.6718  2.1950 -0.9499
  244MOL0     H32165   8.799   1.285   4.263 -0.9573  2.1027  2.3879
  244MOL0     H32166   8.627   1.228   4.425  0.9739 -1.0101  1.3980
  244MOL0     H32167   8.567   1.104   4.314 -0.2401  0.1020 -1.3551
  244MOL0     H32168   8.749   1.043   4.506 -0.8651  2.1570 -0.1470
  244MOL0     H32169   8.866   1.075   4.401 -0.0595 -3.0505  0.4968
  244MOL0     H32170   8.982   1.007   4.257 -0.8291  1.0461  0.1144
  244MOL0     H32171   9.109   0.900   4.099 -1.8961  3.3410 -0.0711
  244MOL0     H32172   9.448   0.768   3.943 -3.5145  1.0014 -0.5262
  244MOL0     H32173   9.598   0.715   3.762 -0.4547  1.2160  4.7882
  244MOL0     H32174   9.711   0.675   3.568  2.4650 -1.6343  1.7722
  244MOL0     H32175   9.707   0.585   3.424  1.4080  1.5863  0.2815
  244MOL0     H32176   9.661   0.464   3.707 -1.0333 -3.4652 -0.8009
  244MOL0     H32177   9.818   0.457   3.619 -0.0168 -2.8986  1.4523
  244MOL0     H32178   9.728   0.303   3.461  1.3090  3.6505 -0.2431
  244MOL0     H32179   9.567   0.339   3.494  0.0555  0.7371 -1.2432
  244MOL0     H32180   9.649   0.116   3.599 -1.7178 -1.2420  2.7358
  244MOL0     H32181   9.771   0.201   3.677 -1.3767 -2.8892  0.6577
  244MOL0     H32182   9.590   0.298   3.833 -1.1343 -2.1735  1.7121
  244MOL0     H32183   9.563   0.127   3.812  0.0118 -1.7775 -2.9253
  244MOL0     H32184   9.391   0.175   3.651  0.9964 -2.0380  0.9140
  244MOL0     H32185   9.430   0.353   3.669  2.5990 -0.3131  0.2094
  244MOL0     H32186   9.381   0.181   3.911 -1.1674 -2.0679 -0.6738
  244MOL0     H32187   9.343   0.348   3.898 -0.9271 -0.5563  0.6584
  244MOL0     H32188   9.187   0.142   3.732  2.6225  0.7294 -0.7944
  244MOL0     H32189   9.149   0.313   3.759 -3.5436 -0.6645  0.4149
  244MOL0     H32190   9.265   0.529   3.550 -1.3864 -2.7012  2.3538
  244MOL0     H32191   9.115   0.607   3.729 -0.5595  0.8368 -1.9962
  244MOL0     H32192   8.836   0.563   4.090  1.5520 -0.6863 -0.0626
  244MOL0     H32193   8.694   0.687   4.237  0.1548  0.7692 -0.5084
  244MOL0     H32194   7.751   0.395   3.260 -3.3455  0.5486 -1.1451
  244MOL0     H32195   7.510   0.372   3.262 -1.3906 -0.4437  0.1916
  244MOL0     H32196   7.089   0.595   3.720 -4.7260  2.0915 -0.6171
  244MOL0     H32197   6.863   0.574   3.712 -1.8921 -0.7831 -0.8027
  244MOL0     H32198   6.676   0.316   3.358  0.1454  0.5851 -2.6435
  244MOL0     H32199   6.678   0.480   3.321  0.0935 -3.8725 -2.9737
  244MOL0     H32200   6.467   0.356   3.507  0.6479  0.7681  1.3278
  244MOL0     H32201   6.475   0.524   3.445  3.7653  0.5390  0.0089
  244MOL0     H32202   6.450   0.266   3.291  3.8274  0.8861  1.0473
  244MOL0     H32203   6.490   0.407   3.215  0.3855 -2.1134 -0.5670
  244MOL0     H32204   6.269   0.513   3.275  1.2076  0.3283 -0.7978
  244MOL0     H32205   6.241   0.363   3.196 -0.3616  0.7000  0.6607
  244MOL0     H32206   6.105   0.227   3.567 -1.8785 -0.5997 -2.0784
  244MOL0     H32207   6.894   0.314   3.369 -0.2178 -1.1485  0.4625
  244MOL0     H32208   7.141   0.315   3.392 -1.4597  1.2313 -1.3201
  245MOL0     O32209   6.460   9.916   6.412  0.5208 -0.7916  0.4104
  245MOL0     C32210   6.528  10.018   6.401 -0.4038 -0.1019 -0.3393
  245MOL0     O32211   6.493  10.142   6.368 -0.3624 -0.3595 -0.2844
  245MOL0     C32212   6.365  10.176   6.338  0.3675 -0.1676  0.5708
  245MOL0     C32213   6.348  10.264   6.230 -0.0719 -0.4539 -0.1384
  245MOL0     C32214   6.217  10.296   6.188  0.1593  0.2102  0.4468
  245MOL0     C32215   6.103  10.231   6.250 -0.4861  0.7130 -0.0489
  245MOL0     O32216   5.976  10.275   6.198 -0.2716  0.2522  0.2295
  245MOL0     C32217   5.858  10.203   6.229  0.3451  0.1932 -0.4882
  245MOL0     C32218   5.797  10.257   6.360 -0.6039 -0.1710 -1.5616
  245MOL0     C32219   5.649  10.246   6.375 -0.4314 -0.0517  0.6216
  245MOL0     C32220   5.603  10.293   6.510  0.5188  0.1369 -0.1699
  245MOL0     C32221   5.457  10.243   6.541 -0.2809  0.1687 -1.0947
  245MOL0     C32222   5.363  10.295   6.439  0.0398  0.2415  0.4398
  245MOL0     C32223   5.215  10.274   6.501  0.6753 -0.3780  0.4663
  245MOL0     C32224   5.118  10.331   6.398  0.0783 -0.3882 -0.0119
  245MOL0     N32225   4.979  10.294   6.429  0.5747 -0.3332 -0.2031
  245MOL0     C32226   4.866  10.368   6.398 -0.0367 -0.0139 -1.2666
  245MOL0     C32227   4.757  10.291   6.440  0.4339 -0.4334  0.6406
  245MOL0     C32228   4.614  10.344   6.446  0.3224 -0.6505 -0.1776
  245MOL0     C32229   4.526  10.238   6.390  0.8046  0.0879 -0.2975
  245MOL0     C32230   4.380  10.286   6.388  0.0192  0.5155  0.3729
  245MOL0     C32231   4.279  10.193   6.331 -0.2789 -0.1516  0.1969
  245MOL0     O32232   4.153  10.260   6.311 -0.6878  0.1338 -0.0842
  245MOL0     C32233   4.042  10.182   6.319 -0.2952 -0.1108  0.0058
  245MOL0     C32234   3.997  10.102   6.213 -0.2101  0.4578 -0.4130
  245MOL0     C32235   3.886  10.017   6.226 -0.8283 -0.6206  1.4668
  245MOL0     C32236   3.811  10.012   6.344 -0.4304  0.0739 -0.7937
  245MOL0     C32237   3.705   9.916   6.359 -0.3030  0.1129 -0.3557
  245MOL0     O32238   3.641   9.918   6.478  0.2190 -0.1100  0.1323
  245MOL0     C32239   3.523   9.847   6.481  0.1160 -0.3979  0.4130
  245MOL0     C32240   3.527   9.715   6.525  0.7182 -0.3824  0.3010
  245MOL0     C32241   3.406   9.640   6.532 -0.4429  0.4955 -0.0823
  245MOL0     C32242   3.285   9.703   6.503 -0.3422 -0.0068 -0.0986
  245MOL0     O32243   3.168   9.625   6.496 -0.2864  0.2432 -0.2294
  245MOL0     C32244   3.044   9.680   6.456  1.3548 -0.4973  0.3797
  245MOL0     C32245   2.936   9.586   6.488  0.6100  0.6856  0.1043
  245MOL0     C32246   2.859   9.537   6.369  0.3445  0.1328  1.3492
  245MOL0     C32247   2.793   9.401   6.385  0.1661 -0.1583 -0.3297
  245MOL0     C32248   2.720   9.356   6.258  0.1138  0.6583 -0.7021
  245MOL0     C32249   2.583   9.290   6.291 -0.1571  0.8003 -0.0840
  245MOL0     C32250   2.593   9.127   6.282  0.4670  0.5292  0.2318
  245MOL0     C32251   2.474   9.048   6.330  0.5739  0.6791  0.5207
  245MOL0    Cl32252   2.522   8.872   6.308 -0.3132  0.2348  0.0829
  245MOL0     C32253   3.274   9.837   6.474  0.8568  0.2400 -0.5892
  245MOL0     C32254   3.395   9.910   6.454 -0.1233 -0.2815 -0.2891
  245MOL0     O32255   3.689   9.832   6.268 -0.0552  0.3647  0.1506
  245MOL0     C32256   3.842  10.114   6.438  0.5561  0.0878  0.2381
  245MOL0     C32257   3.958  10.194   6.438  0.4828  0.4483 -0.8836
  245MOL0     N32258   4.801  10.174   6.496 -0.5815  0.7076  0.5564
  245MOL0     N32259   4.931  10.183   6.491  0.0363  0.6879 -0.4444
  245MOL0     C32260   6.124  10.139   6.353 -0.3948  0.3365 -1.0960
  245MOL0     C32261   6.256  10.116   6.396  0.0803 -0.3477  0.2070
  245MOL0     C32262   6.672  10.006   6.448 -0.1253 -0.3007 -0.7531
  245MOL0     C32263   6.721   9.906   6.522 -0.0251  1.9529 -1.5459
  245MOL0     C32264   6.859   9.903   6.556 -0.0687  0.3716 -0.7780
  245MOL0     C32265   6.943  10.004   6.521  0.3199 -0.6632  1.4839
  245MOL0     O32266   7.078  10.005   6.541 -0.4345 -0.6786  0.5135
  245MOL0     C32267   7.130   9.911   6.635 -0.3427  0.1933  0.2720
  245MOL0     C32268   7.278   9.930   6.676 -0.5283 -0.3072 -0.2330
  245MOL0     C32269   7.367   9.905   6.559  0.8057  0.6442  0.4702
  245MOL0     C32270   7.508   9.950   6.589  0.0548  0.7955 -0.5286
  245MOL0     C32271   7.593   9.944   6.465  0.1138 -0.0425  0.5022
  245MOL0     C32272   7.679   9.936   6.378 -0.1635  0.0379 -0.2407
  245MOL0     C32273   6.886  10.111   6.445  0.3424 -0.4601  0.8915
  245MOL0     C32274   6.755  10.114   6.414 -0.8279  0.7860  0.3653
  245MOL0     H32275   6.429  10.307   6.171  0.9037 -0.8570  0.8725
  245MOL0     H32276   6.203  10.357   6.099  1.4538 -0.4600 -0.2390
  245MOL0     H32277   5.875  10.095   6.227 -1.3695 -0.0905 -2.0545
  245MOL0     H32278   5.789  10.230   6.149  1.1216  3.8352 -0.1196
  245MOL0     H32279   5.829  10.362   6.364  1.7903 -0.8441  2.0678
  245MOL0     H32280   5.857  10.219   6.443  0.8940  1.2660 -1.9433
  245MOL0     H32281   5.615  10.142   6.368  0.4409 -0.3456  0.5714
  245MOL0     H32282   5.615  10.300   6.286  2.8991 -0.5425 -1.1169
  245MOL0     H32283   5.677  10.266   6.585  0.6415 -2.1191 -1.0310
  245MOL0     H32284   5.591  10.402   6.503  0.8685  0.2342  0.6236
  245MOL0     H32285   5.431  10.278   6.642 -1.3168 -2.8746 -0.2154
  245MOL0     H32286   5.447  10.134   6.544  0.0034  0.1456  1.3100
  245MOL0     H32287   5.376  10.244   6.343  0.9921  0.4626  0.4418
  245MOL0     H32288   5.376  10.399   6.408 -0.3931  0.3287  0.5470
  245MOL0     H32289   5.191  10.168   6.506  0.4680 -0.2900  2.1239
  245MOL0     H32290   5.198  10.333   6.592  2.7732  0.4989  0.3541
  245MOL0     H32291   5.145  10.290   6.300 -0.2810 -0.6041 -0.0219
  245MOL0     H32292   5.127  10.440   6.405  3.3959 -0.6688  2.4960
  245MOL0     H32293   4.860  10.473   6.368  3.3198  0.6726 -0.0155
  245MOL0     H32294   4.596  10.441   6.398  1.2291 -0.2442  0.2736
  245MOL0     H32295   4.576  10.358   6.548  0.0243 -1.4287 -0.1817
  245MOL0     H32296   4.538  10.154   6.459 -1.2837  1.1739  1.5300
  245MOL0     H32297   4.554  10.198   6.293  0.5832 -0.1724 -0.2565
  245MOL0     H32298   4.351  10.315   6.490  0.4491 -0.0190  0.6541
  245MOL0     H32299   4.378  10.371   6.320 -0.3463 -1.2918 -2.0046
  245MOL0     H32300   4.273  10.106   6.397  0.4658 -0.1165  0.3266
  245MOL0     H32301   4.309  10.163   6.229  0.5212  2.8538 -0.5467
  245MOL0     H32302   4.051  10.086   6.120 -0.2663  0.0633 -0.3834
  245MOL0     H32303   3.871   9.940   6.151  0.7519  0.9358 -0.5614
  245MOL0     H32304   3.623   9.676   6.557 -0.5269 -1.1047  3.5463
  245MOL0     H32305   3.416   9.535   6.558  0.7188  0.6134 -0.0218
  245MOL0     H32306   3.054   9.704   6.349 -0.0922 -0.0048  0.3368
  245MOL0     H32307   3.016   9.771   6.509 -2.4908  1.2822 -4.0071
  245MOL0     H32308   2.868   9.624   6.565  1.4090  4.3324 -0.8026
  245MOL0     H32309   2.986   9.500   6.535  2.7355  1.1046 -1.2656
  245MOL0     H32310   2.937   9.535   6.292 -2.0342  0.3892 -1.2389
  245MOL0     H32311   2.793   9.615   6.329  1.4281  0.1372 -0.5738
  245MOL0     H32312   2.872   9.328   6.405 -0.2143 -1.0818 -1.9827
  245MOL0     H32313   2.728   9.405   6.473  2.3009  2.4513  1.3037
  245MOL0     H32314   2.787   9.281   6.214 -0.6898 -0.4615 -0.0593
  245MOL0     H32315   2.700   9.440   6.191 -0.8582  1.1203  0.1387
  245MOL0     H32316   2.509   9.314   6.214 -0.1709  0.2902 -0.2393
  245MOL0     H32317   2.546   9.330   6.385  0.3297 -1.0078  0.9356
  245MOL0     H32318   2.607   9.090   6.180 -1.8628  2.5676 -0.9450
  245MOL0     H32319   2.682   9.098   6.339  0.2612  1.9803  1.3416
  245MOL0     H32320   2.384   9.066   6.271  2.4275 -2.1865 -3.6446
  245MOL0     H32321   2.457   9.080   6.433  0.6822  0.7661  0.5115
  245MOL0     H32322   3.181   9.892   6.464 -0.3155 -1.3885  0.7513
  245MOL0     H32323   3.396  10.014   6.425  2.1473 -0.6404 -1.8382
  245MOL0     H32324   3.786  10.109   6.531 -1.1826 -2.8994 -0.8584
  245MOL0     H32325   4.000  10.258   6.514  2.3037 -0.3574 -1.1501
  245MOL0     H32326   6.043  10.086   6.401 -0.6019  2.1105  0.6341
  245MOL0     H32327   6.275  10.041   6.472  3.7988  0.6362  0.4592
  245MOL0     H32328   6.662   9.819   6.547  3.7102 -0.4112 -0.1616
  245MOL0     H32329   6.889   9.819   6.617 -1.0291  1.4267  1.2603
  245MOL0     H32330   7.118   9.813   6.589  1.0103 -0.7788  1.8727
  245MOL0     H32331   7.059   9.924   6.717  0.0332  0.1127  0.6158
  245MOL0     H32332   7.291  10.035   6.705  0.8338 -0.4720 -0.1525
  245MOL0     H32333   7.300   9.872   6.766  1.1891 -0.2024 -0.5527
  245MOL0     H32334   7.322   9.967   6.481  0.2797  0.2233  0.4383
  245MOL0     H32335   7.372   9.805   6.515 -0.1512  1.6193 -2.0355
  245MOL0     H32336   7.511  10.053   6.624  0.8268  0.7865 -0.5628
  245MOL0     H32337   7.556   9.891   6.668 -0.4912  1.0615  0.0136
  245MOL0     H32338   7.749   9.952   6.299 -1.4625  0.3881 -1.3623
  245MOL0     H32339   6.949  10.190   6.404 -0.2818  0.0972  0.9894
  245MOL0     H32340   6.724  10.205   6.363 -2.5623  0.9362  1.6121
  246MOL0     O32341   1.408   8.776  10.454  0.7116  0.2368 -0.3055
  246MOL0     C32342   1.389   8.721  10.559 -0.8085  0.2266 -0.9046
  246MOL0     O32343   1.273   8.708  10.631 -0.2802  0.6442  0.3321
  246MOL0     C32344   1.142   8.724  10.589 -0.4191 -0.0458  0.8635
  246MOL0     C32345   1.107   8.733  10.448 -0.9113  0.8821 -0.5613
  246MOL0     C32346   0.977   8.748  10.398 -0.1317  0.1035 -0.0320
  246MOL0     C32347   0.875   8.757  10.492  0.3054 -0.5304 -0.1019
  246MOL0     O32348   0.747   8.780  10.454  0.2714  0.2136  0.8857
  246MOL0     C32349   0.704   8.702  10.340 -0.3979  0.7168 -0.1551
  246MOL0     C32350   0.547   8.697  10.327  0.5015  0.3784 -0.0023
  246MOL0     C32351   0.504   8.677  10.184  0.8403 -0.8353 -1.5009
  246MOL0     C32352   0.349   8.724  10.183 -0.5671  0.6113  0.0235
  246MOL0     C32353   0.275   8.662  10.060 -0.4284  0.0640  0.4207
  246MOL0     C32354   0.124   8.713  10.066  0.2970  1.0356 -0.8242
  246MOL0     C32355   0.031   8.642   9.961 -0.6404  0.4472 -0.0011
  246MOL0     C32356   0.052   8.692   9.819 -0.2144 -0.3889 -0.1844
  246MOL0     N32357  -0.046   8.636   9.720  0.7337  0.1724  0.0906
  246MOL0     C32358  -0.184   8.661   9.722 -0.8584  1.0241  1.3067
  246MOL0     C32359  -0.228   8.569   9.628 -0.4213  0.3852  0.4619
  246MOL0     C32360  -0.377   8.549   9.591 -0.9999 -0.2464  0.0249
  246MOL0     C32361  -0.475   8.520   9.703  0.0979  0.5870 -0.2246
  246MOL0     C32362  -0.429   8.403   9.789 -0.1163 -0.3385  0.0088
  246MOL0     C32363  -0.427   8.270   9.709  0.0996 -0.8639  0.0011
  246MOL0     O32364  -0.415   8.151   9.788  0.2387  0.1406 -0.4422
  246MOL0     C32365  -0.516   8.100   9.868 -0.2087 -0.8892  0.0507
  246MOL0     C32366  -0.471   8.016   9.968 -0.3507 -0.2314 -0.1399
  246MOL0     C32367  -0.559   7.960  10.058 -0.2368  0.3614  0.9117
  246MOL0     C32368  -0.699   7.983  10.050 -0.0975  0.2298  0.1947
  246MOL0     C32369  -0.794   7.913  10.143  0.0515  0.5224 -0.4794
  246MOL0     O32370  -0.923   7.955  10.143  0.4982  0.1723 -0.2937
  246MOL0     C32371  -1.020   7.887  10.215  0.2092 -0.5855  0.7225
  246MOL0     C32372  -1.104   7.966  10.290 -0.4552  0.0546  0.2069
  246MOL0     C32373  -1.203   7.914  10.367 -0.1046 -0.4718  0.3421
  246MOL0     C32374  -1.211   7.777  10.383 -0.4806  0.1877  0.2859
  246MOL0     O32375  -1.315   7.728  10.465  0.7469  0.0532  0.3012
  246MOL0     C32376  -1.407   7.649  10.395  1.3813 -0.2677 -0.8763
  246MOL0     C32377  -1.521   7.601  10.489 -0.4950 -1.1393  0.3915
  246MOL0     C32378  -1.462   7.519  10.607 -0.1770 -0.8921 -0.0716
  246MOL0     C32379  -1.381   7.397  10.575  0.0102 -0.3368 -0.2562
  246MOL0     C32380  -1.340   7.311  10.695  0.3789  1.3372  0.0818
  246MOL0     C32381  -1.196   7.333  10.741 -0.5097  0.0560  0.5090
  246MOL0     C32382  -1.150   7.244  10.859 -0.5528 -0.1881  0.2731
  246MOL0     C32383  -1.001   7.200  10.838  0.6251 -0.9636 -0.1244
  246MOL0    Cl32384  -0.997   7.092  10.695 -0.3507  0.4988  0.0405
  246MOL0     C32385  -1.134   7.694  10.307 -0.3733  0.2826  0.1264
  246MOL0     C32386  -1.039   7.751  10.222 -0.3795 -0.1186  0.3002
  246MOL0     O32387  -0.750   7.830  10.225 -0.0725 -1.2572  0.0439
  246MOL0     C32388  -0.746   8.069   9.956  0.1890 -0.7509 -0.5560
  246MOL0     C32389  -0.657   8.126   9.863 -0.5674  0.0796  0.7568
  246MOL0     N32390  -0.120   8.514   9.557  0.2185 -0.7451  0.6301
  246MOL0     N32391  -0.012   8.552   9.621 -0.7488  0.6352  0.1349
  246MOL0     C32392   0.901   8.765  10.630 -0.5406  0.4141 -0.4643
  246MOL0     C32393   1.038   8.742  10.681  0.4498 -0.2090 -0.6387
  246MOL0     C32394   1.510   8.685  10.630  0.0876  1.3267  0.4781
  246MOL0     C32395   1.502   8.639  10.764  0.3967 -0.8768  0.5818
  246MOL0     C32396   1.621   8.583  10.827 -0.1464  0.9401  0.3654
  246MOL0     C32397   1.741   8.570  10.762 -0.8818 -0.7982 -0.1120
  246MOL0     O32398   1.847   8.500  10.816 -0.0539  0.1296  0.1407
  246MOL0     C32399   1.911   8.535  10.939 -0.1717 -0.4283 -0.3583
  246MOL0     C32400   2.066   8.498  10.921 -0.3884 -0.2563 -0.6347
  246MOL0     C32401   2.143   8.583  11.020  0.6043 -1.0701 -0.9142
  246MOL0     C32402   2.283   8.537  11.033 -0.4457  1.3322  0.4522
  246MOL0     C32403   2.353   8.609  11.132  0.5058  0.2169  0.0475
  246MOL0     C32404   2.408   8.674  11.216  0.0873 -0.2574 -0.3034
  246MOL0     C32405   1.741   8.618  10.627 -0.1046 -0.0443 -0.1400
  246MOL0     C32406   1.635   8.676  10.561 -0.1094  0.3708  0.3272
  246MOL0     H32407   1.182   8.719  10.371 -0.7424  0.9578 -0.4128
  246MOL0     H32408   0.962   8.757  10.291 -0.2326 -0.1649 -0.0411
  246MOL0     H32409   0.737   8.599  10.348  1.2215  1.2428  0.3277
  246MOL0     H32410   0.752   8.738  10.248  0.5112 -1.6951 -0.7030
  246MOL0     H32411   0.507   8.797  10.348  1.2863  0.7333 -0.1669
  246MOL0     H32412   0.515   8.615  10.392 -0.6526 -0.5581 -1.6718
  246MOL0     H32413   0.523   8.577  10.142  0.5778 -1.5505  0.0115
  246MOL0     H32414   0.564   8.746  10.124 -1.0137  1.4188 -0.8984
  246MOL0     H32415   0.295   8.685  10.269 -2.3322 -1.0777 -1.7308
  246MOL0     H32416   0.348   8.833  10.168  3.0527  0.6886 -0.4734
  246MOL0     H32417   0.273   8.553  10.060 -0.7134  0.0649  0.7333
  246MOL0     H32418   0.318   8.701   9.968 -0.9109 -0.7974 -0.1883
  246MOL0     H32419   0.115   8.821  10.057 -0.8318  0.9758 -0.5314
  246MOL0     H32420   0.101   8.675  10.166  0.6745 -0.1112 -1.1550
  246MOL0     H32421   0.043   8.533   9.955 -0.4302  0.3224  1.9518
  246MOL0     H32422  -0.071   8.646   9.999 -0.2602 -1.5025  1.3855
  246MOL0     H32423   0.146   8.647   9.786 -1.4158 -1.5923 -2.2551
  246MOL0     H32424   0.066   8.800   9.811 -1.1384 -0.3711 -1.9929
  246MOL0     H32425  -0.235   8.734   9.783 -1.2068  0.7556  1.3381
  246MOL0     H32426  -0.381   8.463   9.523  1.9091  0.3669 -1.0720
  246MOL0     H32427  -0.401   8.647   9.548  0.3922 -0.0951 -0.4653
  246MOL0     H32428  -0.571   8.512   9.653 -1.1525  0.4280  2.0531
  246MOL0     H32429  -0.474   8.613   9.761  0.7968  0.7342 -0.4604
  246MOL0     H32430  -0.327   8.424   9.822 -0.4716  0.1633  0.8053
  246MOL0     H32431  -0.492   8.390   9.878 -0.7236 -1.9567 -0.6106
  246MOL0     H32432  -0.349   8.282   9.633 -0.8150  3.3422 -0.5293
  246MOL0     H32433  -0.523   8.259   9.657 -0.9844 -0.3632  1.7973
  246MOL0     H32434  -0.365   8.010   9.993 -0.3869  4.2996  1.9677
  246MOL0     H32435  -0.528   7.897  10.141  0.8016 -0.5866 -0.1768
  246MOL0     H32436  -1.094   8.072  10.268 -1.7703 -0.1108 -1.4553
  246MOL0     H32437  -1.271   7.985  10.412 -4.1713 -2.4995 -2.0738
  246MOL0     H32438  -1.368   7.558  10.348  0.2486 -3.2992  3.3830
  246MOL0     H32439  -1.444   7.705  10.309  1.3116 -0.7558 -1.1684
  246MOL0     H32440  -1.597   7.546  10.431 -1.6167  0.8253 -0.0940
  246MOL0     H32441  -1.574   7.692  10.518  1.0176 -0.8524  2.4623
  246MOL0     H32442  -1.533   7.475  10.678  1.5148 -0.1132  2.2065
  246MOL0     H32443  -1.401   7.583  10.670 -1.6584 -0.8145  1.3561
  246MOL0     H32444  -1.449   7.336  10.515 -0.5183 -0.6713  0.6615
  246MOL0     H32445  -1.298   7.424  10.509 -1.0217  1.6018 -0.8285
  246MOL0     H32446  -1.352   7.207  10.661  0.8975  0.8498  1.3505
  246MOL0     H32447  -1.410   7.327  10.778  1.4897 -1.4420  1.7034
  246MOL0     H32448  -1.181   7.436  10.776 -0.1592  0.3434 -0.4699
  246MOL0     H32449  -1.134   7.319  10.653 -0.1422 -2.3522  1.0859
  246MOL0     H32450  -1.159   7.313  10.944  1.6247  3.4171 -2.1323
  246MOL0     H32451  -1.204   7.149  10.856 -2.9587  1.0436  1.7311
  246MOL0     H32452  -0.958   7.154  10.927  0.4260 -1.7900 -0.4454
  246MOL0     H32453  -0.943   7.290  10.817 -0.7979 -0.0278 -0.1230
  246MOL0     H32454  -1.131   7.587  10.325 -0.6046  0.5878  2.1796
  246MOL0     H32455  -0.965   7.690  10.171  1.0307  0.7181  1.2830
  246MOL0     H32456  -0.849   8.095   9.939 -0.0710 -0.6171  1.0479
  246MOL0     H32457  -0.703   8.186   9.785 -0.8631  0.2872  1.0909
  246MOL0     H32458   0.823   8.759  10.705  0.4936 -1.4044  0.5232
  246MOL0     H32459   1.060   8.736  10.787 -0.9699  0.2165 -0.2930
  246MOL0     H32460   1.414   8.655  10.825 -0.8434  0.9501 -1.5053
  246MOL0     H32461   1.621   8.547  10.930 -0.4489 -3.4840 -0.9837
  246MOL0     H32462   1.868   8.479  11.022  1.9146 -0.7310  0.5655
  246MOL0     H32463   1.908   8.642  10.961  1.2766 -0.9718  2.8953
  246MOL0     H32464   2.089   8.393  10.939  3.9742  0.5664 -0.4316
  246MOL0     H32465   2.106   8.521  10.822  1.6200  2.3889  0.6536
  246MOL0     H32466   2.103   8.588  11.121  2.7927  0.8749 -0.0467
  246MOL0     H32467   2.145   8.686  10.983  0.2008  0.5073  3.0436
  246MOL0     H32468   2.289   8.433  11.065  1.6249  1.4126  0.5099
  246MOL0     H32469   2.335   8.537  10.936 -3.3427  0.7240 -1.1930
  246MOL0     H32470   2.452   8.729  11.296  2.7343  0.6304 -2.2127
  246MOL0     H32471   1.822   8.582  10.563 -0.4073 -0.5747 -0.2330
  246MOL0     H32472   1.637   8.698  10.455 -3.2764 -0.7008 -0.0599
  247MOL0     O32473   9.228  10.838   5.506  0.4262  0.2215  0.0128
  247MOL0     C32474   9.262  10.943   5.451  0.1883 -1.1610  0.4926
  247MOL0     O32475   9.188  11.059   5.452 -0.2210  0.3079 -0.8258
  247MOL0     C32476   9.056  11.059   5.506 -0.5375 -0.4008  0.6397
  247MOL0     C32477   9.015  11.171   5.577 -0.2202 -0.5419 -0.1030
  247MOL0     C32478   8.882  11.192   5.621 -0.1185 -0.0901 -0.1689
  247MOL0     C32479   8.791  11.096   5.575 -0.3614  0.0592  0.3324
  247MOL0     O32480   8.659  11.100   5.601  0.3973  0.0500 -0.2982
  247MOL0     C32481   8.591  11.212   5.663  0.1772  0.6964  0.3038
  247MOL0     C32482   8.439  11.205   5.657  0.6464  0.7576  0.9824
  247MOL0     C32483   8.377  11.341   5.687 -0.3988 -0.5519 -0.4136
  247MOL0     C32484   8.229  11.323   5.711  0.0516  0.7602  0.1263
  247MOL0     C32485   8.142  11.292   5.583 -0.3014  0.3730  0.5660
  247MOL0     C32486   7.993  11.286   5.613 -0.2966  0.8100  0.2095
  247MOL0     C32487   7.912  11.304   5.486 -0.8161  0.2613  0.1239
  247MOL0     C32488   7.776  11.273   5.514 -0.3813 -0.1470  0.0230
  247MOL0     N32489   7.697  11.264   5.390  0.7181 -1.3527 -0.8017
  247MOL0     C32490   7.714  11.325   5.273  0.8449 -0.8504  0.1725
  247MOL0     C32491   7.626  11.277   5.188  0.1901  0.5966  0.1432
  247MOL0     C32492   7.600  11.331   5.053  0.4086 -0.7767  0.1797
  247MOL0     C32493   7.509  11.456   5.049  0.5214 -0.1529 -0.7785
  247MOL0     C32494   7.356  11.421   5.074 -0.1654 -1.0281  0.5955
  247MOL0     C32495   7.277  11.535   5.136 -0.1015  0.0431 -0.0821
  247MOL0     O32496   7.157  11.470   5.187 -0.3707 -0.1887  0.1068
  247MOL0     C32497   7.095  11.503   5.313 -1.3170  0.4387 -0.2136
  247MOL0     C32498   7.168  11.553   5.429 -0.4303 -0.0894 -0.2982
  247MOL0     C32499   7.096  11.587   5.551 -0.2486 -0.1582 -0.1440
  247MOL0     C32500   6.963  11.594   5.552  0.4321  0.0945 -0.1027
  247MOL0     C32501   6.891  11.657   5.669  0.4515  0.7504  0.6999
  247MOL0     O32502   6.792  11.741   5.631  0.5323  0.6733 -0.5094
  247MOL0     C32503   6.742  11.825   5.735  0.1092  0.3440 -0.2801
  247MOL0     C32504   6.602  11.848   5.742 -0.0354  0.3358 -0.0725
  247MOL0     C32505   6.543  11.927   5.839  0.4375 -0.0617  0.6393
  247MOL0     C32506   6.628  11.987   5.936 -0.6159 -0.4355 -0.4853
  247MOL0     O32507   6.590  12.061   6.038  0.3799 -0.7189 -0.1531
  247MOL0     C32508   6.476  12.013   6.105 -0.0234  0.3020  0.0468
  247MOL0     C32509   6.417  12.129   6.197 -0.1932 -0.3222 -0.2603
  247MOL0     C32510   6.279  12.091   6.258 -0.2096 -0.2964  0.3131
  247MOL0     C32511   6.212  12.219   6.321 -0.4037 -0.4323  0.3834
  247MOL0     C32512   6.063  12.203   6.347  0.8661 -0.1634  0.3976
  247MOL0     C32513   5.997  12.341   6.370 -0.8035  1.1419  0.1194
  247MOL0     C32514   5.848  12.325   6.413 -0.2322  0.0746 -0.4169
  247MOL0     C32515   5.769  12.456   6.438  0.2908  1.4312  0.1562
  247MOL0    Cl32516   5.739  12.540   6.273  0.5495  0.4154 -0.0657
  247MOL0     C32517   6.765  11.982   5.921  0.8594  0.1845 -0.2297
  247MOL0     C32518   6.819  11.902   5.829  0.4870  0.0850  1.1624
  247MOL0     O32519   6.906  11.623   5.781  0.5188 -0.1160 -0.1581
  247MOL0     C32520   6.889  11.536   5.449  0.1616  0.4986  0.1213
  247MOL0     C32521   6.953  11.493   5.332  0.0863 -0.6697 -0.1159
  247MOL0     N32522   7.556  11.179   5.256 -1.0241 -0.4980  1.3976
  247MOL0     N32523   7.593  11.172   5.379 -0.6164 -0.4773  0.1644
  247MOL0     C32524   8.829  10.981   5.497  0.2615  0.7025  0.8207
  247MOL0     C32525   8.969  10.962   5.469  0.6883  0.2387  0.3841
  247MOL0     C32526   9.404  10.955   5.402 -0.1321  1.2053  0.5888
  247MOL0     C32527   9.449  10.856   5.314 -1.1249 -0.2470 -0.3646
  247MOL0     C32528   9.573  10.867   5.260  0.6363 -0.5491  0.3164
  247MOL0     C32529   9.655  10.974   5.287 -0.0880 -0.5105  0.2275
  247MOL0     O32530   9.788  10.976   5.256  0.3275  0.3028  0.1905
  247MOL0     C32531   9.833  10.879   5.152 -0.5973 -0.6418 -0.3326
  247MOL0     C32532   9.983  10.901   5.121 -0.6144 -0.4046  0.7096
  247MOL0     C32533  10.035  10.812   5.017  0.0643  0.1946 -0.5261
  247MOL0     C32534  10.181  10.843   4.993 -0.3002 -0.1244 -1.0229
  247MOL0     C32535  10.240  10.756   4.891 -0.4526 -0.2808  0.0973
  247MOL0     C32536  10.296  10.679   4.815  0.0283  0.0416  0.3015
  247MOL0     C32537   9.605  11.086   5.358 -0.1307  0.5351  0.2358
  247MOL0     C32538   9.472  11.081   5.409 -0.1680  0.0081  0.1830
  247MOL0     H32539   9.075  11.258   5.602  0.3131  0.2076 -3.4312
  247MOL0     H32540   8.855  11.277   5.683  2.3540 -0.8787  2.1686
  247MOL0     H32541   8.623  11.304   5.613 -0.1966  1.4507  1.4135
  247MOL0     H32542   8.615  11.210   5.769 -2.4435  1.4131  0.9789
  247MOL0     H32543   8.402  11.121   5.716 -1.3391 -1.0967 -2.5654
  247MOL0     H32544   8.404  11.183   5.555  0.4230  2.9556  0.5346
  247MOL0     H32545   8.387  11.416   5.607 -1.2620  0.4367  0.3689
  247MOL0     H32546   8.425  11.380   5.777  0.2174  4.1765 -2.4794
  247MOL0     H32547   8.209  11.244   5.784 -0.3579  2.7654  2.2752
  247MOL0     H32548   8.188  11.417   5.747 -1.7667  0.4245 -0.9004
  247MOL0     H32549   8.181  11.202   5.534  1.4642  1.6496 -0.5421
  247MOL0     H32550   8.162  11.368   5.506  0.4124 -1.3915 -1.0684
  247MOL0     H32551   7.967  11.370   5.677  2.6333  0.3314  2.2401
  247MOL0     H32552   7.969  11.189   5.658 -0.3046  1.0942  0.8328
  247MOL0     H32553   7.921  11.406   5.448  3.8311  0.5971  1.4196
  247MOL0     H32554   7.940  11.235   5.405  0.0363 -0.1701  0.7601
  247MOL0     H32555   7.738  11.355   5.575 -0.2848  0.7617 -1.0901
  247MOL0     H32556   7.780  11.180   5.571  1.0603  0.6667  1.3237
  247MOL0     H32557   7.785  11.407   5.265 -1.3548  1.0278 -1.2609
  247MOL0     H32558   7.552  11.253   4.992  1.0417 -0.0641 -1.2824
  247MOL0     H32559   7.695  11.359   5.007  0.2836  1.9266  1.4103
  247MOL0     H32560   7.506  11.509   4.954 -0.2182 -1.0414 -1.2750
  247MOL0     H32561   7.540  11.522   5.131  1.5716 -0.8698 -0.5830
  247MOL0     H32562   7.303  11.387   4.985  1.2537 -3.2027  0.5102
  247MOL0     H32563   7.353  11.334   5.141  0.6512 -0.9428  0.7513
  247MOL0     H32564   7.249  11.620   5.072  1.3539  0.0214 -0.8076
  247MOL0     H32565   7.327  11.576   5.224 -3.4890  0.2652  1.8689
  247MOL0     H32566   7.276  11.556   5.420 -0.3149  1.3244  1.1054
  247MOL0     H32567   7.151  11.617   5.640  0.6092 -0.7711 -0.4695
  247MOL0     H32568   6.549  11.792   5.666  0.9934  0.4619 -0.9054
  247MOL0     H32569   6.435  11.941   5.840  0.3136 -0.9282  0.2395
  247MOL0     H32570   6.495  11.932   6.176  0.1555  1.0791  0.9164
  247MOL0     H32571   6.400  11.982   6.033 -1.4060  1.2824  1.0317
  247MOL0     H32572   6.411  12.213   6.128 -1.6491 -0.8259 -0.7928
  247MOL0     H32573   6.484  12.147   6.282 -0.9292 -1.8514  0.6971
  247MOL0     H32574   6.290  12.017   6.338 -0.9645 -0.0790  0.6216
  247MOL0     H32575   6.214  12.057   6.177 -0.4173  3.0221 -1.0567
  247MOL0     H32576   6.267  12.246   6.412 -0.5171 -1.8522  0.9095
  247MOL0     H32577   6.227  12.300   6.250 -1.3148 -0.0316  0.6310
  247MOL0     H32578   6.046  12.127   6.423 -0.0658  0.3849  0.7567
  247MOL0     H32579   6.019  12.170   6.252 -0.9409 -0.3800  1.2689
  247MOL0     H32580   6.006  12.402   6.280  1.9012 -0.5275 -0.8442
  247MOL0     H32581   6.059  12.397   6.440 -1.2217  1.5889  0.1446
  247MOL0     H32582   5.794  12.265   6.340 -0.9931  1.3844 -0.9608
  247MOL0     H32583   5.852  12.258   6.500  2.7918 -0.6624 -1.0158
  247MOL0     H32584   5.814  12.518   6.516 -0.6139  2.0847  0.1710
  247MOL0     H32585   5.669  12.422   6.467 -0.0729  0.3135 -2.1889
  247MOL0     H32586   6.833  12.029   5.990  1.0087  0.5052 -0.5907
  247MOL0     H32587   6.923  11.880   5.849  0.6638  0.3156  0.5205
  247MOL0     H32588   6.783  11.534   5.471  0.3538  0.3473  1.0864
  247MOL0     H32589   6.901  11.446   5.248  3.0665 -0.1791 -2.4240
  247MOL0     H32590   8.758  10.908   5.460  0.7140 -0.1093  1.5420
  247MOL0     H32591   8.985  10.886   5.393 -0.9127  1.1104 -0.9096
  247MOL0     H32592   9.391  10.768   5.286 -0.7584 -0.3178 -0.9189
  247MOL0     H32593   9.611  10.788   5.196  0.5341  1.4658 -2.3785
  247MOL0     H32594   9.771  10.889   5.062  0.8974  0.9583 -1.2496
  247MOL0     H32595   9.823  10.779   5.195 -0.2683 -1.2469 -1.5977
  247MOL0     H32596   9.993  11.005   5.086  0.9566 -1.0644 -0.9788
  247MOL0     H32597  10.040  10.906   5.214  2.1336 -1.2265 -0.8186
  247MOL0     H32598   9.984  10.842   4.925  3.4575 -0.1471 -2.7176
  247MOL0     H32599  10.014  10.707   5.042  1.6197  0.5913  3.0740
  247MOL0     H32600  10.183  10.950   4.969 -0.7103  0.1101 -0.0484
  247MOL0     H32601  10.247  10.830   5.079  2.4986 -0.1274 -3.0480
  247MOL0     H32602  10.349  10.613   4.749 -1.4744 -1.4021  0.4388
  247MOL0     H32603   9.667  11.172   5.381 -0.3603  0.2573  2.0595
  247MOL0     H32604   9.427  11.165   5.461 -2.4784 -1.5737  0.8729
  248MOL0     O32605   9.601   5.971   3.570 -0.4112  0.6654 -0.0133
  248MOL0     C32606   9.673   5.879   3.528  0.0501  0.2456  0.4781
  248MOL0     O32607   9.657   5.810   3.410  0.3354  1.0682 -0.0244
  248MOL0     C32608   9.539   5.834   3.341  0.7050 -0.6948 -0.2879
  248MOL0     C32609   9.436   5.737   3.355  0.2527  1.0095  0.6885
  248MOL0     C32610   9.313   5.760   3.294  0.1195  1.1081 -0.1229
  248MOL0     C32611   9.297   5.881   3.225  0.9626 -0.7862  0.2414
  248MOL0     O32612   9.168   5.910   3.184  0.3620 -0.4212  0.1634
  248MOL0     C32613   9.103   5.813   3.103 -0.4877  0.7145 -0.7087
  248MOL0     C32614   9.066   5.878   2.971  0.9162 -1.1231  0.4502
  248MOL0     C32615   8.962   5.802   2.895  0.1887  0.3057 -0.6705
  248MOL0     C32616   8.895   5.874   2.777 -0.1494  0.3408  1.0416
  248MOL0     C32617   8.786   5.978   2.815  0.3439 -1.0768  0.3061
  248MOL0     C32618   8.726   6.053   2.689 -0.0174 -0.5587  0.2825
  248MOL0     C32619   8.590   6.130   2.724  0.8189  0.7011  0.2899
  248MOL0     C32620   8.473   6.051   2.787  0.3436  0.4062 -0.3307
  248MOL0     N32621   8.346   6.124   2.757  1.1504 -0.1492 -0.1630
  248MOL0     C32622   8.268   6.107   2.643 -0.0714 -0.9840 -0.6657
  248MOL0     C32623   8.176   6.210   2.656  0.0677  0.3357  0.0395
  248MOL0     C32624   8.072   6.263   2.556 -0.7805  0.1116 -1.5614
  248MOL0     C32625   7.941   6.190   2.555 -0.4264  0.6231  0.5510
  248MOL0     C32626   7.834   6.262   2.469 -0.1053 -1.2121 -0.3687
  248MOL0     C32627   7.698   6.203   2.485  0.4635 -0.5449  0.3017
  248MOL0     O32628   7.593   6.294   2.442  0.9130 -0.4305 -0.5189
  248MOL0     C32629   7.461   6.254   2.463  0.8013 -0.2680  0.0449
  248MOL0     C32630   7.431   6.118   2.476 -0.5728  0.4328  1.2261
  248MOL0     C32631   7.304   6.073   2.503 -0.0052  0.6721  0.5419
  248MOL0     C32632   7.194   6.163   2.512 -0.6591  0.5287  0.1254
  248MOL0     C32633   7.058   6.107   2.544 -0.6475 -0.4854 -0.4189
  248MOL0     O32634   6.989   6.172   2.633  0.3502  0.1746 -0.5543
  248MOL0     C32635   6.861   6.131   2.655  0.0643  0.4895 -0.2374
  248MOL0     C32636   6.764   6.160   2.561 -0.0712 -0.1588  0.4541
  248MOL0     C32637   6.631   6.122   2.575  0.3565  0.2526 -0.1992
  248MOL0     C32638   6.601   6.052   2.689 -0.0555 -0.4042 -0.0116
  248MOL0     O32639   6.476   6.005   2.693  0.2161  0.1036 -0.3528
  248MOL0     C32640   6.432   5.911   2.787 -0.4818  0.2231 -0.8076
  248MOL0     C32641   6.317   5.823   2.725 -0.4335  0.1372 -1.1440
  248MOL0     C32642   6.183   5.896   2.719  0.5365  0.8187 -0.3675
  248MOL0     C32643   6.073   5.800   2.677 -0.5621 -0.2421 -0.5049
  248MOL0     C32644   5.935   5.865   2.678  0.1339 -0.1250  1.1159
  248MOL0     C32645   5.838   5.758   2.638 -0.3891 -0.6303  0.8532
  248MOL0     C32646   5.695   5.815   2.615  0.1244  0.9997 -0.3271
  248MOL0     C32647   5.619   5.702   2.542  0.2259 -0.8821 -0.1154
  248MOL0    Cl32648   5.438   5.745   2.527  0.4362  0.2860  0.1985
  248MOL0     C32649   6.695   6.027   2.787 -0.7284  0.0072 -0.5776
  248MOL0     C32650   6.829   6.071   2.776 -0.8061 -0.1039  1.8103
  248MOL0     O32651   7.025   6.010   2.483 -0.4060  0.2874  0.0408
  248MOL0     C32652   7.226   6.294   2.504  1.0636  0.4548  0.0535
  248MOL0     C32653   7.357   6.345   2.488 -0.2244  0.0670  0.1125
  248MOL0     N32654   8.189   6.256   2.793 -0.2273  0.2431 -0.3624
  248MOL0     N32655   8.292   6.208   2.845 -0.0634  0.4693  0.1226
  248MOL0     C32656   9.394   5.981   3.215 -0.3632 -0.2488  0.6070
  248MOL0     C32657   9.521   5.954   3.267  0.7330 -1.0694 -0.1443
  248MOL0     C32658   9.788   5.855   3.624  0.0662  0.7386  0.6037
  248MOL0     C32659   9.832   5.961   3.706 -0.0175 -0.5457 -0.4010
  248MOL0     C32660   9.954   5.949   3.779  0.2727 -0.0042 -0.5015
  248MOL0     C32661  10.024   5.829   3.785 -0.1287 -0.0711 -0.1464
  248MOL0     O32662  10.138   5.838   3.858  0.4633 -0.1364  0.1776
  248MOL0     C32663  10.210   5.718   3.878  0.0154  0.5590 -0.3731
  248MOL0     C32664  10.310   5.753   3.993  0.4899 -0.1967  0.7677
  248MOL0     C32665  10.269   5.707   4.130  0.8266 -0.3759  0.4180
  248MOL0     C32666  10.129   5.771   4.166  0.3771 -0.1203 -0.2330
  248MOL0     C32667  10.132   5.911   4.200  1.3235 -0.2404  0.9641
  248MOL0     C32668  10.125   6.018   4.258  0.0097  0.3712  0.0575
  248MOL0     C32669   9.976   5.716   3.707 -0.0205 -0.4425 -0.7710
  248MOL0     C32670   9.859   5.734   3.628 -0.7451  0.3164  0.2975
  248MOL0     H32671   9.440   5.646   3.414  1.9950  0.2557 -0.4955
  248MOL0     H32672   9.232   5.690   3.312  0.8694  0.2310 -0.0740
  248MOL0     H32673   9.016   5.789   3.165 -0.0609 -0.0411 -0.3826
  248MOL0     H32674   9.163   5.725   3.079  0.5768  1.0734  0.5038
  248MOL0     H32675   9.154   5.902   2.910  0.0832  1.5162  0.1703
  248MOL0     H32676   9.010   5.970   2.987  0.3643 -0.0978 -5.3156
  248MOL0     H32677   8.880   5.779   2.962  1.2172  0.7699  0.8002
  248MOL0     H32678   9.020   5.715   2.861  1.7783 -0.3168  3.0903
  248MOL0     H32679   8.980   5.916   2.723  0.7780 -3.2839 -0.6157
  248MOL0     H32680   8.847   5.793   2.722  0.7329  0.4329  0.1158
  248MOL0     H32681   8.819   6.061   2.879 -0.1368 -0.4046 -0.2929
  248MOL0     H32682   8.702   5.933   2.870 -0.3417 -0.3223 -0.0973
  248MOL0     H32683   8.699   5.978   2.614 -0.7184 -1.1516  1.1080
  248MOL0     H32684   8.797   6.127   2.653 -2.4182  0.5212 -2.6901
  248MOL0     H32685   8.611   6.226   2.772 -0.3941  2.9016 -3.1586
  248MOL0     H32686   8.547   6.165   2.629 -0.7542 -0.0204  0.7014
  248MOL0     H32687   8.493   6.055   2.895 -1.4424  2.3801 -0.0026
  248MOL0     H32688   8.465   5.947   2.756  1.4320 -0.6393  2.6021
  248MOL0     H32689   8.296   6.051   2.554  1.8721 -1.3556  0.1349
  248MOL0     H32690   8.106   6.283   2.453 -0.7150 -0.5030 -1.6600
  248MOL0     H32691   8.048   6.358   2.605  2.1907 -0.1943  0.7659
  248MOL0     H32692   7.908   6.183   2.659  0.1871  1.2221  0.7920
  248MOL0     H32693   7.960   6.089   2.517  0.6807  0.7771  0.6664
  248MOL0     H32694   7.837   6.370   2.488 -1.7057 -1.3900  1.1746
  248MOL0     H32695   7.850   6.255   2.361 -1.9306  1.2342 -0.8956
  248MOL0     H32696   7.690   6.183   2.593 -2.1717 -0.9446  0.0957
  248MOL0     H32697   7.694   6.114   2.422 -0.8755  0.5863 -1.3061
  248MOL0     H32698   7.508   6.042   2.466  0.6355  0.9979  4.8173
  248MOL0     H32699   7.292   5.965   2.509  3.0740  0.0753 -1.6806
  248MOL0     H32700   6.790   6.215   2.471  2.2285  0.7052  1.5826
  248MOL0     H32701   6.559   6.146   2.498  0.4343  2.6697  0.4058
  248MOL0     H32702   6.406   5.965   2.879 -0.2070  2.9472 -2.2319
  248MOL0     H32703   6.513   5.841   2.808 -1.6138 -0.7486  0.5191
  248MOL0     H32704   6.315   5.726   2.777 -1.8260  0.1960 -1.0525
  248MOL0     H32705   6.354   5.791   2.627  3.3820  0.2254  0.0942
  248MOL0     H32706   6.186   5.967   2.636 -0.9810 -1.5362 -2.6080
  248MOL0     H32707   6.160   5.941   2.816 -1.4385  1.1703 -0.9500
  248MOL0     H32708   6.090   5.754   2.579 -0.8608 -1.3812 -0.0382
  248MOL0     H32709   6.079   5.717   2.748 -1.9460 -1.6795 -1.9671
  248MOL0     H32710   5.944   5.949   2.608 -0.5973 -2.1147 -1.5610
  248MOL0     H32711   5.907   5.901   2.777 -0.8263  0.4078  0.6628
  248MOL0     H32712   5.823   5.684   2.717 -2.3781  0.7282  1.8515
  248MOL0     H32713   5.867   5.726   2.538  2.5381  3.6908  0.0389
  248MOL0     H32714   5.652   5.834   2.714  0.1720  1.6001 -0.4176
  248MOL0     H32715   5.695   5.907   2.556 -1.4598  2.3123  1.5933
  248MOL0     H32716   5.622   5.612   2.603 -0.1102  0.4629  1.9985
  248MOL0     H32717   5.657   5.691   2.440  1.2399  0.0074  0.1473
  248MOL0     H32718   6.662   5.979   2.879  0.3872  0.8882  0.3011
  248MOL0     H32719   6.909   6.068   2.850 -0.4853  0.6612  1.5063
  248MOL0     H32720   7.153   6.375   2.508  2.8724  2.0956  1.9799
  248MOL0     H32721   7.381   6.451   2.490 -1.8477  0.4618  0.5164
  248MOL0     H32722   9.380   6.072   3.157 -1.2160 -0.9450 -0.3410
  248MOL0     H32723   9.600   6.025   3.245 -0.2916  0.1282 -0.1333
  248MOL0     H32724   9.781   6.056   3.693  0.4170 -0.1454  0.7572
  248MOL0     H32725   9.988   6.042   3.823  1.0891  1.1219 -3.3147
  248MOL0     H32726  10.265   5.703   3.784  1.9956 -1.7407  1.0187
  248MOL0     H32727  10.157   5.624   3.893  0.2755  0.5104  0.2885
  248MOL0     H32728  10.411   5.721   3.967  1.1683  1.3920  1.2997
  248MOL0     H32729  10.322   5.862   3.995 -3.0420  0.3017  2.4496
  248MOL0     H32730  10.341   5.731   4.209  1.3588 -0.0046 -0.1740
  248MOL0     H32731  10.272   5.598   4.126 -1.4273 -0.4455 -1.3229
  248MOL0     H32732  10.051   5.750   4.092  3.1536  0.7113 -3.6574
  248MOL0     H32733  10.103   5.723   4.261  0.0947  0.4310 -0.0265
  248MOL0     H32734  10.146   6.114   4.300  2.9451 -1.3572  3.0212
  248MOL0     H32735  10.043   5.632   3.718  0.4294  0.0989  0.8591
  248MOL0     H32736   9.830   5.649   3.567  4.5292 -2.7821  1.4333
  249MOL0     O32737   2.070   1.570   8.797 -0.7683 -0.6850  0.0647
  249MOL0     C32738   2.059   1.494   8.889 -0.4935  0.0639  0.0285
  249MOL0     O32739   1.964   1.390   8.899 -0.0128 -0.7599 -0.7398
  249MOL0     C32740   1.859   1.407   8.812  0.0875 -0.8145  0.3268
  249MOL0     C32741   1.862   1.319   8.703 -0.9158  0.7662  0.3108
  249MOL0     C32742   1.764   1.314   8.606  0.2582 -0.9319  0.0179
  249MOL0     C32743   1.659   1.407   8.614  0.4872  0.3209 -0.3916
  249MOL0     O32744   1.571   1.409   8.508  0.0999 -0.2285  0.0948
  249MOL0     C32745   1.441   1.471   8.517  0.2527  0.5245  0.2201
  249MOL0     C32746   1.366   1.462   8.377  0.5115 -0.9146 -0.4001
  249MOL0     C32747   1.418   1.563   8.274  0.4223  0.4586  0.3015
  249MOL0     C32748   1.376   1.524   8.132 -0.0760 -0.1406 -0.1313
  249MOL0     C32749   1.237   1.566   8.103  0.1201 -0.1809 -1.2819
  249MOL0     C32750   1.177   1.514   7.972  0.7764  0.5282 -0.0342
  249MOL0     C32751   1.032   1.579   7.943  0.2093  0.1024  0.0159
  249MOL0     C32752   0.920   1.514   8.028 -0.0456 -0.6146 -0.1468
  249MOL0     N32753   0.796   1.585   7.995  0.0987 -0.3464 -0.1363
  249MOL0     C32754   0.713   1.573   7.885  0.6818  0.9474 -0.3969
  249MOL0     C32755   0.605   1.647   7.921  0.1470 -0.1977  0.1821
  249MOL0     C32756   0.464   1.654   7.847  0.3711 -0.0285  0.0094
  249MOL0     C32757   0.475   1.670   7.692  0.0939  0.1961  0.8246
  249MOL0     C32758   0.338   1.719   7.632  0.2631 -0.1841 -0.4322
  249MOL0     C32759   0.228   1.611   7.608 -0.8712 -0.3947 -0.2337
  249MOL0     O32760   0.200   1.548   7.735 -0.0883  0.0654  0.2381
  249MOL0     C32761   0.074   1.527   7.781 -1.0098 -0.4833  0.8626
  249MOL0     C32762  -0.040   1.580   7.718 -0.1961 -0.7493  0.2877
  249MOL0     C32763  -0.159   1.558   7.772  0.6402  0.2862 -0.5322
  249MOL0     C32764  -0.171   1.492   7.893 -0.4628 -0.2011 -0.3772
  249MOL0     C32765  -0.304   1.461   7.945  0.1652  0.8755  0.4266
  249MOL0     O32766  -0.419   1.504   7.879  0.2018  0.2818 -0.0025
  249MOL0     C32767  -0.536   1.430   7.890  0.2968 -0.5720  0.5946
  249MOL0     C32768  -0.599   1.375   8.005  0.5149 -0.0971 -0.1024
  249MOL0     C32769  -0.720   1.299   7.990  0.3614 -0.1004  0.6273
  249MOL0     C32770  -0.794   1.307   7.868 -0.5890 -1.4180 -0.5897
  249MOL0     O32771  -0.918   1.247   7.868  0.2704 -1.1742 -0.6126
  249MOL0     C32772  -1.015   1.308   7.782  0.1355 -0.0767 -1.0743
  249MOL0     C32773  -1.156   1.282   7.823  0.2988 -0.8762  0.1415
  249MOL0     C32774  -1.251   1.360   7.731  0.2557 -0.1115 -0.6151
  249MOL0     C32775  -1.396   1.350   7.786 -0.3875  0.1398  0.1536
  249MOL0     C32776  -1.510   1.426   7.715  0.5564 -0.6749 -0.1330
  249MOL0     C32777  -1.637   1.439   7.808 -0.0817 -0.4916 -0.1544
  249MOL0     C32778  -1.611   1.549   7.912  0.3897  0.0472  0.2449
  249MOL0     C32779  -1.713   1.671   7.914  1.2782  0.9488  0.4021
  249MOL0    Cl32780  -1.729   1.749   7.755  0.1271  0.1085  0.0630
  249MOL0     C32781  -0.729   1.373   7.767  0.4728 -0.8688  0.6315
  249MOL0     C32782  -0.603   1.417   7.771  0.6497 -0.1420 -0.6098
  249MOL0     O32783  -0.311   1.379   8.038 -0.1194 -0.1715 -0.0062
  249MOL0     C32784  -0.052   1.428   7.944 -0.1310 -0.2090  0.9452
  249MOL0     C32785   0.069   1.444   7.886  0.4932  0.9261 -0.2772
  249MOL0     N32786   0.625   1.704   8.045  0.1197 -0.4697 -0.8073
  249MOL0     N32787   0.746   1.670   8.085  0.6241 -0.0018 -0.0033
  249MOL0     C32788   1.655   1.509   8.713  0.9658  0.1650 -0.5775
  249MOL0     C32789   1.756   1.508   8.816  1.2922  0.2134  0.0253
  249MOL0     C32790   2.159   1.495   9.003 -0.1194  0.6278  0.4926
  249MOL0     C32791   2.166   1.381   9.079  0.8212  1.2179  0.6825
  249MOL0     C32792   2.247   1.378   9.194  0.3541  0.1783 -0.0275
  249MOL0     C32793   2.320   1.487   9.231 -0.4909  0.4893 -0.4250
  249MOL0     O32794   2.406   1.459   9.338 -0.5488  0.9638 -0.1381
  249MOL0     C32795   2.513   1.550   9.356 -0.4769  0.6555  0.1165
  249MOL0     C32796   2.499   1.612   9.500 -0.0348 -0.2237 -0.1532
  249MOL0     C32797   2.563   1.542   9.623 -0.1682  0.5550  0.2758
  249MOL0     C32798   2.488   1.578   9.746  0.0421 -0.2940  0.1671
  249MOL0     C32799   2.548   1.510   9.865 -0.4450 -0.2910  0.2160
  249MOL0     C32800   2.603   1.450   9.952 -0.0199 -0.5019 -0.8554
  249MOL0     C32801   2.323   1.603   9.146 -0.2753  0.3480 -0.9382
  249MOL0     C32802   2.237   1.606   9.035 -0.3208 -0.1336  0.3134
  249MOL0     H32803   1.935   1.239   8.694 -1.6408  0.0134  0.9520
  249MOL0     H32804   1.771   1.245   8.522  1.2914 -1.8961  0.8716
  249MOL0     H32805   1.453   1.577   8.540 -0.4384  0.8495 -0.8316
  249MOL0     H32806   1.385   1.410   8.589  0.2008  0.5396  0.1922
  249MOL0     H32807   1.258   1.476   8.388 -0.0776 -3.3915 -2.3222
  249MOL0     H32808   1.373   1.358   8.345 -1.2657 -2.1205  2.6150
  249MOL0     H32809   1.527   1.561   8.282  0.6271  2.7701 -1.1162
  249MOL0     H32810   1.383   1.661   8.306  0.0371  0.1094  0.9802
  249MOL0     H32811   1.441   1.569   8.057  0.1113  3.7870  2.1095
  249MOL0     H32812   1.381   1.417   8.111  1.1883  0.3378 -2.6678
  249MOL0     H32813   1.248   1.674   8.089  2.3561 -0.3963 -1.5544
  249MOL0     H32814   1.173   1.533   8.185  0.3056  0.4853 -0.8613
  249MOL0     H32815   1.173   1.405   7.978 -0.8634  0.3039 -3.0729
  249MOL0     H32816   1.238   1.536   7.883 -1.1662 -1.0349 -1.8486
  249MOL0     H32817   1.044   1.688   7.954  2.1225  0.3076 -2.9198
  249MOL0     H32818   1.006   1.559   7.839  0.3433 -2.1377  0.3673
  249MOL0     H32819   0.955   1.513   8.132 -1.8445 -0.1422  0.5017
  249MOL0     H32820   0.907   1.407   8.012 -0.2579 -0.7677  0.9561
  249MOL0     H32821   0.720   1.517   7.793  1.9209  0.9453 -0.3105
  249MOL0     H32822   0.398   1.734   7.883 -0.5374 -1.4161  1.5819
  249MOL0     H32823   0.408   1.562   7.870  0.7056 -0.4140 -0.6737
  249MOL0     H32824   0.503   1.581   7.635  0.5331  0.6226  0.3606
  249MOL0     H32825   0.555   1.738   7.661  1.2920 -1.1230  0.9153
  249MOL0     H32826   0.300   1.803   7.691  1.8067  1.5355 -1.7577
  249MOL0     H32827   0.363   1.769   7.538  2.0158  1.4692  0.8313
  249MOL0     H32828   0.267   1.534   7.540 -2.3573 -0.5580 -0.9430
  249MOL0     H32829   0.149   1.662   7.552  0.0378 -0.3915 -1.5609
  249MOL0     H32830  -0.038   1.643   7.630 -1.3159 -0.2044  0.6310
  249MOL0     H32831  -0.242   1.593   7.712  2.2233  1.1228 -2.3484
  249MOL0     H32832  -0.568   1.379   8.109 -1.1446 -0.0927  0.4177
  249MOL0     H32833  -0.759   1.257   8.082  1.8911  2.0777  2.3685
  249MOL0     H32834  -0.991   1.277   7.679  3.5973 -3.3081  0.4636
  249MOL0     H32835  -0.999   1.416   7.782  1.3677 -0.2329  0.0105
  249MOL0     H32836  -1.176   1.323   7.922  0.4928 -1.3671  0.3877
  249MOL0     H32837  -1.183   1.176   7.816 -0.5574 -0.5776 -2.0435
  249MOL0     H32838  -1.256   1.308   7.635 -0.9652 -0.8872 -0.1604
  249MOL0     H32839  -1.225   1.466   7.723 -2.6324  0.6988 -0.0791
  249MOL0     H32840  -1.430   1.249   7.810  1.2058 -0.2004  1.1285
  249MOL0     H32841  -1.383   1.405   7.880  1.9520  2.2254 -1.2629
  249MOL0     H32842  -1.534   1.381   7.619 -0.2208 -1.0600  0.2322
  249MOL0     H32843  -1.466   1.526   7.700 -1.9953  0.5699  0.1936
  249MOL0     H32844  -1.660   1.342   7.852 -1.1782  0.1483  0.7111
  249MOL0     H32845  -1.723   1.463   7.746  0.8372  1.0555 -0.8826
  249MOL0     H32846  -1.600   1.496   8.007 -0.1448 -0.4711  0.0287
  249MOL0     H32847  -1.510   1.589   7.904 -0.5340  2.7402  0.8325
  249MOL0     H32848  -1.672   1.737   7.991 -1.5130  0.6811  2.2575
  249MOL0     H32849  -1.809   1.638   7.956  0.6960  2.3037  0.1829
  249MOL0     H32850  -0.783   1.366   7.673 -1.2339 -0.8982  1.5639
  249MOL0     H32851  -0.542   1.434   7.683 -0.1633  0.2258 -1.1216
  249MOL0     H32852  -0.063   1.359   8.027 -1.6528 -0.3616  0.6427
  249MOL0     H32853   0.155   1.398   7.935 -2.2971 -2.1067  2.2443
  249MOL0     H32854   1.577   1.583   8.728  1.3009  0.3877  0.1229
  249MOL0     H32855   1.769   1.576   8.900 -0.1708 -1.1268  1.4140
  249MOL0     H32856   2.110   1.290   9.059  0.4080  0.8291  3.2515
  249MOL0     H32857   2.268   1.288   9.251 -0.3615  0.5545  0.8560
  249MOL0     H32858   2.522   1.630   9.283  0.0829  1.0727  0.6351
  249MOL0     H32859   2.602   1.489   9.339  0.4774  2.2812 -1.0343
  249MOL0     H32860   2.553   1.707   9.503 -1.1442  0.3911  1.4155
  249MOL0     H32861   2.395   1.645   9.511 -0.6917 -1.2855 -2.4576
  249MOL0     H32862   2.665   1.575   9.643 -0.6758  3.0356 -0.8423
  249MOL0     H32863   2.564   1.434   9.605 -0.7615  0.5861  0.0252
  249MOL0     H32864   2.490   1.686   9.766 -2.0743 -0.3937  1.1495
  249MOL0     H32865   2.379   1.566   9.740 -0.4148  3.1001 -0.6360
  249MOL0     H32866   2.651   1.389  10.026  2.2088 -1.1868 -2.7462
  249MOL0     H32867   2.387   1.689   9.164  1.3053 -1.0073  0.1790
  249MOL0     H32868   2.225   1.697   8.977 -0.8867  0.0879  0.7637
  250MOL0     O32869   9.154   9.656   9.589  0.0410 -0.0667  0.5063
  250MOL0     C32870   9.194   9.609   9.485  0.0718 -0.1908 -0.3585
  250MOL0     O32871   9.117   9.545   9.391  0.0835 -0.2849 -0.4973
  250MOL0     C32872   8.983   9.583   9.379 -0.8075  0.1414 -0.1929
  250MOL0     C32873   8.903   9.522   9.473  0.1248 -0.4520 -0.8488
  250MOL0     C32874   8.763   9.536   9.450 -0.2180  0.0750  0.2511
  250MOL0     C32875   8.707   9.623   9.353  0.5867  0.3094 -0.2388
  250MOL0     O32876   8.569   9.638   9.350  0.8917 -0.4046 -0.5459
  250MOL0     C32877   8.506   9.748   9.277  0.2465  0.2090 -1.0628
  250MOL0     C32878   8.360   9.766   9.336 -0.8056 -0.4949  0.3249
  250MOL0     C32879   8.272   9.643   9.315  0.4413 -0.4527  0.6857
  250MOL0     C32880   8.127   9.680   9.348  0.0457  0.0283  0.7281
  250MOL0     C32881   8.033   9.573   9.304  0.7772 -0.2966  0.1333
  250MOL0     C32882   8.015   9.456   9.391 -0.3380  1.4782 -0.0233
  250MOL0     C32883   7.897   9.373   9.345 -0.3999  0.5093 -0.0129
  250MOL0     C32884   7.910   9.304   9.207  0.6412 -0.6789  0.4533
  250MOL0     N32885   7.783   9.235   9.171  0.1042 -0.5026 -0.0779
  250MOL0     C32886   7.666   9.295   9.138  0.1574 -0.4882  0.1747
  250MOL0     C32887   7.579   9.189   9.126  0.1989  0.0207 -0.3628
  250MOL0     C32888   7.433   9.194   9.099 -0.6979 -0.5845 -0.9571
  250MOL0     C32889   7.399   9.176   8.952 -0.4136 -0.4396 -0.3675
  250MOL0     C32890   7.259   9.220   8.913 -0.1132 -0.0067 -0.2619
  250MOL0     C32891   7.144   9.130   8.967  0.4645 -0.4313  0.3017
  250MOL0     O32892   7.031   9.163   8.885  0.1022  0.6715  0.4505
  250MOL0     C32893   6.911   9.182   8.941  0.8020 -0.0263  0.6079
  250MOL0     C32894   6.860   9.098   9.036 -0.1376 -0.0385  0.0848
  250MOL0     C32895   6.738   9.138   9.097 -0.7544  0.6304  0.4650
  250MOL0     C32896   6.662   9.250   9.050 -0.9519  0.7532 -0.4122
  250MOL0     C32897   6.530   9.278   9.100 -0.0893 -0.3338  0.0931
  250MOL0     O32898   6.457   9.182   9.169  0.3863 -0.2352  0.6860
  250MOL0     C32899   6.326   9.206   9.220 -0.1789 -0.7163 -0.3190
  250MOL0     C32900   6.304   9.173   9.355  0.5916 -0.7014  0.2702
  250MOL0     C32901   6.171   9.194   9.411 -1.5042  0.3645  0.0518
  250MOL0     C32902   6.070   9.230   9.325  0.6898  0.3495 -0.2224
  250MOL0     O32903   5.955   9.235   9.401  0.2655 -0.7148  0.2756
  250MOL0     C32904   5.821   9.255   9.334 -0.4688 -0.4490 -0.1706
  250MOL0     C32905   5.698   9.284   9.427 -0.4083  0.4779  0.2525
  250MOL0     C32906   5.709   9.417   9.499 -0.4150  0.2506  0.3942
  250MOL0     C32907   5.580   9.436   9.584  0.4564  0.0727  0.1360
  250MOL0     C32908   5.624   9.520   9.711  0.4870  0.0811  0.2247
  250MOL0     C32909   5.497   9.547   9.793  0.7918  0.6611 -0.8276
  250MOL0     C32910   5.533   9.620   9.920  0.5437  0.2493 -0.2026
  250MOL0     C32911   5.567   9.776   9.904  0.0424  0.2582  0.4023
  250MOL0    Cl32912   5.430   9.867   9.830  0.0097 -0.7483  0.9396
  250MOL0     C32913   6.092   9.275   9.195 -0.0376 -0.5187  0.1868
  250MOL0     C32914   6.221   9.266   9.143 -0.6787 -0.0953 -0.4528
  250MOL0     O32915   6.487   9.397   9.080 -0.6049  0.9864  0.1359
  250MOL0     C32916   6.726   9.331   8.957 -0.5244  0.0116  0.1947
  250MOL0     C32917   6.846   9.295   8.892  0.2363  0.5212 -0.8392
  250MOL0     N32918   7.651   9.075   9.128  0.6092 -0.5626  0.0813
  250MOL0     N32919   7.774   9.101   9.154  0.1850 -0.4408  0.3210
  250MOL0     C32920   8.789   9.689   9.267 -0.0177 -0.5180 -0.1071
  250MOL0     C32921   8.932   9.674   9.288 -0.0118 -0.1883  0.3873
  250MOL0     C32922   9.341   9.609   9.471 -0.7994 -0.4213  0.2372
  250MOL0     C32923   9.406   9.546   9.364  0.4036  0.0552  0.5483
  250MOL0     C32924   9.540   9.531   9.357  0.2133 -0.3276 -0.0840
  250MOL0     C32925   9.623   9.574   9.455  0.4040  0.0907  0.5560
  250MOL0     O32926   9.755   9.540   9.436 -0.1910 -0.1965 -0.2946
  250MOL0     C32927   9.852   9.586   9.523 -0.3869 -0.1006 -0.2695
  250MOL0     C32928   9.999   9.574   9.476 -0.1877  0.2698  0.0962
  250MOL0     C32929  10.053   9.678   9.383  0.0030 -0.2798  0.4834
  250MOL0     C32930  10.187   9.643   9.323 -0.1877 -0.0473 -0.3574
  250MOL0     C32931  10.283   9.632   9.438  0.0265  0.1922  0.4215
  250MOL0     C32932  10.363   9.638   9.530  0.9502 -0.8857 -0.2189
  250MOL0     C32933   9.572   9.647   9.565  0.6277  0.1117  0.1612
  250MOL0     C32934   9.434   9.666   9.570 -0.0247 -0.8321 -0.0030
  250MOL0     H32935   8.940   9.462   9.556  1.7726  1.3243 -0.2320
  250MOL0     H32936   8.698   9.498   9.529 -1.4602  3.4200  1.0077
  250MOL0     H32937   8.509   9.719   9.172  1.3638  2.7443 -1.8307
  250MOL0     H32938   8.567   9.836   9.303 -0.3791 -0.6432  4.6506
  250MOL0     H32939   8.329   9.857   9.282 -0.0470  1.7075  3.3383
  250MOL0     H32940   8.370   9.796   9.440 -0.4949  0.3398  0.0620
  250MOL0     H32941   8.301   9.561   9.381  0.1355  1.4706  3.3512
  250MOL0     H32942   8.281   9.599   9.215 -1.7613  0.0115  0.2384
  250MOL0     H32943   8.120   9.693   9.456 -1.8298 -3.1879  1.1315
  250MOL0     H32944   8.099   9.777   9.305 -0.8032  0.0209  1.2353
  250MOL0     H32945   8.065   9.536   9.207 -0.8435 -0.8361 -0.2299
  250MOL0     H32946   7.932   9.615   9.296  1.5068  1.5177 -0.0932
  250MOL0     H32947   8.000   9.486   9.495  0.4829 -1.0512  0.8953
  250MOL0     H32948   8.106   9.396   9.399  0.0799  2.0515 -0.4230
  250MOL0     H32949   7.884   9.297   9.423 -3.3711  2.9474  2.0667
  250MOL0     H32950   7.810   9.438   9.352 -1.6628 -1.1843  0.9129
  250MOL0     H32951   7.997   9.238   9.202 -1.2074 -3.2029 -0.9602
  250MOL0     H32952   7.916   9.379   9.128  0.7695 -2.3937 -1.2635
  250MOL0     H32953   7.641   9.399   9.155  1.9992 -0.3567  2.4846
  250MOL0     H32954   7.391   9.291   9.127 -0.4190 -0.7839  0.1806
  250MOL0     H32955   7.381   9.120   9.160  0.7170 -0.2925  0.6749
  250MOL0     H32956   7.409   9.070   8.927 -1.5181 -0.8548  0.7794
  250MOL0     H32957   7.462   9.231   8.882 -1.4278 -0.7348 -1.5427
  250MOL0     H32958   7.246   9.319   8.957 -1.0713 -0.2811  0.0811
  250MOL0     H32959   7.270   9.225   8.804  2.2794 -4.7915 -0.5031
  250MOL0     H32960   7.129   9.166   9.070 -1.3671  2.1013 -0.7356
  250MOL0     H32961   7.170   9.024   8.959  1.7801  0.0369 -4.2832
  250MOL0     H32962   6.911   9.004   9.055 -1.9591 -0.9697  0.6424
  250MOL0     H32963   6.696   9.064   9.164  0.1869 -0.0013  0.3803
  250MOL0     H32964   6.385   9.137   9.417 -0.1572  0.5752  2.0879
  250MOL0     H32965   6.158   9.161   9.514 -1.8796  0.6618  0.1012
  250MOL0     H32966   5.804   9.169   9.269 -0.2439 -3.5894  3.5646
  250MOL0     H32967   5.841   9.341   9.269  1.4597 -1.2246 -0.6930
  250MOL0     H32968   5.698   9.203   9.501  0.6945 -1.7518 -2.0469
  250MOL0     H32969   5.609   9.281   9.363 -0.4397 -1.7321  0.3290
  250MOL0     H32970   5.728   9.502   9.433 -0.5772 -1.0090 -1.3389
  250MOL0     H32971   5.797   9.405   9.562  0.1475 -0.9869 -0.5863
  250MOL0     H32972   5.501   9.477   9.521  1.1233 -0.8814 -1.3878
  250MOL0     H32973   5.535   9.343   9.619 -0.5512  1.2835  2.2699
  250MOL0     H32974   5.682   9.609   9.686  0.0477  0.2428 -0.2311
  250MOL0     H32975   5.685   9.447   9.766 -1.2751 -1.6707 -0.0274
  250MOL0     H32976   5.460   9.451   9.831  0.3372  0.8434 -0.8147
  250MOL0     H32977   5.412   9.598   9.749 -1.2386 -0.8618  1.1171
  250MOL0     H32978   5.438   9.623   9.974  0.2418 -1.2228 -0.5979
  250MOL0     H32979   5.606   9.571   9.984 -0.0376  0.7898  0.8945
  250MOL0     H32980   5.657   9.791   9.843 -1.2926 -0.5060 -1.9066
  250MOL0     H32981   5.583   9.816  10.004 -0.7526  0.0229  0.6313
  250MOL0     H32982   6.014   9.328   9.141  0.0687 -0.5311  0.0235
  250MOL0     H32983   6.245   9.320   9.051  0.8575  4.7040  2.3929
  250MOL0     H32984   6.668   9.412   8.913  0.5258  0.4163 -0.4835
  250MOL0     H32985   6.895   9.343   8.808  0.1407 -0.9080 -1.7518
  250MOL0     H32986   8.763   9.754   9.184  1.3916 -1.1013 -1.0470
  250MOL0     H32987   9.007   9.714   9.220  1.4687  0.8325  2.5027
  250MOL0     H32988   9.353   9.508   9.276  0.7591  0.0607  0.3292
  250MOL0     H32989   9.587   9.488   9.269 -2.5759 -0.5300 -1.5770
  250MOL0     H32990   9.839   9.539   9.621  0.4564  2.1311  0.9782
  250MOL0     H32991   9.831   9.689   9.553 -1.6177 -0.9069  1.9353
  250MOL0     H32992  10.065   9.557   9.561  0.8166 -2.1426 -1.0503
  250MOL0     H32993  10.006   9.481   9.418 -2.1567  0.5352 -0.6479
  250MOL0     H32994  10.065   9.769   9.441  0.9119 -1.1141  1.6659
  250MOL0     H32995   9.983   9.714   9.306  0.8329 -1.7492 -1.0253
  250MOL0     H32996  10.182   9.550   9.267 -0.9793 -0.3684  0.2263
  250MOL0     H32997  10.225   9.727   9.264  2.2141  0.8662  2.2309
  250MOL0     H32998  10.435   9.645   9.609  0.4986 -0.7899  0.1839
  250MOL0     H32999   9.634   9.674   9.650  1.2165 -0.4535 -0.0742
  250MOL0     H33000   9.404   9.716   9.661  0.9762 -0.5222  0.1743
  251MOL0     O33001   8.180   3.961   6.389 -0.0070 -0.3601  0.1565
  251MOL0     C33002   8.240   3.860   6.353  0.0234 -0.3427 -0.1985
  251MOL0     O33003   8.180   3.732   6.342  1.3492 -0.5991  0.2073
  251MOL0     C33004   8.052   3.689   6.381 -0.3478  0.1514  0.2764
  251MOL0     C33005   7.976   3.755   6.476  0.5686 -0.1670 -0.0120
  251MOL0     C33006   7.857   3.704   6.524 -0.6465  0.0957  0.3826
  251MOL0     C33007   7.807   3.580   6.465  0.9997 -0.0556  0.1506
  251MOL0     O33008   7.686   3.525   6.496 -0.4473 -0.1566 -0.2569
  251MOL0     C33009   7.675   3.502   6.639 -0.4742  0.7779 -0.1884
  251MOL0     C33010   7.725   3.358   6.665 -0.4927 -0.7729 -0.2426
  251MOL0     C33011   7.876   3.345   6.643  0.1068 -0.3772 -0.0409
  251MOL0     C33012   7.937   3.232   6.724 -0.0317  0.2754 -0.6314
  251MOL0     C33013   8.090   3.249   6.722  0.7135  0.5094 -0.2329
  251MOL0     C33014   8.153   3.117   6.758  0.4391  0.0261  0.7507
  251MOL0     C33015   8.305   3.125   6.781  0.3275 -0.1196 -0.7191
  251MOL0     C33016   8.376   2.988   6.792  0.3710  0.0061 -0.3886
  251MOL0     N33017   8.323   2.907   6.899  0.8608 -0.3746  0.2513
  251MOL0     C33018   8.382   2.901   7.022  0.0548  0.4853 -0.2590
  251MOL0     C33019   8.323   2.788   7.082 -0.5007 -0.3695  1.2104
  251MOL0     C33020   8.363   2.734   7.216  0.3020  0.1443  0.6170
  251MOL0     C33021   8.228   2.711   7.292 -0.1735 -0.1070  0.3434
  251MOL0     C33022   8.255   2.641   7.430  0.0906  0.4223 -0.5860
  251MOL0     C33023   8.122   2.647   7.500  0.0687  0.4458 -0.4049
  251MOL0     O33024   8.097   2.790   7.524  0.0699 -0.4501 -0.6616
  251MOL0     C33025   7.988   2.820   7.603  0.6704 -0.3059 -1.4334
  251MOL0     C33026   7.966   2.953   7.640 -0.0549 -0.0907 -0.4947
  251MOL0     C33027   7.857   2.996   7.715  0.3721  0.5100  1.5810
  251MOL0     C33028   7.756   2.901   7.739 -0.5593  0.3465  0.3512
  251MOL0     C33029   7.633   2.944   7.798  0.0119 -1.1903  0.0155
  251MOL0     O33030   7.546   2.848   7.859 -0.7255  0.0535  0.0093
  251MOL0     C33031   7.415   2.880   7.888  0.0846  0.3545 -0.1270
  251MOL0     C33032   7.355   2.823   8.005 -1.0563 -0.1665  0.1261
  251MOL0     C33033   7.236   2.859   8.055  0.2652  0.4954  0.3048
  251MOL0     C33034   7.160   2.955   7.994  0.3800  0.3767  0.5363
  251MOL0     O33035   7.036   3.003   8.034  0.2285  0.0789 -0.4399
  251MOL0     C33036   6.945   2.913   8.094  0.4009  0.1924 -0.3571
  251MOL0     C33037   6.958   2.925   8.246  0.1159  0.1726  0.3023
  251MOL0     C33038   6.936   3.066   8.304 -0.6390  0.0325 -0.5457
  251MOL0     C33039   6.806   3.136   8.268 -0.0480 -0.7344 -0.3046
  251MOL0     C33040   6.806   3.293   8.304 -0.2243  0.3348  0.1856
  251MOL0     C33041   6.685   3.361   8.244 -0.2520 -0.4835  0.8339
  251MOL0     C33042   6.676   3.506   8.285 -0.6120  0.2328  0.3151
  251MOL0     C33043   6.539   3.575   8.252 -0.2900  0.3594 -0.3383
  251MOL0    Cl33044   6.414   3.566   8.381 -0.0560 -0.0292  0.1197
  251MOL0     C33045   7.211   3.020   7.886  0.8002  0.7607 -0.2702
  251MOL0     C33046   7.338   2.984   7.829  0.3009  0.3208  0.2765
  251MOL0     O33047   7.605   3.063   7.776  0.4097 -0.1764 -0.1218
  251MOL0     C33048   7.786   2.766   7.708  0.1741 -0.1413 -0.2627
  251MOL0     C33049   7.893   2.722   7.637  0.4582  0.0802 -0.1662
  251MOL0     N33050   8.222   2.739   7.004  0.2405  0.2714 -0.3756
  251MOL0     N33051   8.227   2.811   6.895 -0.9846  0.3877 -0.4835
  251MOL0     C33052   7.880   3.515   6.368 -0.2036  1.1489  0.6267
  251MOL0     C33053   8.011   3.565   6.326  0.0015  0.2834 -0.3381
  251MOL0     C33054   8.381   3.870   6.297 -0.4083 -0.5380 -0.5770
  251MOL0     C33055   8.463   3.976   6.350 -0.0992  0.4285  0.5833
  251MOL0     C33056   8.600   3.990   6.307  0.5218 -0.0139 -0.1832
  251MOL0     C33057   8.646   3.903   6.209  0.0200 -0.3047  0.0460
  251MOL0     O33058   8.775   3.920   6.169  0.0782  0.4818  0.3274
  251MOL0     C33059   8.859   3.801   6.172 -0.3600  0.1468 -0.6558
  251MOL0     C33060   9.005   3.851   6.161  0.0604  0.2724  0.0572
  251MOL0     C33061   9.104   3.746   6.196 -0.0843  0.1029  0.1367
  251MOL0     C33062   9.258   3.788   6.220  0.7700 -0.2344 -0.4443
  251MOL0     C33063   9.308   3.815   6.087  0.5567  0.2780 -0.2616
  251MOL0     C33064   9.349   3.809   5.980 -0.8901 -0.4008  0.8936
  251MOL0     C33065   8.562   3.810   6.150  0.6402 -0.9813  0.3367
  251MOL0     C33066   8.432   3.792   6.199  0.6395  0.0594 -0.2215
  251MOL0     H33067   8.007   3.852   6.512  0.0472 -0.2823  0.7822
  251MOL0     H33068   7.798   3.751   6.602  1.7707 -2.5285  4.1650
  251MOL0     H33069   7.569   3.509   6.666 -0.3279  0.1717  0.5835
  251MOL0     H33070   7.716   3.585   6.696 -2.9810  2.6152 -0.8912
  251MOL0     H33071   7.675   3.285   6.602  0.8015 -3.1954  1.3911
  251MOL0     H33072   7.702   3.340   6.771  1.3947 -2.5498 -0.0703
  251MOL0     H33073   7.929   3.435   6.676 -2.7789  1.1295  0.8749
  251MOL0     H33074   7.896   3.336   6.536  3.4651  0.1612  0.4335
  251MOL0     H33075   7.911   3.233   6.830 -1.4727 -2.7734 -0.8511
  251MOL0     H33076   7.908   3.133   6.688  0.8887 -1.4472  2.9239
  251MOL0     H33077   8.112   3.327   6.795 -1.9547  0.6712  0.5001
  251MOL0     H33078   8.110   3.290   6.623  0.3121  2.3475  0.4126
  251MOL0     H33079   8.138   3.036   6.687  2.0592 -3.5692  4.1305
  251MOL0     H33080   8.106   3.073   6.847 -2.2958 -1.9847 -1.5235
  251MOL0     H33081   8.355   3.180   6.701  2.0259 -1.6076 -0.7547
  251MOL0     H33082   8.320   3.181   6.874  3.0743  0.2409 -1.2909
  251MOL0     H33083   8.483   2.997   6.817 -0.0368  0.4755  1.3224
  251MOL0     H33084   8.367   2.931   6.699  0.3273  0.2070 -0.5085
  251MOL0     H33085   8.467   2.955   7.062  1.5643 -1.7939 -0.2258
  251MOL0     H33086   8.435   2.802   7.263  1.7031 -1.3427  0.7137
  251MOL0     H33087   8.414   2.639   7.201 -2.3001 -1.5675  1.8144
  251MOL0     H33088   8.161   2.648   7.232  1.5596 -0.6765 -1.0628
  251MOL0     H33089   8.169   2.803   7.302  1.0754  0.9843 -1.6522
  251MOL0     H33090   8.279   2.538   7.402 -0.7006 -0.3911  1.5321
  251MOL0     H33091   8.332   2.678   7.498 -2.4420 -0.6348  3.1533
  251MOL0     H33092   8.139   2.602   7.598  1.3214  1.5023 -0.1120
  251MOL0     H33093   8.044   2.592   7.445 -1.1323  0.5553  1.1184
  251MOL0     H33094   8.051   3.014   7.610  0.5751  0.8234  2.7373
  251MOL0     H33095   7.847   3.103   7.730 -0.0986  0.8367 -0.6859
  251MOL0     H33096   7.403   2.737   8.050 -2.2362  0.0195  1.8484
  251MOL0     H33097   7.195   2.800   8.137  1.7986 -0.8513  0.1611
  251MOL0     H33098   6.959   2.808   8.064  0.3617 -0.1169  0.6850
  251MOL0     H33099   6.847   2.941   8.054 -0.1982 -1.1233  0.1267
  251MOL0     H33100   7.057   2.892   8.278  0.8323  0.8317 -1.1505
  251MOL0     H33101   6.882   2.865   8.296  0.8019  0.6453  1.9864
  251MOL0     H33102   7.023   3.120   8.266 -0.9693 -0.1048 -1.5098
  251MOL0     H33103   6.949   3.055   8.412 -1.7016 -0.7793 -0.4911
  251MOL0     H33104   6.790   3.120   8.161  1.3031 -1.9709 -0.3573
  251MOL0     H33105   6.726   3.084   8.322 -0.5015 -0.2867 -0.5351
  251MOL0     H33106   6.893   3.344   8.262 -1.0508 -0.2761 -2.4947
  251MOL0     H33107   6.791   3.317   8.409 -2.8688  1.1928 -0.3127
  251MOL0     H33108   6.593   3.306   8.268 -0.5100 -1.5316 -2.1630
  251MOL0     H33109   6.697   3.350   8.136 -1.4221  0.5661  0.5656
  251MOL0     H33110   6.687   3.511   8.394 -0.9269  0.1469  0.3523
  251MOL0     H33111   6.751   3.563   8.230  0.4770 -1.8734 -0.5351
  251MOL0     H33112   6.493   3.539   8.159 -1.5731 -1.1923  0.8468
  251MOL0     H33113   6.553   3.682   8.232 -1.1876  0.4931 -0.2873
  251MOL0     H33114   7.153   3.106   7.856 -1.6385 -1.1001 -1.2278
  251MOL0     H33115   7.365   3.049   7.746 -2.9491  1.9327  0.3215
  251MOL0     H33116   7.709   2.696   7.738  0.2317  0.4366  1.3727
  251MOL0     H33117   7.895   2.614   7.621  2.4346  0.1299 -0.4744
  251MOL0     H33118   7.838   3.426   6.323 -0.0726  1.2687  0.2657
  251MOL0     H33119   8.083   3.513   6.263  0.0089  0.7992 -0.7665
  251MOL0     H33120   8.416   4.028   6.433 -1.0657  0.9277 -0.2487
  251MOL0     H33121   8.658   4.067   6.357  0.0726  0.5203 -0.4645
  251MOL0     H33122   8.845   3.747   6.078  0.2368  0.6615 -1.0486
  251MOL0     H33123   8.837   3.740   6.260  1.4354 -0.2298 -0.4457
  251MOL0     H33124   9.006   3.890   6.059  1.5985 -3.3128 -1.4769
  251MOL0     H33125   9.021   3.934   6.230 -1.6544  0.5102  0.2118
  251MOL0     H33126   9.100   3.679   6.109 -1.1353  1.9101 -1.2921
  251MOL0     H33127   9.063   3.681   6.273  0.8035 -0.8273 -0.1598
  251MOL0     H33128   9.260   3.877   6.284  2.0524  2.0611 -3.4212
  251MOL0     H33129   9.316   3.709   6.268 -0.5277  0.5179  2.5886
  251MOL0     H33130   9.396   3.797   5.884 -2.3335  0.8712  0.0023
  251MOL0     H33131   8.578   3.746   6.064 -3.2404 -3.8909  1.4954
  251MOL0     H33132   8.375   3.711   6.155 -1.5563  2.1191 -1.4130
  252MOL0     O33133   0.623   8.081   0.500 -0.0532  0.2243 -0.1251
  252MOL0     C33134   0.575   8.032   0.395  0.3556 -0.0313  0.5489
  252MOL0     O33135   0.630   7.919   0.325 -0.2717  0.2734 -0.4709
  252MOL0     C33136   0.745   7.856   0.374  0.2600  0.4405 -0.8499
  252MOL0     C33137   0.818   7.792   0.283 -0.2771 -0.3252  0.7973
  252MOL0     C33138   0.935   7.726   0.317  0.0704  0.6696  1.4778
  252MOL0     C33139   0.990   7.726   0.441 -0.2614 -0.1492 -0.1245
  252MOL0     O33140   1.099   7.653   0.471  0.0917  0.2876 -0.1126
  252MOL0     C33141   1.144   7.657   0.605 -0.5665  0.9654 -0.4104
  252MOL0     C33142   1.281   7.587   0.641  0.4926 -0.6630  0.0379
  252MOL0     C33143   1.265   7.435   0.705  0.5158 -0.7643  0.4116
  252MOL0     C33144   1.394   7.358   0.740  0.0886  0.2903  0.0084
  252MOL0     C33145   1.355   7.244   0.845 -0.0316 -0.0902 -0.0341
  252MOL0     C33146   1.253   7.132   0.795  0.4434 -0.4551  0.3376
  252MOL0     C33147   1.222   7.046   0.921 -0.0191  0.2375 -0.2156
  252MOL0     C33148   1.174   7.131   1.048  0.0908 -0.3484 -0.1159
  252MOL0     N33149   1.056   7.212   1.026  0.3699 -0.4819  0.3684
  252MOL0     C33150   0.933   7.165   0.985 -0.0151 -0.2471 -0.5560
  252MOL0     C33151   0.865   7.282   0.959 -1.1127 -0.4587  0.3697
  252MOL0     C33152   0.725   7.284   0.915 -0.1221 -0.6240 -0.2089
  252MOL0     C33153   0.684   7.425   0.862 -0.6579  0.1281  0.0305
  252MOL0     C33154   0.757   7.451   0.730 -0.2599 -0.1443  0.1434
  252MOL0     C33155   0.670   7.550   0.646 -0.5621  0.5978 -0.0885
  252MOL0     O33156   0.547   7.491   0.595  0.2383 -0.8714  0.4073
  252MOL0     C33157   0.436   7.572   0.582 -0.2057 -0.1677 -0.3777
  252MOL0     C33158   0.439   7.709   0.557 -0.2654  0.4998  0.0925
  252MOL0     C33159   0.322   7.786   0.525  0.2590 -0.0516  0.0193
  252MOL0     C33160   0.193   7.722   0.541 -1.4800  0.0443 -0.3530
  252MOL0     C33161   0.063   7.789   0.531  0.1924  0.1910  0.0676
  252MOL0     O33162  -0.045   7.709   0.524  0.1674 -0.5739 -0.6287
  252MOL0     C33163  -0.173   7.766   0.517  0.2704 -0.2697 -0.6783
  252MOL0     C33164  -0.257   7.757   0.633  0.2637 -0.2132  0.0033
  252MOL0     C33165  -0.377   7.813   0.641 -0.1064 -0.2865 -0.0149
  252MOL0     C33166  -0.428   7.871   0.521  0.0138 -0.1833 -0.0352
  252MOL0     O33167  -0.551   7.925   0.536  0.3901  0.5520  0.1810
  252MOL0     C33168  -0.617   7.975   0.416 -0.6584 -0.3579  0.3211
  252MOL0     C33169  -0.770   8.000   0.430 -0.2357  0.3284  0.1623
  252MOL0     C33170  -0.846   7.871   0.429  0.7247  0.6524 -0.5052
  252MOL0     C33171  -0.997   7.878   0.449  0.1585 -0.6517 -0.2090
  252MOL0     C33172  -1.055   7.746   0.485  0.6034 -0.6693 -0.4709
  252MOL0     C33173  -1.201   7.747   0.485  0.0318 -0.0613 -0.3940
  252MOL0     C33174  -1.265   7.623   0.535  0.0816  0.4735  0.3625
  252MOL0     C33175  -1.415   7.640   0.566  0.2144  0.5629  0.3999
  252MOL0    Cl33176  -1.499   7.519   0.670 -0.4387 -0.1795  0.0405
  252MOL0     C33177  -0.356   7.879   0.404  0.2103 -1.1961 -0.3858
  252MOL0     C33178  -0.227   7.833   0.407 -0.1940  0.7079  1.5270
  252MOL0     O33179   0.058   7.911   0.522  0.9960  0.9383 -0.2355
  252MOL0     C33180   0.193   7.584   0.564  0.9198 -0.0596  0.3968
  252MOL0     C33181   0.311   7.510   0.578 -0.1340 -0.4605 -0.8551
  252MOL0     N33182   0.945   7.398   0.979  0.5256  0.6559 -0.7272
  252MOL0     N33183   1.051   7.348   1.030  0.3481 -0.0121 -0.3758
  252MOL0     C33184   0.922   7.804   0.537  0.0037 -0.0906  0.7811
  252MOL0     C33185   0.803   7.865   0.505 -0.1432 -0.4538 -0.5156
  252MOL0     C33186   0.442   8.088   0.343  0.3474  0.0343 -0.6226
  252MOL0     C33187   0.373   8.031   0.232  0.1787 -0.4022 -0.2465
  252MOL0     C33188   0.248   8.092   0.195 -0.5098  0.4219  0.8728
  252MOL0     C33189   0.185   8.193   0.276 -0.1922  0.6000  0.4996
  252MOL0     O33190   0.063   8.244   0.264  0.1841 -0.4978  0.3893
  252MOL0     C33191  -0.026   8.184   0.168  0.4338  0.2158 -0.4773
  252MOL0     C33192  -0.166   8.240   0.194  0.7827  0.1942  0.6179
  252MOL0     C33193  -0.263   8.174   0.097  0.0758  0.2400 -0.6352
  252MOL0     C33194  -0.406   8.223   0.107 -0.6020 -0.3039  0.4177
  252MOL0     C33195  -0.506   8.138   0.056  0.8031  0.1442 -0.1219
  252MOL0     C33196  -0.602   8.063   0.014 -0.2353 -0.4790  0.2297
  252MOL0     C33197   0.259   8.250   0.376  1.0714  0.2167 -0.2204
  252MOL0     C33198   0.376   8.188   0.412  0.1757  0.1528 -0.2150
  252MOL0     H33199   0.771   7.786   0.185 -3.5800  0.6310  2.1818
  252MOL0     H33200   0.988   7.668   0.242 -2.7447 -1.3294  0.9055
  252MOL0     H33201   1.066   7.606   0.663  0.2626 -0.1805 -0.2628
  252MOL0     H33202   1.154   7.762   0.635  1.1336  2.0056 -4.0847
  252MOL0     H33203   1.334   7.643   0.718  1.6133 -4.0761  1.9432
  252MOL0     H33204   1.339   7.583   0.549  0.7854 -1.0705  0.2384
  252MOL0     H33205   1.206   7.367   0.643  0.6322 -1.2422  0.8279
  252MOL0     H33206   1.195   7.452   0.787  0.8334 -0.3234  0.5982
  252MOL0     H33207   1.437   7.308   0.653 -0.0081 -0.9068  0.6301
  252MOL0     H33208   1.471   7.421   0.785  0.7789 -0.3560 -0.2486
  252MOL0     H33209   1.314   7.305   0.926  1.2458  2.1766 -0.9819
  252MOL0     H33210   1.446   7.191   0.877 -0.3970 -0.6815  0.0333
  252MOL0     H33211   1.263   7.074   0.703 -1.1101  1.4836 -1.1444
  252MOL0     H33212   1.158   7.182   0.770 -0.3907 -2.3146 -0.3940
  252MOL0     H33213   1.149   6.967   0.898 -0.1588 -0.0946  1.3084
  252MOL0     H33214   1.314   6.990   0.939 -1.1731 -2.0890 -1.1391
  252MOL0     H33215   1.262   7.185   1.085  0.1606 -1.0952  0.8503
  252MOL0     H33216   1.157   7.057   1.127  1.6457  0.3629  0.9343
  252MOL0     H33217   0.896   7.065   0.967 -1.3442 -0.5854  3.1846
  252MOL0     H33218   0.661   7.270   1.003 -0.2857 -2.6739 -0.6020
  252MOL0     H33219   0.708   7.209   0.837 -0.2845  3.3056 -4.3561
  252MOL0     H33220   0.704   7.507   0.931  3.5039  1.1868 -2.0742
  252MOL0     H33221   0.578   7.431   0.837 -1.0174  2.7863  1.7673
  252MOL0     H33222   0.855   7.497   0.746 -0.5713  0.7739 -0.4580
  252MOL0     H33223   0.763   7.354   0.679 -0.4478  0.3475 -0.8584
  252MOL0     H33224   0.720   7.576   0.552  0.3894  0.7445  0.4478
  252MOL0     H33225   0.658   7.643   0.701  0.3870  2.2217 -2.4441
  252MOL0     H33226   0.536   7.758   0.548  0.5513 -1.3383 -2.3703
  252MOL0     H33227   0.326   7.893   0.509 -2.4104  0.6113  2.9415
  252MOL0     H33228  -0.235   7.690   0.716 -0.5075 -1.1601 -0.5374
  252MOL0     H33229  -0.434   7.806   0.733 -2.2828 -2.3108 -1.3904
  252MOL0     H33230  -0.605   7.909   0.329 -0.2669  1.2241 -0.8770
  252MOL0     H33231  -0.580   8.072   0.381  0.5415 -1.1527 -0.7216
  252MOL0     H33232  -0.819   8.057   0.350 -1.3538 -1.2036 -0.3097
  252MOL0     H33233  -0.788   8.048   0.526  0.2304 -1.4528  1.1925
  252MOL0     H33234  -0.809   7.810   0.512  1.6573  0.6727 -0.8921
  252MOL0     H33235  -0.824   7.826   0.331 -2.3097 -2.4055 -0.0015
  252MOL0     H33236  -1.006   7.955   0.526  3.9744  1.1199 -1.2423
  252MOL0     H33237  -1.038   7.926   0.360 -1.0391  2.7346  1.9548
  252MOL0     H33238  -1.008   7.714   0.579  0.6984  0.6136 -0.0536
  252MOL0     H33239  -1.019   7.683   0.403  2.1773 -0.2076 -0.1713
  252MOL0     H33240  -1.231   7.776   0.384  0.7239 -0.5231 -0.7401
  252MOL0     H33241  -1.238   7.830   0.547 -0.1664  2.4798 -3.6611
  252MOL0     H33242  -1.246   7.538   0.469  0.9564  1.4606 -0.7011
  252MOL0     H33243  -1.233   7.610   0.639 -1.5500 -1.2892  0.7052
  252MOL0     H33244  -1.463   7.645   0.468  1.0649 -0.2246 -0.0748
  252MOL0     H33245  -1.420   7.728   0.630  2.5687  1.3570 -0.3691
  252MOL0     H33246  -0.389   7.930   0.314  1.3751  2.8943  1.2395
  252MOL0     H33247  -0.173   7.822   0.314 -2.5138  1.0715  0.0480
  252MOL0     H33248   0.096   7.537   0.575  0.3667  1.0207  0.3189
  252MOL0     H33249   0.306   7.404   0.603  1.0813  0.1469  2.5255
  252MOL0     H33250   0.956   7.818   0.639  0.6975  0.3164  0.4943
  252MOL0     H33251   0.763   7.921   0.589  3.5348  0.1062  1.0396
  252MOL0     H33252   0.396   7.947   0.167 -2.7062 -2.4758  1.1695
  252MOL0     H33253   0.203   8.048   0.107  1.2154 -0.2450  0.2702
  252MOL0     H33254  -0.040   8.077   0.180 -1.9031  0.2858 -1.9979
  252MOL0     H33255   0.013   8.214   0.070  0.7500  1.4683  0.0020
  252MOL0     H33256  -0.205   8.234   0.295 -1.9707  2.5446 -0.1715
  252MOL0     H33257  -0.158   8.345   0.162 -1.0769 -0.4822 -2.4971
  252MOL0     H33258  -0.252   8.066   0.110  1.7317  0.2887 -1.3550
  252MOL0     H33259  -0.231   8.209  -0.001  0.9940  1.0079 -0.0830
  252MOL0     H33260  -0.440   8.256   0.205 -1.5055  0.0809 -0.0083
  252MOL0     H33261  -0.412   8.311   0.042 -2.6890  0.2224  1.2538
  252MOL0     H33262  -0.687   8.007  -0.020 -2.6640  1.5179  2.5928
  252MOL0     H33263   0.209   8.325   0.437  0.1472 -1.7984  1.6136
  252MOL0     H33264   0.424   8.231   0.500  1.4649  2.5287 -1.9502
  253MOL0     O33265   3.257   6.741   8.380  0.1497 -0.5150 -0.1013
  253MOL0     C33266   3.296   6.849   8.421  0.4678  1.5559 -0.2145
  253MOL0     O33267   3.220   6.955   8.464 -0.5788  0.2843  0.1865
  253MOL0     C33268   3.084   6.960   8.474 -0.1198 -0.4490 -0.6776
  253MOL0     C33269   2.994   6.856   8.476 -0.0473 -0.2605 -0.6617
  253MOL0     C33270   2.859   6.886   8.473  0.5008  0.9801  0.0444
  253MOL0     C33271   2.811   7.020   8.489  0.4368 -1.1484 -0.1982
  253MOL0     O33272   2.678   7.028   8.493 -0.0595 -0.0145  0.4072
  253MOL0     C33273   2.606   7.147   8.532 -0.1184 -0.3376 -0.3694
  253MOL0     C33274   2.453   7.124   8.526 -0.4723  0.3674  0.8811
  253MOL0     C33275   2.383   7.259   8.549 -0.1043  0.2206 -0.2638
  253MOL0     C33276   2.233   7.246   8.554  0.0186  1.0804 -0.3632
  253MOL0     C33277   2.154   7.365   8.619  0.1199 -1.0535  0.5737
  253MOL0     C33278   2.001   7.357   8.572  0.1413  0.3296  0.3530
  253MOL0     C33279   1.931   7.491   8.604 -0.1793 -0.9203 -0.7558
  253MOL0     C33280   1.797   7.507   8.531 -0.3393 -0.3830 -0.6775
  253MOL0     N33281   1.720   7.617   8.594  0.9492 -0.2863  0.2684
  253MOL0     C33282   1.716   7.761   8.558  0.2889 -0.1445  0.6516
  253MOL0     C33283   1.663   7.812   8.668 -0.7551 -1.1082  0.2816
  253MOL0     C33284   1.624   7.955   8.681 -0.4600 -0.7952  0.4471
  253MOL0     C33285   1.478   7.976   8.663  0.6568 -0.7639  0.1631
  253MOL0     C33286   1.418   7.978   8.514 -0.2380  1.1100 -0.5016
  253MOL0     C33287   1.265   7.989   8.512 -1.4821  0.0437  0.4154
  253MOL0     O33288   1.220   7.957   8.379  0.4396 -0.0997 -0.3856
  253MOL0     C33289   1.090   7.973   8.346 -0.6959  0.5494 -0.4485
  253MOL0     C33290   0.993   8.020   8.438 -0.2213  0.1221 -0.3359
  253MOL0     C33291   0.861   8.044   8.394  0.4368 -0.3312  0.2978
  253MOL0     C33292   0.824   8.011   8.265 -0.4633 -0.2464 -0.1078
  253MOL0     C33293   0.682   8.041   8.222 -0.2036  0.3351 -0.2995
  253MOL0     O33294   0.604   8.098   8.309  0.3561  0.2751  0.1359
  253MOL0     C33295   0.467   8.117   8.284 -0.0410 -0.0415  0.0459
  253MOL0     C33296   0.379   8.056   8.370 -0.0306  0.0254  0.0109
  253MOL0     C33297   0.241   8.081   8.364  0.0572  0.7526  0.3979
  253MOL0     C33298   0.186   8.161   8.265 -0.9708  0.6191 -0.7885
  253MOL0     O33299   0.047   8.172   8.263 -0.5962  0.6207  0.0802
  253MOL0     C33300  -0.015   8.286   8.192  0.5333  0.2361 -0.1897
  253MOL0     C33301  -0.161   8.257   8.196 -0.0982  0.2501 -0.6264
  253MOL0     C33302  -0.241   8.353   8.103  0.5969 -0.1056  0.1138
  253MOL0     C33303  -0.226   8.501   8.145 -0.1788 -0.3157 -0.6146
  253MOL0     C33304  -0.303   8.597   8.065  0.4804  0.0790 -0.1897
  253MOL0     C33305  -0.444   8.613   8.126 -0.0179  0.2334 -0.8413
  253MOL0     C33306  -0.526   8.728   8.078  0.1565  0.2944 -0.3099
  253MOL0     C33307  -0.645   8.754   8.170 -0.2169  0.5860 -0.1860
  253MOL0    Cl33308  -0.791   8.663   8.113  0.3027  0.6998 -0.2987
  253MOL0     C33309   0.276   8.231   8.186  0.1124 -0.1484 -0.5258
  253MOL0     C33310   0.415   8.210   8.189 -0.7655  0.1321 -1.4540
  253MOL0     O33311   0.650   7.995   8.113 -0.0558  0.4619  0.8784
  253MOL0     C33312   0.924   7.949   8.179 -0.7971 -0.8370  0.3942
  253MOL0     C33313   1.059   7.936   8.224 -0.3707  0.1418  0.1437
  253MOL0     N33314   1.632   7.724   8.764  0.1031 -0.2865  0.5000
  253MOL0     N33315   1.674   7.611   8.724 -0.3060 -0.0534 -0.3263
  253MOL0     C33316   2.907   7.122   8.494 -0.5828 -0.5348 -0.3762
  253MOL0     C33317   3.045   7.092   8.492  0.0265 -0.6596 -0.1979
  253MOL0     C33318   3.446   6.869   8.437  0.0274  0.2251 -0.2895
  253MOL0     C33319   3.536   6.791   8.359 -0.1576  0.3139  0.5903
  253MOL0     C33320   3.671   6.805   8.381 -0.2224  0.5756  0.4117
  253MOL0     C33321   3.728   6.901   8.469  0.7579 -0.3820  0.4922
  253MOL0     O33322   3.862   6.923   8.460  0.0044  0.1817 -0.4654
  253MOL0     C33323   3.905   7.055   8.434  0.3079 -1.4239 -0.3320
  253MOL0     C33324   4.052   7.064   8.419  0.4430  0.9145  0.1809
  253MOL0     C33325   4.123   6.935   8.478 -0.0638  0.5580 -0.0409
  253MOL0     C33326   4.278   6.955   8.478 -0.6162 -0.0603  0.2233
  253MOL0     C33327   4.326   7.071   8.557 -0.2721  0.8715  0.5226
  253MOL0     C33328   4.366   7.148   8.635 -0.7199  0.3538 -0.3446
  253MOL0     C33329   3.639   6.978   8.539  0.4181  0.3540 -0.5675
  253MOL0     C33330   3.504   6.960   8.524  0.0420  0.1853 -0.1264
  253MOL0     H33331   3.042   6.758   8.474  2.6871  1.0095 -0.6825
  253MOL0     H33332   2.784   6.808   8.468 -1.6046  3.0029 -2.9274
  253MOL0     H33333   2.637   7.235   8.474  1.3028  1.0150  2.2409
  253MOL0     H33334   2.619   7.169   8.638 -0.4011  1.3323 -0.6416
  253MOL0     H33335   2.422   7.048   8.599 -2.8202  0.7576  0.3809
  253MOL0     H33336   2.432   7.093   8.423 -1.9409 -0.6479  1.4500
  253MOL0     H33337   2.412   7.337   8.479 -1.2984  1.6587  0.7892
  253MOL0     H33338   2.417   7.276   8.651 -1.1278 -0.3181  0.1936
  253MOL0     H33339   2.195   7.236   8.452 -1.7823  0.5791  0.3170
  253MOL0     H33340   2.199   7.155   8.603 -0.4000  1.3795 -0.0895
  253MOL0     H33341   2.198   7.462   8.595  2.0412 -1.3535  2.5091
  253MOL0     H33342   2.158   7.358   8.728 -0.1538  1.8002  0.8495
  253MOL0     H33343   1.964   7.272   8.630  0.4914 -0.5617 -0.7006
  253MOL0     H33344   1.983   7.329   8.468 -0.7864  0.9654  0.3332
  253MOL0     H33345   1.905   7.490   8.711  3.4160  1.2220  0.2902
  253MOL0     H33346   1.997   7.575   8.581 -0.9911 -0.5313 -1.7228
  253MOL0     H33347   1.743   7.412   8.536  0.3798 -0.7611  3.3634
  253MOL0     H33348   1.815   7.528   8.425  0.8998  0.6615 -0.2772
  253MOL0     H33349   1.749   7.796   8.461  3.0526  0.8656  1.8554
  253MOL0     H33350   1.693   8.020   8.625  0.5734 -0.5289  1.9607
  253MOL0     H33351   1.643   7.980   8.786 -0.6064 -0.4191  0.3854
  253MOL0     H33352   1.451   8.063   8.725 -0.7315 -1.2412  0.2540
  253MOL0     H33353   1.435   7.893   8.719 -0.9230  0.9160  1.5976
  253MOL0     H33354   1.466   8.045   8.442 -0.9922  1.6029 -0.5641
  253MOL0     H33355   1.440   7.879   8.473  1.0322  1.4469 -0.6793
  253MOL0     H33356   1.241   8.090   8.546 -2.3037  0.4165 -1.1404
  253MOL0     H33357   1.219   7.915   8.578 -1.3212 -0.0765  0.3928
  253MOL0     H33358   1.015   8.039   8.542  0.4843 -3.3531  0.2722
  253MOL0     H33359   0.782   8.074   8.463 -0.7289  0.5992 -1.3903
  253MOL0     H33360   0.408   7.973   8.434 -0.0201 -1.5067 -1.8962
  253MOL0     H33361   0.173   8.024   8.426 -0.3650  2.3064  1.4193
  253MOL0     H33362   0.006   8.306   8.087 -1.5733  0.2186 -0.6466
  253MOL0     H33363   0.009   8.378   8.248  0.5560 -0.7176  1.4324
  253MOL0     H33364  -0.197   8.271   8.298  0.4374 -1.1734 -0.2248
  253MOL0     H33365  -0.181   8.152   8.172 -2.6195  0.1724  1.3570
  253MOL0     H33366  -0.346   8.323   8.111  0.3293  0.2920 -1.5784
  253MOL0     H33367  -0.218   8.340   7.997  1.5176  2.0957 -0.0036
  253MOL0     H33368  -0.241   8.504   8.253 -0.0151 -1.1225 -0.5628
  253MOL0     H33369  -0.122   8.529   8.124  0.8395 -2.0135  1.7032
  253MOL0     H33370  -0.303   8.586   7.957  1.9203 -1.6365 -0.0598
  253MOL0     H33371  -0.255   8.692   8.091  1.5809 -0.7701  1.0376
  253MOL0     H33372  -0.438   8.614   8.236  2.4954  0.3988 -0.9253
  253MOL0     H33373  -0.501   8.521   8.108 -0.9236  0.8549 -1.2069
  253MOL0     H33374  -0.465   8.818   8.068  0.5862  0.0901  0.3489
  253MOL0     H33375  -0.570   8.708   7.980 -0.3384 -3.6417  0.5165
  253MOL0     H33376  -0.666   8.861   8.160 -1.1349  0.5200  0.8238
  253MOL0     H33377  -0.619   8.745   8.276  1.7083  2.0397 -0.4647
  253MOL0     H33378   0.238   8.284   8.100 -2.7246 -1.8587 -0.4392
  253MOL0     H33379   0.486   8.259   8.123 -1.9318  0.4984 -2.4859
  253MOL0     H33380   0.898   7.916   8.079  0.4537  4.4243 -2.0189
  253MOL0     H33381   1.140   7.907   8.158 -0.7466  1.8782 -1.1659
  253MOL0     H33382   2.872   7.224   8.507  0.7914 -0.0335 -0.4742
  253MOL0     H33383   3.120   7.171   8.490 -2.5379  1.9780 -2.4468
  253MOL0     H33384   3.513   6.714   8.286  1.1851 -0.9513  1.4422
  253MOL0     H33385   3.742   6.741   8.329  1.0704  1.7979  0.6252
  253MOL0     H33386   3.875   7.139   8.499  4.1584 -1.0820  1.3261
  253MOL0     H33387   3.870   7.089   8.337 -0.4236 -0.1511  0.3522
  253MOL0     H33388   4.066   7.063   8.310 -0.5088 -1.4758  0.0206
  253MOL0     H33389   4.095   7.153   8.465  0.0589  0.9727  0.4271
  253MOL0     H33390   4.100   6.841   8.428 -1.6441  0.3905  0.9317
  253MOL0     H33391   4.085   6.925   8.580 -1.3347 -1.7785 -0.6901
  253MOL0     H33392   4.324   6.865   8.519 -3.4007 -2.0393 -0.6602
  253MOL0     H33393   4.310   6.971   8.374  0.8847  0.6373  0.7743
  253MOL0     H33394   4.397   7.220   8.709 -1.2766 -0.5431  0.7927
  253MOL0     H33395   3.677   7.065   8.593  1.7559 -0.9253  0.6440
  253MOL0     H33396   3.455   7.036   8.584 -0.6763 -0.6911  0.4199
  254MOL0     O33397   3.354   4.583   0.501 -0.3440  0.3664 -0.0501
  254MOL0     C33398   3.434   4.653   0.566 -0.3495 -0.4976  0.6440
  254MOL0     O33399   3.398   4.764   0.637  0.3472  0.3176  0.4571
  254MOL0     C33400   3.263   4.781   0.670  0.8755 -0.3920 -0.7557
  254MOL0     C33401   3.182   4.887   0.619  0.0659  0.5464 -0.9629
  254MOL0     C33402   3.045   4.897   0.652  0.0154  0.9740 -0.5789
  254MOL0     C33403   2.988   4.807   0.743  0.3263 -0.9694  0.1959
  254MOL0     O33404   2.856   4.827   0.773 -0.4073 -0.4560  0.1923
  254MOL0     C33405   2.776   4.711   0.763 -0.0654 -0.1351 -0.9112
  254MOL0     C33406   2.635   4.752   0.779  0.3521  0.5284  0.3272
  254MOL0     C33407   2.537   4.642   0.784 -0.3094  0.6137 -0.0027
  254MOL0     C33408   2.394   4.699   0.808  0.8364 -0.5727 -0.3969
  254MOL0     C33409   2.278   4.604   0.846 -1.1142 -0.6561  0.0391
  254MOL0     C33410   2.149   4.686   0.879  0.0015  0.7124 -0.5535
  254MOL0     C33411   2.038   4.588   0.921  0.1329  0.4439 -0.2578
  254MOL0     C33412   1.913   4.671   0.961 -0.7529  0.5394  0.2444
  254MOL0     N33413   1.811   4.575   1.012 -0.9215  0.6317 -0.1064
  254MOL0     C33414   1.838   4.482   1.113  0.1202  0.3585 -0.1091
  254MOL0     C33415   1.723   4.423   1.136  0.2535 -0.0873  0.4432
  254MOL0     C33416   1.716   4.315   1.242  0.0082 -0.4261 -0.1789
  254MOL0     C33417   1.779   4.365   1.370 -0.4008 -0.5047 -0.4199
  254MOL0     C33418   1.791   4.256   1.479  0.4716 -0.0657 -0.1850
  254MOL0     C33419   1.648   4.227   1.537  0.5359 -0.2762 -0.5207
  254MOL0     O33420   1.609   4.347   1.600 -0.2884  0.0064 -0.2319
  254MOL0     C33421   1.487   4.352   1.662 -0.0799 -0.2897 -0.5866
  254MOL0     C33422   1.387   4.254   1.663  0.1782  0.0608  0.3733
  254MOL0     C33423   1.260   4.276   1.732  0.4373  0.0500  0.2335
  254MOL0     C33424   1.240   4.399   1.803 -0.4792 -0.6577 -0.7896
  254MOL0     C33425   1.122   4.406   1.891  0.3528  0.1566  0.4542
  254MOL0     O33426   1.022   4.319   1.855  0.7372 -0.6861  0.4982
  254MOL0     C33427   0.914   4.325   1.935  0.0340 -0.4517  0.5370
  254MOL0     C33428   0.893   4.259   2.061 -0.6893 -0.3509 -0.1093
  254MOL0     C33429   0.787   4.286   2.137 -0.2527 -0.7711  1.9269
  254MOL0     C33430   0.674   4.359   2.090 -0.2405 -0.1193 -0.0395
  254MOL0     O33431   0.561   4.359   2.167  0.5675 -0.2128 -0.6524
  254MOL0     C33432   0.450   4.434   2.115  0.5318  0.4613  0.7525
  254MOL0     C33433   0.327   4.411   2.201  0.4218 -0.3178  0.3338
  254MOL0     C33434   0.195   4.466   2.145  0.0500 -0.0984 -0.3000
  254MOL0     C33435   0.083   4.478   2.247 -1.2877 -0.2526 -0.0725
  254MOL0     C33436  -0.046   4.501   2.168  0.1269 -0.0931 -0.2477
  254MOL0     C33437  -0.172   4.494   2.259  0.0010 -0.4164  0.4430
  254MOL0     C33438  -0.296   4.514   2.171 -0.3011 -0.2393 -0.7966
  254MOL0     C33439  -0.427   4.480   2.243  0.4459 -0.0385 -0.5974
  254MOL0    Cl33440  -0.430   4.530   2.418  0.2631  0.0194 -0.1201
  254MOL0     C33441   0.684   4.411   1.954  0.3229 -0.0222 -0.8395
  254MOL0     C33442   0.808   4.405   1.884 -0.2059  0.1808 -0.7328
  254MOL0     O33443   1.116   4.493   1.980 -0.2388  0.2176  0.0508
  254MOL0     C33444   1.339   4.500   1.795  0.1037 -0.0558 -0.0430
  254MOL0     C33445   1.464   4.470   1.732 -0.2825 -0.2757  0.3152
  254MOL0     N33446   1.625   4.469   1.053  0.5515 -0.1925 -0.3194
  254MOL0     N33447   1.682   4.560   0.978  0.0069 -1.2018 -0.1530
  254MOL0     C33448   3.065   4.706   0.791 -0.4790 -0.0219 -0.4926
  254MOL0     C33449   3.205   4.694   0.761  0.2631  0.5399 -0.1876
  254MOL0     C33450   3.571   4.628   0.571 -0.2521  0.8672 -0.4325
  254MOL0     C33451   3.660   4.692   0.667 -0.3696 -0.3395  0.3319
  254MOL0     C33452   3.797   4.651   0.687 -0.4066 -0.1007  0.4284
  254MOL0     C33453   3.858   4.556   0.594  0.3355  0.2063  0.3904
  254MOL0     O33454   3.987   4.516   0.601  0.9459 -0.3977 -0.1107
  254MOL0     C33455   4.077   4.610   0.661 -0.0683 -0.1263  0.1393
  254MOL0     C33456   4.223   4.588   0.599  0.4404 -0.3088  0.7021
  254MOL0     C33457   4.335   4.673   0.658 -0.0038  0.1907 -0.7621
  254MOL0     C33458   4.419   4.755   0.561  0.3625  0.3070 -0.6900
  254MOL0     C33459   4.491   4.679   0.459  0.0843  0.2969 -0.2452
  254MOL0     C33460   4.547   4.630   0.360  0.0885 -0.6459  0.0794
  254MOL0     C33461   3.777   4.497   0.504 -0.3457  0.4900 -0.3427
  254MOL0     C33462   3.638   4.526   0.489 -0.7383  0.0778 -0.0104
  254MOL0     H33463   3.234   4.953   0.551  0.6972  1.6625  0.5576
  254MOL0     H33464   2.974   4.968   0.610 -0.8365  1.8019  2.0850
  254MOL0     H33465   2.798   4.644   0.846  0.4153  2.7882  1.4968
  254MOL0     H33466   2.785   4.649   0.673  2.1735 -2.6588  0.8727
  254MOL0     H33467   2.605   4.799   0.685  0.2172 -2.2261 -1.1321
  254MOL0     H33468   2.624   4.808   0.871 -1.0557 -1.1209  1.2289
  254MOL0     H33469   2.565   4.582   0.871 -2.2862 -0.3024  0.0534
  254MOL0     H33470   2.537   4.578   0.696 -0.3866  3.8002 -2.5109
  254MOL0     H33471   2.400   4.779   0.883  1.1689 -2.3398  1.5416
  254MOL0     H33472   2.366   4.739   0.710 -0.2983 -1.8440 -0.6126
  254MOL0     H33473   2.311   4.550   0.935  0.2021  2.5240  1.6273
  254MOL0     H33474   2.250   4.546   0.758  0.3681  1.7376 -2.1508
  254MOL0     H33475   2.122   4.736   0.786 -0.7993 -2.3982 -2.1230
  254MOL0     H33476   2.170   4.759   0.958  0.0820 -0.2045  0.3017
  254MOL0     H33477   2.009   4.509   0.851  1.2714 -3.4714  3.2585
  254MOL0     H33478   2.075   4.536   1.010  0.8782  0.4404 -0.5621
  254MOL0     H33479   1.868   4.710   0.869 -1.8239  0.7490  0.8356
  254MOL0     H33480   1.925   4.745   1.040 -0.0572 -2.8678  3.6109
  254MOL0     H33481   1.933   4.446   1.153  0.1595 -0.1897 -0.6770
  254MOL0     H33482   1.750   4.216   1.208  0.0078 -0.5790  0.2499
  254MOL0     H33483   1.607   4.308   1.250  0.0419 -1.5767 -0.4690
  254MOL0     H33484   1.725   4.453   1.406  2.1598  1.5051 -1.1998
  254MOL0     H33485   1.885   4.387   1.353 -0.5544  0.4552 -0.1975
  254MOL0     H33486   1.830   4.160   1.443 -2.6184 -1.2440 -0.6766
  254MOL0     H33487   1.865   4.296   1.550  0.4561  1.0294 -0.7667
  254MOL0     H33488   1.645   4.148   1.612  1.3406  0.6369  0.5071
  254MOL0     H33489   1.579   4.217   1.452 -2.0112  2.5577  1.0122
  254MOL0     H33490   1.404   4.168   1.599 -0.1098  1.0228 -1.0687
  254MOL0     H33491   1.191   4.192   1.722 -0.0370  0.3347  1.0143
  254MOL0     H33492   0.958   4.176   2.086  0.6019  0.2342 -1.3965
  254MOL0     H33493   0.770   4.236   2.232 -1.9305 -1.6035  1.2315
  254MOL0     H33494   0.420   4.394   2.018  2.8954  4.2293 -1.7787
  254MOL0     H33495   0.467   4.541   2.100  0.9777  0.0978 -1.8642
  254MOL0     H33496   0.346   4.466   2.293  1.6132 -1.5581  0.8629
  254MOL0     H33497   0.322   4.305   2.227 -0.8490 -0.2547  0.3813
  254MOL0     H33498   0.170   4.390   2.070  2.1575  0.4160 -1.6157
  254MOL0     H33499   0.205   4.557   2.086  1.6152  0.1740  0.3268
  254MOL0     H33500   0.080   4.395   2.319 -0.2302  1.9074  2.6323
  254MOL0     H33501   0.093   4.556   2.322  2.4902  0.1026 -0.7316
  254MOL0     H33502  -0.049   4.410   2.106 -1.5473  1.1176 -2.0702
  254MOL0     H33503  -0.051   4.597   2.117  0.8758  0.1461  0.1225
  254MOL0     H33504  -0.162   4.566   2.341  0.7618 -2.0310  1.8248
  254MOL0     H33505  -0.173   4.397   2.310 -1.7383 -0.1740  0.9425
  254MOL0     H33506  -0.300   4.610   2.117  2.3621 -0.9391 -2.4423
  254MOL0     H33507  -0.290   4.434   2.096 -0.0127  0.3362 -1.4014
  254MOL0     H33508  -0.442   4.372   2.239 -0.1161  0.0610 -1.3955
  254MOL0     H33509  -0.512   4.530   2.196 -1.0835 -1.9342  0.0450
  254MOL0     H33510   0.589   4.447   1.917  0.5916  0.0548 -1.4663
  254MOL0     H33511   0.812   4.434   1.779 -2.6731 -0.3507 -1.0379
  254MOL0     H33512   1.312   4.596   1.837 -1.9314 -0.2793 -0.6760
  254MOL0     H33513   1.529   4.556   1.716 -1.1260 -0.0359 -2.3719
  254MOL0     H33514   3.027   4.647   0.874  0.4375 -0.3819 -0.3241
  254MOL0     H33515   3.251   4.613   0.815 -2.0094 -0.6001  0.1892
  254MOL0     H33516   3.614   4.775   0.720 -1.1199  0.2664 -1.1967
  254MOL0     H33517   3.867   4.693   0.758  3.8453 -1.9135 -2.2580
  254MOL0     H33518   4.072   4.598   0.770 -0.5545  0.8244  0.2338
  254MOL0     H33519   4.043   4.709   0.628 -0.5757 -0.2165  0.3701
  254MOL0     H33520   4.245   4.481   0.606 -0.3173 -0.5693 -0.5532
  254MOL0     H33521   4.214   4.604   0.491 -2.8820  1.5377  1.1313
  254MOL0     H33522   4.410   4.610   0.707 -0.4837  0.8635  0.8959
  254MOL0     H33523   4.297   4.739   0.736  1.0072  0.7076 -0.6910
  254MOL0     H33524   4.352   4.831   0.518 -1.2091  1.0334  2.7181
  254MOL0     H33525   4.498   4.810   0.612  0.0940 -0.4751  0.5961
  254MOL0     H33526   4.606   4.605   0.274  1.0204  0.3688  0.3931
  254MOL0     H33527   3.820   4.425   0.435  0.5077 -1.7682  2.3800
  254MOL0     H33528   3.577   4.464   0.425 -1.1230  0.3470  0.0918
  255MOL0     O33529  10.816   4.465   0.338 -0.5619 -0.3122 -0.1191
  255MOL0     C33530  10.926   4.418   0.329  0.3533 -0.0311 -0.8850
  255MOL0     O33531  10.966   4.294   0.283  0.9157  0.0878  0.4531
  255MOL0     C33532  10.866   4.227   0.210 -0.3981 -0.6247  0.5420
  255MOL0     C33533  10.861   4.250   0.073 -0.7102 -0.0320  0.2405
  255MOL0     C33534  10.761   4.191  -0.007 -0.5131  0.1437 -0.2277
  255MOL0     C33535  10.669   4.110   0.059  0.7709  0.0230  0.5730
  255MOL0     O33536  10.561   4.049  -0.001 -0.2244  1.1842 -0.4992
  255MOL0     C33537  10.525   4.077  -0.135 -0.4680 -0.4014  0.3636
  255MOL0     C33538  10.402   4.003  -0.189  0.5699 -0.0510 -0.3708
  255MOL0     C33539  10.420   3.858  -0.211 -0.6729  0.7256 -0.7398
  255MOL0     C33540  10.281   3.782  -0.222 -0.2931  0.2394  0.6275
  255MOL0     C33541  10.302   3.629  -0.253  0.1278  0.3527  0.0686
  255MOL0     C33542  10.162   3.572  -0.272 -0.3599 -0.1323 -0.3422
  255MOL0     C33543  10.063   3.582  -0.155  0.2697 -1.1257  0.0357
  255MOL0     C33544   9.942   3.493  -0.177 -0.8780  0.0923 -0.2717
  255MOL0     N33545   9.877   3.520  -0.309 -0.4752  0.1708  0.9486
  255MOL0     C33546   9.841   3.427  -0.400 -0.0266  0.2798  0.4579
  255MOL0     C33547   9.766   3.492  -0.499 -0.6711  0.2769  0.2868
  255MOL0     C33548   9.712   3.438  -0.624 -0.6082 -0.1281 -0.8404
  255MOL0     C33549   9.580   3.369  -0.616 -0.4092  0.3143  0.3392
  255MOL0     C33550   9.469   3.450  -0.549  0.1144  0.1384  0.5794
  255MOL0     C33551   9.337   3.369  -0.554 -0.3698  0.2476 -0.0902
  255MOL0     O33552   9.296   3.334  -0.686  0.8106  0.2738 -0.3724
  255MOL0     C33553   9.193   3.250  -0.710  0.1171 -0.2325  0.4234
  255MOL0     C33554   9.124   3.179  -0.616 -0.5845 -0.2959 -0.0502
  255MOL0     C33555   9.023   3.093  -0.656  0.0608 -0.2241  0.6247
  255MOL0     C33556   8.981   3.089  -0.791 -0.0943  0.0491 -0.1649
  255MOL0     C33557   8.868   2.996  -0.837  0.8789  0.0358  0.0149
  255MOL0     O33558   8.832   2.997  -0.969 -0.6159  0.2317  0.1507
  255MOL0     C33559   8.721   2.923  -0.989 -0.0166 -0.2333 -0.0854
  255MOL0     C33560   8.597   2.955  -0.939 -0.1997 -0.8827 -0.0190
  255MOL0     C33561   8.482   2.877  -0.961  0.3427 -0.2611 -0.3014
  255MOL0     C33562   8.488   2.761  -1.044 -0.6106  0.2781 -0.2179
  255MOL0     O33563   8.372   2.685  -1.059 -0.1832 -0.7182  0.3454
  255MOL0     C33564   8.383   2.565  -1.137 -0.0037  0.5853  0.5877
  255MOL0     C33565   8.266   2.469  -1.110  0.4528  0.6519  0.1854
  255MOL0     C33566   8.134   2.535  -1.139 -0.2782  0.3494 -0.6062
  255MOL0     C33567   8.021   2.435  -1.154  0.1992  0.5364  0.0740
  255MOL0     C33568   7.882   2.497  -1.141 -0.3391 -0.1089  0.6036
  255MOL0     C33569   7.769   2.404  -1.154  0.4145  0.6689  1.0590
  255MOL0     C33570   7.637   2.470  -1.153  1.3909 -0.6063  0.0838
  255MOL0     C33571   7.524   2.372  -1.159  0.7157  0.4503  0.2407
  255MOL0    Cl33572   7.366   2.449  -1.171  0.3210  0.1975 -0.0186
  255MOL0     C33573   8.613   2.724  -1.097 -0.4884 -0.1653  0.8422
  255MOL0     C33574   8.727   2.800  -1.077 -0.3977 -0.7877 -0.1459
  255MOL0     O33575   8.818   2.928  -0.744  0.1954  0.1214 -0.2197
  255MOL0     C33576   9.052   3.168  -0.885  0.0075  1.2411  0.7358
  255MOL0     C33577   9.168   3.241  -0.853 -0.6055 -0.4170 -0.5638
  255MOL0     N33578   9.749   3.627  -0.450  0.1017  0.5446  0.5268
  255MOL0     N33579   9.817   3.641  -0.343  0.4737 -0.8744  0.8629
  255MOL0     C33580  10.673   4.094   0.199  0.3443  0.7429  0.4005
  255MOL0     C33581  10.771   4.146   0.271  0.8814  0.6470 -0.0869
  255MOL0     C33582  11.045   4.495   0.366  0.4062 -0.2578  0.1269
  255MOL0     C33583  11.036   4.635   0.400  0.0400 -0.4887 -0.0523
  255MOL0     C33584  11.152   4.712   0.424  0.9562  0.0358 -0.7488
  255MOL0     C33585  11.278   4.656   0.414 -0.1638  0.2575 -0.7440
  255MOL0     O33586  11.397   4.724   0.430 -0.6202  0.7647 -0.0831
  255MOL0     C33587  11.401   4.862   0.437 -0.0970  0.0141 -0.5604
  255MOL0     C33588  11.545   4.900   0.450 -0.1502 -0.1337  0.0583
  255MOL0     C33589  11.594   4.851   0.586  0.3563 -0.4064 -0.0355
  255MOL0     C33590  11.747   4.883   0.616 -0.4341  0.7876  0.1848
  255MOL0     C33591  11.793   4.815   0.739 -0.9411  0.0556  0.2680
  255MOL0     C33592  11.815   4.752   0.836 -0.7690  0.9512  0.1298
  255MOL0     C33593  11.287   4.516   0.386  0.7456 -0.1763 -0.4691
  255MOL0     C33594  11.169   4.441   0.359 -0.7013  0.5424  0.9435
  255MOL0     H33595  10.945   4.302   0.027  0.0124 -2.4160 -1.3395
  255MOL0     H33596  10.741   4.201  -0.113 -1.3155 -0.3169 -0.1278
  255MOL0     H33597  10.607   4.038  -0.196  0.2802 -1.7560  2.1598
  255MOL0     H33598  10.506   4.184  -0.151  5.6880  0.6109 -3.8206
  255MOL0     H33599  10.362   4.043  -0.282  1.1672 -0.0450 -0.6302
  255MOL0     H33600  10.318   4.018  -0.121  0.4988  2.4742 -0.8817
  255MOL0     H33601  10.471   3.811  -0.126 -1.1889  1.9665  0.2935
  255MOL0     H33602  10.489   3.840  -0.293 -0.0142 -0.8545  0.1123
  255MOL0     H33603  10.240   3.787  -0.121  1.5099 -0.8871  1.4726
  255MOL0     H33604  10.220   3.825  -0.302  0.4764  0.5548  0.1930
  255MOL0     H33605  10.353   3.581  -0.170 -2.9359 -1.7882  0.9237
  255MOL0     H33606  10.350   3.609  -0.349 -1.1610 -2.4911 -0.1077
  255MOL0     H33607  10.169   3.466  -0.300  2.5010  0.2988 -1.6167
  255MOL0     H33608  10.120   3.630  -0.355 -0.6969  1.4994  0.9380
  255MOL0     H33609  10.121   3.558  -0.065  0.5076  2.7479  1.0960
  255MOL0     H33610  10.033   3.687  -0.147  2.3550 -0.2349 -2.4814
  255MOL0     H33611   9.867   3.517  -0.102 -0.3582  0.6462  0.0766
  255MOL0     H33612   9.978   3.389  -0.176  4.1764  1.5950 -0.9456
  255MOL0     H33613   9.864   3.321  -0.400 -0.2163  0.2133  1.8864
  255MOL0     H33614   9.781   3.358  -0.656 -3.1194 -3.0864  0.6229
  255MOL0     H33615   9.697   3.512  -0.703  0.7710  0.5460 -0.4939
  255MOL0     H33616   9.593   3.280  -0.554 -0.0600  1.7587  2.4496
  255MOL0     H33617   9.561   3.340  -0.720  0.4510 -0.5084  0.3941
  255MOL0     H33618   9.507   3.485  -0.452  2.7723 -0.9448  0.0360
  255MOL0     H33619   9.452   3.538  -0.611 -2.7563 -0.4133  0.4824
  255MOL0     H33620   9.274   3.436  -0.495  1.5354  2.6570 -0.6224
  255MOL0     H33621   9.359   3.279  -0.495  2.4043 -0.6754 -2.3137
  255MOL0     H33622   9.139   3.195  -0.510  3.9990 -4.1367  0.2415
  255MOL0     H33623   8.957   3.046  -0.584 -1.8134 -0.1374 -0.9372
  255MOL0     H33624   8.587   3.037  -0.868  0.9507 -0.1795 -0.6379
  255MOL0     H33625   8.381   2.906  -0.934  0.0283 -0.6041 -1.0636
  255MOL0     H33626   8.472   2.506  -1.114 -0.8998 -2.3231 -2.5971
  255MOL0     H33627   8.394   2.584  -1.245  0.6051 -0.2262  0.5011
  255MOL0     H33628   8.266   2.441  -1.004  1.5874  0.7113  0.2121
  255MOL0     H33629   8.282   2.380  -1.173  1.7969  0.9602  0.0736
  255MOL0     H33630   8.140   2.580  -1.238 -0.6021 -0.7845 -1.1600
  255MOL0     H33631   8.110   2.615  -1.068  1.2534  1.7239 -1.5844
  255MOL0     H33632   8.036   2.388  -1.251 -2.1422 -0.7353  0.2339
  255MOL0     H33633   8.033   2.361  -1.074 -1.3296 -0.8688 -0.9355
  255MOL0     H33634   7.883   2.571  -1.221 -1.3024 -1.9719 -1.2422
  255MOL0     H33635   7.880   2.548  -1.045 -1.2562 -0.6875  0.9029
  255MOL0     H33636   7.760   2.334  -1.070 -2.2918  0.4152  0.6578
  255MOL0     H33637   7.774   2.354  -1.251 -0.6700  0.2709  1.1901
  255MOL0     H33638   7.628   2.519  -1.056  2.4705  2.7899 -1.3814
  255MOL0     H33639   7.642   2.553  -1.224  0.3098  0.6007  1.3683
  255MOL0     H33640   7.515   2.307  -1.072 -1.7956  2.1195  1.3225
  255MOL0     H33641   7.533   2.315  -1.252 -3.3982 -0.0288 -0.0242
  255MOL0     H33642   8.625   2.640  -1.165 -2.2383 -0.6141  1.0191
  255MOL0     H33643   8.822   2.776  -1.125  1.3443  2.4161  1.3596
  255MOL0     H33644   9.038   3.150  -0.991  3.2761 -0.0882  0.4019
  255MOL0     H33645   9.230   3.294  -0.924 -0.1857  1.0160  0.8247
  255MOL0     H33646  10.591   4.043   0.248  1.3740 -0.9179  0.4836
  255MOL0     H33647  10.776   4.125   0.378 -1.1438  1.2307  0.1725
  255MOL0     H33648  10.940   4.685   0.401 -0.4512 -1.3823 -0.6503
  255MOL0     H33649  11.142   4.816   0.456 -1.5800  0.1409 -1.6276
  255MOL0     H33650  11.344   4.898   0.524  0.9304  1.5818 -0.4961
  255MOL0     H33651  11.362   4.908   0.346  0.6669  2.3561  0.2191
  255MOL0     H33652  11.586   4.848   0.363  0.1010  1.0713 -0.5589
  255MOL0     H33653  11.551   5.008   0.437  1.3015 -0.2426 -0.3647
  255MOL0     H33654  11.578   4.743   0.582 -1.7459 -0.1093 -2.8028
  255MOL0     H33655  11.522   4.900   0.651  0.1624  1.4548 -1.5610
  255MOL0     H33656  11.802   4.842   0.531  2.4639 -0.6193  2.5542
  255MOL0     H33657  11.758   4.990   0.635 -2.8963  1.4067 -1.4278
  255MOL0     H33658  11.845   4.680   0.910 -0.0539 -0.5562 -1.5521
  255MOL0     H33659  11.380   4.465   0.361 -1.7726 -5.6899  0.0334
  255MOL0     H33660  11.177   4.340   0.319 -1.9910  1.4249 -1.8337
  256MOL0     O33661  10.375   2.943   5.117  0.2558  0.0800 -1.0022
  256MOL0     C33662  10.378   2.945   4.992  0.5293 -0.3193  0.6582
  256MOL0     O33663  10.268   2.940   4.908 -0.2946 -0.3409  0.1060
  256MOL0     C33664  10.150   2.919   4.975 -0.3567  0.1201  0.7049
  256MOL0     C33665  10.036   2.964   4.911 -0.6723  0.5902 -0.2464
  256MOL0     C33666   9.904   2.943   4.957 -0.0004 -0.1438  0.6297
  256MOL0     C33667   9.888   2.856   5.068 -1.3937 -0.1489 -0.4977
  256MOL0     O33668   9.771   2.845   5.140 -0.4985 -0.3088  0.1869
  256MOL0     C33669   9.639   2.838   5.077 -0.2122 -0.4799 -1.1564
  256MOL0     C33670   9.536   2.902   5.169 -0.5016 -0.3959 -1.1835
  256MOL0     C33671   9.390   2.871   5.118  0.1411 -0.3550  0.2861
  256MOL0     C33672   9.367   2.910   4.974  0.7146 -0.1906  0.3353
  256MOL0     C33673   9.224   2.956   4.935 -0.7796  0.0667 -0.2129
  256MOL0     C33674   9.121   2.846   4.944  0.6758 -0.5290 -1.4510
  256MOL0     C33675   8.995   2.893   4.871 -0.6511  0.1781 -0.0461
  256MOL0     C33676   8.869   2.810   4.927 -1.1678 -0.4030 -0.2988
  256MOL0     N33677   8.747   2.836   4.840 -0.2365  0.0971  0.0026
  256MOL0     C33678   8.653   2.940   4.850  0.0982 -0.6728 -0.0687
  256MOL0     C33679   8.560   2.906   4.756  0.4687  0.9217 -0.6364
  256MOL0     C33680   8.436   2.983   4.726 -0.5164 -0.6025  0.3214
  256MOL0     C33681   8.422   3.042   4.582 -0.3981  0.5385 -0.1352
  256MOL0     C33682   8.324   3.163   4.577  0.0481  0.0084  0.3333
  256MOL0     C33683   8.178   3.114   4.592 -0.0285  0.0094  0.3941
  256MOL0     O33684   8.128   3.087   4.461  0.2749  0.3870 -0.2972
  256MOL0     C33685   7.992   3.076   4.443 -0.1345  0.7683  1.1083
  256MOL0     C33686   7.886   3.073   4.548 -0.0282  0.2804  0.5677
  256MOL0     C33687   7.751   3.051   4.526 -0.4340 -0.2497 -0.3526
  256MOL0     C33688   7.696   3.031   4.403  1.0258 -0.6275  0.1203
  256MOL0     C33689   7.548   3.029   4.381 -1.1779 -0.2334  0.7063
  256MOL0     O33690   7.461   3.041   4.492 -0.1286 -0.6265  0.5740
  256MOL0     C33691   7.339   2.990   4.465 -0.1766 -0.6675  0.4870
  256MOL0     C33692   7.315   2.850   4.462 -0.7662 -0.5678 -0.9969
  256MOL0     C33693   7.187   2.801   4.433 -0.3942 -0.4914  0.0393
  256MOL0     C33694   7.080   2.889   4.422 -0.1777  0.2081 -0.1191
  256MOL0     O33695   6.953   2.838   4.413  0.4056 -0.6761 -1.2298
  256MOL0     C33696   6.847   2.912   4.478  0.3897  0.1310 -1.1690
  256MOL0     C33697   6.737   2.809   4.480 -0.4384  0.0664 -0.0938
  256MOL0     C33698   6.596   2.874   4.521  0.1925  0.0365 -0.0005
  256MOL0     C33699   6.559   3.002   4.453 -0.1752  0.0498 -0.0036
  256MOL0     C33700   6.528   2.996   4.303  0.0334 -0.1946  0.3286
  256MOL0     C33701   6.460   3.127   4.248 -0.0997 -0.0880  0.1242
  256MOL0     C33702   6.398   3.117   4.111  0.6244 -0.1014  0.9074
  256MOL0     C33703   6.334   3.236   4.056 -0.2512 -0.2385  0.0674
  256MOL0    Cl33704   6.173   3.261   4.135 -0.2796  0.4397  0.0945
  256MOL0     C33705   7.101   3.029   4.423  0.3067  0.4123 -0.5850
  256MOL0     C33706   7.229   3.082   4.442 -0.4096  0.1482 -0.4977
  256MOL0     O33707   7.512   3.006   4.263 -0.4659 -0.3044 -0.0676
  256MOL0     C33708   7.793   3.040   4.297  0.3904  0.8837 -0.1729
  256MOL0     C33709   7.934   3.067   4.315 -0.4034  0.3716 -0.0111
  256MOL0     N33710   8.592   2.793   4.686  0.1680 -0.9895 -0.0396
  256MOL0     N33711   8.705   2.752   4.737  0.6710 -0.1170  0.2702
  256MOL0     C33712  10.002   2.805   5.136  0.6906 -0.4093  0.3303
  256MOL0     C33713  10.126   2.832   5.087  0.3539  0.0601 -0.0874
  256MOL0     C33714  10.504   2.968   4.914  0.4928  0.5238 -0.5048
  256MOL0     C33715  10.629   2.953   4.981 -0.3307 -0.4081 -0.0703
  256MOL0     C33716  10.748   2.967   4.919  0.6827 -0.1205 -0.1811
  256MOL0     C33717  10.750   2.990   4.788 -0.0335 -0.4702 -0.3213
  256MOL0     O33718  10.865   3.034   4.740  0.0854 -0.1165  0.0077
  256MOL0     C33719  10.953   2.953   4.666  1.0817 -0.4265 -0.2802
  256MOL0     C33720  11.031   3.055   4.583 -0.1427 -0.1776 -0.1072
  256MOL0     C33721  11.154   2.999   4.528  0.1427 -0.2410 -0.1821
  256MOL0     C33722  11.225   3.095   4.433 -0.1766  0.0568 -0.6907
  256MOL0     C33723  11.152   3.165   4.330  0.0357 -0.0589 -0.0129
  256MOL0     C33724  11.104   3.237   4.243  0.0956 -0.7307  0.2448
  256MOL0     C33725  10.633   3.003   4.715  0.8764  0.1428  0.4040
  256MOL0     C33726  10.509   2.989   4.776  0.2663  0.0953 -0.0974
  256MOL0     H33727  10.045   3.046   4.841  0.2209  0.9754  0.3028
  256MOL0     H33728   9.824   2.997   4.907 -0.0543 -2.0127 -1.5022
  256MOL0     H33729   9.600   2.737   5.059 -2.4559  0.4443 -1.8847
  256MOL0     H33730   9.638   2.900   4.987  1.7560  1.1782 -0.1047
  256MOL0     H33731   9.547   3.010   5.184  1.5633 -0.9653  2.8010
  256MOL0     H33732   9.550   2.871   5.273  0.0602  4.4081  0.4192
  256MOL0     H33733   9.311   2.925   5.171 -2.0597 -0.8524 -2.3092
  256MOL0     H33734   9.355   2.769   5.135 -1.6663  0.1129 -0.4089
  256MOL0     H33735   9.430   2.998   4.957  0.0417  0.2183 -0.0794
  256MOL0     H33736   9.400   2.827   4.912 -0.3494  0.9224 -1.8338
  256MOL0     H33737   9.230   2.982   4.829  3.3692 -3.1650 -1.0447
  256MOL0     H33738   9.194   3.041   4.998 -0.5026  1.2159 -1.5766
  256MOL0     H33739   9.094   2.822   5.047 -0.9097 -0.5735 -1.8415
  256MOL0     H33740   9.155   2.748   4.911  2.0549 -0.4732 -0.2782
  256MOL0     H33741   8.984   3.000   4.892  0.5226  0.7248 -1.9136
  256MOL0     H33742   9.008   2.873   4.764 -2.1066 -0.7978 -0.0580
  256MOL0     H33743   8.855   2.845   5.029  1.8448 -0.3790  0.2013
  256MOL0     H33744   8.894   2.705   4.941  0.3902  0.2482  2.4819
  256MOL0     H33745   8.657   3.035   4.903  0.9120  0.1939 -1.6087
  256MOL0     H33746   8.426   3.059   4.804  2.8184 -0.3253  0.6153
  256MOL0     H33747   8.360   2.905   4.743  0.3854 -1.3613  0.9607
  256MOL0     H33748   8.395   2.970   4.505 -1.3224  0.7619 -0.0396
  256MOL0     H33749   8.513   3.092   4.547 -0.9844  1.6997 -0.0837
  256MOL0     H33750   8.350   3.218   4.668 -0.6607 -1.9617  1.7886
  256MOL0     H33751   8.349   3.222   4.489 -0.4932  0.8207  0.7026
  256MOL0     H33752   8.120   3.184   4.653 -0.7672 -0.0349 -0.2501
  256MOL0     H33753   8.169   3.020   4.648  0.8850  0.1054  0.7180
  256MOL0     H33754   7.907   3.099   4.651 -1.4197 -2.5406  1.6902
  256MOL0     H33755   7.693   3.054   4.618  0.3198  1.7707  0.1137
  256MOL0     H33756   7.394   2.776   4.473 -2.1233 -1.6865  2.8295
  256MOL0     H33757   7.167   2.694   4.427  1.4465 -0.9450  1.0250
  256MOL0     H33758   6.810   2.992   4.414  0.1999  1.7777  0.8906
  256MOL0     H33759   6.873   2.954   4.576  0.8048 -0.0344 -1.2052
  256MOL0     H33760   6.760   2.728   4.549  1.3916 -0.4139 -1.2144
  256MOL0     H33761   6.726   2.768   4.380  1.3867  0.4764 -0.4856
  256MOL0     H33762   6.590   2.893   4.629  1.6768 -0.8129  0.2684
  256MOL0     H33763   6.517   2.803   4.497 -1.5382  2.7239 -3.0415
  256MOL0     H33764   6.473   3.048   4.503  0.2373 -0.5069  1.2562
  256MOL0     H33765   6.642   3.070   4.474  2.0170 -2.4340 -0.2132
  256MOL0     H33766   6.454   2.918   4.288  2.7492 -2.8664 -0.1426
  256MOL0     H33767   6.625   2.979   4.254  0.5664  0.6634  1.0408
  256MOL0     H33768   6.540   3.202   4.248  3.0546 -3.1428 -0.9857
  256MOL0     H33769   6.380   3.160   4.315  0.0952 -1.1845  0.9148
  256MOL0     H33770   6.476   3.092   4.039  0.1972  0.7502  0.1357
  256MOL0     H33771   6.331   3.030   4.106  0.6665 -0.0684 -0.7225
  256MOL0     H33772   6.317   3.218   3.950 -1.0277  0.7345  0.0132
  256MOL0     H33773   6.393   3.327   4.069 -1.2733  0.4012  0.3244
  256MOL0     H33774   7.025   3.104   4.404  0.7781  0.7879 -1.0403
  256MOL0     H33775   7.258   3.186   4.433  1.8947  0.0371  3.4392
  256MOL0     H33776   7.759   3.028   4.194  0.2162 -1.5873  0.1102
  256MOL0     H33777   7.992   3.080   4.225 -2.4158 -0.9692 -1.5929
  256MOL0     H33778   9.988   2.735   5.217 -0.4327 -0.4411  0.1260
  256MOL0     H33779  10.207   2.799   5.151  0.4905  2.0412  0.8229
  256MOL0     H33780  10.637   2.933   5.087 -1.7399  1.5923  0.4587
  256MOL0     H33781  10.842   2.967   4.972  1.9915 -0.9668 -2.3724
  256MOL0     H33782  10.901   2.893   4.591  2.2213 -0.7696 -0.8138
  256MOL0     H33783  11.019   2.884   4.721  1.9041  0.8947  0.4293
  256MOL0     H33784  10.966   3.067   4.496 -0.3170  1.1326  0.1895
  256MOL0     H33785  11.058   3.147   4.636  1.9501 -0.0410 -1.2947
  256MOL0     H33786  11.131   2.907   4.474  4.1385 -1.9022  0.5792
  256MOL0     H33787  11.215   2.964   4.611  0.3628  0.0631 -0.2126
  256MOL0     H33788  11.280   3.163   4.498 -0.4681 -2.5967  2.5790
  256MOL0     H33789  11.309   3.043   4.385  1.0790  1.9264 -0.5979
  256MOL0     H33790  11.074   3.308   4.169  1.6306  0.2459  0.5214
  256MOL0     H33791  10.638   3.030   4.610 -2.3727  1.3452  0.4664
  256MOL0     H33792  10.420   2.990   4.713  0.4916 -2.7072 -0.5876
  257MOL0     O33793   3.045   4.743   8.482  0.2557  0.1653 -0.7681
  257MOL0     C33794   3.127   4.671   8.436 -0.3083  0.3860  0.3989
  257MOL0     O33795   3.126   4.619   8.315 -0.2947 -0.8432  0.1828
  257MOL0     C33796   3.013   4.595   8.248  0.2724 -0.2038 -0.6383
  257MOL0     C33797   2.896   4.550   8.305  0.2309 -0.2231  0.2602
  257MOL0     C33798   2.773   4.549   8.233 -0.3948  0.5502 -0.1104
  257MOL0     C33799   2.764   4.590   8.103 -0.7605  0.2621  0.6347
  257MOL0     O33800   2.643   4.577   8.040 -0.3196 -0.1113  0.2704
  257MOL0     C33801   2.637   4.610   7.898  0.3024 -0.3918 -0.0842
  257MOL0     C33802   2.494   4.599   7.842 -0.0199  0.4299  0.5194
  257MOL0     C33803   2.440   4.458   7.826 -0.0085 -0.3025 -0.0510
  257MOL0     C33804   2.292   4.463   7.760 -0.5579  0.0432 -0.8405
  257MOL0     C33805   2.260   4.336   7.693 -0.5378 -0.4719  0.4510
  257MOL0     C33806   2.117   4.337   7.634  0.7512 -0.6640  0.4597
  257MOL0     C33807   2.106   4.216   7.542 -0.0263  0.2225  0.2517
  257MOL0     C33808   1.962   4.156   7.529  0.0292 -0.3899 -0.2600
  257MOL0     N33809   1.978   4.054   7.426  0.3641  0.3044 -0.8441
  257MOL0     C33810   1.887   4.046   7.328  0.4712 -0.1430  0.0004
  257MOL0     C33811   1.920   3.925   7.264 -0.4936 -0.4198 -0.0704
  257MOL0     C33812   1.857   3.856   7.143  0.7305 -0.5593 -0.5660
  257MOL0     C33813   1.933   3.880   7.018 -0.5894  0.5379 -0.1395
  257MOL0     C33814   1.890   3.785   6.905  0.3343 -0.2810  1.2341
  257MOL0     C33815   1.803   3.846   6.797 -0.6845 -0.5153 -0.3476
  257MOL0     O33816   1.675   3.840   6.860  0.4233 -0.3769 -0.7657
  257MOL0     C33817   1.585   3.742   6.833  1.0058 -0.2177 -1.0626
  257MOL0     C33818   1.555   3.659   6.936  0.6035 -0.2105 -0.3083
  257MOL0     C33819   1.454   3.559   6.924  0.3383 -0.0539  0.5728
  257MOL0     C33820   1.386   3.544   6.798  0.0947 -0.3192 -0.5479
  257MOL0     C33821   1.284   3.432   6.774 -0.0214 -0.1821 -0.0006
  257MOL0     O33822   1.223   3.428   6.647  0.8744  0.2657 -0.8632
  257MOL0     C33823   1.120   3.336   6.634  0.2799 -0.2260  0.7181
  257MOL0     C33824   0.988   3.368   6.671 -0.2675  0.0701  0.0414
  257MOL0     C33825   0.878   3.288   6.626  0.0488 -0.4746 -0.7826
  257MOL0     C33826   0.897   3.170   6.544 -0.3753 -0.3944  0.7052
  257MOL0     O33827   0.796   3.085   6.489  0.6041 -0.9010  0.1147
  257MOL0     C33828   0.659   3.105   6.537 -0.0595 -0.7728  0.3905
  257MOL0     C33829   0.578   3.018   6.445 -0.0503  0.6391  0.3028
  257MOL0     C33830   0.427   3.029   6.485 -0.2906 -0.3997 -0.2054
  257MOL0     C33831   0.353   2.906   6.428 -0.2482  0.6003  0.1750
  257MOL0     C33832   0.353   2.909   6.269  0.6395 -0.1738 -0.0996
  257MOL0     C33833   0.237   2.825   6.210  0.0603  0.1199 -0.3774
  257MOL0     C33834   0.236   2.820   6.059  0.3512 -0.2504 -0.7649
  257MOL0     C33835   0.211   2.951   5.995 -0.2132 -0.0845  0.4541
  257MOL0    Cl33836   0.160   2.936   5.821 -0.0945  0.1820  0.1229
  257MOL0     C33837   1.029   3.138   6.522 -0.2947 -0.0567  0.3253
  257MOL0     C33838   1.141   3.213   6.563 -0.5184 -0.4237 -0.3167
  257MOL0     O33839   1.233   3.378   6.876 -0.1460 -0.3717 -0.2522
  257MOL0     C33840   1.427   3.629   6.690 -0.2595 -0.3780 -0.0412
  257MOL0     C33841   1.523   3.726   6.713 -0.0486  0.2904  0.0827
  257MOL0     N33842   2.029   3.866   7.332  0.3710  0.4399  0.5397
  257MOL0     N33843   2.065   3.947   7.426  0.2619 -0.3182  0.0342
  257MOL0     C33844   2.884   4.618   8.039 -0.4187 -0.4698  0.6335
  257MOL0     C33845   3.006   4.621   8.107  0.3582  0.9161 -0.4063
  257MOL0     C33846   3.253   4.644   8.510  0.1656  0.5660  0.0470
  257MOL0     C33847   3.255   4.658   8.647 -0.0897  0.3492 -0.0821
  257MOL0     C33848   3.377   4.634   8.714 -0.2692 -0.4591 -0.1550
  257MOL0     C33849   3.490   4.604   8.649  0.1041  1.1052  0.6401
  257MOL0     O33850   3.614   4.582   8.705  0.1555 -0.1652  0.1531
  257MOL0     C33851   3.627   4.595   8.844  1.9939  0.1859  0.8442
  257MOL0     C33852   3.773   4.532   8.861  0.3727 -0.2794 -0.4202
  257MOL0     C33853   3.810   4.525   9.010 -0.5326 -0.5830 -0.4140
  257MOL0     C33854   3.957   4.514   9.046  0.0266  0.5415  0.2791
  257MOL0     C33855   4.035   4.623   8.987 -0.7758  0.1102 -0.8467
  257MOL0     C33856   4.111   4.717   8.963  1.1110 -0.0464  0.0899
  257MOL0     C33857   3.491   4.590   8.511 -0.1052  0.5128  0.0217
  257MOL0     C33858   3.377   4.620   8.445  0.8369 -0.4743  0.0295
  257MOL0     H33859   2.896   4.516   8.409  0.0985  0.2754  0.4254
  257MOL0     H33860   2.686   4.501   8.277  1.2414 -3.3808 -0.7127
  257MOL0     H33861   2.689   4.533   7.840  0.7915 -0.1393  0.0158
  257MOL0     H33862   2.677   4.711   7.887 -0.3798 -0.0130  0.7452
  257MOL0     H33863   2.498   4.649   7.745 -0.5717  1.7466  1.1454
  257MOL0     H33864   2.414   4.651   7.896 -0.0560  1.5575 -0.5825
  257MOL0     H33865   2.445   4.403   7.920  3.6486 -1.3092 -0.6812
  257MOL0     H33866   2.516   4.406   7.766  0.7606 -0.6461  1.1788
  257MOL0     H33867   2.228   4.470   7.848  1.9694 -1.3452  1.2504
  257MOL0     H33868   2.278   4.547   7.692 -1.3352  1.9365  1.5015
  257MOL0     H33869   2.292   4.247   7.749  1.0552 -0.5111 -0.4597
  257MOL0     H33870   2.336   4.331   7.615 -0.9506 -1.5343  0.1008
  257MOL0     H33871   2.106   4.430   7.578  3.0428  0.2780  1.4295
  257MOL0     H33872   2.043   4.331   7.714 -0.9096  3.3618 -0.5141
  257MOL0     H33873   2.143   4.228   7.440  0.4945 -3.1629 -0.0678
  257MOL0     H33874   2.170   4.143   7.591  0.3810 -0.9944 -1.9616
  257MOL0     H33875   1.889   4.232   7.501  0.9116  0.1570 -1.1461
  257MOL0     H33876   1.942   4.122   7.631  4.4478 -0.4728  0.7884
  257MOL0     H33877   1.803   4.110   7.303 -1.0335 -1.1291  2.2148
  257MOL0     H33878   1.757   3.892   7.120  0.7578  1.7931  2.3692
  257MOL0     H33879   1.859   3.750   7.169 -1.7204 -0.2329  1.2415
  257MOL0     H33880   2.041   3.865   7.033 -0.9775 -2.8854 -0.0648
  257MOL0     H33881   1.920   3.983   6.984  0.7881  0.3828 -1.2230
  257MOL0     H33882   1.982   3.757   6.853  2.0621 -0.1681  4.0180
  257MOL0     H33883   1.842   3.694   6.941 -1.7584 -0.0071 -0.6647
  257MOL0     H33884   1.797   3.793   6.702 -0.9408  0.0562 -0.6565
  257MOL0     H33885   1.829   3.949   6.769  4.7539 -1.8147 -1.2250
  257MOL0     H33886   1.606   3.673   7.030  1.4892 -2.9283 -0.2980
  257MOL0     H33887   1.420   3.511   7.015  0.4981 -1.1530  0.0579
  257MOL0     H33888   0.963   3.463   6.718 -1.8041 -1.0955  1.6954
  257MOL0     H33889   0.781   3.318   6.666 -0.0953 -0.0269 -1.4442
  257MOL0     H33890   0.629   3.209   6.526 -1.1523 -1.2769 -2.2240
  257MOL0     H33891   0.664   3.081   6.644 -1.3812  0.8135  0.8360
  257MOL0     H33892   0.610   2.913   6.441  1.7907  1.1582  0.3541
  257MOL0     H33893   0.594   3.063   6.346  2.0352 -1.4735 -0.4062
  257MOL0     H33894   0.386   3.121   6.442 -0.4859  0.9680  2.6475
  257MOL0     H33895   0.417   3.024   6.594 -0.4879 -1.9069 -0.2713
  257MOL0     H33896   0.394   2.809   6.456  0.5303  0.6780 -0.6284
  257MOL0     H33897   0.250   2.906   6.464 -0.7202  0.8369 -1.1199
  257MOL0     H33898   0.447   2.869   6.230 -0.4075 -4.0273  0.8396
  257MOL0     H33899   0.340   3.009   6.227  0.7015  0.3612  1.1217
  257MOL0     H33900   0.141   2.866   6.241 -0.0667  2.6363 -3.5904
  257MOL0     H33901   0.251   2.723   6.247  2.5960  0.6619  0.3320
  257MOL0     H33902   0.330   2.784   6.015  1.7352  2.3222 -0.1320
  257MOL0     H33903   0.150   2.759   6.031  0.7346 -1.6267  0.9190
  257MOL0     H33904   0.303   3.011   5.997  0.3204 -0.5358 -3.1437
  257MOL0     H33905   0.131   3.006   6.045 -1.1962  2.0874 -3.1461
  257MOL0     H33906   1.042   3.066   6.442 -0.4745 -0.2103  0.4333
  257MOL0     H33907   1.244   3.193   6.535 -1.0169 -1.9549 -1.2207
  257MOL0     H33908   1.398   3.606   6.588 -0.1127 -0.3799 -0.0834
  257MOL0     H33909   1.560   3.787   6.631  0.9485 -2.5038 -1.6895
  257MOL0     H33910   2.884   4.633   7.932 -0.1257  1.8049  0.8928
  257MOL0     H33911   3.093   4.648   8.047  1.6971 -5.5058 -2.1350
  257MOL0     H33912   3.162   4.683   8.696  0.7374  2.1630  0.6675
  257MOL0     H33913   3.375   4.637   8.823  2.7611 -1.6999  0.0222
  257MOL0     H33914   3.558   4.521   8.886 -0.5016  1.4579 -0.7646
  257MOL0     H33915   3.617   4.699   8.875  0.2920  1.0477 -2.1433
  257MOL0     H33916   3.784   4.433   8.816 -0.8473 -0.9539  0.7034
  257MOL0     H33917   3.843   4.604   8.817 -0.8706  1.2268 -0.0109
  257MOL0     H33918   3.751   4.446   9.057 -2.2627  0.8159 -0.1119
  257MOL0     H33919   3.783   4.622   9.054  0.9726  0.2452 -1.2269
  257MOL0     H33920   3.966   4.515   9.155 -1.8667  0.8567  0.4570
  257MOL0     H33921   3.999   4.422   9.003 -1.9045  0.9018 -2.6816
  257MOL0     H33922   4.167   4.806   8.941 -0.7696  1.1056 -0.2889
  257MOL0     H33923   3.582   4.558   8.462 -1.1789 -3.1287  0.0776
  257MOL0     H33924   3.380   4.623   8.336 -0.7792  0.0828 -0.0293
  258MOL0     O33925   8.356   3.190  10.426 -0.6361 -0.4153 -0.6276
  258MOL0     C33926   8.379   3.265  10.335  0.1046 -0.6926 -0.9868
  258MOL0     O33927   8.279   3.320  10.253 -0.1745  1.0472 -0.0327
  258MOL0     C33928   8.149   3.302  10.293  0.3042 -0.4323  0.4027
  258MOL0     C33929   8.058   3.205  10.237 -0.6530  0.0488  0.0407
  258MOL0     C33930   7.921   3.202  10.260 -0.0034 -0.5574 -0.2924
  258MOL0     C33931   7.870   3.294  10.347  0.4440 -0.0699  0.0194
  258MOL0     O33932   7.738   3.288  10.369  0.0829  0.2466 -0.2884
  258MOL0     C33933   7.685   3.378  10.458  0.4114  0.3286  0.0791
  258MOL0     C33934   7.530   3.369  10.474 -0.5595 -0.9684  0.1495
  258MOL0     C33935   7.485   3.231  10.514  0.0029  0.2287 -0.1471
  258MOL0     C33936   7.339   3.227  10.563  0.3001  0.2582  0.5271
  258MOL0     C33937   7.258   3.088  10.543 -0.9581 -0.0654 -0.0429
  258MOL0     C33938   7.303   2.978  10.647 -2.0343  0.5304  1.4141
  258MOL0     C33939   7.235   2.991  10.784 -0.3117  0.5579  0.4438
  258MOL0     C33940   7.272   2.895  10.896 -0.0800  0.5077 -0.1998
  258MOL0     N33941   7.247   2.754  10.865  0.5817 -0.6065 -0.3217
  258MOL0     C33942   7.125   2.692  10.894  0.4361 -0.5225 -0.0629
  258MOL0     C33943   7.147   2.562  10.859  0.8522 -0.0650  0.2452
  258MOL0     C33944   7.051   2.452  10.890 -0.6178 -0.0992  0.6414
  258MOL0     C33945   6.935   2.454  10.800 -0.3031  0.7961  0.8632
  258MOL0     C33946   6.819   2.396  10.877 -0.6588  0.6394  0.2306
  258MOL0     C33947   6.691   2.403  10.800  0.8034  0.3348 -0.4880
  258MOL0     O33948   6.580   2.349  10.877  0.2187 -0.0802  0.5149
  258MOL0     C33949   6.453   2.370  10.827  0.2711  0.8676 -0.6653
  258MOL0     C33950   6.364   2.302  10.905 -0.3210  0.4434 -0.0429
  258MOL0     C33951   6.230   2.288  10.861 -0.2084 -0.3403 -0.0932
  258MOL0     C33952   6.184   2.356  10.737  0.1103 -0.1839  0.1350
  258MOL0     C33953   6.047   2.339  10.689  0.0316  0.7742  1.2996
  258MOL0     O33954   5.988   2.224  10.726  0.9982 -0.5345  0.0939
  258MOL0     C33955   5.860   2.184  10.681 -1.1796 -0.2140  0.3214
  258MOL0     C33956   5.802   2.070  10.739 -0.3310  0.0572  0.0972
  258MOL0     C33957   5.687   2.002  10.686 -0.0233 -0.4744  0.5206
  258MOL0     C33958   5.626   2.066  10.571 -0.3579  0.4339  0.4644
  258MOL0     O33959   5.513   2.015  10.514 -0.2361 -0.1443  0.0868
  258MOL0     C33960   5.427   1.935  10.592  1.1312  0.4643  0.2078
  258MOL0     C33961   5.313   1.878  10.510  0.3876  0.0513  0.4147
  258MOL0     C33962   5.345   1.811  10.377  0.2868  0.0008  0.9026
  258MOL0     C33963   5.216   1.775  10.302  0.5860  0.5427 -0.1354
  258MOL0     C33964   5.202   1.844  10.165  0.1757 -0.6415  0.2838
  258MOL0     C33965   5.090   1.793  10.074 -1.2197  0.0303  0.6718
  258MOL0     C33966   5.078   1.893   9.957  0.4047 -0.6439  0.1290
  258MOL0     C33967   5.178   1.864   9.841 -0.0319 -0.0552 -0.8632
  258MOL0    Cl33968   5.130   1.704   9.769 -0.0694  0.5391  0.2232
  258MOL0     C33969   5.675   2.187  10.519  0.0424 -0.5569  0.1560
  258MOL0     C33970   5.790   2.243  10.571 -0.4239  0.0444  0.1368
  258MOL0     O33971   6.010   2.420  10.597 -0.1762 -0.9414  0.0204
  258MOL0     C33972   6.282   2.428  10.664 -0.1729 -0.2438  0.1236
  258MOL0     C33973   6.415   2.434  10.706  0.3393  0.4451  0.6422
  258MOL0     N33974   7.267   2.543  10.796  0.1050  0.1864  1.1104
  258MOL0     N33975   7.320   2.667  10.802 -0.8997 -0.3478 -0.3087
  258MOL0     C33976   7.961   3.392  10.405 -0.4122 -0.3047  1.4864
  258MOL0     C33977   8.100   3.395  10.379  0.3748 -0.5566 -0.4166
  258MOL0     C33978   8.526   3.299  10.300  0.8170  0.4035 -0.8578
  258MOL0     C33979   8.627   3.286  10.400 -0.1277  0.7174  0.0658
  258MOL0     C33980   8.758   3.324  10.380 -0.7180 -0.4978  0.2507
  258MOL0     C33981   8.784   3.395  10.262  0.2478 -0.2880  0.1046
  258MOL0     O33982   8.903   3.447  10.249  1.3288  0.1786 -0.3921
  258MOL0     C33983   8.917   3.581  10.289  0.1744 -0.6303  0.0018
  258MOL0     C33984   9.061   3.618  10.290  0.2283  1.4939  0.9918
  258MOL0     C33985   9.128   3.620  10.154 -0.1714  0.1099 -0.0839
  258MOL0     C33986   9.283   3.640  10.161 -0.2240 -1.0245 -0.0552
  258MOL0     C33987   9.320   3.785  10.168  0.9093  0.9916 -0.2622
  258MOL0     C33988   9.353   3.899  10.184 -0.3297 -0.2043  0.8798
  258MOL0     C33989   8.687   3.412  10.164 -0.3198 -1.2649 -0.1234
  258MOL0     C33990   8.560   3.365  10.195 -0.1174 -0.6703 -0.2240
  258MOL0     H33991   8.111   3.138  10.170  1.3608  0.6323  0.9628
  258MOL0     H33992   7.850   3.127  10.226 -2.6705  0.2936  2.8804
  258MOL0     H33993   7.711   3.476  10.418 -1.7521  1.3072  0.9245
  258MOL0     H33994   7.724   3.369  10.560 -3.0660  2.2327  1.7525
  258MOL0     H33995   7.473   3.407  10.389 -2.9885  2.0710  2.8797
  258MOL0     H33996   7.508   3.435  10.559 -1.2002 -0.3652 -0.4713
  258MOL0     H33997   7.549   3.197  10.596  0.7228  2.9724  0.5463
  258MOL0     H33998   7.500   3.163  10.430  0.6875 -1.4114  1.2408
  258MOL0     H33999   7.340   3.242  10.672  0.4255  0.7364  0.4589
  258MOL0     H34000   7.285   3.304  10.508  1.8050 -0.0950 -1.5727
  258MOL0     H34001   7.270   3.050  10.440 -2.1511 -3.6178  0.9740
  258MOL0     H34002   7.153   3.115  10.553 -0.4399  2.0638  0.0314
  258MOL0     H34003   7.411   2.969  10.661 -2.0881 -0.6080  1.1924
  258MOL0     H34004   7.286   2.876  10.611  1.5034  0.6819 -1.3512
  258MOL0     H34005   7.255   3.094  10.816 -0.3438  0.6072  0.3041
  258MOL0     H34006   7.126   2.979  10.778 -0.1527 -0.8352  0.0719
  258MOL0     H34007   7.229   2.933  10.990  0.2880  2.3536 -0.7345
  258MOL0     H34008   7.381   2.894  10.904 -0.1643 -1.8992  2.6456
  258MOL0     H34009   7.040   2.710  10.960 -0.6203 -0.9687 -1.2558
  258MOL0     H34010   7.023   2.464  10.995 -1.0650  0.8164  0.4225
  258MOL0     H34011   7.105   2.356  10.885 -2.0235 -0.9527  1.2823
  258MOL0     H34012   6.952   2.384  10.718 -0.7574  2.3202 -0.5834
  258MOL0     H34013   6.919   2.553  10.755  0.4727  0.6145  0.1880
  258MOL0     H34014   6.823   2.289  10.898 -1.9711  0.2007 -1.5493
  258MOL0     H34015   6.796   2.462  10.961  0.5078  0.8351  0.4193
  258MOL0     H34016   6.701   2.332  10.717 -2.5508 -1.4094  0.4413
  258MOL0     H34017   6.678   2.506  10.767 -2.0824 -0.5194 -2.3757
  258MOL0     H34018   6.406   2.260  10.997  0.1276  0.2961 -0.3106
  258MOL0     H34019   6.159   2.240  10.927  0.1910 -0.3597  0.3242
  258MOL0     H34020   5.862   2.042  10.825  0.0146  2.3183  0.6656
  258MOL0     H34021   5.653   1.912  10.737 -3.6120  0.6414  0.3459
  258MOL0     H34022   5.374   1.997  10.665 -2.1358  0.1219 -1.6397
  258MOL0     H34023   5.482   1.857  10.644  0.2447 -0.5362 -0.3110
  258MOL0     H34024   5.254   1.966  10.480 -0.8109 -0.8995 -0.1079
  258MOL0     H34025   5.236   1.829  10.569  1.2699  0.7971  2.2670
  258MOL0     H34026   5.392   1.715  10.401  0.4733 -0.1892 -0.1750
  258MOL0     H34027   5.411   1.860  10.305 -0.2831 -2.0353 -1.1509
  258MOL0     H34028   5.217   1.668  10.278  1.2773  1.3367 -4.3713
  258MOL0     H34029   5.130   1.788  10.368 -0.0889 -1.3703 -0.5601
  258MOL0     H34030   5.295   1.836  10.109 -1.9611 -2.2718 -3.4156
  258MOL0     H34031   5.189   1.950  10.190  1.3075  0.1262 -2.1315
  258MOL0     H34032   4.995   1.780  10.127 -1.7180 -1.6970 -0.5387
  258MOL0     H34033   5.108   1.690  10.042 -0.3176  0.7421 -1.2178
  258MOL0     H34034   4.980   1.868   9.916  0.4910 -3.9469  1.6550
  258MOL0     H34035   5.085   1.992  10.005  1.5187 -1.2676  1.3401
  258MOL0     H34036   5.283   1.859   9.870 -0.5498 -0.3080  1.0745
  258MOL0     H34037   5.170   1.935   9.758 -1.5659 -1.1937 -1.7426
  258MOL0     H34038   5.624   2.230  10.434  3.7652  2.0910 -0.9965
  258MOL0     H34039   5.837   2.325  10.517  1.0408  0.4811  1.9382
  258MOL0     H34040   6.247   2.466  10.569  3.4802 -0.8787 -1.6393
  258MOL0     H34041   6.483   2.497  10.648 -2.3246  2.6908 -0.2737
  258MOL0     H34042   7.928   3.469  10.473  2.0514  0.6264  1.7240
  258MOL0     H34043   8.161   3.472  10.425 -0.2689 -0.6446  0.6015
  258MOL0     H34044   8.600   3.225  10.486  0.0690 -2.2264 -1.8327
  258MOL0     H34045   8.834   3.310  10.457 -1.4843  2.8352  1.8162
  258MOL0     H34046   8.885   3.592  10.393 -1.3947  0.8617 -0.6014
  258MOL0     H34047   8.859   3.662  10.245  1.1437 -0.1786 -0.4946
  258MOL0     H34048   9.061   3.717  10.337  0.0866  1.1433  1.7484
  258MOL0     H34049   9.115   3.545  10.350 -0.0702  0.3463 -0.0944
  258MOL0     H34050   9.082   3.701  10.097 -1.9443  0.3111  1.5250
  258MOL0     H34051   9.110   3.523  10.107  2.3110 -0.7715  0.6233
  258MOL0     H34052   9.324   3.581  10.244  2.5773  0.5403 -0.2379
  258MOL0     H34053   9.325   3.604  10.067  3.0015  1.7764  0.1279
  258MOL0     H34054   9.386   4.001  10.193 -0.6277  0.1080 -1.0899
  258MOL0     H34055   8.704   3.457  10.067 -1.1942  0.3853  0.4397
  258MOL0     H34056   8.488   3.385  10.116  0.9506  0.1151 -1.0161
  259MOL0     O34057   0.101   5.424   0.082  0.7393 -0.1241  0.0069
  259MOL0     C34058   0.165   5.359  -0.004  0.2860 -0.1941 -0.0422
  259MOL0     O34059   0.128   5.237  -0.054  0.2097 -0.4536  0.4088
  259MOL0     C34060   0.019   5.165  -0.006  1.2787 -0.7380  0.0445
  259MOL0     C34061  -0.017   5.159   0.132  1.2766 -0.3779  0.5621
  259MOL0     C34062  -0.133   5.106   0.178 -0.2419  0.6732 -0.6108
  259MOL0     C34063  -0.222   5.040   0.086  0.5330 -0.4219  1.1671
  259MOL0     O34064  -0.339   4.975   0.119 -0.5541  0.6797 -1.0551
  259MOL0     C34065  -0.388   4.971   0.253  0.2519 -0.2475  0.0816
  259MOL0     C34066  -0.490   4.856   0.264 -0.0886  0.0094 -0.4397
  259MOL0     C34067  -0.632   4.882   0.201  0.1059  0.4280 -0.2014
  259MOL0     C34068  -0.736   4.779   0.262 -0.2287 -0.9505  0.7437
  259MOL0     C34069  -0.886   4.801   0.212  0.0134  0.0147 -0.1825
  259MOL0     C34070  -0.977   4.689   0.278 -0.5335 -0.3140 -0.7690
  259MOL0     C34071  -1.118   4.699   0.228 -0.0874 -0.7519  0.2143
  259MOL0     C34072  -1.130   4.695   0.075  0.5529  0.0213  0.0844
  259MOL0     N34073  -1.269   4.655   0.036 -0.9081 -0.2106 -0.0793
  259MOL0     C34074  -1.322   4.525   0.044 -0.2685 -0.0396  0.0146
  259MOL0     C34075  -1.441   4.534  -0.006  0.3789 -0.2853 -0.1794
  259MOL0     C34076  -1.540   4.432  -0.010  0.0626 -0.3367 -0.6663
  259MOL0     C34077  -1.678   4.477  -0.065 -0.5549  0.1840 -0.0204
  259MOL0     C34078  -1.793   4.378  -0.057  0.1013  0.2348 -0.2220
  259MOL0     C34079  -1.931   4.439  -0.093  0.1118 -0.1274  0.0229
  259MOL0     O34080  -1.934   4.461  -0.236  0.1058 -0.7353  0.4720
  259MOL0     C34081  -2.052   4.436  -0.301  0.2044 -0.4389 -0.0460
  259MOL0     C34082  -2.177   4.474  -0.261 -0.1209  1.0347 -0.1894
  259MOL0     C34083  -2.281   4.464  -0.346 -0.3186  0.2650 -0.4990
  259MOL0     C34084  -2.263   4.401  -0.481  0.0379 -0.5863 -1.5100
  259MOL0     C34085  -2.382   4.353  -0.560  0.5607 -0.2508  0.2938
  259MOL0     O34086  -2.501   4.387  -0.506  1.2918 -0.0420  0.3041
  259MOL0     C34087  -2.611   4.377  -0.595 -0.1246  0.0697 -0.0512
  259MOL0     C34088  -2.618   4.463  -0.709  0.1048 -0.7802 -0.5127
  259MOL0     C34089  -2.733   4.462  -0.797 -1.0367 -0.1086 -0.0011
  259MOL0     C34090  -2.827   4.362  -0.783 -0.6363 -0.6294 -0.0581
  259MOL0     O34091  -2.926   4.337  -0.875 -0.5491 -0.1875 -0.2626
  259MOL0     C34092  -2.912   4.206  -0.934 -0.7955 -0.1884  0.8673
  259MOL0     C34093  -2.955   4.202  -1.070 -0.9128 -0.2822  0.0356
  259MOL0     C34094  -2.960   4.057  -1.125 -0.6019 -0.9933 -0.5230
  259MOL0     C34095  -2.974   4.071  -1.276 -0.3789  1.1772 -0.3400
  259MOL0     C34096  -3.096   4.018  -1.337 -0.6809 -0.4688 -0.1513
  259MOL0     C34097  -3.078   4.013  -1.489 -0.5297  0.1052 -0.1750
  259MOL0     C34098  -3.217   3.967  -1.550 -0.7401 -0.1742 -0.9214
  259MOL0     C34099  -3.200   3.958  -1.704 -0.2891  0.3947  0.1366
  259MOL0    Cl34100  -3.362   3.962  -1.773 -0.2943 -0.2671  0.2344
  259MOL0     C34101  -2.804   4.273  -0.670  0.0714 -0.3733 -0.2422
  259MOL0     C34102  -2.700   4.279  -0.584  0.4632  0.9075 -0.0845
  259MOL0     O34103  -2.365   4.303  -0.674 -0.6791  0.2233 -0.0850
  259MOL0     C34104  -2.130   4.363  -0.519  0.1040 -1.3541 -0.6693
  259MOL0     C34105  -2.024   4.390  -0.427  0.6332  0.2217  0.6668
  259MOL0     N34106  -1.462   4.671  -0.050  0.0573  0.7072 -0.4792
  259MOL0     N34107  -1.362   4.735  -0.022 -0.7986 -0.0966 -0.4840
  259MOL0     C34108  -0.199   5.045  -0.054 -0.2080 -0.0076 -0.3474
  259MOL0     C34109  -0.077   5.102  -0.101 -0.0164 -0.6565  0.3929
  259MOL0     C34110   0.283   5.426  -0.066  0.7515  0.4380 -0.5249
  259MOL0     C34111   0.374   5.342  -0.134  0.1721  0.4684 -1.1694
  259MOL0     C34112   0.486   5.410  -0.187 -0.5407  0.2092  0.3345
  259MOL0     C34113   0.508   5.553  -0.182  0.2399 -0.1011 -0.1952
  259MOL0     O34114   0.619   5.604  -0.249  0.4191 -0.1434  0.6001
  259MOL0     C34115   0.661   5.741  -0.221 -0.6096  0.2667  0.4927
  259MOL0     C34116   0.807   5.760  -0.253  0.1725  0.3628 -0.1328
  259MOL0     C34117   0.904   5.715  -0.142 -0.2851 -1.0703 -0.6995
  259MOL0     C34118   1.051   5.733  -0.173  0.5740  0.9602 -0.2570
  259MOL0     C34119   1.129   5.652  -0.072 -0.3115  0.0903 -0.2819
  259MOL0     C34120   1.205   5.608   0.020  0.7977  0.4375 -0.6265
  259MOL0     C34121   0.420   5.630  -0.105 -0.5115  0.2196 -0.6703
  259MOL0     C34122   0.312   5.564  -0.050  0.2765  1.2470 -0.6439
  259MOL0     H34123   0.050   5.212   0.200 -1.7917  3.0232  1.2400
  259MOL0     H34124  -0.162   5.116   0.282  2.4500 -2.1249  0.5678
  259MOL0     H34125  -0.428   5.060   0.301 -1.5457 -1.2203  0.4797
  259MOL0     H34126  -0.307   4.949   0.323 -1.1941 -3.2244  1.0037
  259MOL0     H34127  -0.507   4.835   0.370 -0.2307  1.3515 -0.1871
  259MOL0     H34128  -0.447   4.768   0.215  0.0923 -0.6279  0.8257
  259MOL0     H34129  -0.637   4.872   0.092 -1.9888  1.7552 -0.2969
  259MOL0     H34130  -0.661   4.985   0.227 -3.9234 -0.2185 -1.3883
  259MOL0     H34131  -0.704   4.675   0.252  0.4957 -0.5595 -1.6087
  259MOL0     H34132  -0.723   4.800   0.369 -0.9304  0.5342  0.5544
  259MOL0     H34133  -0.895   4.790   0.103 -1.1511 -3.1754  0.1241
  259MOL0     H34134  -0.924   4.897   0.246 -0.2096  0.3108 -1.2225
  259MOL0     H34135  -0.979   4.694   0.387 -1.0014  0.2058 -0.7974
  259MOL0     H34136  -0.939   4.589   0.255 -2.3116 -1.3826  0.5972
  259MOL0     H34137  -1.166   4.615   0.278 -3.8737 -0.8020 -2.9258
  259MOL0     H34138  -1.175   4.781   0.273 -1.9273 -1.7527 -0.1511
  259MOL0     H34139  -1.062   4.617   0.040  1.2440 -0.2949  2.0398
  259MOL0     H34140  -1.113   4.795   0.034 -3.6216  1.0848  0.4315
  259MOL0     H34141  -1.267   4.436   0.072 -2.2932 -0.7127  2.0992
  259MOL0     H34142  -1.553   4.387   0.089 -0.3942 -0.6845 -0.8788
  259MOL0     H34143  -1.502   4.353  -0.075  2.1414  0.7118 -0.7841
  259MOL0     H34144  -1.662   4.504  -0.169  4.2062 -0.5226  0.3106
  259MOL0     H34145  -1.717   4.566  -0.015 -0.2966 -0.0257  0.5667
  259MOL0     H34146  -1.789   4.297  -0.130 -2.1526 -0.6263  0.5026
  259MOL0     H34147  -1.791   4.335   0.044 -1.0517  1.0169  0.1542
  259MOL0     H34148  -1.937   4.529  -0.032  2.3737  0.1882 -0.1323
  259MOL0     H34149  -2.014   4.384  -0.047  0.5589 -0.9735 -0.1596
  259MOL0     H34150  -2.199   4.536  -0.175  4.8912  0.8037  1.5796
  259MOL0     H34151  -2.378   4.498  -0.311  0.3488  1.7072  0.0262
  259MOL0     H34152  -2.536   4.532  -0.725 -2.1928  2.0295 -1.0621
  259MOL0     H34153  -2.750   4.543  -0.866  2.7902 -0.1074 -1.1685
  259MOL0     H34154  -2.982   4.143  -0.877 -2.3561  0.5092 -0.2090
  259MOL0     H34155  -2.811   4.171  -0.908 -0.6343  0.4965  1.1771
  259MOL0     H34156  -2.894   4.264  -1.136 -1.9643  2.9035  1.7939
  259MOL0     H34157  -3.051   4.254  -1.082 -1.0963 -0.6192  0.0323
  259MOL0     H34158  -3.042   3.997  -1.084  0.1073 -1.5418  0.1119
  259MOL0     H34159  -2.867   4.004  -1.104  0.4606  1.4250  1.2984
  259MOL0     H34160  -2.950   4.172  -1.311  0.2749  0.7117 -1.2682
  259MOL0     H34161  -2.895   4.009  -1.318  0.4744  1.4964  0.7319
  259MOL0     H34162  -3.178   4.079  -1.298 -0.6652 -1.3397  1.3432
  259MOL0     H34163  -3.113   3.919  -1.295  2.1864 -1.0432 -0.0896
  259MOL0     H34164  -2.999   3.940  -1.509 -0.0191  0.5232  0.2761
  259MOL0     H34165  -3.046   4.111  -1.526 -0.6387 -0.3755 -1.6190
  259MOL0     H34166  -3.227   3.868  -1.503  2.9069  0.7979  2.4252
  259MOL0     H34167  -3.298   4.034  -1.520  2.5633  2.9694  1.8508
  259MOL0     H34168  -3.143   3.867  -1.725  0.9514  0.8997  1.1825
  259MOL0     H34169  -3.150   4.048  -1.740  2.5431 -1.2827 -0.4503
  259MOL0     H34170  -2.879   4.195  -0.669 -0.7851  0.3944 -1.5460
  259MOL0     H34171  -2.682   4.200  -0.511  1.8830  0.0012 -1.3557
  259MOL0     H34172  -2.109   4.297  -0.603  1.1809 -0.8243 -0.8410
  259MOL0     H34173  -1.923   4.369  -0.460  0.4890 -0.4606  0.6382
  259MOL0     H34174  -0.267   5.000  -0.126 -0.3307  1.3085 -1.0823
  259MOL0     H34175  -0.061   5.112  -0.208 -0.8774  0.3884  0.3465
  259MOL0     H34176   0.380   5.234  -0.145 -0.3338  0.2849  0.2827
  259MOL0     H34177   0.558   5.348  -0.238 -1.7068 -0.8017 -0.1471
  259MOL0     H34178   0.642   5.766  -0.116  0.0309  0.5468  0.5464
  259MOL0     H34179   0.603   5.807  -0.285 -0.0317  0.1153 -0.2052
  259MOL0     H34180   0.842   5.711  -0.344  0.4428  1.3722 -0.5797
  259MOL0     H34181   0.816   5.866  -0.275 -0.1869  0.4454  0.1091
  259MOL0     H34182   0.872   5.613  -0.119 -1.8693 -0.7442 -1.3126
  259MOL0     H34183   0.883   5.772  -0.051  0.6054 -1.5136 -0.2126
  259MOL0     H34184   1.071   5.710  -0.278 -0.9217  1.9154 -0.7737
  259MOL0     H34185   1.088   5.835  -0.158 -2.8428  2.2602  0.1131
  259MOL0     H34186   1.265   5.558   0.093 -1.0916  2.5636  2.6539
  259MOL0     H34187   0.425   5.736  -0.083  0.8365 -0.0359  0.4896
  259MOL0     H34188   0.238   5.620   0.007  0.3136 -0.3491  1.0907
  260MOL0     O34189   2.713   4.402   0.638  0.1658 -0.5919  0.2064
  260MOL0     C34190   2.708   4.285   0.610  0.4709  0.1439 -0.1670
  260MOL0     O34191   2.799   4.195   0.650 -0.1702 -0.1179 -0.2826
  260MOL0     C34192   2.923   4.234   0.699  0.0538 -0.2884  0.6410
  260MOL0     C34193   3.008   4.321   0.632 -0.2011 -0.3206  0.3529
  260MOL0     C34194   3.133   4.359   0.691  0.6520  0.2354 -0.0886
  260MOL0     C34195   3.162   4.304   0.816  0.5454  0.1036  0.0222
  260MOL0     O34196   3.277   4.325   0.886 -0.6528 -0.6365  0.8675
  260MOL0     C34197   3.398   4.371   0.818  0.4806 -0.2621  0.2134
  260MOL0     C34198   3.516   4.372   0.913 -0.6616  0.5294  0.0414
  260MOL0     C34199   3.515   4.497   1.007 -0.0970 -0.2674 -0.3751
  260MOL0     C34200   3.603   4.484   1.129  0.3775 -0.2301 -0.2525
  260MOL0     C34201   3.583   4.597   1.221 -0.1028 -0.8275  0.2343
  260MOL0     C34202   3.478   4.570   1.326 -0.5099  0.0569 -0.0356
  260MOL0     C34203   3.458   4.698   1.409  0.1871  0.1390 -0.5477
  260MOL0     C34204   3.376   4.665   1.530 -0.5869 -0.2476 -0.0499
  260MOL0     N34205   3.266   4.761   1.560  0.0249  0.6779 -0.2181
  260MOL0     C34206   3.279   4.877   1.629 -0.3812 -0.4603  0.0523
  260MOL0     C34207   3.150   4.919   1.658 -0.4914  0.0837 -0.1279
  260MOL0     C34208   3.125   5.054   1.729 -0.2880 -0.5817 -1.2671
  260MOL0     C34209   2.975   5.091   1.746 -0.0065 -0.6775  0.1740
  260MOL0     C34210   2.944   5.240   1.785 -0.7725 -0.1505  0.3352
  260MOL0     C34211   2.800   5.247   1.799  0.2886 -0.5848  0.3805
  260MOL0     O34212   2.755   5.380   1.824 -0.2479 -0.0570 -0.1837
  260MOL0     C34213   2.635   5.386   1.886  0.2801  0.8356 -0.6072
  260MOL0     C34214   2.521   5.343   1.829  0.4810  0.0278  0.6195
  260MOL0     C34215   2.403   5.349   1.906 -0.1634 -1.4838  1.1198
  260MOL0     C34216   2.404   5.420   2.034  0.5206  0.1533  0.1081
  260MOL0     C34217   2.279   5.410   2.113 -0.5335 -0.1580 -0.3033
  260MOL0     O34218   2.295   5.466   2.238  0.6284 -0.5453 -0.3852
  260MOL0     C34219   2.175   5.480   2.307 -0.5929 -0.2783 -0.8822
  260MOL0     C34220   2.135   5.615   2.339 -0.3250  0.4666 -0.4800
  260MOL0     C34221   2.025   5.632   2.428 -0.1388  0.1825 -0.4742
  260MOL0     C34222   1.949   5.534   2.469  0.1200 -0.4052  0.0954
  260MOL0     O34223   1.837   5.552   2.542  1.1012  0.3073 -0.4112
  260MOL0     C34224   1.796   5.680   2.590 -0.6813 -0.9253 -0.1887
  260MOL0     C34225   1.656   5.667   2.650 -0.3580  0.4797  0.7871
  260MOL0     C34226   1.659   5.574   2.775 -0.1381 -0.1553 -0.4481
  260MOL0     C34227   1.518   5.560   2.835 -0.9578  0.4665 -0.3995
  260MOL0     C34228   1.526   5.499   2.970 -0.0832  0.4638 -0.5214
  260MOL0     C34229   1.409   5.532   3.061  0.9951  0.4288 -0.2197
  260MOL0     C34230   1.431   5.470   3.206  0.0206  0.4313  0.7233
  260MOL0     C34231   1.317   5.478   3.303 -0.6451  0.5917  0.2090
  260MOL0    Cl34232   1.176   5.386   3.241  0.0766 -0.0158 -0.0074
  260MOL0     C34233   1.979   5.403   2.433 -0.4231  0.3801  0.9119
  260MOL0     C34234   2.093   5.374   2.355 -0.4348  0.4868  0.5644
  260MOL0     O34235   2.174   5.374   2.060  0.6755  0.1634 -0.0672
  260MOL0     C34236   2.521   5.466   2.088 -0.0003 -0.2648  0.4063
  260MOL0     C34237   2.638   5.446   2.007  0.1814  0.5296 -0.6892
  260MOL0     N34238   3.059   4.826   1.610  0.2299 -0.7498 -0.5746
  260MOL0     N34239   3.130   4.743   1.544 -0.4527  0.3240 -0.1357
  260MOL0     C34240   3.080   4.206   0.876 -0.0718  0.0539  0.3671
  260MOL0     C34241   2.960   4.167   0.817 -0.9602 -0.1203  0.1559
  260MOL0     C34242   2.586   4.232   0.540 -0.6342 -1.0070  0.7315
  260MOL0     C34243   2.488   4.317   0.484 -0.0656  0.1279 -1.0888
  260MOL0     C34244   2.374   4.267   0.407  0.5215 -0.2546 -0.3410
  260MOL0     C34245   2.351   4.134   0.401 -0.4572 -0.9569 -0.9394
  260MOL0     O34246   2.233   4.093   0.344 -0.0679 -0.1739 -0.4135
  260MOL0     C34247   2.229   4.106   0.200 -0.1357 -0.3585  0.1091
  260MOL0     C34248   2.091   4.078   0.138 -0.1290 -0.0977 -0.7412
  260MOL0     C34249   2.060   3.925   0.141 -0.4611 -0.1938 -0.9887
  260MOL0     C34250   1.994   3.865   0.019 -0.9178  0.2468 -0.5603
  260MOL0     C34251   2.094   3.869  -0.092 -0.2349  0.7113 -0.1149
  260MOL0     C34252   2.162   3.866  -0.189  1.2218  0.4160  0.6904
  260MOL0     C34253   2.448   4.048   0.451 -0.6365 -0.1717  0.8516
  260MOL0     C34254   2.566   4.092   0.519 -0.0782  1.3649 -0.1018
  260MOL0     H34255   2.979   4.358   0.534  2.4999  1.1392  0.0047
  260MOL0     H34256   3.206   4.419   0.637 -0.6565  0.9477 -1.1325
  260MOL0     H34257   3.378   4.470   0.776 -2.2712 -1.9135 -2.8851
  260MOL0     H34258   3.429   4.301   0.740  0.6510 -1.3533  1.2328
  260MOL0     H34259   3.609   4.374   0.855 -0.8122  1.7259 -0.1870
  260MOL0     H34260   3.508   4.280   0.971  1.8360  1.0579  1.3778
  260MOL0     H34261   3.417   4.524   1.047  0.8033  3.6719 -0.3723
  260MOL0     H34262   3.548   4.591   0.961 -1.2722  1.0550  1.3567
  260MOL0     H34263   3.585   4.389   1.179 -0.5336 -1.1675 -2.2461
  260MOL0     H34264   3.702   4.487   1.082 -0.1915 -0.7666 -1.5430
  260MOL0     H34265   3.549   4.685   1.166  0.6563 -0.2404  0.6773
  260MOL0     H34266   3.682   4.621   1.262  0.0911 -2.1507  0.5782
  260MOL0     H34267   3.527   4.493   1.387  0.9175  1.0601  0.1442
  260MOL0     H34268   3.386   4.528   1.285 -0.6406 -1.9132  2.0683
  260MOL0     H34269   3.560   4.730   1.434 -0.3939  1.4485  0.2587
  260MOL0     H34270   3.424   4.777   1.342  2.8344  2.0932  0.2375
  260MOL0     H34271   3.428   4.627   1.618 -0.5662 -0.1608 -0.0236
  260MOL0     H34272   3.322   4.573   1.506  0.1975 -0.5757 -0.5840
  260MOL0     H34273   3.368   4.938   1.643 -0.5772 -0.0482 -0.4404
  260MOL0     H34274   3.179   5.133   1.676  2.7161  0.1356  2.4642
  260MOL0     H34275   3.165   5.055   1.830 -0.4850 -1.9946 -1.1487
  260MOL0     H34276   2.929   5.019   1.815 -0.8696 -0.1892  0.1284
  260MOL0     H34277   2.929   5.073   1.649  1.2896  3.0652 -1.3278
  260MOL0     H34278   2.982   5.266   1.884 -2.5500  1.7900  0.5719
  260MOL0     H34279   2.963   5.316   1.709 -1.4108  1.6578  1.9085
  260MOL0     H34280   2.769   5.190   1.887 -0.8997 -1.2902 -0.4671
  260MOL0     H34281   2.757   5.216   1.704  3.4159 -0.6912 -1.1410
  260MOL0     H34282   2.510   5.302   1.730  3.0924  1.6346 -0.4518
  260MOL0     H34283   2.313   5.303   1.868 -1.1885  0.5092  0.9919
  260MOL0     H34284   2.195   5.695   2.296  1.1392 -0.2829  0.1018
  260MOL0     H34285   1.996   5.736   2.444  0.6758  0.1126  1.8731
  260MOL0     H34286   1.794   5.766   2.523 -0.7604 -2.3483 -2.1044
  260MOL0     H34287   1.873   5.705   2.664 -0.9130 -0.7393 -0.0077
  260MOL0     H34288   1.593   5.620   2.574 -2.4792  1.3681  1.8881
  260MOL0     H34289   1.620   5.768   2.673 -1.1767  0.2863  0.3827
  260MOL0     H34290   1.722   5.617   2.853 -0.6079 -2.2016  1.1593
  260MOL0     H34291   1.701   5.476   2.753 -0.0156 -0.8273  2.3467
  260MOL0     H34292   1.457   5.651   2.833  1.1006  1.9127 -1.8513
  260MOL0     H34293   1.451   5.499   2.774 -0.4777  1.7905 -2.3575
  260MOL0     H34294   1.617   5.541   3.013  0.5108 -0.7663 -0.5333
  260MOL0     H34295   1.531   5.393   2.943 -2.5774  0.4194 -1.0801
  260MOL0     H34296   1.313   5.504   3.016  1.9309 -0.9496 -1.4578
  260MOL0     H34297   1.399   5.639   3.082 -3.0132 -0.0684  1.3419
  260MOL0     H34298   1.443   5.363   3.185  0.2176  0.9664 -2.4315
  260MOL0     H34299   1.520   5.516   3.250  0.9179 -1.2864  0.8027
  260MOL0     H34300   1.292   5.582   3.326  1.4954  1.0117  0.9121
  260MOL0     H34301   1.359   5.426   3.390 -2.6348 -2.7930 -0.6804
  260MOL0     H34302   1.910   5.322   2.455 -1.1229  1.0283  1.1644
  260MOL0     H34303   2.106   5.269   2.329  2.2391  0.7280  0.6805
  260MOL0     H34304   2.517   5.516   2.184  1.5246 -1.5407  1.1882
  260MOL0     H34305   2.729   5.467   2.062 -1.5489  0.0620  2.6302
  260MOL0     H34306   3.125   4.158   0.963 -2.0740  1.1014  2.0802
  260MOL0     H34307   2.892   4.093   0.859  0.4293 -1.3123  0.3749
  260MOL0     H34308   2.507   4.423   0.499 -0.3341  0.0351 -0.0284
  260MOL0     H34309   2.311   4.346   0.367  1.0321 -0.4406 -1.5707
  260MOL0     H34310   2.304   4.044   0.151 -0.3326 -0.9644  0.5504
  260MOL0     H34311   2.244   4.212   0.177 -3.3493  0.2553  0.3420
  260MOL0     H34312   2.016   4.134   0.195 -1.6177 -1.4609 -1.2792
  260MOL0     H34313   2.087   4.111   0.034 -1.1990 -2.6534 -1.5729
  260MOL0     H34314   1.983   3.921   0.218  1.2876 -2.9073  0.7838
  260MOL0     H34315   2.145   3.865   0.176 -0.5750 -1.0049 -2.0362
  260MOL0     H34316   1.953   3.768   0.050 -1.2327  0.7186  0.5583
  260MOL0     H34317   1.907   3.919  -0.018 -1.2539 -1.5897 -2.6488
  260MOL0     H34318   2.228   3.854  -0.272  1.5704 -1.8541  1.2275
  260MOL0     H34319   2.428   3.941   0.446  0.5804 -0.3859  0.1764
  260MOL0     H34320   2.637   4.022   0.561 -1.2253 -2.0893 -3.3309
  261MOL0     O34321   1.114   9.451  10.415 -0.4485  0.3715  0.2918
  261MOL0     C34322   1.138   9.522  10.313  0.2313  0.2903 -0.7034
  261MOL0     O34323   1.254   9.578  10.286  0.3466 -0.1616 -0.3753
  261MOL0     C34324   1.369   9.544  10.347  0.5041 -0.2800  1.2305
  261MOL0     C34325   1.469   9.461  10.300 -0.1007  0.5352  0.3741
  261MOL0     C34326   1.582   9.423  10.376 -0.0609 -0.4972  0.0620
  261MOL0     C34327   1.591   9.463  10.511  0.4441 -0.1318  0.3482
  261MOL0     O34328   1.689   9.439  10.601 -0.0463  0.6841  0.0804
  261MOL0     C34329   1.798   9.357  10.568 -0.3669 -0.6179  0.7525
  261MOL0     C34330   1.901   9.366  10.691 -1.0026  0.4714  0.6710
  261MOL0     C34331   2.031   9.292  10.650  0.2307  0.3778  0.0378
  261MOL0     C34332   2.139   9.350  10.744  0.1933 -0.5980 -0.6562
  261MOL0     C34333   2.286   9.297  10.718  0.5017  0.6627  0.1370
  261MOL0     C34334   2.388   9.347  10.817 -0.6124 -0.0756  0.0950
  261MOL0     C34335   2.531   9.317  10.773 -0.3143  0.5767 -0.7191
  261MOL0     C34336   2.584   9.181  10.817  0.4630  0.8201  0.2725
  261MOL0     N34337   2.733   9.160  10.823  0.3950  0.3017  0.1896
  261MOL0     C34338   2.816   9.143  10.713 -0.1020 -0.2656 -0.3818
  261MOL0     C34339   2.930   9.098  10.774 -0.2611  0.8712 -0.2207
  261MOL0     C34340   3.054   9.053  10.715 -0.8993 -0.3559  0.8368
  261MOL0     C34341   3.130   9.136  10.607  0.4634 -0.2539 -0.4068
  261MOL0     C34342   3.201   9.262  10.663  0.1614  0.1828  0.3360
  261MOL0     C34343   3.099   9.374  10.696  0.5531 -0.1811 -0.7063
  261MOL0     O34344   3.017   9.420  10.586 -0.1480 -0.2654  0.2894
  261MOL0     C34345   2.893   9.479  10.610  0.1917  0.0690  0.0937
  261MOL0     C34346   2.808   9.503  10.499  0.2868  0.9052 -1.0895
  261MOL0     C34347   2.686   9.566  10.513  0.5179  0.3399  1.4069
  261MOL0     C34348   2.645   9.616  10.638 -0.1749  0.5364  0.2312
  261MOL0     C34349   2.516   9.687  10.651 -0.0423  0.2189  0.1450
  261MOL0     O34350   2.499   9.763  10.767 -0.3232  0.2065 -0.9979
  261MOL0     C34351   2.383   9.811  10.813  0.5976 -0.2820 -0.2665
  261MOL0     C34352   2.386   9.911  10.914 -0.0954 -0.2678  0.8329
  261MOL0     C34353   2.275   9.962  10.978 -0.3761 -0.0404 -0.2994
  261MOL0     C34354   2.146   9.908  10.953 -1.8020 -0.5302 -0.0324
  261MOL0     O34355   2.033   9.934  11.029 -0.5933  0.1391 -0.1258
  261MOL0     C34356   2.010  10.070  11.068 -0.5143 -0.8546  0.1358
  261MOL0     C34357   1.861  10.095  11.077 -0.5390 -0.7296  0.2656
  261MOL0     C34358   1.802  10.006  11.180 -0.5988  0.4321  0.5243
  261MOL0     C34359   1.646  10.024  11.178  0.0487 -0.5682 -0.0400
  261MOL0     C34360   1.594  10.150  11.242 -0.2716  0.0128 -0.2504
  261MOL0     C34361   1.447  10.190  11.246  0.0658 -0.5889  0.2673
  261MOL0     C34362   1.372  10.093  11.340  0.4978  0.7140  0.2927
  261MOL0     C34363   1.217  10.099  11.341 -0.1718 -1.1593 -0.6794
  261MOL0    Cl34364   1.152  10.274  11.360  0.0103  0.6823 -0.0377
  261MOL0     C34365   2.143   9.813  10.851 -0.7256  1.3855 -0.0805
  261MOL0     C34366   2.253   9.768  10.776 -0.5498  0.0588 -0.5662
  261MOL0     O34367   2.444   9.675  10.557  0.4087  0.4782  0.0353
  261MOL0     C34368   2.741   9.617  10.745 -0.1526 -1.0883 -0.3902
  261MOL0     C34369   2.862   9.557  10.725 -0.3859  0.2110 -0.7113
  261MOL0     N34370   2.912   9.114  10.911  1.4582  0.2923  0.1305
  261MOL0     N34371   2.793   9.154  10.941 -0.1232 -0.3589  0.5174
  261MOL0     C34372   1.480   9.537  10.558 -0.0260 -0.3414  0.6934
  261MOL0     C34373   1.378   9.587  10.477  0.9245  0.9857 -0.5811
  261MOL0     C34374   1.017   9.569  10.243 -0.5431 -0.0789 -0.3225
  261MOL0     C34375   0.892   9.535  10.286  0.3442 -0.3725  0.6681
  261MOL0     C34376   0.777   9.577  10.228  0.4233 -0.5869  0.1149
  261MOL0     C34377   0.784   9.668  10.122 -0.2215  0.9950 -0.2124
  261MOL0     O34378   0.664   9.711  10.079 -0.4214  0.2982 -0.0748
  261MOL0     C34379   0.647   9.726   9.941  1.0656  0.6226  0.2159
  261MOL0     C34380   0.662   9.601   9.846 -0.0609  0.2842  0.3645
  261MOL0     C34381   0.550   9.497   9.876 -0.5119  0.3519  0.7886
  261MOL0     C34382   0.568   9.373   9.796 -0.2809  0.0728  0.5019
  261MOL0     C34383   0.449   9.286   9.821  0.0769  0.4349 -0.6663
  261MOL0     C34384   0.360   9.212   9.820  0.1914 -0.1764 -0.1836
  261MOL0     C34385   0.912   9.700  10.066 -0.0447  0.6292 -1.0507
  261MOL0     C34386   1.029   9.655  10.131 -0.6082  0.4162 -1.2799
  261MOL0     H34387   1.464   9.410  10.204  4.5111  0.4960 -0.0695
  261MOL0     H34388   1.658   9.359  10.332  0.7099 -0.4602  1.3115
  261MOL0     H34389   1.839   9.391  10.473 -0.0297  2.0461  1.7844
  261MOL0     H34390   1.771   9.252  10.554 -0.4895 -0.5695  0.6343
  261MOL0     H34391   1.861   9.317  10.780  1.6666 -0.4394  1.4521
  261MOL0     H34392   1.919   9.470  10.719 -0.1049  0.8156 -1.0190
  261MOL0     H34393   2.068   9.313  10.549  2.2396  1.7568  0.9886
  261MOL0     H34394   2.023   9.183  10.661 -2.7435  0.5059 -0.0655
  261MOL0     H34395   2.137   9.458  10.725  1.6141 -0.3996  0.1492
  261MOL0     H34396   2.116   9.325  10.848  1.2843  0.5754 -0.0977
  261MOL0     H34397   2.314   9.305  10.613 -1.2333 -0.3990 -0.4493
  261MOL0     H34398   2.280   9.188  10.724 -0.3978  0.7718  2.8731
  261MOL0     H34399   2.367   9.314  10.919  1.2408 -2.4383 -0.1975
  261MOL0     H34400   2.371   9.455  10.815 -3.3193 -0.3981  0.9867
  261MOL0     H34401   2.544   9.341  10.667 -0.5291  0.3809 -0.7900
  261MOL0     H34402   2.591   9.391  10.827  1.9692 -3.3474  2.7231
  261MOL0     H34403   2.534   9.106  10.754 -0.5498  1.9114 -0.2616
  261MOL0     H34404   2.540   9.158  10.914  0.5394  0.5362  0.2408
  261MOL0     H34405   2.780   9.148  10.611 -0.2742  0.5179 -0.2878
  261MOL0     H34406   3.037   8.963  10.655  2.3217  1.5440 -3.5137
  261MOL0     H34407   3.126   9.025  10.793  0.0487 -0.3590 -0.0101
  261MOL0     H34408   3.057   9.169  10.532  2.0979  0.1088 -1.9150
  261MOL0     H34409   3.200   9.081  10.544 -0.4715 -0.2119 -1.5009
  261MOL0     H34410   3.254   9.236  10.755  1.9140  3.0945  0.2751
  261MOL0     H34411   3.278   9.283  10.588 -0.5850  2.6205  0.1676
  261MOL0     H34412   3.153   9.463  10.732  1.1454 -0.6956 -0.3066
  261MOL0     H34413   3.045   9.332  10.782  3.7725 -0.4170  1.3609
  261MOL0     H34414   2.838   9.468  10.401 -0.6583 -0.6663 -0.8517
  261MOL0     H34415   2.623   9.553  10.426  1.3073 -0.0770  0.8823
  261MOL0     H34416   2.480   9.961  10.933  0.4497  0.6105 -3.2499
  261MOL0     H34417   2.283  10.039  11.055  1.6189 -1.4262  0.9538
  261MOL0     H34418   2.043  10.145  10.995 -0.4257 -0.0200  1.0221
  261MOL0     H34419   2.064  10.111  11.154 -0.9217 -0.3824  0.1730
  261MOL0     H34420   1.824  10.079  10.975  0.3154  2.0656 -0.5846
  261MOL0     H34421   1.846  10.202  11.093 -0.9128 -0.2358 -2.7169
  261MOL0     H34422   1.834  10.031  11.282 -2.2354 -3.9044  2.3045
  261MOL0     H34423   1.828   9.901  11.165  2.1329  0.7919  2.0861
  261MOL0     H34424   1.607  10.003  11.078 -2.0145  0.1137  0.5785
  261MOL0     H34425   1.608   9.942  11.239  0.4598  1.1304  2.6724
  261MOL0     H34426   1.642  10.221  11.174 -4.0930  1.3794 -1.7320
  261MOL0     H34427   1.638  10.157  11.342 -0.9375 -0.1060  0.0513
  261MOL0     H34428   1.409  10.191  11.143  1.1947  1.5468 -0.1858
  261MOL0     H34429   1.455  10.294  11.279  1.9037  0.5216 -3.1705
  261MOL0     H34430   1.399   9.990  11.315 -0.5941  0.2034  1.1157
  261MOL0     H34431   1.405  10.105  11.444  2.4823 -3.0834  0.2968
  261MOL0     H34432   1.196  10.047  11.435  1.5864 -0.9643 -0.1459
  261MOL0     H34433   1.172  10.060  11.250 -3.7298  3.0276 -1.0619
  261MOL0     H34434   2.049   9.767  10.823 -1.5590  2.2098  1.2855
  261MOL0     H34435   2.228   9.705  10.691 -2.0271  2.7308 -2.2605
  261MOL0     H34436   2.716   9.679  10.830 -2.0411 -0.8856 -1.0416
  261MOL0     H34437   2.927   9.551  10.811 -3.1863 -1.8786  1.4413
  261MOL0     H34438   1.474   9.565  10.663 -1.2990 -0.3580  0.6291
  261MOL0     H34439   1.315   9.656  10.533  2.3093  1.3048  0.6669
  261MOL0     H34440   0.876   9.466  10.369 -1.3957 -0.1009  0.6048
  261MOL0     H34441   0.679   9.552  10.268 -2.3721  2.5305 -3.9135
  261MOL0     H34442   0.716   9.805   9.911  0.7743  1.1291  0.8606
  261MOL0     H34443   0.541   9.753   9.933  1.2692  1.5544  0.5493
  261MOL0     H34444   0.654   9.630   9.741 -0.3838  2.7631  1.0151
  261MOL0     H34445   0.756   9.548   9.865 -0.2610  0.6706  2.6635
  261MOL0     H34446   0.449   9.535   9.860 -1.1452 -1.6673 -0.5113
  261MOL0     H34447   0.546   9.476   9.983  2.3443  2.3034  1.3744
  261MOL0     H34448   0.575   9.397   9.690  0.1614  1.1923  0.7721
  261MOL0     H34449   0.654   9.315   9.829  0.6141  0.3916 -1.1939
  261MOL0     H34450   0.279   9.142   9.831  0.8743 -0.8546  0.7247
  261MOL0     H34451   0.923   9.762   9.978  2.5675  0.0442 -1.2301
  261MOL0     H34452   1.128   9.683  10.096 -0.3999  1.8063  0.2763
  262MOL0     O34453   8.007   9.383   4.931  0.3884  0.2045  0.0071
  262MOL0     C34454   8.100   9.385   5.016  0.0747 -0.2734 -0.0999
  262MOL0     O34455   8.093   9.339   5.144 -0.0841  0.5133 -0.1566
  262MOL0     C34456   7.984   9.288   5.205 -0.2064 -0.3294 -1.4401
  262MOL0     C34457   7.864   9.240   5.143 -0.1817 -0.3817  0.5582
  262MOL0     C34458   7.767   9.176   5.215  0.3704 -1.6652  0.3052
  262MOL0     C34459   7.784   9.157   5.351 -0.4461 -0.0547  0.2515
  262MOL0     O34460   7.695   9.121   5.441  0.0275 -0.1403  0.0107
  262MOL0     C34461   7.567   9.187   5.434  0.4305 -0.2613  0.2109
  262MOL0     C34462   7.497   9.136   5.562  0.1031  0.3250 -0.4156
  262MOL0     C34463   7.405   9.246   5.628 -0.4072  1.1737 -0.2219
  262MOL0     C34464   7.309   9.167   5.722 -0.5439  0.3989  0.6819
  262MOL0     C34465   7.172   9.142   5.658 -0.0200 -0.0590 -0.7796
  262MOL0     C34466   7.097   9.031   5.725 -0.5166 -0.3800  0.0132
  262MOL0     C34467   6.953   9.035   5.678 -0.0369  1.1113  0.2416
  262MOL0     C34468   6.862   8.958   5.781  0.1254  0.5477 -0.3329
  262MOL0     N34469   6.724   8.980   5.744  0.3106  0.1299  0.5090
  262MOL0     C34470   6.661   8.935   5.631 -0.7307  0.2154 -0.2507
  262MOL0     C34471   6.528   8.959   5.650  0.5899 -0.3558 -0.4091
  262MOL0     C34472   6.414   8.916   5.555 -0.4414 -0.1820 -0.3922
  262MOL0     C34473   6.319   9.032   5.507 -0.4334 -0.1471 -0.0318
  262MOL0     C34474   6.384   9.115   5.397  0.3994  0.9722 -0.5613
  262MOL0     C34475   6.281   9.177   5.307  1.0282 -0.0566 -0.6163
  262MOL0     O34476   6.175   9.233   5.396 -0.3030  0.1623  0.1186
  262MOL0     C34477   6.040   9.231   5.358 -0.4824  0.9093 -0.0397
  262MOL0     C34478   5.988   9.156   5.255 -0.0655  0.4320 -0.0894
  262MOL0     C34479   5.854   9.162   5.224 -0.0865 -0.0903  0.2601
  262MOL0     C34480   5.761   9.225   5.298 -0.3895 -0.4024  0.2557
  262MOL0     C34481   5.617   9.214   5.264  0.7235  0.2918 -0.0934
  262MOL0     O34482   5.588   9.146   5.142  0.3987 -0.2869 -0.1852
  262MOL0     C34483   5.461   9.156   5.085  0.3465  0.0810 -0.3526
  262MOL0     C34484   5.376   9.042   5.080  0.7513 -0.8676 -0.0284
  262MOL0     C34485   5.248   9.064   5.031  0.0151  0.8591 -0.7594
  262MOL0     C34486   5.198   9.184   4.985  0.0939  0.0985  0.1972
  262MOL0     O34487   5.072   9.207   4.936 -0.0271  0.1492  0.3053
  262MOL0     C34488   4.992   9.094   4.911 -0.5798  0.1517  0.4292
  262MOL0     C34489   4.853   9.153   4.879  0.0897  0.3567 -0.5463
  262MOL0     C34490   4.764   9.048   4.808  1.0605 -0.1991  0.5089
  262MOL0     C34491   4.627   9.097   4.788 -0.4327 -0.5342  0.0995
  262MOL0     C34492   4.562   9.014   4.685 -0.4200 -0.1389 -0.3408
  262MOL0     C34493   4.403   9.008   4.689 -0.5859 -0.0914  0.6250
  262MOL0     C34494   4.357   8.933   4.567 -0.3853  0.8225  1.3045
  262MOL0     C34495   4.209   8.960   4.534 -0.2376  1.0525 -1.1440
  262MOL0    Cl34496   4.084   8.883   4.643  0.4949  0.3833  0.0211
  262MOL0     C34497   5.288   9.287   4.983 -0.5776 -0.5040  0.5020
  262MOL0     C34498   5.418   9.270   5.028 -0.3923  0.4195  0.5121
  262MOL0     O34499   5.525   9.260   5.341 -0.6231 -0.4759  0.3596
  262MOL0     C34500   5.812   9.300   5.410 -0.6368 -0.6664 -0.7700
  262MOL0     C34501   5.953   9.303   5.439 -0.2111 -0.0325 -0.0697
  262MOL0     N34502   6.516   9.024   5.770  1.0949  0.0363 -0.3131
  262MOL0     N34503   6.632   9.036   5.823 -0.2135 -0.0771  0.5394
  262MOL0     C34504   7.888   9.218   5.417 -0.0286  0.6675  0.5828
  262MOL0     C34505   7.994   9.274   5.347 -0.1885  0.9373  0.1799
  262MOL0     C34506   8.222   9.450   4.966 -0.0384 -0.0687  0.6965
  262MOL0     C34507   8.335   9.456   5.048 -0.2650 -0.4415 -0.3777
  262MOL0     C34508   8.451   9.521   4.998 -0.5988 -0.6478 -0.5708
  262MOL0     C34509   8.466   9.570   4.870  0.0176  0.3537  1.0762
  262MOL0     O34510   8.581   9.636   4.837 -0.2734  0.0217 -0.2746
  262MOL0     C34511   8.599   9.675   4.701  0.4976 -0.2260 -0.7299
  262MOL0     C34512   8.730   9.744   4.684 -0.2996 -1.2417  0.3409
  262MOL0     C34513   8.845   9.652   4.715  0.1780  0.3444 -0.4911
  262MOL0     C34514   8.966   9.725   4.686 -0.1722 -0.8124 -0.2536
  262MOL0     C34515   9.080   9.639   4.696 -0.1473 -0.5178  0.7730
  262MOL0     C34516   9.178   9.564   4.694  0.0249 -0.2762 -0.8500
  262MOL0     C34517   8.354   9.554   4.784  0.4243 -0.4373 -0.3996
  262MOL0     C34518   8.239   9.499   4.830 -0.2026  0.2100  0.0762
  262MOL0     H34519   7.853   9.256   5.036 -3.0531 -0.1796  0.7850
  262MOL0     H34520   7.674   9.135   5.178  0.0230  0.7254 -1.6757
  262MOL0     H34521   7.512   9.161   5.343  0.3282  0.2902  0.1093
  262MOL0     H34522   7.570   9.297   5.434 -2.7421 -0.0622 -1.3288
  262MOL0     H34523   7.568   9.102   5.638  0.0751 -1.5989 -1.1789
  262MOL0     H34524   7.439   9.045   5.539  1.5541 -0.6934 -0.1894
  262MOL0     H34525   7.354   9.309   5.555 -1.5371  2.1470  1.3456
  262MOL0     H34526   7.461   9.312   5.696  0.0948  0.2175  0.3223
  262MOL0     H34527   7.337   9.063   5.739 -2.2514  0.0295  1.3933
  262MOL0     H34528   7.288   9.214   5.818  1.3400 -2.0988  2.4694
  262MOL0     H34529   7.183   9.124   5.550 -0.8794  0.1008 -0.9039
  262MOL0     H34530   7.109   9.231   5.670 -0.9281 -0.7533 -0.2650
  262MOL0     H34531   7.113   9.041   5.832  1.2348 -0.8349 -0.1721
  262MOL0     H34532   7.145   8.934   5.709  1.6682 -0.0139  3.4446
  262MOL0     H34533   6.924   9.140   5.674 -1.2129  0.7616 -1.9168
  262MOL0     H34534   6.950   8.993   5.577  2.1602  2.1626 -0.3423
  262MOL0     H34535   6.878   8.991   5.885 -1.6849 -0.5726  0.3366
  262MOL0     H34536   6.876   8.850   5.770  2.4438  0.7323  0.1991
  262MOL0     H34537   6.709   8.876   5.553  1.5056  0.5120  0.8318
  262MOL0     H34538   6.360   8.840   5.612 -0.1845  1.0154  1.5387
  262MOL0     H34539   6.462   8.864   5.472 -0.9622 -4.9624  1.9589
  262MOL0     H34540   6.303   9.099   5.592  1.1017  0.4340 -0.1732
  262MOL0     H34541   6.228   8.980   5.476  0.3918  0.5770 -4.1415
  262MOL0     H34542   6.442   9.194   5.447  1.2925 -0.4279  0.6943
  262MOL0     H34543   6.453   9.054   5.338  0.6830 -0.9252  1.5702
  262MOL0     H34544   6.243   9.097   5.242 -2.9320  2.0661 -1.2375
  262MOL0     H34545   6.336   9.254   5.253 -1.3460  0.6949 -2.1285
  262MOL0     H34546   6.048   9.094   5.188  0.2126  0.1802  0.3839
  262MOL0     H34547   5.833   9.102   5.136  0.2342  0.4347 -0.1755
  262MOL0     H34548   5.409   8.950   5.127 -1.0964 -0.9530  1.2128
  262MOL0     H34549   5.178   8.983   5.047 -0.1212  1.3134  1.1982
  262MOL0     H34550   4.989   9.029   4.999  0.1196  2.9009  2.6226
  262MOL0     H34551   5.041   9.041   4.829 -0.8397  1.9759 -0.9596
  262MOL0     H34552   4.852   9.240   4.812 -2.0715 -1.5944 -3.2897
  262MOL0     H34553   4.803   9.185   4.971  0.0149  0.8272 -0.7430
  262MOL0     H34554   4.762   8.952   4.859  1.6331 -0.0066  0.9126
  262MOL0     H34555   4.800   9.033   4.705 -1.0001 -2.4156  0.0346
  262MOL0     H34556   4.574   9.092   4.884 -0.2096  1.1290  0.3456
  262MOL0     H34557   4.622   9.199   4.747  1.6528 -1.2606 -2.1932
  262MOL0     H34558   4.593   8.909   4.690  0.2946 -0.0212 -1.8642
  262MOL0     H34559   4.600   9.049   4.589 -0.0723  1.9707  0.5011
  262MOL0     H34560   4.365   9.110   4.674  1.3356  0.4595 -0.9822
  262MOL0     H34561   4.375   8.962   4.784  0.3977 -0.7984  0.5899
  262MOL0     H34562   4.413   8.958   4.477 -1.4270 -4.8095 -1.3037
  262MOL0     H34563   4.380   8.827   4.577  0.5340  0.9299  0.5361
  262MOL0     H34564   4.186   8.911   4.439  2.0181 -0.8179 -0.8132
  262MOL0     H34565   4.204   9.069   4.521  1.0928  1.3612  0.5890
  262MOL0     H34566   5.269   9.386   4.943  1.9490  0.6500  1.8805
  262MOL0     H34567   5.496   9.345   5.010 -0.3736 -0.1424 -2.2668
  262MOL0     H34568   5.741   9.357   5.469  0.2240 -1.1575  0.7956
  262MOL0     H34569   5.988   9.362   5.522 -0.6306  0.7575 -0.4407
  262MOL0     H34570   7.899   9.205   5.524  0.6341  0.4917  0.4980
  262MOL0     H34571   8.078   9.306   5.409  0.8716  0.1975 -0.8303
  262MOL0     H34572   8.329   9.430   5.153  0.0650  2.4552  0.4467
  262MOL0     H34573   8.534   9.540   5.066  0.5887 -0.7074 -1.9577
  262MOL0     H34574   8.517   9.739   4.666  1.0369  1.1843  0.5157
  262MOL0     H34575   8.598   9.586   4.637  1.3931 -0.0144 -1.0504
  262MOL0     H34576   8.737   9.760   4.576  2.0876 -0.3318  0.5742
  262MOL0     H34577   8.748   9.833   4.745 -0.2095 -1.1052  0.1150
  262MOL0     H34578   8.848   9.564   4.650  2.9702  0.7245 -0.9901
  262MOL0     H34579   8.845   9.626   4.821  2.5333  1.4106 -0.1655
  262MOL0     H34580   8.965   9.783   4.593  1.3704  0.7185  0.6261
  262MOL0     H34581   8.981   9.805   4.758 -0.8565  2.3496 -3.3487
  262MOL0     H34582   9.264   9.499   4.698 -1.0910 -1.7652  1.1122
  262MOL0     H34583   8.365   9.599   4.686 -1.8209  2.2155  0.3992
  262MOL0     H34584   8.152   9.504   4.766 -1.4040 -2.3338  1.3637
  263MOL0     O34585   7.909   7.745   0.457  0.6986 -0.2484 -0.2471
  263MOL0     C34586   7.955   7.633   0.455 -0.2363 -0.3584  0.2702
  263MOL0     O34587   7.913   7.525   0.526  0.6496 -0.0166  0.0992
  263MOL0     C34588   7.777   7.516   0.562  0.0166  0.0349  0.0300
  263MOL0     C34589   7.697   7.416   0.509  0.5303 -0.1297  0.3818
  263MOL0     C34590   7.566   7.400   0.546 -0.1461  0.1193 -0.0675
  263MOL0     C34591   7.510   7.490   0.638 -1.1258  0.4335 -0.8981
  263MOL0     O34592   7.379   7.467   0.684  0.6455 -0.0083  1.1294
  263MOL0     C34593   7.325   7.564   0.784 -0.0535 -0.6596 -0.4676
  263MOL0     C34594   7.177   7.516   0.812  0.2403 -0.0595 -0.1490
  263MOL0     C34595   7.086   7.526   0.696  0.3434 -0.1257 -0.0519
  263MOL0     C34596   6.940   7.467   0.729 -0.3183 -0.0885 -0.5667
  263MOL0     C34597   6.842   7.471   0.610 -0.2345 -0.3290  0.3870
  263MOL0     C34598   6.704   7.442   0.642 -0.0991 -0.7334 -0.2822
  263MOL0     C34599   6.626   7.553   0.728 -0.4551  0.0501  0.2429
  263MOL0     C34600   6.485   7.526   0.761  0.2764 -0.6506  0.1328
  263MOL0     N34601   6.419   7.634   0.839 -0.3353 -0.1277  0.1524
  263MOL0     C34602   6.397   7.639   0.975 -0.5759  0.4217  0.3976
  263MOL0     C34603   6.367   7.773   0.993  0.2340 -0.9162  0.4393
  263MOL0     C34604   6.338   7.843   1.127  0.6251  0.3143  0.2278
  263MOL0     C34605   6.204   7.912   1.125 -0.8451  0.6673  0.5596
  263MOL0     C34606   6.085   7.825   1.071  0.9059  0.3196  0.5099
  263MOL0     C34607   5.949   7.896   1.072  0.1579 -0.7348 -0.4011
  263MOL0     O34608   5.917   7.931   1.206 -0.4524  0.1392  0.1905
  263MOL0     C34609   5.789   7.965   1.237  0.4864  0.3590 -0.7084
  263MOL0     C34610   5.689   7.984   1.139  0.1323 -0.1384 -1.0124
  263MOL0     C34611   5.556   8.008   1.176 -0.6820 -0.0985  0.7759
  263MOL0     C34612   5.522   8.003   1.314  0.1184  0.5683  0.4205
  263MOL0     C34613   5.372   8.008   1.357 -0.0528 -0.7191 -0.5510
  263MOL0     O34614   5.281   8.026   1.260  0.5344  0.1257 -0.5054
  263MOL0     C34615   5.148   8.036   1.306 -0.1359  0.2232  0.4739
  263MOL0     C34616   5.103   8.156   1.361 -0.3671  0.0241  0.2471
  263MOL0     C34617   4.967   8.200   1.361  0.4034 -0.5202 -0.1149
  263MOL0     C34618   4.873   8.105   1.313  0.0711 -0.1569  0.2689
  263MOL0     O34619   4.743   8.129   1.303 -0.0800 -0.5905 -0.0782
  263MOL0     C34620   4.682   8.178   1.425 -0.1822  1.0694 -0.4102
  263MOL0     C34621   4.543   8.213   1.386  0.0247 -0.9005  0.4082
  263MOL0     C34622   4.530   8.345   1.302  0.0554  0.8853 -0.1873
  263MOL0     C34623   4.395   8.417   1.299 -0.0913  0.2716 -1.0909
  263MOL0     C34624   4.405   8.556   1.236  0.1812  0.8722 -0.2625
  263MOL0     C34625   4.445   8.662   1.342 -0.1353  0.1854  0.0750
  263MOL0     C34626   4.407   8.795   1.290  0.5856 -1.0466 -0.3166
  263MOL0     C34627   4.433   8.894   1.401  0.5956  0.4250  0.3555
  263MOL0    Cl34628   4.609   8.905   1.426  0.1418 -0.4981 -0.0368
  263MOL0     C34629   4.920   7.990   1.245 -0.5364 -0.3569 -0.1846
  263MOL0     C34630   5.055   7.964   1.236  0.2796  0.5220 -0.2444
  263MOL0     O34631   5.353   7.971   1.473 -0.6943 -0.0962  0.0292
  263MOL0     C34632   5.617   7.981   1.411  0.2451  0.3441 -0.0188
  263MOL0     C34633   5.749   7.967   1.372 -0.3390  0.6273  0.5987
  263MOL0     N34634   6.367   7.833   0.873  0.2890 -0.6016  0.6046
  263MOL0     N34635   6.380   7.747   0.781  0.3113 -0.9177 -0.8524
  263MOL0     C34636   7.593   7.586   0.701  0.5858 -0.3003  0.9921
  263MOL0     C34637   7.720   7.595   0.660  0.3200 -0.4611  0.3918
  263MOL0     C34638   8.092   7.600   0.382  0.6711  0.4718 -0.8302
  263MOL0     C34639   8.162   7.698   0.315  0.3614 -0.1908  1.0622
  263MOL0     C34640   8.286   7.663   0.259 -0.1219  0.2020 -0.7237
  263MOL0     C34641   8.343   7.536   0.280  0.7543 -0.5868  0.2377
  263MOL0     O34642   8.468   7.512   0.235 -0.1105 -0.3502 -0.2932
  263MOL0     C34643   8.470   7.465   0.099  1.0130 -0.3613 -0.2095
  263MOL0     C34644   8.604   7.498   0.033  0.9189  0.5382  0.2938
  263MOL0     C34645   8.617   7.466  -0.114 -0.0194  0.0770  0.2515
  263MOL0     C34646   8.747   7.524  -0.172  0.1800  0.5128  0.1191
  263MOL0     C34647   8.867   7.481  -0.095  1.2006 -0.9141  0.2215
  263MOL0     C34648   8.957   7.440  -0.027 -0.3337  0.7138 -0.2873
  263MOL0     C34649   8.260   7.444   0.341 -0.0337 -0.3155  0.8554
  263MOL0     C34650   8.140   7.472   0.396  0.1156  1.2302 -0.0043
  263MOL0     H34651   7.743   7.339   0.448 -1.6341 -0.4377 -0.9572
  263MOL0     H34652   7.512   7.319   0.498  1.2758  0.3945 -2.2960
  263MOL0     H34653   7.333   7.666   0.747  0.4615  0.1568  1.7215
  263MOL0     H34654   7.381   7.556   0.878  1.1986 -0.5862 -1.1882
  263MOL0     H34655   7.137   7.581   0.891 -1.6804  1.7501 -2.4557
  263MOL0     H34656   7.182   7.412   0.844 -0.5900 -0.9794 -2.7277
  263MOL0     H34657   7.120   7.473   0.607 -1.7852 -1.1650 -0.3224
  263MOL0     H34658   7.066   7.630   0.672  0.9193  0.0325  0.1557
  263MOL0     H34659   6.951   7.363   0.761  0.0569  0.5887  1.7003
  263MOL0     H34660   6.899   7.518   0.817  0.8317  1.7928 -1.0786
  263MOL0     H34661   6.881   7.402   0.534 -1.1741  0.8342 -1.2183
  263MOL0     H34662   6.852   7.568   0.562 -1.9133  1.1702  2.8197
  263MOL0     H34663   6.684   7.345   0.688 -5.3537 -0.8570 -2.1184
  263MOL0     H34664   6.650   7.435   0.547  0.6159  0.0603 -0.7583
  263MOL0     H34665   6.680   7.563   0.822  1.5689  1.1349 -0.9538
  263MOL0     H34666   6.643   7.647   0.675  3.1282 -1.2580 -1.2915
  263MOL0     H34667   6.475   7.439   0.827 -0.7269 -0.2872  0.4791
  263MOL0     H34668   6.430   7.518   0.667  2.5842 -2.3051 -1.1800
  263MOL0     H34669   6.406   7.551   1.037 -1.9536 -1.5669 -2.0090
  263MOL0     H34670   6.406   7.926   1.148  0.2029  0.4136  1.2643
  263MOL0     H34671   6.346   7.773   1.211  3.3337 -0.2058 -0.3901
  263MOL0     H34672   6.227   7.998   1.061  0.5271 -1.3583 -1.8575
  263MOL0     H34673   6.170   7.942   1.224 -0.6381 -1.6076  1.3697
  263MOL0     H34674   6.092   7.805   0.964 -0.4683 -1.0428  0.6355
  263MOL0     H34675   6.070   7.730   1.124 -3.0846  0.3271 -0.3085
  263MOL0     H34676   5.878   7.823   1.031 -0.0390  0.0845 -1.5869
  263MOL0     H34677   5.940   7.988   1.013 -0.3157  0.6324  1.6941
  263MOL0     H34678   5.720   7.980   1.035  1.7079  2.2776 -0.7331
  263MOL0     H34679   5.485   8.008   1.094 -1.5359 -0.2253  1.4941
  263MOL0     H34680   5.186   8.216   1.396  0.2038  0.7260 -2.1330
  263MOL0     H34681   4.948   8.299   1.401 -1.2932 -0.1812 -1.6699
  263MOL0     H34682   4.732   8.268   1.462  1.2915  0.0941  0.0554
  263MOL0     H34683   4.681   8.095   1.496 -1.5959  1.0970 -0.3744
  263MOL0     H34684   4.483   8.220   1.477  0.1998 -4.5695  0.9603
  263MOL0     H34685   4.504   8.131   1.325  2.5335 -2.4834  0.8167
  263MOL0     H34686   4.567   8.329   1.201  2.3476 -1.5260  0.9157
  263MOL0     H34687   4.598   8.416   1.349  0.9895 -0.5075  0.6494
  263MOL0     H34688   4.339   8.342   1.242 -0.6537  0.4002 -0.7052
  263MOL0     H34689   4.341   8.405   1.393 -1.5155  1.0441 -1.7945
  263MOL0     H34690   4.306   8.583   1.198 -0.0578 -1.2463 -1.2422
  263MOL0     H34691   4.477   8.552   1.153  1.4705 -1.1725  0.8881
  263MOL0     H34692   4.552   8.651   1.360  0.2633 -3.3595 -3.0698
  263MOL0     H34693   4.387   8.649   1.434  0.7706 -2.7110  0.3471
  263MOL0     H34694   4.444   8.824   1.192  1.9456 -2.7389 -0.3557
  263MOL0     H34695   4.299   8.791   1.274  0.8172  0.4239 -2.7888
  263MOL0     H34696   4.368   8.866   1.484 -1.5757 -1.5013 -1.8450
  263MOL0     H34697   4.390   8.988   1.364  0.4158 -0.3035 -1.3399
  263MOL0     H34698   4.844   7.925   1.204 -0.1386 -0.2931 -1.0507
  263MOL0     H34699   5.080   7.872   1.183 -0.1546  0.7447 -0.8402
  263MOL0     H34700   5.600   7.962   1.517  0.7304 -0.0480 -0.0055
  263MOL0     H34701   5.823   7.951   1.449  1.9576  2.7361 -1.0026
  263MOL0     H34702   7.557   7.645   0.785 -0.7372  0.1128  0.1676
  263MOL0     H34703   7.780   7.683   0.683 -0.1637  0.4593 -1.6501
  263MOL0     H34704   8.131   7.799   0.291  2.5906 -0.0143 -1.5018
  263MOL0     H34705   8.347   7.738   0.208  0.7418 -0.8510 -1.2763
  263MOL0     H34706   8.384   7.502   0.042  2.0659  0.9654 -0.9889
  263MOL0     H34707   8.466   7.356   0.089 -0.6997 -0.1862 -2.1078
  263MOL0     H34708   8.629   7.604   0.039  3.3625  0.0846 -0.6150
  263MOL0     H34709   8.675   7.432   0.083 -1.1327 -0.9071  1.4659
  263MOL0     H34710   8.535   7.506  -0.173 -0.9498  0.8599  1.9864
  263MOL0     H34711   8.622   7.362  -0.147  0.2089  1.2584 -4.0989
  263MOL0     H34712   8.755   7.490  -0.276 -1.7215  0.3720 -0.0171
  263MOL0     H34713   8.741   7.633  -0.172 -0.2644  0.4893  0.1086
  263MOL0     H34714   9.030   7.409   0.044 -2.7472  1.1776  2.5761
  263MOL0     H34715   8.317   7.353   0.359 -1.1882 -0.8316  1.9651
  263MOL0     H34716   8.086   7.388   0.439  2.2526  0.3570  1.1742
  264MOL0     O34717   0.294  11.186   7.493 -0.3290 -0.7875 -0.3382
  264MOL0     C34718   0.389  11.120   7.449 -0.4286  0.0892 -0.5100
  264MOL0     O34719   0.389  11.064   7.329  0.4874 -0.0879  0.0310
  264MOL0     C34720   0.285  11.088   7.241  0.4710 -0.0588  0.1981
  264MOL0     C34721   0.240  10.982   7.154 -0.0548 -0.2689  0.0946
  264MOL0     C34722   0.148  10.995   7.054 -0.4029 -0.4729  0.4628
  264MOL0     C34723   0.091  11.117   7.032 -1.6491 -0.1795  0.3585
  264MOL0     O34724   0.018  11.116   6.922  0.0532 -0.3410 -0.1472
  264MOL0     C34725  -0.109  11.181   6.936  0.2405 -0.7170  0.0279
  264MOL0     C34726  -0.190  11.143   6.808 -0.5394 -0.1517  0.4125
  264MOL0     C34727  -0.340  11.170   6.813 -0.2932 -0.1319 -0.2619
  264MOL0     C34728  -0.411  11.081   6.918 -0.8505 -0.1073 -0.1415
  264MOL0     C34729  -0.553  11.103   6.928  0.0753  0.1380 -0.3532
  264MOL0     C34730  -0.645  11.069   6.808  0.8315  0.9916 -0.1235
  264MOL0     C34731  -0.797  11.107   6.838  0.3272  0.1638  0.6049
  264MOL0     C34732  -0.869  11.009   6.935 -0.9680 -1.0026 -0.6538
  264MOL0     N34733  -1.020  11.032   6.924 -0.4811 -0.1377 -0.1759
  264MOL0     C34734  -1.088  10.978   6.816  0.6097  0.6003 -0.3561
  264MOL0     C34735  -1.217  11.006   6.847  0.9395  0.1870  0.3039
  264MOL0     C34736  -1.334  10.933   6.783  0.0991  0.2249 -0.8103
  264MOL0     C34737  -1.394  11.018   6.667  0.9545 -0.8209  0.4598
  264MOL0     C34738  -1.442  11.158   6.718 -0.4848 -0.3484 -0.8739
  264MOL0     C34739  -1.567  11.152   6.800 -0.7330 -0.0757 -0.7348
  264MOL0     O34740  -1.672  11.097   6.717 -0.7728 -0.5959 -0.3559
  264MOL0     C34741  -1.788  11.058   6.780  0.8474 -0.3979  1.1069
  264MOL0     C34742  -1.830  11.104   6.906 -1.6214  0.2821  0.1993
  264MOL0     C34743  -1.941  11.053   6.973  0.8829 -0.9040  0.0909
  264MOL0     C34744  -2.020  10.967   6.899  0.3194  0.3980 -0.2345
  264MOL0     C34745  -2.150  10.923   6.967  0.0919  0.1983 -0.1330
  264MOL0     O34746  -2.219  10.824   6.906 -0.4342  0.6723  0.0272
  264MOL0     C34747  -2.345  10.783   6.949 -0.7528 -0.3321  0.0264
  264MOL0     C34748  -2.445  10.850   7.023 -0.1078  0.2285 -0.2395
  264MOL0     C34749  -2.558  10.786   7.071  0.1940  0.7379  0.2460
  264MOL0     C34750  -2.590  10.658   7.037 -0.9101  0.1540  0.9744
  264MOL0     O34751  -2.695  10.605   7.111  0.0243  0.2847  0.1683
  264MOL0     C34752  -2.716  10.462   7.110  0.2213  0.0244  0.0067
  264MOL0     C34753  -2.861  10.422   7.165 -0.6025 -0.1057  0.2342
  264MOL0     C34754  -2.978  10.514   7.116  0.0006 -0.2700 -0.4782
  264MOL0     C34755  -3.113  10.474   7.171 -0.4287  0.0500  0.5055
  264MOL0     C34756  -3.223  10.532   7.084 -0.0205 -0.4816  0.3994
  264MOL0     C34757  -3.360  10.499   7.128  0.2833  0.2823 -0.6338
  264MOL0     C34758  -3.460  10.598   7.074  0.5869 -0.0159  0.2749
  264MOL0     C34759  -3.577  10.620   7.176 -1.0610 -0.3483  0.8921
  264MOL0    Cl34760  -3.695  10.495   7.174  0.4874  0.1740  0.0589
  264MOL0     C34761  -2.510  10.593   6.948 -0.3848 -0.1097 -0.2166
  264MOL0     C34762  -2.387  10.651   6.907 -0.7929 -0.2437  1.0176
  264MOL0     O34763  -2.187  10.992   7.060  0.3228 -0.1274  0.2534
  264MOL0     C34764  -1.989  10.932   6.770  0.5368 -0.2869  1.3532
  264MOL0     C34765  -1.876  10.986   6.705 -0.0517  1.0976  0.2724
  264MOL0     N34766  -1.222  11.086   6.963 -0.1372 -0.8342  0.5804
  264MOL0     N34767  -1.100  11.102   7.004  0.1529  0.3597 -0.7306
  264MOL0     C34768   0.127  11.226   7.112 -0.3274 -0.6389  0.6693
  264MOL0     C34769   0.227  11.216   7.210 -0.0550 -0.1158  0.2083
  264MOL0     C34770   0.510  11.106   7.540  0.2727 -0.5102 -0.0857
  264MOL0     C34771   0.597  11.005   7.522 -0.9668 -0.0985 -0.4849
  264MOL0     C34772   0.705  10.992   7.617  0.4517 -0.1092 -0.0848
  264MOL0     C34773   0.718  11.076   7.723  0.3826 -1.1219 -0.3277
  264MOL0     O34774   0.807  11.054   7.830  0.8169  0.3446 -1.4874
  264MOL0     C34775   0.942  11.024   7.788  0.7079 -0.4275 -0.1212
  264MOL0     C34776   1.037  10.997   7.899  1.0921 -0.6051 -0.7525
  264MOL0     C34777   1.180  11.026   7.856  0.1978  0.4090  0.2456
  264MOL0     C34778   1.276  11.008   7.973 -0.0328  0.3604  0.4340
  264MOL0     C34779   1.282  11.132   8.055  0.6713 -0.0619  0.7830
  264MOL0     C34780   1.297  11.227   8.131 -0.2378 -0.7654  0.6563
  264MOL0     C34781   0.617  11.170   7.746 -0.6965  0.2504 -0.2860
  264MOL0     C34782   0.513  11.186   7.652  0.1682 -0.0017 -0.0584
  264MOL0     H34783   0.289  10.886   7.162 -1.6418 -1.0614  0.5688
  264MOL0     H34784   0.120  10.917   6.984  1.7371 -0.9412  0.0758
  264MOL0     H34785  -0.108  11.289   6.954  0.0516 -0.9770  1.7561
  264MOL0     H34786  -0.158  11.145   7.027  0.1900  1.3727  0.8860
  264MOL0     H34787  -0.164  11.037   6.800 -0.1775 -0.0071 -0.3590
  264MOL0     H34788  -0.150  11.192   6.719 -2.6261 -0.1665 -0.6009
  264MOL0     H34789  -0.382  11.170   6.712  0.1857 -1.3902 -0.4823
  264MOL0     H34790  -0.356  11.275   6.838  0.1997  0.2008 -1.3031
  264MOL0     H34791  -0.391  10.976   6.896  0.4936 -0.5279  2.6513
  264MOL0     H34792  -0.365  11.099   7.016 -2.3815  0.1395  0.5671
  264MOL0     H34793  -0.571  11.210   6.945  0.3469  0.2471 -0.7376
  264MOL0     H34794  -0.585  11.045   7.015 -1.5182  2.0312  0.4004
  264MOL0     H34795  -0.641  10.969   6.762 -1.0264  1.8857 -2.4631
  264MOL0     H34796  -0.608  11.130   6.725  0.4229  0.8278 -0.4366
  264MOL0     H34797  -0.797  11.209   6.879 -0.2771 -0.1200  1.3431
  264MOL0     H34798  -0.847  11.098   6.741 -3.6270 -0.9740  2.5151
  264MOL0     H34799  -0.834  11.032   7.036  0.7930 -2.2247 -0.9556
  264MOL0     H34800  -0.827  10.910   6.917  1.3301 -0.4615  1.1990
  264MOL0     H34801  -1.044  10.913   6.740  0.1934 -0.5867  0.3924
  264MOL0     H34802  -1.402  10.907   6.865  0.2680  0.0675 -0.7189
  264MOL0     H34803  -1.293  10.843   6.736 -0.6756 -1.0945  0.9186
  264MOL0     H34804  -1.479  10.967   6.619 -1.8692  0.8804  3.3073
  264MOL0     H34805  -1.314  11.024   6.593 -0.2224 -1.1059 -0.8919
  264MOL0     H34806  -1.354  11.205   6.762  0.3827 -0.1027 -2.7584
  264MOL0     H34807  -1.473  11.211   6.627  2.8231  2.2952 -0.6425
  264MOL0     H34808  -1.598  11.253   6.830  0.8007  0.7778 -1.8497
  264MOL0     H34809  -1.549  11.098   6.893 -2.4754  0.0205 -0.3106
  264MOL0     H34810  -1.765  11.171   6.961 -0.1553  1.0600 -2.3138
  264MOL0     H34811  -1.968  11.100   7.067  4.3736  1.4404  0.1259
  264MOL0     H34812  -2.432  10.951   7.060  1.1029 -0.5096  1.4775
  264MOL0     H34813  -2.630  10.841   7.131 -1.0220  1.5720 -1.8447
  264MOL0     H34814  -2.634  10.403   7.151 -0.4831 -0.8671  0.1581
  264MOL0     H34815  -2.712  10.421   7.008 -1.5752 -2.6265  0.9009
  264MOL0     H34816  -2.852  10.422   7.274 -1.2695  2.9801  0.3889
  264MOL0     H34817  -2.878  10.319   7.131  0.6757 -0.9640  2.0163
  264MOL0     H34818  -2.985  10.519   7.007  0.9663  2.8212 -0.5006
  264MOL0     H34819  -2.956  10.620   7.135 -0.8856 -0.2720  0.6614
  264MOL0     H34820  -3.119  10.365   7.179  1.2123 -0.1319 -0.2817
  264MOL0     H34821  -3.123  10.521   7.269 -0.6910 -1.2880  1.1398
  264MOL0     H34822  -3.215  10.495   6.981  0.3362 -2.5142  1.1130
  264MOL0     H34823  -3.213  10.641   7.084  3.4788 -0.7020 -0.3096
  264MOL0     H34824  -3.361  10.488   7.237  2.6815  2.6778 -0.2737
  264MOL0     H34825  -3.375  10.397   7.091 -0.7730  0.1720  0.0524
  264MOL0     H34826  -3.415  10.694   7.046  1.7090 -0.4584  0.4881
  264MOL0     H34827  -3.500  10.563   6.978 -1.1068  1.5595  0.3561
  264MOL0     H34828  -3.622  10.714   7.143 -0.5284  0.2495  1.8129
  264MOL0     H34829  -3.549  10.621   7.282 -2.0402 -4.3072  1.3630
  264MOL0     H34830  -2.523  10.489   6.917  0.2353 -0.3767  0.3945
  264MOL0     H34831  -2.322  10.588   6.847 -3.4919 -0.0493 -2.4454
  264MOL0     H34832  -2.047  10.869   6.703  1.7690  0.9409 -0.9788
  264MOL0     H34833  -1.847  10.952   6.606 -2.2820  0.0032 -0.0527
  264MOL0     H34834   0.088  11.322   7.080 -0.4747 -2.1169 -4.3697
  264MOL0     H34835   0.274  11.300   7.259  1.4617  0.2870 -1.7845
  264MOL0     H34836   0.600  10.937   7.438 -0.4941 -0.2709 -0.3338
  264MOL0     H34837   0.774  10.912   7.594  2.4250  1.4936  0.0550
  264MOL0     H34838   0.976  11.113   7.733  0.1719  0.3014  0.6989
  264MOL0     H34839   0.965  10.953   7.708  0.4724  2.6865 -3.1805
  264MOL0     H34840   1.011  11.047   7.993  0.1354 -2.0550 -0.1993
  264MOL0     H34841   1.021  10.891   7.923  0.4399 -0.7547 -1.7807
  264MOL0     H34842   1.195  11.123   7.807 -0.0259 -0.1413 -0.9369
  264MOL0     H34843   1.211  10.957   7.777 -0.5871  0.7715 -0.3917
  264MOL0     H34844   1.239  10.927   8.036 -2.9668  1.7531  0.6760
  264MOL0     H34845   1.379  11.001   7.938 -0.2424 -0.0906 -0.0906
  264MOL0     H34846   1.304  11.301   8.209 -0.6670  1.0004 -0.9099
  264MOL0     H34847   0.627  11.226   7.838 -0.1684 -2.0562  1.1356
  264MOL0     H34848   0.432  11.253   7.679  0.0106  0.2023 -1.0063
  265MOL0     O34849   5.756   4.617   0.889  0.4145 -0.5840 -0.0682
  265MOL0     C34850   5.831   4.662   0.977  0.1713 -0.4717  0.6832
  265MOL0     O34851   5.805   4.766   1.053  0.0384 -0.0596  0.8551
  265MOL0     C34852   5.700   4.851   1.009  0.6214 -0.7513 -0.9575
  265MOL0     C34853   5.563   4.808   0.996  0.0622  0.7516  0.2282
  265MOL0     C34854   5.465   4.903   0.976 -0.1919 -0.1023 -0.2599
  265MOL0     C34855   5.493   5.039   0.963 -0.7133 -1.3277  0.1863
  265MOL0     O34856   5.382   5.117   0.948 -0.6430  0.5731  0.2322
  265MOL0     C34857   5.393   5.247   0.899 -0.9954  0.1963 -0.7674
  265MOL0     C34858   5.373   5.354   1.009 -0.1230  0.6936  0.3778
  265MOL0     C34859   5.229   5.352   1.060  0.4227  0.1409  0.2625
  265MOL0     C34860   5.180   5.454   1.163 -0.9067 -0.1449  0.7579
  265MOL0     C34861   5.049   5.429   1.232 -0.1234  0.2971  0.4202
  265MOL0     C34862   4.967   5.558   1.268 -0.1354  1.0291  0.2329
  265MOL0     C34863   5.044   5.637   1.377  0.3409  0.1785 -0.0836
  265MOL0     C34864   4.985   5.779   1.398  0.0188 -0.3449 -0.8709
  265MOL0     N34865   5.087   5.868   1.454 -0.3448  0.1598 -0.1408
  265MOL0     C34866   5.093   5.913   1.581 -0.4529  0.8243 -0.2880
  265MOL0     C34867   5.179   6.022   1.581  0.4703 -0.3175 -0.3289
  265MOL0     C34868   5.213   6.110   1.706  0.3183  0.2802 -0.0965
  265MOL0     C34869   5.090   6.148   1.784 -0.8193 -1.0880  0.2693
  265MOL0     C34870   5.009   6.250   1.703  0.4135  0.6180 -0.0660
  265MOL0     C34871   4.897   6.333   1.780 -0.3578  0.7609  0.0404
  265MOL0     O34872   4.798   6.241   1.829  0.3558 -0.0082  0.0866
  265MOL0     C34873   4.669   6.286   1.855  0.1640 -0.5105 -1.0992
  265MOL0     C34874   4.576   6.193   1.885  0.2501 -0.0680  0.3211
  265MOL0     C34875   4.442   6.236   1.910 -0.4864  0.9477  0.1780
  265MOL0     C34876   4.401   6.371   1.907  0.6831 -0.5283  0.8269
  265MOL0     C34877   4.267   6.415   1.952 -0.2870 -0.2527  0.1263
  265MOL0     O34878   4.237   6.550   1.946  0.0348  0.5563  0.6091
  265MOL0     C34879   4.110   6.598   1.997 -0.1704 -0.5699 -0.5942
  265MOL0     C34880   4.109   6.728   2.054 -0.0247  0.9976 -0.3465
  265MOL0     C34881   3.990   6.783   2.101 -0.3511 -0.2110  0.5158
  265MOL0     C34882   3.873   6.721   2.069  0.6422 -0.0649 -0.4793
  265MOL0     O34883   3.760   6.792   2.110 -0.2966 -0.7201 -0.1581
  265MOL0     C34884   3.633   6.750   2.072 -0.1362 -0.3547 -0.1977
  265MOL0     C34885   3.541   6.871   2.090 -0.8141  0.0722 -0.7614
  265MOL0     C34886   3.541   6.922   2.230  0.9587 -0.2814  0.5773
  265MOL0     C34887   3.429   7.020   2.269  0.0493  0.4388  0.0333
  265MOL0     C34888   3.291   6.950   2.292 -0.4705  0.0474 -0.2597
  265MOL0     C34889   3.293   6.867   2.426 -0.5795  0.5762 -0.3196
  265MOL0     C34890   3.161   6.824   2.486 -0.5884 -0.8579  0.6244
  265MOL0     C34891   3.058   6.942   2.469 -0.1132  0.2945  0.0922
  265MOL0    Cl34892   3.137   7.092   2.546 -0.3095 -0.2455  0.7478
  265MOL0     C34893   3.871   6.602   1.996 -0.0952 -0.4911 -0.8399
  265MOL0     C34894   3.989   6.541   1.962 -0.1857  0.3889 -0.1515
  265MOL0     O34895   4.182   6.329   1.962 -0.6206 -0.2569 -0.4416
  265MOL0     C34896   4.500   6.464   1.879 -0.0386  0.2174  0.0235
  265MOL0     C34897   4.634   6.425   1.861  0.6124 -0.2124  0.1425
  265MOL0     N34898   5.234   6.031   1.450  0.2360  0.2162 -0.4542
  265MOL0     N34899   5.168   5.944   1.376 -0.9691 -0.5884  0.8170
  265MOL0     C34900   5.630   5.075   0.970 -0.0346 -0.1387 -0.1280
  265MOL0     C34901   5.727   4.986   0.999  0.0974  0.0674 -1.0572
  265MOL0     C34902   5.967   4.613   1.000  0.1139  0.0874 -0.6291
  265MOL0     C34903   5.988   4.473   0.990 -0.9885  0.9320 -0.1835
  265MOL0     C34904   6.117   4.418   1.025  0.2451  0.3725 -0.9488
  265MOL0     C34905   6.218   4.500   1.079 -0.2799 -0.8509 -0.5363
  265MOL0     O34906   6.337   4.445   1.127 -0.0077  0.0395 -0.2291
  265MOL0     C34907   6.330   4.350   1.234 -0.4678 -1.3840  0.3048
  265MOL0     C34908   6.424   4.232   1.203 -0.2126 -0.0406 -0.6006
  265MOL0     C34909   6.565   4.280   1.157  0.3825  0.4161 -0.3809
  265MOL0     C34910   6.634   4.377   1.252 -0.2137 -0.3404 -0.1935
  265MOL0     C34911   6.780   4.341   1.246  0.2530 -0.2844 -0.4669
  265MOL0     C34912   6.898   4.314   1.218 -0.7509 -0.1201  0.1335
  265MOL0     C34913   6.191   4.636   1.092 -0.1672 -0.0088 -0.4629
  265MOL0     C34914   6.076   4.694   1.044 -0.2421 -0.9781 -0.1172
  265MOL0     H34915   5.541   4.702   1.003 -1.0497  0.4544 -4.4734
  265MOL0     H34916   5.361   4.879   0.958  0.0824  0.9996 -4.4028
  265MOL0     H34917   5.305   5.261   0.836 -2.1958  2.5216  1.2339
  265MOL0     H34918   5.484   5.266   0.840  0.9426 -0.3675  1.8385
  265MOL0     H34919   5.399   5.454   0.973  0.4102 -0.2100 -1.9448
  265MOL0     H34920   5.444   5.345   1.091 -0.2798 -4.0929  0.3113
  265MOL0     H34921   5.209   5.255   1.108  0.0415  0.4219  0.6777
  265MOL0     H34922   5.156   5.372   0.981 -0.4356 -4.6819 -0.4860
  265MOL0     H34923   5.258   5.473   1.237  1.2243 -2.2248 -0.8021
  265MOL0     H34924   5.169   5.552   1.115  1.5960  0.8471  2.0636
  265MOL0     H34925   5.060   5.364   1.320 -1.9025 -0.8863 -0.1631
  265MOL0     H34926   4.981   5.370   1.169  0.4424 -2.9747  2.6071
  265MOL0     H34927   4.868   5.542   1.312 -0.0687  2.3337  0.9217
  265MOL0     H34928   4.939   5.619   1.182 -0.9430 -0.7264 -0.8092
  265MOL0     H34929   5.050   5.581   1.471  0.4560 -0.3185 -0.3845
  265MOL0     H34930   5.149   5.644   1.348  1.8639 -0.6437  4.3792
  265MOL0     H34931   4.896   5.765   1.460  1.0143 -2.3087  0.2059
  265MOL0     H34932   4.954   5.824   1.303  0.0580 -1.5566 -1.4789
  265MOL0     H34933   5.042   5.872   1.668  0.1775 -0.5529 -0.5454
  265MOL0     H34934   5.275   6.198   1.682 -0.2436  0.9583  0.8723
  265MOL0     H34935   5.275   6.055   1.777  0.2135  1.7915  1.2316
  265MOL0     H34936   5.123   6.203   1.873  3.3044 -0.6954 -1.2813
  265MOL0     H34937   5.023   6.064   1.806 -1.4537 -0.4976  0.6314
  265MOL0     H34938   5.087   6.315   1.662  1.3256 -0.1032  0.4830
  265MOL0     H34939   4.961   6.180   1.634  2.1510 -2.6542  1.8317
  265MOL0     H34940   4.849   6.410   1.719 -0.7933  1.0191  0.6977
  265MOL0     H34941   4.942   6.387   1.864 -0.5619 -0.4289  0.9423
  265MOL0     H34942   4.598   6.088   1.902 -5.7745 -2.2342 -2.3565
  265MOL0     H34943   4.376   6.157   1.946  1.6551 -0.3633  1.4519
  265MOL0     H34944   4.208   6.770   2.069  1.5763 -2.0358 -1.4708
  265MOL0     H34945   3.987   6.881   2.148 -1.3963  0.6132 -1.1574
  265MOL0     H34946   3.603   6.672   2.142  1.8250  0.1787  1.3051
  265MOL0     H34947   3.631   6.719   1.967  1.6200 -0.4738 -0.2274
  265MOL0     H34948   3.438   6.837   2.079 -0.8245 -0.8940  1.6609
  265MOL0     H34949   3.565   6.953   2.022 -0.3360  0.8860  0.3529
  265MOL0     H34950   3.634   6.976   2.253 -1.1190  3.5373  0.7709
  265MOL0     H34951   3.527   6.838   2.298 -0.2659 -1.0875 -0.6328
  265MOL0     H34952   3.456   7.077   2.358  0.7207 -2.7281  1.9819
  265MOL0     H34953   3.417   7.092   2.187 -2.8343 -0.9427 -0.8920
  265MOL0     H34954   3.253   6.886   2.212  2.0248 -0.9780 -0.7190
  265MOL0     H34955   3.232   7.041   2.303  3.1848  2.4668  1.3750
  265MOL0     H34956   3.365   6.906   2.499  0.3637 -0.5188 -0.6332
  265MOL0     H34957   3.348   6.774   2.410 -0.7151 -0.0652  2.4531
  265MOL0     H34958   3.121   6.737   2.434 -1.6840 -0.4944  0.8214
  265MOL0     H34959   3.169   6.804   2.593  1.4577 -0.6110  0.5509
  265MOL0     H34960   2.977   6.908   2.534  2.2710 -1.5132  2.3467
  265MOL0     H34961   3.027   6.946   2.365  2.2306 -0.1505 -0.6888
  265MOL0     H34962   3.778   6.547   1.988 -0.8686  0.5249  0.5387
  265MOL0     H34963   3.996   6.447   1.909 -0.6805 -1.0506  2.1844
  265MOL0     H34964   4.472   6.569   1.883 -4.5710 -0.7900  1.4699
  265MOL0     H34965   4.689   6.516   1.837 -0.2055  0.5305  0.9801
  265MOL0     H34966   5.678   5.172   0.959  0.5082 -0.2523  1.0619
  265MOL0     H34967   5.833   5.008   1.009  0.0606  0.1650 -0.8614
  265MOL0     H34968   5.915   4.403   0.952 -2.1661  1.1011  1.6446
  265MOL0     H34969   6.134   4.311   1.032 -2.7403 -0.1025  0.8015
  265MOL0     H34970   6.232   4.306   1.253 -0.2728 -0.7963  3.1944
  265MOL0     H34971   6.350   4.403   1.328 -0.2813 -2.1094  0.6877
  265MOL0     H34972   6.428   4.172   1.295  1.7585  0.9832  0.0283
  265MOL0     H34973   6.385   4.183   1.113  3.4283  2.0207 -3.5862
  265MOL0     H34974   6.541   4.333   1.065  0.1266  0.5502 -0.2368
  265MOL0     H34975   6.639   4.204   1.129 -0.3793 -0.0750 -1.0719
  265MOL0     H34976   6.622   4.481   1.220  1.2363 -0.0064  0.2966
  265MOL0     H34977   6.609   4.371   1.358  1.4266 -0.8066  0.1909
  265MOL0     H34978   7.004   4.299   1.209 -0.4309  2.2796 -0.6592
  265MOL0     H34979   6.270   4.695   1.137  0.8348 -2.0594  0.6063
  265MOL0     H34980   6.070   4.802   1.053  1.9810 -0.6657 -1.5236
  266MOL0     O34981   1.159   2.110   7.470 -0.8960  0.2959  0.1816
  266MOL0     C34982   1.149   2.153   7.587  0.6779 -0.1407 -0.4963
  266MOL0     O34983   1.035   2.189   7.649  0.6176  0.0229  0.6193
  266MOL0     C34984   0.914   2.169   7.587  0.0987 -0.6716  0.3358
  266MOL0     C34985   0.883   2.051   7.517  0.8087  0.5936  0.1501
  266MOL0     C34986   0.765   2.041   7.449  0.5678  0.6000 -0.1883
  266MOL0     C34987   0.668   2.143   7.461 -1.2043  0.0228 -0.3108
  266MOL0     O34988   0.552   2.128   7.388 -0.0825  0.5024 -0.3227
  266MOL0     C34989   0.434   2.193   7.433 -1.4750 -0.1020  0.1005
  266MOL0     C34990   0.299   2.138   7.395 -0.8573 -0.8744 -0.5144
  266MOL0     C34991   0.300   1.992   7.436 -0.0257 -0.5781  0.6113
  266MOL0     C34992   0.198   1.914   7.376  0.1971  0.1682 -0.1813
  266MOL0     C34993   0.056   1.962   7.436 -0.8752  0.0069 -0.0213
  266MOL0     C34994  -0.062   1.869   7.398  0.5394 -0.8465  0.6925
  266MOL0     C34995  -0.112   1.885   7.250 -0.0792  0.3696  0.4647
  266MOL0     C34996  -0.076   1.755   7.181  0.0953  0.2776  0.9935
  266MOL0     N34997  -0.124   1.762   7.045 -0.2722  0.4698 -0.0861
  266MOL0     C34998  -0.082   1.852   6.963  0.1102 -0.3094  0.4985
  266MOL0     C34999  -0.143   1.828   6.847 -1.3790 -0.2093  0.2851
  266MOL0     C35000  -0.127   1.900   6.719 -0.6750  0.0593 -1.2679
  266MOL0     C35001  -0.256   1.976   6.690  0.2078  0.8512  0.6375
  266MOL0     C35002  -0.277   2.082   6.794  0.6466 -0.3817 -0.0956
  266MOL0     C35003  -0.383   2.183   6.751  0.6266  0.7253 -0.5018
  266MOL0     O35004  -0.358   2.235   6.626  0.2730  0.0677  0.3033
  266MOL0     C35005  -0.448   2.329   6.576 -0.6451  0.2481  0.0746
  266MOL0     C35006  -0.407   2.454   6.525 -0.3047  0.9809  0.5500
  266MOL0     C35007  -0.496   2.561   6.501 -0.2316 -0.3797  0.4942
  266MOL0     C35008  -0.634   2.528   6.495 -0.0841  0.3212 -0.8259
  266MOL0     C35009  -0.728   2.628   6.440  0.6414  0.3064 -0.6152
  266MOL0     O35010  -0.857   2.593   6.406  0.0185 -0.2602  0.3283
  266MOL0     C35011  -0.937   2.682   6.343  0.1973  0.2206 -0.5749
  266MOL0     C35012  -1.076   2.685   6.375 -0.4451  0.6418  0.0348
  266MOL0     C35013  -1.162   2.760   6.301 -0.2635 -0.7171  0.0528
  266MOL0     C35014  -1.118   2.838   6.195 -0.2785 -0.1444  0.0605
  266MOL0     O35015  -1.209   2.893   6.107 -0.0541  0.0671  0.6167
  266MOL0     C35016  -1.352   2.877   6.120 -0.5103  0.0831 -0.3203
  266MOL0     C35017  -1.426   2.948   6.002 -0.0575  1.0937  1.1708
  266MOL0     C35018  -1.423   3.103   5.985  0.0997 -0.3659 -0.0836
  266MOL0     C35019  -1.278   3.158   5.952  0.3847  0.2109  0.0601
  266MOL0     C35020  -1.256   3.306   5.987  0.0344 -0.5967 -0.4735
  266MOL0     C35021  -1.110   3.348   5.947  0.7284 -0.0309 -0.8874
  266MOL0     C35022  -1.095   3.488   5.987 -0.8802  0.3225 -0.9323
  266MOL0     C35023  -0.943   3.535   5.994  0.5377 -0.5657  0.4670
  266MOL0    Cl35024  -0.873   3.531   5.828  0.3148 -0.0695  0.0636
  266MOL0     C35025  -0.982   2.844   6.162 -0.8756 -0.3403  0.4869
  266MOL0     C35026  -0.889   2.762   6.236 -1.0524 -0.4626  0.2337
  266MOL0     O35027  -0.678   2.740   6.431 -0.0560 -0.1335  0.8777
  266MOL0     C35028  -0.673   2.401   6.538  0.4216 -0.3485  0.1090
  266MOL0     C35029  -0.586   2.303   6.571 -0.5401  0.5684 -0.2883
  266MOL0     N35030  -0.222   1.726   6.875 -0.6653 -0.1986  0.5247
  266MOL0     N35031  -0.212   1.681   6.987  0.0240  0.7527 -0.4304
  266MOL0     C35032   0.695   2.257   7.547  0.6454  0.0655 -0.2502
  266MOL0     C35033   0.824   2.275   7.600  0.1918  0.5416 -0.3224
  266MOL0     C35034   1.266   2.179   7.676 -0.9138  0.1280 -0.0836
  266MOL0     C35035   1.257   2.255   7.799 -0.4598 -0.4322 -0.3067
  266MOL0     C35036   1.374   2.281   7.870 -0.1849  0.1768 -0.7242
  266MOL0     C35037   1.497   2.232   7.824  0.4247 -0.1749  0.1616
  266MOL0     O35038   1.624   2.271   7.871  0.0079  0.4542 -0.1783
  266MOL0     C35039   1.632   2.298   8.012  0.4015  0.2363 -0.0958
  266MOL0     C35040   1.781   2.301   8.038 -0.5234 -0.2877 -0.1163
  266MOL0     C35041   1.864   2.166   8.030  0.6690 -0.2932  0.3043
  266MOL0     C35042   2.003   2.187   7.980 -1.2465  1.5179  0.7484
  266MOL0     C35043   2.080   2.057   7.996 -0.4963 -0.2034  0.9268
  266MOL0     C35044   2.148   1.953   8.008 -0.7422  0.4521 -0.1867
  266MOL0     C35045   1.500   2.158   7.705 -0.5065  0.2465 -0.2671
  266MOL0     C35046   1.391   2.134   7.630  0.5904  0.5699  0.4646
  266MOL0     H35047   0.957   1.972   7.520 -0.4861 -0.7842 -1.5733
  266MOL0     H35048   0.744   1.946   7.401 -0.5785 -0.4092  2.1480
  266MOL0     H35049   0.443   2.297   7.401 -0.5079 -0.4317 -0.7748
  266MOL0     H35050   0.437   2.191   7.542 -0.0653 -0.9427  0.0832
  266MOL0     H35051   0.281   2.155   7.288 -2.4475 -2.3933 -0.5387
  266MOL0     H35052   0.224   2.192   7.454  0.5286  0.0254  0.4728
  266MOL0     H35053   0.293   1.999   7.545 -0.5984  1.4686  0.4943
  266MOL0     H35054   0.394   1.945   7.405  2.3470  2.9101  1.8975
  266MOL0     H35055   0.197   1.924   7.267  1.0764  3.4684  0.0291
  266MOL0     H35056   0.212   1.808   7.401 -0.4503  0.2643  0.6685
  266MOL0     H35057   0.041   2.063   7.396 -0.8307 -0.2804 -0.7908
  266MOL0     H35058   0.052   1.972   7.545 -0.8492  0.0738 -0.0258
  266MOL0     H35059  -0.137   1.900   7.472  1.2105 -1.6824  1.7614
  266MOL0     H35060  -0.031   1.766   7.416  0.9231 -1.1797 -1.5757
  266MOL0     H35061  -0.217   1.912   7.258 -0.1921  1.3284 -2.6593
  266MOL0     H35062  -0.081   1.978   7.201  1.9893 -0.9670 -0.9436
  266MOL0     H35063  -0.120   1.666   7.227 -1.3409 -1.9290 -3.9606
  266MOL0     H35064   0.032   1.738   7.178 -0.4220 -4.2368 -0.6669
  266MOL0     H35065  -0.002   1.922   6.981  0.7881 -1.4790  2.2922
  266MOL0     H35066  -0.115   1.816   6.650 -2.4732 -1.0715 -0.3072
  266MOL0     H35067  -0.038   1.964   6.716 -1.6695  1.7301  1.1885
  266MOL0     H35068  -0.345   1.913   6.694  0.8775 -0.0784  2.9853
  266MOL0     H35069  -0.235   2.006   6.587  1.5891 -1.1621  0.2862
  266MOL0     H35070  -0.303   2.030   6.886  0.7603 -2.5837 -1.2456
  266MOL0     H35071  -0.178   2.128   6.805 -0.2136  1.4192  0.4548
  266MOL0     H35072  -0.388   2.263   6.824 -0.5957 -1.1651  1.6157
  266MOL0     H35073  -0.478   2.129   6.749  0.9097  0.2086 -0.2981
  266MOL0     H35074  -0.300   2.470   6.525  0.1144 -1.4497  1.0446
  266MOL0     H35075  -0.454   2.656   6.470  1.6709 -1.3369 -0.0468
  266MOL0     H35076  -1.111   2.611   6.447 -0.7962 -0.0193 -0.8040
  266MOL0     H35077  -1.264   2.755   6.336  0.0642 -0.3502  1.1049
  266MOL0     H35078  -1.384   2.937   6.206  2.4873 -0.7022  1.4706
  266MOL0     H35079  -1.380   2.772   6.131 -0.9887  0.2325 -0.0666
  266MOL0     H35080  -1.529   2.910   5.997  0.0982  0.7141  0.6398
  266MOL0     H35081  -1.387   2.903   5.910 -3.7034  0.4805 -0.2713
  266MOL0     H35082  -1.469   3.153   6.070 -0.1929  2.5129 -1.8257
  266MOL0     H35083  -1.488   3.109   5.898  0.8379  0.1047 -0.6045
  266MOL0     H35084  -1.197   3.098   5.995 -0.4785 -1.4794 -0.5571
  266MOL0     H35085  -1.276   3.154   5.843 -1.0351 -1.3872  0.0491
  266MOL0     H35086  -1.269   3.325   6.094  2.0182  0.0415 -0.3095
  266MOL0     H35087  -1.339   3.361   5.942 -2.8541 -0.1992  4.5667
  266MOL0     H35088  -1.098   3.331   5.839  1.3759 -3.2867 -0.4269
  266MOL0     H35089  -1.034   3.284   5.995 -0.6728 -0.5423  0.7424
  266MOL0     H35090  -1.157   3.553   5.923 -1.2494 -1.1075 -2.0762
  266MOL0     H35091  -1.127   3.502   6.091 -0.4576 -1.8171 -0.4734
  266MOL0     H35092  -0.886   3.482   6.071 -0.6698  2.4359  3.7128
  266MOL0     H35093  -0.956   3.640   6.022 -3.4046  0.2409 -3.4016
  266MOL0     H35094  -0.960   2.905   6.076 -0.5889  0.9991  1.4707
  266MOL0     H35095  -0.784   2.779   6.216 -0.8647  0.8164  2.0244
  266MOL0     H35096  -0.781   2.402   6.549  0.3842  0.0648 -0.2789
  266MOL0     H35097  -0.624   2.204   6.589 -0.5247  0.7667  0.8756
  266MOL0     H35098   0.620   2.333   7.566  2.0019  0.6668  3.8402
  266MOL0     H35099   0.853   2.359   7.663 -0.4561  0.2299  0.4059
  266MOL0     H35100   1.162   2.294   7.837 -0.6088  0.8322 -1.8696
  266MOL0     H35101   1.374   2.345   7.958 -1.4621  2.3885 -2.2237
  266MOL0     H35102   1.591   2.213   8.069 -0.6441 -0.5424 -1.9347
  266MOL0     H35103   1.582   2.388   8.049 -1.7238 -1.6274  1.9719
  266MOL0     H35104   1.816   2.367   7.958 -0.2227 -0.3765 -0.0611
  266MOL0     H35105   1.809   2.347   8.133 -0.8789 -1.9328  0.8249
  266MOL0     H35106   1.805   2.091   7.976  0.1867 -0.3501  0.8961
  266MOL0     H35107   1.856   2.120   8.129 -1.4283  2.0249  1.3191
  266MOL0     H35108   1.998   2.222   7.876 -1.6809 -1.9353 -0.5122
  266MOL0     H35109   2.052   2.265   8.038  2.3630  1.0797 -1.3954
  266MOL0     H35110   2.211   1.870   8.029  0.3837  1.5516  1.0020
  266MOL0     H35111   1.591   2.124   7.657 -1.1841  1.8322 -2.8860
  266MOL0     H35112   1.397   2.081   7.535 -0.4488  1.0083  0.1374
  267MOL0     O35113   2.456   5.314   5.425  1.3013  0.1400 -0.0739
  267MOL0     C35114   2.458   5.193   5.397  0.2673  0.1766 -0.3197
  267MOL0     O35115   2.382   5.099   5.454  0.6642  0.1371 -0.1683
  267MOL0     C35116   2.296   5.117   5.563 -0.6799  0.2687 -0.0174
  267MOL0     C35117   2.190   5.017   5.567  0.2445 -0.9469  0.1240
  267MOL0     C35118   2.094   5.014   5.666  0.5508 -0.9048  0.3482
  267MOL0     C35119   2.102   5.109   5.765  0.8620  0.9624 -0.4981
  267MOL0     O35120   2.005   5.116   5.863 -0.3063  0.4491  0.3887
  267MOL0     C35121   1.873   5.065   5.844  0.2382 -0.4162  1.1554
  267MOL0     C35122   1.782   5.098   5.962 -0.0970  0.0626  0.2517
  267MOL0     C35123   1.641   5.050   5.924  0.8983  0.8044  0.1440
  267MOL0     C35124   1.533   5.065   6.036 -0.6401  0.0577 -0.1385
  267MOL0     C35125   1.405   4.994   5.994  1.0040 -0.2695 -0.6371
  267MOL0     C35126   1.287   5.044   6.085 -0.2456  0.1236  0.6233
  267MOL0     C35127   1.153   4.991   6.024 -0.1063 -0.8815  0.1592
  267MOL0     C35128   1.041   5.032   6.111 -0.2391  0.0464 -0.3030
  267MOL0     N35129   1.015   5.178   6.113  0.3025  0.4858  0.8714
  267MOL0     C35130   1.042   5.286   6.201  0.1844  0.0938  0.2105
  267MOL0     C35131   0.972   5.383   6.141  0.0373 -0.3384  0.2050
  267MOL0     C35132   0.965   5.528   6.187  0.3844 -0.5452  0.1582
  267MOL0     C35133   1.082   5.615   6.141  0.1844  0.1108  0.3197
  267MOL0     C35134   1.213   5.606   6.226 -0.1211 -0.1194  0.2488
  267MOL0     C35135   1.334   5.661   6.150 -0.0484  0.0203  0.1861
  267MOL0     O35136   1.451   5.648   6.227  0.6216  0.6895 -0.3309
  267MOL0     C35137   1.566   5.706   6.183  0.0757 -0.5875  0.4235
  267MOL0     C35138   1.581   5.771   6.062  0.1853  0.6890  0.2893
  267MOL0     C35139   1.704   5.827   6.030 -0.4100  0.5625  0.6107
  267MOL0     C35140   1.823   5.811   6.105 -0.0283 -0.3622  0.0667
  267MOL0     C35141   1.949   5.857   6.050  0.0256 -0.7157 -0.8508
  267MOL0     O35142   2.064   5.818   6.115  0.0490  0.4209  0.3553
  267MOL0     C35143   2.190   5.871   6.076  1.1264  0.0513  0.3116
  267MOL0     C35144   2.284   5.905   6.175 -0.7992 -0.1517 -0.0926
  267MOL0     C35145   2.411   5.953   6.155 -0.2165  0.8021 -0.1391
  267MOL0     C35146   2.464   5.950   6.025 -0.1921 -0.2671 -0.0377
  267MOL0     O35147   2.598   5.978   5.998  0.1968 -0.8015  0.0205
  267MOL0     C35148   2.641   6.117   6.007 -0.3358 -0.0371 -0.8171
  267MOL0     C35149   2.752   6.146   5.898  0.4127  0.3677  0.2672
  267MOL0     C35150   2.788   6.290   5.916 -0.5360  0.6349 -0.1149
  267MOL0     C35151   2.922   6.295   5.830  0.5466  0.5684 -0.0173
  267MOL0     C35152   2.969   6.444   5.820  0.3045 -0.0892 -0.1665
  267MOL0     C35153   3.097   6.460   5.739  0.4867 -0.6090 -1.5971
  267MOL0     C35154   3.224   6.397   5.806  0.7207 -0.2317 -0.1542
  267MOL0     C35155   3.346   6.466   5.753 -0.9923  0.4927  0.1250
  267MOL0    Cl35156   3.388   6.394   5.605  0.0063  0.4909 -0.1607
  267MOL0     C35157   2.376   5.899   5.923 -0.3530  0.3956 -0.1711
  267MOL0     C35158   2.246   5.859   5.951  0.6035  0.2344  0.4762
  267MOL0     O35159   1.943   5.928   5.953  0.5167  0.1349  0.5727
  267MOL0     C35160   1.805   5.751   6.236  0.4216 -0.7367 -0.2944
  267MOL0     C35161   1.676   5.705   6.267 -0.4906  0.2004  0.0351
  267MOL0     N35162   0.905   5.344   6.030  0.1751 -0.1993  1.1989
  267MOL0     N35163   0.931   5.218   6.011  0.6116  0.6322  0.1903
  267MOL0     C35164   2.202   5.200   5.770  0.4161  0.0968  1.1875
  267MOL0     C35165   2.298   5.208   5.666 -0.4956  0.4068 -0.2591
  267MOL0     C35166   2.543   5.145   5.289  0.9113  0.2077  0.1725
  267MOL0     C35167   2.625   5.225   5.215  0.2083 -0.0543 -0.4874
  267MOL0     C35168   2.701   5.173   5.115 -0.6503  0.3568 -0.7990
  267MOL0     C35169   2.695   5.043   5.082  0.2713 -0.1104  0.4360
  267MOL0     O35170   2.787   5.007   4.985  0.0259 -0.4651 -0.3913
  267MOL0     C35171   2.786   4.869   4.942  0.3616 -0.9386  0.2785
  267MOL0     C35172   2.890   4.873   4.828  0.2610  0.9428 -0.1167
  267MOL0     C35173   2.987   4.757   4.855 -0.8170  0.5956  0.0851
  267MOL0     C35174   2.940   4.606   4.839 -0.4924  0.3695 -0.8316
  267MOL0     C35175   2.881   4.591   4.705 -0.7427  0.2235 -0.9691
  267MOL0     C35176   2.840   4.581   4.595 -0.6464  1.1632  0.2750
  267MOL0     C35177   2.606   4.962   5.153 -0.8262  0.3317  0.7406
  267MOL0     C35178   2.524   5.010   5.255 -0.0743 -0.8676  0.0710
  267MOL0     H35179   2.194   4.948   5.483  1.2409 -0.5747 -0.1498
  267MOL0     H35180   2.021   4.934   5.667  0.5004 -1.0751  5.2504
  267MOL0     H35181   1.878   4.956   5.835 -0.2145 -0.4268  1.0212
  267MOL0     H35182   1.826   5.102   5.753  1.0297 -2.1978 -0.0354
  267MOL0     H35183   1.784   5.208   5.965 -0.5640  0.2122 -2.4287
  267MOL0     H35184   1.827   5.061   6.054  1.5995  0.7528 -0.2723
  267MOL0     H35185   1.642   4.946   5.893  0.8350  0.3236  1.6665
  267MOL0     H35186   1.609   5.105   5.835  2.7675  1.1394 -0.3640
  267MOL0     H35187   1.584   5.017   6.120  4.1267 -1.1312 -3.3160
  267MOL0     H35188   1.512   5.171   6.053 -0.1117  0.4780 -1.9161
  267MOL0     H35189   1.417   4.885   5.994  1.2010 -0.2722 -2.2765
  267MOL0     H35190   1.380   5.036   5.896 -1.0477  1.5725  0.5878
  267MOL0     H35191   1.284   5.154   6.088 -5.5038  0.2098  2.5224
  267MOL0     H35192   1.298   5.009   6.188  0.0665  0.7760  0.8192
  267MOL0     H35193   1.145   5.034   5.924 -1.9309  1.9582  1.3990
  267MOL0     H35194   1.162   4.883   6.011  1.6542 -0.7652  0.1975
  267MOL0     H35195   1.059   4.991   6.211 -4.2129 -1.3644 -0.0001
  267MOL0     H35196   0.954   4.972   6.083  1.2793 -2.2180 -0.4708
  267MOL0     H35197   1.116   5.287   6.280  0.5623 -3.6300  0.0499
  267MOL0     H35198   0.952   5.532   6.296 -0.1990 -1.1666  0.1148
  267MOL0     H35199   0.876   5.568   6.140  0.7885 -0.5209 -0.5929
  267MOL0     H35200   1.034   5.713   6.144 -2.9261 -1.2477 -0.7608
  267MOL0     H35201   1.092   5.582   6.037  1.8075 -1.5993  0.9704
  267MOL0     H35202   1.199   5.656   6.322  0.5769 -2.1156  1.4656
  267MOL0     H35203   1.229   5.502   6.257 -2.6008 -0.7601 -0.3797
  267MOL0     H35204   1.312   5.768   6.138  2.2816  0.8071  2.0893
  267MOL0     H35205   1.352   5.614   6.053  0.7176  1.5846 -0.4703
  267MOL0     H35206   1.507   5.788   5.984  0.8624  0.2857 -0.4476
  267MOL0     H35207   1.705   5.873   5.932  1.3946 -2.1874 -0.7982
  267MOL0     H35208   2.247   5.903   6.277 -0.2697 -0.7528  0.0917
  267MOL0     H35209   2.471   5.968   6.244 -1.8274  0.1016  1.1262
  267MOL0     H35210   2.684   6.138   6.106 -1.5957 -2.0952  0.2298
  267MOL0     H35211   2.558   6.188   6.001  1.0517  1.7724  0.2218
  267MOL0     H35212   2.721   6.113   5.799 -1.6047 -0.7416  1.1908
  267MOL0     H35213   2.832   6.081   5.933  0.2314  0.4994  0.9433
  267MOL0     H35214   2.809   6.306   6.022 -0.7151 -1.6070  0.3029
  267MOL0     H35215   2.708   6.357   5.882  0.1089  0.1568 -2.7733
  267MOL0     H35216   2.999   6.235   5.880  0.1811  0.5389  0.5176
  267MOL0     H35217   2.904   6.257   5.730  1.0176 -2.0277  0.8155
  267MOL0     H35218   2.988   6.489   5.918 -2.2327  2.4824 -0.7296
  267MOL0     H35219   2.886   6.502   5.779 -1.0522  0.3911  2.9446
  267MOL0     H35220   3.109   6.569   5.731 -0.2441 -0.5791 -2.4414
  267MOL0     H35221   3.075   6.427   5.637 -0.3160  4.4739 -3.3809
  267MOL0     H35222   3.218   6.389   5.915  0.0288 -2.8091 -0.3124
  267MOL0     H35223   3.225   6.296   5.765  3.7366  0.0490 -1.0152
  267MOL0     H35224   3.437   6.455   5.814 -2.6207  1.3885  2.8766
  267MOL0     H35225   3.321   6.572   5.746 -0.6930  0.6441  1.2639
  267MOL0     H35226   2.409   5.886   5.820 -4.0180  1.0392 -1.5848
  267MOL0     H35227   2.192   5.808   5.872  2.1487 -2.5466  1.0899
  267MOL0     H35228   1.894   5.754   6.297  0.6079  3.1837 -0.5491
  267MOL0     H35229   1.656   5.665   6.365  1.6234 -0.7907  0.1141
  267MOL0     H35230   2.191   5.275   5.848  0.1889 -0.5202  1.7602
  267MOL0     H35231   2.374   5.285   5.670  1.3626 -1.3828  1.1875
  267MOL0     H35232   2.634   5.328   5.248 -0.1266 -0.2242  0.1567
  267MOL0     H35233   2.770   5.243   5.069  2.0343 -1.1405  0.6998
  267MOL0     H35234   2.688   4.846   4.899  0.7720 -0.9170 -0.7021
  267MOL0     H35235   2.799   4.802   5.027 -1.2388 -1.5427  0.0817
  267MOL0     H35236   2.851   4.873   4.726 -0.8750  4.6192  0.1610
  267MOL0     H35237   2.949   4.965   4.832  2.8825 -0.6740  1.4898
  267MOL0     H35238   3.008   4.765   4.962 -2.1732 -1.0470  0.5028
  267MOL0     H35239   3.075   4.781   4.794 -0.6586  0.3546  0.2194
  267MOL0     H35240   3.019   4.533   4.858 -0.5719  0.1670 -1.2699
  267MOL0     H35241   2.869   4.579   4.918 -1.1906  0.1493 -1.5141
  267MOL0     H35242   2.801   4.578   4.495  0.7057  0.5326 -0.2627
  267MOL0     H35243   2.598   4.856   5.130  2.5015  0.4793 -1.9189
  267MOL0     H35244   2.463   4.941   5.313 -3.2395  2.0797  0.5857
  268MOL0     O35245   8.444  10.396   0.474  0.1349 -0.6503 -0.2408
  268MOL0     C35246   8.435  10.438   0.362 -1.3968 -1.3613 -0.3723
  268MOL0     O35247   8.323  10.444   0.297 -0.1741 -0.0128 -0.0909
  268MOL0     C35248   8.228  10.340   0.316  0.9586 -0.0013  0.1216
  268MOL0     C35249   8.241  10.222   0.386 -0.6066 -0.2049  0.5829
  268MOL0     C35250   8.136  10.142   0.415  0.2928 -0.5395 -0.1620
  268MOL0     C35251   8.015  10.156   0.342  0.4240 -0.0534  0.4876
  268MOL0     O35252   7.929  10.050   0.360  0.6113 -0.7087 -0.5358
  268MOL0     C35253   7.827  10.030   0.269  0.0986 -0.3202 -0.1269
  268MOL0     C35254   7.763   9.892   0.285  0.1691 -0.0088 -0.9915
  268MOL0     C35255   7.616   9.896   0.353  0.2583 -0.9180  0.7958
  268MOL0     C35256   7.512   9.932   0.246 -0.1261  0.2305 -0.0307
  268MOL0     C35257   7.443   9.820   0.171 -0.4848  0.3797  0.1016
  268MOL0     C35258   7.522   9.717   0.098  1.2980  0.0726 -0.2382
  268MOL0     C35259   7.425   9.616   0.041  0.8962  0.1552  0.2894
  268MOL0     C35260   7.481   9.508  -0.055 -0.2264 -0.5959  0.0727
  268MOL0     N35261   7.594   9.439   0.004  0.3095 -0.4291  0.5561
  268MOL0     C35262   7.726   9.481  -0.009  0.1351  0.6173  0.6497
  268MOL0     C35263   7.800   9.384   0.058 -0.1930 -0.1216  0.4902
  268MOL0     C35264   7.952   9.365   0.064  0.1505 -0.2831 -0.0245
  268MOL0     C35265   8.011   9.345  -0.080  0.4507 -0.2612  0.1461
  268MOL0     C35266   7.950   9.230  -0.158  1.2005  0.6284 -0.1150
  268MOL0     C35267   7.952   9.093  -0.071 -0.5744 -0.4283 -0.1157
  268MOL0     O35268   7.909   8.992  -0.157 -0.1743  0.8017 -0.3317
  268MOL0     C35269   7.772   8.979  -0.178 -0.3353 -0.7590  0.0390
  268MOL0     C35270   7.682   9.070  -0.123  0.1584 -0.0298  0.1327
  268MOL0     C35271   7.543   9.046  -0.128 -0.3717  0.5141  0.1487
  268MOL0     C35272   7.493   8.944  -0.213 -0.0565  0.2732 -0.2083
  268MOL0     C35273   7.343   8.937  -0.224  0.6247  0.4091  0.9900
  268MOL0     O35274   7.278   9.021  -0.136  0.8852  0.0162  0.3104
  268MOL0     C35275   7.140   9.052  -0.138 -0.2715  0.3927 -0.1184
  268MOL0     C35276   7.042   9.004  -0.226 -1.0145  0.2450 -0.1457
  268MOL0     C35277   6.919   9.064  -0.233  1.0376  0.0775  0.1758
  268MOL0     C35278   6.892   9.173  -0.142  0.4294 -0.5910 -0.3006
  268MOL0     O35279   6.771   9.235  -0.159  0.3150  0.4891 -0.4002
  268MOL0     C35280   6.680   9.204  -0.052 -0.3981 -0.8410  0.5879
  268MOL0     C35281   6.558   9.122  -0.096 -0.7212  0.0661  0.2212
  268MOL0     C35282   6.467   9.098   0.021 -0.9866  0.2150  0.0019
  268MOL0     C35283   6.355   8.997  -0.000 -0.1503  0.2842 -0.4725
  268MOL0     C35284   6.299   8.957   0.131 -0.3114  0.4873  0.7499
  268MOL0     C35285   6.172   9.054   0.160  0.4381  0.7236 -0.1202
  268MOL0     C35286   6.138   9.020   0.314 -0.9900 -0.2352 -0.5230
  268MOL0     C35287   6.001   9.076   0.355 -1.2825  0.3888  0.1571
  268MOL0    Cl35288   5.884   8.957   0.303 -0.0787  0.0553  0.4405
  268MOL0     C35289   6.994   9.227  -0.068 -1.5584 -1.0380 -0.0496
  268MOL0     C35290   7.116   9.160  -0.058 -0.7577 -0.4691 -0.7263
  268MOL0     O35291   7.296   8.860  -0.308  0.3797 -0.5197 -0.5013
  268MOL0     C35292   7.591   8.848  -0.255  0.9076 -0.0799  1.1061
  268MOL0     C35293   7.730   8.867  -0.240  0.0208 -0.3885  0.5739
  268MOL0     N35294   7.711   9.299   0.125 -1.3378  0.1077  0.6621
  268MOL0     N35295   7.591   9.335   0.104  0.1520 -0.4139  0.3264
  268MOL0     C35296   7.999  10.262   0.258 -0.2775 -1.1472  0.7372
  268MOL0     C35297   8.106  10.355   0.246 -0.6846 -0.5894  0.2684
  268MOL0     C35298   8.559  10.470   0.286  0.1393 -0.2330  0.2436
  268MOL0     C35299   8.541  10.503   0.145 -0.0589  0.0644  0.3509
  268MOL0     C35300   8.653  10.549   0.071 -0.9183  0.0407 -0.0238
  268MOL0     C35301   8.777  10.552   0.130  0.0107 -0.2851 -0.0368
  268MOL0     O35302   8.874  10.589   0.037 -0.0463 -0.8249 -0.2544
  268MOL0     C35303   9.011  10.563   0.057 -0.1825  0.3414 -0.7856
  268MOL0     C35304   9.086  10.690   0.102  0.7438 -0.2826 -0.4646
  268MOL0     C35305   9.234  10.671   0.113 -0.0456 -0.2969 -0.6806
  268MOL0     C35306   9.308  10.799   0.160 -0.8552  0.5411  0.2894
  268MOL0     C35307   9.300  10.914   0.066 -0.5922 -0.6693  0.0041
  268MOL0     C35308   9.300  11.012   0.004 -0.7708 -0.7148 -0.0300
  268MOL0     C35309   8.796  10.523   0.267 -0.2719  0.3972  0.7796
  268MOL0     C35310   8.689  10.478   0.343  0.1889 -1.0919  0.5482
  268MOL0     H35311   8.334  10.187   0.428  0.0181  1.4195  0.6326
  268MOL0     H35312   8.149  10.060   0.485  1.6696  1.1980  1.7025
  268MOL0     H35313   7.875  10.033   0.170 -0.0168 -1.7405 -0.2431
  268MOL0     H35314   7.748  10.106   0.273  0.2138 -0.1983 -0.1913
  268MOL0     H35315   7.818   9.830   0.357  1.3733  2.5978  0.4455
  268MOL0     H35316   7.757   9.844   0.187 -2.0563  0.1337 -0.9805
  268MOL0     H35317   7.610   9.971   0.433  0.1194 -0.4527  0.3563
  268MOL0     H35318   7.588   9.795   0.384  0.2268 -0.7631  1.2938
  268MOL0     H35319   7.448  10.011   0.285 -2.5776 -3.0138  3.2596
  268MOL0     H35320   7.576   9.980   0.171  2.0142 -0.2033  1.4279
  268MOL0     H35321   7.377   9.869   0.098  0.7685  0.2706 -1.1409
  268MOL0     H35322   7.383   9.778   0.252 -0.1527  1.8524  1.1606
  268MOL0     H35323   7.579   9.662   0.174 -1.2085 -1.6254  0.5252
  268MOL0     H35324   7.594   9.767   0.032  0.5423  1.8908  0.2661
  268MOL0     H35325   7.389   9.561   0.128  1.7584 -1.8707 -0.5574
  268MOL0     H35326   7.341   9.657  -0.015  1.6686  0.6467 -0.5453
  268MOL0     H35327   7.513   9.545  -0.152 -0.8020 -3.4503 -1.3213
  268MOL0     H35328   7.410   9.426  -0.071 -0.1202 -0.6336 -0.2090
  268MOL0     H35329   7.772   9.567  -0.057 -0.5320 -1.2840 -3.8720
  268MOL0     H35330   7.979   9.279   0.124  2.9075  0.0128 -0.6856
  268MOL0     H35331   7.992   9.457   0.108  1.2707  1.0123 -3.4097
  268MOL0     H35332   8.115   9.321  -0.060  0.3900  1.6460  3.6682
  268MOL0     H35333   8.013   9.439  -0.135  0.0865  0.4839  1.3551
  268MOL0     H35334   7.847   9.264  -0.176  0.7337 -0.1861  0.8862
  268MOL0     H35335   7.997   9.207  -0.254 -1.3821 -0.5034 -1.2226
  268MOL0     H35336   7.906   9.096   0.029  2.3121  1.9862  1.3155
  268MOL0     H35337   8.058   9.072  -0.058  0.1896  0.9306 -3.3316
  268MOL0     H35338   7.721   9.154  -0.065  0.3094  1.8325 -2.4839
  268MOL0     H35339   7.473   9.109  -0.075 -0.2441 -0.8340  2.0304
  268MOL0     H35340   7.056   8.921  -0.295 -1.8924 -0.4077  0.4488
  268MOL0     H35341   6.846   9.029  -0.305 -0.7701  0.1218  1.9015
  268MOL0     H35342   6.650   9.301  -0.009  1.4921  0.7194 -1.3964
  268MOL0     H35343   6.737   9.160   0.029  1.4739 -1.0402 -0.7795
  268MOL0     H35344   6.592   9.027  -0.138 -1.4117 -0.5231  0.9731
  268MOL0     H35345   6.504   9.172  -0.176  1.0206 -3.2713 -3.4012
  268MOL0     H35346   6.414   9.190   0.048 -0.5980  0.5568 -0.3922
  268MOL0     H35347   6.536   9.065   0.100  0.7785  1.2990 -1.0237
  268MOL0     H35348   6.275   9.048  -0.054 -0.0505  2.2545  1.1032
  268MOL0     H35349   6.382   8.908  -0.057 -0.5477 -0.2690  0.1907
  268MOL0     H35350   6.374   8.968   0.210  2.1262  1.9683 -1.5748
  268MOL0     H35351   6.274   8.851   0.135  0.1065  0.3978  1.0733
  268MOL0     H35352   6.089   9.023   0.096 -0.1690 -3.2211  2.2644
  268MOL0     H35353   6.192   9.161   0.149  1.9339  0.5478  0.6285
  268MOL0     H35354   6.142   8.911   0.323 -0.3026 -0.4494 -2.8484
  268MOL0     H35355   6.211   9.057   0.386 -2.0461  2.1333 -0.5614
  268MOL0     H35356   5.995   9.178   0.316  2.5823  2.0447  3.1168
  268MOL0     H35357   5.991   9.072   0.464 -0.3211 -1.1278  0.2292
  268MOL0     H35358   6.977   9.321  -0.016 -1.2371 -0.4578 -0.9768
  268MOL0     H35359   7.193   9.197   0.009 -2.4824  1.5655  0.2606
  268MOL0     H35360   7.558   8.762  -0.312  2.2923  2.2565 -3.8342
  268MOL0     H35361   7.798   8.801  -0.293 -0.6265  2.6219 -4.7103
  268MOL0     H35362   7.912  10.267   0.193  2.2902 -3.7926 -3.3094
  268MOL0     H35363   8.100  10.437   0.175 -1.1662 -0.1605  0.7915
  268MOL0     H35364   8.445  10.515   0.096  0.4477  3.0117 -0.1405
  268MOL0     H35365   8.629  10.585  -0.028 -0.1228 -1.4690 -0.8018
  268MOL0     H35366   9.060  10.542  -0.039  2.0387 -2.7071  0.8471
  268MOL0     H35367   9.029  10.480   0.126  2.4148  0.5936 -1.0612
  268MOL0     H35368   9.069  10.764   0.023 -0.2695  1.8324  1.6098
  268MOL0     H35369   9.048  10.724   0.199  0.9394  0.8388 -0.7691
  268MOL0     H35370   9.264  10.632   0.015 -1.7491 -0.3368 -1.2198
  268MOL0     H35371   9.259  10.593   0.186 -0.1171 -1.8912 -2.2829
  268MOL0     H35372   9.265  10.844   0.250 -0.1393  0.7983  0.5116
  268MOL0     H35373   9.411  10.770   0.183  0.1301  1.1751 -2.8487
  268MOL0     H35374   9.299  11.106  -0.048  1.6511 -0.7743 -0.3179
  268MOL0     H35375   8.895  10.519   0.310  0.2767 -3.7988 -0.4109
  268MOL0     H35376   8.703  10.447   0.446  1.0029 -2.8411 -0.0369
  269MOL0     O35377   0.749   6.905   0.843 -0.4259 -0.5609  0.3038
  269MOL0     C35378   0.679   6.857   0.754 -0.1987  0.3898 -0.2803
  269MOL0     O35379   0.725   6.806   0.640 -0.0353  0.1114  0.0134
  269MOL0     C35380   0.858   6.778   0.624 -0.6398 -0.5453  0.2364
  269MOL0     C35381   0.908   6.651   0.644  0.9409 -0.5586  0.1660
  269MOL0     C35382   1.043   6.623   0.642 -0.4683  0.2544 -0.6484
  269MOL0     C35383   1.136   6.728   0.613  0.3551  0.5958  0.0267
  269MOL0     O35384   1.269   6.708   0.590  0.0815  0.0027 -0.4560
  269MOL0     C35385   1.323   6.575   0.582 -0.0765 -0.7530 -0.1123
  269MOL0     C35386   1.471   6.601   0.563 -0.9183  0.6866 -0.5553
  269MOL0     C35387   1.554   6.479   0.589 -0.5922 -0.1235 -0.0991
  269MOL0     C35388   1.699   6.530   0.582 -0.4203 -0.5152  0.2992
  269MOL0     C35389   1.808   6.429   0.613  0.4889 -0.9248  0.8745
  269MOL0     C35390   1.943   6.502   0.611  0.7732 -0.0741  0.3756
  269MOL0     C35391   1.995   6.518   0.463  0.2551 -0.4361 -0.3248
  269MOL0     C35392   2.107   6.419   0.431 -0.1470 -0.3734  0.0033
  269MOL0     N35393   2.233   6.435   0.508  0.4605 -0.4595  0.1634
  269MOL0     C35394   2.321   6.545   0.481 -0.3928  0.9747  0.1329
  269MOL0     C35395   2.427   6.530   0.565  0.1458  0.5978  0.0421
  269MOL0     C35396   2.551   6.613   0.576 -0.3344 -0.4400 -0.6512
  269MOL0     C35397   2.642   6.575   0.453  0.2186 -0.3696  0.0082
  269MOL0     C35398   2.773   6.652   0.465  1.0429  0.0268 -0.8245
  269MOL0     C35399   2.864   6.631   0.352 -0.2871  0.1353 -0.0770
  269MOL0     O35400   2.966   6.732   0.365 -0.7795 -0.0727 -0.6860
  269MOL0     C35401   2.978   6.824   0.258 -0.2964 -1.4504  0.3342
  269MOL0     C35402   3.098   6.832   0.185  0.2341 -0.2317  0.4275
  269MOL0     C35403   3.095   6.915   0.064 -0.0231 -0.5477  0.1042
  269MOL0     C35404   2.984   6.990   0.030  0.0549 -0.8038  0.2397
  269MOL0     C35405   3.000   7.080  -0.085  0.7062  0.4438 -0.7825
  269MOL0     O35406   3.116   7.072  -0.147 -0.3117 -0.0869  0.1171
  269MOL0     C35407   3.131   7.167  -0.244 -0.8012 -1.0115  0.1070
  269MOL0     C35408   3.131   7.310  -0.214  0.1930  0.0962  0.6905
  269MOL0     C35409   3.134   7.405  -0.320 -0.9317  0.0881  0.5169
  269MOL0     C35410   3.152   7.364  -0.455 -0.7953 -0.6402  0.4838
  269MOL0     O35411   3.171   7.444  -0.563  0.6567 -0.3620  0.0497
  269MOL0     C35412   3.248   7.567  -0.552  0.3828  0.3601 -0.7116
  269MOL0     C35413   3.393   7.541  -0.554  0.0091  0.1296  0.5269
  269MOL0     C35414   3.473   7.665  -0.509  0.0751  0.1065 -0.2991
  269MOL0     C35415   3.614   7.658  -0.563  0.5407  0.5455 -0.3121
  269MOL0     C35416   3.714   7.759  -0.513  0.9458 -0.4278  0.8807
  269MOL0     C35417   3.768   7.848  -0.624 -0.3675  0.9635 -0.4838
  269MOL0     C35418   3.868   7.951  -0.566 -0.3117 -0.5838  0.4832
  269MOL0     C35419   3.922   8.051  -0.669 -0.5188  0.4821  0.4279
  269MOL0    Cl35420   3.796   8.150  -0.732  0.0615  0.2987 -0.2033
  269MOL0     C35421   3.153   7.223  -0.483 -0.3030 -0.4645  0.0709
  269MOL0     C35422   3.141   7.132  -0.377 -0.5172 -0.2193  0.3773
  269MOL0     O35423   2.907   7.160  -0.106 -0.4535  0.2602  0.7391
  269MOL0     C35424   2.867   6.986   0.105 -0.7574 -0.4218  0.9074
  269MOL0     C35425   2.864   6.900   0.221 -0.3529 -0.3176  0.5724
  269MOL0     N35426   2.401   6.410   0.640 -0.2752 -0.3016 -0.1321
  269MOL0     N35427   2.285   6.355   0.608 -0.1087  0.0496  0.9361
  269MOL0     C35428   1.088   6.860   0.593 -0.0324  0.8389  0.4436
  269MOL0     C35429   0.954   6.883   0.609  0.1376  0.4965  0.5710
  269MOL0     C35430   0.539   6.841   0.802  0.8012 -0.9781  0.3296
  269MOL0     C35431   0.481   6.908   0.909  0.2748  0.3366 -0.0458
  269MOL0     C35432   0.346   6.899   0.944  0.1667  0.3023  0.6591
  269MOL0     C35433   0.263   6.817   0.868  0.0658  0.1068  0.3212
  269MOL0     O35434   0.138   6.783   0.898  0.3019 -0.0972 -0.0495
  269MOL0     C35435   0.108   6.790   1.034 -0.3348  0.2381 -0.1094
  269MOL0     C35436  -0.041   6.764   1.053 -0.6463 -0.0939 -0.4553
  269MOL0     C35437  -0.134   6.887   1.029  0.0394 -0.4143 -0.6240
  269MOL0     C35438  -0.283   6.857   1.054  0.2962 -0.0902 -0.7996
  269MOL0     C35439  -0.310   6.797   1.187 -0.9213 -0.4275 -0.6590
  269MOL0     C35440  -0.333   6.744   1.293  0.0867  0.5254  0.3307
  269MOL0     C35441   0.324   6.748   0.757 -0.2358  0.4993 -0.5639
  269MOL0     C35442   0.460   6.752   0.728 -0.6164  0.1704  0.8641
  269MOL0     H35443   0.839   6.567   0.651  1.0488 -0.8173 -1.5251
  269MOL0     H35444   1.076   6.520   0.651 -0.0888  0.3762 -0.6402
  269MOL0     H35445   1.283   6.522   0.495 -2.3674 -0.0612  0.4587
  269MOL0     H35446   1.320   6.506   0.667 -1.4251  1.3882  1.6884
  269MOL0     H35447   1.506   6.681   0.629 -0.1401  0.5490 -0.7986
  269MOL0     H35448   1.489   6.630   0.460  0.6241  0.4946 -0.3632
  269MOL0     H35449   1.526   6.407   0.511 -0.6893  0.8980 -1.0343
  269MOL0     H35450   1.539   6.429   0.685  2.1498 -0.6621  0.1138
  269MOL0     H35451   1.733   6.567   0.484 -1.3187 -0.8559 -0.1572
  269MOL0     H35452   1.710   6.617   0.646 -1.2017 -0.9198  0.9960
  269MOL0     H35453   1.806   6.340   0.549  2.1570  0.6485 -1.5497
  269MOL0     H35454   1.786   6.402   0.716  0.8046  0.5477  1.3520
  269MOL0     H35455   2.020   6.442   0.659 -0.8855 -1.9324  0.8781
  269MOL0     H35456   1.942   6.593   0.670  2.9350 -1.7161  3.1612
  269MOL0     H35457   1.915   6.519   0.389  1.3700 -1.8398 -1.6200
  269MOL0     H35458   2.033   6.620   0.470 -1.0727 -0.0011  1.0395
  269MOL0     H35459   2.147   6.421   0.330  1.4139 -2.1074  0.5279
  269MOL0     H35460   2.078   6.314   0.445 -2.7552  0.2158 -0.4798
  269MOL0     H35461   2.303   6.625   0.410  1.1305  0.7338 -0.5606
  269MOL0     H35462   2.600   6.605   0.673 -1.0580 -0.6615 -0.2959
  269MOL0     H35463   2.519   6.716   0.560 -1.8036 -0.1454  3.1023
  269MOL0     H35464   2.586   6.618   0.370 -2.4562  0.4898  2.1134
  269MOL0     H35465   2.656   6.467   0.444 -1.6716 -0.6757  0.2884
  269MOL0     H35466   2.753   6.759   0.461  1.4976  0.2575  1.4809
  269MOL0     H35467   2.829   6.636   0.558  2.9127  2.2808 -1.4673
  269MOL0     H35468   2.813   6.628   0.255 -0.6001 -1.1841  0.1100
  269MOL0     H35469   2.901   6.529   0.366 -1.7894 -0.4782 -0.3800
  269MOL0     H35470   3.185   6.773   0.213  0.9601  0.1912 -0.8801
  269MOL0     H35471   3.190   6.911   0.012  1.5390  2.4585  2.3958
  269MOL0     H35472   3.124   7.334  -0.109 -0.8986  0.0801  0.6366
  269MOL0     H35473   3.134   7.508  -0.286 -0.6231  0.5389 -0.7910
  269MOL0     H35474   3.213   7.612  -0.459  3.2716 -0.6661  1.0050
  269MOL0     H35475   3.224   7.632  -0.636  1.5191  0.0319 -1.3104
  269MOL0     H35476   3.422   7.516  -0.656  1.4507 -0.2672  1.0153
  269MOL0     H35477   3.425   7.463  -0.483  3.0610  1.0910  0.3438
  269MOL0     H35478   3.468   7.665  -0.399  1.6568 -0.7919 -0.1980
  269MOL0     H35479   3.421   7.756  -0.539 -1.0570 -0.4998 -0.2532
  269MOL0     H35480   3.657   7.561  -0.534 -3.0121 -1.2662 -0.4635
  269MOL0     H35481   3.599   7.653  -0.671  0.4234 -1.4553 -0.2469
  269MOL0     H35482   3.802   7.712  -0.467  3.2366  3.2631  0.6829
  269MOL0     H35483   3.671   7.825  -0.437  1.4088  0.8556  0.0490
  269MOL0     H35484   3.679   7.888  -0.672 -1.1465 -2.4403 -2.1396
  269MOL0     H35485   3.813   7.790  -0.706 -0.1839  0.8932 -0.3359
  269MOL0     H35486   3.835   8.007  -0.478  3.7904  0.5658  1.4910
  269MOL0     H35487   3.952   7.894  -0.525  0.9192 -0.6853 -1.9961
  269MOL0     H35488   3.965   7.991  -0.751 -0.5115  1.0396  0.0198
  269MOL0     H35489   4.003   8.111  -0.626 -0.6101 -0.0978  1.4416
  269MOL0     H35490   3.185   7.197  -0.584 -0.1115  0.5903 -0.1558
  269MOL0     H35491   3.154   7.030  -0.412 -0.2180  0.2046 -0.7700
  269MOL0     H35492   2.783   7.045   0.071  2.0387  1.9376 -2.7844
  269MOL0     H35493   2.770   6.891   0.275 -1.1401  0.8553 -0.5558
  269MOL0     H35494   1.167   6.929   0.564  2.4809 -2.8790 -2.4784
  269MOL0     H35495   0.909   6.980   0.591 -0.7195 -0.0070 -0.0955
  269MOL0     H35496   0.547   6.955   0.981 -1.4778  1.7954  0.6870
  269MOL0     H35497   0.300   6.958   1.022  0.3215  1.4833 -0.1085
  269MOL0     H35498   0.127   6.889   1.077 -2.3801  0.9006 -0.5740
  269MOL0     H35499   0.168   6.718   1.090 -0.5613  0.9904  1.1423
  269MOL0     H35500  -0.080   6.692   0.980  0.8803  1.3163 -2.7847
  269MOL0     H35501  -0.053   6.714   1.149 -0.1982 -0.9877 -0.8541
  269MOL0     H35502  -0.124   6.934   0.930  0.4013  2.2336  0.5880
  269MOL0     H35503  -0.109   6.959   1.107  3.7268 -1.1069 -0.9957
  269MOL0     H35504  -0.332   6.955   1.059  0.7702  0.1345 -0.4825
  269MOL0     H35505  -0.332   6.793   0.980  1.4192 -1.6672 -0.2191
  269MOL0     H35506  -0.361   6.692   1.383  1.2898 -2.0998 -0.6962
  269MOL0     H35507   0.254   6.697   0.692  1.9499 -0.2546 -2.5115
  269MOL0     H35508   0.496   6.690   0.647 -2.0274  0.8758 -0.3363
  270MOL0     O35509   0.875   0.810   1.474 -0.4834  0.1207 -0.7835
  270MOL0     C35510   0.898   0.728   1.564 -0.0511  0.0035  0.0307
  270MOL0     O35511   0.811   0.633   1.626 -0.1576  0.0531  0.2128
  270MOL0     C35512   0.683   0.631   1.582  0.0051  0.4761  0.9072
  270MOL0     C35513   0.645   0.621   1.451  0.3435 -0.6293  1.4962
  270MOL0     C35514   0.507   0.617   1.425 -0.0553 -0.3076  0.7378
  270MOL0     C35515   0.414   0.602   1.527  0.7935 -0.0998 -0.4579
  270MOL0     O35516   0.281   0.583   1.515 -0.2223  0.5063 -0.7088
  270MOL0     C35517   0.229   0.539   1.391  0.4790  0.4001  0.3794
  270MOL0     C35518   0.084   0.521   1.400  0.6326  0.9430 -0.3695
  270MOL0     C35519   0.033   0.453   1.532 -0.4368 -0.0049  1.2401
  270MOL0     C35520  -0.098   0.382   1.498  0.0861  0.1268 -0.5004
  270MOL0     C35521  -0.156   0.327   1.632 -0.4150 -0.3625 -0.3195
  270MOL0     C35522  -0.279   0.231   1.610  0.1936  0.4861  0.2296
  270MOL0     C35523  -0.302   0.149   1.740  0.6362 -0.1322 -0.7928
  270MOL0     C35524  -0.437   0.066   1.762 -1.2195 -0.5653 -0.4224
  270MOL0     N35525  -0.441   0.021   1.898  0.5451  0.5001 -0.1906
  270MOL0     C35526  -0.561   0.034   1.960  0.3068 -0.1288 -0.0649
  270MOL0     C35527  -0.562  -0.066   2.050  0.0590 -0.9216  0.0242
  270MOL0     C35528  -0.671  -0.097   2.148 -0.3603 -0.6407  0.0462
  270MOL0     C35529  -0.770  -0.200   2.098 -0.2757 -0.1040 -0.2392
  270MOL0     C35530  -0.866  -0.173   1.975 -1.0477 -0.7361 -0.4715
  270MOL0     C35531  -0.961  -0.060   1.985  0.3869  0.5726  0.5300
  270MOL0     O35532  -1.016  -0.063   2.115  0.0716  0.1263 -0.7574
  270MOL0     C35533  -1.149  -0.086   2.114  0.2712 -1.2619  0.2671
  270MOL0     C35534  -1.197  -0.220   2.129  0.4359 -0.4118 -0.2024
  270MOL0     C35535  -1.338  -0.242   2.136 -0.5662  0.0412 -0.3304
  270MOL0     C35536  -1.429  -0.134   2.129  0.3289 -0.1742 -0.5751
  270MOL0     C35537  -1.566  -0.164   2.161 -0.5196 -0.0623 -0.5505
  270MOL0     O35538  -1.586  -0.285   2.185 -0.4403  0.1619  0.7746
  270MOL0     C35539  -1.698  -0.344   2.225  0.8163  0.0437  0.9939
  270MOL0     C35540  -1.733  -0.468   2.173  0.5925  0.0892  0.4684
  270MOL0     C35541  -1.848  -0.524   2.221  0.4242  0.1613 -0.8028
  270MOL0     C35542  -1.935  -0.463   2.311 -0.0466  0.4979  1.0044
  270MOL0     O35543  -2.051  -0.526   2.350  0.6185  0.0401  0.6969
  270MOL0     C35544  -2.155  -0.489   2.258 -0.0127 -0.3419  0.5744
  270MOL0     C35545  -2.171  -0.570   2.134  0.2163 -0.2811 -0.5973
  270MOL0     C35546  -2.190  -0.718   2.172  0.1033 -0.2914 -0.2845
  270MOL0     C35547  -2.327  -0.751   2.233  0.6776 -0.1160 -0.1031
  270MOL0     C35548  -2.351  -0.887   2.289 -0.0990 -0.8813 -0.6051
  270MOL0     C35549  -2.263  -0.934   2.405 -0.2832 -0.0906  0.5858
  270MOL0     C35550  -2.282  -0.850   2.538 -0.0151  0.5740  0.3543
  270MOL0     C35551  -2.244  -0.928   2.650  0.3189 -0.9481  0.3319
  270MOL0    Cl35552  -2.077  -0.997   2.632 -0.4763 -0.1477  0.1537
  270MOL0     C35553  -1.906  -0.326   2.349  0.0595  0.1464  0.0011
  270MOL0     C35554  -1.782  -0.273   2.321  0.6627  0.1378  0.4895
  270MOL0     O35555  -1.648  -0.078   2.154 -0.1243 -0.5727  1.2087
  270MOL0     C35556  -1.386  -0.002   2.123 -0.3674 -0.0527 -0.3024
  270MOL0     C35557  -1.249   0.024   2.111  0.3509  0.3909  0.9646
  270MOL0     N35558  -0.441  -0.127   2.056  1.0424  1.0638 -0.1741
  270MOL0     N35559  -0.370  -0.077   1.958 -0.4506  0.4537 -0.0682
  270MOL0     C35560   0.456   0.616   1.657 -0.3236  0.2665 -0.6364
  270MOL0     C35561   0.590   0.634   1.687  0.1954 -0.3337  0.7148
  270MOL0     C35562   1.039   0.705   1.600 -0.6916 -0.6265 -0.6062
  270MOL0     C35563   1.147   0.757   1.532 -0.7940 -0.4130  0.4748
  270MOL0     C35564   1.277   0.742   1.571  0.0199 -0.0305  0.6706
  270MOL0     C35565   1.308   0.681   1.692 -0.3130 -0.3315  0.4927
  270MOL0     O35566   1.439   0.665   1.730  0.7140 -0.3184  0.3329
  270MOL0     C35567   1.486   0.702   1.859  0.1050 -0.7943  0.2250
  270MOL0     C35568   1.637   0.700   1.850  0.6185 -0.1304 -0.3573
  270MOL0     C35569   1.709   0.565   1.893  0.5763  0.1901  0.0475
  270MOL0     C35570   1.847   0.569   1.843  0.2010  0.4374  0.1019
  270MOL0     C35571   1.899   0.449   1.896 -0.6686 -0.2561  1.2484
  270MOL0     C35572   1.947   0.358   1.955 -1.2141  0.3840  0.1050
  270MOL0     C35573   1.200   0.627   1.766 -0.7800  0.2126 -0.3265
  270MOL0     C35574   1.068   0.646   1.721  0.2307  0.1739  0.4488
  270MOL0     H35575   0.723   0.626   1.376 -1.5754 -0.5633 -0.6195
  270MOL0     H35576   0.470   0.626   1.323  1.1260  0.7572  0.3878
  270MOL0     H35577   0.277   0.444   1.366  2.3095  1.3360  0.2380
  270MOL0     H35578   0.244   0.608   1.309 -0.8482  0.4635  0.1687
  270MOL0     H35579   0.047   0.455   1.321  0.4300  0.3237  0.2308
  270MOL0     H35580   0.042   0.621   1.388  0.7245  1.3142  1.8845
  270MOL0     H35581   0.016   0.540   1.598 -2.4622  2.2604 -1.9579
  270MOL0     H35582   0.112   0.394   1.578  1.1173 -0.7230 -2.0645
  270MOL0     H35583  -0.169   0.457   1.463 -1.7653 -0.9446  0.8071
  270MOL0     H35584  -0.089   0.303   1.423 -1.7782  0.3216 -0.9739
  270MOL0     H35585  -0.184   0.417   1.688 -1.0222  1.2523 -3.0159
  270MOL0     H35586  -0.073   0.274   1.681 -1.1625 -1.2091  0.0507
  270MOL0     H35587  -0.258   0.171   1.521  0.2291  2.2034 -0.9704
  270MOL0     H35588  -0.369   0.288   1.585 -0.3309 -0.4613 -0.0810
  270MOL0     H35589  -0.214   0.086   1.759  0.1972 -0.5716 -0.1784
  270MOL0     H35590  -0.307   0.219   1.824  2.2626  0.4852 -1.1805
  270MOL0     H35591  -0.426  -0.024   1.701 -0.3753 -1.6873  1.3021
  270MOL0     H35592  -0.520   0.129   1.730  0.1002  0.3573 -2.2317
  270MOL0     H35593  -0.636   0.109   1.941 -0.0342 -0.5098 -0.2475
  270MOL0     H35594  -0.729  -0.006   2.167  3.0147  1.4927  0.8692
  270MOL0     H35595  -0.623  -0.126   2.241 -2.8010  1.5347  2.1309
  270MOL0     H35596  -0.832  -0.232   2.182  0.0200 -1.6933 -0.5961
  270MOL0     H35597  -0.716  -0.286   2.058 -0.3923  1.2133 -3.5579
  270MOL0     H35598  -0.800  -0.145   1.893 -0.5139 -0.7948 -0.0699
  270MOL0     H35599  -0.894  -0.273   1.941  0.5175 -0.7015 -1.9966
  270MOL0     H35600  -1.035  -0.066   1.905  0.9358 -1.6326  0.1044
  270MOL0     H35601  -0.909   0.035   1.970  0.8380  0.3704  0.8081
  270MOL0     H35602  -1.123  -0.300   2.136  2.0585  0.8995 -1.5251
  270MOL0     H35603  -1.368  -0.346   2.146 -2.3439  0.3309 -2.0052
  270MOL0     H35604  -1.669  -0.499   2.091 -1.0155  1.6491 -1.4647
  270MOL0     H35605  -1.888  -0.611   2.170 -0.3231  0.0053  0.0314
  270MOL0     H35606  -2.133  -0.388   2.221 -2.7660  0.3422  0.6442
  270MOL0     H35607  -2.249  -0.489   2.313  1.5157 -1.5048  3.4325
  270MOL0     H35608  -2.082  -0.572   2.070  2.4543 -1.2848  2.2965
  270MOL0     H35609  -2.259  -0.532   2.082 -1.3133  0.9104  2.6124
  270MOL0     H35610  -2.113  -0.757   2.240 -1.7259 -1.3724  1.2774
  270MOL0     H35611  -2.186  -0.776   2.079 -0.7929 -1.3482  0.3059
  270MOL0     H35612  -2.335  -0.691   2.325 -0.7466  2.0035 -1.5256
  270MOL0     H35613  -2.404  -0.719   2.163  0.9863 -1.4192 -1.0745
  270MOL0     H35614  -2.337  -0.960   2.209 -0.4162 -3.1216  1.2689
  270MOL0     H35615  -2.458  -0.898   2.310  0.0348 -3.4079 -0.8589
  270MOL0     H35616  -2.155  -0.932   2.387 -0.6042 -0.1267 -1.6143
  270MOL0     H35617  -2.295  -1.038   2.417  1.3239 -0.5945  0.7216
  270MOL0     H35618  -2.231  -0.755   2.518 -3.1809  1.6960 -4.1142
  270MOL0     H35619  -2.388  -0.826   2.543 -0.4523 -0.9139 -1.0031
  270MOL0     H35620  -2.314  -1.011   2.660  1.5359 -1.9957  0.3434
  270MOL0     H35621  -2.242  -0.863   2.738  2.6854  1.8406 -1.5976
  270MOL0     H35622  -1.973  -0.268   2.412 -1.3313 -0.5353 -0.8042
  270MOL0     H35623  -1.752  -0.178   2.364 -0.9521 -1.2148  5.1568
  270MOL0     H35624  -1.445   0.090   2.128  0.4285  0.4149  0.8201
  270MOL0     H35625  -1.221   0.126   2.084 -1.3064  0.1164 -2.2567
  270MOL0     H35626   0.382   0.614   1.735  1.5887 -2.1850  1.3183
  270MOL0     H35627   0.620   0.643   1.791  1.3599  0.6919  0.3144
  270MOL0     H35628   1.135   0.811   1.439 -1.0092  3.6600  2.6340
  270MOL0     H35629   1.350   0.779   1.499 -1.0817  1.5439  0.3112
  270MOL0     H35630   1.461   0.640   1.946  0.2698  0.1224  0.9466
  270MOL0     H35631   1.450   0.803   1.880 -0.6032 -1.3786  2.0768
  270MOL0     H35632   1.675   0.738   1.755  1.9861  3.7407  1.5133
  270MOL0     H35633   1.676   0.776   1.919  0.7240 -2.4627  2.3263
  270MOL0     H35634   1.661   0.482   1.842 -0.1610  1.5289 -1.5444
  270MOL0     H35635   1.695   0.549   2.000 -2.0169  1.2038 -0.0707
  270MOL0     H35636   1.846   0.576   1.733  0.1510  1.5580  0.1690
  270MOL0     H35637   1.892   0.661   1.881  0.2988  0.3790  0.1280
  270MOL0     H35638   1.985   0.278   2.015 -1.7916 -1.6151 -2.0563
  270MOL0     H35639   1.212   0.578   1.862  3.7075 -1.0700 -1.3033
  270MOL0     H35640   1.001   0.611   1.798 -1.7093 -0.3033 -1.3739
  271MOL0     O35641   6.692  10.587   2.006  0.2188 -0.3170 -0.4740
  271MOL0     C35642   6.737  10.585   2.121 -0.2879  0.3373  0.5103
  271MOL0     O35643   6.678  10.634   2.229  0.4862 -0.5675 -0.6329
  271MOL0     C35644   6.557  10.682   2.212  0.0858 -0.5179  0.0506
  271MOL0     C35645   6.525  10.823   2.230  0.9224 -0.0444 -0.3386
  271MOL0     C35646   6.393  10.879   2.195  0.5931 -0.7120  0.4699
  271MOL0     C35647   6.291  10.794   2.155  0.5240 -0.2103  0.1660
  271MOL0     O35648   6.165  10.835   2.120  0.0885  0.3886 -0.1738
  271MOL0     C35649   6.049  10.754   2.147  0.1359 -0.2430  0.4480
  271MOL0     C35650   5.944  10.857   2.167 -0.4796  1.4957  0.3331
  271MOL0     C35651   5.816  10.777   2.206 -1.2870 -1.4043 -0.3647
  271MOL0     C35652   5.709  10.881   2.236  0.6561 -0.4168  1.0320
  271MOL0     C35653   5.580  10.821   2.274  0.0450 -0.6085 -1.4213
  271MOL0     C35654   5.465  10.917   2.274 -0.1559  0.8458  0.2400
  271MOL0     C35655   5.337  10.855   2.324 -0.2793  0.3278 -0.5298
  271MOL0     C35656   5.226  10.949   2.284 -0.1487  0.2402 -1.1386
  271MOL0     N35657   5.103  10.911   2.355 -0.5973  0.5186 -0.3812
  271MOL0     C35658   5.083  10.922   2.494 -0.5741 -0.5567  0.2791
  271MOL0     C35659   4.964  10.875   2.510  0.2800  0.0374  0.1881
  271MOL0     C35660   4.903  10.863   2.645  0.1424  0.3867 -0.7150
  271MOL0     C35661   4.798  10.750   2.663 -0.0155  0.9029  0.0659
  271MOL0     C35662   4.666  10.779   2.591  1.1747 -0.2076 -0.3141
  271MOL0     C35663   4.540  10.701   2.651 -1.0022 -0.6098 -0.7245
  271MOL0     O35664   4.429  10.742   2.583 -0.2902 -0.3588  0.3765
  271MOL0     C35665   4.304  10.705   2.620 -0.3019  0.1471  0.0903
  271MOL0     C35666   4.184  10.763   2.559 -0.4845  0.5887  0.4125
  271MOL0     C35667   4.055  10.728   2.601 -0.0014 -0.1686 -0.3349
  271MOL0     C35668   4.037  10.638   2.709 -0.0017  0.8683 -0.8341
  271MOL0     C35669   3.906  10.618   2.763  0.9172  0.9658 -0.2736
  271MOL0     O35670   3.889  10.513   2.847 -0.5366  0.5327 -0.4174
  271MOL0     C35671   3.766  10.489   2.898  0.3718 -0.2782  0.7649
  271MOL0     C35672   3.725  10.529   3.028 -0.1396 -0.2233 -0.0048
  271MOL0     C35673   3.597  10.505   3.071 -0.2542 -0.2046  0.2701
  271MOL0     C35674   3.499  10.457   2.994  0.3831 -0.4548  0.6673
  271MOL0     O35675   3.365  10.442   3.033 -0.6286  0.4793  0.0152
  271MOL0     C35676   3.326  10.474   3.162 -0.0856 -1.4041  0.0800
  271MOL0     C35677   3.180  10.428   3.193 -1.3073  0.4364  0.2734
  271MOL0     C35678   3.081  10.444   3.078  0.5637  0.6773  0.3149
  271MOL0     C35679   2.942  10.392   3.099 -0.0881  0.3449 -0.1733
  271MOL0     C35680   2.846  10.422   2.981  0.2963 -0.0616  0.2799
  271MOL0     C35681   2.840  10.581   2.958 -0.7678  0.3953  0.4697
  271MOL0     C35682   2.708  10.617   2.890 -0.4131 -0.2346 -0.1325
  271MOL0     C35683   2.580  10.615   2.963 -0.3296 -0.0699 -0.0661
  271MOL0    Cl35684   2.559  10.737   3.096 -0.0017  0.4415 -0.2874
  271MOL0     C35685   3.533  10.418   2.865 -0.5261  0.2997  0.3100
  271MOL0     C35686   3.665  10.431   2.821  0.5572  0.4728 -0.2506
  271MOL0     O35687   3.810  10.686   2.718  0.7240 -0.5297  0.1040
  271MOL0     C35688   4.151  10.570   2.767  0.2026 -0.1190  0.4423
  271MOL0     C35689   4.277  10.611   2.725 -0.0740 -0.4440  0.0259
  271MOL0     N35690   4.902  10.852   2.391 -0.2366  0.5618 -0.0259
  271MOL0     N35691   4.988  10.871   2.296  0.7368  0.5157  0.1811
  271MOL0     C35692   6.326  10.656   2.141 -0.3787 -0.2199  0.3851
  271MOL0     C35693   6.454  10.605   2.177  0.9259  0.6710  0.3937
  271MOL0     C35694   6.870  10.522   2.132  0.9072  1.0477  0.7072
  271MOL0     C35695   6.926  10.487   2.258  0.8794 -0.1811  0.9180
  271MOL0     C35696   7.048  10.426   2.260 -0.9587 -0.4637 -0.4324
  271MOL0     C35697   7.130  10.406   2.149 -0.7912  0.1317  0.9692
  271MOL0     O35698   7.252  10.355   2.160 -0.7513  0.5077 -0.3283
  271MOL0     C35699   7.367  10.415   2.084  0.2604  0.0169  0.1305
  271MOL0     C35700   7.400  10.555   2.134 -0.3532 -0.1814 -1.3675
  271MOL0     C35701   7.424  10.558   2.292 -1.0860 -0.5495 -0.3618
  271MOL0     C35702   7.486  10.689   2.343 -0.9288 -1.5974 -0.0958
  271MOL0     C35703   7.629  10.697   2.301 -0.1343  0.7730 -0.8849
  271MOL0     C35704   7.746  10.687   2.277 -0.7917 -0.6888  0.0413
  271MOL0     C35705   7.080  10.458   2.023  0.0010 -0.2645 -0.0978
  271MOL0     C35706   6.953  10.514   2.017 -0.1084  0.5351  0.1763
  271MOL0     H35707   6.596  10.898   2.263 -0.9898  0.9626  1.8209
  271MOL0     H35708   6.392  10.987   2.180  2.2665 -1.0475 -2.9417
  271MOL0     H35709   6.067  10.684   2.230 -1.2218 -0.3653  0.6497
  271MOL0     H35710   6.028  10.694   2.059 -1.0977 -1.6123  1.6147
  271MOL0     H35711   5.929  10.916   2.076  0.8059  2.1938  0.5566
  271MOL0     H35712   5.965  10.930   2.246 -0.5561  0.6040  1.1956
  271MOL0     H35713   5.842  10.727   2.300  1.2723 -1.3249 -0.9421
  271MOL0     H35714   5.794  10.706   2.126 -1.8993 -3.3475  1.4294
  271MOL0     H35715   5.739  10.959   2.307  1.0308  0.6724 -0.2672
  271MOL0     H35716   5.693  10.935   2.142 -1.5288 -4.0693 -0.9310
  271MOL0     H35717   5.582  10.769   2.371 -0.4246  1.5012 -0.2258
  271MOL0     H35718   5.546  10.755   2.194 -1.3062  0.6061 -1.8961
  271MOL0     H35719   5.451  10.959   2.174  2.3828 -0.2101 -0.6401
  271MOL0     H35720   5.480  10.998   2.346 -3.5179  0.2177  1.8378
  271MOL0     H35721   5.330  10.761   2.268  1.0463  0.5596 -1.1201
  271MOL0     H35722   5.349  10.828   2.430 -3.6160 -0.7675 -0.3136
  271MOL0     H35723   5.221  10.939   2.175  0.4623  0.3868 -1.1859
  271MOL0     H35724   5.253  11.051   2.313 -0.5978  0.0347  0.0358
  271MOL0     H35725   5.162  10.944   2.566 -1.3192 -4.5365  2.6128
  271MOL0     H35726   4.848  10.952   2.677  0.3833  0.1657  0.3631
  271MOL0     H35727   4.985  10.849   2.717 -0.8753  2.5965  1.0148
  271MOL0     H35728   4.771  10.755   2.768 -2.8947  1.6215 -0.6245
  271MOL0     H35729   4.842  10.655   2.628 -2.2411 -0.6237  1.1689
  271MOL0     H35730   4.634  10.882   2.580 -3.5053 -1.1707  1.7931
  271MOL0     H35731   4.682  10.737   2.491  1.6159 -2.6469  0.6960
  271MOL0     H35732   4.521  10.740   2.751  2.7733  1.5656 -0.6633
  271MOL0     H35733   4.553  10.592   2.647 -2.4524 -0.8228 -0.3379
  271MOL0     H35734   4.194  10.842   2.485  1.4010  0.6815  0.7187
  271MOL0     H35735   3.975  10.788   2.558 -1.1691 -2.5707 -1.7022
  271MOL0     H35736   3.791  10.574   3.102 -2.4259 -1.0463  2.7097
  271MOL0     H35737   3.581  10.525   3.177  1.5526 -1.0449  0.7342
  271MOL0     H35738   3.332  10.581   3.184  2.7863 -1.7213  1.3062
  271MOL0     H35739   3.387  10.430   3.242  0.4076  0.5785  0.8441
  271MOL0     H35740   3.141  10.483   3.279  1.3790  2.3095  0.4293
  271MOL0     H35741   3.197  10.323   3.216 -0.5731  0.7490  1.2155
  271MOL0     H35742   3.124  10.387   2.994  0.8361  1.0099  0.2256
  271MOL0     H35743   3.078  10.552   3.060  0.7883  0.3006 -2.4587
  271MOL0     H35744   2.945  10.284   3.114  0.5937  0.7273  2.9237
  271MOL0     H35745   2.906  10.431   3.194  2.2000 -0.6132  1.1662
  271MOL0     H35746   2.749  10.379   3.009  0.3014 -0.3481 -0.1250
  271MOL0     H35747   2.883  10.367   2.894 -0.0556 -1.5152  1.0081
  271MOL0     H35748   2.933  10.605   2.906  1.4340 -3.1507  2.2862
  271MOL0     H35749   2.845  10.633   3.054 -1.8762  0.0793  0.7080
  271MOL0     H35750   2.718  10.720   2.854  0.0778 -0.1532  0.2319
  271MOL0     H35751   2.710  10.562   2.796  3.0390 -0.0358 -0.3047
  271MOL0     H35752   2.569  10.523   3.021  0.1768  1.4206  2.5535
  271MOL0     H35753   2.494  10.615   2.896  1.9845 -1.9107 -3.2985
  271MOL0     H35754   3.447  10.385   2.807  0.2031 -3.1821  1.0144
  271MOL0     H35755   3.695  10.396   2.723 -1.0482 -1.2393 -0.1851
  271MOL0     H35756   4.137  10.498   2.847 -0.0498  1.6446  2.0471
  271MOL0     H35757   4.357  10.553   2.772 -0.3054 -0.1703  0.7658
  271MOL0     H35758   6.256  10.580   2.109  2.2315 -2.8742  0.6099
  271MOL0     H35759   6.461  10.497   2.179  2.4229  0.7285  2.7518
  271MOL0     H35760   6.868  10.516   2.345 -3.0943  0.8750 -1.7546
  271MOL0     H35761   7.098  10.397   2.352 -0.7471  1.5344  0.1253
  271MOL0     H35762   7.343  10.415   1.977  0.1803 -0.0604  0.1477
  271MOL0     H35763   7.457  10.355   2.100  0.5277  0.0962 -1.0377
  271MOL0     H35764   7.492  10.592   2.088 -0.4971  2.1112  0.0208
  271MOL0     H35765   7.318  10.624   2.114  1.5654  3.0679  1.0021
  271MOL0     H35766   7.496  10.481   2.318 -1.5555 -0.3165  1.8048
  271MOL0     H35767   7.333  10.528   2.345 -0.4052 -2.9562 -0.4770
  271MOL0     H35768   7.442  10.771   2.285 -0.9553 -0.9595  0.8145
  271MOL0     H35769   7.466  10.708   2.449 -1.6532 -0.8860 -0.3488
  271MOL0     H35770   7.846  10.672   2.241 -0.5682  0.9680 -0.1001
  271MOL0     H35771   7.151  10.474   1.944  0.7960 -1.0480  0.4419
  271MOL0     H35772   6.914  10.558   1.926 -0.0869 -2.2641 -1.2849
  272MOL0     O35773   2.595   2.233   0.676  0.2156  0.5677 -0.0763
  272MOL0     C35774   2.629   2.140   0.754  0.1823 -0.3529 -0.1599
  272MOL0     O35775   2.534   2.052   0.802 -0.1626  0.3428 -0.3433
  272MOL0     C35776   2.424   2.026   0.739 -0.1384  0.3067  0.9075
  272MOL0     C35777   2.311   1.995   0.816 -0.6011  0.0839 -0.2266
  272MOL0     C35778   2.184   1.973   0.758  0.2363 -0.1331 -0.3150
  272MOL0     C35779   2.182   1.955   0.616 -0.1650 -0.2119 -0.1269
  272MOL0     O35780   2.062   1.910   0.557 -0.6805  0.1059  0.8095
  272MOL0     C35781   2.015   1.772   0.597  0.0687 -0.3516  0.0750
  272MOL0     C35782   1.923   1.706   0.502 -0.0314 -0.7543  0.4976
  272MOL0     C35783   1.778   1.766   0.520  0.3355  0.4837  0.1802
  272MOL0     C35784   1.701   1.767   0.382  0.2632 -0.2773 -0.5719
  272MOL0     C35785   1.618   1.641   0.349  1.1230 -0.3940 -0.3119
  272MOL0     C35786   1.629   1.599   0.200  0.0733  0.0024 -0.2714
  272MOL0     C35787   1.520   1.505   0.144 -0.8166  0.6030  0.3485
  272MOL0     C35788   1.558   1.460   0.001 -0.7771  0.0948 -0.6774
  272MOL0     N35789   1.464   1.377  -0.071  0.8794 -0.4784  0.4956
  272MOL0     C35790   1.417   1.263  -0.018  0.0594 -0.2932  0.5413
  272MOL0     C35791   1.348   1.205  -0.117  0.7267  0.5527 -0.3735
  272MOL0     C35792   1.285   1.064  -0.105  0.2590 -0.0994  0.3268
  272MOL0     C35793   1.136   1.068  -0.154  0.6132  0.3034  0.3186
  272MOL0     C35794   1.070   0.933  -0.126 -1.1557 -0.7274  1.0504
  272MOL0     C35795   0.916   0.934  -0.141 -0.3665 -0.6135 -0.3043
  272MOL0     O35796   0.892   1.024  -0.259  0.2433 -0.2338  0.0443
  272MOL0     C35797   0.768   1.024  -0.320  0.0444 -0.5778  0.6048
  272MOL0     C35798   0.754   1.071  -0.450 -0.4691  0.4482  0.0047
  272MOL0     C35799   0.632   1.102  -0.504 -0.7207  1.0657  0.0105
  272MOL0     C35800   0.512   1.068  -0.444 -0.7747 -0.9092 -0.6536
  272MOL0     C35801   0.381   1.094  -0.515 -0.4871  0.6531 -0.3469
  272MOL0     O35802   0.260   1.062  -0.448 -0.5217 -0.1791  0.0985
  272MOL0     C35803   0.141   1.101  -0.515  0.0244 -1.0158  0.0540
  272MOL0     C35804   0.066   1.216  -0.478 -0.4063  0.1480  0.6049
  272MOL0     C35805  -0.047   1.252  -0.550  0.2321 -0.1411 -0.3075
  272MOL0     C35806  -0.097   1.176  -0.658 -0.8565 -0.2320  0.7245
  272MOL0     O35807  -0.217   1.216  -0.714  0.3459  0.2165  0.1356
  272MOL0     C35808  -0.258   1.159  -0.839 -0.5855  0.7757  0.2766
  272MOL0     C35809  -0.399   1.221  -0.876  0.3594  0.8778 -0.6884
  272MOL0     C35810  -0.500   1.172  -0.780  0.7701 -0.1783  0.5530
  272MOL0     C35811  -0.635   1.251  -0.802 -0.2948  0.4208  0.7628
  272MOL0     C35812  -0.729   1.195  -0.703 -0.8362  0.5322  0.2377
  272MOL0     C35813  -0.779   1.068  -0.750  0.7152  0.0332 -0.5570
  272MOL0     C35814  -0.899   1.017  -0.683  0.7901  0.6719 -0.2943
  272MOL0     C35815  -0.922   0.871  -0.723  0.4125  0.3510 -0.2239
  272MOL0    Cl35816  -1.042   0.804  -0.606  0.4023  0.3593  0.5607
  272MOL0     C35817  -0.024   1.063  -0.694  0.7512  1.1359 -0.0407
  272MOL0     C35818   0.095   1.028  -0.627 -1.5284  0.1453  0.6232
  272MOL0     O35819   0.387   1.137  -0.629  0.6139  0.3145  0.1439
  272MOL0     C35820   0.522   1.008  -0.315 -0.7261 -0.0484  0.5065
  272MOL0     C35821   0.643   0.991  -0.247  0.9928  0.0237  0.1209
  272MOL0     N35822   1.332   1.294  -0.218  0.8879 -0.3716  0.0599
  272MOL0     N35823   1.404   1.397  -0.190 -0.1811 -0.5116 -0.1013
  272MOL0     C35824   2.288   1.979   0.536  0.0343 -0.1064 -0.7895
  272MOL0     C35825   2.408   2.010   0.600  0.4897  0.0158 -1.6082
  272MOL0     C35826   2.772   2.131   0.803  0.4208 -0.5971  0.0781
  272MOL0     C35827   2.860   2.218   0.744 -1.1771  0.4224 -0.1664
  272MOL0     C35828   2.997   2.213   0.789  0.6703 -0.0950 -0.9473
  272MOL0     C35829   3.038   2.125   0.892 -0.0071  0.5043  0.8147
  272MOL0     O35830   3.169   2.110   0.929 -1.0382  0.1794  0.0074
  272MOL0     C35831   3.264   2.214   0.902  1.3673  1.0963  0.3225
  272MOL0     C35832   3.227   2.326   0.996 -0.1055  0.7862  0.2678
  272MOL0     C35833   3.346   2.420   0.992  0.2071  0.0601 -0.4031
  272MOL0     C35834   3.411   2.449   0.860 -0.0825  0.5712  0.7055
  272MOL0     C35835   3.488   2.572   0.856  1.7211 -0.1336  0.8287
  272MOL0     C35836   3.554   2.674   0.860  0.3306  0.4504 -0.2555
  272MOL0     C35837   2.943   2.052   0.953  0.2084  0.4531  0.0356
  272MOL0     C35838   2.810   2.059   0.913 -0.3086 -0.1728  0.8368
  272MOL0     H35839   2.325   1.992   0.924  1.7797  0.1010 -0.4655
  272MOL0     H35840   2.101   1.951   0.824  0.8770  0.5595  0.7459
  272MOL0     H35841   1.974   1.766   0.698 -0.5770  0.6849 -0.1157
  272MOL0     H35842   2.111   1.720   0.599 -0.2122 -0.8820 -0.0055
  272MOL0     H35843   1.926   1.598   0.519  2.3193 -0.6180  1.3310
  272MOL0     H35844   1.963   1.718   0.401 -1.2083 -3.7578 -0.4563
  272MOL0     H35845   1.786   1.870   0.553  0.7613  0.2645  0.7670
  272MOL0     H35846   1.721   1.716   0.599  1.4086  0.6596  1.0731
  272MOL0     H35847   1.633   1.852   0.393  0.2840 -0.3795  0.4337
  272MOL0     H35848   1.770   1.790   0.301  0.9446  2.2680  0.6187
  272MOL0     H35849   1.513   1.660   0.375  1.0493 -1.3732  0.1293
  272MOL0     H35850   1.653   1.569   0.423 -0.2733  0.7331  1.5342
  272MOL0     H35851   1.727   1.560   0.169  0.1207  0.8614 -1.2709
  272MOL0     H35852   1.620   1.686   0.134 -1.6571 -0.7310 -1.0549
  272MOL0     H35853   1.519   1.422   0.215 -3.0882 -1.8194 -2.2565
  272MOL0     H35854   1.426   1.561   0.142  0.6184  3.1466 -0.5637
  272MOL0     H35855   1.656   1.411  -0.001 -1.5654 -1.7586  1.2075
  272MOL0     H35856   1.570   1.546  -0.065  0.5177  3.0894  3.0844
  272MOL0     H35857   1.442   1.219   0.078  1.8480 -1.1587 -0.2550
  272MOL0     H35858   1.281   1.040   0.002  0.0146  1.8706  0.7997
  272MOL0     H35859   1.339   0.990  -0.165 -0.9472  0.2070 -1.2050
  272MOL0     H35860   1.131   1.091  -0.260 -0.9290  0.9608  0.5140
  272MOL0     H35861   1.081   1.149  -0.106 -2.7460 -1.0064 -1.0683
  272MOL0     H35862   1.118   0.870  -0.201 -0.7656 -0.5255  1.1222
  272MOL0     H35863   1.098   0.900  -0.025 -1.4075  1.1026  1.7502
  272MOL0     H35864   0.874   0.978  -0.051 -1.4700 -2.0841 -0.0545
  272MOL0     H35865   0.875   0.833  -0.151 -0.4751 -0.6076  0.0610
  272MOL0     H35866   0.844   1.110  -0.496 -0.0830  1.9492  1.8890
  272MOL0     H35867   0.615   1.141  -0.604 -0.2033  0.1501 -0.4493
  272MOL0     H35868   0.090   1.276  -0.391  1.6984 -1.4502  1.1982
  272MOL0     H35869  -0.109   1.338  -0.525  1.9918  1.2032 -0.3662
  272MOL0     H35870  -0.266   1.051  -0.820  1.9672  1.0028  3.3567
  272MOL0     H35871  -0.189   1.186  -0.919 -0.7650  5.5945  1.4734
  272MOL0     H35872  -0.427   1.188  -0.977 -1.4762  1.1023 -0.2902
  272MOL0     H35873  -0.397   1.330  -0.867 -2.7278  0.9813 -0.1123
  272MOL0     H35874  -0.475   1.188  -0.675 -0.4654  0.5998  0.7549
  272MOL0     H35875  -0.503   1.065  -0.804 -0.0154  0.2658 -1.5807
  272MOL0     H35876  -0.620   1.357  -0.781  2.7080  0.4218 -0.8907
  272MOL0     H35877  -0.672   1.232  -0.903 -1.1176  0.9351  0.9600
  272MOL0     H35878  -0.812   1.263  -0.684  0.1883  3.3784 -3.8412
  272MOL0     H35879  -0.679   1.186  -0.606 -1.4590  0.6857  0.5795
  272MOL0     H35880  -0.700   0.992  -0.751  0.6118 -0.0740 -0.7797
  272MOL0     H35881  -0.807   1.076  -0.856  0.0360  0.4797 -0.3482
  272MOL0     H35882  -0.896   1.025  -0.574 -2.1291  2.2574 -0.2258
  272MOL0     H35883  -0.984   1.077  -0.716  1.0173  0.5751 -1.0814
  272MOL0     H35884  -0.828   0.816  -0.718  0.6410  0.8258  0.8832
  272MOL0     H35885  -0.956   0.869  -0.827 -0.3571 -0.3983  0.0335
  272MOL0     H35886  -0.069   1.003  -0.772  0.2379  1.3923  0.0522
  272MOL0     H35887   0.157   0.946  -0.659 -1.3794  0.4717  0.0595
  272MOL0     H35888   0.440   0.968  -0.258 -0.6652 -0.2812  0.4328
  272MOL0     H35889   0.643   0.956  -0.144 -1.2044  3.8565  1.6422
  272MOL0     H35890   2.272   1.979   0.428 -1.8772 -0.3816 -0.5484
  272MOL0     H35891   2.491   2.039   0.535  1.3433  1.2097 -0.0704
  272MOL0     H35892   2.832   2.281   0.661 -0.6010  1.3263  0.3095
  272MOL0     H35893   3.059   2.288   0.741  2.2839 -0.5980  0.2592
  272MOL0     H35894   3.262   2.247   0.798 -1.1915  1.2461  0.3678
  272MOL0     H35895   3.364   2.175   0.924  2.0177  1.7428 -1.3430
  272MOL0     H35896   3.146   2.389   0.958  2.1556  2.8309 -1.5020
  272MOL0     H35897   3.217   2.285   1.096 -3.5811  0.1231 -0.2485
  272MOL0     H35898   3.421   2.396   1.068 -0.3942  0.1785  0.2423
  272MOL0     H35899   3.297   2.512   1.026  0.5593  0.1591 -0.1595
  272MOL0     H35900   3.469   2.367   0.816 -1.8444 -0.6390  0.5115
  272MOL0     H35901   3.323   2.471   0.798 -1.2401 -0.2951  1.9646
  272MOL0     H35902   3.597   2.771   0.876 -1.6337  1.7006 -1.9811
  272MOL0     H35903   2.978   1.994   1.037  0.0544  2.0647  1.2507
  272MOL0     H35904   2.739   2.000   0.969 -2.1126  1.7146  0.6603
  273MOL0     O35905   6.729   3.256   9.805  0.2613 -0.1458 -0.5122
  273MOL0     C35906   6.627   3.185   9.820  0.9935  0.1419  0.0394
  273MOL0     O35907   6.525   3.208   9.902  0.1685 -0.0910 -0.2937
  273MOL0     C35908   6.515   3.324   9.970  0.3168 -0.4755 -0.5417
  273MOL0     C35909   6.596   3.338  10.081 -0.3425 -0.4433  1.4504
  273MOL0     C35910   6.583   3.459  10.145 -0.0696  0.0175 -0.1757
  273MOL0     C35911   6.498   3.566  10.102 -0.0493  0.4125  0.0288
  273MOL0     O35912   6.490   3.697  10.154  0.3552  0.0578  0.4293
  273MOL0     C35913   6.554   3.714  10.283 -0.5612  0.4464  0.2053
  273MOL0     C35914   6.555   3.856  10.350  0.3422 -0.5060 -0.8918
  273MOL0     C35915   6.541   3.837  10.504  0.0432 -1.1162 -1.0795
  273MOL0     C35916   6.550   3.975  10.576  0.5416  0.2946  0.4940
  273MOL0     C35917   6.510   3.969  10.715 -0.7605 -0.6575 -0.6109
  273MOL0     C35918   6.348   3.966  10.720 -0.8539  0.0397  0.3288
  273MOL0     C35919   6.294   3.929  10.862  0.0125  1.1454  0.2094
  273MOL0     C35920   6.170   3.848  10.863  1.0551 -0.2275 -0.1643
  273MOL0     N35921   6.051   3.918  10.803 -0.8215  0.0009 -0.7853
  273MOL0     C35922   5.986   3.896  10.680  0.0613 -0.3049 -0.5382
  273MOL0     C35923   5.870   3.973  10.671  0.1704 -0.4640 -0.3070
  273MOL0     C35924   5.771   3.979  10.563  0.2055 -0.2714  0.7945
  273MOL0     C35925   5.643   4.061  10.598 -0.1743 -0.2788 -0.8360
  273MOL0     C35926   5.549   4.074  10.483 -0.0214  0.0356  0.3862
  273MOL0     C35927   5.423   4.163  10.516  0.0749  0.7964  0.0816
  273MOL0     O35928   5.359   4.126  10.644  0.3164 -0.2705 -0.1390
  273MOL0     C35929   5.233   4.164  10.670 -0.2813 -0.8211  0.3108
  273MOL0     C35930   5.180   4.119  10.786  0.0172 -0.0993 -0.4041
  273MOL0     C35931   5.049   4.161  10.826  0.1422 -0.1770  0.9642
  273MOL0     C35932   4.976   4.254  10.751 -0.6584 -0.0394 -0.0225
  273MOL0     C35933   4.850   4.296  10.799  0.1823  1.0191 -0.3004
  273MOL0     O35934   4.813   4.236  10.917 -0.4992 -0.1257 -0.8115
  273MOL0     C35935   4.706   4.280  10.992 -0.0949  0.2046 -0.8350
  273MOL0     C35936   4.585   4.309  10.934 -0.9499  0.4971  0.4026
  273MOL0     C35937   4.480   4.346  11.016 -0.6588  0.0544  0.0375
  273MOL0     C35938   4.485   4.342  11.159  0.6154 -0.3427  0.1181
  273MOL0     O35939   4.385   4.369  11.246 -0.3064  0.9854  0.5530
  273MOL0     C35940   4.280   4.456  11.201  0.1632 -0.1780 -0.3727
  273MOL0     C35941   4.190   4.473  11.313  0.3583  0.2412  0.6525
  273MOL0     C35942   4.094   4.350  11.319  0.8247 -0.0546  0.2351
  273MOL0     C35943   3.986   4.379  11.419 -0.2008 -0.4626  1.2055
  273MOL0     C35944   3.863   4.283  11.395 -0.6107 -0.6615  0.6449
  273MOL0     C35945   3.764   4.352  11.301 -1.1877  0.1122  0.3833
  273MOL0     C35946   3.651   4.262  11.256 -0.3756  0.0291  0.1340
  273MOL0     C35947   3.540   4.282  11.353 -0.1936 -0.8922 -0.4985
  273MOL0    Cl35948   3.413   4.166  11.311  0.1904  0.0731 -0.0678
  273MOL0     C35949   4.608   4.301  11.216 -0.3800 -0.7775 -0.4974
  273MOL0     C35950   4.718   4.271  11.129 -0.0466 -0.4419 -0.1944
  273MOL0     O35951   4.795   4.384  10.739 -0.2226 -0.2903 -0.0601
  273MOL0     C35952   5.025   4.294  10.622  0.1321  0.5005 -0.4842
  273MOL0     C35953   5.149   4.248  10.593 -0.1626 -0.0845  1.1409
  273MOL0     N35954   5.875   4.052  10.789 -0.0918  0.4338 -0.1772
  273MOL0     N35955   5.982   4.019  10.860  0.3006 -0.3473 -0.2481
  273MOL0     C35956   6.416   3.531   9.997 -0.0567 -0.5461  0.0913
  273MOL0     C35957   6.417   3.412   9.927  0.7611 -0.0325 -0.2351
  273MOL0     C35958   6.632   3.048   9.762 -0.4395  0.7049 -0.7693
  273MOL0     C35959   6.515   2.971   9.761 -0.4101 -0.2682  0.1397
  273MOL0     C35960   6.522   2.844   9.703  0.1177  0.1104 -0.9925
  273MOL0     C35961   6.642   2.789   9.653 -0.6951  0.5095 -0.1800
  273MOL0     O35962   6.639   2.659   9.600  0.0101 -0.2875  0.2461
  273MOL0     C35963   6.752   2.608   9.532  0.0478  0.1342 -0.1684
  273MOL0     C35964   6.706   2.475   9.465  0.2542 -0.3730 -0.4031
  273MOL0     C35965   6.823   2.375   9.427  0.2096 -0.1322 -0.0495
  273MOL0     C35966   6.899   2.409   9.296 -0.0937  0.2793  0.1735
  273MOL0     C35967   6.807   2.402   9.181 -0.2229  0.2872  0.1490
  273MOL0     C35968   6.728   2.412   9.088 -0.1794 -0.2670 -0.0420
  273MOL0     C35969   6.751   2.870   9.658  1.1775  0.9043  0.1694
  273MOL0     C35970   6.753   2.995   9.722 -0.5613  0.3335  0.3725
  273MOL0     H35971   6.679   3.272  10.107  1.1527  0.1979 -1.3556
  273MOL0     H35972   6.648   3.466  10.232 -2.7191  1.1431  1.8357
  273MOL0     H35973   6.657   3.677  10.290 -0.8004 -0.5392 -1.0932
  273MOL0     H35974   6.504   3.649  10.355  3.5561 -1.7943  1.3706
  273MOL0     H35975   6.456   3.887  10.314  0.2274  0.5263  0.2411
  273MOL0     H35976   6.636   3.924  10.322  1.0695 -1.0121 -0.0481
  273MOL0     H35977   6.628   3.781  10.540  1.2407  1.9666  1.3387
  273MOL0     H35978   6.458   3.770  10.527 -0.5177  0.4725  2.1342
  273MOL0     H35979   6.650   4.018  10.572 -1.0848  4.7693 -4.4217
  273MOL0     H35980   6.490   4.054  10.530  0.4888  1.4302  2.4294
  273MOL0     H35981   6.554   4.053  10.770 -2.1558 -0.8136  0.8498
  273MOL0     H35982   6.548   3.875  10.755 -1.5182 -0.1085  1.6029
  273MOL0     H35983   6.320   3.885  10.652  1.4301 -0.3734 -0.2206
  273MOL0     H35984   6.305   4.062  10.691  2.4106  1.7338  0.5724
  273MOL0     H35985   6.373   3.871  10.911  0.2404 -1.5646 -2.9953
  273MOL0     H35986   6.275   4.024  10.912 -2.9573  0.4669  0.5345
  273MOL0     H35987   6.153   3.816  10.966  1.7454  0.1237  0.0686
  273MOL0     H35988   6.175   3.758  10.801 -2.9534 -0.0590 -0.9914
  273MOL0     H35989   6.021   3.831  10.601  0.1720  0.0801 -0.8112
  273MOL0     H35990   5.734   3.878  10.545 -1.1251  0.1986  0.7939
  273MOL0     H35991   5.821   4.025  10.477 -2.0002 -1.1764 -1.0622
  273MOL0     H35992   5.666   4.157  10.644 -2.6695 -0.5286  1.1423
  273MOL0     H35993   5.594   4.006  10.678  2.2506 -1.4232 -0.0211
  273MOL0     H35994   5.607   4.129  10.409  0.8019  0.1166  1.0845
  273MOL0     H35995   5.519   3.978  10.442 -0.1029  0.2704 -0.1073
  273MOL0     H35996   5.364   4.140  10.427  2.7613 -0.5980 -1.4755
  273MOL0     H35997   5.451   4.269  10.520 -1.2464  1.1422  1.2886
  273MOL0     H35998   5.242   4.056  10.849  3.7950  2.1118 -1.5784
  273MOL0     H35999   5.011   4.116  10.917  0.6380 -0.4029  1.0616
  273MOL0     H36000   4.580   4.317  10.826 -0.9214  0.5921  0.4074
  273MOL0     H36001   4.385   4.376  10.971 -0.5374 -2.8683 -2.4575
  273MOL0     H36002   4.232   4.413  11.113  0.6236 -0.0850 -0.6723
  273MOL0     H36003   4.318   4.555  11.172 -0.2698  0.3626  0.8235
  273MOL0     H36004   4.131   4.561  11.290 -0.7635 -0.5325  0.5128
  273MOL0     H36005   4.252   4.489  11.402  0.7230 -0.3647  0.5158
  273MOL0     H36006   4.150   4.259  11.344  0.3879  0.5612  4.1847
  273MOL0     H36007   4.053   4.334  11.219 -0.0562 -1.1611  0.7446
  273MOL0     H36008   4.034   4.349  11.513 -0.5558  2.1789  2.3272
  273MOL0     H36009   3.954   4.484  11.423  2.5786  0.7570 -2.7060
  273MOL0     H36010   3.821   4.259  11.493  0.9206 -0.4484  1.3865
  273MOL0     H36011   3.907   4.197  11.345  3.4183  1.5960 -0.1393
  273MOL0     H36012   3.821   4.391  11.216  0.9245  1.4587  2.3055
  273MOL0     H36013   3.732   4.443  11.353  2.3965  2.0368 -0.4288
  273MOL0     H36014   3.611   4.289  11.158  0.8456  3.3937  0.4243
  273MOL0     H36015   3.684   4.158  11.257 -0.7429 -0.0905  0.8450
  273MOL0     H36016   3.514   4.388  11.361 -1.2303 -1.0665 -1.2668
  273MOL0     H36017   3.568   4.250  11.454  2.4645 -1.3999 -1.3240
  273MOL0     H36018   4.614   4.294  11.325 -1.3704  2.0008 -0.1684
  273MOL0     H36019   4.810   4.250  11.183 -0.1696  0.9140  0.5788
  273MOL0     H36020   4.965   4.355  10.555 -0.1755  1.0032  0.2269
  273MOL0     H36021   5.194   4.276  10.499  2.9021 -0.6358  2.3130
  273MOL0     H36022   6.352   3.610   9.959  0.3754  0.3883  1.2438
  273MOL0     H36023   6.345   3.390   9.849 -3.2522  1.4167  2.7186
  273MOL0     H36024   6.419   3.008   9.795 -0.6838 -1.2158  0.4243
  273MOL0     H36025   6.431   2.785   9.711  0.6742 -0.6690 -0.2763
  273MOL0     H36026   6.837   2.605   9.601 -0.6189  1.0369  0.7114
  273MOL0     H36027   6.779   2.673   9.448  2.2909  0.0941  0.4683
  273MOL0     H36028   6.643   2.423   9.539  2.6603  0.9548  2.8470
  273MOL0     H36029   6.644   2.502   9.379  1.9396  0.6732 -1.3395
  273MOL0     H36030   6.779   2.277   9.408  1.2695 -0.6669  0.1309
  273MOL0     H36031   6.894   2.386   9.509  2.0526  3.7882 -1.8747
  273MOL0     H36032   6.945   2.507   9.308 -1.3790  1.1033 -1.2723
  273MOL0     H36033   6.975   2.334   9.273 -0.6678 -0.3750  0.3341
  273MOL0     H36034   6.646   2.419   9.019  0.8704  1.5077 -1.1905
  273MOL0     H36035   6.837   2.822   9.611  0.0727  0.5104 -1.5398
  273MOL0     H36036   6.843   3.056   9.714 -1.7682  2.3446  1.3686
  274MOL0     O36037  10.259   0.272   2.116  0.6329  0.8275  0.7081
  274MOL0     C36038  10.206   0.380   2.133 -0.2282  0.0719 -0.9014
  274MOL0     O36039  10.241   0.476   2.216  0.1110  0.0760  0.2433
  274MOL0     C36040  10.341   0.449   2.313  0.0082 -0.2105  0.4282
  274MOL0     C36041  10.359   0.331   2.377 -0.4525  0.2442 -0.1867
  274MOL0     C36042  10.457   0.315   2.480  0.3524 -0.4640 -0.1017
  274MOL0     C36043  10.538   0.424   2.520 -0.3317 -0.3930 -0.1593
  274MOL0     O36044  10.616   0.430   2.633  0.2910 -0.3549  0.6141
  274MOL0     C36045  10.607   0.319   2.720 -0.3856 -0.2193  0.4849
  274MOL0     C36046  10.687   0.342   2.849 -0.2214 -0.2570  0.7246
  274MOL0     C36047  10.842   0.347   2.831  0.0861 -0.6821  0.6923
  274MOL0     C36048  10.919   0.344   2.956  0.2962  0.7583 -0.5492
  274MOL0     C36049  11.075   0.340   2.939  0.0164 -0.0531  1.0814
  274MOL0     C36050  11.140   0.341   3.079 -0.1856 -0.1114 -0.3179
  274MOL0     C36051  11.302   0.351   3.101 -0.8355  0.1500 -0.2116
  274MOL0     C36052  11.362   0.478   3.041 -0.5171 -0.8988 -0.1559
  274MOL0     N36053  11.507   0.493   3.040  0.5276 -0.2485 -0.4724
  274MOL0     C36054  11.598   0.399   3.081 -0.0239 -0.2141  0.8439
  274MOL0     C36055  11.721   0.459   3.086 -0.1318 -0.3773 -0.0880
  274MOL0     C36056  11.854   0.409   3.101  0.5357 -0.5495  0.7183
  274MOL0     C36057  11.886   0.378   3.243 -0.4017  0.4353 -0.2632
  274MOL0     C36058  11.806   0.253   3.297  0.4066  0.2430  0.7325
  274MOL0     C36059  11.805   0.123   3.212 -0.4217  0.2102 -0.7763
  274MOL0     O36060  11.733   0.017   3.272  0.1085 -0.2223 -1.0274
  274MOL0     C36061  11.608   0.007   3.221 -0.4637 -0.2382 -0.5131
  274MOL0     C36062  11.581  -0.045   3.092  0.2321  0.0811  0.3891
  274MOL0     C36063  11.448  -0.055   3.049  0.2362  0.7207 -0.1914
  274MOL0     C36064  11.342  -0.022   3.133  0.2359 -0.2808  0.6815
  274MOL0     C36065  11.206  -0.032   3.095  1.1022  0.2377  0.1973
  274MOL0     O36066  11.109  -0.059   3.201  0.5408  0.0256  0.2117
  274MOL0     C36067  10.978  -0.061   3.167  1.0482  0.3660  0.2777
  274MOL0     C36068  10.894   0.024   3.243  0.5117  0.2237 -0.4875
  274MOL0     C36069  10.758   0.040   3.221  0.0818 -0.0637 -0.4277
  274MOL0     C36070  10.690  -0.028   3.130  0.4179  0.1717  0.2766
  274MOL0     O36071  10.561   0.001   3.113  0.2874  0.1171  0.1363
  274MOL0     C36072  10.516  -0.018   2.978 -0.2207 -1.2641 -0.0400
  274MOL0     C36073  10.388   0.063   2.962 -0.4243 -0.5941  0.2690
  274MOL0     C36074  10.317   0.021   2.833 -0.0170 -0.0960  0.0295
  274MOL0     C36075  10.197   0.123   2.817 -0.1596  0.0913  0.5783
  274MOL0     C36076  10.122   0.102   2.684 -0.0026  0.4487 -0.9792
  274MOL0     C36077  10.014   0.216   2.672 -0.5632  1.0095  0.6514
  274MOL0     C36078   9.967   0.231   2.528 -0.7900  0.6744 -0.5066
  274MOL0     C36079   9.829   0.289   2.525  0.6380 -0.6117 -0.3976
  274MOL0    Cl36080   9.800   0.331   2.352  0.0768  0.0275  0.3306
  274MOL0     C36081  10.766  -0.105   3.047  0.3202  0.3743  0.5510
  274MOL0     C36082  10.908  -0.121   3.066  0.8673  1.7012  0.6764
  274MOL0     O36083  11.171  -0.003   2.972 -0.4771 -0.3152  0.3273
  274MOL0     C36084  11.369   0.021   3.264 -1.0572 -0.1368  0.4202
  274MOL0     C36085  11.503   0.026   3.316  0.1459  0.7212  0.5947
  274MOL0     N36086  11.699   0.596   3.064 -0.1669 -1.1104 -0.5254
  274MOL0     N36087  11.570   0.612   3.035  0.3438 -0.1680 -0.1208
  274MOL0     C36088  10.522   0.546   2.459  0.5140 -0.6891  0.8858
  274MOL0     C36089  10.424   0.558   2.348 -0.3499 -0.1964  0.1411
  274MOL0     C36090  10.090   0.415   2.053 -0.0222 -0.8092  0.2906
  274MOL0     C36091   9.996   0.506   2.095  0.9165 -0.7305 -0.0807
  274MOL0     C36092   9.881   0.531   2.015  0.3654  0.4528 -0.3328
  274MOL0     C36093   9.858   0.463   1.895  0.0524 -1.1575  0.5317
  274MOL0     O36094   9.747   0.468   1.817  0.2277 -0.4095 -0.3154
  274MOL0     C36095   9.638   0.556   1.870  0.0008  0.1980 -0.3117
  274MOL0     C36096   9.552   0.491   1.983  0.7988  0.5696 -0.0979
  274MOL0     C36097   9.475   0.371   1.915 -0.2475 -0.5657  0.0830
  274MOL0     C36098   9.430   0.282   2.030 -0.2865 -0.0425 -0.0043
  274MOL0     C36099   9.328   0.186   1.996  0.2301  0.0710 -0.7909
  274MOL0     C36100   9.243   0.096   1.974 -0.9634 -0.2227  0.1383
  274MOL0     C36101   9.951   0.380   1.855  0.0201 -0.3020 -0.0538
  274MOL0     C36102  10.063   0.354   1.931  0.2484  0.2488  0.9950
  274MOL0     H36103  10.289   0.249   2.358 -0.3955  0.6199 -2.2576
  274MOL0     H36104  10.453   0.217   2.528 -0.4677 -0.8865 -0.9994
  274MOL0     H36105  10.651   0.242   2.657 -1.0572  0.6356 -1.0817
  274MOL0     H36106  10.501   0.307   2.744 -0.9876  0.2555 -1.6919
  274MOL0     H36107  10.660   0.254   2.909  3.6153 -1.6198  0.7520
  274MOL0     H36108  10.642   0.429   2.899 -0.9689 -0.4904  0.4724
  274MOL0     H36109  10.872   0.435   2.772  5.6406 -1.5056  1.7519
  274MOL0     H36110  10.878   0.265   2.768  3.4692 -0.0233  1.5478
  274MOL0     H36111  10.902   0.431   3.020 -1.3696  0.6272 -0.7629
  274MOL0     H36112  10.890   0.252   3.007 -0.9722 -0.1808 -2.8125
  274MOL0     H36113  11.105   0.430   2.884  0.0555 -0.8376 -0.2360
  274MOL0     H36114  11.125   0.256   2.890 -0.8302  1.0513 -1.9238
  274MOL0     H36115  11.107   0.253   3.134  1.2212 -1.7232 -1.8988
  274MOL0     H36116  11.102   0.431   3.129  1.2103  0.8385 -0.8670
  274MOL0     H36117  11.320   0.344   3.209  0.2047 -1.4122 -0.4558
  274MOL0     H36118  11.339   0.261   3.052  1.2639  1.2038 -0.6670
  274MOL0     H36119  11.324   0.570   3.085  3.3658  2.1894 -2.5286
  274MOL0     H36120  11.334   0.491   2.936  1.9561  1.5177 -0.6180
  274MOL0     H36121  11.584   0.292   3.088  1.3024 -0.4474  0.2009
  274MOL0     H36122  11.921   0.490   3.071 -0.1386 -0.8716 -1.8878
  274MOL0     H36123  11.887   0.332   3.031  1.0802  0.4545 -0.1407
  274MOL0     H36124  11.877   0.466   3.308 -2.4971 -0.7469  1.1726
  274MOL0     H36125  11.986   0.335   3.250 -1.6515 -2.5853  1.1266
  274MOL0     H36126  11.858   0.230   3.391  4.3430 -1.0736 -1.5485
  274MOL0     H36127  11.702   0.279   3.320 -1.4102 -2.5500 -3.1699
  274MOL0     H36128  11.912   0.097   3.209 -0.7004 -1.1146 -0.0231
  274MOL0     H36129  11.775   0.135   3.108  2.6083 -2.6846 -2.1656
  274MOL0     H36130  11.661  -0.072   3.025  0.2191  0.6477  0.1396
  274MOL0     H36131  11.444  -0.104   2.952  0.5480  1.1641 -0.4313
  274MOL0     H36132  10.935   0.083   3.324 -0.6206 -0.5343  0.7019
  274MOL0     H36133  10.694   0.095   3.290  2.1793  2.5403 -0.4020
  274MOL0     H36134  10.487  -0.121   2.956  0.0548 -1.6193  1.1754
  274MOL0     H36135  10.589   0.017   2.904 -0.4504 -0.7696 -0.0415
  274MOL0     H36136  10.399   0.171   2.956 -3.3872 -0.2045  0.4142
  274MOL0     H36137  10.317   0.060   3.045  0.0229  2.8534  0.9430
  274MOL0     H36138  10.267  -0.075   2.845 -1.1735  0.7063  2.0635
  274MOL0     H36139  10.392   0.016   2.753  0.0801 -1.1305  0.1757
  274MOL0     H36140  10.129   0.117   2.902 -0.5490  1.1152  0.3541
  274MOL0     H36141  10.248   0.220   2.812  2.4741 -1.1961  1.0148
  274MOL0     H36142  10.083   0.000   2.687  1.1204  0.0284  1.0366
  274MOL0     H36143  10.195   0.111   2.603 -0.0897 -2.8016 -1.5597
  274MOL0     H36144  10.054   0.311   2.710 -0.5120 -0.0253  3.3932
  274MOL0     H36145   9.930   0.189   2.737 -1.1393  0.9531 -0.1065
  274MOL0     H36146  10.035   0.291   2.466  1.1617 -0.7947  0.1256
  274MOL0     H36147   9.957   0.129   2.489 -5.5188  0.6371  0.2508
  274MOL0     H36148   9.823   0.382   2.584  2.2406  0.6632 -2.1368
  274MOL0     H36149   9.752   0.230   2.576 -0.9905  1.8209  0.1376
  274MOL0     H36150  10.727  -0.156   2.959 -0.1441 -1.6860  1.8719
  274MOL0     H36151  10.956  -0.193   3.001 -2.7561 -0.3235 -0.0102
  274MOL0     H36152  11.280   0.043   3.323  0.0823  2.2052  1.3561
  274MOL0     H36153  11.519   0.063   3.417 -1.4760 -0.7006  1.4302
  274MOL0     H36154  10.583   0.626   2.500 -1.2795  1.4108 -0.3481
  274MOL0     H36155  10.422   0.654   2.298 -2.3852  0.5166  1.4658
  274MOL0     H36156   9.997   0.554   2.193  0.2825 -0.7274 -0.0662
  274MOL0     H36157   9.823   0.610   2.062 -0.7190  0.2386 -1.2703
  274MOL0     H36158   9.575   0.574   1.783  1.0158 -1.9589 -1.5931
  274MOL0     H36159   9.673   0.656   1.896 -0.3334  0.5492 -1.1723
  274MOL0     H36160   9.617   0.448   2.061 -1.9945 -0.5648  1.7666
  274MOL0     H36161   9.483   0.562   2.029 -0.0846 -1.5893  2.1954
  274MOL0     H36162   9.535   0.328   1.835  0.4357  1.1859 -0.3962
  274MOL0     H36163   9.389   0.409   1.859 -0.7020  1.2146  1.8867
  274MOL0     H36164   9.512   0.215   2.057 -1.5785 -1.8406 -0.3456
  274MOL0     H36165   9.406   0.347   2.115 -0.4592  1.2685 -1.0274
  274MOL0     H36166   9.190   0.004   1.979  2.8859 -2.7354 -0.9669
  274MOL0     H36167   9.921   0.331   1.763 -0.7041  0.8883 -0.4828
  274MOL0     H36168  10.127   0.278   1.888 -0.7758  0.3338 -0.7654
  275MOL0     O36169   1.566   3.579   5.696  0.2194  0.5513 -0.4467
  275MOL0     C36170   1.557   3.456   5.672  0.2464  0.4799 -0.6828
  275MOL0     O36171   1.632   3.359   5.728 -0.9194  0.1053 -0.2268
  275MOL0     C36172   1.742   3.394   5.813 -0.8053  0.6310 -0.2873
  275MOL0     C36173   1.850   3.476   5.781 -0.6479 -0.1294 -0.5725
  275MOL0     C36174   1.951   3.499   5.874 -0.8143 -1.2270 -0.1209
  275MOL0     C36175   1.943   3.452   6.000 -0.3444 -0.3295 -0.4738
  275MOL0     O36176   2.053   3.482   6.083  0.0577 -0.2548 -0.2141
  275MOL0     C36177   2.040   3.449   6.224  0.3753 -0.7743  0.2749
  275MOL0     C36178   2.154   3.514   6.306 -0.8338  0.4338  0.3396
  275MOL0     C36179   2.296   3.447   6.271 -0.3096 -0.4641 -0.4644
  275MOL0     C36180   2.414   3.509   6.343  0.2646 -0.3032 -0.0797
  275MOL0     C36181   2.540   3.429   6.360 -0.0319 -0.4025 -0.2818
  275MOL0     C36182   2.629   3.407   6.235  0.8800 -0.4863 -0.8583
  275MOL0     C36183   2.752   3.319   6.262 -0.2591 -0.1881  1.2956
  275MOL0     C36184   2.847   3.336   6.138  0.2337 -0.1218 -0.1983
  275MOL0     N36185   2.790   3.264   6.023 -0.5332 -1.6418  0.5107
  275MOL0     C36186   2.748   3.313   5.900 -0.1312 -0.5822  0.2074
  275MOL0     C36187   2.714   3.206   5.826 -0.6630 -0.0258  0.0975
  275MOL0     C36188   2.669   3.209   5.680 -0.5310  0.2424  0.6901
  275MOL0     C36189   2.525   3.159   5.677 -0.2363 -0.4990 -0.7617
  275MOL0     C36190   2.464   3.157   5.537  0.1163 -0.4056 -0.1816
  275MOL0     C36191   2.326   3.102   5.522  0.1187 -0.0122 -0.0578
  275MOL0     O36192   2.298   3.086   5.380  0.0499 -0.2741 -0.9418
  275MOL0     C36193   2.184   3.028   5.336  0.8156 -0.4919 -1.2349
  275MOL0     C36194   2.176   3.010   5.198  0.7759 -0.3123  0.3393
  275MOL0     C36195   2.059   2.961   5.142 -0.0474  0.4203 -0.2151
  275MOL0     C36196   1.950   2.916   5.230  0.1069  0.6329  1.0042
  275MOL0     C36197   1.828   2.848   5.171  0.1557  0.0215  0.4172
  275MOL0     O36198   1.724   2.818   5.249  0.2764 -0.1445  0.1321
  275MOL0     C36199   1.596   2.800   5.189  0.0232 -0.1147 -1.0851
  275MOL0     C36200   1.545   2.889   5.095 -0.3501  0.7773  0.2236
  275MOL0     C36201   1.434   2.852   5.017  0.4499  0.1255  0.4525
  275MOL0     C36202   1.371   2.723   5.046 -0.1797 -0.6709 -0.3832
  275MOL0     O36203   1.251   2.693   4.988  0.2989  0.4613  0.2870
  275MOL0     C36204   1.158   2.681   5.096 -0.5693 -0.3131  1.1900
  275MOL0     C36205   1.007   2.687   5.057  0.8143 -0.2556 -0.3973
  275MOL0     C36206   0.964   2.560   4.985  0.1632  0.3513  0.0563
  275MOL0     C36207   0.812   2.552   4.975  0.0362  0.0013 -0.7051
  275MOL0     C36208   0.755   2.425   4.904 -0.9232  0.5617 -0.0403
  275MOL0     C36209   0.794   2.291   4.985 -0.0461 -0.6689 -0.2599
  275MOL0     C36210   0.707   2.185   4.920 -0.3249 -0.0188 -0.6681
  275MOL0     C36211   0.770   2.125   4.797  0.1839  0.3219 -0.1930
  275MOL0    Cl36212   0.891   2.009   4.845  0.1187 -0.2708 -0.0459
  275MOL0     C36213   1.425   2.632   5.140  0.6284  1.0610  0.0393
  275MOL0     C36214   1.532   2.674   5.216  0.3206 -0.2994 -0.1413
  275MOL0     O36215   1.836   2.827   5.049 -0.2469 -1.2601 -0.1342
  275MOL0     C36216   1.960   2.935   5.371 -0.3523 -1.0702 -0.5535
  275MOL0     C36217   2.079   2.997   5.421 -0.6252 -0.1876 -0.0763
  275MOL0     N36218   2.719   3.091   5.910 -0.2616 -0.0833  0.3646
  275MOL0     N36219   2.770   3.131   6.026  0.3990  0.2998  0.7708
  275MOL0     C36220   1.820   3.387   6.042  0.3005 -0.4419  0.3866
  275MOL0     C36221   1.725   3.356   5.941 -0.0700 -0.3671  0.1422
  275MOL0     C36222   1.475   3.423   5.559  0.2826 -0.0235 -0.1741
  275MOL0     C36223   1.435   3.295   5.549 -0.6561 -0.0493  0.1033
  275MOL0     C36224   1.371   3.243   5.439  0.0845  0.1893  0.8131
  275MOL0     C36225   1.336   3.318   5.332 -0.2570 -0.0797  0.6543
  275MOL0     O36226   1.287   3.245   5.224  0.0753  0.0320 -0.2595
  275MOL0     C36227   1.253   3.311   5.097 -0.3330  0.3160  0.2080
  275MOL0     C36228   1.156   3.245   5.000 -0.0116  0.0667  0.0786
  275MOL0     C36229   1.196   3.098   4.994  0.8914 -0.7520  0.1598
  275MOL0     C36230   1.131   3.023   4.883 -0.4229  0.1886 -0.0901
  275MOL0     C36231   1.188   3.055   4.752  0.1082  0.5048 -0.7046
  275MOL0     C36232   1.210   3.088   4.638  0.9576  0.7801  0.8701
  275MOL0     C36233   1.376   3.460   5.344 -0.4942  0.8453 -0.3435
  275MOL0     C36234   1.450   3.510   5.454 -0.1242  0.3866 -0.6280
  275MOL0     H36235   1.857   3.515   5.680  1.6454  1.7250  0.2289
  275MOL0     H36236   2.043   3.548   5.843 -1.2840 -0.2934 -0.0789
  275MOL0     H36237   2.047   3.341   6.238 -0.2482 -1.1480 -1.8908
  275MOL0     H36238   1.949   3.494   6.263  1.7854  3.4215 -0.7230
  275MOL0     H36239   2.152   3.489   6.413  5.0538  1.4766  1.0322
  275MOL0     H36240   2.160   3.622   6.292  0.0839  0.5856  1.6472
  275MOL0     H36241   2.320   3.460   6.165 -0.2180 -3.5183 -0.9108
  275MOL0     H36242   2.295   3.340   6.293  2.7353 -0.6109 -0.5526
  275MOL0     H36243   2.439   3.600   6.289  1.7113 -1.5615 -1.6435
  275MOL0     H36244   2.389   3.545   6.443  1.6713  2.6111 -0.6753
  275MOL0     H36245   2.510   3.327   6.387 -1.0618 -1.1994 -3.9481
  275MOL0     H36246   2.596   3.473   6.444 -0.4719 -0.2632 -0.0604
  275MOL0     H36247   2.667   3.506   6.208  2.6301 -0.3929  1.5492
  275MOL0     H36248   2.567   3.378   6.150  0.2956  1.4090 -1.1198
  275MOL0     H36249   2.802   3.353   6.353  0.4159  1.2249  0.4313
  275MOL0     H36250   2.731   3.212   6.269  0.6603 -0.4534  0.2916
  275MOL0     H36251   2.944   3.290   6.158 -0.0591 -1.7052 -2.0873
  275MOL0     H36252   2.854   3.443   6.117 -1.3556  0.3794  1.5082
  275MOL0     H36253   2.746   3.415   5.864 -1.6313 -0.9867 -0.9578
  275MOL0     H36254   2.739   3.139   5.634  1.0722  1.7382  0.7440
  275MOL0     H36255   2.669   3.309   5.636 -3.1256 -0.0420 -0.1793
  275MOL0     H36256   2.459   3.214   5.745  0.0769  0.4148 -1.1907
  275MOL0     H36257   2.521   3.056   5.715 -1.3396 -1.3807 -3.1080
  275MOL0     H36258   2.451   3.258   5.497 -5.4094 -0.2813  1.1034
  275MOL0     H36259   2.539   3.103   5.479  0.5965  0.1542 -0.0989
  275MOL0     H36260   2.249   3.170   5.563 -0.2726 -0.2915 -0.3239
  275MOL0     H36261   2.327   3.008   5.577  3.0216 -0.4873 -0.7965
  275MOL0     H36262   2.263   3.038   5.139  2.7464 -2.0774  2.1884
  275MOL0     H36263   2.048   2.959   5.034  0.7742 -2.9032 -0.3218
  275MOL0     H36264   1.592   2.982   5.069 -1.9660  1.7027  0.4636
  275MOL0     H36265   1.398   2.910   4.933 -0.0826 -2.8704 -1.5519
  275MOL0     H36266   1.179   2.762   5.166 -0.9844  1.1093 -0.2644
  275MOL0     H36267   1.170   2.585   5.146 -0.1081 -1.2189 -0.5754
  275MOL0     H36268   0.982   2.767   4.986 -0.7893  0.0299  0.4621
  275MOL0     H36269   0.954   2.704   5.151  1.4859 -1.3561  0.2027
  275MOL0     H36270   0.996   2.476   5.047  0.6334  1.8774  1.9703
  275MOL0     H36271   1.003   2.561   4.883  2.3379 -0.6941  0.8232
  275MOL0     H36272   0.769   2.549   5.076  0.2373 -0.1053 -0.6232
  275MOL0     H36273   0.766   2.642   4.934  1.6750  1.8067  1.1829
  275MOL0     H36274   0.814   2.419   4.811 -1.7931  0.5037 -0.5981
  275MOL0     H36275   0.648   2.437   4.889 -0.8687 -0.0325 -1.0298
  275MOL0     H36276   0.763   2.303   5.089  0.3035  1.4254 -0.3666
  275MOL0     H36277   0.901   2.270   4.978  0.0918  0.5030 -2.6660
  275MOL0     H36278   0.673   2.115   4.997  0.9223 -1.9096 -1.7332
  275MOL0     H36279   0.618   2.230   4.876  0.6047  1.6915 -0.8746
  275MOL0     H36280   0.790   2.203   4.724 -3.1168  1.1762 -0.3610
  275MOL0     H36281   0.693   2.059   4.755  1.6897 -1.5957 -0.0635
  275MOL0     H36282   1.393   2.531   5.160  1.1532  1.0197  0.7132
  275MOL0     H36283   1.569   2.609   5.295 -3.4245 -1.0052  1.2553
  275MOL0     H36284   1.881   2.910   5.441 -0.2472  3.4499  1.5758
  275MOL0     H36285   2.097   2.997   5.528  3.0477 -2.2808 -0.5038
  275MOL0     H36286   1.809   3.361   6.147 -0.8316  0.7164  0.5849
  275MOL0     H36287   1.639   3.294   5.962 -0.6136  0.1393 -0.5554
  275MOL0     H36288   1.461   3.233   5.634  3.7563  2.0586  0.5895
  275MOL0     H36289   1.345   3.139   5.453  1.3338  0.0203  2.1935
  275MOL0     H36290   1.353   3.329   5.056 -0.1886  0.7949  0.7494
  275MOL0     H36291   1.213   3.410   5.122  0.3459 -0.0315  3.0481
  275MOL0     H36292   1.052   3.249   5.031  0.0292  0.7875  0.1294
  275MOL0     H36293   1.169   3.298   4.905  0.3621  0.1733  0.1869
  275MOL0     H36294   1.169   3.057   5.091 -0.3207  2.6201  1.3997
  275MOL0     H36295   1.305   3.093   4.991  1.0576  1.8613 -1.3436
  275MOL0     H36296   1.147   2.917   4.906  1.7436  0.7931  1.4524
  275MOL0     H36297   1.023   3.039   4.889 -0.2740  0.6171  2.1496
  275MOL0     H36298   1.224   3.133   4.541 -2.6576  1.2411  0.4166
  275MOL0     H36299   1.349   3.535   5.271 -2.0983  0.8703  0.2504
  275MOL0     H36300   1.482   3.614   5.459  2.9738 -0.4324 -0.9708
  276MOL0     O36301   3.089   4.028   6.303 -0.0068 -0.4289 -0.3504
  276MOL0     C36302   3.159   3.934   6.274  1.2196  0.5811 -0.2735
  276MOL0     O36303   3.123   3.812   6.216  0.5468  0.7863 -0.7982
  276MOL0     C36304   2.987   3.801   6.205  1.4105 -0.0319  0.0078
  276MOL0     C36305   2.921   3.852   6.093  0.1706 -0.7087 -0.1989
  276MOL0     C36306   2.786   3.834   6.076  0.5135  1.0688 -0.4084
  276MOL0     C36307   2.716   3.777   6.193 -0.3663 -1.3305 -0.0798
  276MOL0     O36308   2.585   3.770   6.196  0.5427  0.6889  0.2235
  276MOL0     C36309   2.514   3.854   6.099 -1.5539  1.1383 -0.3623
  276MOL0     C36310   2.368   3.827   6.116  0.0366 -0.1594  0.0877
  276MOL0     C36311   2.285   3.865   5.994  0.0449 -0.3370 -0.1523
  276MOL0     C36312   2.133   3.856   6.018 -0.3067 -0.4716 -0.3895
  276MOL0     C36313   2.055   3.891   5.895  0.5595  0.4629 -0.0237
  276MOL0     C36314   1.903   3.862   5.906 -0.8037 -0.4724  0.1647
  276MOL0     C36315   1.836   3.913   5.776  0.5141 -1.1443 -0.2051
  276MOL0     C36316   1.703   3.840   5.747 -0.6893 -0.0323  0.0480
  276MOL0     N36317   1.646   3.878   5.616  0.1077 -0.8688  0.1009
  276MOL0     C36318   1.508   3.877   5.603  0.2441 -0.4871 -0.2325
  276MOL0     C36319   1.487   3.885   5.466 -0.3557  0.2147 -0.2025
  276MOL0     C36320   1.363   3.900   5.394 -0.1664 -0.2580 -0.0121
  276MOL0     C36321   1.369   3.865   5.241  0.6555  0.2309  0.1035
  276MOL0     C36322   1.446   3.970   5.153  0.5052 -0.2233 -0.5709
  276MOL0     C36323   1.414   4.120   5.181  0.0122  0.5300  0.2572
  276MOL0     O36324   1.283   4.142   5.121  0.3226  0.4488 -0.2740
  276MOL0     C36325   1.170   4.180   5.195  0.1516 -1.2188 -0.0965
  276MOL0     C36326   1.041   4.163   5.134  0.3208  0.5608 -0.0084
  276MOL0     C36327   0.923   4.202   5.196 -0.1064  0.5105 -0.4495
  276MOL0     C36328   0.931   4.272   5.318 -0.7111  0.4476 -0.8399
  276MOL0     C36329   0.797   4.321   5.373 -1.2742 -0.2636  1.1627
  276MOL0     O36330   0.693   4.302   5.287  0.0911 -0.3863 -0.8907
  276MOL0     C36331   0.577   4.380   5.306 -0.3547  0.6014 -1.0481
  276MOL0     C36332   0.499   4.392   5.189 -0.1905 -0.7498 -0.1672
  276MOL0     C36333   0.377   4.456   5.195  0.5697  0.9742 -0.3172
  276MOL0     C36334   0.329   4.527   5.307 -0.4883 -0.1868 -0.1123
  276MOL0     O36335   0.213   4.601   5.312 -0.5010 -0.0010 -0.8012
  276MOL0     C36336   0.126   4.593   5.197 -0.0052  0.2303  0.5881
  276MOL0     C36337  -0.010   4.668   5.197 -0.0076  0.4311 -0.3135
  276MOL0     C36338  -0.075   4.655   5.337 -0.8307  0.3946 -0.6985
  276MOL0     C36339  -0.205   4.733   5.323  0.0956 -0.3244  0.5592
  276MOL0     C36340  -0.292   4.743   5.453  0.8295  0.0067 -0.4647
  276MOL0     C36341  -0.339   4.603   5.493 -0.2695 -0.5485  0.0100
  276MOL0     C36342  -0.439   4.607   5.614  0.2997 -0.0076  0.4834
  276MOL0     C36343  -0.519   4.474   5.624 -0.0389  0.1759 -0.2226
  276MOL0    Cl36344  -0.404   4.340   5.630  0.6219  0.2436 -0.4920
  276MOL0     C36345   0.407   4.511   5.423  0.0975  0.7772 -0.1209
  276MOL0     C36346   0.528   4.436   5.426 -0.4594 -0.1290  0.2779
  276MOL0     O36347   0.796   4.357   5.486  0.5471  0.3666 -0.3156
  276MOL0     C36348   1.054   4.288   5.379 -0.4060  0.6050 -0.7031
  276MOL0     C36349   1.170   4.243   5.319  0.8595  0.2255 -0.3893
  276MOL0     N36350   1.615   3.872   5.409  0.0042 -0.2589 -0.5262
  276MOL0     N36351   1.708   3.878   5.495 -0.1663  0.7238 -1.1553
  276MOL0     C36352   2.782   3.736   6.301  0.1844 -0.1372 -0.3688
  276MOL0     C36353   2.918   3.740   6.308  0.7759 -0.1193 -0.1572
  276MOL0     C36354   3.300   3.934   6.315  0.1720  0.1039  0.9453
  276MOL0     C36355   3.339   4.002   6.426 -0.3735 -0.2205  0.5056
  276MOL0     C36356   3.481   4.007   6.454 -0.1949  0.0378 -0.8563
  276MOL0     C36357   3.579   3.959   6.369 -0.5311  0.2470 -0.7113
  276MOL0     O36358   3.707   4.006   6.403 -0.0001  0.4295  0.1646
  276MOL0     C36359   3.814   3.963   6.326 -0.3599  0.3319  0.9616
  276MOL0     C36360   3.836   4.014   6.185 -0.2834  0.0342 -0.0039
  276MOL0     C36361   3.966   3.962   6.125 -0.5612  0.4638 -0.1231
  276MOL0     C36362   3.994   4.035   5.995  1.0024 -0.5102  0.6402
  276MOL0     C36363   4.135   4.014   5.955  0.4413  0.1809 -0.4598
  276MOL0     C36364   4.245   3.970   5.925 -0.7697 -1.0305  0.1842
  276MOL0     C36365   3.530   3.884   6.266 -0.4101 -0.5262  0.3963
  276MOL0     C36366   3.400   3.869   6.239  0.3005  0.1148 -1.0886
  276MOL0     H36367   2.975   3.895   6.009  1.4845 -0.2513  0.8292
  276MOL0     H36368   2.746   3.863   5.979 -1.0073 -2.0496 -0.8279
  276MOL0     H36369   2.542   3.820   5.999  1.0378 -3.8826  1.7140
  276MOL0     H36370   2.539   3.960   6.114 -0.4287  0.7643  0.5518
  276MOL0     H36371   2.334   3.894   6.196  1.3085  3.8796 -2.4455
  276MOL0     H36372   2.346   3.721   6.133 -3.0004  0.3674  0.0888
  276MOL0     H36373   2.315   3.824   5.897  1.2523 -0.8164  0.4031
  276MOL0     H36374   2.286   3.975   5.988 -1.4549 -0.0499  2.9395
  276MOL0     H36375   2.120   3.761   6.072 -1.6510 -0.0916 -0.0114
  276MOL0     H36376   2.110   3.935   6.090 -0.9919 -0.3600 -0.7277
  276MOL0     H36377   2.103   3.828   5.820  0.8157  0.1554  0.3954
  276MOL0     H36378   2.070   3.993   5.858  2.1872 -0.0627 -0.9126
  276MOL0     H36379   1.868   3.914   5.996 -1.6796 -0.1872 -0.3333
  276MOL0     H36380   1.885   3.757   5.927 -0.8950 -0.0316  2.5827
  276MOL0     H36381   1.821   4.021   5.786  0.6931 -0.8901 -2.1893
  276MOL0     H36382   1.908   3.896   5.696  0.0946  2.3313 -1.4826
  276MOL0     H36383   1.631   3.859   5.828  0.1175  1.4009  0.4704
  276MOL0     H36384   1.725   3.733   5.743 -3.6604 -0.7201 -1.0839
  276MOL0     H36385   1.424   3.881   5.671 -0.4042 -1.5029 -0.9297
  276MOL0     H36386   1.341   4.006   5.413  1.1026 -0.2208  1.3939
  276MOL0     H36387   1.293   3.833   5.446  1.0130  0.0761  2.1121
  276MOL0     H36388   1.265   3.852   5.210  0.5330 -1.9588  1.2041
  276MOL0     H36389   1.420   3.770   5.222  0.3624 -0.2126  1.4231
  276MOL0     H36390   1.553   3.959   5.174  0.2933 -0.0902  0.6401
  276MOL0     H36391   1.424   3.950   5.048 -0.3474 -1.2608 -0.2060
  276MOL0     H36392   1.489   4.170   5.119  1.4760 -1.5562  0.2694
  276MOL0     H36393   1.431   4.159   5.282  1.5924  0.6972 -0.0440
  276MOL0     H36394   1.047   4.104   5.043  2.6431  1.6082 -0.6159
  276MOL0     H36395   0.827   4.191   5.146  0.0780  2.5566 -1.3426
  276MOL0     H36396   0.535   4.349   5.096 -0.7307 -0.4592 -0.5196
  276MOL0     H36397   0.316   4.438   5.107 -2.6608 -0.8166  2.0833
  276MOL0     H36398   0.101   4.487   5.194 -1.2447  0.5043  0.8759
  276MOL0     H36399   0.177   4.621   5.104 -0.2435  0.6489  0.5808
  276MOL0     H36400  -0.081   4.633   5.122 -2.5749  0.5759  1.8814
  276MOL0     H36401   0.008   4.773   5.169  0.1470  1.1141  2.0979
  276MOL0     H36402  -0.016   4.707   5.413  0.1793 -0.9399 -0.5110
  276MOL0     H36403  -0.096   4.553   5.373  0.3667  0.3312 -0.1073
  276MOL0     H36404  -0.181   4.836   5.294 -0.1673 -0.2937  0.4489
  276MOL0     H36405  -0.256   4.680   5.242  1.8116 -1.5233  0.2128
  276MOL0     H36406  -0.383   4.801   5.436 -1.2017 -3.1034 -0.9651
  276MOL0     H36407  -0.229   4.792   5.528 -0.4919  1.1225 -0.0336
  276MOL0     H36408  -0.258   4.533   5.519 -1.6554 -1.7366  1.3152
  276MOL0     H36409  -0.393   4.560   5.408 -0.2792 -0.8629  0.1719
  276MOL0     H36410  -0.388   4.640   5.704 -1.5304  1.8190  0.9216
  276MOL0     H36411  -0.505   4.692   5.594  0.7254 -0.3187 -2.8807
  276MOL0     H36412  -0.583   4.465   5.536 -1.0437  2.4771  0.1925
  276MOL0     H36413  -0.577   4.473   5.717 -2.0552  2.7383 -1.3097
  276MOL0     H36414   0.376   4.555   5.517  1.0544 -1.3987  1.3167
  276MOL0     H36415   0.589   4.433   5.516  0.5281  0.2840 -0.3597
  276MOL0     H36416   1.070   4.319   5.482  0.4592  0.4715 -0.7914
  276MOL0     H36417   1.253   4.264   5.386 -1.6166 -1.1060  3.4000
  276MOL0     H36418   2.718   3.707   6.384  1.2763 -2.2990 -0.2159
  276MOL0     H36419   2.978   3.726   6.397 -0.9672 -0.1525  1.0725
  276MOL0     H36420   3.268   4.061   6.483 -0.0339  1.9136 -1.1499
  276MOL0     H36421   3.516   4.052   6.546 -1.6472 -0.5085 -0.0081
  276MOL0     H36422   3.815   3.853   6.324  1.1707  0.3245 -0.0179
  276MOL0     H36423   3.897   3.995   6.389  0.5174 -3.6355  2.1226
  276MOL0     H36424   3.756   3.992   6.114  0.0860  5.7007 -2.7838
  276MOL0     H36425   3.826   4.123   6.173  0.8753  0.0601 -1.0173
  276MOL0     H36426   3.946   3.857   6.101 -0.1587  0.7054 -1.6111
  276MOL0     H36427   4.052   3.965   6.193  1.2190 -1.1134 -2.1674
  276MOL0     H36428   3.928   3.985   5.924  0.4575 -2.2706  2.2767
  276MOL0     H36429   3.967   4.140   6.003 -3.1168 -1.3854  0.0368
  276MOL0     H36430   4.340   3.940   5.885  0.1962 -0.3524  1.8718
  276MOL0     H36431   3.594   3.847   6.187  0.0038 -0.4420  0.6865
  276MOL0     H36432   3.374   3.796   6.163 -0.4037 -2.2893  1.3156
  277MOL0     O36433   8.757   6.316   7.756 -0.7094  0.3777 -0.0311
  277MOL0     C36434   8.850   6.289   7.677  0.1418  0.8379 -0.0638
  277MOL0     O36435   8.844   6.195   7.581 -0.0066  0.2571 -0.3492
  277MOL0     C36436   8.738   6.121   7.555 -0.4228  0.9397  0.4793
  277MOL0     C36437   8.615   6.153   7.520  0.9939 -0.2593  0.6503
  277MOL0     C36438   8.506   6.061   7.503 -0.5459 -0.7607  0.2899
  277MOL0     C36439   8.539   5.923   7.525 -0.3359  1.0172  0.2034
  277MOL0     O36440   8.447   5.826   7.516  0.0391 -0.2440  0.5853
  277MOL0     C36441   8.457   5.735   7.404  0.0277 -0.9084 -0.8445
  277MOL0     C36442   8.317   5.728   7.341 -0.1787 -0.5313 -0.2790
  277MOL0     C36443   8.325   5.680   7.192 -0.4115  0.1669  0.4760
  277MOL0     C36444   8.183   5.686   7.128  0.2285 -0.0230  0.2674
  277MOL0     C36445   8.164   5.612   6.992  0.5949  0.2409  0.4569
  277MOL0     C36446   8.037   5.664   6.921 -0.3159 -0.6202  0.3387
  277MOL0     C36447   7.912   5.646   7.018 -0.6128 -0.0093 -0.1694
  277MOL0     C36448   7.790   5.650   6.938 -0.1796  0.3008 -0.1432
  277MOL0     N36449   7.659   5.634   7.014 -0.4173  0.4888 -0.6173
  277MOL0     C36450   7.613   5.736   7.095  0.0375 -0.4050  0.1698
  277MOL0     C36451   7.506   5.676   7.170 -0.4614 -0.9352 -0.2679
  277MOL0     C36452   7.421   5.753   7.272  0.1720 -0.1071  0.3293
  277MOL0     C36453   7.277   5.774   7.238 -0.8502 -0.0476  0.3114
  277MOL0     C36454   7.189   5.820   7.362 -0.0039 -0.0242  0.9045
  277MOL0     C36455   7.041   5.844   7.333  0.6620 -1.3725 -0.4669
  277MOL0     O36456   6.987   5.737   7.253  0.1972 -0.6183  0.0022
  277MOL0     C36457   6.856   5.742   7.222  0.1263  0.2172 -0.4840
  277MOL0     C36458   6.794   5.627   7.168  0.3501  0.4094 -0.3009
  277MOL0     C36459   6.664   5.619   7.109  0.4441  0.0936 -0.5926
  277MOL0     C36460   6.576   5.730   7.147  0.1709  0.8075 -0.0352
  277MOL0     C36461   6.440   5.738   7.102  0.3721 -0.5127  0.3546
  277MOL0     O36462   6.398   5.630   7.032  0.0664  0.4347  0.6160
  277MOL0     C36463   6.289   5.642   6.954  0.5822  0.5608  0.2072
  277MOL0     C36464   6.246   5.748   6.876 -0.2752  0.3688  0.3442
  277MOL0     C36465   6.139   5.745   6.785  0.0778  0.8691  0.4070
  277MOL0     C36466   6.071   5.624   6.763 -0.4856 -0.4395  0.5511
  277MOL0     O36467   5.957   5.622   6.676 -0.3808 -0.5918  0.2972
  277MOL0     C36468   5.927   5.724   6.583 -0.2507 -0.4682 -0.5128
  277MOL0     C36469   5.823   5.677   6.488  0.4139  0.7663 -0.0664
  277MOL0     C36470   5.689   5.629   6.545 -0.4724 -0.2461  0.1192
  277MOL0     C36471   5.610   5.738   6.616  1.0649 -0.0188 -0.2350
  277MOL0     C36472   5.475   5.701   6.671  0.4075 -0.4018 -0.6119
  277MOL0     C36473   5.382   5.644   6.567 -0.3688  0.7646  0.0880
  277MOL0     C36474   5.235   5.620   6.604 -1.0431 -0.1163  0.3070
  277MOL0     C36475   5.166   5.528   6.505  0.0258 -0.8014  0.0793
  277MOL0    Cl36476   5.007   5.498   6.589  0.4603 -0.0773 -0.1061
  277MOL0     C36477   6.112   5.516   6.832 -0.1298 -0.2163 -0.4760
  277MOL0     C36478   6.218   5.519   6.923 -0.2230  0.0271 -0.4351
  277MOL0     O36479   6.364   5.832   7.135  0.0277 -0.0603  0.3232
  277MOL0     C36480   6.634   5.830   7.224  0.5490  0.2056 -0.3114
  277MOL0     C36481   6.764   5.841   7.268  0.6734  0.3940 -1.1661
  277MOL0     N36482   7.491   5.541   7.132 -0.7640 -0.3408  0.3204
  277MOL0     N36483   7.589   5.521   7.044 -0.1984 -0.2517 -0.2144
  277MOL0     C36484   8.669   5.884   7.560 -1.0599 -1.0215  0.2677
  277MOL0     C36485   8.771   5.983   7.569  0.3676  0.5268  1.4723
  277MOL0     C36486   8.972   6.369   7.697  0.1955 -0.4545  0.4104
  277MOL0     C36487   9.080   6.317   7.628 -0.2549 -0.2940  0.3939
  277MOL0     C36488   9.209   6.377   7.643 -0.9524  0.0732 -0.0101
  277MOL0     C36489   9.220   6.481   7.736 -0.4053  0.6529  0.3811
  277MOL0     O36490   9.346   6.531   7.755 -0.6959 -0.2768 -0.4012
  277MOL0     C36491   9.368   6.652   7.696  0.2618 -0.0304 -0.1161
  277MOL0     C36492   9.516   6.665   7.646 -0.7971 -0.3752 -0.3131
  277MOL0     C36493   9.554   6.570   7.530  0.3434  0.5589  0.0726
  277MOL0     C36494   9.703   6.554   7.518  0.0890  0.8135  0.4496
  277MOL0     C36495   9.747   6.440   7.602 -0.4620 -0.3985 -0.3018
  277MOL0     C36496   9.773   6.335   7.666 -0.1666 -0.7425 -0.3470
  277MOL0     C36497   9.108   6.525   7.812 -0.7029 -1.3359 -0.0120
  277MOL0     C36498   8.986   6.472   7.789 -0.3138 -0.2947 -0.1457
  277MOL0     H36499   8.593   6.259   7.510 -0.3313 -0.7072 -2.0113
  277MOL0     H36500   8.403   6.092   7.491  0.5035  2.7139 -0.8978
  277MOL0     H36501   8.496   5.638   7.434  2.0871  0.3865  0.9603
  277MOL0     H36502   8.527   5.764   7.325 -0.5926 -1.2554 -1.5390
  277MOL0     H36503   8.277   5.829   7.345  0.7711 -0.1872  1.4476
  277MOL0     H36504   8.249   5.665   7.400 -0.0528  0.1225  0.5918
  277MOL0     H36505   8.366   5.578   7.194  0.6811  0.5143 -1.6889
  277MOL0     H36506   8.389   5.749   7.138 -1.6578  1.9411  1.1727
  277MOL0     H36507   8.110   5.638   7.193  0.5386 -2.0046 -0.7551
  277MOL0     H36508   8.153   5.790   7.112  0.6477  0.0652  0.0505
  277MOL0     H36509   8.150   5.505   7.010 -1.2861  0.0708 -1.6458
  277MOL0     H36510   8.251   5.626   6.927  0.6996 -0.1587  0.5103
  277MOL0     H36511   8.010   5.599   6.837 -0.0323 -1.2438  0.7233
  277MOL0     H36512   8.048   5.768   6.890 -1.2105  0.3025  2.8279
  277MOL0     H36513   7.923   5.555   7.078  2.4993 -0.6988 -1.5645
  277MOL0     H36514   7.900   5.730   7.087 -3.7004 -2.2000  2.2291
  277MOL0     H36515   7.792   5.571   6.862 -1.2690 -0.9448  1.0768
  277MOL0     H36516   7.786   5.740   6.877  1.3966 -0.3707 -1.3036
  277MOL0     H36517   7.649   5.838   7.097 -0.7192 -0.1089 -0.7525
  277MOL0     H36518   7.455   5.857   7.275  0.2226  0.0443 -2.4512
  277MOL0     H36519   7.433   5.697   7.365  1.5911  0.4120  0.4847
  277MOL0     H36520   7.238   5.679   7.199 -2.6055  1.0308 -0.6693
  277MOL0     H36521   7.265   5.848   7.159  0.7291 -0.4899 -0.3862
  277MOL0     H36522   7.200   5.753   7.447 -0.6048  0.4844  1.3887
  277MOL0     H36523   7.220   5.916   7.403  0.3589 -0.5814  1.9632
  277MOL0     H36524   7.027   5.929   7.266  1.5150 -0.3000  0.6716
  277MOL0     H36525   6.988   5.861   7.427 -0.1494  0.0730 -1.1598
  277MOL0     H36526   6.857   5.545   7.136 -0.1103 -0.9488  2.0474
  277MOL0     H36527   6.635   5.539   7.043  1.7148 -0.8065 -0.0916
  277MOL0     H36528   6.287   5.848   6.875  3.0857 -0.8639 -1.4446
  277MOL0     H36529   6.112   5.833   6.727 -3.0114  0.7220  1.4425
  277MOL0     H36530   6.011   5.748   6.517 -0.1634 -0.3710 -0.3666
  277MOL0     H36531   5.898   5.813   6.639  2.2947 -0.8509  1.6005
  277MOL0     H36532   5.876   5.603   6.427  1.2878  0.5186  0.9557
  277MOL0     H36533   5.801   5.758   6.418 -0.7904  1.5984  1.2397
  277MOL0     H36534   5.705   5.551   6.620  2.1731  0.5215  0.4482
  277MOL0     H36535   5.630   5.583   6.465  0.9303 -1.0354 -0.4958
  277MOL0     H36536   5.665   5.790   6.696  0.0466  1.0297 -0.1943
  277MOL0     H36537   5.602   5.817   6.540  0.8729 -0.9865 -1.2426
  277MOL0     H36538   5.422   5.787   6.713  2.2289  0.4365  0.1282
  277MOL0     H36539   5.485   5.627   6.751 -2.2307 -2.1119 -1.7417
  277MOL0     H36540   5.434   5.552   6.539 -3.1468 -0.4080 -1.7044
  277MOL0     H36541   5.375   5.719   6.487 -3.2328  0.0248 -0.4953
  277MOL0     H36542   5.231   5.577   6.705  0.3492  1.9836  1.3378
  277MOL0     H36543   5.188   5.719   6.601  1.8625  1.4257  1.5045
  277MOL0     H36544   5.221   5.435   6.491  1.1862  0.1735 -2.1815
  277MOL0     H36545   5.148   5.574   6.408  1.0557 -2.5721 -0.9979
  277MOL0     H36546   6.041   5.435   6.819  0.5609 -1.5739  3.1968
  277MOL0     H36547   6.239   5.429   6.980 -0.0239  0.4991  0.2546
  277MOL0     H36548   6.567   5.907   7.261  0.4185 -0.2201  0.3423
  277MOL0     H36549   6.798   5.926   7.325  0.2428 -0.1656 -0.0427
  277MOL0     H36550   8.686   5.777   7.554  0.3751 -0.7704 -0.5892
  277MOL0     H36551   8.873   5.948   7.579  0.2660  0.1859  1.3437
  277MOL0     H36552   9.065   6.228   7.568 -1.2016 -0.2229  0.5085
  277MOL0     H36553   9.292   6.331   7.591  1.8518  2.2844  2.1934
  277MOL0     H36554   9.339   6.740   7.754  1.7564 -0.0907  0.7671
  277MOL0     H36555   9.300   6.658   7.610 -1.0464  0.2614  0.9078
  277MOL0     H36556   9.517   6.765   7.602 -3.2908 -1.0043 -2.0155
  277MOL0     H36557   9.578   6.642   7.733 -1.7122 -2.7738 -0.2287
  277MOL0     H36558   9.496   6.601   7.442  0.8296 -0.3815 -0.6051
  277MOL0     H36559   9.516   6.470   7.557 -2.9858  1.8314  0.5885
  277MOL0     H36560   9.723   6.531   7.413 -2.2673 -1.0456  0.3182
  277MOL0     H36561   9.753   6.649   7.541  0.7653  0.2366  1.4022
  277MOL0     H36562   9.782   6.251   7.731 -3.3274 -0.4905  0.5534
  277MOL0     H36563   9.126   6.594   7.894 -2.6362 -0.2078 -0.4709
  277MOL0     H36564   8.903   6.499   7.854 -0.1928 -1.1839  0.3886
  278MOL0     O36565   5.851  10.246   1.806 -0.6667  0.9026  0.7908
  278MOL0     C36566   5.821  10.343   1.872  0.4423 -0.2388 -0.8598
  278MOL0     O36567   5.902  10.445   1.905 -0.2846  0.1064  0.0447
  278MOL0     C36568   6.008  10.466   1.821 -0.1827 -0.4003  0.5381
  278MOL0     C36569   6.135  10.468   1.874 -0.2323 -0.0953  0.4710
  278MOL0     C36570   6.246  10.506   1.786  0.6758  0.0756 -0.2908
  278MOL0     C36571   6.228  10.544   1.650  0.0807 -0.7801 -0.8501
  278MOL0     O36572   6.325  10.576   1.561  0.0359 -0.4349  0.8791
  278MOL0     C36573   6.456  10.514   1.557 -0.1792  0.5156  0.5033
  278MOL0     C36574   6.573  10.590   1.607 -0.0191  0.5464  0.7595
  278MOL0     C36575   6.691  10.490   1.602  0.2667  0.1762  0.3725
  278MOL0     C36576   6.818  10.558   1.641 -0.9554 -0.5252  0.4859
  278MOL0     C36577   6.940  10.468   1.634 -0.1343  0.2596  0.8852
  278MOL0     C36578   7.071  10.538   1.658 -0.4016 -1.1399 -1.0748
  278MOL0     C36579   7.123  10.626   1.540  0.4071 -0.1808  0.2099
  278MOL0     C36580   7.235  10.710   1.588 -1.4559  0.7877  0.3186
  278MOL0     N36581   7.256  10.820   1.492 -0.0683  0.4214  0.4354
  278MOL0     C36582   7.208  10.943   1.498  0.0300  0.2391  0.1999
  278MOL0     C36583   7.252  11.009   1.388  0.0995 -0.0992 -0.2295
  278MOL0     C36584   7.220  11.143   1.337 -0.1660 -0.4855  0.7516
  278MOL0     C36585   7.085  11.141   1.269 -0.0038  0.8213  0.7779
  278MOL0     C36586   7.063  11.268   1.187 -0.2730  0.0563 -0.8343
  278MOL0     C36587   6.922  11.273   1.136 -0.5062  0.2165  0.3404
  278MOL0     O36588   6.884  11.410   1.102  0.0708 -0.3076  0.2737
  278MOL0     C36589   6.780  11.436   1.033  0.1085  0.2061 -0.2933
  278MOL0     C36590   6.669  11.353   1.028 -0.2078  0.0497 -0.4164
  278MOL0     C36591   6.552  11.388   0.959 -0.5478  0.3791  0.2077
  278MOL0     C36592   6.544  11.505   0.886 -0.0234  0.2759 -0.4544
  278MOL0     C36593   6.435  11.525   0.791 -0.1559  0.1306 -0.0597
  278MOL0     O36594   6.355  11.418   0.763 -0.5279  0.5437  0.6774
  278MOL0     C36595   6.229  11.438   0.710 -0.9279  0.7759  0.2644
  278MOL0     C36596   6.155  11.558   0.703  0.6655 -0.6263 -0.0594
  278MOL0     C36597   6.030  11.567   0.643 -0.5339  0.2059  1.0841
  278MOL0     C36598   5.978  11.455   0.587 -0.3743  0.5402 -0.1817
  278MOL0     O36599   5.859  11.444   0.525  0.3706  0.1223 -0.2791
  278MOL0     C36600   5.774  11.561   0.523 -0.0097 -0.0590  0.5898
  278MOL0     C36601   5.637  11.517   0.463  0.2578  0.0517  0.8199
  278MOL0     C36602   5.531  11.627   0.483  0.3391  0.5990  0.0152
  278MOL0     C36603   5.389  11.584   0.446 -0.6464 -0.6598 -0.3743
  278MOL0     C36604   5.288  11.700   0.492  0.6021  0.2770  0.7033
  278MOL0     C36605   5.152  11.657   0.484  0.7034 -0.0165  0.1936
  278MOL0     C36606   5.043  11.765   0.511 -0.5037 -0.2400  0.8641
  278MOL0     C36607   4.905  11.698   0.484 -0.6899 -0.6001 -1.0943
  278MOL0    Cl36608   4.768  11.806   0.501 -0.3452 -0.0602 -0.0702
  278MOL0     C36609   6.053  11.336   0.587 -0.4739 -0.6370 -0.3069
  278MOL0     C36610   6.179  11.328   0.643  0.7907  0.3585  0.4124
  278MOL0     O36611   6.418  11.641   0.759  0.2657  0.7281 -0.0585
  278MOL0     C36612   6.655  11.591   0.895 -0.4909 -0.2078 -0.3104
  278MOL0     C36613   6.765  11.556   0.973 -0.1621 -0.8161  0.5988
  278MOL0     N36614   7.309  10.922   1.300  0.0050  0.1573 -0.7097
  278MOL0     N36615   7.325  10.807   1.371  0.3233 -0.0195  0.2614
  278MOL0     C36616   6.097  10.542   1.598 -0.8084 -0.7374  0.2555
  278MOL0     C36617   5.995  10.501   1.684  0.4896 -0.3412  0.0002
  278MOL0     C36618   5.689  10.343   1.946  0.3879 -0.6785 -0.4377
  278MOL0     C36619   5.592  10.246   1.931 -0.1655  0.5376 -1.1603
  278MOL0     C36620   5.472  10.251   2.012  0.1823  1.0143  0.2743
  278MOL0     C36621   5.442  10.347   2.104  0.0235 -0.0351  0.1579
  278MOL0     O36622   5.329  10.342   2.186  0.5240  0.4011 -0.0439
  278MOL0     C36623   5.290  10.447   2.275 -0.8492 -0.0741  1.1375
  278MOL0     C36624   5.178  10.377   2.349  1.0239  0.5431 -0.9256
  278MOL0     C36625   5.100  10.460   2.442  0.2783 -0.2537 -0.1957
  278MOL0     C36626   4.977  10.383   2.492 -0.0388 -0.9309  0.7340
  278MOL0     C36627   5.018  10.279   2.578  0.0854 -0.3065  0.0524
  278MOL0     C36628   5.049  10.188   2.657  0.0147 -0.2679  0.1729
  278MOL0     C36629   5.533  10.454   2.106 -1.2880 -0.3447  0.1859
  278MOL0     C36630   5.658  10.447   2.032 -0.4236  0.7135 -0.1578
  278MOL0     H36631   6.176  10.429   1.967  2.5239  0.5761 -0.3794
  278MOL0     H36632   6.349  10.500   1.819  1.2610 -1.8740 -2.2420
  278MOL0     H36633   6.481  10.487   1.453  0.8623 -1.2650  1.1725
  278MOL0     H36634   6.455  10.416   1.606  1.6176  0.4451  0.4752
  278MOL0     H36635   6.563  10.616   1.713  1.7572 -0.2839  1.1652
  278MOL0     H36636   6.587  10.686   1.556  1.2993 -0.1382 -0.2179
  278MOL0     H36637   6.692  10.457   1.498  0.8173  2.0693 -0.2495
  278MOL0     H36638   6.667  10.406   1.669  0.9614 -2.2977 -2.2778
  278MOL0     H36639   6.834  10.638   1.568  0.7758 -0.6441  0.7079
  278MOL0     H36640   6.809  10.609   1.737 -3.2053 -0.7459  0.4599
  278MOL0     H36641   6.928  10.409   1.543 -2.6014  2.1204 -0.0950
  278MOL0     H36642   6.927  10.398   1.718 -1.8729 -0.4962  0.0291
  278MOL0     H36643   7.148  10.469   1.694  1.4354  1.2997 -0.0818
  278MOL0     H36644   7.059  10.612   1.737  1.2051 -0.5617 -1.3505
  278MOL0     H36645   7.153  10.558   1.460 -2.2660 -0.5199 -0.6049
  278MOL0     H36646   7.043  10.690   1.501 -0.2544  0.1741  2.0448
  278MOL0     H36647   7.319  10.641   1.569 -1.6582  0.5452  0.3037
  278MOL0     H36648   7.233  10.742   1.693 -1.7707  0.9882  0.2504
  278MOL0     H36649   7.145  10.985   1.576 -0.0894 -0.2723  0.3804
  278MOL0     H36650   7.291  11.157   1.255  1.3811 -1.1883  1.9055
  278MOL0     H36651   7.238  11.221   1.412  0.6039  0.6177 -0.5301
  278MOL0     H36652   7.006  11.127   1.343 -1.1404 -1.9733 -0.8329
  278MOL0     H36653   7.065  11.053   1.208  0.1231  0.5991  1.0562
  278MOL0     H36654   7.077  11.345   1.264 -0.1201 -2.8043  2.2607
  278MOL0     H36655   7.139  11.275   1.109  0.9641 -0.2692  0.2991
  278MOL0     H36656   6.859  11.225   1.211  1.0691 -1.8608  0.4569
  278MOL0     H36657   6.920  11.207   1.049 -0.6834  1.9150 -0.9791
  278MOL0     H36658   6.677  11.254   1.071 -1.2406  0.2337  0.2375
  278MOL0     H36659   6.479  11.308   0.956  1.2797 -1.4229  0.8435
  278MOL0     H36660   6.180  11.658   0.738 -3.4651  0.2547  0.9507
  278MOL0     H36661   5.975  11.661   0.646  0.8267  1.0109  1.6172
  278MOL0     H36662   5.815  11.641   0.460 -0.7438 -0.6684 -0.6941
  278MOL0     H36663   5.755  11.591   0.627 -2.3225 -1.7914  0.7644
  278MOL0     H36664   5.602  11.427   0.514 -1.4505 -1.5481 -2.8201
  278MOL0     H36665   5.643  11.493   0.357  1.2797  1.4874  0.5206
  278MOL0     H36666   5.550  11.719   0.428  0.1312 -0.0263 -1.1458
  278MOL0     H36667   5.526  11.663   0.586 -4.1867  2.4954 -0.5953
  278MOL0     H36668   5.390  11.566   0.338 -1.3168  0.2667 -0.5461
  278MOL0     H36669   5.356  11.493   0.497 -0.4033 -0.8124 -0.4911
  278MOL0     H36670   5.299  11.787   0.427  1.5028 -0.8337 -0.6788
  278MOL0     H36671   5.312  11.743   0.590 -0.8537  1.7084  0.4882
  278MOL0     H36672   5.131  11.578   0.556 -0.6768 -0.9228 -1.1336
  278MOL0     H36673   5.136  11.617   0.384 -1.1679 -0.5573  0.6733
  278MOL0     H36674   5.055  11.801   0.613 -1.2248 -0.4750  1.0356
  278MOL0     H36675   5.059  11.849   0.443 -0.3062 -1.3897 -0.5837
  278MOL0     H36676   4.892  11.620   0.560 -0.1831  0.3305 -0.0288
  278MOL0     H36677   4.910  11.669   0.378  3.4511  1.6663 -1.7403
  278MOL0     H36678   6.017  11.245   0.541 -0.9795 -0.4718 -0.2443
  278MOL0     H36679   6.228  11.231   0.649 -0.0621 -0.0949  0.2273
  278MOL0     H36680   6.664  11.680   0.835 -0.0058 -0.8496 -1.2234
  278MOL0     H36681   6.857  11.613   0.972 -1.6140  1.6804  1.6360
  278MOL0     H36682   6.076  10.575   1.497  1.2804 -1.2984 -0.4094
  278MOL0     H36683   5.896  10.512   1.642  0.6986 -1.3103 -0.7827
  278MOL0     H36684   5.611  10.154   1.878  1.1236  0.5847 -0.8317
  278MOL0     H36685   5.391  10.179   1.998  0.1748  1.0164  0.3054
  278MOL0     H36686   5.250  10.535   2.224  1.7859  0.0030 -0.9816
  278MOL0     H36687   5.372  10.480   2.340  0.6322 -1.3467 -0.0143
  278MOL0     H36688   5.104  10.346   2.274  0.2298  1.7920 -0.6882
  278MOL0     H36689   5.199  10.287   2.407 -0.9373 -0.0105 -0.9944
  278MOL0     H36690   5.074  10.552   2.389 -1.5890  0.7260  2.2077
  278MOL0     H36691   5.160  10.480   2.532 -1.0749  1.3608  0.4028
  278MOL0     H36692   4.912  10.445   2.555 -0.3922 -0.7068  0.1513
  278MOL0     H36693   4.918  10.337   2.412 -1.0904 -0.6590  1.3257
  278MOL0     H36694   5.069  10.113   2.730 -0.3716 -0.8658 -0.3236
  278MOL0     H36695   5.526  10.545   2.165  0.9620 -1.0725  1.7259
  278MOL0     H36696   5.736  10.520   2.050 -0.2283  0.1066  1.6358
  279MOL0     O36697   2.872   4.960  11.183 -0.0138 -0.4197  0.5131
  279MOL0     C36698   2.981   4.946  11.241 -0.2746 -0.4261  0.0524
  279MOL0     O36699   2.994   4.923  11.374 -0.0427 -0.3727  0.6970
  279MOL0     C36700   2.905   4.970  11.466  0.4694  0.1625  1.1220
  279MOL0     C36701   2.869   4.893  11.576 -1.3808  0.1938 -0.1505
  279MOL0     C36702   2.781   4.939  11.670  1.0135  0.3150  0.4307
  279MOL0     C36703   2.723   5.058  11.649 -0.3423 -0.3336 -0.0503
  279MOL0     O36704   2.640   5.096  11.755 -0.2627 -0.1111 -0.0532
  279MOL0     C36705   2.532   5.184  11.731  0.8467 -0.4029  0.6499
  279MOL0     C36706   2.438   5.192  11.853  0.1916  0.7467  0.1343
  279MOL0     C36707   2.345   5.077  11.873  0.0621 -0.3616 -0.4795
  279MOL0     C36708   2.237   5.090  11.980 -0.6948  0.5824  0.4275
  279MOL0     C36709   2.300   5.118  12.116 -0.6285 -0.0267 -0.3849
  279MOL0     C36710   2.190   5.174  12.206 -0.8739 -0.6457  0.0132
  279MOL0     C36711   2.075   5.072  12.241  0.0536 -0.0707 -0.1887
  279MOL0     C36712   1.965   5.121  12.321  0.7338 -0.7426  0.2082
  279MOL0     N36713   1.902   5.040  12.422 -1.2033  0.3191  0.5881
  279MOL0     C36714   1.810   4.942  12.406 -0.1840  0.2216 -0.3822
  279MOL0     C36715   1.812   4.867  12.521 -0.3012 -0.8935  0.5437
  279MOL0     C36716   1.717   4.756  12.553  0.0144 -0.1761  0.0308
  279MOL0     C36717   1.610   4.799  12.659  0.3425 -0.0808  0.8793
  279MOL0     C36718   1.524   4.683  12.702  0.0780  0.6938  0.0176
  279MOL0     C36719   1.425   4.625  12.601  0.0843  0.7088 -0.3837
  279MOL0     O36720   1.342   4.522  12.661 -0.7889 -0.4148 -0.7697
  279MOL0     C36721   1.220   4.506  12.611  0.3394 -0.5918 -0.5124
  279MOL0     C36722   1.133   4.467  12.703  0.4370 -1.2700 -0.3062
  279MOL0     C36723   1.000   4.453  12.685 -0.2782 -0.0892  0.3991
  279MOL0     C36724   0.948   4.488  12.557  0.2450 -0.7037 -0.2238
  279MOL0     C36725   0.805   4.487  12.534  0.1049 -2.0610 -0.5349
  279MOL0     O36726   0.717   4.502  12.639 -0.5053 -0.2762  0.6389
  279MOL0     C36727   0.584   4.513  12.605  0.1011 -0.2307 -0.2323
  279MOL0     C36728   0.507   4.614  12.674 -0.3594  0.4768 -0.3922
  279MOL0     C36729   0.364   4.619  12.667  0.6124 -0.2221  0.1099
  279MOL0     C36730   0.298   4.540  12.570  0.3995 -0.0867 -0.2261
  279MOL0     O36731   0.163   4.537  12.536 -0.0018 -0.5679 -0.8016
  279MOL0     C36732   0.058   4.560  12.633 -0.9219 -0.9455 -0.0190
  279MOL0     C36733  -0.061   4.611  12.562 -1.0356  0.5923 -0.2101
  279MOL0     C36734  -0.147   4.516  12.488  0.2132 -0.0280  0.5800
  279MOL0     C36735  -0.257   4.597  12.413 -0.4916  0.4356 -0.3497
  279MOL0     C36736  -0.383   4.510  12.383  0.4883 -0.2271  0.4701
  279MOL0     C36737  -0.507   4.598  12.348  0.3467  0.7038 -0.1059
  279MOL0     C36738  -0.631   4.505  12.304  0.1837 -0.1004 -0.1999
  279MOL0     C36739  -0.768   4.587  12.295 -0.4125 -0.3635  1.3044
  279MOL0    Cl36740  -0.828   4.624  12.459  0.2061  0.0361  0.1374
  279MOL0     C36741   0.380   4.459  12.491  0.2776 -0.3388  0.6373
  279MOL0     C36742   0.513   4.433  12.513 -0.0926 -0.3432 -1.1524
  279MOL0     O36743   0.771   4.489  12.413  0.3831  0.1309  1.0367
  279MOL0     C36744   1.037   4.528  12.454  0.0340 -0.4574  0.2249
  279MOL0     C36745   1.174   4.543  12.485  1.2830  0.1736  0.7411
  279MOL0     N36746   1.910   4.918  12.602  0.2732 -0.5219 -0.1672
  279MOL0     N36747   1.957   5.021  12.545 -0.3976  0.1005 -0.2758
  279MOL0     C36748   2.750   5.134  11.535 -0.0555 -0.6940 -0.1322
  279MOL0     C36749   2.839   5.092  11.445  0.0242  0.3875 -0.0478
  279MOL0     C36750   3.107   4.977  11.167  0.4692 -0.4917 -0.0912
  279MOL0     C36751   3.225   5.008  11.239 -0.0546  0.6529  0.5131
  279MOL0     C36752   3.339   5.047  11.162 -0.4337 -0.3651 -0.3928
  279MOL0     C36753   3.333   5.070  11.029 -0.0411 -0.8459  0.3585
  279MOL0     O36754   3.444   5.129  10.979 -0.2909 -1.0215  0.6918
  279MOL0     C36755   3.507   5.048  10.880  0.0124  0.0769  0.5336
  279MOL0     C36756   3.665   5.057  10.901  0.3919  0.3489 -0.1016
  279MOL0     C36757   3.728   5.195  10.875  0.7594  0.1062 -0.8931
  279MOL0     C36758   3.878   5.201  10.861  0.1766 -0.4069  0.7574
  279MOL0     C36759   3.937   5.224  10.991  0.2206 -0.3310  0.2370
  279MOL0     C36760   3.983   5.243  11.100  0.7561 -0.4203  0.2002
  279MOL0     C36761   3.217   5.042  10.962  0.3429 -0.4077  0.4318
  279MOL0     C36762   3.104   4.995  11.030  0.4100 -0.7482  0.0537
  279MOL0     H36763   2.915   4.795  11.585  2.9504  2.1099  1.1314
  279MOL0     H36764   2.755   4.883  11.759  0.3067 -1.8644 -1.0511
  279MOL0     H36765   2.477   5.144  11.645 -1.2916  1.7228  0.9285
  279MOL0     H36766   2.554   5.289  11.710  0.6307 -0.2856  1.0107
  279MOL0     H36767   2.384   5.285  11.834  0.7971  1.4243  1.5606
  279MOL0     H36768   2.503   5.199  11.941 -0.1951 -1.5158  0.6705
  279MOL0     H36769   2.407   4.991  11.897 -0.2572  0.0731  2.2029
  279MOL0     H36770   2.289   5.064  11.780  0.5033  0.9418 -0.9548
  279MOL0     H36771   2.160   5.165  11.958 -1.5208  0.3182  2.2127
  279MOL0     H36772   2.188   4.992  11.988 -0.9314  0.5063 -1.4985
  279MOL0     H36773   2.382   5.190  12.101  1.7913 -2.6790 -0.7365
  279MOL0     H36774   2.342   5.026  12.158 -0.6310 -0.4820 -1.3594
  279MOL0     H36775   2.147   5.258  12.151  1.7123  0.9603  0.2815
  279MOL0     H36776   2.238   5.211  12.297 -0.0418  0.9089 -1.0099
  279MOL0     H36777   2.022   5.026  12.156 -4.4270 -0.9559  2.7244
  279MOL0     H36778   2.131   5.003  12.305 -0.0566 -0.4197 -0.4648
  279MOL0     H36779   1.890   5.172  12.259  0.3716 -2.4473 -0.8100
  279MOL0     H36780   2.014   5.202  12.377  2.1564 -1.6801  0.3643
  279MOL0     H36781   1.753   4.934  12.313  0.0828 -0.7294 -0.4741
  279MOL0     H36782   1.779   4.678  12.596 -0.5631 -2.0788 -2.3853
  279MOL0     H36783   1.676   4.708  12.464  2.0433  0.4094 -1.2961
  279MOL0     H36784   1.548   4.880  12.619  0.2316 -0.2858  0.6273
  279MOL0     H36785   1.660   4.846  12.744  1.2187  5.9882 -2.3877
  279MOL0     H36786   1.598   4.603  12.709  2.0908  2.5329  0.8729
  279MOL0     H36787   1.481   4.691  12.803  2.0432 -3.8765  1.4878
  279MOL0     H36788   1.480   4.586  12.514  0.7843 -2.8244  1.4602
  279MOL0     H36789   1.361   4.706  12.564 -0.4601 -1.1191 -3.8960
  279MOL0     H36790   1.176   4.441  12.798  0.4751 -0.3553 -0.0593
  279MOL0     H36791   0.940   4.426  12.771 -0.1402 -0.4313  0.3894
  279MOL0     H36792   0.544   4.674  12.757 -2.3706  0.3401  0.6895
  279MOL0     H36793   0.297   4.684  12.723  1.8344 -1.8088  3.7277
  279MOL0     H36794   0.096   4.640  12.698  1.7674 -0.1457 -2.3819
  279MOL0     H36795   0.041   4.475  12.700  2.8459 -2.5574 -0.8397
  279MOL0     H36796  -0.029   4.682  12.485  1.5566  1.4545  1.5571
  279MOL0     H36797  -0.115   4.677  12.631 -0.9961 -0.2254  0.6238
  279MOL0     H36798  -0.194   4.448  12.560  0.3837  0.2577  0.9625
  279MOL0     H36799  -0.087   4.453  12.421  0.0583 -0.8991  1.2471
  279MOL0     H36800  -0.288   4.677  12.481 -0.7174  0.6360 -0.6879
  279MOL0     H36801  -0.224   4.643  12.319  1.9467  0.1691  0.3049
  279MOL0     H36802  -0.394   4.462  12.481  2.1589  1.9929  1.8332
  279MOL0     H36803  -0.366   4.434  12.306  1.1078 -1.7155  1.9903
  279MOL0     H36804  -0.487   4.678  12.277  0.4455 -0.1503 -1.0605
  279MOL0     H36805  -0.539   4.639  12.444  0.9596  1.0652 -0.0585
  279MOL0     H36806  -0.613   4.478  12.200 -0.5911 -1.2850 -0.0480
  279MOL0     H36807  -0.643   4.417  12.368 -1.6893 -0.8637 -1.5117
  279MOL0     H36808  -0.851   4.532  12.250  0.5424 -0.1206 -0.8611
  279MOL0     H36809  -0.748   4.676  12.236 -3.8614 -0.1893  0.1860
  279MOL0     H36810   0.321   4.393  12.428  0.7918 -1.7881  1.6141
  279MOL0     H36811   0.559   4.353  12.455 -2.0627 -2.5161  0.1125
  279MOL0     H36812   0.993   4.558  12.360  1.7567  2.1211  0.1400
  279MOL0     H36813   1.246   4.565  12.406  0.3334 -0.8653 -0.4484
  279MOL0     H36814   2.704   5.233  11.535  1.9490  0.2761 -0.2753
  279MOL0     H36815   2.852   5.158  11.359 -1.5704  0.8995  0.0657
  279MOL0     H36816   3.236   4.980  11.343  0.9199 -1.2573 -0.0687
  279MOL0     H36817   3.431   5.060  11.217 -1.5183  2.2925  1.0202
  279MOL0     H36818   3.485   5.070  10.776  1.1989 -1.2795 -0.0365
  279MOL0     H36819   3.487   4.941  10.898 -1.1812  0.6028  2.7253
  279MOL0     H36820   3.692   5.019  11.000  2.5924 -0.4301 -0.9329
  279MOL0     H36821   3.712   4.987  10.831  0.7667 -0.7249  1.1741
  279MOL0     H36822   3.690   5.265  10.949  1.6439  1.9560 -2.1098
  279MOL0     H36823   3.693   5.238  10.780 -0.1745  1.4728  0.0435
  279MOL0     H36824   3.925   5.109  10.825 -0.4923 -1.0722  1.5591
  279MOL0     H36825   3.904   5.283  10.794 -2.3425 -1.5860 -1.9025
  279MOL0     H36826   4.023   5.265  11.197  0.8293 -2.0327  0.5659
  279MOL0     H36827   3.214   5.056  10.855  3.3675 -0.7899  0.2057
  279MOL0     H36828   3.013   4.973  10.974  0.0941  0.5526  0.0253
  280MOL0     O36829   3.731   6.184   0.757  0.0030  0.0747  0.4886
  280MOL0     C36830   3.776   6.126   0.857  0.6163  0.2771  0.9843
  280MOL0     O36831   3.704   6.087   0.963 -0.3358 -0.0451 -0.1796
  280MOL0     C36832   3.568   6.105   0.956 -0.3352 -0.3191 -0.4154
  280MOL0     C36833   3.478   6.001   0.929  0.4947 -0.9314  1.1297
  280MOL0     C36834   3.342   6.024   0.930  0.7594 -0.4358  0.2185
  280MOL0     C36835   3.299   6.156   0.958 -0.4105  0.2272 -0.2485
  280MOL0     O36836   3.168   6.185   0.980  0.8919  0.4990 -0.4175
  280MOL0     C36837   3.135   6.223   1.111  0.5272 -0.3655 -0.1118
  280MOL0     C36838   2.994   6.185   1.123 -0.7200  0.6360 -0.2971
  280MOL0     C36839   2.923   6.225   1.245 -0.2176 -1.1363  0.2676
  280MOL0     C36840   2.774   6.213   1.222  0.5589 -0.0505  0.5616
  280MOL0     C36841   2.683   6.256   1.345 -0.4153 -0.2129  0.3811
  280MOL0     C36842   2.530   6.225   1.316  0.0858  0.0933 -0.3238
  280MOL0     C36843   2.436   6.294   1.409  0.4140 -0.4253 -0.7999
  280MOL0     C36844   2.470   6.262   1.561 -0.2536 -0.8574 -0.3274
  280MOL0     N36845   2.367   6.318   1.661 -0.0655 -0.3484 -0.2265
  280MOL0     C36846   2.330   6.448   1.675 -0.1173 -0.5351  0.2964
  280MOL0     C36847   2.221   6.442   1.758  0.7991 -0.3708 -0.4624
  280MOL0     C36848   2.138   6.567   1.780  0.7402 -0.1209  0.0832
  280MOL0     C36849   1.991   6.525   1.729 -0.8341  0.0194  0.0470
  280MOL0     C36850   1.897   6.632   1.774 -0.0661  0.0410 -0.3009
  280MOL0     C36851   1.763   6.600   1.715  0.3353 -0.0174 -0.3574
  280MOL0     O36852   1.763   6.624   1.574  0.0454 -0.2581  0.5238
  280MOL0     C36853   1.646   6.617   1.499 -0.0768 -0.2958  0.2934
  280MOL0     C36854   1.658   6.677   1.371  0.2032  0.3262 -0.7600
  280MOL0     C36855   1.542   6.693   1.292 -0.4502 -0.0205 -0.1504
  280MOL0     C36856   1.419   6.639   1.336  0.2099 -0.1349  0.2590
  280MOL0     C36857   1.303   6.666   1.252 -0.3810  0.0216  0.1075
  280MOL0     O36858   1.188   6.603   1.290  0.3178 -0.6833 -0.0606
  280MOL0     C36859   1.063   6.654   1.264  0.8191 -0.7151 -0.1743
  280MOL0     C36860   0.963   6.556   1.286  0.7219 -0.1870 -0.6514
  280MOL0     C36861   0.824   6.601   1.269 -0.6787 -0.5857  0.1211
  280MOL0     C36862   0.798   6.736   1.243 -0.5364 -0.0564 -0.3513
  280MOL0     O36863   0.669   6.784   1.235 -0.2435 -0.0127 -0.2780
  280MOL0     C36864   0.580   6.757   1.344 -0.1848 -0.1917 -0.5935
  280MOL0     C36865   0.433   6.815   1.327  0.1614 -0.7066  0.0400
  280MOL0     C36866   0.331   6.761   1.427  0.8341 -0.3030 -1.3874
  280MOL0     C36867   0.188   6.798   1.413 -0.4182  0.3525  0.4183
  280MOL0     C36868   0.162   6.911   1.516  0.2986 -0.0862 -0.0682
  280MOL0     C36869   0.046   6.996   1.466  0.1805  0.4932 -0.4738
  280MOL0     C36870   0.010   7.124   1.539 -0.6183 -0.0452 -0.9430
  280MOL0     C36871   0.120   7.241   1.521  0.0109  0.9068 -0.1187
  280MOL0    Cl36872   0.083   7.379   1.632  0.3536 -0.4307 -0.2437
  280MOL0     C36873   0.898   6.823   1.212 -0.0079 -0.1565 -1.0325
  280MOL0     C36874   1.027   6.781   1.217  0.2431 -0.2837  0.6790
  280MOL0     O36875   1.321   6.749   1.156  0.1374  1.0513 -0.1842
  280MOL0     C36876   1.411   6.567   1.453 -0.6593  0.4485 -0.2896
  280MOL0     C36877   1.518   6.565   1.547 -0.1734  0.9634  0.3038
  280MOL0     N36878   2.201   6.311   1.799 -0.1798 -0.0300  0.4949
  280MOL0     N36879   2.283   6.235   1.730 -0.2515 -0.3161  0.1572
  280MOL0     C36880   3.392   6.254   0.986  0.0513 -0.9221  0.5726
  280MOL0     C36881   3.526   6.233   0.985  0.3443  0.0190  0.3608
  280MOL0     C36882   3.916   6.089   0.855 -0.5493  0.1961 -0.1535
  280MOL0     C36883   3.964   5.967   0.902 -0.3881 -0.4137 -0.2286
  280MOL0     C36884   4.085   5.920   0.871  0.1604  0.8042 -0.4276
  280MOL0     C36885   4.175   6.001   0.807 -0.0189 -0.1653  0.6797
  280MOL0     O36886   4.311   5.978   0.807  0.2731  0.1333 -0.2200
  280MOL0     C36887   4.371   5.868   0.882  0.0810 -0.0731  0.6296
  280MOL0     C36888   4.523   5.874   0.885 -0.0609 -0.5719 -0.4036
  280MOL0     C36889   4.572   6.024   0.914  1.3645 -0.2228 -0.5108
  280MOL0     C36890   4.653   6.042   1.035 -0.0298 -0.3403 -0.0247
  280MOL0     C36891   4.778   5.968   1.033  0.6780  0.9505 -0.5390
  280MOL0     C36892   4.877   5.903   1.041  0.2432 -0.8863  0.0409
  280MOL0     C36893   4.135   6.136   0.772 -0.3954 -0.1716 -0.3151
  280MOL0     C36894   4.003   6.183   0.799  0.4577  0.4629 -0.4811
  280MOL0     H36895   3.519   5.904   0.903  1.3500 -0.0666 -0.9554
  280MOL0     H36896   3.272   5.942   0.915  1.5271 -1.3302  1.3876
  280MOL0     H36897   3.149   6.331   1.120 -0.5299 -0.3239  1.2795
  280MOL0     H36898   3.199   6.175   1.185  1.1767  2.2582  1.1518
  280MOL0     H36899   2.995   6.075   1.127  0.8029  0.6577  1.1572
  280MOL0     H36900   2.945   6.222   1.033  0.1976  0.7094 -0.7739
  280MOL0     H36901   2.944   6.328   1.278 -0.3013 -0.8269 -0.6332
  280MOL0     H36902   2.949   6.159   1.328 -0.6231 -0.5707  0.8587
  280MOL0     H36903   2.744   6.272   1.134 -0.4371 -2.4111 -0.7687
  280MOL0     H36904   2.750   6.110   1.193  1.3179 -0.1736  0.3643
  280MOL0     H36905   2.702   6.363   1.358  1.8598 -0.5052 -0.0433
  280MOL0     H36906   2.723   6.215   1.439  3.2117 -0.5735 -1.1833
  280MOL0     H36907   2.517   6.117   1.329  1.6656 -0.1580 -0.6074
  280MOL0     H36908   2.508   6.250   1.212  1.2750 -1.8447 -1.0925
  280MOL0     H36909   2.445   6.403   1.400  0.2972 -0.3375  0.0439
  280MOL0     H36910   2.333   6.261   1.392  0.1948 -0.9670  1.3555
  280MOL0     H36911   2.567   6.303   1.591  0.4811 -2.7832  0.0724
  280MOL0     H36912   2.457   6.155   1.580 -2.7147 -0.3954  0.9787
  280MOL0     H36913   2.373   6.543   1.641  2.1566 -0.9344  1.8251
  280MOL0     H36914   2.183   6.649   1.723  3.0362 -0.6126  1.0496
  280MOL0     H36915   2.140   6.599   1.884  0.5335  4.4106 -1.0939
  280MOL0     H36916   1.959   6.438   1.786 -0.9179 -0.4694 -0.7393
  280MOL0     H36917   1.994   6.513   1.621  0.1513  0.0733  0.0602
  280MOL0     H36918   1.887   6.641   1.882  0.8646  2.6699 -0.3557
  280MOL0     H36919   1.939   6.729   1.744  2.7236 -0.8742  0.3601
  280MOL0     H36920   1.690   6.669   1.759 -0.0417 -1.4187  1.3060
  280MOL0     H36921   1.733   6.498   1.741  1.5619 -0.8161 -1.9042
  280MOL0     H36922   1.748   6.733   1.346  1.4810 -1.6982 -0.9005
  280MOL0     H36923   1.545   6.750   1.199 -0.3881 -0.7200 -0.5784
  280MOL0     H36924   0.984   6.459   1.329 -0.7349 -0.7146 -1.0607
  280MOL0     H36925   0.741   6.532   1.282 -1.2597  0.0851  0.0265
  280MOL0     H36926   0.612   6.792   1.442 -2.0681  0.4315 -0.1455
  280MOL0     H36927   0.578   6.650   1.366  0.2451  0.3923  2.8597
  280MOL0     H36928   0.399   6.788   1.226  0.3692  1.0903 -0.5545
  280MOL0     H36929   0.430   6.925   1.327  2.5593 -0.5793  0.4911
  280MOL0     H36930   0.358   6.778   1.532 -0.8941 -0.6020 -0.8587
  280MOL0     H36931   0.329   6.652   1.420 -0.8374 -0.5049  1.0887
  280MOL0     H36932   0.171   6.823   1.308  0.8261 -2.5633 -0.5992
  280MOL0     H36933   0.115   6.719   1.431 -2.7831  1.6165 -2.7237
  280MOL0     H36934   0.256   6.964   1.539  0.7896 -1.4254  1.1411
  280MOL0     H36935   0.140   6.880   1.618  2.9696 -0.2265  0.5518
  280MOL0     H36936  -0.040   6.930   1.480 -0.3149  1.2876  0.4203
  280MOL0     H36937   0.072   7.032   1.366 -0.6272  1.2915 -0.4130
  280MOL0     H36938  -0.084   7.166   1.500 -2.4639 -1.6776  1.4758
  280MOL0     H36939  -0.009   7.116   1.647  1.5639 -0.0062 -0.5129
  280MOL0     H36940   0.128   7.278   1.419  0.3083  1.7151  0.1901
  280MOL0     H36941   0.215   7.194   1.550 -0.7853 -0.7403 -0.0705
  280MOL0     H36942   0.864   6.923   1.186  0.0714  0.7315  1.9050
  280MOL0     H36943   1.093   6.863   1.192 -2.0412  1.2573 -0.6024
  280MOL0     H36944   1.319   6.513   1.476  0.6691 -1.5287  0.6803
  280MOL0     H36945   1.496   6.530   1.647  0.8883 -1.4997 -0.2374
  280MOL0     H36946   3.345   6.348   1.013  1.2888 -0.7537  2.3120
  280MOL0     H36947   3.594   6.316   1.004  2.9667 -2.0994  0.9209
  280MOL0     H36948   3.897   5.903   0.959 -2.1203  2.0644  0.6739
  280MOL0     H36949   4.109   5.817   0.896  1.2012  1.5118  1.7159
  280MOL0     H36950   4.349   5.771   0.838 -0.9665  1.3194 -2.1983
  280MOL0     H36951   4.343   5.876   0.987  1.4310 -0.8864  1.0797
  280MOL0     H36952   4.559   5.806   0.962  1.7649  0.7705  0.0031
  280MOL0     H36953   4.567   5.835   0.793  0.1089  0.3954 -0.7534
  280MOL0     H36954   4.480   6.081   0.933  1.3693 -0.5948  0.7516
  280MOL0     H36955   4.604   6.073   0.822 -2.2847  1.5246 -1.0173
  280MOL0     H36956   4.680   6.148   1.034  0.9465 -0.5765 -1.7434
  280MOL0     H36957   4.595   6.007   1.122  0.2685 -2.1710 -0.5268
  280MOL0     H36958   4.977   5.869   1.055  0.2068 -1.9546 -1.8757
  280MOL0     H36959   4.210   6.197   0.722  0.1425 -0.8240 -0.3163
  280MOL0     H36960   3.969   6.282   0.772 -0.1192  0.1954 -0.7499
  281MOL0     O36961   1.934   0.982   9.328  0.4005  0.2261 -0.7615
  281MOL0     C36962   1.928   1.100   9.369  0.0120  0.0523  0.5507
  281MOL0     O36963   1.852   1.200   9.316  0.0508  0.1539  0.4413
  281MOL0     C36964   1.751   1.170   9.221 -0.5693 -0.2839 -0.2154
  281MOL0     C36965   1.738   1.239   9.101 -0.3783  0.7679  0.4084
  281MOL0     C36966   1.641   1.197   9.015 -0.2564  0.5963  0.6422
  281MOL0     C36967   1.560   1.086   9.031 -1.1285 -0.8113 -0.3614
  281MOL0     O36968   1.467   1.034   8.945 -0.3961 -0.3413  0.3007
  281MOL0     C36969   1.446   1.108   8.820 -0.2122 -0.0671 -0.4916
  281MOL0     C36970   1.325   1.049   8.735  0.0640 -0.5723 -0.5215
  281MOL0     C36971   1.304   1.135   8.607 -0.2116 -0.4404 -0.1342
  281MOL0     C36972   1.198   1.063   8.521 -0.6727  0.0125 -0.2351
  281MOL0     C36973   1.173   1.142   8.393 -0.1324 -0.4114 -0.1251
  281MOL0     C36974   1.088   1.059   8.289 -0.0252  0.5849 -0.8358
  281MOL0     C36975   1.065   1.139   8.158 -0.0522 -0.1121 -0.3260
  281MOL0     C36976   0.979   1.047   8.060  0.9110 -0.2409 -0.9961
  281MOL0     N36977   0.945   1.123   7.942  0.6362  0.4206  0.0344
  281MOL0     C36978   1.036   1.181   7.856  0.1923 -0.2622  0.3436
  281MOL0     C36979   0.957   1.247   7.770  0.6002  0.6104 -0.5456
  281MOL0     C36980   1.010   1.343   7.668  0.3336 -0.0457 -0.6124
  281MOL0     C36981   1.021   1.279   7.531  0.7900  0.0822  0.5061
  281MOL0     C36982   0.889   1.264   7.461  0.8328  0.8209 -0.7032
  281MOL0     C36983   0.909   1.202   7.318 -0.3508  0.3639 -1.5723
  281MOL0     O36984   0.975   1.303   7.233  0.3300 -0.2489  0.0440
  281MOL0     C36985   0.894   1.352   7.136  0.7554  0.3506 -0.0993
  281MOL0     C36986   0.746   1.354   7.130 -1.3792 -0.5097  0.0837
  281MOL0     C36987   0.690   1.390   7.008 -0.9411  0.1358  0.4318
  281MOL0     C36988   0.764   1.425   6.892  1.0194  0.2806  0.1504
  281MOL0     C36989   0.682   1.454   6.769 -0.4357 -1.0493 -0.5339
  281MOL0     O36990   0.747   1.464   6.650 -0.3888 -0.2324  0.2153
  281MOL0     C36991   0.661   1.484   6.543 -0.7301 -0.4485  0.3502
  281MOL0     C36992   0.619   1.375   6.468 -0.8849  0.0605 -1.1816
  281MOL0     C36993   0.528   1.397   6.366 -0.6235  0.4376  0.6491
  281MOL0     C36994   0.475   1.518   6.339 -0.2060  0.5537 -0.4019
  281MOL0     O36995   0.373   1.542   6.246 -0.6681  0.7994 -0.7518
  281MOL0     C36996   0.354   1.442   6.137 -0.1219 -0.1853  0.8035
  281MOL0     C36997   0.243   1.493   6.041 -0.2457 -0.2342 -0.3417
  281MOL0     C36998   0.269   1.625   5.965 -0.1909  0.4604 -0.4609
  281MOL0     C36999   0.148   1.659   5.866 -0.7701 -0.4506  0.0698
  281MOL0     C37000   0.178   1.797   5.801 -0.1718 -0.5210 -0.0122
  281MOL0     C37001   0.062   1.841   5.716 -0.0280  0.6140 -0.6203
  281MOL0     C37002   0.106   1.949   5.622 -0.4520 -0.4419 -0.0535
  281MOL0     C37003  -0.012   1.993   5.533 -0.0947 -0.2834 -0.3596
  281MOL0    Cl37004   0.033   2.104   5.397 -0.1688  0.0907  0.1230
  281MOL0     C37005   0.528   1.622   6.410  0.0683 -0.6748 -0.0096
  281MOL0     C37006   0.627   1.612   6.506 -0.4311 -0.1613  0.2747
  281MOL0     O37007   0.558   1.476   6.784  0.2963  0.2931 -0.1804
  281MOL0     C37008   0.903   1.422   6.904  0.3779  0.1679  0.6057
  281MOL0     C37009   0.964   1.389   7.023  0.2031  0.8078  0.1847
  281MOL0     N37010   0.825   1.223   7.803 -0.0143  0.1994 -0.2236
  281MOL0     N37011   0.821   1.150   7.908  0.2774 -0.5984  0.1370
  281MOL0     C37012   1.572   1.019   9.151  0.0293  0.4646  0.8002
  281MOL0     C37013   1.662   1.065   9.246  0.6319 -0.0430 -0.3491
  281MOL0     C37014   1.997   1.130   9.494 -0.3319  0.0860 -0.3206
  281MOL0     C37015   1.950   1.230   9.589 -0.5886  0.0396  0.3986
  281MOL0     C37016   2.003   1.250   9.716 -0.3845 -0.3117  0.3404
  281MOL0     C37017   2.114   1.168   9.753 -0.8392  0.2192  0.2861
  281MOL0     O37018   2.178   1.213   9.862  0.3285 -0.2400 -0.5941
  281MOL0     C37019   2.277   1.123   9.910  0.5089 -0.5853 -0.1969
  281MOL0     C37020   2.331   1.190  10.040 -0.5744  0.0317  1.1434
  281MOL0     C37021   2.403   1.090  10.128  0.6577 -0.0279 -0.2225
  281MOL0     C37022   2.418   1.147  10.269  0.2120 -0.0880  0.5439
  281MOL0     C37023   2.510   1.265  10.280  0.7120  0.2066  0.3482
  281MOL0     C37024   2.572   1.366  10.306  0.3645  0.3820  0.7194
  281MOL0     C37025   2.162   1.070   9.664  0.0842 -0.8990 -0.1850
  281MOL0     C37026   2.111   1.050   9.538 -0.5558 -1.0165 -0.3149
  281MOL0     H37027   1.803   1.323   9.078  1.5754 -0.3901  1.4585
  281MOL0     H37028   1.627   1.251   8.922 -1.1288 -1.7119 -0.6517
  281MOL0     H37029   1.539   1.118   8.763  0.5453 -0.4445  0.6444
  281MOL0     H37030   1.428   1.213   8.848  1.4251 -0.3545  1.9947
  281MOL0     H37031   1.236   1.043   8.799  1.8179  0.3119  2.1666
  281MOL0     H37032   1.348   0.945   8.710  0.4104 -0.5016 -0.4986
  281MOL0     H37033   1.395   1.138   8.547 -0.5292 -0.2859 -0.6155
  281MOL0     H37034   1.276   1.237   8.633  1.6339  0.6790 -2.1922
  281MOL0     H37035   1.242   0.968   8.491  0.6994  0.8089 -0.8541
  281MOL0     H37036   1.100   1.058   8.569 -1.1740  3.0287 -0.7269
  281MOL0     H37037   1.266   1.172   8.343 -1.0598  1.5904 -0.7536
  281MOL0     H37038   1.122   1.234   8.422  0.6920  1.1506 -3.1816
  281MOL0     H37039   0.997   1.033   8.344  1.9462 -0.7670  1.9817
  281MOL0     H37040   1.142   0.967   8.267  0.3996  0.6134  0.0730
  281MOL0     H37041   1.008   1.231   8.176  0.2690  0.1752 -0.7637
  281MOL0     H37042   1.159   1.171   8.112  0.0426  1.3389  0.8517
  281MOL0     H37043   0.877   1.019   8.089  0.6356 -0.6955 -2.3487
  281MOL0     H37044   1.026   0.951   8.038 -1.4504 -1.7773  0.1987
  281MOL0     H37045   1.142   1.169   7.840 -0.1005 -2.1200 -0.4846
  281MOL0     H37046   1.110   1.382   7.693  0.6552 -0.6651 -0.9299
  281MOL0     H37047   0.934   1.422   7.665  0.9447  0.7841  2.1159
  281MOL0     H37048   1.069   1.181   7.536 -3.1934 -2.1550 -0.1805
  281MOL0     H37049   1.074   1.351   7.468  0.2300 -0.3102 -0.4375
  281MOL0     H37050   0.829   1.194   7.521  1.1627  0.4097 -0.8487
  281MOL0     H37051   0.829   1.355   7.463 -0.7372 -0.0875  2.8478
  281MOL0     H37052   0.823   1.150   7.274  1.4722 -3.2880 -1.2655
  281MOL0     H37053   0.975   1.114   7.324  2.1870  2.2195 -0.4123
  281MOL0     H37054   0.676   1.352   7.213 -1.6998 -0.7799 -0.1911
  281MOL0     H37055   0.582   1.405   7.004 -1.0335 -0.3820  0.9038
  281MOL0     H37056   0.648   1.272   6.490  0.6287  0.2440 -2.2000
  281MOL0     H37057   0.503   1.317   6.296  1.1442 -0.2696  0.7673
  281MOL0     H37058   0.320   1.349   6.182 -2.3782  0.8512  1.3862
  281MOL0     H37059   0.451   1.422   6.091 -0.5750 -0.9519  0.1571
  281MOL0     H37060   0.153   1.497   6.103 -1.5410  0.2067 -2.1722
  281MOL0     H37061   0.238   1.407   5.974 -0.8696 -1.5637  1.3381
  281MOL0     H37062   0.353   1.606   5.898 -0.9682 -1.8663 -0.8792
  281MOL0     H37063   0.281   1.699   6.045  0.7266 -0.1147 -0.0452
  281MOL0     H37064   0.126   1.576   5.798  2.9623 -2.8228  1.3868
  281MOL0     H37065   0.057   1.663   5.926  0.4575  0.4788  1.9411
  281MOL0     H37066   0.274   1.793   5.748  0.3441  0.1430  0.8378
  281MOL0     H37067   0.201   1.883   5.864  5.8253 -1.7099  0.0274
  281MOL0     H37068  -0.023   1.862   5.781  0.5650  0.5000  0.2008
  281MOL0     H37069   0.032   1.748   5.666 -2.0787  0.5612  0.5835
  281MOL0     H37070   0.143   2.039   5.673  0.2524 -1.8831  2.0876
  281MOL0     H37071   0.188   1.913   5.559 -1.1043  0.5768 -1.5536
  281MOL0     H37072  -0.073   2.053   5.602  0.5454  0.2412 -0.2409
  281MOL0     H37073  -0.069   1.906   5.500 -0.4658 -1.4234  2.8854
  281MOL0     H37074   0.487   1.719   6.385  2.1594  0.7874  1.8915
  281MOL0     H37075   0.663   1.700   6.558 -3.3403  1.2540  0.1004
  281MOL0     H37076   0.957   1.437   6.811 -0.1581 -0.8299  0.1144
  281MOL0     H37077   1.072   1.381   7.014  0.0004  0.0946 -2.1264
  281MOL0     H37078   1.521   0.924   9.161  1.0068 -0.6868 -3.2489
  281MOL0     H37079   1.659   1.013   9.341  0.7095  1.1557  0.3304
  281MOL0     H37080   1.874   1.292   9.543  0.2322 -0.2865 -1.5147
  281MOL0     H37081   1.970   1.331   9.780 -4.2152 -1.3171 -0.0943
  281MOL0     H37082   2.356   1.099   9.839 -1.3852 -0.4377 -2.4791
  281MOL0     H37083   2.225   1.032   9.941 -1.8880  0.1281 -1.8565
  281MOL0     H37084   2.396   1.270  10.004  0.7778 -1.7541 -0.6610
  281MOL0     H37085   2.246   1.235  10.091 -1.7741 -0.1208 -0.6058
  281MOL0     H37086   2.495   1.053  10.082  0.0874 -1.5019 -0.2385
  281MOL0     H37087   2.335   1.006  10.141  0.7861 -0.7477 -3.3325
  281MOL0     H37088   2.325   1.177  10.318  0.6240  2.7933 -0.2409
  281MOL0     H37089   2.461   1.066  10.329  2.7174  1.4393  0.9654
  281MOL0     H37090   2.642   1.440  10.340  0.2240  1.7392 -1.7174
  281MOL0     H37091   2.248   1.014   9.698  0.6222  1.1546  2.1333
  281MOL0     H37092   2.154   0.973   9.474 -1.1132 -0.1547 -1.7946
  282MOL0     O37093   1.308  10.264   9.266 -0.0602 -0.4377  0.0870
  282MOL0     C37094   1.282  10.153   9.226  0.6598  0.0082 -0.8586
  282MOL0     O37095   1.185  10.127   9.139 -0.4422  0.6460  0.2501
  282MOL0     C37096   1.121  10.223   9.070 -0.7397 -0.0157  0.1697
  282MOL0     C37097   0.977  10.235   9.065 -0.2356 -0.3057 -0.2938
  282MOL0     C37098   0.917  10.341   8.984 -0.1994 -0.3039 -1.0380
  282MOL0     C37099   0.992  10.426   8.905  0.2972  0.1270 -1.2610
  282MOL0     O37100   0.925  10.532   8.854  0.3631 -0.9053  0.2058
  282MOL0     C37101   1.003  10.658   8.830  0.2985  0.5380  0.4149
  282MOL0     C37102   0.996  10.673   8.681  0.3448 -0.0960 -0.9155
  282MOL0     C37103   0.861  10.695   8.617 -0.8583  0.0926 -0.0623
  282MOL0     C37104   0.865  10.699   8.460 -0.2172 -0.0259 -0.8705
  282MOL0     C37105   0.945  10.818   8.410 -0.0305 -0.4049 -0.5887
  282MOL0     C37106   0.950  10.827   8.259 -0.4109  0.2206 -0.9831
  282MOL0     C37107   0.817  10.832   8.180 -1.0535 -0.3052  0.5430
  282MOL0     C37108   0.736  10.963   8.211  0.2808 -0.3275 -1.1153
  282MOL0     N37109   0.599  10.959   8.160 -0.0890  0.1144  0.4091
  282MOL0     C37110   0.558  10.978   8.029 -0.1661 -0.8062 -0.0997
  282MOL0     C37111   0.425  10.978   8.040  0.1379 -0.5756 -0.3728
  282MOL0     C37112   0.354  11.007   7.916  0.1722 -0.8456 -1.1215
  282MOL0     C37113   0.312  11.158   7.915  0.8154 -0.1052 -0.1322
  282MOL0     C37114   0.205  11.193   8.032  0.6585 -0.0861 -0.0393
  282MOL0     C37115   0.085  11.100   8.068  0.1417 -0.0130  0.1127
  282MOL0     O37116  -0.006  11.073   7.952 -0.4030 -0.3409 -0.2789
  282MOL0     C37117  -0.118  10.999   7.970  0.2266 -0.1168  0.0442
  282MOL0     C37118  -0.161  10.957   8.097  0.5541 -0.6167  0.3108
  282MOL0     C37119  -0.280  10.871   8.109 -0.0454  0.6137 -0.8571
  282MOL0     C37120  -0.370  10.850   8.004  0.2549 -0.2016 -0.2733
  282MOL0     C37121  -0.494  10.771   8.027  0.6038 -0.2724 -0.0436
  282MOL0     O37122  -0.584  10.777   7.919  0.2627 -0.7351  0.0784
  282MOL0     C37123  -0.717  10.744   7.935 -0.4898  0.0286  0.1333
  282MOL0     C37124  -0.791  10.767   7.818 -0.0054 -0.4252 -0.5101
  282MOL0     C37125  -0.930  10.731   7.813 -0.0637  0.1371 -0.4901
  282MOL0     C37126  -0.982  10.655   7.916  0.3676 -0.7683  0.0202
  282MOL0     O37127  -1.104  10.587   7.905  0.0962 -0.4982 -0.5261
  282MOL0     C37128  -1.199  10.623   7.793  0.2415  0.2997 -0.8384
  282MOL0     C37129  -1.341  10.610   7.852 -0.5459  0.6993 -0.0179
  282MOL0     C37130  -1.363  10.467   7.887  0.9860 -0.1864  0.5300
  282MOL0     C37131  -1.511  10.436   7.926  0.3490 -0.0791 -0.3968
  282MOL0     C37132  -1.552  10.293   7.908  0.4635  0.1141  0.7249
  282MOL0     C37133  -1.702  10.252   7.933  0.8783  0.0684 -0.2377
  282MOL0     C37134  -1.729  10.115   7.875 -0.1097  0.5140  0.5176
  282MOL0     C37135  -1.853  10.045   7.928 -0.1051 -0.3486  0.0127
  282MOL0    Cl37136  -1.887   9.908   7.820 -0.1266  0.6440  0.2901
  282MOL0     C37137  -0.913  10.624   8.027 -0.9437  0.5682  0.7190
  282MOL0     C37138  -0.781  10.675   8.046 -0.3587 -0.6463  0.7428
  282MOL0     O37139  -0.512  10.712   8.129  0.2273  0.1077  0.1593
  282MOL0     C37140  -0.337  10.915   7.887  0.3313 -0.0473 -0.2581
  282MOL0     C37141  -0.216  10.978   7.869 -0.7061  0.4794  0.2087
  282MOL0     N37142   0.392  10.967   8.174 -0.7027 -0.0018 -0.0561
  282MOL0     N37143   0.492  10.951   8.242 -0.0032  0.8450  0.2641
  282MOL0     C37144   1.133  10.400   8.906  0.2332 -1.3338  0.4960
  282MOL0     C37145   1.197  10.300   8.984 -0.2640  0.4799  0.1029
  282MOL0     C37146   1.334  10.041   9.299  0.4496  0.0018  0.8821
  282MOL0     C37147   1.361   9.922   9.231  0.5363  0.1902  0.1631
  282MOL0     C37148   1.416   9.816   9.304 -0.3693  0.1370  1.3293
  282MOL0     C37149   1.440   9.819   9.444  0.7724  0.3732  0.3389
  282MOL0     O37150   1.481   9.711   9.513 -0.8841  0.2695  0.2816
  282MOL0     C37151   1.584   9.621   9.460 -0.0178  0.0496 -0.1720
  282MOL0     C37152   1.607   9.509   9.561 -1.4413  0.7960 -0.5880
  282MOL0     C37153   1.682   9.552   9.686  0.8178 -0.2073  0.4000
  282MOL0     C37154   1.704   9.422   9.768  0.1246 -0.2930 -0.2101
  282MOL0     C37155   1.773   9.458   9.886  0.6904  1.0231 -1.0941
  282MOL0     C37156   1.837   9.477   9.991 -0.4897 -0.5967  0.6351
  282MOL0     C37157   1.410   9.936   9.511 -0.0303 -0.5969 -0.5533
  282MOL0     C37158   1.369  10.048   9.438 -0.2084  0.1832 -0.3404
  282MOL0     H37159   0.918  10.175   9.134 -3.1303  3.8921  1.2954
  282MOL0     H37160   0.809  10.352   8.987 -0.5392 -2.9897 -0.5264
  282MOL0     H37161   1.102  10.645   8.876 -0.1763  0.0330  1.3165
  282MOL0     H37162   0.959  10.750   8.869  1.0245  1.7054 -1.3629
  282MOL0     H37163   1.041  10.581   8.642  0.0541 -0.3501 -0.6702
  282MOL0     H37164   1.055  10.763   8.668  0.2839 -0.1999 -2.0173
  282MOL0     H37165   0.820  10.787   8.657 -0.4225  1.0410 -1.6789
  282MOL0     H37166   0.799  10.607   8.634  1.8660 -2.2338 -1.2319
  282MOL0     H37167   0.911  10.607   8.424 -0.2695  0.2473 -1.6592
  282MOL0     H37168   0.760  10.708   8.433 -1.0268  0.0631  1.9221
  282MOL0     H37169   1.049  10.814   8.442  0.1742 -0.4228 -1.2346
  282MOL0     H37170   0.913  10.916   8.447 -2.5637 -1.5248  0.4227
  282MOL0     H37171   1.008  10.739   8.230 -0.3901 -0.8418  1.9409
  282MOL0     H37172   1.017  10.911   8.236  0.4686 -0.1973 -0.0512
  282MOL0     H37173   0.835  10.816   8.074  1.8824 -3.0877  1.3053
  282MOL0     H37174   0.748  10.751   8.205 -1.4556  0.5747  2.4747
  282MOL0     H37175   0.783  11.050   8.165  2.4352 -0.0965  1.2816
  282MOL0     H37176   0.737  10.974   8.320  2.2588  2.0173 -1.2816
  282MOL0     H37177   0.607  11.014   7.940 -1.2148  0.0628 -0.3542
  282MOL0     H37178   0.261  10.951   7.920 -0.2226 -0.1261  0.5447
  282MOL0     H37179   0.417  10.979   7.830  1.5814  1.0145 -0.7603
  282MOL0     H37180   0.260  11.180   7.821  1.0103 -0.1235 -0.2445
  282MOL0     H37181   0.403  11.218   7.920  0.6754  0.1388 -0.4690
  282MOL0     H37182   0.252  11.203   8.130 -0.4621  3.6816  0.2712
  282MOL0     H37183   0.155  11.288   8.012 -1.7087 -1.0489  0.9482
  282MOL0     H37184   0.023  11.146   8.145  0.9605 -0.4928  1.0834
  282MOL0     H37185   0.120  11.006   8.112  0.5143 -0.0709 -0.2986
  282MOL0     H37186  -0.111  10.981   8.190  0.7656 -0.5477  0.1802
  282MOL0     H37187  -0.322  10.831   8.201  0.2398  1.3962 -0.3881
  282MOL0     H37188  -0.740  10.805   7.729 -0.6692 -1.1125 -1.2008
  282MOL0     H37189  -0.980  10.753   7.719  2.9774  0.7922 -2.1147
  282MOL0     H37190  -1.179  10.564   7.703 -0.8953  1.5928 -1.9836
  282MOL0     H37191  -1.177  10.727   7.765 -1.1682  0.9271  0.2848
  282MOL0     H37192  -1.398  10.654   7.769  3.8987  3.2555 -2.0737
  282MOL0     H37193  -1.372  10.655   7.947 -3.0322  2.0817 -1.3545
  282MOL0     H37194  -1.301  10.442   7.974  0.7029 -0.5472  0.6315
  282MOL0     H37195  -1.340  10.407   7.798  0.3055  0.3567 -0.0281
  282MOL0     H37196  -1.518  10.463   8.032 -2.5627  1.9365 -0.9916
  282MOL0     H37197  -1.590  10.495   7.880 -0.2306  0.8511  1.6653
  282MOL0     H37198  -1.489  10.242   7.982 -0.1782  0.0264  1.2211
  282MOL0     H37199  -1.525  10.255   7.809 -2.6748  0.9603 -0.5816
  282MOL0     H37200  -1.771  10.329   7.895 -1.4199 -1.4450  0.6709
  282MOL0     H37201  -1.713  10.249   8.041  0.1527  1.6011 -0.2435
  282MOL0     H37202  -1.750  10.118   7.768  0.8532 -3.1012  0.0814
  282MOL0     H37203  -1.642  10.051   7.896  0.0441 -0.3791 -2.4503
  282MOL0     H37204  -1.944  10.104   7.921 -0.9529 -1.6632 -0.3890
  282MOL0     H37205  -1.835  10.000   8.025 -0.4024 -2.9660 -1.0710
  282MOL0     H37206  -0.968  10.565   8.100 -2.2615  1.4356  0.4653
  282MOL0     H37207  -0.730  10.652   8.139 -0.0844  1.8652  1.2811
  282MOL0     H37208  -0.410  10.916   7.807  1.3055 -0.6181 -1.1816
  282MOL0     H37209  -0.193  11.025   7.774  0.3819 -0.5199 -0.0473
  282MOL0     H37210   1.191  10.466   8.842  1.0422 -1.9707  0.5583
  282MOL0     H37211   1.301  10.277   8.961 -0.2254 -1.0740  1.6785
  282MOL0     H37212   1.336   9.925   9.125 -0.1459 -2.1442  0.2101
  282MOL0     H37213   1.424   9.716   9.261 -0.8875 -0.3219  2.2725
  282MOL0     H37214   1.669   9.676   9.419  0.1430 -1.2701 -1.7099
  282MOL0     H37215   1.546   9.567   9.373 -1.8576  3.0072 -1.3624
  282MOL0     H37216   1.512   9.464   9.594 -1.1711 -1.1210 -2.1940
  282MOL0     H37217   1.663   9.435   9.503  0.3752 -0.5074  2.5992
  282MOL0     H37218   1.621   9.622   9.744 -2.0807 -0.1931 -2.4061
  282MOL0     H37219   1.772   9.603   9.651 -1.5624  3.8244 -0.4259
  282MOL0     H37220   1.608   9.377   9.794 -0.2401  0.2079 -0.6515
  282MOL0     H37221   1.764   9.354   9.708 -0.3878 -0.2193 -0.8242
  282MOL0     H37222   1.889   9.507  10.080 -1.8671  1.2800  0.8838
  282MOL0     H37223   1.449   9.944   9.612 -0.2392  0.1730 -0.5329
  282MOL0     H37224   1.358  10.142   9.492 -0.8324 -0.6508  1.0555
  283MOL0     O37225   7.391   1.426   1.694 -0.0644  0.3000 -0.0738
  283MOL0     C37226   7.399   1.364   1.589  0.4367  0.0504 -0.2037
  283MOL0     O37227   7.291   1.323   1.519  0.5868  1.2221  0.1426
  283MOL0     C37228   7.163   1.355   1.549  0.3825  0.0971 -0.4474
  283MOL0     C37229   7.132   1.479   1.603 -0.2419  0.8490 -0.8400
  283MOL0     C37230   6.999   1.516   1.617  0.3384 -0.2993  0.9701
  283MOL0     C37231   6.895   1.427   1.577  1.2315 -0.2691 -1.1661
  283MOL0     O37232   6.768   1.477   1.589  0.8480 -0.0628 -0.6090
  283MOL0     C37233   6.657   1.392   1.547 -0.0637  0.0600 -0.3913
  283MOL0     C37234   6.548   1.495   1.537 -0.0099 -0.2817  0.1720
  283MOL0     C37235   6.402   1.430   1.544 -0.0870 -0.1248 -0.4868
  283MOL0     C37236   6.289   1.530   1.529  0.6220 -0.8078  0.3830
  283MOL0     C37237   6.158   1.468   1.472 -0.2856  1.3591  0.0565
  283MOL0     C37238   6.107   1.355   1.554  0.2318  0.0866 -1.0281
  283MOL0     C37239   5.958   1.323   1.527  0.2269  0.0422 -0.4324
  283MOL0     C37240   5.915   1.176   1.489 -0.1407  0.0959  0.0898
  283MOL0     N37241   5.899   1.091   1.616 -1.1260  1.1243 -0.0384
  283MOL0     C37242   5.815   0.984   1.620  0.5520  0.2763  0.0365
  283MOL0     C37243   5.844   0.907   1.730 -0.8321 -0.3031  0.4129
  283MOL0     C37244   5.792   0.781   1.779  0.4843 -0.1786  0.5078
  283MOL0     C37245   5.675   0.735   1.682  1.1286  0.5097  0.0584
  283MOL0     C37246   5.592   0.622   1.741  0.3407  0.7075 -0.7178
  283MOL0     C37247   5.500   0.551   1.646  0.4376 -0.0256 -0.4102
  283MOL0     O37248   5.371   0.612   1.643  0.3945 -0.2054 -0.6570
  283MOL0     C37249   5.274   0.586   1.737 -0.1507 -0.5412 -0.2726
  283MOL0     C37250   5.292   0.504   1.859 -0.0938  0.2906  0.2876
  283MOL0     C37251   5.185   0.488   1.945  0.2303 -0.1900 -0.4475
  283MOL0     C37252   5.053   0.520   1.910 -0.4768 -0.0520  0.0530
  283MOL0     C37253   4.926   0.491   1.982 -0.2192 -0.7448  1.5251
  283MOL0     O37254   4.814   0.468   1.908  0.6583  0.8188  0.3177
  283MOL0     C37255   4.702   0.427   1.968  0.3845 -0.2621  0.8244
  283MOL0     C37256   4.588   0.502   1.934 -0.4746 -0.3579 -0.9693
  283MOL0     C37257   4.469   0.475   1.987  0.6153 -1.1569 -0.1504
  283MOL0     C37258   4.460   0.369   2.082 -0.1574  0.3384 -0.6397
  283MOL0     O37259   4.333   0.337   2.134  0.4530  0.3525  0.6857
  283MOL0     C37260   4.298   0.207   2.198  0.0163 -0.4351  0.5002
  283MOL0     C37261   4.147   0.191   2.183  0.5124 -0.4478 -0.7002
  283MOL0     C37262   4.067   0.296   2.270 -0.3260 -0.1310  0.0984
  283MOL0     C37263   3.923   0.260   2.280 -0.5778  0.8024 -0.8725
  283MOL0     C37264   3.847   0.335   2.400 -0.3986  0.4318  1.2662
  283MOL0     C37265   3.699   0.291   2.412 -0.2107  0.4056 -0.0556
  283MOL0     C37266   3.624   0.396   2.501 -0.5684  0.2106  0.0763
  283MOL0     C37267   3.485   0.343   2.539  0.0581 -0.3240 -0.1392
  283MOL0    Cl37268   3.381   0.326   2.400  0.0075 -0.1539 -0.3130
  283MOL0     C37269   4.570   0.292   2.112  1.0189  0.1732  0.2141
  283MOL0     C37270   4.691   0.315   2.048 -0.9115 -0.3182 -0.6234
  283MOL0     O37271   4.948   0.473   2.097 -0.2730  0.4710  0.5129
  283MOL0     C37272   5.035   0.602   1.800 -0.0561  0.0498 -0.9950
  283MOL0     C37273   5.143   0.631   1.709 -0.1392 -0.9617 -0.2129
  283MOL0     N37274   5.948   0.974   1.796 -0.1481  0.5157  1.3111
  283MOL0     N37275   5.990   1.075   1.726 -0.0127 -0.1398 -0.2871
  283MOL0     C37276   6.928   1.305   1.525  0.0591  0.3400 -0.1997
  283MOL0     C37277   7.061   1.270   1.509 -0.9863  0.3918 -1.0584
  283MOL0     C37278   7.533   1.355   1.536 -0.8215  0.8745  0.7068
  283MOL0     C37279   7.560   1.339   1.398  0.0756 -0.2940 -0.3737
  283MOL0     C37280   7.690   1.330   1.349 -0.1102  0.3645  0.1693
  283MOL0     C37281   7.799   1.335   1.440 -0.4111  0.4144  0.3825
  283MOL0     O37282   7.925   1.312   1.379  0.0751 -0.2173 -0.2082
  283MOL0     C37283   8.052   1.297   1.444 -0.3751 -0.4107 -0.1008
  283MOL0     C37284   8.094   1.438   1.499  0.1755  0.3580  0.3430
  283MOL0     C37285   8.234   1.449   1.560 -0.8703  0.1824 -0.5767
  283MOL0     C37286   8.338   1.489   1.456 -1.2210 -0.1924  0.0885
  283MOL0     C37287   8.336   1.638   1.456 -0.1191  0.1465  0.2837
  283MOL0     C37288   8.347   1.759   1.468 -0.0817  0.6730 -0.4422
  283MOL0     C37289   7.776   1.337   1.571 -0.6100 -0.8142 -0.0464
  283MOL0     C37290   7.649   1.357   1.620  0.1098 -0.4419  0.5853
  283MOL0     H37291   7.203   1.559   1.622  1.2375 -0.0896 -2.2377
  283MOL0     H37292   6.972   1.616   1.651  0.8509  0.3992 -0.5938
  283MOL0     H37293   6.631   1.312   1.617 -3.1020  0.9240 -0.3749
  283MOL0     H37294   6.678   1.342   1.452 -2.3409 -0.0295 -0.9147
  283MOL0     H37295   6.560   1.546   1.441  0.1118 -0.5515  0.0437
  283MOL0     H37296   6.557   1.577   1.609 -0.6541  0.5017 -0.6095
  283MOL0     H37297   6.391   1.381   1.642  2.2855 -1.4622 -0.8228
  283MOL0     H37298   6.400   1.345   1.475  4.1334 -0.1236 -0.8698
  283MOL0     H37299   6.263   1.573   1.626 -1.6227 -1.0122 -0.0724
  283MOL0     H37300   6.324   1.613   1.467 -1.3680  0.4179  0.8201
  283MOL0     H37301   6.185   1.438   1.370 -0.5559 -1.8010  0.8046
  283MOL0     H37302   6.081   1.545   1.462 -0.1348  1.5447  0.3260
  283MOL0     H37303   6.112   1.382   1.660 -2.1188  1.6961 -1.2590
  283MOL0     H37304   6.168   1.266   1.535  0.5153 -0.9658  3.5682
  283MOL0     H37305   5.893   1.361   1.606 -0.3120  0.7983 -1.2263
  283MOL0     H37306   5.932   1.360   1.428  2.0071  0.9478 -0.6023
  283MOL0     H37307   5.988   1.142   1.415  0.7500  1.9272  0.0709
  283MOL0     H37308   5.814   1.172   1.448 -0.5710  0.1217  1.1048
  283MOL0     H37309   5.742   0.952   1.546  2.0605 -0.5235 -1.1615
  283MOL0     H37310   5.756   0.807   1.879 -0.2024  2.2920 -0.3160
  283MOL0     H37311   5.867   0.701   1.783  1.6736  0.9495  2.7378
  283MOL0     H37312   5.712   0.719   1.581  0.1966  1.9900 -0.5644
  283MOL0     H37313   5.603   0.817   1.667  0.0863 -0.4280 -0.2049
  283MOL0     H37314   5.662   0.554   1.793 -1.8687 -1.0346  0.1384
  283MOL0     H37315   5.537   0.664   1.826 -1.9418 -2.6895 -0.3303
  283MOL0     H37316   5.479   0.448   1.677 -2.4187  0.5903  0.0086
  283MOL0     H37317   5.538   0.566   1.544  0.7727  2.4140  0.0315
  283MOL0     H37318   5.389   0.469   1.893 -0.4288  0.6386  1.6521
  283MOL0     H37319   5.192   0.446   2.045 -2.8291 -2.8339 -1.1589
  283MOL0     H37320   4.589   0.593   1.876 -1.5925  1.4432  1.6347
  283MOL0     H37321   4.372   0.520   1.967 -0.7143 -1.9890  3.6891
  283MOL0     H37322   4.336   0.211   2.300 -1.4042  0.6487  1.0084
  283MOL0     H37323   4.346   0.123   2.146  0.5345 -1.1276  2.0489
  283MOL0     H37324   4.111   0.091   2.209 -1.6808  0.1840 -1.1541
  283MOL0     H37325   4.124   0.203   2.077  0.2998  0.0055 -0.6032
  283MOL0     H37326   4.091   0.398   2.240 -1.7648  0.7246  1.6613
  283MOL0     H37327   4.098   0.282   2.374 -1.1298 -1.1443  0.2206
  283MOL0     H37328   3.879   0.271   2.180 -0.8674  0.2596 -0.8111
  283MOL0     H37329   3.914   0.151   2.290 -0.1024  0.8713  0.5051
  283MOL0     H37330   3.865   0.439   2.372  1.9006 -0.4391 -0.9875
  283MOL0     H37331   3.904   0.323   2.492  1.0604  0.6685  0.4356
  283MOL0     H37332   3.699   0.193   2.460  2.9752 -1.7171 -3.8326
  283MOL0     H37333   3.661   0.285   2.310  3.3919 -0.8215 -1.4701
  283MOL0     H37334   3.673   0.412   2.597  3.3100  2.1172 -1.9884
  283MOL0     H37335   3.621   0.495   2.455  0.1987 -0.2623 -1.0365
  283MOL0     H37336   3.428   0.421   2.590 -2.2221 -1.8684 -0.1684
  283MOL0     H37337   3.489   0.256   2.605  4.5466  0.6905  1.2958
  283MOL0     H37338   4.559   0.213   2.186  1.3958  0.9851  1.1480
  283MOL0     H37339   4.777   0.251   2.067  1.5463  2.6241 -0.9832
  283MOL0     H37340   4.932   0.634   1.786 -0.8723 -0.5858  2.6253
  283MOL0     H37341   5.116   0.685   1.619 -3.4220 -1.4662  0.3652
  283MOL0     H37342   6.860   1.227   1.494  1.5265 -0.9278 -0.3425
  283MOL0     H37343   7.073   1.173   1.462 -1.8964  0.4158 -1.3695
  283MOL0     H37344   7.485   1.331   1.320  1.4742 -3.1175 -1.5368
  283MOL0     H37345   7.716   1.312   1.245  2.2234 -3.9342  1.2061
  283MOL0     H37346   8.124   1.267   1.368  0.9133  4.1746 -1.0285
  283MOL0     H37347   8.044   1.224   1.525 -0.3775  0.6207  0.8458
  283MOL0     H37348   8.083   1.510   1.417  0.5924  0.4804  0.3920
  283MOL0     H37349   8.021   1.472   1.573 -0.2705 -0.2729  0.2049
  283MOL0     H37350   8.268   1.354   1.600  0.7529  0.9863  0.0620
  283MOL0     H37351   8.241   1.526   1.637 -0.7632 -0.4588  0.0533
  283MOL0     H37352   8.438   1.444   1.464 -0.1725  0.6887 -4.6835
  283MOL0     H37353   8.301   1.438   1.367  1.0900 -1.7577 -0.0803
  283MOL0     H37354   8.364   1.864   1.474 -1.7199  0.9006  1.9887
  283MOL0     H37355   7.859   1.335   1.641 -1.4398 -0.3697  0.9670
  283MOL0     H37356   7.641   1.368   1.728  0.9999 -2.7993  0.9543
  284MOL0     O37357   0.518   1.918   9.364  0.5127 -0.5299 -0.6460
  284MOL0     C37358   0.596   2.008   9.370  0.3337 -0.9836 -0.3203
  284MOL0     O37359   0.590   2.121   9.291  0.5149  0.8118 -0.5353
  284MOL0     C37360   0.510   2.117   9.185 -0.4985  0.7795 -0.2890
  284MOL0     C37361   0.374   2.111   9.194  0.0692  0.6627  0.6166
  284MOL0     C37362   0.297   2.108   9.076 -0.1410  0.1635 -0.3541
  284MOL0     C37363   0.349   2.119   8.947 -0.2126  0.4663 -0.6631
  284MOL0     O37364   0.266   2.141   8.838  0.1293  0.9456 -0.3243
  284MOL0     C37365   0.231   2.020   8.766  0.5517  0.5922  0.1747
  284MOL0     C37366   0.084   2.038   8.723  0.4803  0.0903  0.1961
  284MOL0     C37367   0.015   1.902   8.725 -0.3269  0.7571  0.3633
  284MOL0     C37368  -0.124   1.922   8.666 -0.0133  0.1953  0.5262
  284MOL0     C37369  -0.224   1.806   8.674  0.7278 -0.3974  0.3280
  284MOL0     C37370  -0.365   1.845   8.628 -0.4596  0.0207  0.4442
  284MOL0     C37371  -0.456   1.723   8.637 -0.2046  0.4710 -0.6287
  284MOL0     C37372  -0.601   1.775   8.657  0.2117 -0.7589  0.0847
  284MOL0     N37373  -0.697   1.661   8.683  0.6516  0.8439 -0.4050
  284MOL0     C37374  -0.715   1.560   8.589 -0.3632 -0.0135  0.0493
  284MOL0     C37375  -0.810   1.484   8.642  0.7583 -0.3369  0.7586
  284MOL0     C37376  -0.838   1.350   8.584 -0.1393 -0.0740 -0.1734
  284MOL0     C37377  -0.987   1.322   8.596 -0.3380 -0.5725 -0.2410
  284MOL0     C37378  -1.021   1.174   8.553  0.0070 -0.9813  0.3841
  284MOL0     C37379  -1.164   1.138   8.583 -0.8772  0.1478 -0.2233
  284MOL0     O37380  -1.179   1.001   8.554  0.2348  0.3340  0.0055
  284MOL0     C37381  -1.306   0.965   8.539  0.0567 -0.2262 -0.1747
  284MOL0     C37382  -1.330   0.859   8.452 -0.6515  0.0191 -0.2241
  284MOL0     C37383  -1.462   0.817   8.415 -0.2362 -0.3960 -0.8466
  284MOL0     C37384  -1.572   0.889   8.464 -0.3703  0.4811 -0.5167
  284MOL0     C37385  -1.711   0.855   8.427 -0.7085 -0.4584  0.3193
  284MOL0     O37386  -1.727   0.797   8.301 -0.3294 -0.0129  0.0967
  284MOL0     C37387  -1.856   0.751   8.274  0.5757 -0.5549  0.2816
  284MOL0     C37388  -1.896   0.625   8.311 -0.3298 -0.4926  0.4151
  284MOL0     C37389  -2.026   0.582   8.288 -0.0856 -0.1562  0.1231
  284MOL0     C37390  -2.113   0.657   8.219  0.2644 -0.4073  0.0008
  284MOL0     O37391  -2.239   0.609   8.188  0.7561 -0.0366  0.0556
  284MOL0     C37392  -2.314   0.691   8.098  0.1420 -0.0439  0.4724
  284MOL0     C37393  -2.388   0.796   8.182 -0.4434 -0.0222  0.7879
  284MOL0     C37394  -2.426   0.925   8.107 -0.1505  0.0843  0.2490
  284MOL0     C37395  -2.559   0.931   8.037 -0.4141 -0.1602  0.5205
  284MOL0     C37396  -2.552   0.860   7.896  0.1267 -0.1096 -0.3350
  284MOL0     C37397  -2.693   0.856   7.838  0.4852  0.1810 -0.5075
  284MOL0     C37398  -2.691   0.789   7.702  0.0418  0.4161  0.3150
  284MOL0     C37399  -2.660   0.640   7.705 -0.3099  0.9893  0.7064
  284MOL0    Cl37400  -2.791   0.549   7.785  0.3309 -0.1738  0.2834
  284MOL0     C37401  -2.066   0.782   8.171  0.0996 -0.4178 -0.3293
  284MOL0     C37402  -1.947   0.835   8.208  0.2192  0.4017 -0.8209
  284MOL0     O37403  -1.803   0.877   8.501  0.1466  0.0040 -0.8450
  284MOL0     C37404  -1.536   0.982   8.569 -0.0552 -0.1698  0.6673
  284MOL0     C37405  -1.415   1.015   8.603 -0.4734  0.5367 -0.3312
  284MOL0     N37406  -0.849   1.532   8.766 -0.5738  0.6654  0.3299
  284MOL0     N37407  -0.776   1.641   8.788  0.7151 -0.0091 -0.1594
  284MOL0     C37408   0.484   2.144   8.945 -0.7088 -0.8717 -0.6413
  284MOL0     C37409   0.560   2.134   9.057 -1.1169  0.3321 -1.0571
  284MOL0     C37410   0.700   2.003   9.467 -0.7174 -0.5992 -0.3261
  284MOL0     C37411   0.681   1.915   9.578  1.1306 -0.1516 -0.4554
  284MOL0     C37412   0.776   1.921   9.686  0.5184  0.8450 -0.5396
  284MOL0     C37413   0.890   2.004   9.670  0.1644  0.1493 -1.2829
  284MOL0     O37414   0.987   2.009   9.769 -0.4832 -0.1526  0.6299
  284MOL0     C37415   1.011   1.913   9.868 -0.1383 -0.2095  0.4376
  284MOL0     C37416   1.151   1.917   9.929 -0.1594  0.3632 -0.2640
  284MOL0     C37417   1.154   1.796  10.020  0.8927  0.4175 -0.6140
  284MOL0     C37418   1.285   1.795  10.101 -0.1113  0.3990  0.1621
  284MOL0     C37419   1.307   1.682  10.200  0.7016 -0.0398 -0.4567
  284MOL0     C37420   1.336   1.585  10.261 -0.0371 -0.6065 -0.0236
  284MOL0     C37421   0.908   2.082   9.555 -0.4038  0.3097  0.6276
  284MOL0     C37422   0.812   2.080   9.452 -0.1016  0.3620  0.2323
  284MOL0     H37423   0.334   2.110   9.295 -0.3646 -0.7250  0.4494
  284MOL0     H37424   0.189   2.100   9.085 -0.0251  0.5439  2.0733
  284MOL0     H37425   0.231   1.933   8.832  1.0418 -0.0564 -0.6602
  284MOL0     H37426   0.301   1.998   8.685 -1.3049 -0.7876 -1.1293
  284MOL0     H37427   0.078   2.102   8.635 -1.2774  0.0479  0.2572
  284MOL0     H37428   0.026   2.103   8.790  1.0993  1.3310 -0.4298
  284MOL0     H37429  -0.002   1.856   8.823  1.8536 -1.0230 -0.0004
  284MOL0     H37430   0.063   1.825   8.664 -2.8996 -2.9099  2.5003
  284MOL0     H37431  -0.178   1.998   8.725 -2.0495 -0.0977 -0.8531
  284MOL0     H37432  -0.105   1.950   8.562 -0.1116 -3.2738 -0.5412
  284MOL0     H37433  -0.226   1.778   8.780 -2.5895  3.2573  1.4582
  284MOL0     H37434  -0.181   1.725   8.613 -2.1382 -0.0430 -2.4547
  284MOL0     H37435  -0.365   1.890   8.528 -0.1025 -0.2608  0.3154
  284MOL0     H37436  -0.403   1.921   8.697 -2.1776 -1.5902  1.3797
  284MOL0     H37437  -0.440   1.660   8.548 -0.1304  1.0292 -1.0147
  284MOL0     H37438  -0.423   1.665   8.724  1.2609  2.0506 -0.0711
  284MOL0     H37439  -0.625   1.817   8.559  4.3124 -1.9880 -1.6682
  284MOL0     H37440  -0.601   1.843   8.743  2.7172  2.2848 -2.0982
  284MOL0     H37441  -0.658   1.554   8.497  0.0117  1.9002  0.1092
  284MOL0     H37442  -0.779   1.283   8.647  0.6044  1.2373  0.5651
  284MOL0     H37443  -0.797   1.338   8.483  0.3066 -0.1813  0.0194
  284MOL0     H37444  -1.042   1.389   8.529 -3.1787 -1.4706  1.0504
  284MOL0     H37445  -1.022   1.345   8.697  2.9416  0.6893  0.7224
  284MOL0     H37446  -1.005   1.166   8.445  0.7558 -1.2884  0.5153
  284MOL0     H37447  -0.948   1.110   8.602  1.6674 -1.9025 -2.9709
  284MOL0     H37448  -1.230   1.199   8.521 -0.2943  0.5302 -0.4695
  284MOL0     H37449  -1.175   1.160   8.690 -0.0184  2.0718 -0.4908
  284MOL0     H37450  -1.244   0.813   8.405 -0.4237  0.6655 -0.4548
  284MOL0     H37451  -1.473   0.738   8.343  2.1704 -1.1315 -0.4899
  284MOL0     H37452  -1.820   0.563   8.357  0.0854 -0.1156  0.2458
  284MOL0     H37453  -2.048   0.481   8.320  2.4452 -0.9331 -0.3887
  284MOL0     H37454  -2.398   0.635   8.055 -1.4131  4.7553 -3.7668
  284MOL0     H37455  -2.263   0.724   8.007  2.3019  0.6961  1.8992
  284MOL0     H37456  -2.321   0.824   8.263 -0.6190  1.3924  0.4731
  284MOL0     H37457  -2.473   0.754   8.236 -1.3195 -0.7035 -1.0525
  284MOL0     H37458  -2.350   0.968   8.042 -0.0998 -0.4367 -0.0385
  284MOL0     H37459  -2.443   0.995   8.189  0.2052  1.5785 -0.9155
  284MOL0     H37460  -2.643   0.891   8.094 -1.1243 -2.6530 -2.0934
  284MOL0     H37461  -2.576   1.036   8.010  0.0971  0.1353  1.2815
  284MOL0     H37462  -2.501   0.763   7.894  0.1800 -0.1314 -3.7715
  284MOL0     H37463  -2.485   0.914   7.828  1.0725 -0.3684  0.3579
  284MOL0     H37464  -2.744   0.951   7.820  1.7615  0.7312 -1.3814
  284MOL0     H37465  -2.756   0.793   7.901  1.3060 -1.1281 -0.9510
  284MOL0     H37466  -2.797   0.800   7.676  0.1386  1.8492  0.4820
  284MOL0     H37467  -2.622   0.836   7.631  0.6587  0.1082  0.7021
  284MOL0     H37468  -2.566   0.625   7.758 -0.0495 -1.0913 -0.2551
  284MOL0     H37469  -2.645   0.596   7.607 -0.4259 -0.5465  1.3605
  284MOL0     H37470  -2.130   0.843   8.108  1.9172  2.8435  0.7438
  284MOL0     H37471  -1.921   0.941   8.203  0.0691  0.5371  0.7128
  284MOL0     H37472  -1.617   1.025   8.628 -0.3125  0.0357  0.1719
  284MOL0     H37473  -1.410   1.087   8.684 -1.3561 -0.9937  1.1344
  284MOL0     H37474   0.534   2.164   8.850 -0.0697  2.4515  0.2766
  284MOL0     H37475   0.668   2.150   9.050  0.0597 -4.7576  1.0763
  284MOL0     H37476   0.595   1.849   9.584  1.2532 -0.3405 -0.7531
  284MOL0     H37477   0.760   1.871   9.781  0.5142  0.5405 -0.7030
  284MOL0     H37478   0.997   1.811   9.832 -0.1889 -1.1600  2.9746
  284MOL0     H37479   0.946   1.928   9.955 -0.2848 -2.1907  0.7086
  284MOL0     H37480   1.223   1.919   9.847  0.8404  2.6009  0.6087
  284MOL0     H37481   1.164   2.004   9.993  0.6438 -0.3848  0.6185
  284MOL0     H37482   1.139   1.705   9.961 -2.6231  0.4457  0.0345
  284MOL0     H37483   1.077   1.797  10.098  2.8018 -1.4567  1.4520
  284MOL0     H37484   1.368   1.798  10.030 -0.6761  0.3180 -0.5143
  284MOL0     H37485   1.282   1.885  10.164 -0.2201  0.8270 -0.4480
  284MOL0     H37486   1.358   1.492  10.309  1.0315 -0.1211  0.4600
  284MOL0     H37487   0.992   2.150   9.550  1.0998 -1.5135 -3.8230
  284MOL0     H37488   0.832   2.145   9.368  1.0548 -2.6496 -1.9988
  285MOL0     O37489   0.587   5.918   2.545 -0.1570 -0.2164  0.8599
  285MOL0     C37490   0.535   5.993   2.469 -0.4600 -0.3612  0.2240
  285MOL0     O37491   0.592   6.095   2.399 -0.1399  0.4551 -0.0367
  285MOL0     C37492   0.734   6.092   2.386  0.5695 -0.6009 -0.1084
  285MOL0     C37493   0.824   6.182   2.447 -0.3278  0.1341  0.2172
  285MOL0     C37494   0.964   6.162   2.432 -0.1126 -0.7682 -0.5607
  285MOL0     C37495   1.016   6.052   2.379  0.1562  0.3017  0.2946
  285MOL0     O37496   1.153   6.039   2.396  0.5971  0.4170  0.3306
  285MOL0     C37497   1.205   5.907   2.367  0.3763 -0.0009 -0.3390
  285MOL0     C37498   1.344   5.890   2.438  0.1639 -0.6069 -0.0074
  285MOL0     C37499   1.453   5.985   2.389 -0.2776  0.2885  0.3279
  285MOL0     C37500   1.563   5.896   2.318  0.9946 -0.6535 -0.7307
  285MOL0     C37501   1.700   5.969   2.288  0.2166  0.8589  0.0124
  285MOL0     C37502   1.681   6.097   2.194  0.0998  0.6335  0.3243
  285MOL0     C37503   1.635   6.056   2.048  0.1578  0.0897  0.2100
  285MOL0     C37504   1.614   6.182   1.972 -1.1307  0.8544 -0.4914
  285MOL0     N37505   1.499   6.261   2.004  0.1981  0.0449 -0.1886
  285MOL0     C37506   1.374   6.225   2.056 -0.3299  0.9387  0.3043
  285MOL0     C37507   1.285   6.323   2.037  0.2295  0.0814  0.0448
  285MOL0     C37508   1.149   6.327   2.104 -0.8830  0.4379  0.4373
  285MOL0     C37509   1.040   6.401   2.014  0.4365 -1.0498 -0.4703
  285MOL0     C37510   0.903   6.338   2.023  0.4753  0.3674  0.1906
  285MOL0     C37511   0.799   6.416   1.949 -1.2759 -0.4345 -1.0518
  285MOL0     O37512   0.674   6.350   1.953  0.3486 -0.3891  0.1899
  285MOL0     C37513   0.567   6.385   2.032 -0.2536  0.2136 -0.6306
  285MOL0     C37514   0.451   6.310   2.015  0.2900 -0.2813  0.3084
  285MOL0     C37515   0.340   6.340   2.088  0.3854 -0.4642 -0.7148
  285MOL0     C37516   0.335   6.450   2.174  0.6993 -0.6551 -0.2565
  285MOL0     C37517   0.211   6.481   2.239 -0.5340 -0.6134 -0.6285
  285MOL0     O37518   0.105   6.396   2.222  0.4795 -0.9039  0.2729
  285MOL0     C37519  -0.020   6.442   2.281 -0.6348  1.1966 -0.4727
  285MOL0     C37520  -0.044   6.489   2.406  0.3958  0.4094 -0.5989
  285MOL0     C37521  -0.174   6.515   2.449 -0.3628  0.2803 -0.0440
  285MOL0     C37522  -0.282   6.520   2.359  0.3667  0.6656 -0.3826
  285MOL0     O37523  -0.412   6.555   2.400  0.6022 -0.1371 -0.2622
  285MOL0     C37524  -0.507   6.561   2.295 -0.8169 -0.5908 -0.1513
  285MOL0     C37525  -0.578   6.427   2.283 -0.0311 -0.4097 -0.3117
  285MOL0     C37526  -0.688   6.448   2.166 -0.8600 -0.3859  0.0458
  285MOL0     C37527  -0.771   6.325   2.134  0.2191 -0.1206 -0.5150
  285MOL0     C37528  -0.846   6.265   2.249 -0.2597 -0.2076 -0.2030
  285MOL0     C37529  -0.862   6.121   2.216 -0.2281 -0.9600  0.3700
  285MOL0     C37530  -0.966   6.058   2.312 -0.1214 -0.3148 -0.5954
  285MOL0     C37531  -0.921   6.078   2.458 -0.8127  0.7832  0.0605
  285MOL0    Cl37532  -1.022   5.979   2.558  0.3448  0.1672  0.0366
  285MOL0     C37533  -0.256   6.463   2.238 -0.5546  0.5380 -0.1186
  285MOL0     C37534  -0.124   6.423   2.199 -0.1908 -0.8882 -0.2077
  285MOL0     O37535   0.208   6.593   2.306 -0.2133  0.5469  0.4893
  285MOL0     C37536   0.453   6.516   2.192  0.6567  0.6886  0.5140
  285MOL0     C37537   0.564   6.486   2.128  0.3813 -0.0619 -0.9407
  285MOL0     N37538   1.353   6.421   1.968  0.3252 -0.1700 -0.4562
  285MOL0     N37539   1.478   6.381   1.945 -0.2513 -0.1706  0.4334
  285MOL0     C37540   0.930   5.963   2.311 -0.5186 -0.6163 -0.5562
  285MOL0     C37541   0.788   5.986   2.313  0.4617 -0.4954  0.5455
  285MOL0     C37542   0.389   5.981   2.453 -0.6056 -0.4263 -0.3078
  285MOL0     C37543   0.321   6.089   2.410 -0.1805  1.1821  0.7654
  285MOL0     C37544   0.183   6.094   2.419 -0.0972  0.0668 -0.5425
  285MOL0     C37545   0.110   5.980   2.465  0.9887  0.9749  0.1145
  285MOL0     O37546  -0.031   5.977   2.481 -0.0994  0.0677  0.0413
  285MOL0     C37547  -0.118   6.085   2.436  0.8748  0.2129  0.0438
  285MOL0     C37548  -0.262   6.036   2.468 -0.2418  0.2089 -0.1872
  285MOL0     C37549  -0.377   6.124   2.456 -0.2250  0.2000 -0.2107
  285MOL0     C37550  -0.511   6.081   2.518  0.4085  0.6281 -0.0131
  285MOL0     C37551  -0.561   5.966   2.447  0.3461  0.0553  0.7142
  285MOL0     C37552  -0.607   5.865   2.395 -0.0386  0.0458  0.6503
  285MOL0     C37553   0.186   5.866   2.493  0.2284  0.1667 -0.4096
  285MOL0     C37554   0.322   5.867   2.496  0.7821 -0.0850  0.6369
  285MOL0     H37555   0.794   6.268   2.505  0.0643  0.8267 -0.5832
  285MOL0     H37556   1.019   6.242   2.481 -0.2366 -1.5198  0.8711
  285MOL0     H37557   1.225   5.892   2.260  0.6438  0.5235 -0.3665
  285MOL0     H37558   1.133   5.837   2.412 -1.6945  1.6388 -0.9131
  285MOL0     H37559   1.381   5.786   2.436  0.9477 -0.3348 -1.4475
  285MOL0     H37560   1.321   5.914   2.542 -2.6156  2.9274 -1.2619
  285MOL0     H37561   1.496   6.036   2.475  1.2168 -1.2135  0.5179
  285MOL0     H37562   1.409   6.062   2.324 -1.0308  0.7861  1.3964
  285MOL0     H37563   1.585   5.807   2.378 -2.5669 -0.5008  1.0802
  285MOL0     H37564   1.515   5.857   2.228 -2.7231 -1.0432  1.1978
  285MOL0     H37565   1.773   5.897   2.249 -1.7202  0.1404 -2.5642
  285MOL0     H37566   1.750   6.011   2.375  0.1164 -0.3121  0.6610
  285MOL0     H37567   1.774   6.151   2.174 -0.3962  1.1726 -0.6274
  285MOL0     H37568   1.607   6.156   2.249  1.0404  0.8617  1.3664
  285MOL0     H37569   1.712   5.991   2.008  0.1208 -0.3837  0.8945
  285MOL0     H37570   1.545   5.993   2.051  0.4866 -0.4052  3.5784
  285MOL0     H37571   1.611   6.151   1.867 -0.1449 -0.0608 -0.2684
  285MOL0     H37572   1.711   6.233   1.981  1.2747 -3.1120 -1.2758
  285MOL0     H37573   1.354   6.126   2.096 -0.6930  0.7288 -0.3925
  285MOL0     H37574   1.164   6.373   2.203  1.7000 -2.4778  1.5448
  285MOL0     H37575   1.130   6.221   2.121  0.5976  0.0816  0.0299
  285MOL0     H37576   1.080   6.397   1.912  0.6060 -2.1000 -0.3680
  285MOL0     H37577   1.041   6.506   2.046  1.1988 -0.6467 -1.7279
  285MOL0     H37578   0.907   6.235   1.986  1.4258  0.9942 -1.6135
  285MOL0     H37579   0.890   6.329   2.131  2.6468 -1.8313  0.3742
  285MOL0     H37580   0.827   6.426   1.844  2.3330 -4.0884 -0.6642
  285MOL0     H37581   0.788   6.516   1.992  1.5985 -1.5145  2.6620
  285MOL0     H37582   0.451   6.217   1.958  1.9235 -0.9228  1.2748
  285MOL0     H37583   0.254   6.277   2.068  0.7373 -2.8397  3.9246
  285MOL0     H37584   0.042   6.508   2.468  0.2598 -0.8673  0.0240
  285MOL0     H37585  -0.183   6.558   2.548  0.2693  0.9169 -0.2501
  285MOL0     H37586  -0.480   6.603   2.197 -2.6324 -0.1611 -0.5096
  285MOL0     H37587  -0.594   6.621   2.325 -1.5600 -1.2211 -0.9745
  285MOL0     H37588  -0.612   6.405   2.385 -0.3696  2.3495  0.2489
  285MOL0     H37589  -0.509   6.353   2.243 -0.9467 -0.6002 -1.6083
  285MOL0     H37590  -0.638   6.471   2.071 -1.6171  1.0699 -0.0294
  285MOL0     H37591  -0.763   6.522   2.195  0.0258 -0.2447  2.1356
  285MOL0     H37592  -0.842   6.341   2.052  2.2615  1.0619 -2.1554
  285MOL0     H37593  -0.696   6.256   2.095 -0.0426 -0.4566 -0.4364
  285MOL0     H37594  -0.945   6.312   2.251 -1.1820 -2.0501  0.3982
  285MOL0     H37595  -0.794   6.286   2.343  1.4706  2.5614 -1.6595
  285MOL0     H37596  -0.765   6.071   2.229  0.3096  0.3766  2.0305
  285MOL0     H37597  -0.884   6.098   2.112  2.1436 -1.4520 -0.0797
  285MOL0     H37598  -1.063   6.108   2.309 -1.0388 -1.9405  0.5734
  285MOL0     H37599  -0.964   5.951   2.288  0.9585 -0.1568 -1.2981
  285MOL0     H37600  -0.943   6.182   2.486  0.5222  1.5767 -1.6647
  285MOL0     H37601  -0.813   6.063   2.463 -0.9551 -0.4904 -0.3774
  285MOL0     H37602  -0.327   6.431   2.163 -0.7112 -0.6020  0.4911
  285MOL0     H37603  -0.098   6.389   2.100 -0.5698 -0.4027 -0.4800
  285MOL0     H37604   0.462   6.609   2.248 -1.2826  1.7868 -0.8913
  285MOL0     H37605   0.651   6.545   2.156  0.7184 -0.6391 -0.7534
  285MOL0     H37606   0.973   5.876   2.262 -0.3838  1.1833 -3.9341
  285MOL0     H37607   0.722   5.918   2.261 -1.0076  0.3188  1.2815
  285MOL0     H37608   0.373   6.181   2.384 -0.2652  0.9826 -0.1475
  285MOL0     H37609   0.130   6.183   2.387 -0.4783  1.2875  3.0110
  285MOL0     H37610  -0.111   6.120   2.332 -0.8196  3.3508  0.8624
  285MOL0     H37611  -0.097   6.166   2.505  2.8298  0.9029 -1.2877
  285MOL0     H37612  -0.286   5.949   2.407  2.5212 -1.5141  0.9703
  285MOL0     H37613  -0.264   5.991   2.568  2.2674 -4.2387 -1.8501
  285MOL0     H37614  -0.400   6.141   2.350 -1.7201 -2.2186 -0.3431
  285MOL0     H37615  -0.354   6.221   2.500 -0.7679 -0.0438  0.6192
  285MOL0     H37616  -0.515   6.063   2.626  0.1929  0.4122 -0.0573
  285MOL0     H37617  -0.579   6.165   2.500  3.2068  2.6741 -1.9528
  285MOL0     H37618  -0.646   5.780   2.342 -0.1902  0.7100 -0.3234
  285MOL0     H37619   0.125   5.779   2.518 -2.6751  1.5446 -2.1605
  285MOL0     H37620   0.382   5.784   2.532  0.8313  0.3217  1.5289
  286MOL0     O37621   6.724   4.153   0.286  1.5830  0.8484 -0.3869
  286MOL0     C37622   6.677   4.145   0.397  0.9679  0.1924  0.1871
  286MOL0     O37623   6.544   4.181   0.426  0.3830  0.5644 -0.8242
  286MOL0     C37624   6.460   4.220   0.335  0.3401 -0.2543 -0.7401
  286MOL0     C37625   6.445   4.167   0.208 -0.6640 -1.2171  1.0544
  286MOL0     C37626   6.348   4.222   0.125 -0.4515 -0.6091 -0.0238
  286MOL0     C37627   6.244   4.305   0.176  0.0426 -0.5582 -0.4480
  286MOL0     O37628   6.130   4.341   0.102 -0.2481 -0.5241 -1.1274
  286MOL0     C37629   6.114   4.267  -0.020 -0.5653 -0.5221 -0.1789
  286MOL0     C37630   5.973   4.261  -0.052 -0.1030 -0.5604  0.2343
  286MOL0     C37631   5.922   4.382  -0.132 -0.5085  0.3526  0.6148
  286MOL0     C37632   5.774   4.405  -0.122 -0.7633 -0.9241 -0.0284
  286MOL0     C37633   5.701   4.286  -0.182 -0.4100 -0.7553  0.0057
  286MOL0     C37634   5.544   4.281  -0.186 -0.6655 -0.8321 -0.5996
  286MOL0     C37635   5.489   4.399  -0.268 -0.0052 -0.9367  0.1990
  286MOL0     C37636   5.340   4.380  -0.292  0.6487  0.3781  0.8260
  286MOL0     N37637   5.258   4.395  -0.174 -0.2957  0.2418 -0.3303
  286MOL0     C37638   5.213   4.522  -0.121 -0.0759  0.3295 -0.0574
  286MOL0     C37639   5.140   4.484  -0.016  0.6439 -0.3933 -0.3104
  286MOL0     C37640   5.076   4.585   0.073  0.4280 -0.3934 -0.0941
  286MOL0     C37641   4.928   4.577   0.075 -0.1354 -0.4622  0.1973
  286MOL0     C37642   4.866   4.617  -0.047  0.5854 -0.2427  0.1848
  286MOL0     C37643   4.717   4.631  -0.023  0.4033  0.9350  0.5319
  286MOL0     O37644   4.705   4.764   0.028 -0.5676 -0.4331  0.2505
  286MOL0     C37645   4.578   4.813   0.049  0.2468 -0.1024  0.4305
  286MOL0     C37646   4.550   4.948   0.046  0.0915  0.1721 -0.9873
  286MOL0     C37647   4.425   4.996   0.094 -0.5941  0.7300  0.4841
  286MOL0     C37648   4.327   4.910   0.140 -0.2720 -0.4963  0.7328
  286MOL0     C37649   4.191   4.965   0.185  0.3454 -0.5128  0.2228
  286MOL0     O37650   4.088   4.879   0.219 -0.6681 -0.5120  0.8067
  286MOL0     C37651   3.961   4.921   0.234 -0.0281  0.4038  0.2623
  286MOL0     C37652   3.889   4.835   0.319  0.4681 -0.0839 -0.2085
  286MOL0     C37653   3.755   4.866   0.334 -0.1490  0.5330  0.0975
  286MOL0     C37654   3.687   4.967   0.273 -0.9141  0.0141 -0.5109
  286MOL0     O37655   3.553   4.983   0.297 -0.2149  0.5578 -0.0831
  286MOL0     C37656   3.487   5.109   0.291 -0.9286 -0.1894  0.1517
  286MOL0     C37657   3.375   5.127   0.401 -0.1693  0.2797 -0.4895
  286MOL0     C37658   3.306   5.262   0.411  0.5949  0.5935 -0.2998
  286MOL0     C37659   3.191   5.271   0.512  0.5363  0.6531 -0.0716
  286MOL0     C37660   3.107   5.399   0.495  0.7900  0.2963  0.5477
  286MOL0     C37661   2.985   5.392   0.575 -0.2634 -0.2136  0.0014
  286MOL0     C37662   2.898   5.520   0.541 -0.9803 -1.1897  0.2993
  286MOL0     C37663   2.781   5.490   0.449  0.7589  0.0155  0.1893
  286MOL0    Cl37664   2.817   5.474   0.277  0.1834  0.4407 -0.2766
  286MOL0     C37665   3.765   5.047   0.184 -0.2983  0.3861  1.0537
  286MOL0     C37666   3.900   5.026   0.164 -0.2907  0.4416 -0.5725
  286MOL0     O37667   4.182   5.083   0.195 -1.6364 -0.2302 -0.8023
  286MOL0     C37668   4.351   4.773   0.136  0.0678 -0.3669  0.3162
  286MOL0     C37669   4.472   4.728   0.086 -0.2856 -0.2849 -0.3236
  286MOL0     N37670   5.136   4.349  -0.003 -0.5080 -0.0635 -0.2351
  286MOL0     N37671   5.210   4.295  -0.100 -0.1630  0.3179 -0.6235
  286MOL0     C37672   6.257   4.356   0.306 -0.0872  0.4481 -0.4656
  286MOL0     C37673   6.365   4.312   0.385  0.4075 -0.2895 -0.0335
  286MOL0     C37674   6.769   4.081   0.490  0.7633 -0.3749 -0.3585
  286MOL0     C37675   6.750   3.949   0.524  0.4946  0.7683  0.0682
  286MOL0     C37676   6.837   3.880   0.614  0.5236 -0.2190 -0.8575
  286MOL0     C37677   6.958   3.935   0.654 -0.3195 -0.0106 -0.6025
  286MOL0     O37678   7.054   3.878   0.729 -0.0695 -0.2480 -0.8689
  286MOL0     C37679   7.034   3.745   0.756 -0.8769 -0.1187  0.0487
  286MOL0     C37680   7.164   3.677   0.821  0.0199  0.4207  0.5412
  286MOL0     C37681   7.280   3.699   0.729  0.0745  0.4167 -0.1246
  286MOL0     C37682   7.400   3.610   0.776  0.1098  0.7368  0.0292
  286MOL0     C37683   7.516   3.670   0.713 -0.2271 -0.5873 -0.5787
  286MOL0     C37684   7.616   3.722   0.661  0.6932 -0.6377  0.1868
  286MOL0     C37685   6.984   4.071   0.604  0.4104  0.7728 -0.0209
  286MOL0     C37686   6.882   4.139   0.534  0.2209 -0.3602 -0.5583
  286MOL0     H37687   6.522   4.101   0.170 -0.4428 -0.1004 -0.5497
  286MOL0     H37688   6.349   4.202   0.018  3.5007 -0.2205 -0.2014
  286MOL0     H37689   6.134   4.161  -0.004 -0.6601 -0.8658 -2.1577
  286MOL0     H37690   6.175   4.302  -0.103 -0.9440  0.4856 -0.0422
  286MOL0     H37691   5.913   4.244   0.039 -0.0095 -1.4619  0.1396
  286MOL0     H37692   5.958   4.180  -0.124  0.1918 -0.6640  0.2896
  286MOL0     H37693   5.939   4.369  -0.240 -1.1542 -2.3586  0.7734
  286MOL0     H37694   5.969   4.480  -0.119 -1.2703  1.2003 -2.2466
  286MOL0     H37695   5.751   4.411  -0.015 -1.4348 -0.8747 -0.1734
  286MOL0     H37696   5.749   4.498  -0.172 -1.5421 -1.0067  0.1971
  286MOL0     H37697   5.738   4.189  -0.146  0.2058 -1.4624 -2.3822
  286MOL0     H37698   5.728   4.280  -0.287  0.6131 -3.2463  0.3265
  286MOL0     H37699   5.512   4.284  -0.082 -0.2227 -2.8106 -0.3753
  286MOL0     H37700   5.522   4.193  -0.247 -1.0605  0.2577 -2.0981
  286MOL0     H37701   5.512   4.501  -0.234 -0.3856 -1.1344  1.0793
  286MOL0     H37702   5.537   4.394  -0.365  2.5345  4.0628  0.8638
  286MOL0     H37703   5.333   4.274  -0.317  0.3328  0.9859 -2.0461
  286MOL0     H37704   5.298   4.436  -0.376 -0.9250 -1.6101  0.2167
  286MOL0     H37705   5.226   4.624  -0.154 -0.1415 -0.3301 -2.2436
  286MOL0     H37706   5.105   4.687   0.045  1.5742 -0.4988  0.6498
  286MOL0     H37707   5.117   4.568   0.173 -0.0757  0.1231  0.2035
  286MOL0     H37708   4.897   4.643   0.157  1.4216 -1.4807  1.6577
  286MOL0     H37709   4.898   4.474   0.095 -0.6448 -0.3411  0.0544
  286MOL0     H37710   4.896   4.713  -0.088 -1.9408  1.1161  1.2772
  286MOL0     H37711   4.878   4.544  -0.128 -3.9569  0.3967 -1.3304
  286MOL0     H37712   4.691   4.566   0.061 -0.5625 -0.0132 -0.4468
  286MOL0     H37713   4.667   4.620  -0.120  1.4590  2.0625 -0.1703
  286MOL0     H37714   4.628   5.019   0.023  1.3328  0.9879  4.3891
  286MOL0     H37715   4.413   5.104   0.085 -0.7092  0.9148  2.3313
  286MOL0     H37716   3.917   4.748   0.377 -2.2555 -0.9585 -0.0577
  286MOL0     H37717   3.694   4.803   0.398  0.6690 -2.4795 -1.8502
  286MOL0     H37718   3.447   5.119   0.190  1.1173 -0.0445 -0.6971
  286MOL0     H37719   3.557   5.193   0.297  0.3003 -1.1698 -0.1667
  286MOL0     H37720   3.414   5.101   0.500  1.7627  0.8106 -1.0810
  286MOL0     H37721   3.305   5.046   0.376  0.5715 -0.1052 -1.3917
  286MOL0     H37722   3.266   5.287   0.312  1.5130 -1.7343 -1.3275
  286MOL0     H37723   3.383   5.336   0.435  0.7831  0.5806 -0.8556
  286MOL0     H37724   3.121   5.189   0.500  1.6456 -0.3233 -0.0430
  286MOL0     H37725   3.227   5.270   0.616  0.2197 -0.6202  0.0404
  286MOL0     H37726   3.095   5.413   0.387  2.2173 -2.4947 -0.0726
  286MOL0     H37727   3.168   5.483   0.530 -1.0762  2.5493 -1.2983
  286MOL0     H37728   3.006   5.377   0.681  1.3450 -2.6399 -0.5813
  286MOL0     H37729   2.926   5.305   0.545 -1.0576  0.9055 -1.8748
  286MOL0     H37730   2.868   5.574   0.631 -2.1701 -0.6438 -0.4091
  286MOL0     H37731   2.959   5.590   0.483 -1.6575 -1.5980 -0.9537
  286MOL0     H37732   2.708   5.571   0.460 -0.4157 -0.8100 -1.0751
  286MOL0     H37733   2.747   5.393   0.485 -1.4743  1.7172  3.1787
  286MOL0     H37734   3.711   5.127   0.133 -0.4948 -0.6496 -0.4392
  286MOL0     H37735   3.952   5.086   0.089  1.7524  0.6529  0.9371
  286MOL0     H37736   4.268   4.708   0.162 -0.8472  0.9999  0.9030
  286MOL0     H37737   4.475   4.620   0.081 -1.6899 -0.3701  0.2735
  286MOL0     H37738   6.184   4.427   0.344  0.7982  2.6495 -2.5883
  286MOL0     H37739   6.363   4.339   0.490  0.4004 -1.2447  0.2209
  286MOL0     H37740   6.660   3.898   0.490  1.6923  0.3004 -2.6407
  286MOL0     H37741   6.812   3.780   0.648  1.7308  0.5417  2.7254
  286MOL0     H37742   7.007   3.700   0.660 -2.9257  1.4690 -0.1709
  286MOL0     H37743   6.956   3.725   0.830 -0.4462 -1.6884  0.1258
  286MOL0     H37744   7.189   3.730   0.913  0.1011  3.8578 -1.2803
  286MOL0     H37745   7.163   3.568   0.833  3.1426  0.3500  1.0440
  286MOL0     H37746   7.298   3.807   0.733  0.4563  0.3949 -1.0323
  286MOL0     H37747   7.251   3.670   0.628 -0.0913  0.0460  0.0279
  286MOL0     H37748   7.411   3.609   0.885 -1.6546 -0.5667  0.2360
  286MOL0     H37749   7.395   3.506   0.741  1.6603  1.1006 -1.4080
  286MOL0     H37750   7.698   3.773   0.615  0.5039 -1.8091 -1.5217
  286MOL0     H37751   7.081   4.110   0.631  1.3006 -2.4686  2.1411
  286MOL0     H37752   6.900   4.243   0.507 -1.7563 -0.0892 -0.9949
  287MOL0     O37753   4.873   9.497   9.445 -0.0314  0.0966  0.8831
  287MOL0     C37754   4.993   9.519   9.447  0.3933  0.2963 -0.5149
  287MOL0     O37755   5.052   9.625   9.504 -0.1635 -0.0437 -0.7470
  287MOL0     C37756   4.980   9.720   9.568  0.0965 -0.3134 -0.0076
  287MOL0     C37757   5.012   9.740   9.700 -0.5416  0.3731 -0.0029
  287MOL0     C37758   4.951   9.844   9.766  0.3028 -1.0224  0.6182
  287MOL0     C37759   4.856   9.929   9.713  0.5029 -0.1355  0.6248
  287MOL0     O37760   4.802  10.029   9.791  0.2259  0.4377  0.4147
  287MOL0     C37761   4.679  10.090   9.752 -0.3821 -0.0211 -0.0290
  287MOL0     C37762   4.618  10.150   9.880 -0.0520  0.2911 -0.4954
  287MOL0     C37763   4.469  10.182   9.873 -0.9393  0.3784  0.1696
  287MOL0     C37764   4.409  10.236  10.002 -0.4538  0.4839 -0.5797
  287MOL0     C37765   4.269  10.285   9.983 -0.7368  0.2283 -0.8000
  287MOL0     C37766   4.165  10.180   9.951  0.1380  0.7289  0.4447
  287MOL0     C37767   4.116  10.085  10.065 -0.5765 -0.4246 -0.2128
  287MOL0     C37768   3.979  10.118  10.102  0.0590  0.2159 -0.0394
  287MOL0     N37769   3.926  10.072  10.226  0.3128 -0.5216  0.0993
  287MOL0     C37770   3.964  10.108  10.354 -0.2026 -0.2242  0.1141
  287MOL0     C37771   3.869  10.034  10.433 -0.6772 -0.8083 -0.2095
  287MOL0     C37772   3.861  10.035  10.588  0.2391 -0.5650  0.8632
  287MOL0     C37773   3.963  10.141  10.652  0.5008  0.1157 -0.2807
  287MOL0     C37774   3.942  10.164  10.803  0.0625 -0.0558  0.1254
  287MOL0     C37775   3.954  10.016  10.881  0.0821 -0.5964  0.0068
  287MOL0     O37776   3.837   9.941  10.875  0.4557  0.6124  0.2894
  287MOL0     C37777   3.725   9.972  10.946 -0.1355  0.0221  0.0953
  287MOL0     C37778   3.709  10.085  11.017 -0.1230 -0.6647 -0.1473
  287MOL0     C37779   3.587  10.116  11.086 -1.7271  0.2393 -0.3276
  287MOL0     C37780   3.480  10.029  11.069  0.2709  0.2063  0.3861
  287MOL0     C37781   3.357  10.072  11.130  0.0097 -0.1067  0.6367
  287MOL0     O37782   3.364  10.181  11.215  0.3039  0.6093 -0.2959
  287MOL0     C37783   3.245  10.249  11.239 -0.9016 -0.1014 -0.0819
  287MOL0     C37784   3.228  10.305  11.365  0.1436 -0.4220  1.0016
  287MOL0     C37785   3.115  10.374  11.399  0.5494 -0.0551 -0.5573
  287MOL0     C37786   3.009  10.388  11.312  0.1961  0.1124 -0.4105
  287MOL0     O37787   2.911  10.474  11.363 -0.0123  0.3716 -0.3821
  287MOL0     C37788   2.826  10.542  11.272  0.2276  0.8479 -0.7105
  287MOL0     C37789   2.697  10.567  11.345  0.8786  0.1188 -0.2735
  287MOL0     C37790   2.605  10.665  11.264  0.1912  0.0127 -0.1991
  287MOL0     C37791   2.474  10.684  11.356  0.0313 -0.0214  0.4185
  287MOL0     C37792   2.393  10.783  11.273 -0.8590  0.3679 -1.1213
  287MOL0     C37793   2.276  10.849  11.341 -0.4490  0.2894 -0.4126
  287MOL0     C37794   2.320  10.978  11.422  0.2573 -0.0507 -0.6255
  287MOL0     C37795   2.193  11.027  11.492  0.8669 -0.7927  0.0592
  287MOL0    Cl37796   2.148  10.922  11.621  0.1042  0.0781  0.2863
  287MOL0     C37797   3.025  10.338  11.184  0.4421 -0.3363  0.8367
  287MOL0     C37798   3.141  10.269  11.148 -0.0180  0.6836 -0.3344
  287MOL0     O37799   3.257  10.010  11.099 -0.2107 -0.8903 -0.4472
  287MOL0     C37800   3.489   9.916  10.985 -0.4617  0.2551  0.5810
  287MOL0     C37801   3.613   9.891  10.923  1.3249 -0.0904  0.0917
  287MOL0     N37802   3.787   9.964  10.350  0.6136 -0.6589 -0.3545
  287MOL0     N37803   3.814   9.993  10.238 -0.8048  0.2549  1.1235
  287MOL0     C37804   4.822   9.904   9.574  0.4227  0.3812 -0.1775
  287MOL0     C37805   4.882   9.799   9.506  0.6090  0.7396  0.4950
  287MOL0     C37806   5.088   9.432   9.369  0.8201 -0.7773  0.3066
  287MOL0     C37807   5.219   9.421   9.412  0.3581 -0.2751 -0.6009
  287MOL0     C37808   5.307   9.326   9.359 -0.1899  0.2220  0.2918
  287MOL0     C37809   5.265   9.238   9.261  0.2173 -0.5973  1.1493
  287MOL0     O37810   5.365   9.165   9.201  0.2758  0.0173  0.0939
  287MOL0     C37811   5.337   9.108   9.072  0.1505 -0.3441 -0.4168
  287MOL0     C37812   5.461   9.037   9.004 -0.2679 -0.0641  0.8058
  287MOL0     C37813   5.595   9.086   9.068  0.0745 -0.1921 -0.2327
  287MOL0     C37814   5.712   9.066   8.976 -0.2607  0.4481 -0.9944
  287MOL0     C37815   5.697   9.100   8.837 -0.1852  0.3326 -0.7230
  287MOL0     C37816   5.690   9.130   8.721 -0.1880 -0.5144  0.4540
  287MOL0     C37817   5.132   9.242   9.220 -1.0781  0.1244  0.4301
  287MOL0     C37818   5.043   9.339   9.272 -0.1921  0.4540  0.9213
  287MOL0     H37819   5.078   9.680   9.761  0.7730  0.9612 -0.7903
  287MOL0     H37820   4.986   9.862   9.868  1.0604  1.6445 -0.0113
  287MOL0     H37821   4.616  10.006   9.720 -0.4376  0.3228 -0.8414
  287MOL0     H37822   4.688  10.159   9.667 -0.3034  1.2413  0.9758
  287MOL0     H37823   4.667  10.243   9.909  0.3708 -0.7452  2.3834
  287MOL0     H37824   4.637  10.081   9.962 -0.5263 -0.9882 -1.4312
  287MOL0     H37825   4.412  10.093   9.843  0.5254  0.4526 -3.2459
  287MOL0     H37826   4.459  10.257   9.794  0.3134 -0.8340 -1.1824
  287MOL0     H37827   4.397  10.149  10.066  0.9888 -2.1749 -3.6357
  287MOL0     H37828   4.481  10.303  10.050  2.3019 -0.4282 -3.1014
  287MOL0     H37829   4.265  10.362   9.905 -1.1794  1.4427  0.3718
  287MOL0     H37830   4.246  10.338  10.076 -1.2154  3.1479 -2.4617
  287MOL0     H37831   4.198  10.111   9.872  1.6352  1.4017  0.4593
  287MOL0     H37832   4.076  10.230   9.910 -0.6352  0.3529  1.6134
  287MOL0     H37833   4.124   9.978  10.041  0.1771 -1.5138  4.1380
  287MOL0     H37834   4.182  10.090  10.152  0.8455  0.6114 -1.3098
  287MOL0     H37835   3.915  10.073  10.027  1.7416 -0.2619 -1.2454
  287MOL0     H37836   3.959  10.225  10.103 -2.4792 -0.1964  0.2505
  287MOL0     H37837   4.032  10.186  10.386 -0.9827 -0.0426  1.4062
  287MOL0     H37838   3.883   9.933  10.621 -0.0565 -0.3403  1.8114
  287MOL0     H37839   3.758  10.068  10.606  0.5204  0.9345 -0.1729
  287MOL0     H37840   3.967  10.236  10.597  2.1679  0.6580  0.7075
  287MOL0     H37841   4.067  10.112  10.635  0.6678 -0.3812  1.3810
  287MOL0     H37842   4.033  10.222  10.825  1.4869 -2.3325  0.6002
  287MOL0     H37843   3.850  10.220  10.824 -1.1428 -1.5206 -1.0685
  287MOL0     H37844   3.987  10.032  10.984 -2.6257  0.7799  0.7576
  287MOL0     H37845   4.024   9.956  10.823 -0.1736  0.0439 -0.9988
  287MOL0     H37846   3.788  10.155  11.042 -0.0932  0.0490 -2.0561
  287MOL0     H37847   3.581  10.203  11.150 -1.0246  2.3179 -2.8669
  287MOL0     H37848   3.319  10.300  11.425  1.7143 -2.7398 -1.3377
  287MOL0     H37849   3.100  10.416  11.498 -4.3522 -0.7744 -0.7280
  287MOL0     H37850   2.807  10.476  11.187  1.7082  0.1636 -0.5479
  287MOL0     H37851   2.879  10.629  11.232  1.2416  0.4181 -0.3366
  287MOL0     H37852   2.718  10.610  11.443  2.1408 -2.2531  0.5747
  287MOL0     H37853   2.644  10.474  11.366 -1.7709  1.8659  1.3943
  287MOL0     H37854   2.574  10.621  11.168  0.5206 -1.8268  0.5007
  287MOL0     H37855   2.647  10.764  11.245 -0.8446 -0.0107 -3.1753
  287MOL0     H37856   2.420  10.589  11.365 -1.7809  0.9033 -0.1703
  287MOL0     H37857   2.510  10.720  11.453  0.7055  1.1254 -0.2383
  287MOL0     H37858   2.362  10.714  11.193 -1.5842 -2.1905  1.2012
  287MOL0     H37859   2.454  10.860  11.225 -0.1390  1.0973  0.8702
  287MOL0     H37860   2.223  10.781  11.408 -0.4213 -0.0680 -0.7482
  287MOL0     H37861   2.206  10.875  11.261 -1.6531 -1.7926 -0.1049
  287MOL0     H37862   2.398  10.961  11.497 -0.4788  3.1043  1.0396
  287MOL0     H37863   2.345  11.056  11.351 -1.5503 -0.2157 -1.5096
  287MOL0     H37864   2.110  11.025  11.421 -1.0910  1.8022  2.0719
  287MOL0     H37865   2.202  11.130  11.528  2.1871 -1.3233  1.3357
  287MOL0     H37866   2.960  10.364  11.101  0.4181 -1.6514  0.4250
  287MOL0     H37867   3.152  10.233  11.046 -1.6079  2.2795 -1.1209
  287MOL0     H37868   3.413   9.844  10.956  0.6789 -1.1033  0.8620
  287MOL0     H37869   3.627   9.806  10.858 -0.2433 -0.1871 -0.1577
  287MOL0     H37870   4.755   9.963   9.513  1.5359 -0.4681 -2.3407
  287MOL0     H37871   4.859   9.779   9.402  2.9365  0.7234 -0.0786
  287MOL0     H37872   5.248   9.494   9.487 -1.8917 -0.7211  0.7864
  287MOL0     H37873   5.411   9.324   9.390 -0.4499  0.6658  1.2204
  287MOL0     H37874   5.295   9.190   9.013  0.0124  1.7153  2.3378
  287MOL0     H37875   5.258   9.033   9.078 -1.6616  1.5799  2.3530
  287MOL0     H37876   5.454   8.929   9.017 -1.3218 -0.1898 -0.6082
  287MOL0     H37877   5.456   9.039   8.895  0.8393  0.5977  0.7431
  287MOL0     H37878   5.612   9.032   9.161  2.7993  1.6473  0.4502
  287MOL0     H37879   5.601   9.190   9.103  1.8074  0.1360 -1.4066
  287MOL0     H37880   5.802   9.121   9.005  1.2471 -1.4790 -1.7982
  287MOL0     H37881   5.741   8.962   8.993 -2.2555 -0.0255 -0.2451
  287MOL0     H37882   5.690   9.146   8.615 -1.4742 -1.6156  0.2572
  287MOL0     H37883   5.086   9.188   9.137  1.1300 -0.3634 -0.5580
  287MOL0     H37884   4.940   9.344   9.236 -0.8646  1.0927  2.7943
  288MOL0     O37885  10.158  11.159   9.196  0.2820  0.4161 -0.1862
  288MOL0     C37886  10.154  11.074   9.109  0.3647  0.7533 -0.4719
  288MOL0     O37887  10.042  11.003   9.084 -0.7773 -1.2748 -0.0234
  288MOL0     C37888   9.933  11.010   9.173  0.0485 -0.3336 -1.2888
  288MOL0     C37889   9.809  11.046   9.134  0.7198 -0.5140 -1.0932
  288MOL0     C37890   9.696  11.050   9.220 -0.1872 -0.6341 -0.0824
  288MOL0     C37891   9.708  11.029   9.361 -0.1908 -0.0557  0.3666
  288MOL0     O37892   9.605  11.035   9.454 -0.6313  0.5993 -0.2176
  288MOL0     C37893   9.473  11.063   9.410 -0.2248 -0.0683  0.6301
  288MOL0     C37894   9.373  11.056   9.524  0.1684 -0.5368  0.1984
  288MOL0     C37895   9.234  11.090   9.474 -0.5526  0.2688  0.2524
  288MOL0     C37896   9.126  11.107   9.579 -0.7109 -0.5733 -0.3204
  288MOL0     C37897   8.990  11.141   9.512  0.1836 -0.3548 -0.7452
  288MOL0     C37898   8.887  11.085   9.607 -0.5979  0.4138  0.4400
  288MOL0     C37899   8.746  11.125   9.560  0.0056 -0.0886  0.4371
  288MOL0     C37900   8.656  11.083   9.672 -0.0186  0.7960  0.4672
  288MOL0     N37901   8.519  11.105   9.630 -0.2342  0.6540 -0.7899
  288MOL0     C37902   8.452  11.217   9.654  0.9253 -0.1036  0.2014
  288MOL0     C37903   8.322  11.197   9.598 -0.0896 -0.7955  0.3936
  288MOL0     C37904   8.215  11.300   9.572 -0.0353  0.8688 -0.1635
  288MOL0     C37905   8.189  11.308   9.423  0.8681  0.4606 -0.5502
  288MOL0     C37906   8.112  11.433   9.363 -0.0734  0.3485  0.4178
  288MOL0     C37907   7.964  11.389   9.335  0.1685  0.3594 -0.2581
  288MOL0     O37908   7.912  11.376   9.472  0.2526  0.2166 -0.4002
  288MOL0     C37909   7.787  11.324   9.486 -0.0032  0.2219  0.0399
  288MOL0     C37910   7.697  11.310   9.376 -0.6921 -0.4180 -0.6296
  288MOL0     C37911   7.572  11.251   9.397 -0.9009  0.8960 -0.0238
  288MOL0     C37912   7.530  11.192   9.521  0.0670  0.1365  0.3990
  288MOL0     C37913   7.403  11.114   9.525  0.0388  0.7150  1.3722
  288MOL0     O37914   7.332  11.111   9.644 -0.5577 -1.6198  0.2046
  288MOL0     C37915   7.202  11.078   9.629 -0.1498  0.9598 -1.1428
  288MOL0     C37916   7.116  11.117   9.526  0.0564 -0.3713  1.5291
  288MOL0     C37917   6.990  11.064   9.508  0.0267 -0.3810 -0.3370
  288MOL0     C37918   6.940  10.973   9.594  0.7157 -0.6046 -0.8769
  288MOL0     O37919   6.807  10.927   9.582  0.5435  0.3828  0.3957
  288MOL0     C37920   6.715  10.973   9.477 -0.2377  0.7019  0.6392
  288MOL0     C37921   6.600  10.869   9.468 -0.3554  0.7250  0.2988
  288MOL0     C37922   6.470  10.933   9.420 -0.5562  0.1004 -0.4557
  288MOL0     C37923   6.346  10.846   9.426 -0.3150  0.2842 -0.0686
  288MOL0     C37924   6.215  10.916   9.408 -0.4577  0.5567 -0.0389
  288MOL0     C37925   6.094  10.847   9.467  0.4225  0.3244 -0.2264
  288MOL0     C37926   5.972  10.939   9.444 -0.0203  0.7945  0.9281
  288MOL0     C37927   5.867  10.926   9.559 -0.3611  0.0858  0.8165
  288MOL0    Cl37928   5.784  10.768   9.584  0.7654  0.2183  0.3986
  288MOL0     C37929   7.013  10.927   9.705 -0.0469  0.1838 -0.0863
  288MOL0     C37930   7.146  10.987   9.724  0.4672  0.3588 -0.3274
  288MOL0     O37931   7.371  11.051   9.422  0.0957  0.0829 -0.2506
  288MOL0     C37932   7.617  11.211   9.628 -0.4531  0.1907 -0.0090
  288MOL0     C37933   7.740  11.277   9.608  0.2803 -0.0455  0.2849
  288MOL0     N37934   8.311  11.071   9.547 -0.1580  1.0416 -0.2342
  288MOL0     N37935   8.429  11.023   9.566  0.1513  0.0062  0.5594
  288MOL0     C37936   9.832  10.993   9.411  0.2536 -0.5493  0.2089
  288MOL0     C37937   9.938  10.976   9.313  0.3231 -0.0087 -0.2757
  288MOL0     C37938  10.267  11.056   9.012 -0.1173 -0.4242 -0.6453
  288MOL0     C37939  10.250  10.995   8.884  0.6666  0.2644  0.1751
  288MOL0     C37940  10.361  10.964   8.800  0.2209  0.2593  0.5221
  288MOL0     C37941  10.485  11.022   8.832 -0.3592 -0.2003 -0.6510
  288MOL0     O37942  10.587  10.990   8.751 -0.1968 -0.5750 -0.9598
  288MOL0     C37943  10.679  11.094   8.698 -0.1800  0.3634  0.5967
  288MOL0     C37944  10.784  11.043   8.605 -0.0733  0.7021 -0.1839
  288MOL0     C37945  10.880  11.154   8.571 -0.1897 -0.2680 -0.4236
  288MOL0     C37946  10.956  11.132   8.446 -0.8628 -0.9418  0.3391
  288MOL0     C37947  11.045  11.245   8.395 -0.7080 -0.2829  0.7674
  288MOL0     C37948  11.097  11.348   8.363 -0.3987  0.5794 -1.0250
  288MOL0     C37949  10.503  11.091   8.950  0.1474  0.2317  1.1654
  288MOL0     C37950  10.401  11.098   9.042 -0.0674  0.2865 -0.3314
  288MOL0     H37951   9.815  11.069   9.029  1.7521 -1.9673 -1.3846
  288MOL0     H37952   9.603  11.070   9.167  0.5740  0.0981 -1.1861
  288MOL0     H37953   9.446  10.989   9.334 -1.2305  0.7041  0.2152
  288MOL0     H37954   9.464  11.158   9.357 -4.3733 -0.6169  0.0012
  288MOL0     H37955   9.401  11.134   9.595  4.0054  0.6620 -2.3002
  288MOL0     H37956   9.368  10.959   9.574 -0.9515  1.1965  3.8798
  288MOL0     H37957   9.215  11.010   9.402  3.0589 -0.4814 -0.0508
  288MOL0     H37958   9.235  11.175   9.405 -0.4085 -0.9930 -1.3640
  288MOL0     H37959   9.118  11.016   9.638 -0.7273 -0.7010 -0.5215
  288MOL0     H37960   9.147  11.188   9.649 -2.7511 -1.0628  0.9266
  288MOL0     H37961   8.977  11.089   9.417  1.3358 -1.2699 -0.4255
  288MOL0     H37962   8.987  11.250   9.505  0.9778 -0.3568 -1.2212
  288MOL0     H37963   8.914  11.133   9.701  2.1137 -0.7134  0.3396
  288MOL0     H37964   8.889  10.976   9.620  0.5282  0.2399 -0.9702
  288MOL0     H37965   8.741  11.233   9.542  1.9364  0.4654  2.7013
  288MOL0     H37966   8.715  11.066   9.472  0.4980 -3.5822  2.4109
  288MOL0     H37967   8.686  11.137   9.762  2.1064  0.4735  0.0113
  288MOL0     H37968   8.672  10.975   9.680  0.0126  0.4853 -2.4655
  288MOL0     H37969   8.471  11.319   9.686 -0.4206  0.4250 -0.5816
  288MOL0     H37970   8.240  11.395   9.621  2.0427 -0.1881  0.9533
  288MOL0     H37971   8.115  11.278   9.609 -0.0889  1.7683  0.2577
  288MOL0     H37972   8.139  11.217   9.387  0.1255  0.5394  0.2580
  288MOL0     H37973   8.290  11.316   9.382  1.6963  0.5808  1.4093
  288MOL0     H37974   8.113  11.518   9.432  0.3675  0.0986  0.7250
  288MOL0     H37975   8.153  11.461   9.266  1.0771 -0.4537  0.6483
  288MOL0     H37976   7.959  11.300   9.272 -0.6313 -1.1307  1.7729
  288MOL0     H37977   7.906  11.466   9.284  0.8839 -0.2841 -2.1234
  288MOL0     H37978   7.726  11.349   9.279  1.3271 -1.5638 -0.5391
  288MOL0     H37979   7.502  11.249   9.314 -0.7526  0.4074 -0.1387
  288MOL0     H37980   7.151  11.187   9.450 -0.8376 -1.6315 -0.1172
  288MOL0     H37981   6.936  11.101   9.421 -0.6736  4.7764  1.9077
  288MOL0     H37982   6.780  10.967   9.389  3.0044  2.1320  2.7324
  288MOL0     H37983   6.670  11.071   9.495 -0.7701  0.9625 -1.8364
  288MOL0     H37984   6.582  10.828   9.567  1.2787  0.1701  0.3933
  288MOL0     H37985   6.630  10.792   9.396  1.5622 -0.1967  1.9987
  288MOL0     H37986   6.487  10.989   9.327 -0.7098  2.0758  0.6480
  288MOL0     H37987   6.439  11.018   9.481 -2.1824 -1.4407  0.9827
  288MOL0     H37988   6.361  10.770   9.349 -1.7565 -0.5475  0.4378
  288MOL0     H37989   6.349  10.785   9.517 -3.1801  0.0902 -0.0316
  288MOL0     H37990   6.200  10.932   9.301 -1.6448 -2.0503 -0.3461
  288MOL0     H37991   6.223  11.012   9.460  0.3877  0.0774  0.7322
  288MOL0     H37992   6.117  10.840   9.574  0.5558  2.2513 -0.0833
  288MOL0     H37993   6.083  10.748   9.422  1.9122 -0.0568  0.1739
  288MOL0     H37994   6.006  11.042   9.438 -0.7855  1.0126  0.2325
  288MOL0     H37995   5.926  10.907   9.350 -0.3973  4.0193 -0.1027
  288MOL0     H37996   5.794  11.003   9.532 -2.3395 -1.4423  1.6041
  288MOL0     H37997   5.918  10.946   9.653 -1.8166  1.3845  1.3634
  288MOL0     H37998   6.970  10.846   9.763 -1.5632  0.6169 -0.5712
  288MOL0     H37999   7.208  10.954   9.807 -3.5275  1.2557  3.3504
  288MOL0     H38000   7.586  11.175   9.725  0.4916 -1.2736 -0.2032
  288MOL0     H38001   7.798  11.302   9.696 -0.3448  2.1220  0.1584
  288MOL0     H38002   9.841  10.972   9.517 -0.7490  0.1146  0.4320
  288MOL0     H38003  10.029  10.923   9.339 -0.9368 -2.7730 -1.1789
  288MOL0     H38004  10.150  10.954   8.867 -0.7562  3.3247  0.6212
  288MOL0     H38005  10.333  10.912   8.709 -0.3871  0.4769  0.5814
  288MOL0     H38006  10.722  11.138   8.788  2.5768 -1.6141  0.3821
  288MOL0     H38007  10.616  11.172   8.653 -1.4640 -1.1095 -0.2433
  288MOL0     H38008  10.848  10.967   8.652  0.8220  0.9570 -0.9614
  288MOL0     H38009  10.739  11.003   8.514  1.3874  0.1320 -0.6823
  288MOL0     H38010  10.958  11.169   8.646  1.6545 -1.5945 -1.9559
  288MOL0     H38011  10.824  11.247   8.553 -0.6699 -0.1220  1.6188
  288MOL0     H38012  11.025  11.049   8.465  1.8135  1.3432  1.2693
  288MOL0     H38013  10.897  11.095   8.361  1.4204 -2.2620 -0.7676
  288MOL0     H38014  11.152  11.433   8.326  0.9138  1.5126  2.6898
  288MOL0     H38015  10.601  11.124   8.981  0.7783 -1.5099  1.1253
  288MOL0     H38016  10.425  11.133   9.142  0.2907 -0.6001 -0.1018
  289MOL0     O38017   7.863   5.537   8.780 -0.0113 -0.2068 -0.2095
  289MOL0     C38018   7.940   5.526   8.679  0.8568  0.1486 -0.2652
  289MOL0     O38019   7.891   5.507   8.558 -1.0196  0.5726  0.1175
  289MOL0     C38020   7.755   5.542   8.541 -0.4764  0.6196 -0.8592
  289MOL0     C38021   7.715   5.674   8.536 -0.2085  0.0040  0.0957
  289MOL0     C38022   7.584   5.712   8.527  0.2741 -0.0308 -0.8769
  289MOL0     C38023   7.490   5.617   8.512  0.5054  0.2691 -0.1307
  289MOL0     O38024   7.366   5.673   8.494  0.0338  0.5714  1.2193
  289MOL0     C38025   7.262   5.636   8.582 -0.7887  0.6681 -0.3646
  289MOL0     C38026   7.134   5.664   8.519  0.9373  0.0443 -1.2686
  289MOL0     C38027   7.114   5.589   8.387  1.0105  0.3982  0.2959
  289MOL0     C38028   7.116   5.434   8.414 -0.1070  0.3365 -0.2344
  289MOL0     C38029   7.062   5.348   8.306  0.1516  0.7964  0.4980
  289MOL0     C38030   7.175   5.309   8.213 -0.2916 -0.4547  0.2884
  289MOL0     C38031   7.138   5.280   8.066 -0.0762 -0.3171 -0.1796
  289MOL0     C38032   7.069   5.142   8.059  0.6438  0.1054 -0.5699
  289MOL0     N38033   7.030   5.119   7.921  1.1908 -0.1134 -0.4074
  289MOL0     C38034   6.902   5.139   7.868  0.4965  0.5162 -0.5446
  289MOL0     C38035   6.903   5.071   7.752 -0.3885  0.0282 -0.5549
  289MOL0     C38036   6.792   5.063   7.654  0.6523 -0.2637  0.4056
  289MOL0     C38037   6.738   5.195   7.613  0.7556  0.5010 -0.2135
  289MOL0     C38038   6.632   5.175   7.499  0.4847  0.1488  0.7516
  289MOL0     C38039   6.561   5.309   7.476  0.3646  0.5979 -0.6261
  289MOL0     O38040   6.540   5.344   7.339  0.4117  0.1155  1.2327
  289MOL0     C38041   6.415   5.304   7.285  0.4075  0.4166  0.3905
  289MOL0     C38042   6.401   5.182   7.231 -0.0461  0.2454  0.6511
  289MOL0     C38043   6.278   5.148   7.182  0.2399 -0.5397  0.0583
  289MOL0     C38044   6.166   5.233   7.204  0.4188 -0.1173 -0.1511
  289MOL0     C38045   6.035   5.204   7.132 -0.4915  1.4023  0.1955
  289MOL0     O38046   5.955   5.311   7.096 -0.3747 -0.1318  1.0647
  289MOL0     C38047   5.849   5.304   7.008  0.7450  0.2001 -0.1310
  289MOL0     C38048   5.777   5.191   6.975  0.0721  0.5296 -0.1154
  289MOL0     C38049   5.675   5.187   6.887 -0.7580 -0.0400  0.7851
  289MOL0     C38050   5.629   5.311   6.828  0.6635 -0.3377 -0.5946
  289MOL0     O38051   5.529   5.331   6.733  0.1454 -0.2528  0.0681
  289MOL0     C38052   5.452   5.225   6.668  0.1407  0.3449  0.3153
  289MOL0     C38053   5.336   5.171   6.749  0.3364 -0.6013 -0.5777
  289MOL0     C38054   5.252   5.056   6.697  0.5793 -1.1820 -0.0988
  289MOL0     C38055   5.138   5.026   6.798 -0.1846 -0.6080 -0.6780
  289MOL0     C38056   5.029   4.936   6.736 -0.0229  1.0796 -0.3944
  289MOL0     C38057   4.927   4.915   6.852 -0.0487  0.0646  0.1263
  289MOL0     C38058   4.805   4.838   6.793 -0.9273 -1.3277 -0.9227
  289MOL0     C38059   4.714   4.920   6.712 -0.2583 -0.3704  0.2059
  289MOL0    Cl38060   4.623   5.040   6.812 -0.0206  0.2524 -0.1492
  289MOL0     C38061   5.698   5.430   6.857 -0.0273  0.1518 -0.4494
  289MOL0     C38062   5.802   5.427   6.957  0.1167 -0.4031  0.0144
  289MOL0     O38063   6.024   5.086   7.108 -0.0529 -0.1661  0.5630
  289MOL0     C38064   6.174   5.348   7.275 -1.0678 -0.2351 -0.6718
  289MOL0     C38065   6.305   5.387   7.310 -1.1124  0.1418  0.1442
  289MOL0     N38066   7.020   5.008   7.735 -0.2552 -0.1179 -0.1265
  289MOL0     N38067   7.089   5.025   7.841 -0.1593  0.0022 -0.5398
  289MOL0     C38068   7.515   5.482   8.517  0.0462  0.8413  0.2021
  289MOL0     C38069   7.651   5.446   8.548  0.2591 -0.0879  0.3344
  289MOL0     C38070   8.085   5.507   8.714  0.1162  1.1200  0.2145
  289MOL0     C38071   8.167   5.449   8.623  0.4949  0.2336  0.5984
  289MOL0     C38072   8.301   5.419   8.650 -0.7938 -0.9335 -0.3248
  289MOL0     C38073   8.355   5.442   8.777 -0.2938 -0.5717  0.6370
  289MOL0     O38074   8.486   5.411   8.784  0.4656 -0.1912 -0.3283
  289MOL0     C38075   8.558   5.431   8.904  0.3302  0.5478  0.1074
  289MOL0     C38076   8.690   5.350   8.905  0.2007  0.3163  0.3463
  289MOL0     C38077   8.797   5.411   8.811 -0.5670  0.7444  0.5016
  289MOL0     C38078   8.904   5.299   8.763 -0.1574 -0.0620  0.9751
  289MOL0     C38079   9.043   5.343   8.755 -0.0779 -0.3036 -0.2698
  289MOL0     C38080   9.158   5.383   8.742 -0.8137  0.0018  0.7548
  289MOL0     C38081   8.270   5.497   8.874 -0.3189  0.4146  0.1770
  289MOL0     C38082   8.135   5.518   8.849 -0.7380 -0.6866 -0.1802
  289MOL0     H38083   7.790   5.752   8.534 -1.7741  1.5421 -1.1633
  289MOL0     H38084   7.562   5.818   8.510  0.1040  0.2641  1.0383
  289MOL0     H38085   7.265   5.693   8.675 -5.4817  0.3770  0.1877
  289MOL0     H38086   7.261   5.530   8.608  0.2555  0.9227  0.7878
  289MOL0     H38087   7.113   5.771   8.514 -1.1963 -0.3069 -0.8263
  289MOL0     H38088   7.056   5.635   8.591  1.9295  0.8618  0.1975
  289MOL0     H38089   7.200   5.621   8.327 -0.1312 -0.7444 -2.1012
  289MOL0     H38090   7.022   5.626   8.340  1.6064  1.0745 -0.3595
  289MOL0     H38091   7.213   5.400   8.450 -0.4890 -0.4314  0.1100
  289MOL0     H38092   7.056   5.415   8.503  2.1310 -4.3116  0.6189
  289MOL0     H38093   6.981   5.404   8.257  0.8007  0.8860 -0.5000
  289MOL0     H38094   7.017   5.254   8.339  3.5660 -1.2351 -0.2170
  289MOL0     H38095   7.212   5.215   8.255 -1.7089 -1.4679 -0.6248
  289MOL0     H38096   7.248   5.390   8.214 -1.3345  0.5309  2.3364
  289MOL0     H38097   7.058   5.345   8.031 -0.0894 -0.3158 -0.1464
  289MOL0     H38098   7.229   5.272   8.006  1.5950 -1.6855  2.3519
  289MOL0     H38099   6.975   5.136   8.114 -0.1481 -1.2839 -1.9936
  289MOL0     H38100   7.132   5.060   8.094  0.5977 -1.4789 -3.8467
  289MOL0     H38101   6.832   5.209   7.912 -0.1002  0.0534 -0.7436
  289MOL0     H38102   6.714   5.001   7.698 -0.1432 -0.4898 -1.2404
  289MOL0     H38103   6.827   5.011   7.564 -0.0863 -1.9569  1.0583
  289MOL0     H38104   6.820   5.253   7.568  1.3899  0.9400  1.4346
  289MOL0     H38105   6.697   5.245   7.700  0.0505 -1.1600  0.4481
  289MOL0     H38106   6.683   5.142   7.408  4.0258  2.8288  1.5600
  289MOL0     H38107   6.557   5.099   7.523  0.6976  0.5955  3.0705
  289MOL0     H38108   6.629   5.387   7.512  2.7981 -1.5782 -0.1818
  289MOL0     H38109   6.465   5.320   7.529  0.5009 -0.6739 -0.0733
  289MOL0     H38110   6.488   5.118   7.236 -0.9663 -1.0510  0.3680
  289MOL0     H38111   6.261   5.052   7.136 -2.8561 -0.0975  0.0624
  289MOL0     H38112   5.806   5.100   7.027 -1.9445 -0.0685  0.0375
  289MOL0     H38113   5.623   5.093   6.871  0.7745 -0.8336  0.2680
  289MOL0     H38114   5.522   5.145   6.643  0.4101  0.9163 -0.8095
  289MOL0     H38115   5.409   5.256   6.573 -0.8620 -2.2430 -0.1652
  289MOL0     H38116   5.279   5.264   6.758  2.1120  0.3751  1.3718
  289MOL0     H38117   5.376   5.131   6.843  0.5720 -4.4560 -2.1334
  289MOL0     H38118   5.319   4.970   6.694  1.4463 -0.5028 -1.7786
  289MOL0     H38119   5.221   5.094   6.599  1.4974 -1.7354 -0.6191
  289MOL0     H38120   5.188   4.991   6.889  0.2483  4.0706  1.1427
  289MOL0     H38121   5.097   5.119   6.838  1.8109 -0.5239  1.4192
  289MOL0     H38122   5.072   4.840   6.708 -0.8340  0.8414 -0.8492
  289MOL0     H38123   4.979   4.982   6.650 -1.3510 -2.9297 -1.9844
  289MOL0     H38124   4.902   5.002   6.914  0.6674 -1.8124  3.2151
  289MOL0     H38125   4.981   4.850   6.921 -3.2215 -1.6298  1.2288
  289MOL0     H38126   4.845   4.759   6.729 -2.6997 -1.4589 -1.9477
  289MOL0     H38127   4.742   4.796   6.871 -0.1618  0.8182  0.9811
  289MOL0     H38128   4.651   4.847   6.661 -0.1312  0.0441 -0.5505
  289MOL0     H38129   4.765   4.974   6.632  1.4373 -0.2966  1.2804
  289MOL0     H38130   5.670   5.526   6.815  1.7446  1.8531  2.0029
  289MOL0     H38131   5.858   5.515   6.985  0.0925 -1.1261  2.6115
  289MOL0     H38132   6.090   5.415   7.292 -1.9317 -1.5039  0.2785
  289MOL0     H38133   6.333   5.480   7.357 -0.2255  0.4776 -1.0139
  289MOL0     H38134   7.453   5.393   8.508  1.5500 -0.8391  4.0168
  289MOL0     H38135   7.673   5.340   8.554 -2.1374 -0.8360 -1.9606
  289MOL0     H38136   8.130   5.439   8.522  1.4907  1.6723  0.0670
  289MOL0     H38137   8.361   5.371   8.574  0.3410  0.1120 -0.1187
  289MOL0     H38138   8.493   5.399   8.985  0.2997 -0.5790 -0.3380
  289MOL0     H38139   8.578   5.538   8.909 -0.7785  0.8481 -1.3879
  289MOL0     H38140   8.726   5.344   9.008 -2.1780 -3.2277  1.1455
  289MOL0     H38141   8.663   5.247   8.883 -5.0483  1.1909  1.3256
  289MOL0     H38142   8.843   5.505   8.842 -1.1251  2.6673 -3.7919
  289MOL0     H38143   8.740   5.450   8.727 -1.6486 -1.0674  0.3404
  289MOL0     H38144   8.901   5.205   8.820 -0.2377 -2.0426 -2.0831
  289MOL0     H38145   8.866   5.262   8.667  0.0175 -2.6318  1.8133
  289MOL0     H38146   9.253   5.430   8.724  0.1680 -2.4744 -1.0166
  289MOL0     H38147   8.299   5.507   8.978  1.5646  4.1599 -0.5474
  289MOL0     H38148   8.071   5.563   8.924 -0.2317  1.3368 -0.8930
  290MOL0     O38149   8.452   9.282   1.117  0.1181  0.3435 -0.1143
  290MOL0     C38150   8.444   9.382   1.050  0.4406 -0.4452  0.2983
  290MOL0     O38151   8.326   9.451   1.016  0.0355 -0.0998 -0.5155
  290MOL0     C38152   8.208   9.415   1.082  0.0801  0.4640 -0.7703
  290MOL0     C38153   8.146   9.294   1.064 -0.3604  0.3638  0.2183
  290MOL0     C38154   8.033   9.259   1.139  0.7750 -0.5192 -0.9174
  290MOL0     C38155   7.977   9.351   1.227 -0.3167  0.0431 -0.8272
  290MOL0     O38156   7.853   9.328   1.285 -0.2140 -0.2999  1.4818
  290MOL0     C38157   7.801   9.198   1.314 -0.4649 -0.0126 -1.9362
  290MOL0     C38158   7.702   9.213   1.435 -0.1581 -0.5035 -0.2231
  290MOL0     C38159   7.776   9.233   1.572  0.1063 -0.0690 -0.0962
  290MOL0     C38160   7.690   9.185   1.689  0.2117 -1.1221  0.3003
  290MOL0     C38161   7.738   9.266   1.817 -0.3220  1.0049 -0.2352
  290MOL0     C38162   7.872   9.219   1.880 -0.5006  0.4718 -0.0175
  290MOL0     C38163   7.872   9.069   1.917 -0.0569  0.6619  0.1733
  290MOL0     C38164   7.979   9.031   2.009  0.3647 -0.6834 -0.1077
  290MOL0     N38165   8.084   8.957   1.946  0.4614 -0.7857 -0.0805
  290MOL0     C38166   8.181   9.019   1.882 -0.2669 -0.2212  0.2569
  290MOL0     C38167   8.271   8.928   1.859  0.0730 -0.3430  0.2523
  290MOL0     C38168   8.401   8.947   1.777 -0.2214  0.0658 -0.4220
  290MOL0     C38169   8.509   9.032   1.849 -1.1348 -0.5698  0.1629
  290MOL0     C38170   8.486   9.181   1.842 -0.4770  0.4217 -0.2289
  290MOL0     C38171   8.588   9.254   1.919  0.0488 -0.3305 -0.0373
  290MOL0     O38172   8.553   9.246   2.054  0.0046 -0.1533 -0.5781
  290MOL0     C38173   8.645   9.240   2.150  0.5794 -0.5804  0.0136
  290MOL0     C38174   8.618   9.173   2.266  0.3066  0.7051  0.4341
  290MOL0     C38175   8.706   9.159   2.378 -0.6397  0.2544  1.1957
  290MOL0     C38176   8.833   9.225   2.373 -0.6947 -0.6035 -0.1820
  290MOL0     C38177   8.924   9.221   2.492  0.2617 -0.0276 -0.8251
  290MOL0     O38178   8.877   9.137   2.591  0.1117 -0.6130  0.9668
  290MOL0     C38179   8.922   9.150   2.723  0.5641 -0.1610  0.0317
  290MOL0     C38180   8.894   9.040   2.805  1.1470  1.3664 -0.4619
  290MOL0     C38181   8.934   9.027   2.937  0.5080 -0.5104 -0.6431
  290MOL0     C38182   8.995   9.143   2.999  0.0417 -0.0921 -0.3159
  290MOL0     O38183   9.040   9.140   3.127  0.3862  0.2604 -0.2010
  290MOL0     C38184   9.014   9.031   3.215 -0.4073  0.5537 -0.0160
  290MOL0     C38185   9.086   9.040   3.348  0.0144 -0.5847  1.5510
  290MOL0     C38186   9.037   9.150   3.444  0.6600 -0.1071 -0.9316
  290MOL0     C38187   8.905   9.109   3.516 -0.7084  0.0504 -0.0592
  290MOL0     C38188   8.856   9.187   3.639  0.4664  0.1968 -0.1741
  290MOL0     C38189   8.739   9.104   3.694 -0.5339  0.2727 -0.4153
  290MOL0     C38190   8.777   8.951   3.728  0.1289 -1.6866  0.0736
  290MOL0     C38191   8.701   8.883   3.827  0.0848  0.2396 -0.5678
  290MOL0    Cl38192   8.543   8.835   3.773 -0.3066 -0.3605 -0.3259
  290MOL0     C38193   9.005   9.260   2.929 -0.2675  0.1860  1.2920
  290MOL0     C38194   8.973   9.266   2.790  0.3767 -0.9776  0.3617
  290MOL0     O38195   9.019   9.292   2.499 -0.2486 -0.2658 -0.5422
  290MOL0     C38196   8.861   9.302   2.256 -0.1101 -0.2628  0.0492
  290MOL0     C38197   8.771   9.304   2.145 -0.1540  0.0442 -0.6929
  290MOL0     N38198   8.231   8.802   1.899  0.2474  0.1482 -0.4796
  290MOL0     N38199   8.117   8.822   1.959 -0.2761  0.2750  0.7401
  290MOL0     C38200   8.046   9.467   1.251 -0.3865 -0.5026 -0.0324
  290MOL0     C38201   8.163   9.499   1.180  0.6123  0.0685  0.1635
  290MOL0     C38202   8.562   9.438   0.976  0.6402  0.9427 -0.0429
  290MOL0     C38203   8.680   9.357   0.973 -0.7184 -0.7592 -0.5467
  290MOL0     C38204   8.794   9.415   0.906  0.2817 -0.1960 -0.2085
  290MOL0     C38205   8.790   9.542   0.851 -0.0956  0.3005  0.5208
  290MOL0     O38206   8.905   9.595   0.792 -0.4580  0.5795  0.1607
  290MOL0     C38207   8.947   9.733   0.807  0.3303  0.3426  0.7578
  290MOL0     C38208   8.967   9.781   0.950  0.2100  0.3862  0.1156
  290MOL0     C38209   8.983   9.937   0.962 -0.9851  0.7330 -0.4411
  290MOL0     C38210   8.900  10.017   1.053  0.0991  0.7871 -1.0048
  290MOL0     C38211   8.759  10.017   1.001  0.0409 -0.6048  0.2079
  290MOL0     C38212   8.646   9.987   0.962 -0.3321 -0.1561  0.0772
  290MOL0     C38213   8.670   9.614   0.848  0.6400 -0.4039  0.3537
  290MOL0     C38214   8.561   9.567   0.918  0.7718  1.7794 -0.2393
  290MOL0     H38215   8.179   9.221   0.991  0.2641  0.3510  0.5070
  290MOL0     H38216   7.986   9.166   1.112  0.1101 -1.7732  3.7717
  290MOL0     H38217   7.879   9.125   1.336  0.7743  1.2332 -2.0968
  290MOL0     H38218   7.750   9.164   1.223 -1.7053  1.3304 -1.7776
  290MOL0     H38219   7.638   9.125   1.438 -1.0691 -0.0408 -3.3233
  290MOL0     H38220   7.632   9.294   1.413 -2.1138 -2.0480  0.0177
  290MOL0     H38221   7.800   9.339   1.579  0.2971 -0.0656 -0.7157
  290MOL0     H38222   7.869   9.176   1.563 -0.3947 -0.8308 -0.6777
  290MOL0     H38223   7.593   9.228   1.663  0.3678 -0.5144  0.7022
  290MOL0     H38224   7.684   9.077   1.702 -1.5602 -1.4427 -2.4342
  290MOL0     H38225   7.655   9.259   1.888 -2.2078 -4.2470 -2.4579
  290MOL0     H38226   7.755   9.369   1.785  2.0368  0.1779 -1.9710
  290MOL0     H38227   7.916   9.278   1.961  2.6737  1.7993 -2.4777
  290MOL0     H38228   7.937   9.230   1.793 -1.8917  0.0569 -1.1462
  290MOL0     H38229   7.776   9.044   1.961  0.7487 -0.7709  1.1945
  290MOL0     H38230   7.880   9.005   1.829 -0.4694  0.4683  0.2785
  290MOL0     H38231   7.933   8.973   2.090 -1.0016  2.7887  1.8330
  290MOL0     H38232   8.023   9.116   2.062  0.0435 -0.7562  0.2810
  290MOL0     H38233   8.191   9.124   1.857 -0.8600 -0.4027 -0.7894
  290MOL0     H38234   8.388   8.991   1.678 -0.0679  2.3827  0.5255
  290MOL0     H38235   8.437   8.846   1.753  2.6544  0.4119  1.8567
  290MOL0     H38236   8.604   9.008   1.799 -1.8945 -0.4132 -1.4166
  290MOL0     H38237   8.516   8.995   1.952 -1.4561 -2.1488 -0.3489
  290MOL0     H38238   8.489   9.216   1.739 -1.2423  1.0333 -0.0578
  290MOL0     H38239   8.387   9.199   1.886 -0.5248 -1.5350  0.5893
  290MOL0     H38240   8.596   9.358   1.884  0.9158 -1.4058 -3.4237
  290MOL0     H38241   8.682   9.203   1.897 -0.2006 -1.7979  2.0853
  290MOL0     H38242   8.533   9.105   2.278  1.6141 -1.0149  0.3986
  290MOL0     H38243   8.685   9.098   2.465  3.5552 -4.7642 -0.7681
  290MOL0     H38244   8.842   8.957   2.760 -1.4108  2.6735 -0.0904
  290MOL0     H38245   8.913   8.935   2.991 -0.0731  0.1741  0.3323
  290MOL0     H38246   9.064   8.945   3.167 -0.4053  1.1376 -1.1043
  290MOL0     H38247   8.908   9.005   3.214 -0.7443  1.6882  2.2449
  290MOL0     H38248   9.189   9.060   3.317 -0.5924 -1.0726 -1.0481
  290MOL0     H38249   9.079   8.942   3.395 -0.9889 -0.5659  1.4615
  290MOL0     H38250   9.018   9.248   3.400 -1.2298 -0.3171 -0.6879
  290MOL0     H38251   9.103   9.154   3.531  0.4397 -0.9358 -0.7214
  290MOL0     H38252   8.823   9.105   3.443  0.8046 -1.0376 -1.8051
  290MOL0     H38253   8.930   9.006   3.543  0.3214  0.0686 -0.8500
  290MOL0     H38254   8.829   9.292   3.624  0.6387  0.2786  0.0788
  290MOL0     H38255   8.927   9.188   3.722 -2.0552  0.5899  2.1084
  290MOL0     H38256   8.656   9.099   3.623 -0.1852 -1.9286 -0.7114
  290MOL0     H38257   8.696   9.145   3.786  0.2812 -2.6332  1.4076
  290MOL0     H38258   8.788   8.888   3.639 -2.4259 -0.4215 -1.2656
  290MOL0     H38259   8.877   8.963   3.770  0.4866  2.5654 -1.4131
  290MOL0     H38260   8.693   8.946   3.916  4.2603  0.0493  0.1307
  290MOL0     H38261   8.765   8.800   3.857 -0.2560  0.4500  0.7705
  290MOL0     H38262   9.043   9.347   2.982  3.0379 -0.1447 -0.2759
  290MOL0     H38263   8.989   9.359   2.736 -1.6575 -1.0160 -0.3994
  290MOL0     H38264   8.963   9.340   2.253 -0.8543  1.8476 -0.3759
  290MOL0     H38265   8.796   9.346   2.048  0.4310 -1.3800 -1.1985
  290MOL0     H38266   8.009   9.530   1.332  1.2210  0.7705 -0.2247
  290MOL0     H38267   8.215   9.594   1.191  1.2261 -0.2815  0.3408
  290MOL0     H38268   8.689   9.258   1.016  0.9450 -0.0900  0.7415
  290MOL0     H38269   8.885   9.358   0.891  0.4305  0.1305 -0.5906
  290MOL0     H38270   8.868   9.793   0.762  0.6892 -0.4972 -1.0604
  290MOL0     H38271   9.047   9.745   0.763  0.9680 -0.2158  2.0000
  290MOL0     H38272   8.875   9.750   0.999 -1.1881 -0.2376 -2.6682
  290MOL0     H38273   9.051   9.724   0.992 -0.6186 -1.3088 -0.4157
  290MOL0     H38274   8.984   9.977   0.860  2.3569  2.0987  0.0015
  290MOL0     H38275   9.085   9.947   0.999 -1.1811  0.6553  0.1354
  290MOL0     H38276   8.922   9.978   1.153  0.7891  2.4655 -0.4607
  290MOL0     H38277   8.942  10.118   1.046  3.4620 -0.3297  0.7868
  290MOL0     H38278   8.558   9.960   0.907 -0.8602  2.4034 -0.4363
  290MOL0     H38279   8.666   9.708   0.795 -1.0611 -1.0614 -0.7705
  290MOL0     H38280   8.468   9.623   0.923  1.4562  2.8342  1.2468
  291MOL0     O38281  10.317   1.868   7.440 -0.3150  0.3380  0.1430
  291MOL0     C38282  10.380   1.961   7.393 -0.1080  0.0861 -0.3895
  291MOL0     O38283  10.462   1.958   7.289 -1.3712  0.3174  0.0877
  291MOL0     C38284  10.486   1.844   7.216 -0.5688 -0.8454  1.5659
  291MOL0     C38285  10.401   1.748   7.175 -0.0844 -1.5193  0.8809
  291MOL0     C38286  10.439   1.638   7.105 -0.0740 -0.4335 -0.4360
  291MOL0     C38287  10.574   1.629   7.062  0.5168 -0.7725 -0.0884
  291MOL0     O38288  10.613   1.516   7.000 -0.1627 -0.3505 -0.3177
  291MOL0     C38289  10.705   1.535   6.893 -1.0480 -0.2241 -0.5120
  291MOL0     C38290  10.740   1.397   6.832  0.1999 -0.0938  0.8529
  291MOL0     C38291  10.859   1.408   6.743 -0.8629 -0.9671 -0.1037
  291MOL0     C38292  10.848   1.499   6.616  0.1212 -0.3316 -0.1207
  291MOL0     C38293  10.996   1.523   6.575 -0.2465 -0.1587  0.1704
  291MOL0     C38294  11.006   1.606   6.450 -0.5100  0.3164  0.2616
  291MOL0     C38295  11.151   1.603   6.407  0.4153  0.0761 -0.4186
  291MOL0     C38296  11.180   1.679   6.277  0.7542 -0.9967  0.2152
  291MOL0     N38297  11.090   1.644   6.167 -0.4764 -0.2691 -0.0254
  291MOL0     C38298  11.097   1.516   6.108  1.1266 -0.3392  1.5518
  291MOL0     C38299  10.988   1.520   6.017 -0.0573 -0.2626 -0.0871
  291MOL0     C38300  10.960   1.396   5.932 -0.0293 -0.5181 -0.3620
  291MOL0     C38301  11.077   1.370   5.833 -0.2918 -0.0616 -0.0471
  291MOL0     C38302  11.086   1.238   5.758  0.0134  0.5509  0.5607
  291MOL0     C38303  10.949   1.191   5.707  0.5719  0.8885 -0.1460
  291MOL0     O38304  10.971   1.058   5.662  0.9071 -0.4762 -0.4674
  291MOL0     C38305  10.894   1.011   5.561 -0.3365 -0.2339 -0.5577
  291MOL0     C38306  10.948   0.916   5.483 -0.2910  0.4231 -0.0717
  291MOL0     C38307  10.882   0.842   5.382 -0.2878 -1.5071  0.4631
  291MOL0     C38308  10.748   0.878   5.354 -0.1557  0.0333  0.5322
  291MOL0     C38309  10.667   0.800   5.254  0.1369  0.3974  0.9100
  291MOL0     O38310  10.555   0.866   5.203  0.5923 -0.2983  0.1334
  291MOL0     C38311  10.502   0.820   5.092  0.5506 -0.0762  0.5763
  291MOL0     C38312  10.513   0.902   4.980  0.2226 -0.3493  0.8353
  291MOL0     C38313  10.467   0.857   4.850 -0.2728 -0.0629 -0.7760
  291MOL0     C38314  10.384   0.747   4.842 -0.3574  0.7116  0.0035
  291MOL0     O38315  10.316   0.709   4.734  0.2329  0.5121  0.1290
  291MOL0     C38316  10.171   0.688   4.750  0.3909 -0.3572  0.0426
  291MOL0     C38317  10.131   0.580   4.651 -0.3727  0.4906  0.3708
  291MOL0     C38318   9.985   0.537   4.665 -0.1144 -0.6971  0.4760
  291MOL0     C38319   9.949   0.425   4.560 -0.3103 -0.6354  0.0040
  291MOL0     C38320   9.827   0.357   4.612  0.1428 -0.0511 -0.0121
  291MOL0     C38321   9.699   0.435   4.636 -1.1202 -0.3909 -0.6265
  291MOL0     C38322   9.608   0.378   4.754 -0.0111 -0.2523 -0.6181
  291MOL0     C38323   9.555   0.245   4.723  0.6186  0.0327  0.0329
  291MOL0    Cl38324   9.468   0.179   4.868 -0.3688 -0.4705  0.0543
  291MOL0     C38325  10.379   0.665   4.949 -0.0226  0.5087 -0.0195
  291MOL0     C38326  10.441   0.692   5.071 -0.5377 -0.2645 -0.1342
  291MOL0     O38327  10.710   0.695   5.212 -0.1639 -0.2875  0.2313
  291MOL0     C38328  10.688   0.983   5.426  0.4373 -0.7297 -0.1328
  291MOL0     C38329  10.768   1.048   5.524  0.2506  0.0467 -0.1819
  291MOL0     N38330  10.926   1.648   6.029 -0.3409 -0.3303  1.0773
  291MOL0     N38331  10.991   1.722   6.117 -0.1266  1.3319  0.6952
  291MOL0     C38332  10.670   1.729   7.101  0.1904 -0.2921  0.0221
  291MOL0     C38333  10.623   1.832   7.186 -0.5350  0.0816  0.2280
  291MOL0     C38334  10.354   2.097   7.444  0.3373 -0.9391  0.9667
  291MOL0     C38335  10.261   2.128   7.542 -0.8937  0.5112  0.4277
  291MOL0     C38336  10.237   2.265   7.573  0.1032  0.7505  0.2154
  291MOL0     C38337  10.295   2.375   7.501 -0.6169 -0.4395 -0.3594
  291MOL0     O38338  10.272   2.513   7.524  0.6579 -0.0499  0.1637
  291MOL0     C38339  10.133   2.548   7.552  0.3714 -0.5136  0.3954
  291MOL0     C38340  10.109   2.674   7.628 -0.4600 -0.7738  0.4825
  291MOL0     C38341  10.147   2.801   7.546 -0.8596 -0.4306 -0.2970
  291MOL0     C38342  10.300   2.836   7.548 -0.5896  0.9882  0.2532
  291MOL0     C38343  10.360   2.885   7.673  0.5755  0.4801  0.0863
  291MOL0     C38344  10.392   2.925   7.783  0.2440  0.5241  0.2129
  291MOL0     C38345  10.387   2.333   7.406  0.6032  0.3083  0.1177
  291MOL0     C38346  10.414   2.199   7.364  0.2146 -0.4092 -1.0972
  291MOL0     H38347  10.296   1.756   7.203  0.7755  0.1066  4.1195
  291MOL0     H38348  10.363   1.565   7.080 -2.2305  1.9148 -1.2119
  291MOL0     H38349  10.795   1.579   6.937 -1.3840 -0.9070  0.9563
  291MOL0     H38350  10.661   1.605   6.822 -2.5461 -1.5650 -0.9715
  291MOL0     H38351  10.653   1.358   6.780 -1.1370  1.2486  2.0037
  291MOL0     H38352  10.754   1.322   6.911 -4.0554  0.3617  2.3127
  291MOL0     H38353  10.867   1.303   6.716 -1.4886 -1.5243  1.7491
  291MOL0     H38354  10.943   1.433   6.808 -2.2146  0.4507  1.1721
  291MOL0     H38355  10.780   1.448   6.547  0.2308  0.2814 -0.6938
  291MOL0     H38356  10.799   1.596   6.627 -0.0297 -0.4846  0.6265
  291MOL0     H38357  11.037   1.421   6.573  2.4729  0.8550 -0.2464
  291MOL0     H38358  11.049   1.564   6.661  0.1939  2.0474 -1.0735
  291MOL0     H38359  10.968   1.708   6.463  0.7103  0.5851  2.1101
  291MOL0     H38360  10.948   1.565   6.367 -0.2372  0.6791 -0.1099
  291MOL0     H38361  11.213   1.641   6.489 -2.6927  0.0665  2.1178
  291MOL0     H38362  11.180   1.499   6.390  0.7198 -0.1426  1.2699
  291MOL0     H38363  11.284   1.670   6.242  1.9321 -0.0689  3.1482
  291MOL0     H38364  11.155   1.782   6.303 -0.2146 -1.1364 -0.1485
  291MOL0     H38365  11.153   1.426   6.132 -0.3372 -1.4531  0.9731
  291MOL0     H38366  10.863   1.406   5.884 -1.0493 -2.2945  1.1818
  291MOL0     H38367  10.942   1.310   5.997  0.9443  0.8371  1.8181
  291MOL0     H38368  11.173   1.384   5.884 -0.5758 -0.9069  0.7426
  291MOL0     H38369  11.070   1.446   5.754 -1.0062  0.1747  0.2387
  291MOL0     H38370  11.154   1.248   5.673 -1.4285 -0.6704 -0.7685
  291MOL0     H38371  11.135   1.165   5.823  0.3656  0.3530  0.0775
  291MOL0     H38372  10.907   1.251   5.626 -1.6324  1.1466  1.1134
  291MOL0     H38373  10.874   1.186   5.786  1.9351  0.1585  1.1618
  291MOL0     H38374  11.048   0.883   5.510 -1.3380 -0.3286  3.2781
  291MOL0     H38375  10.924   0.757   5.329  1.1811 -0.0201 -0.8741
  291MOL0     H38376  10.574   0.991   4.991 -1.4359  0.8517  0.7101
  291MOL0     H38377  10.495   0.918   4.764 -0.4213  1.7066  0.4006
  291MOL0     H38378  10.121   0.784   4.729  1.2491  0.9193  3.2665
  291MOL0     H38379  10.132   0.651   4.846 -2.3907 -0.4391 -1.0276
  291MOL0     H38380  10.187   0.489   4.678 -0.0670  0.0079 -1.7523
  291MOL0     H38381  10.158   0.607   4.549  3.2937 -1.0258  0.7700
  291MOL0     H38382   9.934   0.632   4.646 -0.6199 -1.2703 -1.1582
  291MOL0     H38383   9.950   0.513   4.766 -1.8471  1.1431  0.3845
  291MOL0     H38384   9.938   0.471   4.461  3.2050  2.3354  0.7963
  291MOL0     H38385  10.031   0.352   4.563 -0.1078 -0.4170  3.2122
  291MOL0     H38386   9.851   0.302   4.703  0.6627 -1.3487 -0.9034
  291MOL0     H38387   9.801   0.279   4.539 -1.5765  0.4783 -0.0194
  291MOL0     H38388   9.642   0.449   4.543 -0.9150 -1.8348 -1.0061
  291MOL0     H38389   9.720   0.540   4.656  0.8987 -0.1222 -3.5652
  291MOL0     H38390   9.657   0.385   4.852  1.1294  0.2972 -1.2066
  291MOL0     H38391   9.535   0.459   4.761  0.3874  0.1481 -1.0727
  291MOL0     H38392   9.633   0.174   4.695  0.2116  0.0378 -1.2046
  291MOL0     H38393   9.493   0.245   4.632 -1.8738 -1.9936  1.5757
  291MOL0     H38394  10.330   0.569   4.938  3.9362 -1.9073  1.1176
  291MOL0     H38395  10.435   0.623   5.154 -1.8680  0.5729  0.5049
  291MOL0     H38396  10.583   1.008   5.412  0.0677 -0.1701  3.0062
  291MOL0     H38397  10.706   1.119   5.579  0.4812  0.8536 -0.9318
  291MOL0     H38398  10.776   1.733   7.079  0.7330 -2.5621  1.8362
  291MOL0     H38399  10.699   1.907   7.207  0.2145 -0.7614  0.5814
  291MOL0     H38400  10.216   2.047   7.599  0.6214  1.1872  2.7015
  291MOL0     H38401  10.155   2.274   7.644  0.5951 -1.3244  1.1309
  291MOL0     H38402  10.087   2.473   7.617 -1.5365  1.6157  1.6728
  291MOL0     H38403  10.080   2.545   7.457  2.0687 -0.1316 -0.5914
  291MOL0     H38404  10.001   2.683   7.647 -1.0534 -3.6778 -0.9565
  291MOL0     H38405  10.155   2.671   7.727  0.0664 -2.7334  0.2123
  291MOL0     H38406  10.102   2.896   7.576  3.2100  2.2054 -1.6906
  291MOL0     H38407  10.112   2.779   7.444 -0.7141  0.3983 -0.5309
  291MOL0     H38408  10.362   2.749   7.526 -2.1573 -0.5450  1.6900
  291MOL0     H38409  10.338   2.906   7.472  0.7103 -1.2234 -1.2629
  291MOL0     H38410  10.425   2.968   7.876  2.1622  0.0327 -0.1978
  291MOL0     H38411  10.442   2.414   7.359  0.7409 -0.7749 -1.6853
  291MOL0     H38412  10.479   2.189   7.278  0.7077 -1.1157 -0.6492
  292MOL0     O38413   4.984   2.784  10.109  0.4255  0.4478 -0.1583
  292MOL0     C38414   4.970   2.889  10.175  0.3266  0.3838 -0.2803
  292MOL0     O38415   4.863   2.976  10.169 -0.5048 -0.3569  0.3040
  292MOL0     C38416   4.754   2.945  10.089 -0.4506 -0.1507  0.5174
  292MOL0     C38417   4.691   3.052  10.036 -0.8230 -0.3561  0.3592
  292MOL0     C38418   4.586   3.047   9.940 -0.0636  0.3294 -0.2349
  292MOL0     C38419   4.540   2.915   9.903 -0.7720 -0.2810  0.1315
  292MOL0     O38420   4.439   2.923   9.816 -0.3781  0.5747  0.1247
  292MOL0     C38421   4.379   2.794   9.760  0.4191 -1.3396 -0.3099
  292MOL0     C38422   4.233   2.816   9.756 -0.0419  0.2881  0.8782
  292MOL0     C38423   4.188   2.935   9.671 -0.3995 -0.5068  0.9366
  292MOL0     C38424   4.039   2.959   9.676  0.2094 -0.1907 -0.1305
  292MOL0     C38425   3.998   3.063   9.572 -0.2253 -0.4350 -0.6532
  292MOL0     C38426   3.845   3.100   9.579 -0.2025 -0.4858 -0.0748
  292MOL0     C38427   3.755   2.998   9.507  0.3602  0.3028  0.3764
  292MOL0     C38428   3.608   3.050   9.504  0.8686 -0.4980  0.4776
  292MOL0     N38429   3.528   2.994   9.392  0.5037  0.6821 -0.0733
  292MOL0     C38430   3.407   2.924   9.405  0.8241 -0.4233 -0.2053
  292MOL0     C38431   3.360   2.902   9.280  0.2749 -0.5390  0.2619
  292MOL0     C38432   3.216   2.846   9.244 -0.4196 -0.1629  0.4571
  292MOL0     C38433   3.177   2.725   9.342  0.4830 -0.6282 -0.8773
  292MOL0     C38434   3.293   2.625   9.358  1.1996 -0.3659  0.4731
  292MOL0     C38435   3.331   2.574   9.216 -0.2349  0.5689  0.0077
  292MOL0     O38436   3.422   2.458   9.242  0.3919 -0.8071 -0.7887
  292MOL0     C38437   3.551   2.481   9.279  0.4128 -0.1957 -0.0947
  292MOL0     C38438   3.615   2.362   9.331  0.1361  0.3141  0.5902
  292MOL0     C38439   3.752   2.357   9.356 -0.2818  0.2930  0.2692
  292MOL0     C38440   3.835   2.466   9.335  0.3413  0.4942  0.2872
  292MOL0     C38441   3.978   2.455   9.356  0.3828 -0.6194  0.4417
  292MOL0     O38442   4.050   2.564   9.300 -0.3589  0.1238 -0.1323
  292MOL0     C38443   4.185   2.552   9.308  0.6218 -0.0665 -0.0732
  292MOL0     C38444   4.252   2.461   9.230 -0.9509  0.0369 -0.3369
  292MOL0     C38445   4.394   2.461   9.230 -0.6906  0.1732 -0.4719
  292MOL0     C38446   4.470   2.551   9.303 -0.0951 -0.5185 -0.1481
  292MOL0     O38447   4.604   2.555   9.271  0.9016  0.7084 -0.5289
  292MOL0     C38448   4.694   2.644   9.345  0.3234  0.5896 -0.0056
  292MOL0     C38449   4.834   2.636   9.268 -0.3408  0.0047 -0.0447
  292MOL0     C38450   4.938   2.741   9.301 -0.3397  0.2306 -0.1944
  292MOL0     C38451   5.091   2.703   9.294  0.2660  1.2005  0.5130
  292MOL0     C38452   5.181   2.799   9.362  0.5880  0.2069 -1.1700
  292MOL0     C38453   5.329   2.767   9.355 -1.0317 -0.8032  0.6733
  292MOL0     C38454   5.403   2.891   9.402 -0.0892  0.0319 -0.1876
  292MOL0     C38455   5.557   2.868   9.399 -0.0159  0.5402 -1.3649
  292MOL0    Cl38456   5.637   3.028   9.418  0.3601 -0.0115 -0.1003
  292MOL0     C38457   4.413   2.636   9.387 -0.0292 -0.9248  0.0752
  292MOL0     C38458   4.268   2.642   9.378 -0.7515  0.0783 -0.2674
  292MOL0     O38459   4.024   2.360   9.418 -0.6096 -0.4126  0.1878
  292MOL0     C38460   3.770   2.588   9.299  0.1052  0.8175  0.2422
  292MOL0     C38461   3.630   2.599   9.272 -0.4623 -0.1289 -0.0408
  292MOL0     N38462   3.457   2.950   9.195  0.4230 -0.1457 -0.1431
  292MOL0     N38463   3.558   2.989   9.257  0.7831  0.0608  0.3183
  292MOL0     C38464   4.597   2.803   9.962  0.0849  0.4416  1.0948
  292MOL0     C38465   4.707   2.821  10.050 -0.0535 -0.2420  0.3229
  292MOL0     C38466   5.080   2.921  10.271  0.3355 -0.2263 -0.2255
  292MOL0     C38467   5.070   3.037  10.357 -0.8375  0.5580  0.8027
  292MOL0     C38468   5.174   3.074  10.447 -0.1145 -0.7780 -1.0121
  292MOL0     C38469   5.282   2.989  10.463 -0.2103  0.3403  0.0731
  292MOL0     O38470   5.394   3.034  10.517  0.4590  0.1792 -0.3243
  292MOL0     C38471   5.386   3.089  10.648  0.3736  0.3264  0.2589
  292MOL0     C38472   5.497   3.042  10.740 -0.0159  0.1359 -0.0975
  292MOL0     C38473   5.519   2.888  10.735  0.3013  0.1268 -0.0149
  292MOL0     C38474   5.645   2.843  10.812  0.3813 -0.0555 -0.3405
  292MOL0     C38475   5.647   2.693  10.791  0.5774 -0.5240 -0.3954
  292MOL0     C38476   5.662   2.578  10.754  0.3729 -0.3599  0.5877
  292MOL0     C38477   5.289   2.879  10.375  0.7797  0.5082 -0.1922
  292MOL0     C38478   5.198   2.848  10.272 -0.0930 -0.1999 -0.5003
  292MOL0     H38479   4.743   3.145  10.055  0.8992 -0.8648 -1.5934
  292MOL0     H38480   4.549   3.138   9.892  2.1110  1.3016 -0.1701
  292MOL0     H38481   4.400   2.709   9.825  1.1027 -1.3367 -0.5153
  292MOL0     H38482   4.420   2.782   9.659 -3.6804 -1.1522 -2.2098
  292MOL0     H38483   4.203   2.837   9.859  0.5999  1.7036  0.8073
  292MOL0     H38484   4.181   2.726   9.724 -1.2848  0.7891  1.4185
  292MOL0     H38485   4.220   2.912   9.569  0.7510  2.4463  0.5205
  292MOL0     H38486   4.235   3.030   9.700  0.4918 -0.0798 -1.6592
  292MOL0     H38487   3.978   2.869   9.684  1.6288 -1.0178  3.7238
  292MOL0     H38488   4.021   3.006   9.774 -2.5756  0.4962 -0.8605
  292MOL0     H38489   4.010   3.021   9.471  1.8682  0.3424 -0.7583
  292MOL0     H38490   4.055   3.155   9.583  0.3409 -0.8643  0.0535
  292MOL0     H38491   3.821   3.197   9.534 -2.4671 -1.2144 -0.5655
  292MOL0     H38492   3.812   3.102   9.683 -1.4770  0.0768 -0.4653
  292MOL0     H38493   3.800   3.005   9.408  2.9779  0.1255  1.4756
  292MOL0     H38494   3.769   2.897   9.547 -0.1802  0.3010  0.5601
  292MOL0     H38495   3.589   3.157   9.496 -3.1261 -0.9206  1.7893
  292MOL0     H38496   3.544   3.016   9.586 -2.1734  2.6826 -0.3522
  292MOL0     H38497   3.355   2.914   9.500  1.3697 -1.1990  0.0218
  292MOL0     H38498   3.218   2.819   9.139 -1.8567 -2.5247  0.9809
  292MOL0     H38499   3.137   2.921   9.253  0.3688  0.8417 -0.6373
  292MOL0     H38500   3.086   2.681   9.300 -1.2803  0.7734  1.2439
  292MOL0     H38501   3.147   2.760   9.441  0.3059 -0.4800 -0.9838
  292MOL0     H38502   3.380   2.654   9.417  2.6331 -3.6803  0.1822
  292MOL0     H38503   3.265   2.539   9.419 -0.9108  0.7342  1.1630
  292MOL0     H38504   3.386   2.649   9.159  1.2695  0.2913  1.0093
  292MOL0     H38505   3.246   2.539   9.157  0.9415 -1.9494 -0.3318
  292MOL0     H38506   3.561   2.271   9.354 -0.0640  1.1038  3.5972
  292MOL0     H38507   3.791   2.265   9.399  0.7473  0.4969 -0.2125
  292MOL0     H38508   4.189   2.391   9.176 -1.5603  0.8770 -0.7313
  292MOL0     H38509   4.448   2.387   9.171 -0.5678 -0.1726  0.0707
  292MOL0     H38510   4.703   2.608   9.448  0.8587  0.3870 -0.1181
  292MOL0     H38511   4.674   2.751   9.345  3.1634  1.2480 -2.1839
  292MOL0     H38512   4.814   2.658   9.163 -0.1385  1.1129  0.1336
  292MOL0     H38513   4.867   2.532   9.279 -2.5009 -0.5829  1.4975
  292MOL0     H38514   4.917   2.767   9.405  1.4317  3.5584 -0.5495
  292MOL0     H38515   4.918   2.825   9.234 -0.4083 -0.8320 -1.5576
  292MOL0     H38516   5.101   2.604   9.339 -1.5890  1.4107  1.4875
  292MOL0     H38517   5.124   2.699   9.190  2.2206  0.5548  1.1070
  292MOL0     H38518   5.155   2.798   9.468 -1.4001  3.4993 -1.4930
  292MOL0     H38519   5.166   2.898   9.318 -0.2637  0.2150 -0.8781
  292MOL0     H38520   5.356   2.745   9.252  2.4656 -3.0297  1.8888
  292MOL0     H38521   5.360   2.686   9.421  0.7294 -1.7917 -1.2486
  292MOL0     H38522   5.378   2.978   9.342 -0.1286 -1.0462 -1.8189
  292MOL0     H38523   5.374   2.905   9.506  0.3583 -2.8966  0.4313
  292MOL0     H38524   5.585   2.822   9.304 -1.4238 -1.9077 -0.6773
  292MOL0     H38525   5.581   2.802   9.483 -0.1122 -0.7139 -2.2970
  292MOL0     H38526   4.467   2.711   9.443  0.8176 -2.1465  0.9705
  292MOL0     H38527   4.214   2.721   9.431 -1.2641 -0.0277 -0.6214
  292MOL0     H38528   3.832   2.677   9.290  1.7976 -0.1270  1.8111
  292MOL0     H38529   3.594   2.696   9.238  0.9353  0.2244 -0.5751
  292MOL0     H38530   4.579   2.697   9.945 -0.7551  0.5208  1.4168
  292MOL0     H38531   4.746   2.724  10.078  2.6732  0.1838 -1.5734
  292MOL0     H38532   4.984   3.104  10.351 -2.9601 -2.1163 -1.3561
  292MOL0     H38533   5.165   3.165  10.505  0.7831 -2.2216  1.5625
  292MOL0     H38534   5.293   3.052  10.691 -0.4741  2.9891  0.8773
  292MOL0     H38535   5.377   3.198  10.646 -0.1113  0.4328  3.5801
  292MOL0     H38536   5.586   3.096  10.707  0.0954 -0.0269 -0.0694
  292MOL0     H38537   5.471   3.075  10.842 -1.3920 -1.4515  0.1099
  292MOL0     H38538   5.533   2.861  10.630 -0.5899  1.3458 -0.4672
  292MOL0     H38539   5.432   2.828  10.765  1.2400 -1.4415 -0.2944
  292MOL0     H38540   5.734   2.892  10.772  0.7907  3.0506  3.7072
  292MOL0     H38541   5.630   2.863  10.919 -1.4396 -0.3420 -0.5155
  292MOL0     H38542   5.667   2.473  10.733  0.1481 -0.7042  2.1736
  292MOL0     H38543   5.376   2.815  10.370  2.1732  2.4050 -5.0554
  292MOL0     H38544   5.211   2.777  10.191  2.3345 -1.0243  0.5365
  293MOL0     O38545   3.705   6.147   9.178 -0.7204 -0.1480  0.2878
  293MOL0     C38546   3.756   6.173   9.068 -0.5304  0.0195 -0.2210
  293MOL0     O38547   3.694   6.162   8.953  0.0205  0.2379  0.3198
  293MOL0     C38548   3.566   6.110   8.956  0.0670  0.2624  0.3278
  293MOL0     C38549   3.459   6.187   8.909 -0.5121 -0.0291 -0.9981
  293MOL0     C38550   3.329   6.132   8.914  0.3977 -0.1328 -0.6359
  293MOL0     C38551   3.303   5.998   8.956 -0.3133  0.4669 -0.5533
  293MOL0     O38552   3.180   5.933   8.963  0.0986 -1.2237 -0.6257
  293MOL0     C38553   3.070   6.026   8.950 -0.6332  0.0740 -0.3886
  293MOL0     C38554   2.944   5.936   8.910  0.5219 -0.2475 -0.0058
  293MOL0     C38555   2.809   5.998   8.926 -0.0616 -0.4469 -0.0798
  293MOL0     C38556   2.704   5.909   8.868 -0.1302  0.1547 -0.2417
  293MOL0     C38557   2.564   5.961   8.901  0.3589  0.0957 -0.0149
  293MOL0     C38558   2.457   5.865   8.945  0.0963 -0.1716 -0.2097
  293MOL0     C38559   2.326   5.944   8.975  0.0665  0.4705  0.1136
  293MOL0     C38560   2.215   5.842   9.000  0.2633 -0.2379 -0.1821
  293MOL0     N38561   2.088   5.903   9.034  0.4098 -0.3630 -0.5269
  293MOL0     C38562   1.975   5.828   9.046  0.1081 -0.6969 -0.1482
  293MOL0     C38563   1.876   5.907   9.104 -1.0424 -0.5256  0.4866
  293MOL0     C38564   1.749   5.873   9.145  0.3901 -0.3671 -0.6060
  293MOL0     C38565   1.689   5.981   9.245  0.4210  0.5657  0.0362
  293MOL0     C38566   1.556   5.915   9.314 -0.8863  0.5993  0.8693
  293MOL0     C38567   1.589   5.783   9.390  1.0494  0.0007 -0.1215
  293MOL0     O38568   1.490   5.759   9.491 -0.8020 -0.5345 -0.1454
  293MOL0     C38569   1.380   5.682   9.459  0.3837  0.2065 -0.1984
  293MOL0     C38570   1.336   5.655   9.331 -0.2658 -0.1733  1.1118
  293MOL0     C38571   1.224   5.576   9.302 -0.6501  1.2246 -0.0664
  293MOL0     C38572   1.157   5.508   9.406  0.2205  0.5882  0.7979
  293MOL0     C38573   1.040   5.426   9.373 -0.0431 -0.0433 -0.6144
  293MOL0     O38574   0.986   5.444   9.242 -0.4552 -0.1153  0.3133
  293MOL0     C38575   0.862   5.395   9.224 -0.2771 -0.2091  0.5878
  293MOL0     C38576   0.839   5.304   9.122  0.7082  0.7069  0.5381
  293MOL0     C38577   0.712   5.255   9.093 -0.1250  0.5038 -0.1618
  293MOL0     C38578   0.607   5.294   9.174  0.1557 -0.4631  0.0661
  293MOL0     O38579   0.485   5.242   9.145 -0.3185  0.1653  0.8337
  293MOL0     C38580   0.418   5.180   9.253 -0.1742 -0.3436  0.2443
  293MOL0     C38581   0.303   5.268   9.308  0.0711 -0.6056  0.0924
  293MOL0     C38582   0.188   5.289   9.203  0.6951 -0.3671  0.6396
  293MOL0     C38583   0.078   5.175   9.209 -0.4679 -1.0615  0.3118
  293MOL0     C38584  -0.014   5.194   9.091  0.0335  0.4728  0.8682
  293MOL0     C38585  -0.129   5.095   9.103  0.7350  0.3911 -0.2939
  293MOL0     C38586  -0.262   5.170   9.142  0.3354 -0.1391  0.2597
  293MOL0     C38587  -0.251   5.239   9.281 -0.4946 -0.0636 -0.1644
  293MOL0    Cl38588  -0.420   5.275   9.311  0.4818  0.1441  0.3572
  293MOL0     C38589   0.625   5.389   9.279  0.3225  0.0757  0.3990
  293MOL0     C38590   0.753   5.436   9.304  0.2054  1.6788 -0.6941
  293MOL0     O38591   0.990   5.359   9.465 -0.6902  0.3855  0.2982
  293MOL0     C38592   1.197   5.532   9.533 -0.3562  0.2049 -0.5443
  293MOL0     C38593   1.305   5.617   9.562 -0.0787 -0.4941 -0.2119
  293MOL0     N38594   1.941   6.029   9.109  0.2876 -0.3310 -0.0528
  293MOL0     N38595   2.055   6.030   9.063  0.1239  0.2810  1.0006
  293MOL0     C38596   3.414   5.919   8.985  0.0944 -0.5671 -0.6395
  293MOL0     C38597   3.542   5.975   8.993  0.3608 -0.1595  0.4602
  293MOL0     C38598   3.895   6.227   9.059  0.3208  0.7845 -0.4656
  293MOL0     C38599   3.930   6.331   8.978 -0.5535 -0.7352 -0.0493
  293MOL0     C38600   4.054   6.386   8.979 -0.6780  0.0246 -0.2496
  293MOL0     C38601   4.161   6.334   9.056 -0.0543 -0.1121  0.3505
  293MOL0     O38602   4.287   6.382   9.060 -0.1332 -0.5599  0.3371
  293MOL0     C38603   4.324   6.490   8.969  0.7721  0.1956 -0.7940
  293MOL0     C38604   4.481   6.492   8.964 -0.4045  0.4898 -0.4361
  293MOL0     C38605   4.526   6.560   8.838  0.4527  0.0333 -0.1564
  293MOL0     C38606   4.670   6.557   8.819 -0.9579 -0.5472  0.2053
  293MOL0     C38607   4.753   6.637   8.915  0.9490 -0.5190  0.0580
  293MOL0     C38608   4.794   6.694   9.016 -0.1229 -0.0799  0.5540
  293MOL0     C38609   4.132   6.234   9.141 -0.3250  1.6059  0.1412
  293MOL0     C38610   3.997   6.182   9.144  0.0124 -0.1765  1.0211
  293MOL0     H38611   3.473   6.293   8.892 -2.1816  0.7723  1.9330
  293MOL0     H38612   3.251   6.195   8.871 -2.0201 -1.5891  1.2919
  293MOL0     H38613   3.084   6.089   8.861 -0.9508  0.9820  0.1832
  293MOL0     H38614   3.037   6.089   9.034 -4.8487 -0.5911 -1.3552
  293MOL0     H38615   2.947   5.843   8.968 -0.4298  0.3280  0.9759
  293MOL0     H38616   2.960   5.916   8.804 -1.1093 -2.0598  0.0300
  293MOL0     H38617   2.801   6.092   8.871  0.3613 -1.5733 -2.1539
  293MOL0     H38618   2.781   6.021   9.030 -0.5665  0.0819 -0.3301
  293MOL0     H38619   2.721   5.889   8.762  0.2660 -1.2557  0.0721
  293MOL0     H38620   2.712   5.820   8.932 -0.3463  1.3205  1.4893
  293MOL0     H38621   2.537   6.020   8.813 -1.9243  0.2655  0.7508
  293MOL0     H38622   2.583   6.029   8.985 -0.3624  0.9796 -0.5569
  293MOL0     H38623   2.493   5.811   9.033 -0.4761  0.5472  0.4776
  293MOL0     H38624   2.442   5.791   8.865  0.6316  0.5138 -0.9616
  293MOL0     H38625   2.360   6.003   9.060  1.3959 -0.6445  0.3742
  293MOL0     H38626   2.299   6.007   8.889 -3.3714 -2.0220 -0.8646
  293MOL0     H38627   2.249   5.772   9.077 -0.0195 -1.0101 -0.7347
  293MOL0     H38628   2.188   5.784   8.911  0.1457 -0.3586 -0.0705
  293MOL0     H38629   1.961   5.724   9.018  1.4559 -0.3254 -2.4887
  293MOL0     H38630   1.776   5.782   9.199 -0.1752 -0.2771 -0.1551
  293MOL0     H38631   1.682   5.841   9.065  0.4899 -1.5871 -0.2229
  293MOL0     H38632   1.659   6.066   9.183 -0.5412  0.6200  0.5553
  293MOL0     H38633   1.756   6.024   9.321 -0.9218  1.8596  0.5363
  293MOL0     H38634   1.500   5.972   9.389 -0.9053 -0.8253  1.9918
  293MOL0     H38635   1.488   5.895   9.230 -0.2298 -0.8275  0.6542
  293MOL0     H38636   1.684   5.802   9.441  1.8137 -2.9425 -0.2542
  293MOL0     H38637   1.601   5.689   9.335  0.5473 -2.2464  3.3155
  293MOL0     H38638   1.379   5.696   9.240 -0.2488 -3.7763 -0.6641
  293MOL0     H38639   1.198   5.569   9.196 -2.4251 -3.2907  0.4277
  293MOL0     H38640   0.923   5.263   9.068  1.4912  0.4222  1.9151
  293MOL0     H38641   0.699   5.185   9.011  0.3792  0.0311  0.1516
  293MOL0     H38642   0.487   5.163   9.336 -1.3576 -0.3383  1.2584
  293MOL0     H38643   0.373   5.083   9.227 -3.0232  1.3506 -1.7069
  293MOL0     H38644   0.335   5.367   9.342 -1.1991 -0.3298  0.5127
  293MOL0     H38645   0.267   5.216   9.397  1.8929 -0.9147  0.6998
  293MOL0     H38646   0.232   5.308   9.104  0.2989  0.6940  0.6623
  293MOL0     H38647   0.132   5.379   9.228  1.3832 -0.3344  2.1080
  293MOL0     H38648   0.125   5.076   9.204 -2.1452 -1.9155  0.6797
  293MOL0     H38649   0.029   5.181   9.307  0.7957 -1.4792  0.9842
  293MOL0     H38650   0.037   5.177   8.996 -2.0567  2.2250 -0.6691
  293MOL0     H38651  -0.056   5.294   9.074  0.4828  0.1056 -3.5992
  293MOL0     H38652  -0.123   5.014   9.176 -0.2091  0.9985  0.4874
  293MOL0     H38653  -0.152   5.055   9.004  2.3936  2.5265 -1.6402
  293MOL0     H38654  -0.294   5.239   9.064 -1.6459 -0.4658  0.7104
  293MOL0     H38655  -0.344   5.097   9.136 -2.9535  2.9952  2.7469
  293MOL0     H38656  -0.177   5.319   9.285  0.5378 -1.0296  2.3923
  293MOL0     H38657  -0.225   5.168   9.360  0.7885  0.9987  0.4055
  293MOL0     H38658   0.547   5.413   9.351  0.7842 -0.9595  1.2755
  293MOL0     H38659   0.782   5.515   9.373 -0.5395  1.4785 -0.1291
  293MOL0     H38660   1.141   5.489   9.616  1.7846 -3.2426 -0.6844
  293MOL0     H38661   1.335   5.641   9.663  2.0263  2.8184 -1.4707
  293MOL0     H38662   3.389   5.815   9.004  0.6494 -0.3351  1.8118
  293MOL0     H38663   3.625   5.910   9.018  0.8263 -1.5483 -3.7917
  293MOL0     H38664   3.861   6.378   8.910 -0.0057  1.4944  0.8526
  293MOL0     H38665   4.070   6.471   8.913  0.5466 -0.1630 -0.2181
  293MOL0     H38666   4.290   6.591   8.994  1.0090  0.1159 -0.1281
  293MOL0     H38667   4.285   6.464   8.870 -1.0565 -1.3473  0.2441
  293MOL0     H38668   4.515   6.533   9.059 -2.2087  1.5451 -0.1917
  293MOL0     H38669   4.502   6.385   8.969 -0.6850  0.4160 -0.7695
  293MOL0     H38670   4.494   6.664   8.834  2.2875  0.6250 -0.3997
  293MOL0     H38671   4.470   6.525   8.750  3.1414 -0.7652 -1.6865
  293MOL0     H38672   4.703   6.454   8.800  2.5388  0.7398 -1.7387
  293MOL0     H38673   4.682   6.598   8.718 -0.9946 -0.6872  0.1433
  293MOL0     H38674   4.824   6.740   9.108 -3.3883  2.3339  0.5817
  293MOL0     H38675   4.214   6.195   9.201 -0.5268 -0.7559 -0.9945
  293MOL0     H38676   3.979   6.112   9.225 -0.0967  1.5015  2.5040
  294MOL0     O38677   4.202   7.773   7.235 -0.6923  0.3989 -0.5430
  294MOL0     C38678   4.101   7.791   7.172  0.1909  0.4058  1.2152
  294MOL0     O38679   4.098   7.824   7.043  0.4883  0.6145 -0.1998
  294MOL0     C38680   4.201   7.802   6.950  0.7954 -0.7983 -0.1512
  294MOL0     C38681   4.317   7.725   6.975 -0.3716 -0.2136  0.1145
  294MOL0     C38682   4.421   7.719   6.877 -0.0366  0.5467 -0.8915
  294MOL0     C38683   4.409   7.792   6.760 -0.6790 -0.1729  0.0089
  294MOL0     O38684   4.510   7.774   6.664  0.4755 -1.0961  0.0128
  294MOL0     C38685   4.490   7.846   6.537 -0.3377 -0.5147  0.3354
  294MOL0     C38686   4.613   7.832   6.455 -0.5220  0.0383  0.0367
  294MOL0     C38687   4.724   7.907   6.523  0.3717  0.4384 -0.0612
  294MOL0     C38688   4.848   7.908   6.438 -0.2398 -0.2865  0.1001
  294MOL0     C38689   4.947   7.999   6.502 -0.5051  0.0799  1.1254
  294MOL0     C38690   5.003   7.947   6.640  0.2176 -0.6439 -0.0972
  294MOL0     C38691   5.085   8.052   6.720 -0.3999 -0.0434 -0.3086
  294MOL0     C38692   5.150   8.013   6.852 -0.1572 -0.7200 -0.1044
  294MOL0     N38693   5.174   8.120   6.945  0.5767 -0.2775  0.5650
  294MOL0     C38694   5.078   8.207   7.002  0.0723  0.5899 -0.1220
  294MOL0     C38695   5.145   8.293   7.077  0.2420 -0.5368 -0.0417
  294MOL0     C38696   5.085   8.423   7.143  0.2422 -0.0297 -0.0660
  294MOL0     C38697   5.094   8.538   7.041  0.0364  0.7012 -0.2687
  294MOL0     C38698   5.003   8.519   6.914 -0.1921  0.7838 -0.3008
  294MOL0     C38699   4.851   8.484   6.937 -0.9078  0.0614  0.2667
  294MOL0     O38700   4.808   8.386   6.847  0.3246 -0.2411  0.4546
  294MOL0     C38701   4.672   8.363   6.814 -0.0152 -0.5464  0.4279
  294MOL0     C38702   4.576   8.443   6.879  0.2590 -0.4298 -0.5283
  294MOL0     C38703   4.444   8.405   6.860 -0.5275 -0.6319  0.2598
  294MOL0     C38704   4.401   8.294   6.789 -0.5555  0.1983 -0.0311
  294MOL0     C38705   4.260   8.268   6.773 -0.2111 -0.6534  0.3912
  294MOL0     O38706   4.189   8.322   6.872  0.0830 -0.2185 -0.2928
  294MOL0     C38707   4.048   8.320   6.862 -0.3284  0.1634  0.5225
  294MOL0     C38708   3.979   8.441   6.864 -0.7037  0.3239 -0.1688
  294MOL0     C38709   3.846   8.443   6.859  1.2807  0.1783 -0.7008
  294MOL0     C38710   3.766   8.327   6.860  0.2774 -0.1590  0.3715
  294MOL0     O38711   3.627   8.333   6.856 -0.7062  0.0258 -0.3253
  294MOL0     C38712   3.560   8.456   6.826  0.2516 -0.4524 -0.3091
  294MOL0     C38713   3.412   8.446   6.843 -0.5821  0.5185 -0.4709
  294MOL0     C38714   3.386   8.446   6.992  0.1028  0.3339 -0.0701
  294MOL0     C38715   3.239   8.429   7.025  0.4238  0.7116 -0.0021
  294MOL0     C38716   3.208   8.468   7.171 -0.0658  0.8188  1.0539
  294MOL0     C38717   3.069   8.414   7.218 -0.7299 -0.7328 -0.3133
  294MOL0     C38718   2.950   8.458   7.130 -0.4518  0.7321  0.0307
  294MOL0     C38719   2.813   8.456   7.205  0.4941  0.1242 -0.2388
  294MOL0    Cl38720   2.771   8.297   7.281  0.3129  0.3334  0.2585
  294MOL0     C38721   3.836   8.203   6.869 -1.0454  0.0033  0.4460
  294MOL0     C38722   3.973   8.201   6.857 -0.0035 -0.2206  0.5199
  294MOL0     O38723   4.217   8.188   6.694 -0.2393  0.2465  0.3589
  294MOL0     C38724   4.497   8.225   6.716  0.0822  0.9643  0.3865
  294MOL0     C38725   4.627   8.261   6.729 -0.1670  0.8193  0.1112
  294MOL0     N38726   5.284   8.261   7.070 -0.3403  0.0388 -0.7276
  294MOL0     N38727   5.299   8.156   6.993 -0.2588 -0.6756  1.3760
  294MOL0     C38728   4.295   7.866   6.732 -0.3992  0.5722 -0.5736
  294MOL0     C38729   4.194   7.868   6.828 -0.3785 -0.2946 -0.6036
  294MOL0     C38730   3.967   7.793   7.251  0.4465  0.3082  0.0158
  294MOL0     C38731   3.973   7.801   7.389 -0.0246  0.2209 -0.8112
  294MOL0     C38732   3.855   7.819   7.464  0.3362  0.5713 -0.5655
  294MOL0     C38733   3.734   7.820   7.407  0.0428  0.0743  0.3125
  294MOL0     O38734   3.621   7.825   7.489 -0.4315 -0.2854  0.8418
  294MOL0     C38735   3.492   7.820   7.434 -0.7067  0.4309 -0.0432
  294MOL0     C38736   3.392   7.781   7.543  0.5404 -0.3598  0.3448
  294MOL0     C38737   3.249   7.792   7.482 -0.3834  0.2197 -0.8245
  294MOL0     C38738   3.146   7.731   7.576  0.1739  0.4316  0.7440
  294MOL0     C38739   3.131   7.790   7.703  0.3682 -0.4976 -0.3750
  294MOL0     C38740   3.110   7.865   7.799  0.5070 -0.2009 -0.5919
  294MOL0     C38741   3.723   7.794   7.266  0.0444 -0.4397 -0.0891
  294MOL0     C38742   3.839   7.791   7.187 -1.0528 -0.0107 -0.6446
  294MOL0     H38743   4.324   7.667   7.067  3.8882  1.5673  1.1684
  294MOL0     H38744   4.513   7.668   6.903 -0.9831  0.2685  2.4025
  294MOL0     H38745   4.463   7.952   6.546 -0.3424 -0.6494  2.5582
  294MOL0     H38746   4.418   7.790   6.477  5.1843 -4.2917 -3.7736
  294MOL0     H38747   4.598   7.870   6.354  0.5270 -1.7907 -0.8684
  294MOL0     H38748   4.648   7.733   6.425  1.5784  1.4037 -2.4403
  294MOL0     H38749   4.743   7.857   6.618 -0.9035 -0.4263 -0.2338
  294MOL0     H38750   4.695   8.011   6.542 -2.4476  0.0075 -1.4228
  294MOL0     H38751   4.893   7.809   6.424  0.6899 -0.2066  2.1826
  294MOL0     H38752   4.833   7.948   6.337  0.1290 -1.0673 -0.2756
  294MOL0     H38753   4.898   8.097   6.510 -0.8787  0.3198 -2.4228
  294MOL0     H38754   5.031   8.019   6.435 -0.8365  0.2938  0.7734
  294MOL0     H38755   5.061   7.856   6.622  1.6858  0.8064 -3.6124
  294MOL0     H38756   4.929   7.917   6.715  0.9577  0.3686  1.0828
  294MOL0     H38757   5.157   8.100   6.653 -1.5716  0.4758 -1.2284
  294MOL0     H38758   5.014   8.129   6.749 -0.2161 -0.1180  0.3540
  294MOL0     H38759   5.238   7.953   6.828  2.1983  1.8723  1.5081
  294MOL0     H38760   5.086   7.948   6.914  1.0662 -0.7208  1.1987
  294MOL0     H38761   4.972   8.221   6.984  0.0338  1.0542  0.4564
  294MOL0     H38762   5.146   8.443   7.232  0.2966 -0.2554 -0.0518
  294MOL0     H38763   4.984   8.408   7.182  0.3345  2.0321  1.1292
  294MOL0     H38764   5.195   8.558   7.005 -0.5055  1.9964 -1.1812
  294MOL0     H38765   5.065   8.628   7.096 -0.6986  0.1397  0.2882
  294MOL0     H38766   5.013   8.599   6.840  0.8502  0.1501 -0.8606
  294MOL0     H38767   5.044   8.429   6.868  0.3024  0.0311  1.5129
  294MOL0     H38768   4.804   8.582   6.929 -1.1864 -0.1116 -0.2671
  294MOL0     H38769   4.851   8.453   7.042 -0.6305  0.6721  0.4467
  294MOL0     H38770   4.605   8.521   6.948 -2.0566 -1.1628  1.4032
  294MOL0     H38771   4.367   8.474   6.893  0.0169  0.5830 -0.8894
  294MOL0     H38772   4.038   8.532   6.867  0.2534 -0.3092  1.0081
  294MOL0     H38773   3.800   8.541   6.863 -0.8252 -0.7656  0.0750
  294MOL0     H38774   3.586   8.480   6.723 -1.0007 -0.7975 -0.7226
  294MOL0     H38775   3.591   8.534   6.896 -0.2426 -1.5784  1.2366
  294MOL0     H38776   3.372   8.357   6.793  0.0468 -0.1084  0.1102
  294MOL0     H38777   3.359   8.530   6.798 -0.0223 -0.5325 -3.2747
  294MOL0     H38778   3.434   8.533   7.039  2.4088 -1.7590  1.7559
  294MOL0     H38779   3.440   8.364   7.042 -1.1289  0.6080  1.7875
  294MOL0     H38780   3.169   8.484   6.962 -0.4630 -0.8440 -0.4163
  294MOL0     H38781   3.209   8.325   7.013  1.7249  0.4148 -0.8968
  294MOL0     H38782   3.206   8.578   7.172  1.8619  0.8895  1.0684
  294MOL0     H38783   3.293   8.432   7.229  1.3904  1.0133 -0.8948
  294MOL0     H38784   3.069   8.458   7.318  2.1466 -1.6569  0.1881
  294MOL0     H38785   3.071   8.305   7.227  1.2960 -0.8543 -1.6082
  294MOL0     H38786   2.967   8.560   7.094  1.3665  1.2669  2.2205
  294MOL0     H38787   2.932   8.391   7.045  0.9338  2.1294 -1.4264
  294MOL0     H38788   2.731   8.476   7.137 -0.1840 -0.3103  0.4307
  294MOL0     H38789   2.806   8.531   7.285 -0.7648  1.5722 -1.6323
  294MOL0     H38790   3.778   8.113   6.889 -0.2082 -0.3349  1.4609
  294MOL0     H38791   4.035   8.115   6.877 -0.3040 -0.2346  1.4322
  294MOL0     H38792   4.469   8.143   6.650  2.4904  0.2162  0.2222
  294MOL0     H38793   4.698   8.206   6.668  1.2463 -0.9061  3.1169
  294MOL0     H38794   4.276   7.906   6.633  1.5834 -1.0523 -1.6848
  294MOL0     H38795   4.100   7.922   6.820 -0.7238 -0.5732  1.1033
  294MOL0     H38796   4.070   7.811   7.437 -0.3809 -1.1481  0.2594
  294MOL0     H38797   3.856   7.830   7.572 -1.9065 -1.4834 -0.2466
  294MOL0     H38798   3.486   7.742   7.357 -1.2419  0.3443  0.0814
  294MOL0     H38799   3.474   7.918   7.389  1.6278  1.4193  1.0073
  294MOL0     H38800   3.412   7.676   7.565 -0.7152 -1.5378 -3.3221
  294MOL0     H38801   3.404   7.845   7.631  0.3614 -1.0979  0.9199
  294MOL0     H38802   3.243   7.747   7.382 -0.2721  1.0303 -1.2039
  294MOL0     H38803   3.233   7.898   7.461  1.4453  1.1067  1.7916
  294MOL0     H38804   3.053   7.730   7.519  0.5902  0.8825  0.0500
  294MOL0     H38805   3.171   7.625   7.588 -0.3013  0.3075  0.6409
  294MOL0     H38806   3.092   7.934   7.879  2.1731 -0.2535 -0.1409
  294MOL0     H38807   3.625   7.784   7.220 -0.8227 -1.0426  1.7806
  294MOL0     H38808   3.818   7.806   7.082 -1.8642  0.1782 -0.4702
  295MOL0     O38809   6.923   0.107   6.498  0.0732  0.5405 -0.5587
  295MOL0     C38810   6.908   0.016   6.418  0.6299 -0.5883  0.5440
  295MOL0     O38811   6.798  -0.064   6.407  0.0248  1.0385  0.2847
  295MOL0     C38812   6.673  -0.022   6.447 -1.0406 -0.3872  0.8181
  295MOL0     C38813   6.574  -0.115   6.465 -0.8263 -0.1440 -0.4244
  295MOL0     C38814   6.443  -0.079   6.514 -0.6570  0.7943 -0.3597
  295MOL0     C38815   6.409   0.053   6.522 -0.1233 -0.6996 -0.3753
  295MOL0     O38816   6.288   0.094   6.556  0.6608 -0.2319  0.0896
  295MOL0     C38817   6.178   0.077   6.450 -0.1836  0.4964 -0.9795
  295MOL0     C38818   6.180   0.175   6.343  0.6907 -0.1003  0.3517
  295MOL0     C38819   6.164   0.321   6.386  0.8294 -0.2683  0.3937
  295MOL0     C38820   6.153   0.403   6.264  0.4181 -0.6870  1.3292
  295MOL0     C38821   6.102   0.543   6.295 -0.7461 -0.7800  0.5642
  295MOL0     C38822   5.950   0.537   6.317 -0.2841  0.8554 -0.0647
  295MOL0     C38823   5.867   0.669   6.322 -1.4858  0.1300 -0.0334
  295MOL0     C38824   5.720   0.641   6.330 -0.4871 -0.1420 -0.4215
  295MOL0     N38825   5.641   0.761   6.333  0.0869  0.5263  0.3273
  295MOL0     C38826   5.606   0.824   6.214  0.1645 -0.3917 -0.1563
  295MOL0     C38827   5.527   0.929   6.255  0.0667 -0.7767  0.2757
  295MOL0     C38828   5.460   1.023   6.157  0.3141  0.7452  0.1748
  295MOL0     C38829   5.312   1.010   6.168  0.1763  0.1823 -0.7310
  295MOL0     C38830   5.254   0.884   6.102 -0.3912 -0.0164  0.2997
  295MOL0     C38831   5.108   0.876   6.140  0.6830  0.7985 -0.5911
  295MOL0     O38832   5.041   0.772   6.067 -0.2109  0.4470 -0.4074
  295MOL0     C38833   4.903   0.745   6.100 -0.4039 -0.3017  0.9300
  295MOL0     C38834   4.859   0.623   6.052 -0.1414  0.6429 -0.4959
  295MOL0     C38835   4.731   0.576   6.069 -0.6959 -0.6595  0.3651
  295MOL0     C38836   4.638   0.663   6.130 -0.0759  0.0169  0.3831
  295MOL0     C38837   4.499   0.623   6.154 -0.4653  0.6650 -0.2101
  295MOL0     O38838   4.398   0.715   6.198  0.3273  0.2047 -0.5890
  295MOL0     C38839   4.264   0.700   6.189 -1.1013 -0.8337 -1.3243
  295MOL0     C38840   4.194   0.598   6.132  0.2428  0.2468 -0.3432
  295MOL0     C38841   4.055   0.607   6.127 -0.2389  0.1959  0.0153
  295MOL0     C38842   3.993   0.711   6.204 -0.4133 -0.4346 -0.3267
  295MOL0     O38843   3.854   0.698   6.212  0.1083 -0.1287 -0.1904
  295MOL0     C38844   3.793   0.769   6.325 -0.3463 -0.5464 -0.1653
  295MOL0     C38845   3.647   0.752   6.301 -0.5429  0.8228  0.2205
  295MOL0     C38846   3.567   0.833   6.412 -0.9447 -0.3165  0.3247
  295MOL0     C38847   3.430   0.771   6.417  1.0415  0.2016  0.4257
  295MOL0     C38848   3.326   0.862   6.472 -0.7984  0.1661 -0.0708
  295MOL0     C38849   3.184   0.812   6.448  0.0783  0.2837  0.4354
  295MOL0     C38850   3.063   0.884   6.507  0.2897  0.2715  0.2224
  295MOL0     C38851   3.035   1.009   6.433  0.4086  0.3963 -0.1906
  295MOL0    Cl38852   2.885   1.085   6.475 -0.3120 -0.3606  0.3274
  295MOL0     C38853   4.074   0.808   6.273  0.5292  0.0478  1.1234
  295MOL0     C38854   4.202   0.800   6.261  0.3627  0.6149  1.0641
  295MOL0     O38855   4.476   0.516   6.110 -0.5334  0.9075  0.8270
  295MOL0     C38856   4.683   0.783   6.175  0.3473 -0.2713  0.3411
  295MOL0     C38857   4.819   0.821   6.166 -0.5617 -0.5000 -0.3585
  295MOL0     N38858   5.531   0.938   6.395  0.1601  0.0666 -0.4083
  295MOL0     N38859   5.589   0.832   6.439  0.0121  0.5498  0.2583
  295MOL0     C38860   6.507   0.151   6.504  0.5752  0.2234  0.3815
  295MOL0     C38861   6.636   0.115   6.467 -0.2889  1.0751  0.8587
  295MOL0     C38862   7.019  -0.026   6.332  0.2307  0.3611  0.5813
  295MOL0     C38863   7.153   0.017   6.352 -0.5825  0.0169 -0.3498
  295MOL0     C38864   7.254  -0.005   6.263  0.1521 -0.2278  0.0422
  295MOL0     C38865   7.239  -0.080   6.148 -0.1278 -0.1804  0.4267
  295MOL0     O38866   7.345  -0.109   6.071 -0.4904  0.5981  0.0431
  295MOL0     C38867   7.350  -0.080   5.929  0.1225 -0.7582 -0.8820
  295MOL0     C38868   7.486  -0.075   5.866  0.0543  0.2805 -0.4574
  295MOL0     C38869   7.591  -0.146   5.954  0.6220  0.2946 -1.3526
  295MOL0     C38870   7.738  -0.117   5.912  0.2250  0.5590  0.6767
  295MOL0     C38871   7.771   0.023   5.903  0.3797  0.9838 -0.8186
  295MOL0     C38872   7.783   0.140   5.898  0.0795 -0.3168  0.2341
  295MOL0     C38873   7.113  -0.139   6.134  0.4319  0.1972  0.2386
  295MOL0     C38874   7.005  -0.115   6.222 -0.9542  0.5256  0.4936
  295MOL0     H38875   6.609  -0.215   6.441  1.5840  1.5594 -5.1883
  295MOL0     H38876   6.368  -0.155   6.533 -1.5635  2.1678  1.9806
  295MOL0     H38877   6.082   0.085   6.501  0.8713  0.8750  1.0568
  295MOL0     H38878   6.179  -0.022   6.402 -0.6621  0.1156 -0.2227
  295MOL0     H38879   6.099   0.151   6.273  2.1599 -2.4986 -0.6854
  295MOL0     H38880   6.266   0.161   6.276 -0.6170 -1.1384 -1.1974
  295MOL0     H38881   6.252   0.356   6.440  1.3506  0.7220 -1.0534
  295MOL0     H38882   6.070   0.327   6.441 -0.0494 -1.3741 -0.9055
  295MOL0     H38883   6.250   0.401   6.214  0.0126 -2.3217  0.5591
  295MOL0     H38884   6.078   0.364   6.195  0.7040  0.7065  0.1881
  295MOL0     H38885   6.126   0.614   6.215 -3.4465  1.5408  1.6244
  295MOL0     H38886   6.150   0.581   6.385 -1.5187 -1.2454  1.1921
  295MOL0     H38887   5.930   0.490   6.414  0.7422  1.3112  0.3906
  295MOL0     H38888   5.900   0.470   6.246 -1.5654 -0.4312  1.9445
  295MOL0     H38889   5.897   0.727   6.411  2.0482 -1.1798 -0.2145
  295MOL0     H38890   5.891   0.736   6.239 -0.0190 -1.8689 -1.3125
  295MOL0     H38891   5.709   0.585   6.423 -0.5487  0.5736  0.0058
  295MOL0     H38892   5.695   0.584   6.240 -0.9379  0.0287 -0.4083
  295MOL0     H38893   5.624   0.787   6.114  1.3182 -1.6042  0.4637
  295MOL0     H38894   5.499   0.999   6.058  2.9383  1.3953  0.9894
  295MOL0     H38895   5.479   1.128   6.179  3.1758  0.3662 -0.1876
  295MOL0     H38896   5.270   1.102   6.127 -0.3473 -0.2100 -1.0922
  295MOL0     H38897   5.289   0.995   6.274  1.4731  0.0158 -0.4513
  295MOL0     H38898   5.253   0.886   5.993 -3.3511  0.8597  0.2554
  295MOL0     H38899   5.301   0.798   6.151 -0.3061 -1.2157 -1.7623
  295MOL0     H38900   5.057   0.969   6.112  3.1684  1.9752 -1.5986
  295MOL0     H38901   5.101   0.854   6.247  0.7914  0.8805 -0.5666
  295MOL0     H38902   4.921   0.550   6.001 -0.5587 -2.8681  3.4743
  295MOL0     H38903   4.709   0.479   6.025  1.1962 -0.7402 -0.4940
  295MOL0     H38904   4.251   0.515   6.094 -0.1767 -0.8318  1.2975
  295MOL0     H38905   3.983   0.535   6.089 -2.3800  1.5685  1.2799
  295MOL0     H38906   3.810   0.877   6.334 -0.1589 -0.6454  0.7449
  295MOL0     H38907   3.825   0.729   6.421  0.6340  3.6158  1.4509
  295MOL0     H38908   3.624   0.645   6.304 -1.2493  0.9736  0.3182
  295MOL0     H38909   3.620   0.791   6.202  1.8838  0.6175 -0.5804
  295MOL0     H38910   3.564   0.941   6.398 -1.1565 -0.5428 -1.7040
  295MOL0     H38911   3.612   0.824   6.511  0.0814  2.7132  0.2417
  295MOL0     H38912   3.399   0.747   6.315  3.2683  0.5934 -0.3918
  295MOL0     H38913   3.436   0.683   6.482 -1.0092  1.2862  2.2011
  295MOL0     H38914   3.354   0.960   6.432  1.0417  1.4104  3.7805
  295MOL0     H38915   3.347   0.886   6.577  0.9081  0.5118 -0.4686
  295MOL0     H38916   3.175   0.712   6.492 -0.6034  0.6772  1.2260
  295MOL0     H38917   3.175   0.812   6.340  3.3402 -0.5589  0.0319
  295MOL0     H38918   2.977   0.816   6.505  0.2106  0.2896  1.5668
  295MOL0     H38919   3.069   0.899   6.615 -0.6789 -0.5394  0.4075
  295MOL0     H38920   3.039   0.981   6.327  1.3742  0.6446 -0.2288
  295MOL0     H38921   3.117   1.075   6.465  0.1430  0.3261  0.6472
  295MOL0     H38922   4.035   0.882   6.341 -0.4884  1.2923 -0.7152
  295MOL0     H38923   4.273   0.866   6.310  2.1949  0.9972 -1.8719
  295MOL0     H38924   4.608   0.839   6.230 -0.8330  0.6959 -2.1199
  295MOL0     H38925   4.837   0.923   6.196  0.2711 -0.0212 -2.3535
  295MOL0     H38926   6.491   0.256   6.526  1.7205  0.5011 -0.0541
  295MOL0     H38927   6.713   0.189   6.448  1.4528 -1.6238 -4.4973
  295MOL0     H38928   7.181   0.075   6.439  1.4554 -2.9665  1.1631
  295MOL0     H38929   7.354   0.031   6.285  0.5919 -0.3587 -1.5654
  295MOL0     H38930   7.295   0.012   5.906  0.4363  0.1116  1.5380
  295MOL0     H38931   7.290  -0.156   5.879 -0.6591 -0.5208 -0.3265
  295MOL0     H38932   7.478  -0.117   5.766 -0.6239 -0.0114 -0.2866
  295MOL0     H38933   7.507   0.033   5.860 -1.2133  0.5575 -0.1580
  295MOL0     H38934   7.557  -0.250   5.954 -2.3291  1.1406  0.4642
  295MOL0     H38935   7.587  -0.117   6.059 -0.0805  0.4543 -1.4182
  295MOL0     H38936   7.810  -0.172   5.974 -2.4121 -0.4836  3.0566
  295MOL0     H38937   7.745  -0.160   5.812 -0.5523 -4.4172  2.4884
  295MOL0     H38938   7.801   0.244   5.916  1.0439 -0.8030  2.4301
  295MOL0     H38939   7.086  -0.177   6.037 -2.2794  2.1387  0.1195
  295MOL0     H38940   6.915  -0.168   6.195 -0.3438 -0.9461  1.2020
  296MOL0     O38941   4.346   6.837   0.679 -0.4428  0.1418  0.3804
  296MOL0     C38942   4.400   6.944   0.644  0.9495 -0.3090 -0.6377
  296MOL0     O38943   4.344   7.056   0.591 -0.9262  0.1899  0.0510
  296MOL0     C38944   4.213   7.041   0.566  0.2934 -0.1354  0.8666
  296MOL0     C38945   4.171   7.073   0.436  0.7500 -0.4460 -0.2813
  296MOL0     C38946   4.030   7.065   0.406  0.6612 -1.0136 -0.0039
  296MOL0     C38947   3.934   7.033   0.510 -0.5952  0.4804 -0.1511
  296MOL0     O38948   3.804   7.025   0.477  0.9252 -0.3982  0.3331
  296MOL0     C38949   3.715   6.936   0.554 -0.3162 -0.6740  0.3244
  296MOL0     C38950   3.598   6.911   0.468  0.2158  0.9616  0.3450
  296MOL0     C38951   3.505   6.799   0.515 -0.0008 -0.7056  0.3332
  296MOL0     C38952   3.414   6.837   0.643 -0.5676 -0.2647 -0.5576
  296MOL0     C38953   3.296   6.936   0.615 -0.2882  0.8504  0.2146
  296MOL0     C38954   3.207   6.986   0.727  0.9317  0.0730 -0.6241
  296MOL0     C38955   3.107   6.877   0.776 -0.1001  0.2480  0.7706
  296MOL0     C38956   2.997   6.829   0.689  1.4668 -0.1280  1.3641
  296MOL0     N38957   2.906   6.932   0.634 -0.0720 -0.0071 -0.2640
  296MOL0     C38958   2.926   7.012   0.528  0.4778 -0.4224 -0.3207
  296MOL0     C38959   2.812   7.089   0.513 -1.1185 -0.6781  0.3734
  296MOL0     C38960   2.786   7.195   0.398 -0.3278 -0.2883  0.2140
  296MOL0     C38961   2.780   7.352   0.430 -0.8441  0.3786 -0.6387
  296MOL0     C38962   2.645   7.402   0.487  0.0851  0.5137 -0.1843
  296MOL0     C38963   2.525   7.402   0.390  0.3063  0.5934 -0.4621
  296MOL0     O38964   2.422   7.477   0.451 -0.3647 -0.0395  0.6795
  296MOL0     C38965   2.360   7.433   0.563 -0.4540  0.0921  0.0359
  296MOL0     C38966   2.284   7.536   0.626  0.2396 -0.0921 -0.7044
  296MOL0     C38967   2.206   7.511   0.740 -1.0259 -0.1439 -0.7157
  296MOL0     C38968   2.216   7.392   0.801  0.1564 -0.2651 -0.0053
  296MOL0     C38969   2.150   7.367   0.930 -0.3189  0.4315  1.3179
  296MOL0     O38970   2.145   7.240   0.978  0.3176  0.7948 -0.8293
  296MOL0     C38971   2.066   7.211   1.084 -0.9517  0.1726  0.3872
  296MOL0     C38972   1.969   7.120   1.068 -1.0064  0.6790 -0.6190
  296MOL0     C38973   1.893   7.081   1.177  1.0381  0.1023 -0.1183
  296MOL0     C38974   1.901   7.143   1.303 -0.2631 -0.8108  0.1287
  296MOL0     O38975   1.837   7.138   1.408  0.7731  0.3925 -0.6673
  296MOL0     C38976   1.698   7.180   1.399 -0.3807  1.1490  0.5272
  296MOL0     C38977   1.601   7.059   1.371 -0.7076  0.6259 -0.1616
  296MOL0     C38978   1.454   7.080   1.416 -0.6349  0.3734 -0.1292
  296MOL0     C38979   1.403   7.216   1.367  0.4410 -0.2707  0.6263
  296MOL0     C38980   1.251   7.230   1.409  0.2301  0.3347 -0.3923
  296MOL0     C38981   1.197   7.373   1.377  0.2541  0.2440  0.2587
  296MOL0     C38982   1.047   7.390   1.413  0.0069 -0.5651 -0.0668
  296MOL0     C38983   1.002   7.519   1.352 -0.4186 -0.8912 -0.2425
  296MOL0    Cl38984   0.825   7.534   1.389  0.6901  0.1900 -0.5042
  296MOL0     C38985   2.006   7.234   1.319 -0.9874  0.5051  0.1007
  296MOL0     C38986   2.086   7.266   1.204 -0.2308  0.7817 -1.0789
  296MOL0     O38987   2.097   7.461   0.984  0.2476  0.3182  0.3986
  296MOL0     C38988   2.307   7.300   0.753 -0.2573  0.3324  0.6189
  296MOL0     C38989   2.368   7.308   0.627 -0.4330 -1.0921 -0.8401
  296MOL0     N38990   2.721   7.048   0.602 -0.1441  0.4056 -1.0658
  296MOL0     N38991   2.776   6.957   0.675 -0.0379 -0.3603 -0.4344
  296MOL0     C38992   3.983   6.995   0.638  0.1945  0.1186  1.2358
  296MOL0     C38993   4.118   7.004   0.658  0.3137  0.3868  0.8920
  296MOL0     C38994   4.549   6.953   0.654  0.0592  0.2312  0.5530
  296MOL0     C38995   4.617   7.040   0.564  0.0928  1.0212 -0.2312
  296MOL0     C38996   4.753   7.054   0.563 -0.4477  0.6242 -0.1214
  296MOL0     C38997   4.830   6.980   0.664 -0.1251 -0.3958  0.2968
  296MOL0     O38998   4.972   6.984   0.652 -0.7030 -0.3025  0.0004
  296MOL0     C38999   5.043   6.961   0.778  0.4201  0.1505  0.7581
  296MOL0     C39000   5.189   6.998   0.764 -0.6775  1.4552  0.4614
  296MOL0     C39001   5.262   6.903   0.655  0.3451  0.0747 -0.1038
  296MOL0     C39002   5.413   6.940   0.638  0.2890 -0.1019 -0.2633
  296MOL0     C39003   5.477   6.895   0.766  0.3724  0.1627 -1.0438
  296MOL0     C39004   5.537   6.890   0.867  0.2761  0.1946  0.0296
  296MOL0     C39005   4.765   6.886   0.751 -0.2053  0.0096  0.5263
  296MOL0     C39006   4.622   6.870   0.744 -0.6988 -0.2223  0.3892
  296MOL0     H39007   4.245   7.108   0.364  1.3549  1.6124  1.2628
  296MOL0     H39008   3.979   7.093   0.315 -3.4644 -3.6995  1.2292
  296MOL0     H39009   3.684   6.986   0.646 -0.8253  0.9132 -0.6574
  296MOL0     H39010   3.766   6.845   0.588  0.4003 -2.0447 -3.8219
  296MOL0     H39011   3.623   6.878   0.367  1.2952 -2.8554  1.7039
  296MOL0     H39012   3.538   7.003   0.467  3.7238  3.4596  1.9108
  296MOL0     H39013   3.559   6.705   0.526  0.5468 -0.1579  3.1450
  296MOL0     H39014   3.436   6.789   0.431  0.3339  1.1340 -0.2245
  296MOL0     H39015   3.382   6.743   0.689  1.1630  0.6275  2.7366
  296MOL0     H39016   3.473   6.892   0.716  0.2078  0.8824 -1.9947
  296MOL0     H39017   3.237   6.888   0.537 -0.2781  0.7063  0.2949
  296MOL0     H39018   3.329   7.023   0.557 -0.9431 -0.6932 -2.6227
  296MOL0     H39019   3.139   7.065   0.693 -0.8856 -1.3836 -0.5624
  296MOL0     H39020   3.270   7.020   0.810 -2.0947  0.4676  1.6811
  296MOL0     H39021   3.163   6.784   0.794  0.2084  0.1099 -0.7547
  296MOL0     H39022   3.074   6.908   0.876  2.5710  1.3004  1.4057
  296MOL0     H39023   2.933   6.766   0.752 -2.1742  0.2092 -1.5996
  296MOL0     H39024   3.029   6.762   0.608 -2.1661 -0.4907  0.0040
  296MOL0     H39025   3.016   7.027   0.468  2.3234 -3.3357  1.4909
  296MOL0     H39026   2.693   7.164   0.350  0.0958 -1.3899  0.0697
  296MOL0     H39027   2.866   7.179   0.325 -0.1102  0.4740  0.2772
  296MOL0     H39028   2.807   7.411   0.343 -1.2194  1.1932 -0.2131
  296MOL0     H39029   2.858   7.379   0.502 -1.3403 -0.2012  0.1364
  296MOL0     H39030   2.616   7.357   0.583  0.3864  0.4612 -0.1154
  296MOL0     H39031   2.659   7.504   0.526  2.0094 -1.0447  3.7340
  296MOL0     H39032   2.491   7.298   0.381  0.0458  0.2995  2.7126
  296MOL0     H39033   2.538   7.438   0.288 -2.2283  1.0087 -0.7125
  296MOL0     H39034   2.287   7.631   0.574 -0.1163  0.9191  1.0243
  296MOL0     H39035   2.145   7.589   0.784  0.7295  1.1341 -0.4234
  296MOL0     H39036   1.946   7.075   0.972 -2.8657 -0.4269  0.2882
  296MOL0     H39037   1.810   7.013   1.160  0.1471  1.2043 -0.3312
  296MOL0     H39038   1.683   7.255   1.321 -0.8658 -1.1425 -1.7252
  296MOL0     H39039   1.658   7.225   1.490 -0.9964 -0.7137  1.2419
  296MOL0     H39040   1.645   6.968   1.413 -0.9336  0.0417 -1.1572
  296MOL0     H39041   1.608   7.047   1.263  0.1395 -1.1399  0.0423
  296MOL0     H39042   1.440   7.070   1.524 -1.7990  0.4192 -0.2623
  296MOL0     H39043   1.404   6.992   1.376  3.2212 -0.9887 -2.4893
  296MOL0     H39044   1.466   7.294   1.410 -0.6696  1.7419 -1.2221
  296MOL0     H39045   1.409   7.223   1.258  0.8746 -1.4970  0.5628
  296MOL0     H39046   1.241   7.207   1.515  2.0525 -0.5580 -0.3664
  296MOL0     H39047   1.190   7.159   1.353  0.3149 -1.5812  1.7839
  296MOL0     H39048   1.197   7.393   1.269 -3.1610  1.9653  0.4429
  296MOL0     H39049   1.268   7.451   1.406  0.2905  0.4957 -0.4719
  296MOL0     H39050   0.981   7.312   1.372  0.4778 -0.8543 -0.2865
  296MOL0     H39051   1.041   7.405   1.521 -0.5558  1.2107 -0.3244
  296MOL0     H39052   1.029   7.537   1.248  1.2361 -0.4667  0.2301
  296MOL0     H39053   1.048   7.604   1.403 -2.2372  1.2508 -2.0001
  296MOL0     H39054   2.026   7.283   1.414  1.0140 -1.6673  0.8922
  296MOL0     H39055   2.165   7.340   1.212 -0.0386  0.6710 -1.8212
  296MOL0     H39056   2.307   7.211   0.816 -0.6428 -0.3964 -0.3875
  296MOL0     H39057   2.407   7.222   0.574  0.0267 -1.6254  0.3292
  296MOL0     H39058   3.915   6.977   0.721 -0.8104  2.5066  1.0322
  296MOL0     H39059   4.156   6.969   0.753  1.3915 -1.9103 -0.2991
  296MOL0     H39060   4.564   7.092   0.485  1.4946 -1.2023 -2.7883
  296MOL0     H39061   4.804   7.111   0.487  1.9273 -0.9079  0.2239
  296MOL0     H39062   5.035   6.853   0.795  0.9485  0.0408  0.3555
  296MOL0     H39063   5.001   7.022   0.859  1.0197  1.4302  0.1416
  296MOL0     H39064   5.215   7.099   0.733  2.6264 -0.3255 -3.5516
  296MOL0     H39065   5.242   6.979   0.858  1.1480  0.0151 -0.7855
  296MOL0     H39066   5.221   6.932   0.558  1.0415  0.1740 -0.3717
  296MOL0     H39067   5.249   6.794   0.660  0.0760 -0.0602 -2.4869
  296MOL0     H39068   5.455   6.893   0.548  1.3387 -0.7107  0.5179
  296MOL0     H39069   5.412   7.049   0.631 -1.3591  0.1252  2.2707
  296MOL0     H39070   5.606   6.861   0.943 -0.1045  0.0687  0.3284
  296MOL0     H39071   4.824   6.822   0.815  1.0250 -0.3321 -0.8793
  296MOL0     H39072   4.571   6.809   0.818  1.7854 -3.0399 -0.0093
  297MOL0     O39073   0.791   3.441   7.650 -0.5345  0.1473 -0.5057
  297MOL0     C39074   0.833   3.325   7.612  0.1829 -0.3205 -1.6811
  297MOL0     O39075   0.760   3.235   7.538 -0.3017  0.4826 -0.5916
  297MOL0     C39076   0.630   3.260   7.495  0.0161  0.0264  0.8007
  297MOL0     C39077   0.578   3.385   7.466 -0.2358 -0.4214  0.5109
  297MOL0     C39078   0.450   3.397   7.414 -0.7010  0.8122 -0.3175
  297MOL0     C39079   0.375   3.289   7.369 -0.5477 -0.3476  0.1346
  297MOL0     O39080   0.261   3.329   7.305  1.0082  0.5305  0.5426
  297MOL0     C39081   0.184   3.225   7.259  1.0274 -0.0595 -0.2254
  297MOL0     C39082   0.060   3.293   7.201 -0.2984  0.6331 -0.1792
  297MOL0     C39083  -0.042   3.195   7.133  0.2929 -0.3360  0.3733
  297MOL0     C39084  -0.081   3.080   7.232 -0.4208  0.0140 -0.6528
  297MOL0     C39085  -0.204   2.998   7.185 -0.6403  0.1435  0.0801
  297MOL0     C39086  -0.178   2.927   7.044 -0.3291 -0.3624  0.2724
  297MOL0     C39087  -0.050   2.837   7.042  0.3058  0.2804  0.1415
  297MOL0     C39088  -0.059   2.739   7.159  0.2783  0.2926 -0.1437
  297MOL0     N39089   0.038   2.627   7.152  0.4450  0.2015 -0.0549
  297MOL0     C39090   0.140   2.612   7.058  0.1673 -0.6947  0.1881
  297MOL0     C39091   0.202   2.489   7.079 -0.1302  0.0909 -0.3821
  297MOL0     C39092   0.315   2.428   7.006  0.0781  0.0938  0.3473
  297MOL0     C39093   0.438   2.439   7.099 -0.1138 -0.4710 -0.6776
  297MOL0     C39094   0.524   2.315   7.091  0.7237  0.2164 -0.7064
  297MOL0     C39095   0.652   2.330   7.170  0.1974 -0.9818 -0.1662
  297MOL0     O39096   0.728   2.431   7.093 -0.3086 -0.1233  0.3072
  297MOL0     C39097   0.847   2.476   7.155  0.0307  0.7463  1.2994
  297MOL0     C39098   0.890   2.428   7.275 -0.9682  0.5045 -0.2274
  297MOL0     C39099   1.012   2.469   7.328 -0.5595 -0.2890 -0.0217
  297MOL0     C39100   1.092   2.562   7.257 -0.9181  0.5825  0.4385
  297MOL0     C39101   1.236   2.594   7.306 -0.1589 -0.2073  0.6947
  297MOL0     O39102   1.285   2.521   7.413  0.4956 -0.6862 -0.0125
  297MOL0     C39103   1.407   2.542   7.469 -0.8596 -1.1258  0.0627
  297MOL0     C39104   1.451   2.677   7.494  0.7903 -0.3224 -0.3096
  297MOL0     C39105   1.568   2.700   7.565 -0.3268 -0.1449 -0.6925
  297MOL0     C39106   1.650   2.600   7.603  0.0795 -0.3035 -0.4446
  297MOL0     O39107   1.766   2.623   7.678 -0.3681 -0.5951  0.1686
  297MOL0     C39108   1.882   2.551   7.653  0.6076 -0.4768 -0.2079
  297MOL0     C39109   1.998   2.615   7.732 -0.1832 -0.1525 -0.5322
  297MOL0     C39110   1.958   2.654   7.874 -0.7756  0.4523  0.0400
  297MOL0     C39111   2.080   2.695   7.965  0.2816  0.8627  0.6110
  297MOL0     C39112   2.131   2.568   8.021  0.2816 -0.0288  0.0019
  297MOL0     C39113   2.228   2.592   8.137 -0.5368 -0.8250 -0.6194
  297MOL0     C39114   2.274   2.473   8.222  0.2570 -0.1701  0.6064
  297MOL0     C39115   2.345   2.522   8.347 -0.8314 -0.6105  0.1575
  297MOL0    Cl39116   2.528   2.501   8.336 -0.0586 -0.0746  0.0377
  297MOL0     C39117   1.616   2.469   7.565 -0.2735 -0.0703  1.0650
  297MOL0     C39118   1.497   2.442   7.491 -1.0022 -0.4439 -0.1917
  297MOL0     O39119   1.306   2.662   7.229 -0.0998 -0.4684 -0.4547
  297MOL0     C39120   1.045   2.617   7.140 -1.3787  0.3268  0.5180
  297MOL0     C39121   0.924   2.571   7.086 -0.1292 -0.6208 -0.2600
  297MOL0     N39122   0.127   2.426   7.172 -0.4892 -0.0555  0.0241
  297MOL0     N39123   0.036   2.507   7.217 -0.3132 -0.5005 -0.7871
  297MOL0     C39124   0.432   3.161   7.390  0.2344  0.1239  1.0886
  297MOL0     C39125   0.557   3.150   7.450  0.7790 -0.8242 -0.0083
  297MOL0     C39126   0.975   3.298   7.640 -0.4609  0.7058  0.8474
  297MOL0     C39127   1.060   3.379   7.719 -0.7542  0.3844 -0.1268
  297MOL0     C39128   1.196   3.354   7.741 -0.5210  0.4492 -0.3603
  297MOL0     C39129   1.255   3.237   7.680 -0.6475  0.2459  0.4078
  297MOL0     O39130   1.394   3.194   7.686  0.5226 -0.2054  0.5020
  297MOL0     C39131   1.475   3.255   7.789  0.2508  0.6662  0.0374
  297MOL0     C39132   1.602   3.171   7.792 -0.1506 -0.7177 -0.5973
  297MOL0     C39133   1.584   3.053   7.885 -0.7593 -0.0760  0.2138
  297MOL0     C39134   1.714   2.967   7.898  0.0689 -0.5802 -0.0675
  297MOL0     C39135   1.787   3.013   8.021  0.4245  0.6482 -0.3310
  297MOL0     C39136   1.860   3.055   8.109  0.2118 -0.0928 -0.5716
  297MOL0     C39137   1.173   3.148   7.608 -0.4394  0.1739 -0.2040
  297MOL0     C39138   1.038   3.186   7.587 -1.0283 -0.4584  0.9140
  297MOL0     H39139   0.631   3.472   7.504 -1.4480 -0.0176  1.3317
  297MOL0     H39140   0.397   3.491   7.414 -2.5298 -0.1401  1.6771
  297MOL0     H39141   0.166   3.159   7.345 -1.6111  1.8787  0.8473
  297MOL0     H39142   0.233   3.164   7.181 -3.2319 -2.1385 -1.5990
  297MOL0     H39143   0.094   3.368   7.129 -0.9988  0.1744 -0.9995
  297MOL0     H39144   0.004   3.342   7.281  0.3946  0.7001  0.2722
  297MOL0     H39145  -0.012   3.154   7.036  0.2336  2.4200 -0.8889
  297MOL0     H39146  -0.132   3.255   7.116  0.7964  0.9534  2.0859
  297MOL0     H39147   0.005   3.015   7.254 -0.4791  0.2252  0.2429
  297MOL0     H39148  -0.098   3.128   7.329 -1.3001 -2.8744  0.7663
  297MOL0     H39149  -0.288   3.069   7.179 -0.5064  0.2171 -1.2906
  297MOL0     H39150  -0.224   2.927   7.266 -2.3232 -1.9031 -2.0034
  297MOL0     H39151  -0.167   2.998   6.961  0.0829 -2.5237 -1.6379
  297MOL0     H39152  -0.259   2.868   6.999  0.9754  0.6924 -3.9203
  297MOL0     H39153  -0.032   2.780   6.950  1.4860  2.1612 -0.8898
  297MOL0     H39154   0.043   2.896   7.044 -0.4557  1.4945  1.5441
  297MOL0     H39155  -0.157   2.691   7.159  0.5920 -0.3461  0.0461
  297MOL0     H39156  -0.046   2.786   7.257 -2.6941 -0.1287  0.5631
  297MOL0     H39157   0.174   2.679   6.981 -0.2668 -1.4814 -0.7083
  297MOL0     H39158   0.332   2.474   6.908 -0.3648 -0.9811 -0.2582
  297MOL0     H39159   0.301   2.321   6.989  1.5017  0.2293 -2.2310
  297MOL0     H39160   0.410   2.462   7.202 -1.0297 -0.8913 -0.8187
  297MOL0     H39161   0.506   2.517   7.064  1.9839 -1.5310  0.8318
  297MOL0     H39162   0.475   2.228   7.136  1.6669  0.3681  0.7025
  297MOL0     H39163   0.539   2.293   6.985  3.1901 -2.0984  0.0032
  297MOL0     H39164   0.708   2.236   7.177  1.7392 -0.3241 -2.6517
  297MOL0     H39165   0.627   2.369   7.269  0.2385 -0.5724 -0.3177
  297MOL0     H39166   0.851   2.343   7.329  0.4214 -0.1639 -0.2332
  297MOL0     H39167   1.049   2.432   7.423 -1.4621 -1.5043 -0.1220
  297MOL0     H39168   1.387   2.763   7.479 -0.1197 -0.3633  2.7908
  297MOL0     H39169   1.585   2.804   7.591 -0.8806  0.2938 -2.0338
  297MOL0     H39170   1.904   2.550   7.546 -0.1611  2.5111 -0.4780
  297MOL0     H39171   1.872   2.446   7.683  0.0698 -0.8112 -1.4547
  297MOL0     H39172   2.032   2.700   7.672 -0.1827 -0.5999 -1.1823
  297MOL0     H39173   2.085   2.549   7.728 -0.4659 -0.4753 -2.8809
  297MOL0     H39174   1.892   2.579   7.918 -2.0227  0.4422 -1.7563
  297MOL0     H39175   1.898   2.746   7.871 -0.0495  1.0874  2.5100
  297MOL0     H39176   2.152   2.760   7.914 -1.7048  2.5296 -0.1623
  297MOL0     H39177   2.039   2.753   8.048 -2.6698  1.5735 -1.2106
  297MOL0     H39178   2.179   2.508   7.943 -1.4287 -2.6705  0.8461
  297MOL0     H39179   2.042   2.515   8.056 -0.0936  0.7360  0.2306
  297MOL0     H39180   2.175   2.667   8.195  2.1416  0.4894  0.3188
  297MOL0     H39181   2.314   2.645   8.094 -1.2404  2.2253  1.4376
  297MOL0     H39182   2.189   2.412   8.253 -0.0532  0.8367  1.8408
  297MOL0     H39183   2.335   2.406   8.162 -2.2929 -2.3822  0.3192
  297MOL0     H39184   2.314   2.452   8.426 -0.4328 -0.0426  0.8298
  297MOL0     H39185   2.316   2.626   8.363  2.7743  0.4617  0.6828
  297MOL0     H39186   1.681   2.387   7.592 -1.1520 -1.2475 -0.2726
  297MOL0     H39187   1.473   2.350   7.439  0.6555  0.1001 -2.0279
  297MOL0     H39188   1.111   2.684   7.087 -0.0399  2.2385  4.2586
  297MOL0     H39189   0.889   2.604   6.988  0.5785  0.1967 -0.2485
  297MOL0     H39190   0.388   3.065   7.367 -0.2245  1.0219 -2.3664
  297MOL0     H39191   0.604   3.052   7.455  1.0231 -0.7829 -1.2270
  297MOL0     H39192   1.009   3.463   7.764 -1.3861  0.2327 -0.5552
  297MOL0     H39193   1.256   3.427   7.795 -2.0104  2.0570 -0.8064
  297MOL0     H39194   1.424   3.248   7.886  3.8882  2.4649  2.2689
  297MOL0     H39195   1.508   3.357   7.770 -0.5391  0.6343 -1.6753
  297MOL0     H39196   1.635   3.131   7.696  4.8115  1.7240 -0.2273
  297MOL0     H39197   1.679   3.240   7.829  0.0852 -1.2181 -0.1504
  297MOL0     H39198   1.503   2.984   7.860 -2.4628  1.7371  0.6019
  297MOL0     H39199   1.560   3.078   7.988  0.7577 -0.3837  0.6734
  297MOL0     H39200   1.686   2.862   7.908 -2.2144  0.1359  2.2047
  297MOL0     H39201   1.769   2.982   7.804  0.6759  1.7963  0.5902
  297MOL0     H39202   1.925   3.094   8.185  1.6776 -0.8245 -1.4121
  297MOL0     H39203   1.218   3.061   7.562 -1.5141 -0.3247 -0.3452
  297MOL0     H39204   0.977   3.124   7.522  0.5301  1.1910 -2.3836
  298MOL0     O39205   9.400   8.789  11.001 -0.1246 -0.0771 -0.3266
  298MOL0     C39206   9.380   8.906  11.035 -0.6419  0.4121  0.6909
  298MOL0     O39207   9.269   8.965  11.097 -0.7012 -0.2328 -1.0297
  298MOL0     C39208   9.166   8.874  11.112  0.6920  0.9561  0.4716
  298MOL0     C39209   9.161   8.783  11.220  0.1520 -0.2677 -0.3134
  298MOL0     C39210   9.067   8.682  11.250 -0.3654 -0.0013  0.7512
  298MOL0     C39211   8.956   8.678  11.157  0.7591  0.0633  0.1447
  298MOL0     O39212   8.858   8.584  11.176 -0.0487 -0.4993  0.5031
  298MOL0     C39213   8.723   8.620  11.149 -0.7196  0.3494  0.4068
  298MOL0     C39214   8.632   8.498  11.168 -0.7537  0.1620  0.2896
  298MOL0     C39215   8.492   8.522  11.112  0.7080 -0.8182 -1.1934
  298MOL0     C39216   8.392   8.404  11.145  0.7215 -0.0256 -0.2654
  298MOL0     C39217   8.254   8.420  11.078 -1.4196 -0.6130 -0.0370
  298MOL0     C39218   8.160   8.507  11.158 -0.5907  0.0902 -0.4835
  298MOL0     C39219   8.020   8.489  11.103 -0.5106  0.2479  0.1008
  298MOL0     C39220   7.910   8.558  11.171  0.9896 -0.2064  0.8959
  298MOL0     N39221   7.775   8.520  11.111 -0.1282  0.7684 -0.1791
  298MOL0     C39222   7.685   8.451  11.175  0.4416 -0.3495 -0.4266
  298MOL0     C39223   7.588   8.414  11.089  0.1384 -0.0616 -0.1666
  298MOL0     C39224   7.468   8.334  11.103  0.2570  0.0375 -0.4387
  298MOL0     C39225   7.351   8.408  11.171 -0.3410 -0.6385  0.1564
  298MOL0     C39226   7.345   8.561  11.143  0.7166  0.1236 -0.0415
  298MOL0     C39227   7.211   8.620  11.196  0.0525  0.1346  0.0900
  298MOL0     O39228   7.188   8.603  11.336 -0.5308 -0.3698  0.2128
  298MOL0     C39229   7.103   8.693  11.399 -0.1692 -1.2346  0.3017
  298MOL0     C39230   7.012   8.780  11.330 -0.5926 -0.4975  0.5084
  298MOL0     C39231   6.937   8.877  11.392  0.7567  0.7262  0.0434
  298MOL0     C39232   6.931   8.876  11.526 -0.6227  0.3604  0.8252
  298MOL0     C39233   6.841   8.971  11.601 -0.7029  0.3557 -1.0467
  298MOL0     O39234   6.760   9.052  11.522  0.1467  0.1368 -0.6213
  298MOL0     C39235   6.664   9.139  11.584  0.2003 -0.1588  0.5797
  298MOL0     C39236   6.650   9.276  11.546 -0.2499  0.8261 -0.0711
  298MOL0     C39237   6.553   9.361  11.597  0.3061 -0.0342 -0.3828
  298MOL0     C39238   6.462   9.323  11.695  0.2861 -0.0972 -0.0426
  298MOL0     O39239   6.372   9.422  11.735 -0.8544  0.5719 -0.4973
  298MOL0     C39240   6.248   9.392  11.799  0.4832 -0.0545  0.2406
  298MOL0     C39241   6.212   9.512  11.896  0.0234  0.0605  0.1341
  298MOL0     C39242   6.057   9.514  11.928 -0.0047 -0.2309  0.0134
  298MOL0     C39243   6.007   9.382  11.984 -0.0564 -0.2456 -0.5130
  298MOL0     C39244   5.858   9.392  12.040 -0.4379 -0.2938 -0.1070
  298MOL0     C39245   5.761   9.271  12.006  0.0227  0.2387  0.4706
  298MOL0     C39246   5.719   9.289  11.865  0.2684  0.1996  0.4733
  298MOL0     C39247   5.621   9.169  11.836  0.3737  0.4210 -0.1110
  298MOL0    Cl39248   5.604   9.173  11.667 -0.1670  0.0103  0.0469
  298MOL0     C39249   6.464   9.183  11.727  0.2763  0.5762 -0.2025
  298MOL0     C39250   6.569   9.096  11.681  0.3687 -0.7501  0.7361
  298MOL0     O39251   6.839   8.964  11.720  1.1286 -0.3469 -0.0486
  298MOL0     C39252   7.021   8.802  11.600 -0.9590  0.4936  0.3523
  298MOL0     C39253   7.108   8.712  11.540 -0.7453  0.6637  0.2893
  298MOL0     N39254   7.624   8.459  10.965  0.0641  0.1417 -0.2961
  298MOL0     N39255   7.734   8.523  10.978 -0.0516  1.3777 -0.2550
  298MOL0     C39256   8.961   8.750  11.045 -0.5918 -0.4116 -0.4174
  298MOL0     C39257   9.062   8.846  11.019 -0.4180 -0.7646 -0.6687
  298MOL0     C39258   9.505   8.996  11.039 -0.4310  0.1743  0.3887
  298MOL0     C39259   9.631   8.951  10.994 -0.7943 -0.4306  0.2853
  298MOL0     C39260   9.752   9.023  11.011 -0.8672 -0.8483 -0.1288
  298MOL0     C39261   9.747   9.149  11.067 -0.3968 -0.7159 -0.5643
  298MOL0     O39262   9.859   9.228  11.089 -0.0294 -0.1764 -0.0712
  298MOL0     C39263   9.988   9.162  11.075 -0.2737 -0.2924 -0.8622
  298MOL0     C39264  10.085   9.247  11.160 -0.1700 -0.0916  0.4320
  298MOL0     C39265  10.234   9.209  11.188 -0.2787 -0.1415 -0.1163
  298MOL0     C39266  10.320   9.289  11.287 -0.1572  0.2602  0.4317
  298MOL0     C39267  10.355   9.427  11.236 -0.1958 -0.1211 -0.1433
  298MOL0     C39268  10.390   9.535  11.198  0.4655  0.1052  0.1612
  298MOL0     C39269   9.622   9.199  11.097 -0.2112 -0.1333  0.0573
  298MOL0     C39270   9.499   9.131  11.079  0.2461  0.5374  0.4207
  298MOL0     H39271   9.241   8.794  11.292  0.0945 -1.5492 -0.0183
  298MOL0     H39272   9.091   8.617  11.333  0.8057 -0.5286  0.0380
  298MOL0     H39273   8.714   8.655  11.046  2.1107  0.5201  0.1196
  298MOL0     H39274   8.691   8.701  11.215 -1.1130  0.0357  0.6042
  298MOL0     H39275   8.635   8.473  11.275  2.4782  4.0600  1.3510
  298MOL0     H39276   8.679   8.409  11.126  1.9871  0.0453  3.2532
  298MOL0     H39277   8.493   8.535  11.004 -0.5012 -0.2731 -1.1630
  298MOL0     H39278   8.464   8.611  11.170  0.6215 -2.5499  1.6240
  298MOL0     H39279   8.441   8.310  11.117  1.8385  0.9201 -1.6147
  298MOL0     H39280   8.380   8.410  11.253  1.0849 -0.6066 -0.1886
  298MOL0     H39281   8.211   8.325  11.046 -0.9318  0.6155 -5.1483
  298MOL0     H39282   8.266   8.476  10.985  1.3819  4.0302  2.6878
  298MOL0     H39283   8.201   8.608  11.149  0.2124 -0.3077 -1.4045
  298MOL0     H39284   8.159   8.486  11.265 -2.6204  0.6618 -0.3473
  298MOL0     H39285   8.016   8.515  10.996  0.7759  0.4452  0.0786
  298MOL0     H39286   7.986   8.386  11.115  1.0327 -0.8408 -3.4731
  298MOL0     H39287   7.915   8.667  11.165  0.2695 -0.2399 -3.0486
  298MOL0     H39288   7.902   8.524  11.275 -2.0635 -1.0953  0.4728
  298MOL0     H39289   7.692   8.409  11.275  0.2662 -0.0680 -0.2950
  298MOL0     H39290   7.503   8.246  11.158 -1.5704 -0.5279 -0.1192
  298MOL0     H39291   7.429   8.297  11.008 -3.1153 -1.7477  1.4638
  298MOL0     H39292   7.357   8.402  11.280 -2.6092  1.7549  0.4979
  298MOL0     H39293   7.258   8.357  11.148 -0.4931 -0.7417  0.9844
  298MOL0     H39294   7.425   8.617  11.190 -0.5949 -1.0957  4.0261
  298MOL0     H39295   7.345   8.574  11.034  0.4358  3.2450  0.2526
  298MOL0     H39296   7.130   8.583  11.132  1.4467 -0.1782 -1.5967
  298MOL0     H39297   7.226   8.727  11.179 -2.2273  0.5956  0.6824
  298MOL0     H39298   7.022   8.779  11.222  0.7244 -0.1843  0.6129
  298MOL0     H39299   6.875   8.949  11.339  3.5873  1.0911 -3.1407
  298MOL0     H39300   6.718   9.326  11.478  0.8998  0.6150  0.8974
  298MOL0     H39301   6.563   9.467  11.574 -0.5905  0.6083  1.9135
  298MOL0     H39302   6.259   9.301  11.859  4.2011  0.3247  0.3462
  298MOL0     H39303   6.166   9.391  11.727 -1.2818  3.7566  1.8918
  298MOL0     H39304   6.238   9.612  11.860  0.5941 -0.0591  0.2055
  298MOL0     H39305   6.270   9.504  11.989 -0.4748 -0.1897  0.4304
  298MOL0     H39306   6.001   9.541  11.838 -2.1520  3.4185  2.1923
  298MOL0     H39307   6.034   9.596  11.996 -2.0521 -0.5872 -0.2014
  298MOL0     H39308   5.996   9.308  11.904 -1.1976 -2.2905  1.4321
  298MOL0     H39309   6.083   9.347  12.054 -1.1556 -0.6607  0.4996
  298MOL0     H39310   5.814   9.487  12.009 -2.3250 -0.8488  0.7238
  298MOL0     H39311   5.875   9.393  12.148 -2.5582 -0.4682  0.2726
  298MOL0     H39312   5.678   9.277  12.076  0.0592 -0.5143  0.5834
  298MOL0     H39313   5.821   9.180  12.021  1.0816  1.1941  2.5300
  298MOL0     H39314   5.659   9.380  11.864  1.6211  1.1027  0.4250
  298MOL0     H39315   5.798   9.287  11.789 -1.8443  0.3504 -1.8474
  298MOL0     H39316   5.526   9.175  11.891  1.6363  1.4475  2.1129
  298MOL0     H39317   5.671   9.074  11.859  0.3787  1.1353  3.4495
  298MOL0     H39318   6.392   9.151  11.802 -0.7149  1.3220 -0.8121
  298MOL0     H39319   6.560   8.993  11.716  2.9235 -0.6008  2.0818
  298MOL0     H39320   7.043   8.820  11.705  0.9207 -0.7420  0.2291
  298MOL0     H39321   7.188   8.667  11.599 -0.4283 -1.6510 -1.8026
  298MOL0     H39322   8.884   8.736  10.969 -1.4984 -1.3300  0.6438
  298MOL0     H39323   9.069   8.889  10.919  3.8453 -4.6794 -2.4274
  298MOL0     H39324   9.629   8.855  10.945  1.3534 -1.0178  1.2333
  298MOL0     H39325   9.849   8.988  10.976  0.5499  1.8861  0.7844
  298MOL0     H39326  10.022   9.156  10.971  0.4896 -1.1634 -0.5748
  298MOL0     H39327   9.989   9.059  11.113  1.3922 -0.3803 -1.0534
  298MOL0     H39328  10.096   9.346  11.114  2.8521 -1.1972 -1.5891
  298MOL0     H39329  10.031   9.260  11.254 -1.2302 -1.8406  0.1002
  298MOL0     H39330  10.285   9.212  11.092  1.6327  1.0698  0.8775
  298MOL0     H39331  10.231   9.106  11.226  0.7879 -0.0190  0.3348
  298MOL0     H39332  10.281   9.285  11.389  2.7571 -1.2177  1.5895
  298MOL0     H39333  10.413   9.232  11.281  1.1242  2.2166  0.8510
  298MOL0     H39334  10.428   9.635  11.194 -1.1170  0.7286  0.0379
  298MOL0     H39335   9.613   9.297  11.142  2.2365  0.4614 -0.5890
  298MOL0     H39336   9.409   9.175  11.120 -0.6685  1.0429 -1.9262
  299MOL0     O39337   5.144   2.220   5.292 -0.3134  0.2599 -0.5617
  299MOL0     C39338   5.068   2.203   5.202 -0.2681 -0.1628  0.2666
  299MOL0     O39339   5.099   2.189   5.066  0.8363 -0.3635 -0.8180
  299MOL0     C39340   5.237   2.201   5.030 -0.0240  0.2095 -0.5586
  299MOL0     C39341   5.269   2.305   4.944 -0.5916 -0.2768 -0.0504
  299MOL0     C39342   5.399   2.316   4.892 -0.4339  0.6401 -0.3727
  299MOL0     C39343   5.501   2.229   4.925  0.6205 -0.6125  0.6780
  299MOL0     O39344   5.624   2.253   4.873  0.4623 -0.1035 -0.5938
  299MOL0     C39345   5.736   2.183   4.933  0.0564  0.4173  1.4410
  299MOL0     C39346   5.856   2.225   4.848  0.2237 -0.8788 -0.4346
  299MOL0     C39347   5.909   2.357   4.902 -0.7946 -1.0340 -0.6101
  299MOL0     C39348   5.969   2.341   5.047 -0.3709  0.0370  1.0363
  299MOL0     C39349   6.077   2.242   5.054  0.5498 -0.6616  0.8288
  299MOL0     C39350   6.154   2.262   5.187 -0.1010 -0.1071 -0.1553
  299MOL0     C39351   6.241   2.141   5.229 -0.0108  0.0656 -0.3372
  299MOL0     C39352   6.316   2.070   5.113  0.2135 -0.9337 -0.6051
  299MOL0     N39353   6.397   2.150   5.021 -0.1324 -0.2165 -0.1746
  299MOL0     C39354   6.489   2.250   5.067  0.8211  0.2570 -0.0964
  299MOL0     C39355   6.536   2.300   4.953 -0.1534  0.1279  0.3077
  299MOL0     C39356   6.634   2.417   4.946 -0.2421 -0.5915  0.4379
  299MOL0     C39357   6.779   2.364   4.938 -0.3403  0.5339  0.3093
  299MOL0     C39358   6.864   2.424   5.053 -0.5329  0.1890  1.1850
  299MOL0     C39359   6.832   2.374   5.181 -0.9867  0.5965 -0.5518
  299MOL0     O39360   6.820   2.232   5.188  0.2959 -0.1095  0.1052
  299MOL0     C39361   6.737   2.170   5.280  0.4279  0.1289  0.4548
  299MOL0     C39362   6.690   2.039   5.247 -0.3749  0.2056 -0.4921
  299MOL0     C39363   6.603   1.974   5.334 -0.5313  0.4521  0.4469
  299MOL0     C39364   6.569   2.041   5.457 -0.0088  0.8981 -0.5480
  299MOL0     C39365   6.487   1.977   5.562 -0.9238  0.2471  0.5874
  299MOL0     O39366   6.442   2.057   5.669 -0.0373 -0.0022  0.1781
  299MOL0     C39367   6.373   2.009   5.780 -0.4494  0.7648 -1.1842
  299MOL0     C39368   6.256   1.929   5.759  0.8352 -0.8243  0.0685
  299MOL0     C39369   6.185   1.876   5.869 -0.7956  0.6163  0.1351
  299MOL0     C39370   6.229   1.907   5.999 -0.0628 -0.0898  0.3013
  299MOL0     O39371   6.154   1.862   6.106 -0.2963  1.3057  0.3279
  299MOL0     C39372   6.007   1.869   6.101  0.1247 -0.1034  0.1633
  299MOL0     C39373   5.954   1.869   6.251 -0.0570  0.1777 -0.0878
  299MOL0     C39374   5.797   1.882   6.257 -0.3266  0.1006  0.1756
  299MOL0     C39375   5.761   1.868   6.404  0.3100  0.3406  0.0482
  299MOL0     C39376   5.606   1.879   6.424 -0.2527  0.4152 -0.5467
  299MOL0     C39377   5.566   1.914   6.566 -0.6343  0.6584  0.3056
  299MOL0     C39378   5.422   1.955   6.563  0.0614 -0.6285 -0.3609
  299MOL0     C39379   5.366   1.999   6.700  0.7619 -0.3875  0.3368
  299MOL0    Cl39380   5.205   2.081   6.666  0.2911  0.2835 -0.0085
  299MOL0     C39381   6.347   1.986   6.019 -0.0133 -0.2188 -0.2759
  299MOL0     C39382   6.423   2.035   5.915  0.6766 -0.1131  0.8624
  299MOL0     O39383   6.477   1.851   5.558  0.4723 -0.4670 -0.2525
  299MOL0     C39384   6.619   2.170   5.489 -0.8924 -0.1296  0.3448
  299MOL0     C39385   6.707   2.229   5.398  0.3570  0.5320 -0.0288
  299MOL0     N39386   6.477   2.237   4.838 -0.1922 -0.7999 -0.1186
  299MOL0     N39387   6.399   2.143   4.885  0.2216 -0.1661  0.6962
  299MOL0     C39388   5.468   2.126   5.018  0.6508  0.2221  0.5540
  299MOL0     C39389   5.336   2.113   5.071 -0.2523 -0.3183  0.1868
  299MOL0     C39390   4.924   2.203   5.243 -0.4095 -0.0438  0.8855
  299MOL0     C39391   4.830   2.212   5.140 -0.2235 -1.0979  0.7570
  299MOL0     C39392   4.695   2.191   5.158 -0.3353 -0.0345 -0.2544
  299MOL0     C39393   4.643   2.174   5.286 -0.2006  0.8275 -0.5226
  299MOL0     O39394   4.507   2.183   5.304  0.3471 -0.3546 -0.4801
  299MOL0     C39395   4.440   2.119   5.419  1.4993 -0.6205 -0.0494
  299MOL0     C39396   4.296   2.102   5.387  0.4073  0.1372 -1.0367
  299MOL0     C39397   4.242   1.983   5.476  0.5511 -0.6978 -0.6134
  299MOL0     C39398   4.253   2.017   5.629  0.7641  0.1991 -0.0319
  299MOL0     C39399   4.176   2.136   5.672  0.7430 -0.2743  0.8318
  299MOL0     C39400   4.112   2.232   5.704 -0.7334 -0.3070 -0.9034
  299MOL0     C39401   4.731   2.166   5.396 -0.8945  0.8148 -0.5559
  299MOL0     C39402   4.874   2.181   5.372 -0.6062 -1.1197  0.3182
  299MOL0     H39403   5.197   2.379   4.910  1.2669  1.2881 -0.8228
  299MOL0     H39404   5.415   2.392   4.817 -1.8474  1.0619 -0.2889
  299MOL0     H39405   5.721   2.075   4.922 -1.1683  0.6534  0.5854
  299MOL0     H39406   5.744   2.193   5.042  1.0086 -0.7428  1.4977
  299MOL0     H39407   5.826   2.226   4.743 -1.8063 -0.1736  0.0984
  299MOL0     H39408   5.931   2.146   4.849  0.9540 -0.1965  0.4625
  299MOL0     H39409   5.823   2.425   4.913 -1.5225 -2.2530  2.0466
  299MOL0     H39410   5.985   2.408   4.841  0.1815 -2.8936 -0.9974
  299MOL0     H39411   6.004   2.439   5.083 -0.3713 -0.5971  2.8414
  299MOL0     H39412   5.890   2.319   5.119 -0.8287 -2.6760 -0.1777
  299MOL0     H39413   6.143   2.260   4.969  2.2985  0.2149  2.3087
  299MOL0     H39414   6.024   2.148   5.034 -4.0360  2.0740 -1.8084
  299MOL0     H39415   6.088   2.268   5.274  1.5230  0.4469  1.0963
  299MOL0     H39416   6.216   2.352   5.182 -0.9290  0.6764  2.2161
  299MOL0     H39417   6.304   2.170   5.314  1.1102 -2.2328 -0.3093
  299MOL0     H39418   6.164   2.073   5.267 -0.7837  1.9224  1.6578
  299MOL0     H39419   6.240   2.011   5.061 -0.5421 -2.9428  2.5297
  299MOL0     H39420   6.378   2.002   5.172 -0.2234 -1.0631 -0.2929
  299MOL0     H39421   6.516   2.285   5.167 -0.2231  3.2517 -0.7574
  299MOL0     H39422   6.614   2.493   5.022 -0.2635  0.0484 -0.1932
  299MOL0     H39423   6.614   2.452   4.844  1.2176  0.9088  0.6183
  299MOL0     H39424   6.819   2.387   4.839  0.5904  0.4717  0.6592
  299MOL0     H39425   6.785   2.255   4.944  0.5762  0.3897 -2.0691
  299MOL0     H39426   6.965   2.394   5.026 -0.6186  1.3691 -0.6177
  299MOL0     H39427   6.859   2.533   5.040 -0.4790 -0.1463 -4.1626
  299MOL0     H39428   6.745   2.428   5.219 -0.7510  1.7241 -1.5548
  299MOL0     H39429   6.922   2.389   5.242 -0.6453 -0.1665 -0.8674
  299MOL0     H39430   6.716   2.002   5.148  1.8788 -0.0962  0.1523
  299MOL0     H39431   6.562   1.876   5.308  1.4725 -0.6009  1.0425
  299MOL0     H39432   6.221   1.905   5.659  0.4071 -0.7974  0.2136
  299MOL0     H39433   6.088   1.834   5.843 -0.8058  1.0099 -0.4719
  299MOL0     H39434   5.965   1.788   6.041  4.3147  1.3716 -5.6643
  299MOL0     H39435   5.976   1.960   6.049 -0.6296 -0.7182 -0.4942
  299MOL0     H39436   5.997   1.955   6.304  3.1005  0.3422 -2.6002
  299MOL0     H39437   5.988   1.779   6.304 -0.2523  0.6563  0.8823
  299MOL0     H39438   5.743   1.813   6.192 -2.1385  0.7469  0.9325
  299MOL0     H39439   5.771   1.982   6.218 -0.2674 -0.0167 -0.1692
  299MOL0     H39440   5.785   1.768   6.441 -1.8615  0.9766  3.7416
  299MOL0     H39441   5.812   1.944   6.464  2.1153 -0.9701  0.2733
  299MOL0     H39442   5.563   1.784   6.394  0.5761 -1.3626  3.2709
  299MOL0     H39443   5.571   1.956   6.354 -0.2570  1.2123  0.3111
  299MOL0     H39444   5.623   1.999   6.604  0.1554 -0.3988  1.5526
  299MOL0     H39445   5.581   1.834   6.638  0.1102  1.8577  1.5311
  299MOL0     H39446   5.401   2.042   6.501 -2.0334 -0.7821  0.0503
  299MOL0     H39447   5.355   1.876   6.526 -2.8453  0.4813  2.0896
  299MOL0     H39448   5.434   2.069   6.749  0.0007 -0.3458  1.3611
  299MOL0     H39449   5.360   1.912   6.766  0.0246 -0.6903 -0.1176
  299MOL0     H39450   6.375   2.018   6.119 -0.1524  4.3968 -1.4676
  299MOL0     H39451   6.514   2.092   5.932 -0.7385  2.8551 -0.7279
  299MOL0     H39452   6.607   2.226   5.580 -0.5486  0.4871  0.0188
  299MOL0     H39453   6.750   2.323   5.431  0.4263  0.1020  1.1375
  299MOL0     H39454   5.540   2.051   5.049 -1.8395 -2.1540  0.9620
  299MOL0     H39455   5.311   2.040   5.148 -0.4938 -0.7042 -0.2497
  299MOL0     H39456   4.849   2.221   5.033 -2.1071  3.5407  0.5555
  299MOL0     H39457   4.631   2.194   5.070  0.2861  4.7292 -0.8267
  299MOL0     H39458   4.449   2.171   5.515 -1.3691  0.4585 -0.2663
  299MOL0     H39459   4.486   2.020   5.420  0.7227 -1.1113 -3.1577
  299MOL0     H39460   4.236   2.190   5.412 -0.4290 -0.9447  0.9526
  299MOL0     H39461   4.278   2.072   5.283  3.3535 -2.3476 -0.9598
  299MOL0     H39462   4.307   1.896   5.462  0.1347 -1.5376  2.1442
  299MOL0     H39463   4.142   1.946   5.453  0.4882 -0.7450 -0.2681
  299MOL0     H39464   4.222   1.935   5.694  2.5993 -2.4733 -2.3093
  299MOL0     H39465   4.357   2.038   5.652  0.5782  2.4083 -0.9378
  299MOL0     H39466   4.056   2.321   5.727 -2.7403 -1.2703 -1.7727
  299MOL0     H39467   4.716   2.140   5.500  0.8114  2.3221  0.1128
  299MOL0     H39468   4.943   2.155   5.452  1.3865 -0.3350 -1.0677
  300MOL0     O39469   3.348   7.412   1.740  0.6133  0.4062 -0.3238
  300MOL0     C39470   3.404   7.360   1.840 -0.4180 -0.6792 -0.4083
  300MOL0     O39471   3.344   7.356   1.964  1.2276 -0.4585  0.1432
  300MOL0     C39472   3.220   7.414   1.976 -0.7106 -0.0445 -0.3764
  300MOL0     C39473   3.115   7.347   2.033  0.6293  0.9914 -0.4222
  300MOL0     C39474   2.995   7.417   2.064  0.3196 -0.5976  0.3819
  300MOL0     C39475   2.978   7.550   2.035  0.0532 -0.6972 -0.6130
  300MOL0     O39476   2.861   7.612   2.089 -0.1880  0.5690  0.2157
  300MOL0     C39477   2.885   7.734   2.155 -0.3327 -0.0590 -0.8896
  300MOL0     C39478   2.749   7.770   2.237 -0.9907 -0.0437 -0.6712
  300MOL0     C39479   2.738   7.915   2.270  0.0650  0.1713 -0.1815
  300MOL0     C39480   2.614   7.945   2.357  0.1948 -0.0757 -0.4055
  300MOL0     C39481   2.643   8.069   2.453 -0.0630  0.1682  0.0712
  300MOL0     C39482   2.660   8.196   2.375  0.3808  0.1556 -0.4553
  300MOL0     C39483   2.807   8.228   2.334 -0.2170  0.0724  0.7610
  300MOL0     C39484   2.844   8.371   2.326 -0.7610 -0.3527 -0.6548
  300MOL0     N39485   2.765   8.449   2.225 -0.7300  0.4650 -1.0230
  300MOL0     C39486   2.729   8.404   2.104 -0.4621 -0.7173 -0.3048
  300MOL0     C39487   2.706   8.521   2.029  0.7345 -0.1946 -0.7341
  300MOL0     C39488   2.669   8.522   1.882  0.1386  0.3226 -0.5386
  300MOL0     C39489   2.571   8.410   1.846  1.2837 -0.2750  0.0813
  300MOL0     C39490   2.440   8.438   1.922  0.9092  0.6872  0.0224
  300MOL0     C39491   2.313   8.391   1.847 -0.7291 -0.3774 -0.1374
  300MOL0     O39492   2.201   8.356   1.937 -0.3781  0.1796 -0.0279
  300MOL0     C39493   2.073   8.352   1.876 -1.2134  0.4526 -0.4940
  300MOL0     C39494   2.040   8.353   1.749  0.4755  0.4040  0.3250
  300MOL0     C39495   1.909   8.356   1.711 -0.0352  0.7726  0.4034
  300MOL0     C39496   1.801   8.365   1.799  0.3795  0.3254 -0.7913
  300MOL0     C39497   1.652   8.380   1.750  0.4634 -1.3566 -0.6259
  300MOL0     O39498   1.553   8.347   1.830  0.3344  1.3165 -0.2231
  300MOL0     C39499   1.432   8.330   1.770  0.3955  1.1348 -0.8155
  300MOL0     C39500   1.325   8.388   1.838 -0.3878  0.3694  0.1923
  300MOL0     C39501   1.198   8.368   1.788 -0.3207  0.0697  0.2792
  300MOL0     C39502   1.172   8.287   1.672  0.2898  0.1252  0.0519
  300MOL0     O39503   1.050   8.249   1.636  0.2995 -0.1503 -0.8074
  300MOL0     C39504   0.976   8.351   1.570 -0.3774 -0.9176 -0.5822
  300MOL0     C39505   0.855   8.411   1.654 -1.2267 -0.4473  0.0694
  300MOL0     C39506   0.746   8.310   1.688  0.0906 -0.4009 -0.6373
  300MOL0     C39507   0.630   8.377   1.768 -0.2996  0.4143 -0.2343
  300MOL0     C39508   0.501   8.317   1.730 -0.1303  0.5375 -0.6306
  300MOL0     C39509   0.375   8.374   1.793 -0.5860  0.5477 -0.6734
  300MOL0     C39510   0.328   8.515   1.738  0.5680 -1.0649  0.1000
  300MOL0     C39511   0.206   8.559   1.831  0.4243 -0.0310  0.6929
  300MOL0    Cl39512   0.086   8.684   1.769 -0.9258 -0.4987 -0.0762
  300MOL0     C39513   1.273   8.231   1.598 -0.0163 -0.5006  0.1826
  300MOL0     C39514   1.404   8.255   1.650  0.2884 -0.5140 -0.0218
  300MOL0     O39515   1.646   8.421   1.635 -0.3535  0.1690  0.6002
  300MOL0     C39516   1.839   8.364   1.934  0.3750 -0.2426  0.7864
  300MOL0     C39517   1.968   8.358   1.977 -0.7501  1.1565 -0.0011
  300MOL0     N39518   2.737   8.633   2.107  0.4770  0.2332  0.0880
  300MOL0     N39519   2.781   8.582   2.218  0.6851  0.0170  0.3604
  300MOL0     C39520   3.084   7.620   1.966 -0.5918  0.4050  0.7329
  300MOL0     C39521   3.210   7.552   1.949 -0.0028 -0.0385  0.9343
  300MOL0     C39522   3.537   7.287   1.822 -0.0214  0.3338  0.1312
  300MOL0     C39523   3.605   7.286   1.691 -0.1010 -0.1529  0.5907
  300MOL0     C39524   3.725   7.215   1.678 -0.1698 -0.3098  0.3176
  300MOL0     C39525   3.778   7.146   1.783  0.4090  0.0014  0.0926
  300MOL0     O39526   3.894   7.083   1.746  0.5203 -0.3283  0.0903
  300MOL0     C39527   3.967   7.003   1.844  0.1418  0.3321 -0.2354
  300MOL0     C39528   4.096   7.079   1.885  0.3673 -0.1762  0.0624
  300MOL0     C39529   4.205   7.086   1.781  0.5562 -0.7312 -0.5225
  300MOL0     C39530   4.266   6.961   1.737 -0.6768  0.0231  0.2404
  300MOL0     C39531   4.376   6.917   1.830 -0.0285 -0.4650  0.4805
  300MOL0     C39532   4.460   6.865   1.903 -0.2102 -0.8612 -0.0406
  300MOL0     C39533   3.715   7.151   1.908 -0.4960  0.6933  0.0509
  300MOL0     C39534   3.593   7.215   1.925  0.0797 -0.1054  0.7377
  300MOL0     H39535   3.114   7.242   2.063 -3.1395  0.6258 -1.2937
  300MOL0     H39536   2.917   7.360   2.113 -0.1212 -0.7865 -0.5313
  300MOL0     H39537   2.913   7.813   2.084 -0.9634 -0.1403 -1.2377
  300MOL0     H39538   2.969   7.728   2.225 -0.5296  1.0482 -0.5334
  300MOL0     H39539   2.751   7.710   2.329 -0.8570  0.9841  0.0152
  300MOL0     H39540   2.659   7.737   2.183 -0.7131  0.0988 -1.2264
  300MOL0     H39541   2.741   7.970   2.175  4.3813 -1.5598 -1.2596
  300MOL0     H39542   2.820   7.949   2.335 -0.4485  2.8837 -0.8096
  300MOL0     H39543   2.531   7.959   2.287  2.0603  0.8273 -2.5604
  300MOL0     H39544   2.600   7.858   2.421  1.3104  0.6427  0.8845
  300MOL0     H39545   2.722   8.056   2.528 -1.1725  1.3271  1.4857
  300MOL0     H39546   2.549   8.079   2.508 -1.2936 -2.6791 -1.3297
  300MOL0     H39547   2.626   8.283   2.432 -0.7155 -0.5779  0.0432
  300MOL0     H39548   2.597   8.186   2.286 -2.6843 -1.3507  1.6909
  300MOL0     H39549   2.859   8.190   2.422 -1.7756  0.7043  1.9946
  300MOL0     H39550   2.839   8.177   2.243  2.7546 -0.1040  1.7963
  300MOL0     H39551   2.950   8.372   2.299  0.5250 -0.9982  3.6796
  300MOL0     H39552   2.836   8.428   2.419  1.7716  2.7049 -2.1214
  300MOL0     H39553   2.729   8.300   2.075  2.3598 -1.0164  0.4412
  300MOL0     H39554   2.759   8.511   1.821  0.1700 -0.3399 -0.3823
  300MOL0     H39555   2.614   8.615   1.868 -1.7449 -0.5480  0.6435
  300MOL0     H39556   2.598   8.313   1.888 -1.5826 -0.3590  1.9836
  300MOL0     H39557   2.540   8.398   1.742 -3.5236  0.3757  1.2113
  300MOL0     H39558   2.439   8.387   2.019 -3.4315  0.1635 -0.1117
  300MOL0     H39559   2.430   8.542   1.953  0.8497  0.1231  2.0468
  300MOL0     H39560   2.325   8.302   1.784 -1.1327 -1.3750  1.1405
  300MOL0     H39561   2.285   8.470   1.777  2.4262  0.6112 -0.4490
  300MOL0     H39562   2.108   8.356   1.665  1.9202  1.4625  1.4721
  300MOL0     H39563   1.880   8.356   1.606 -0.2597  1.3595  0.4615
  300MOL0     H39564   1.346   8.442   1.929  0.6826 -0.6524  0.5753
  300MOL0     H39565   1.120   8.405   1.854  0.3701 -0.3597  1.3609
  300MOL0     H39566   0.930   8.303   1.482  0.7190  0.9070 -2.2297
  300MOL0     H39567   1.046   8.429   1.540  0.8643 -2.0388 -0.6578
  300MOL0     H39568   0.812   8.496   1.601  1.3983  2.2737  1.9972
  300MOL0     H39569   0.904   8.434   1.749  1.5285 -0.1998 -1.2938
  300MOL0     H39570   0.791   8.228   1.744 -2.1164 -1.9539 -1.0338
  300MOL0     H39571   0.711   8.272   1.591  2.1898 -2.2131 -0.7559
  300MOL0     H39572   0.652   8.363   1.874 -2.0582  1.8368  0.3728
  300MOL0     H39573   0.620   8.486   1.760  2.5826  0.6078 -3.5040
  300MOL0     H39574   0.518   8.212   1.756  1.4828  1.1096  0.8115
  300MOL0     H39575   0.497   8.325   1.621 -1.6583 -1.6394 -0.7993
  300MOL0     H39576   0.397   8.385   1.900 -2.3211 -2.0142  0.0314
  300MOL0     H39577   0.295   8.299   1.788 -2.0915  1.8132  2.1953
  300MOL0     H39578   0.411   8.586   1.747 -0.5267  0.6154 -2.1625
  300MOL0     H39579   0.305   8.521   1.632  0.9086  2.4929  0.0973
  300MOL0     H39580   0.258   8.596   1.920 -0.6017  0.2568  1.1880
  300MOL0     H39581   0.150   8.471   1.863 -0.3278  0.0686 -0.2896
  300MOL0     H39582   1.248   8.177   1.507 -3.8401  0.9469  0.1851
  300MOL0     H39583   1.482   8.209   1.589  1.9066  0.4236  1.2355
  300MOL0     H39584   1.765   8.382   2.012 -1.0168 -0.1593 -0.4877
  300MOL0     H39585   1.987   8.330   2.080  0.5975 -3.0840 -1.1748
  300MOL0     H39586   3.076   7.724   1.936  0.5068  0.1870 -0.4209
  300MOL0     H39587   3.302   7.600   1.919  0.4272 -1.0514  0.5908
  300MOL0     H39588   3.574   7.349   1.608  3.4057  0.0368 -0.7256
  300MOL0     H39589   3.774   7.211   1.581 -0.3786  1.6657  0.0973
  300MOL0     H39590   3.974   6.903   1.801 -2.1068 -0.2710  0.6449
  300MOL0     H39591   3.907   6.983   1.933 -0.8388 -0.9368 -1.1425
  300MOL0     H39592   4.066   7.175   1.929  0.6484  0.1508 -0.4517
  300MOL0     H39593   4.138   7.024   1.970  1.1347  0.0995 -0.1304
  300MOL0     H39594   4.281   7.153   1.823 -1.7939  1.3204  0.6999
  300MOL0     H39595   4.164   7.142   1.696 -2.6422 -0.9312  0.7774
  300MOL0     H39596   4.190   6.883   1.727 -0.8907 -0.4163  4.0259
  300MOL0     H39597   4.302   6.973   1.634 -3.2479  1.0888 -0.6231
  300MOL0     H39598   4.530   6.811   1.964  0.8468 -1.1710 -1.4753
  300MOL0     H39599   3.750   7.095   1.994 -0.5248 -1.5238 -1.3205
  300MOL0     H39600   3.545   7.210   2.022 -1.8257  1.9292 -0.0245
  301MOL0     O39601   9.011  10.353   3.588 -0.2769  0.3027  0.2524
  301MOL0     C39602   9.027  10.238   3.624 -0.4640 -0.1330 -0.4817
  301MOL0     O39603   8.935  10.161   3.674 -0.2358 -0.1259 -0.0946
  301MOL0     C39604   8.804  10.212   3.670 -0.2011 -0.6182 -0.0183
  301MOL0     C39605   8.727  10.227   3.551  0.4480 -0.2375  0.4027
  301MOL0     C39606   8.599  10.298   3.557 -0.2575  0.5709 -0.0470
  301MOL0     C39607   8.544  10.334   3.687  0.3105  0.2832  0.7394
  301MOL0     O39608   8.416  10.389   3.701 -0.2572  0.2303  0.6747
  301MOL0     C39609   8.330  10.405   3.585  0.3690 -0.9974 -0.0801
  301MOL0     C39610   8.194  10.459   3.624  0.4747  0.1202 -0.6365
  301MOL0     C39611   8.101  10.366   3.707  0.4575 -0.2619 -0.3223
  301MOL0     C39612   7.993  10.431   3.795 -0.8659 -0.3450  0.2368
  301MOL0     C39613   8.065  10.487   3.924  1.5311  0.5136  0.4813
  301MOL0     C39614   7.958  10.583   3.979 -0.4208 -0.2598 -0.3084
  301MOL0     C39615   7.827  10.530   4.029  0.1417  1.0480 -0.0409
  301MOL0     C39616   7.764  10.638   4.118  0.9398 -0.0380 -0.8169
  301MOL0     N39617   7.619  10.615   4.136 -0.3768 -0.7317 -0.1634
  301MOL0     C39618   7.547  10.515   4.083 -0.2205 -0.4782 -0.2545
  301MOL0     C39619   7.417  10.535   4.123 -1.2974 -0.1062 -0.9237
  301MOL0     C39620   7.296  10.457   4.078 -0.1284 -0.1227 -0.2853
  301MOL0     C39621   7.181  10.540   4.018  0.9045  0.3693 -0.4431
  301MOL0     C39622   7.039  10.480   4.054  0.1217 -0.1185  0.0504
  301MOL0     C39623   7.012  10.357   3.960 -0.5753  0.3358 -0.3030
  301MOL0     O39624   7.024  10.396   3.816 -0.4257 -0.0355  0.3551
  301MOL0     C39625   6.910  10.446   3.752  0.1266 -0.7003  0.4362
  301MOL0     C39626   6.785  10.454   3.812  0.8864 -0.1365  0.0253
  301MOL0     C39627   6.674  10.503   3.747 -0.2493 -0.5061  0.3829
  301MOL0     C39628   6.695  10.542   3.609 -0.6640 -0.0993 -0.3004
  301MOL0     C39629   6.580  10.579   3.526  0.2703  0.7682 -0.2138
  301MOL0     O39630   6.591  10.568   3.385  0.7758  0.0725 -0.0399
  301MOL0     C39631   6.470  10.600   3.319 -0.0978 -0.1057  0.3938
  301MOL0     C39632   6.413  10.509   3.235 -1.5974  0.1635  0.1070
  301MOL0     C39633   6.303  10.542   3.154  0.3303 -0.3859  0.7632
  301MOL0     C39634   6.255  10.675   3.157 -0.7576  0.7137 -0.2698
  301MOL0     O39635   6.167  10.700   3.055 -0.2628  0.0441 -0.3163
  301MOL0     C39636   6.080  10.810   3.060  0.9424 -0.4589  0.4946
  301MOL0     C39637   5.941  10.756   3.080 -0.9765  0.4615  0.5756
  301MOL0     C39638   5.902  10.644   2.974  0.5504  0.1069  0.3079
  301MOL0     C39639   5.767  10.590   2.992 -1.0730 -0.3037  0.5920
  301MOL0     C39640   5.732  10.459   2.931 -1.8481 -0.7186  0.3153
  301MOL0     C39641   5.687  10.467   2.788  0.3207  0.1684 -0.1666
  301MOL0     C39642   5.535  10.505   2.784  0.8688 -0.1515 -0.4518
  301MOL0     C39643   5.498  10.580   2.658 -0.0544  0.1708  0.4549
  301MOL0    Cl39644   5.578  10.502   2.509 -0.2098 -0.2245  0.4461
  301MOL0     C39645   6.308  10.770   3.246 -0.8276  0.0062 -0.1987
  301MOL0     C39646   6.411  10.727   3.330  0.0071  0.2445 -0.4671
  301MOL0     O39647   6.481  10.619   3.591 -0.4593 -0.3386 -0.0761
  301MOL0     C39648   6.824  10.530   3.546  0.5127  0.5058  0.4832
  301MOL0     C39649   6.930  10.481   3.620 -0.1818 -0.3627 -0.1962
  301MOL0     N39650   7.416  10.653   4.199  0.4862 -0.3273  0.4054
  301MOL0     N39651   7.537  10.698   4.210 -0.0127 -0.1507  1.1119
  301MOL0     C39652   8.624  10.320   3.798 -0.0406  0.0749 -0.3033
  301MOL0     C39653   8.746  10.258   3.797  0.3945 -0.1174 -0.2949
  301MOL0     C39654   9.162  10.179   3.616 -1.2571  0.0864  0.5983
  301MOL0     C39655   9.193  10.045   3.656 -0.8046 -0.8979  0.6769
  301MOL0     C39656   9.328   9.998   3.632 -1.1516 -0.6442  0.2421
  301MOL0     C39657   9.426  10.082   3.574 -0.3917  0.5101  0.4179
  301MOL0     O39658   9.547  10.020   3.556  0.5259  0.5841  0.7095
  301MOL0     C39659   9.667  10.102   3.524 -0.0993  1.3943  0.6759
  301MOL0     C39660   9.708  10.065   3.380  0.7099 -0.7425 -1.1089
  301MOL0     C39661   9.724   9.910   3.362  0.4311 -0.7033 -0.1378
  301MOL0     C39662   9.832   9.827   3.422  0.8545  1.2092  0.1465
  301MOL0     C39663   9.968   9.888   3.417  0.3815  0.3979  0.3501
  301MOL0     C39664  10.068   9.950   3.406  0.6211 -0.2185 -0.6521
  301MOL0     C39665   9.394  10.212   3.539  0.1287  0.4399  0.1941
  301MOL0     C39666   9.267  10.257   3.558 -0.4434 -0.5463 -0.0434
  301MOL0     H39667   8.775  10.180   3.466  0.7158  0.8307 -0.0553
  301MOL0     H39668   8.539  10.296   3.467 -0.8797  2.1587  0.3062
  301MOL0     H39669   8.315  10.311   3.530 -3.1639  0.1439 -1.3570
  301MOL0     H39670   8.382  10.485   3.533 -2.7332  1.3303  0.1492
  301MOL0     H39671   8.140  10.488   3.532  0.7930  1.1442 -0.5183
  301MOL0     H39672   8.200  10.558   3.671 -3.9937  0.0054  0.6622
  301MOL0     H39673   8.170  10.315   3.775  1.0027 -0.6434 -1.1485
  301MOL0     H39674   8.057  10.282   3.652  0.0456 -1.3058  1.4893
  301MOL0     H39675   7.945  10.511   3.737  0.9543  1.0196  0.5324
  301MOL0     H39676   7.926  10.345   3.811  3.3495 -4.0084  0.1427
  301MOL0     H39677   8.160  10.538   3.904  1.7449  0.0006  0.1878
  301MOL0     H39678   8.094  10.405   3.990  0.4491 -0.8601 -0.6726
  301MOL0     H39679   7.929  10.651   3.899  2.6537  1.6739  0.0483
  301MOL0     H39680   8.006  10.638   4.061  0.9101  1.5301 -2.1775
  301MOL0     H39681   7.765  10.518   3.940  2.6235  0.1787 -1.7464
  301MOL0     H39682   7.828  10.435   4.082 -0.0570  2.1845  2.1252
  301MOL0     H39683   7.778  10.735   4.069  0.2762  2.1142  2.8811
  301MOL0     H39684   7.826  10.648   4.207  1.0873 -0.1161 -0.9110
  301MOL0     H39685   7.577  10.438   4.013  0.9534 -0.3945  0.1349
  301MOL0     H39686   7.262  10.408   4.169 -1.8961 -0.8025 -1.2729
  301MOL0     H39687   7.331  10.383   4.006  1.0617  1.4516 -1.3896
  301MOL0     H39688   7.198  10.556   3.911  0.2579  1.7270 -0.3649
  301MOL0     H39689   7.180  10.644   4.053 -5.1315  0.3510  0.4145
  301MOL0     H39690   7.029  10.449   4.159  0.7045  1.5980  0.6381
  301MOL0     H39691   6.973  10.566   4.038  2.7424  1.6315 -2.2231
  301MOL0     H39692   6.922  10.299   3.982  0.0542 -1.6513 -2.5472
  301MOL0     H39693   7.085  10.279   3.979  1.3193  2.1616  0.3423
  301MOL0     H39694   6.785  10.420   3.915  0.0596 -3.3688 -0.9326
  301MOL0     H39695   6.585  10.527   3.803 -0.4056  0.8418 -0.3980
  301MOL0     H39696   6.460  10.411   3.229 -2.7016 -0.3475 -0.6641
  301MOL0     H39697   6.265  10.472   3.081 -0.3088  0.2884  0.4317
  301MOL0     H39698   6.076  10.869   2.968 -0.6118  0.3155  1.0349
  301MOL0     H39699   6.106  10.875   3.144  1.5455 -1.4561  1.1065
  301MOL0     H39700   5.862  10.832   3.089 -2.3904 -0.8660 -0.1078
  301MOL0     H39701   5.954  10.715   3.181 -1.4841 -0.1420  0.4061
  301MOL0     H39702   5.983  10.570   2.974  0.7815  0.2938  2.6929
  301MOL0     H39703   5.897  10.685   2.872  2.8562 -1.4956 -0.5414
  301MOL0     H39704   5.748  10.596   3.100  0.8450  2.3796  0.8832
  301MOL0     H39705   5.703  10.665   2.944  1.5370  0.3908 -2.0516
  301MOL0     H39706   5.650  10.415   2.990 -1.7068 -0.9164  0.3647
  301MOL0     H39707   5.824  10.400   2.937 -0.5781  1.0606 -0.6932
  301MOL0     H39708   5.701  10.368   2.743  2.1439  0.2973  0.0641
  301MOL0     H39709   5.747  10.529   2.721  0.6057  0.9200  0.7614
  301MOL0     H39710   5.477  10.412   2.784  2.3049 -1.0817 -0.4861
  301MOL0     H39711   5.514  10.572   2.868  2.7310  0.8774 -0.7396
  301MOL0     H39712   5.528  10.685   2.663 -0.8785  0.3902  0.9543
  301MOL0     H39713   5.389  10.576   2.644 -0.1050  0.4891  0.7577
  301MOL0     H39714   6.279  10.874   3.243 -1.2282 -0.0698  0.7804
  301MOL0     H39715   6.458  10.798   3.396  1.6092 -0.0448 -1.2581
  301MOL0     H39716   6.847  10.550   3.442 -0.1631  0.6089  0.3468
  301MOL0     H39717   7.027  10.458   3.578 -0.3716 -1.7902  0.0765
  301MOL0     H39718   8.581  10.353   3.892 -1.0283 -0.9168 -0.3845
  301MOL0     H39719   8.808  10.257   3.886 -1.1450 -1.7968  0.8381
  301MOL0     H39720   9.120   9.979   3.703 -0.3305 -2.7484 -1.0591
  301MOL0     H39721   9.364   9.901   3.665  0.5557 -0.2150 -0.2620
  301MOL0     H39722   9.737  10.070   3.602  0.4492 -0.8283 -0.6272
  301MOL0     H39723   9.661  10.211   3.530  0.0557  1.3382  2.6410
  301MOL0     H39724   9.622  10.083   3.314 -0.1662 -3.2865 -0.7757
  301MOL0     H39725   9.791  10.130   3.353  0.7536 -0.3270 -0.0056
  301MOL0     H39726   9.741   9.905   3.254  0.4425  1.5728 -0.2927
  301MOL0     H39727   9.630   9.864   3.394  0.3112  0.1799  0.8206
  301MOL0     H39728   9.810   9.818   3.529  1.5991  3.4083  0.5428
  301MOL0     H39729   9.828   9.724   3.386 -0.2120  1.9016 -1.8824
  301MOL0     H39730  10.163  10.000   3.396  1.3592 -1.2851  0.6541
  301MOL0     H39731   9.466  10.268   3.482  1.1231 -2.1529 -1.2599
  301MOL0     H39732   9.259  10.362   3.528 -0.1174 -1.1029 -2.3125
  302MOL0     O39733   9.654   5.843   1.910  0.1476 -0.4976  1.0493
  302MOL0     C39734   9.699   5.727   1.904 -0.3654  0.5106 -0.4164
  302MOL0     O39735   9.674   5.624   1.815 -0.1961 -0.3865 -0.3419
  302MOL0     C39736   9.592   5.661   1.715  0.2200  0.5785 -0.2827
  302MOL0     C39737   9.482   5.591   1.670 -0.1165  0.4331  0.5520
  302MOL0     C39738   9.416   5.633   1.561  0.0927 -0.5515  0.0095
  302MOL0     C39739   9.443   5.752   1.499 -0.0621  0.7417  0.2647
  302MOL0     O39740   9.385   5.797   1.385  0.0503 -0.5031 -0.3638
  302MOL0     C39741   9.293   5.905   1.398  0.1402 -0.2687  0.5525
  302MOL0     C39742   9.190   5.889   1.281  0.6474 -0.4602 -0.5596
  302MOL0     C39743   9.088   5.774   1.283 -0.6489  0.1533  0.4140
  302MOL0     C39744   8.987   5.803   1.396 -1.2362  0.7714  0.2542
  302MOL0     C39745   8.850   5.742   1.351 -0.1783  0.2470 -1.1690
  302MOL0     C39746   8.715   5.809   1.400 -0.2752  0.2754 -0.0990
  302MOL0     C39747   8.604   5.740   1.340  1.3503 -0.1897  0.2388
  302MOL0     C39748   8.466   5.804   1.364  0.8310 -0.8094  0.6054
  302MOL0     N39749   8.366   5.731   1.278 -0.3075 -0.4790  0.9532
  302MOL0     C39750   8.324   5.598   1.280  0.2788 -0.1018 -0.1657
  302MOL0     C39751   8.225   5.594   1.191  0.4117  1.1192  0.4475
  302MOL0     C39752   8.165   5.460   1.140  0.3676 -0.7961 -0.4156
  302MOL0     C39753   8.018   5.465   1.172  0.2795 -0.8399  0.1886
  302MOL0     C39754   7.942   5.357   1.089  0.1316  0.1705 -0.5460
  302MOL0     C39755   7.795   5.351   1.112 -0.6698 -0.3055  0.1348
  302MOL0     O39756   7.757   5.262   1.007 -0.2462 -0.0822 -0.8738
  302MOL0     C39757   7.618   5.230   1.027  0.1534 -0.5696 -0.2325
  302MOL0     C39758   7.541   5.337   0.976  0.8093  0.1807  0.1777
  302MOL0     C39759   7.400   5.323   0.976  0.3108 -0.0995 -0.5451
  302MOL0     C39760   7.336   5.206   1.015 -0.7714  0.4271 -0.1497
  302MOL0     C39761   7.188   5.195   1.017  0.3130  0.1908  1.1221
  302MOL0     O39762   7.126   5.315   1.025  0.5713  0.2374  0.5848
  302MOL0     C39763   6.990   5.339   1.019  0.5393 -0.7181 -0.0493
  302MOL0     C39764   6.951   5.479   1.011  0.0604  0.3908  0.0954
  302MOL0     C39765   6.820   5.525   1.008 -0.5794  0.0353  0.2255
  302MOL0     C39766   6.722   5.424   1.008  0.3216 -0.1104 -0.2769
  302MOL0     O39767   6.597   5.473   0.995  0.3192  0.6243 -0.6236
  302MOL0     C39768   6.521   5.419   0.886  0.0139  0.4823  0.4506
  302MOL0     C39769   6.385   5.486   0.875 -0.0783  0.1660  0.0417
  302MOL0     C39770   6.310   5.517   0.999 -1.1074 -1.4130  0.1034
  302MOL0     C39771   6.185   5.602   0.957 -0.7405  0.1927 -1.1216
  302MOL0     C39772   6.103   5.660   1.072 -0.0319  0.2479  0.3518
  302MOL0     C39773   6.010   5.779   1.025 -0.1941 -0.1273  0.7948
  302MOL0     C39774   5.943   5.843   1.145  0.2125  0.2009  0.0378
  302MOL0     C39775   5.823   5.923   1.096  0.5475 -0.7003  0.4705
  302MOL0    Cl39776   5.872   6.050   0.973  0.2872 -0.4092  0.0603
  302MOL0     C39777   6.751   5.289   1.011 -0.7373 -0.5813  0.4724
  302MOL0     C39778   6.882   5.246   1.021 -1.2506  0.8418 -0.9367
  302MOL0     O39779   7.131   5.086   1.004  0.2467  0.0261  0.4907
  302MOL0     C39780   7.418   5.105   1.069 -0.0412 -0.0426 -1.1292
  302MOL0     C39781   7.552   5.110   1.070 -0.3684 -0.8554 -0.5508
  302MOL0     N39782   8.208   5.715   1.130 -0.0827  0.4029 -0.1660
  302MOL0     N39783   8.286   5.797   1.190 -0.2471  0.3461 -0.3744
  302MOL0     C39784   9.557   5.816   1.532 -0.4304  0.4606 -0.0562
  302MOL0     C39785   9.632   5.768   1.639  0.4174 -0.9474  0.4181
  302MOL0     C39786   9.808   5.695   1.996  0.1692  0.5808 -0.6199
  302MOL0     C39787   9.896   5.579   1.973 -0.4714 -0.0864 -0.7941
  302MOL0     C39788   9.997   5.547   2.078  0.2659  0.2960  0.1341
  302MOL0     C39789  10.008   5.617   2.189  0.2465  0.5000 -0.2050
  302MOL0     O39790  10.105   5.580   2.288 -0.2506  0.3867  0.6674
  302MOL0     C39791  10.050   5.557   2.419  0.0512  0.4806  0.1444
  302MOL0     C39792  10.164   5.530   2.521 -1.3327  0.1535 -0.6235
  302MOL0     C39793  10.250   5.657   2.540  0.4787 -0.3886  0.4720
  302MOL0     C39794  10.379   5.617   2.606  0.1118 -0.9672  0.0940
  302MOL0     C39795  10.465   5.538   2.518  0.1233  0.3348  0.0634
  302MOL0     C39796  10.553   5.479   2.459 -0.1635 -0.0564  1.0041
  302MOL0     C39797   9.922   5.719   2.212 -0.0720  0.5196 -0.4956
  302MOL0     C39798   9.822   5.760   2.120  0.3541  0.1847 -0.6830
  302MOL0     H39799   9.442   5.515   1.736 -0.6493  1.6548  1.6804
  302MOL0     H39800   9.322   5.588   1.530 -0.3269 -0.1903  0.7040
  302MOL0     H39801   9.346   6.000   1.387 -0.6584  0.3649  1.9632
  302MOL0     H39802   9.243   5.907   1.496  1.6446 -2.3391  1.4234
  302MOL0     H39803   9.250   5.882   1.190  1.4467 -2.4536  0.0522
  302MOL0     H39804   9.132   5.981   1.274  2.5062  1.0112  1.6961
  302MOL0     H39805   9.146   5.682   1.291  0.9920  1.2058  1.0960
  302MOL0     H39806   9.043   5.776   1.183 -1.7988 -0.2683  0.9092
  302MOL0     H39807   9.037   5.761   1.484  1.3557  2.5753 -0.2438
  302MOL0     H39808   8.978   5.910   1.417  4.5456  1.5440  0.2644
  302MOL0     H39809   8.874   5.642   1.388  3.4137  2.1561  2.5273
  302MOL0     H39810   8.841   5.754   1.243  0.4210  1.2032 -1.1287
  302MOL0     H39811   8.723   5.915   1.376  0.1988  0.0037 -1.1954
  302MOL0     H39812   8.722   5.801   1.509 -0.8928 -0.0712 -0.0775
  302MOL0     H39813   8.620   5.727   1.233 -0.8278 -0.2745 -0.1095
  302MOL0     H39814   8.599   5.644   1.391 -6.7445 -1.4598 -1.5511
  302MOL0     H39815   8.463   5.911   1.343 -0.4130 -0.5734  1.8611
  302MOL0     H39816   8.421   5.777   1.460 -3.5443 -0.0417 -0.9675
  302MOL0     H39817   8.355   5.511   1.336  0.8635 -1.9118 -3.0936
  302MOL0     H39818   8.215   5.377   1.191 -0.5117 -0.7913  0.4752
  302MOL0     H39819   8.179   5.462   1.031 -0.6555  2.1823 -0.5919
  302MOL0     H39820   7.979   5.563   1.146  1.5668  0.2269  2.0462
  302MOL0     H39821   8.008   5.446   1.279  2.0144 -2.9445  0.0545
  302MOL0     H39822   7.954   5.364   0.981  1.4893  0.3361 -0.4043
  302MOL0     H39823   7.991   5.264   1.121  0.5565 -0.0140 -1.7004
  302MOL0     H39824   7.757   5.453   1.104 -0.6681  0.0550  3.4240
  302MOL0     H39825   7.785   5.321   1.217  1.0454  1.7170  0.9632
  302MOL0     H39826   7.590   5.418   0.924  0.6706 -0.2994 -0.7141
  302MOL0     H39827   7.338   5.409   0.950 -1.1708  0.1549  3.2003
  302MOL0     H39828   7.032   5.550   0.998  1.1165 -0.5788  1.2209
  302MOL0     H39829   6.804   5.632   0.996  1.7151  0.2935 -1.1671
  302MOL0     H39830   6.514   5.311   0.899 -1.2806  0.7181  2.1280
  302MOL0     H39831   6.568   5.452   0.793 -1.2694  2.0447  0.3053
  302MOL0     H39832   6.322   5.431   0.804 -1.7805  0.0014  1.6150
  302MOL0     H39833   6.399   5.580   0.821  1.5406 -0.8747 -1.4426
  302MOL0     H39834   6.376   5.570   1.068 -1.0259  0.6894 -1.5106
  302MOL0     H39835   6.283   5.423   1.049 -2.4492 -0.7362  0.7124
  302MOL0     H39836   6.227   5.686   0.902 -0.1104  1.2283  0.8518
  302MOL0     H39837   6.123   5.537   0.895  1.8931 -3.8303  0.0335
  302MOL0     H39838   6.162   5.697   1.157  1.0470  2.5289 -1.2676
  302MOL0     H39839   6.034   5.582   1.104  3.3372 -2.4626  1.6331
  302MOL0     H39840   5.928   5.741   0.963 -1.2079  0.5413  1.6901
  302MOL0     H39841   6.060   5.854   0.964  1.2475  0.3833  2.5462
  302MOL0     H39842   5.897   5.767   1.209  0.6259 -0.5772 -0.5756
  302MOL0     H39843   6.014   5.911   1.192 -1.4354  2.8061 -0.9763
  302MOL0     H39844   5.775   5.973   1.180  0.0702 -0.6801  0.1876
  302MOL0     H39845   5.750   5.860   1.044  0.9396  1.3575 -2.8201
  302MOL0     H39846   6.668   5.219   1.013  0.3418 -1.8794  1.4786
  302MOL0     H39847   6.901   5.140   1.036 -3.1287  0.4545 -1.0623
  302MOL0     H39848   7.358   5.026   1.113  1.2805 -0.5400 -0.1345
  302MOL0     H39849   7.616   5.045   1.129  0.6039  0.7801  0.2704
  302MOL0     H39850   9.605   5.895   1.475  0.6644 -0.1451 -0.0108
  302MOL0     H39851   9.720   5.820   1.676 -0.5980  0.1863  1.3033
  302MOL0     H39852   9.891   5.516   1.885 -0.7807 -3.9132  1.7072
  302MOL0     H39853  10.060   5.460   2.064  1.1339  1.3011 -3.0338
  302MOL0     H39854   9.984   5.470   2.413  0.6178  0.0852 -0.3705
  302MOL0     H39855   9.974   5.628   2.454 -1.4787 -0.0712 -1.8606
  302MOL0     H39856  10.120   5.505   2.618  3.7762 -2.5024  1.4008
  302MOL0     H39857  10.218   5.439   2.495 -0.3321  0.1725  1.1882
  302MOL0     H39858  10.190   5.734   2.591  2.0246 -0.0648  1.8876
  302MOL0     H39859  10.274   5.692   2.440 -0.7257  0.8617  0.5883
  302MOL0     H39860  10.434   5.710   2.623  0.7674 -0.5991 -3.3870
  302MOL0     H39861  10.357   5.563   2.699 -0.5816  1.2519  1.2754
  302MOL0     H39862  10.637   5.431   2.413 -1.0053 -0.9359  0.3514
  302MOL0     H39863   9.937   5.769   2.307 -1.7893 -1.4301  0.8699
  302MOL0     H39864   9.750   5.839   2.141  0.7563  0.5387 -0.6287
  303MOL0     O39865   5.817   5.427   3.515  0.3223 -0.7231 -0.1818
  303MOL0     C39866   5.852   5.405   3.634  0.3730 -0.6128 -0.2197
  303MOL0     O39867   5.776   5.362   3.731  0.6819  0.1583 -0.4270
  303MOL0     C39868   5.657   5.292   3.721 -0.6369  0.4883 -0.4417
  303MOL0     C39869   5.551   5.323   3.812 -0.5688 -1.0146  0.2088
  303MOL0     C39870   5.425   5.272   3.793 -0.6237  0.6524  0.1201
  303MOL0     C39871   5.398   5.175   3.687 -0.1862  0.7254 -0.1715
  303MOL0     O39872   5.284   5.105   3.691 -0.4942 -0.3352  0.1536
  303MOL0     C39873   5.236   5.048   3.566 -0.3241  0.3669  0.6686
  303MOL0     C39874   5.109   4.971   3.601 -0.1526  0.1698  0.0844
  303MOL0     C39875   5.047   4.911   3.476 -0.3989  0.1897  0.5411
  303MOL0     C39876   4.919   4.839   3.521 -0.3739  0.8730  0.1751
  303MOL0     C39877   4.821   4.818   3.398 -0.4765  0.1539 -0.1759
  303MOL0     C39878   4.880   4.720   3.291  0.0977  0.0025  0.0250
  303MOL0     C39879   4.782   4.693   3.168 -0.4846 -1.3321 -0.3585
  303MOL0     C39880   4.686   4.581   3.209  0.0620  0.9955 -0.0142
  303MOL0     N39881   4.591   4.551   3.098 -0.4775  0.3266  0.0477
  303MOL0     C39882   4.475   4.625   3.073  0.0958 -0.3404 -0.5219
  303MOL0     C39883   4.433   4.592   2.952 -0.4572 -0.3231 -0.2315
  303MOL0     C39884   4.330   4.663   2.881  0.1204  0.1958 -0.1067
  303MOL0     C39885   4.194   4.589   2.892  0.7738 -0.5494 -0.5299
  303MOL0     C39886   4.196   4.448   2.830  1.5237 -0.2633 -0.2275
  303MOL0     C39887   4.061   4.402   2.770  0.7593  0.0534  0.1691
  303MOL0     O39888   3.957   4.420   2.868  0.1187  0.0027  0.6109
  303MOL0     C39889   3.845   4.483   2.824  0.0073 -0.3491 -0.7833
  303MOL0     C39890   3.842   4.586   2.729  0.5301  0.1533  0.2072
  303MOL0     C39891   3.717   4.648   2.692 -0.9139 -0.5089  0.2213
  303MOL0     C39892   3.600   4.609   2.757 -0.2008 -0.3015 -0.2387
  303MOL0     C39893   3.470   4.665   2.725 -0.2302  1.0396  0.0986
  303MOL0     O39894   3.369   4.598   2.778  0.6377  0.0908 -0.3573
  303MOL0     C39895   3.239   4.654   2.773 -0.1796  0.5408 -0.3516
  303MOL0     C39896   3.133   4.565   2.795 -0.3659  0.2174  0.5868
  303MOL0     C39897   3.007   4.622   2.813  0.3094  0.1254  0.8299
  303MOL0     C39898   2.987   4.758   2.820  0.9903  0.0993  0.1626
  303MOL0     O39899   2.855   4.800   2.848 -0.0381 -1.0799 -0.0197
  303MOL0     C39900   2.841   4.936   2.916 -0.9155  0.3508  0.3090
  303MOL0     C39901   2.706   4.946   2.989  0.1245 -0.5016  0.4095
  303MOL0     C39902   2.585   4.930   2.897 -0.4476  0.0169  0.4015
  303MOL0     C39903   2.462   4.916   2.982  0.1799  0.2341  0.5679
  303MOL0     C39904   2.336   4.912   2.892 -0.1204 -0.3035  0.1020
  303MOL0     C39905   2.218   4.889   2.982  0.7126 -0.5612 -0.6340
  303MOL0     C39906   2.085   4.869   2.897 -0.6479  0.6359  0.6724
  303MOL0     C39907   1.981   4.791   2.973 -0.2013  0.3932 -0.1074
  303MOL0    Cl39908   2.033   4.623   2.941 -0.1227 -0.3807  0.1863
  303MOL0     C39909   3.090   4.844   2.806 -0.1893  0.3589 -0.6920
  303MOL0     C39910   3.218   4.798   2.783 -0.5104 -0.1287 -1.6570
  303MOL0     O39911   3.471   4.752   2.638  0.0608  0.3785  0.2790
  303MOL0     C39912   3.617   4.524   2.870 -0.1152  0.8619  0.1875
  303MOL0     C39913   3.734   4.461   2.898  0.2448 -0.7078 -0.9990
  303MOL0     N39914   4.530   4.513   2.895 -0.0094 -0.0111 -0.6034
  303MOL0     N39915   4.625   4.489   2.980 -0.5752 -0.0953  0.4217
  303MOL0     C39916   5.510   5.135   3.610  0.6924  0.2885  0.3243
  303MOL0     C39917   5.634   5.203   3.622 -0.1274 -0.9360  0.4926
  303MOL0     C39918   5.992   5.443   3.669 -0.3418  0.4491 -0.1806
  303MOL0     C39919   6.046   5.462   3.799 -0.0368 -0.5857  0.1147
  303MOL0     C39920   6.173   5.487   3.822 -0.8676 -0.6246 -0.2019
  303MOL0     C39921   6.267   5.494   3.717  0.6546 -0.2951  0.7386
  303MOL0     O39922   6.398   5.511   3.765  0.3906 -0.5810 -0.3306
  303MOL0     C39923   6.512   5.500   3.684 -0.7214  0.1918  0.0541
  303MOL0     C39924   6.553   5.641   3.626 -0.5242 -0.2847 -0.0620
  303MOL0     C39925   6.686   5.648   3.553  0.2414  0.3649 -0.1304
  303MOL0     C39926   6.806   5.601   3.637 -0.7363 -1.0272  0.3295
  303MOL0     C39927   6.839   5.694   3.737  0.4294  0.5941 -0.9906
  303MOL0     C39928   6.884   5.772   3.816  0.0308  0.4671  1.0778
  303MOL0     C39929   6.217   5.488   3.587 -0.1410 -1.5803  0.5110
  303MOL0     C39930   6.083   5.464   3.565 -0.4388 -0.7030 -0.0649
  303MOL0     H39931   5.575   5.387   3.897  0.8056 -1.2862  0.0568
  303MOL0     H39932   5.347   5.281   3.867 -0.7777  0.3180 -0.0007
  303MOL0     H39933   5.310   4.982   3.521 -0.1538  1.4858 -0.7718
  303MOL0     H39934   5.220   5.124   3.489  0.0287 -0.9500 -0.7347
  303MOL0     H39935   5.041   5.041   3.650  2.1772  3.2029 -0.7250
  303MOL0     H39936   5.135   4.895   3.676 -0.7879 -0.8555 -0.7061
  303MOL0     H39937   5.127   4.849   3.434 -1.5212 -1.4779  0.7619
  303MOL0     H39938   5.008   4.987   3.409 -1.5746 -0.0081  0.9804
  303MOL0     H39939   4.945   4.756   3.587  0.7340 -0.3437 -1.6991
  303MOL0     H39940   4.870   4.914   3.584  1.2123  1.3085  0.9249
  303MOL0     H39941   4.815   4.914   3.347 -0.9438 -1.7139 -4.0161
  303MOL0     H39942   4.721   4.790   3.432 -0.6431 -2.8517 -2.6725
  303MOL0     H39943   4.889   4.617   3.326  0.1861  0.4100  1.2440
  303MOL0     H39944   4.980   4.757   3.263  0.8815 -0.1191  2.4370
  303MOL0     H39945   4.721   4.780   3.143  0.0407 -0.7304  0.4032
  303MOL0     H39946   4.831   4.662   3.075 -1.5229 -1.3247 -0.9282
  303MOL0     H39947   4.634   4.607   3.301  1.8555  1.4151  0.9270
  303MOL0     H39948   4.745   4.492   3.232 -0.1806  0.9165  0.3008
  303MOL0     H39949   4.424   4.694   3.139 -2.9701  0.7270 -3.7056
  303MOL0     H39950   4.364   4.665   2.778 -0.0213 -0.7899 -0.1795
  303MOL0     H39951   4.324   4.764   2.923  2.1116  0.9990 -1.6195
  303MOL0     H39952   4.111   4.646   2.850 -2.4061 -2.5338  2.5265
  303MOL0     H39953   4.169   4.583   2.998 -0.0452  2.2053 -0.4940
  303MOL0     H39954   4.268   4.450   2.748  0.3375 -0.6287 -1.2935
  303MOL0     H39955   4.226   4.366   2.897 -0.8989  0.4893  1.9721
  303MOL0     H39956   4.077   4.297   2.745  2.1039  0.8949 -2.9947
  303MOL0     H39957   4.032   4.452   2.677 -1.5541 -0.7115  0.4250
  303MOL0     H39958   3.934   4.622   2.685  0.2072  1.6204  0.6769
  303MOL0     H39959   3.721   4.729   2.620  0.7556 -1.9164 -1.3788
  303MOL0     H39960   3.150   4.458   2.801  2.9995  0.6063 -0.0925
  303MOL0     H39961   2.920   4.561   2.837 -1.3596  1.1896 -1.9227
  303MOL0     H39962   2.835   5.022   2.849 -1.2915  1.4747  1.7434
  303MOL0     H39963   2.930   4.956   2.977  0.3898  2.2759 -2.0598
  303MOL0     H39964   2.696   5.045   3.035 -0.2334  0.6764 -2.0772
  303MOL0     H39965   2.698   4.878   3.075 -1.5829 -1.1908 -0.2569
  303MOL0     H39966   2.602   4.845   2.832  0.8932  1.6061 -1.4427
  303MOL0     H39967   2.565   5.014   2.830 -0.7499 -0.2127  0.2079
  303MOL0     H39968   2.464   4.830   3.050 -2.4913 -1.2279 -1.0138
  303MOL0     H39969   2.463   5.009   3.040 -3.0671  0.7633 -0.0349
  303MOL0     H39970   2.355   4.834   2.817 -0.5190  0.6562 -1.0187
  303MOL0     H39971   2.334   5.015   2.856 -0.9588  1.3117  4.2164
  303MOL0     H39972   2.209   4.973   3.052 -0.0548 -1.1492 -0.0141
  303MOL0     H39973   2.231   4.804   3.049 -1.2335 -1.1857 -0.9767
  303MOL0     H39974   2.055   4.970   2.866  2.5069  0.9206 -1.9709
  303MOL0     H39975   2.107   4.810   2.808 -2.0010 -1.4626  1.6441
  303MOL0     H39976   1.884   4.812   2.927  0.4989 -0.9898 -2.4035
  303MOL0     H39977   1.992   4.798   3.081  1.1985  2.9260 -0.3215
  303MOL0     H39978   3.067   4.950   2.818 -2.1398 -0.2689  2.1533
  303MOL0     H39979   3.297   4.872   2.778  1.1017 -1.5960  0.5576
  303MOL0     H39980   3.532   4.505   2.935 -0.5994  2.8364  0.2169
  303MOL0     H39981   3.748   4.400   2.987  1.2223  1.9380  0.7667
  303MOL0     H39982   5.501   5.062   3.531 -1.8173  1.9708 -1.0495
  303MOL0     H39983   5.708   5.174   3.548  0.3332  1.4072 -0.0450
  303MOL0     H39984   5.981   5.452   3.885  0.9669  0.1564  0.9854
  303MOL0     H39985   6.214   5.503   3.921  0.8382  0.1912 -0.9956
  303MOL0     H39986   6.502   5.430   3.601  0.3877  1.0375 -0.8241
  303MOL0     H39987   6.584   5.457   3.754 -1.2167 -1.0828 -0.1923
  303MOL0     H39988   6.482   5.665   3.546  1.4042  1.1726 -1.4552
  303MOL0     H39989   6.547   5.720   3.700  0.9869 -0.4878  0.3060
  303MOL0     H39990   6.707   5.750   3.520 -2.7351  1.0426 -0.2097
  303MOL0     H39991   6.677   5.574   3.473  0.0707 -2.6761  2.4721
  303MOL0     H39992   6.793   5.502   3.682 -2.7046  0.6847  3.9324
  303MOL0     H39993   6.895   5.589   3.575  0.8931 -0.2822  2.3841
  303MOL0     H39994   6.906   5.838   3.898 -0.7722  3.4399 -0.9215
  303MOL0     H39995   6.272   5.504   3.495 -1.3960  0.4896  0.0465
  303MOL0     H39996   6.044   5.459   3.464 -0.6928  2.8700 -0.2750
  304MOL0     O39997  11.071   1.937   3.937 -0.1145  0.2212  0.1472
  304MOL0     C39998  11.134   1.924   4.039  0.7210 -0.4524 -0.5609
  304MOL0     O39999  11.082   1.892   4.159 -0.0480 -0.1922 -0.7034
  304MOL0     C40000  10.944   1.887   4.187  0.0392  0.0527 -0.2904
  304MOL0     C40001  10.905   1.822   4.306 -0.1087  0.6643 -0.9856
  304MOL0     C40002  10.773   1.816   4.355  0.4072 -0.2659 -0.9610
  304MOL0     C40003  10.670   1.886   4.280 -0.2907  0.1678 -0.1096
  304MOL0     O40004  10.543   1.875   4.318 -0.2688 -0.1464 -0.4324
  304MOL0     C40005  10.475   1.762   4.283 -0.8970  0.7831  0.0906
  304MOL0     C40006  10.322   1.788   4.284  0.5227 -0.7288  0.3873
  304MOL0     C40007  10.275   1.899   4.189 -0.1817  0.3399  0.2259
  304MOL0     C40008  10.127   1.884   4.157  0.8040 -0.2391  0.6511
  304MOL0     C40009  10.094   1.975   4.038 -0.1111 -0.3476 -0.7147
  304MOL0     C40010  10.021   2.096   4.089 -0.0326 -0.6660 -0.1054
  304MOL0     C40011  10.005   2.202   3.973 -0.1200  0.5025 -0.1655
  304MOL0     C40012   9.918   2.152   3.860  0.3736 -0.4209  1.2396
  304MOL0     N40013   9.790   2.097   3.913  0.5032 -0.3316 -0.5118
  304MOL0     C40014   9.686   2.166   3.978  0.3983  0.1111  0.2801
  304MOL0     C40015   9.586   2.073   3.992 -0.5025  0.3815  0.8582
  304MOL0     C40016   9.447   2.097   4.048  0.6477 -1.0333  0.7144
  304MOL0     C40017   9.336   2.121   3.941  0.1709  0.4300  0.5315
  304MOL0     C40018   9.200   2.096   4.003 -1.0288 -0.5858 -0.3564
  304MOL0     C40019   9.085   2.122   3.911 -0.1029 -0.2769 -0.1472
  304MOL0     O40020   8.991   2.021   3.946 -0.7680  0.4616  0.4841
  304MOL0     C40021   8.867   2.022   3.885  0.9154  0.0437  0.3961
  304MOL0     C40022   8.756   2.051   3.956  1.2215 -0.2939  0.3022
  304MOL0     C40023   8.625   2.071   3.910  0.8647 -0.0856  0.6677
  304MOL0     C40024   8.607   2.055   3.765  0.0059  0.8538  0.0288
  304MOL0     C40025   8.478   2.072   3.700 -0.0217  0.8327 -0.2834
  304MOL0     O40026   8.400   2.159   3.762 -0.0152 -0.6441  0.0696
  304MOL0     C40027   8.283   2.190   3.691  0.8388 -0.4229 -0.2679
  304MOL0     C40028   8.274   2.245   3.565 -0.7168 -0.4792  0.2552
  304MOL0     C40029   8.148   2.282   3.514 -0.3715 -0.0492 -0.1485
  304MOL0     C40030   8.034   2.261   3.586 -0.1913  0.1694 -0.4028
  304MOL0     O40031   7.916   2.280   3.515  0.3636  1.0090  0.2363
  304MOL0     C40032   7.819   2.365   3.579  0.4613  0.1238 -0.0706
  304MOL0     C40033   7.784   2.492   3.490  0.7973  0.5769 -0.7906
  304MOL0     C40034   7.909   2.579   3.464 -0.1357 -0.5066 -0.6033
  304MOL0     C40035   7.997   2.621   3.579  0.9278  0.0950 -0.2808
  304MOL0     C40036   8.119   2.692   3.535 -0.0905  0.5793  0.3802
  304MOL0     C40037   8.198   2.741   3.652  0.0556  0.1122  0.1127
  304MOL0     C40038   8.302   2.844   3.604  0.1289  0.2518 -0.3034
  304MOL0     C40039   8.382   2.890   3.729 -0.0012  0.0329 -0.2962
  304MOL0    Cl40040   8.484   3.030   3.676 -0.3044 -0.1990 -0.0518
  304MOL0     C40041   8.044   2.212   3.717 -0.1174 -0.3278 -0.0248
  304MOL0     C40042   8.168   2.174   3.770  0.3391 -0.0741  0.1509
  304MOL0     O40043   8.452   2.012   3.595  0.5448  0.7664 -0.1603
  304MOL0     C40044   8.721   2.030   3.685  0.0367 -0.1362 -0.3553
  304MOL0     C40045   8.846   2.016   3.750  0.3762 -0.2703  0.3876
  304MOL0     N40046   9.643   1.949   3.954  0.1918 -0.9075  0.1245
  304MOL0     N40047   9.769   1.968   3.917 -0.0008 -0.1205  0.2108
  304MOL0     C40048  10.712   1.948   4.168 -0.4368 -0.1102 -0.4512
  304MOL0     C40049  10.845   1.958   4.122 -0.5281 -0.5580 -0.2855
  304MOL0     C40050  11.281   1.921   4.020  0.2598  0.0624 -0.0211
  304MOL0     C40051  11.367   1.920   4.127 -0.3020  0.1406  0.3479
  304MOL0     C40052  11.506   1.934   4.101 -0.6859 -0.8600  0.6289
  304MOL0     C40053  11.560   1.933   3.969  0.8756 -0.1037 -0.0679
  304MOL0     O40054  11.691   1.935   3.937  0.6129 -0.0975  0.2521
  304MOL0     C40055  11.784   1.903   4.030 -1.3257  0.4762  0.1517
  304MOL0     C40056  11.925   1.885   3.970  0.6699  0.8889  0.3724
  304MOL0     C40057  12.028   1.851   4.082 -0.1538 -0.1113 -0.0628
  304MOL0     C40058  12.100   1.976   4.134 -0.2648  0.7970  0.2298
  304MOL0     C40059  12.186   1.952   4.245  0.2785  0.2512 -0.6686
  304MOL0     C40060  12.259   1.938   4.348 -0.4240 -0.1388  0.2334
  304MOL0     C40061  11.471   1.927   3.867  0.0618  0.3021  0.3049
  304MOL0     C40062  11.334   1.915   3.889  0.0460 -0.4309  0.6467
  304MOL0     H40063  10.979   1.768   4.364 -1.3055 -0.0548 -0.0916
  304MOL0     H40064  10.746   1.768   4.449 -0.4134  1.7113 -0.1442
  304MOL0     H40065  10.509   1.691   4.359  0.0621  0.4451 -0.6379
  304MOL0     H40066  10.495   1.715   4.187  0.5017  2.0451 -0.2616
  304MOL0     H40067  10.293   1.820   4.384 -0.5663 -3.1585  0.9216
  304MOL0     H40068  10.262   1.697   4.268 -0.4684 -0.0975  0.4059
  304MOL0     H40069  10.325   1.889   4.092 -0.9532  0.2702 -0.1684
  304MOL0     H40070  10.297   1.995   4.236  0.9659  0.2702 -0.1216
  304MOL0     H40071  10.092   1.782   4.143  1.2103 -0.2591 -0.2865
  304MOL0     H40072  10.075   1.922   4.245  0.1021 -1.1740  0.6543
  304MOL0     H40073  10.039   1.922   3.960  1.1833 -1.3214 -0.9983
  304MOL0     H40074  10.185   2.006   3.986 -0.0615  0.3696 -0.2176
  304MOL0     H40075  10.077   2.134   4.175  0.1544 -0.6630 -0.2282
  304MOL0     H40076   9.925   2.070   4.136  0.2945 -2.0654 -0.1664
  304MOL0     H40077   9.955   2.289   4.015  2.0658  1.7685 -0.0602
  304MOL0     H40078  10.105   2.227   3.936  0.8215 -1.7302  0.6764
  304MOL0     H40079   9.960   2.076   3.793 -1.1190 -0.6704  0.5277
  304MOL0     H40080   9.899   2.239   3.796  0.2304 -1.3318 -0.0074
  304MOL0     H40081   9.683   2.269   4.009  2.1522  0.3422 -0.2152
  304MOL0     H40082   9.453   2.192   4.102  1.0111  0.5836 -1.9506
  304MOL0     H40083   9.430   2.017   4.120  0.0946 -0.5377  1.1412
  304MOL0     H40084   9.348   2.046   3.861  0.4937  1.4497 -0.3988
  304MOL0     H40085   9.340   2.222   3.899 -0.1653  0.1391 -0.2187
  304MOL0     H40086   9.200   1.996   4.047  0.1570  0.6439  2.6957
  304MOL0     H40087   9.204   2.158   4.093  0.9792  0.1013 -0.8498
  304MOL0     H40088   9.126   2.108   3.810  2.0027 -0.7809  0.7295
  304MOL0     H40089   9.038   2.219   3.931 -0.1441 -0.6422  1.6195
  304MOL0     H40090   8.778   2.065   4.061 -0.6015 -3.0312  1.1675
  304MOL0     H40091   8.545   2.092   3.980 -1.2907  1.1685 -1.9659
  304MOL0     H40092   8.360   2.262   3.502  0.3569 -0.9199  1.5484
  304MOL0     H40093   8.143   2.318   3.412  0.4733  0.5277  0.0045
  304MOL0     H40094   7.840   2.388   3.684  0.1215  1.5116 -0.2873
  304MOL0     H40095   7.733   2.299   3.594 -0.9148  1.6252 -0.9999
  304MOL0     H40096   7.715   2.553   3.549 -2.2509  0.4908 -3.9580
  304MOL0     H40097   7.732   2.470   3.396 -3.2526 -1.1723  1.6213
  304MOL0     H40098   7.867   2.672   3.425  1.6444 -0.1232 -1.7272
  304MOL0     H40099   7.965   2.520   3.391 -1.7346 -1.0749 -1.4177
  304MOL0     H40100   7.941   2.691   3.642  0.4556 -0.5002 -0.0304
  304MOL0     H40101   8.025   2.535   3.641  2.1622  0.3598 -0.4345
  304MOL0     H40102   8.089   2.771   3.465  1.4120  0.6108 -0.2661
  304MOL0     H40103   8.179   2.618   3.482  0.0904  2.4568 -2.2623
  304MOL0     H40104   8.254   2.664   3.706  0.1246 -0.8692 -1.3228
  304MOL0     H40105   8.129   2.786   3.725  0.4352 -1.5447  1.5668
  304MOL0     H40106   8.373   2.788   3.544  1.1541  0.4953  0.6451
  304MOL0     H40107   8.257   2.931   3.555  0.1755  1.2582  1.3419
  304MOL0     H40108   8.440   2.810   3.777 -0.1788  0.4619  0.6709
  304MOL0     H40109   8.316   2.927   3.808 -2.0206  0.5455 -2.1280
  304MOL0     H40110   7.948   2.192   3.764 -0.5680  0.5461 -0.5294
  304MOL0     H40111   8.185   2.129   3.867  0.3524 -1.4282 -0.4580
  304MOL0     H40112   8.702   2.013   3.579  2.6110 -1.6182 -0.6603
  304MOL0     H40113   8.936   1.994   3.694  1.2590 -1.1325  2.0344
  304MOL0     H40114  10.639   2.005   4.111 -1.0773 -0.6489 -0.1792
  304MOL0     H40115  10.877   2.000   4.027 -2.3669 -1.1557 -1.2184
  304MOL0     H40116  11.329   1.913   4.228  2.7975  3.6831  1.9946
  304MOL0     H40117  11.576   1.943   4.182 -0.4791 -0.9329  0.4582
  304MOL0     H40118  11.756   1.815   4.089 -0.3555 -0.4761 -0.7416
  304MOL0     H40119  11.796   1.986   4.100 -1.2123  2.0032 -1.6058
  304MOL0     H40120  11.936   1.801   3.901 -0.4567  0.8803  0.1904
  304MOL0     H40121  11.944   1.972   3.905 -1.8495  0.4668 -1.0245
  304MOL0     H40122  12.103   1.785   4.037 -1.5528 -2.4404  0.8722
  304MOL0     H40123  11.987   1.797   4.167  0.1201 -0.9486 -0.4553
  304MOL0     H40124  12.171   2.014   4.060 -2.3435  0.4563 -2.0435
  304MOL0     H40125  12.022   2.043   4.173 -1.6453 -1.3393  1.2969
  304MOL0     H40126  12.331   1.935   4.428  0.2580  1.3919 -0.2854
  304MOL0     H40127  11.510   1.914   3.766 -2.6406  0.2363 -0.8022
  304MOL0     H40128  11.278   1.877   3.804 -1.1863  3.2628 -0.3862
  305MOL0     O40129   0.263  10.264  10.446 -0.1304 -0.6177  1.0595
  305MOL0     C40130   0.308  10.327  10.350 -0.1469 -0.8358  0.9968
  305MOL0     O40131   0.297  10.470  10.334 -0.1745  0.3035 -0.0516
  305MOL0     C40132   0.236  10.553  10.423  0.6553  0.1994  0.1122
  305MOL0     C40133   0.189  10.674  10.371  0.2044  0.1133  0.1027
  305MOL0     C40134   0.144  10.781  10.447 -0.5657  0.5555 -0.8167
  305MOL0     C40135   0.129  10.765  10.587 -0.7777 -0.0565  0.1651
  305MOL0     O40136   0.097  10.862  10.679  0.1716 -0.5430 -0.0504
  305MOL0     C40137  -0.001  10.961  10.629 -0.1032 -0.1919  0.3431
  305MOL0     C40138  -0.054  11.032  10.748 -0.9406  0.1848  0.2125
  305MOL0     C40139  -0.106  10.936  10.852  0.4491 -0.4706  0.3694
  305MOL0     C40140  -0.136  11.004  10.982  0.3269  0.3243  0.3791
  305MOL0     C40141  -0.173  10.917  11.101  0.2495  0.1312 -0.2304
  305MOL0     C40142  -0.310  10.852  11.079 -0.0451 -0.1820  0.1544
  305MOL0     C40143  -0.431  10.943  11.038 -0.3057 -1.1759 -0.2737
  305MOL0     C40144  -0.457  11.058  11.131  0.0716 -0.0808  0.3151
  305MOL0     N40145  -0.576  11.132  11.082 -0.2948  0.6809  0.1494
  305MOL0     C40146  -0.560  11.270  11.041 -1.1087  0.4233 -0.6248
  305MOL0     C40147  -0.679  11.298  11.003 -0.2509  0.1162  1.0812
  305MOL0     C40148  -0.712  11.437  10.948  0.2554 -0.5092 -0.4346
  305MOL0     C40149  -0.864  11.456  10.909 -0.3790 -0.8329 -0.3168
  305MOL0     C40150  -0.885  11.614  10.898  1.0837 -0.5463  0.6280
  305MOL0     C40151  -0.964  11.656  10.776  0.4212 -0.5027 -0.6372
  305MOL0     O40152  -0.879  11.664  10.658  1.0776 -0.1508  0.0438
  305MOL0     C40153  -0.925  11.716  10.540  0.4757  0.9829  0.2696
  305MOL0     C40154  -0.828  11.763  10.454  0.4505 -0.1582  0.2603
  305MOL0     C40155  -0.854  11.824  10.328 -0.0566  0.6288  0.1533
  305MOL0     C40156  -0.987  11.843  10.293  0.7939 -0.1183 -0.0323
  305MOL0     C40157  -1.025  11.893  10.160  0.1989 -0.3239  0.5366
  305MOL0     O40158  -1.143  11.853  10.105  0.5499 -0.4697  0.4341
  305MOL0     C40159  -1.157  11.877   9.972 -0.2265  0.1537  0.1630
  305MOL0     C40160  -1.185  12.000   9.911 -0.2336  0.1676  0.7351
  305MOL0     C40161  -1.232  12.014   9.779 -0.2693  0.7447 -0.1102
  305MOL0     C40162  -1.268  11.904   9.707  0.5528  0.2343  0.4770
  305MOL0     O40163  -1.314  11.926   9.584  0.0950  0.1869  0.5435
  305MOL0     C40164  -1.318  11.818   9.492 -0.1840 -0.8677 -0.3442
  305MOL0     C40165  -1.400  11.863   9.370  0.2915  0.2832  0.1903
  305MOL0     C40166  -1.551  11.884   9.402 -0.2861 -0.3582 -0.0836
  305MOL0     C40167  -1.653  11.841   9.289 -0.3429 -0.7607  0.3727
  305MOL0     C40168  -1.796  11.860   9.349  0.7822  0.1134  1.3667
  305MOL0     C40169  -1.901  11.812   9.247 -0.3776 -0.1360  0.1938
  305MOL0     C40170  -2.035  11.870   9.280  0.5410  0.4840 -0.1547
  305MOL0     C40171  -2.143  11.789   9.223 -0.4875  0.7441 -0.9177
  305MOL0    Cl40172  -2.173  11.629   9.305  0.1258 -0.0366  0.2623
  305MOL0     C40173  -1.263  11.775   9.775  0.4426 -0.8357  0.6599
  305MOL0     C40174  -1.196  11.763   9.898  0.0923  0.7476  0.2201
  305MOL0     O40175  -0.943  11.966  10.102  0.2910 -0.4944  0.2954
  305MOL0     C40176  -1.090  11.798  10.389  0.4338 -0.4901  0.1909
  305MOL0     C40177  -1.061  11.731  10.510  1.3371  0.7192  0.1848
  305MOL0     N40178  -0.755  11.185  10.998 -0.1723  0.1111  0.4337
  305MOL0     N40179  -0.699  11.080  11.055 -0.3508 -0.2253  1.1355
  305MOL0     C40180   0.166  10.641  10.635 -0.2343  0.2244 -0.1843
  305MOL0     C40181   0.224  10.535  10.557  0.0456  0.2092  0.1090
  305MOL0     C40182   0.371  10.249  10.238 -0.5778 -0.4991 -0.1202
  305MOL0     C40183   0.384  10.108  10.240  0.1357  1.0432 -0.4864
  305MOL0     C40184   0.452  10.046  10.132 -0.4283  0.3089 -0.1805
  305MOL0     C40185   0.502  10.115  10.021  0.4453 -0.3409 -0.6298
  305MOL0     O40186   0.551  10.043   9.916 -0.6029  0.4372 -0.3176
  305MOL0     C40187   0.670  10.088   9.850  0.7191 -0.7781  0.2810
  305MOL0     C40188   0.785  10.109   9.947 -0.1610 -0.2729  0.5398
  305MOL0     C40189   0.922  10.096   9.878 -0.9707  0.0374 -1.5377
  305MOL0     C40190   1.029  10.122   9.983 -0.1934 -0.7549  1.0695
  305MOL0     C40191   1.154  10.083   9.920 -0.4477  0.1384 -0.8640
  305MOL0     C40192   1.253  10.024   9.877 -0.2428  1.0978 -0.4289
  305MOL0     C40193   0.487  10.250  10.022 -0.7980  0.3481  0.0257
  305MOL0     C40194   0.428  10.318  10.128 -0.7891 -0.6648 -0.1767
  305MOL0     H40195   0.198  10.684  10.263  0.9272  1.3329  0.2501
  305MOL0     H40196   0.112  10.878  10.408 -1.2431 -1.2075 -5.2327
  305MOL0     H40197  -0.086  10.921  10.574 -0.8802  2.1005 -0.2254
  305MOL0     H40198   0.045  11.036  10.564 -1.1768 -1.5836 -2.1233
  305MOL0     H40199  -0.114  11.118  10.714  1.2971  2.7049  2.1918
  305MOL0     H40200   0.034  11.079  10.793  0.9500 -1.1360 -1.8765
  305MOL0     H40201  -0.037  10.853  10.869  1.8203  0.0495 -2.0876
  305MOL0     H40202  -0.204  10.895  10.825 -1.2312  2.2734  1.8258
  305MOL0     H40203  -0.040  11.047  11.012  1.0144  0.5088 -1.9387
  305MOL0     H40204  -0.208  11.082  10.956  0.0089  0.8790  2.7138
  305MOL0     H40205  -0.180  10.990  11.182 -0.1184  2.5956 -2.3303
  305MOL0     H40206  -0.101  10.838  11.123  1.8324  1.0371 -1.8819
  305MOL0     H40207  -0.330  10.797  11.172 -2.3284  2.1005  1.1384
  305MOL0     H40208  -0.306  10.770  11.007 -3.7949 -2.3123  2.0389
  305MOL0     H40209  -0.414  10.967  10.932  0.3809 -2.0909 -0.3916
  305MOL0     H40210  -0.523  10.885  11.043  1.0089 -3.2655  1.6097
  305MOL0     H40211  -0.382  11.135  11.151 -1.5859  1.0552  2.6454
  305MOL0     H40212  -0.486  11.017  11.228  1.2478 -2.0909 -0.1271
  305MOL0     H40213  -0.481  11.344  11.040 -0.9940  0.3386 -2.5893
  305MOL0     H40214  -0.662  11.457  10.852  0.2022 -0.5775 -0.4775
  305MOL0     H40215  -0.676  11.511  11.019 -0.4445 -1.4941  0.9908
  305MOL0     H40216  -0.936  11.426  10.986 -2.0505  0.5072 -1.3059
  305MOL0     H40217  -0.873  11.412  10.809  1.3670 -0.5361 -0.6346
  305MOL0     H40218  -0.936  11.635  10.992  1.6751 -1.0634  1.0724
  305MOL0     H40219  -0.791  11.670  10.901  0.8752 -0.0883 -0.6266
  305MOL0     H40220  -1.013  11.751  10.799  0.3577 -0.8575  0.7972
  305MOL0     H40221  -1.041  11.580  10.765  1.6622 -2.1740  1.4447
  305MOL0     H40222  -0.730  11.747  10.497 -0.0376  2.6309  2.6812
  305MOL0     H40223  -0.768  11.857  10.269  0.3157 -0.9353 -0.2274
  305MOL0     H40224  -1.163  12.088   9.971 -1.9479 -0.1758  1.9451
  305MOL0     H40225  -1.223  12.109   9.728 -1.8368  0.5138 -0.8730
  305MOL0     H40226  -1.334  11.717   9.529  2.2392  0.2144  4.4054
  305MOL0     H40227  -1.219  11.817   9.445 -0.0506  2.2126 -0.3301
  305MOL0     H40228  -1.390  11.788   9.292  5.1226 -0.8546  1.5320
  305MOL0     H40229  -1.355  11.957   9.335  0.0017  0.4966  0.3782
  305MOL0     H40230  -1.564  11.993   9.409  1.5688 -0.1601  0.9017
  305MOL0     H40231  -1.566  11.824   9.492  1.7994 -0.2713  0.3603
  305MOL0     H40232  -1.640  11.900   9.198 -2.3022  2.4249  1.9530
  305MOL0     H40233  -1.636  11.735   9.266 -0.5528 -1.0679  1.5574
  305MOL0     H40234  -1.827  11.961   9.377 -2.4336 -0.4730  0.3939
  305MOL0     H40235  -1.793  11.808   9.445  1.0569 -0.6973  0.9278
  305MOL0     H40236  -1.901  11.704   9.231  0.2345 -0.4608  2.0883
  305MOL0     H40237  -1.888  11.857   9.148 -4.2734  1.6107  0.2786
  305MOL0     H40238  -2.047  11.891   9.387  1.1190 -0.3919  0.0911
  305MOL0     H40239  -2.049  11.971   9.241 -0.4630  1.1502  1.7889
  305MOL0     H40240  -2.128  11.780   9.115  1.3814  1.5409 -0.7640
  305MOL0     H40241  -2.234  11.851   9.225  1.4831  3.8644 -1.4473
  305MOL0     H40242  -1.280  11.682   9.723  2.3244 -0.9973  0.2516
  305MOL0     H40243  -1.200  11.663   9.939  0.3192  0.6390 -0.0233
  305MOL0     H40244  -1.187  11.830  10.354  0.8940  0.0314 -0.6617
  305MOL0     H40245  -1.146  11.700  10.570  0.8275 -0.9461 -1.3039
  305MOL0     H40246   0.148  10.619  10.740  0.9398  2.7605  0.6308
  305MOL0     H40247   0.243  10.438  10.601 -2.2625 -0.6765 -0.6560
  305MOL0     H40248   0.335  10.045  10.313  0.9543 -0.7351 -1.4093
  305MOL0     H40249   0.446   9.937  10.128  1.2717 -0.0065  2.7398
  305MOL0     H40250   0.653  10.184   9.801  0.3958 -0.3921  1.1280
  305MOL0     H40251   0.708  10.022   9.772  1.0785 -0.7311  0.4151
  305MOL0     H40252   0.761  10.208   9.984 -0.5796  1.9350 -4.7218
  305MOL0     H40253   0.781  10.035  10.027  1.7629 -2.5276 -1.2660
  305MOL0     H40254   0.947  10.167   9.798  0.0891 -0.3430 -1.5608
  305MOL0     H40255   0.931   9.995   9.838 -2.8833  0.3503 -2.9154
  305MOL0     H40256   1.028  10.228  10.010  0.4503 -0.9906  2.0962
  305MOL0     H40257   1.021  10.068  10.078 -0.3390 -1.7736  0.4899
  305MOL0     H40258   1.334   9.975   9.828 -1.5683 -0.7500 -0.9209
  305MOL0     H40259   0.515  10.305   9.933  3.1462 -2.7332 -0.9214
  305MOL0     H40260   0.423  10.427  10.126 -0.1273 -0.5992  0.9942
  306MOL0     O40261   2.211   8.944   0.031  0.8803 -0.1110  0.2463
  306MOL0     C40262   2.305   8.994  -0.036  1.1162  0.1708  0.0712
  306MOL0     O40263   2.302   9.022  -0.172 -0.1513 -0.1497 -1.0935
  306MOL0     C40264   2.180   9.021  -0.236  0.9421 -0.2924 -0.7320
  306MOL0     C40265   2.064   9.094  -0.189 -0.1107 -0.2170 -0.4281
  306MOL0     C40266   1.940   9.086  -0.250 -0.1712  0.1850 -0.5419
  306MOL0     C40267   1.921   9.011  -0.368 -0.2948 -0.0891  0.1826
  306MOL0     O40268   1.808   9.017  -0.442 -0.5036 -0.1977 -0.2461
  306MOL0     C40269   1.685   9.044  -0.378  0.1301  0.5565 -0.6897
  306MOL0     C40270   1.584   9.034  -0.487  0.5501 -0.0492  0.4655
  306MOL0     C40271   1.439   9.044  -0.436  1.4179 -0.2890 -0.1028
  306MOL0     C40272   1.357   9.073  -0.561 -0.8409 -0.4167 -0.0934
  306MOL0     C40273   1.210   9.086  -0.522 -0.1954  0.3091 -0.3962
  306MOL0     C40274   1.124   9.120  -0.643 -0.0084  0.6510  0.3082
  306MOL0     C40275   0.976   9.101  -0.633 -0.2731 -0.0374 -0.2990
  306MOL0     C40276   0.910   9.222  -0.561 -0.2053  0.5098 -0.5408
  306MOL0     N40277   0.764   9.218  -0.575 -0.3521 -0.0784  0.2711
  306MOL0     C40278   0.683   9.145  -0.502  0.1528  0.0125  0.0942
  306MOL0     C40279   0.561   9.175  -0.551  0.0474  0.2117 -0.3640
  306MOL0     C40280   0.432   9.116  -0.504 -0.2987  0.3814 -0.6959
  306MOL0     C40281   0.348   9.050  -0.614 -0.9597  0.4786  0.6379
  306MOL0     C40282   0.431   8.943  -0.684  0.0493  1.1557  0.6506
  306MOL0     C40283   0.464   8.823  -0.586 -1.6796  0.2014 -0.0963
  306MOL0     O40284   0.347   8.788  -0.508  0.0390 -0.7157 -0.0994
  306MOL0     C40285   0.235   8.741  -0.568  0.1002 -0.2635  0.0885
  306MOL0     C40286   0.235   8.657  -0.687  0.0336 -1.1393  0.2430
  306MOL0     C40287   0.113   8.612  -0.738  0.0362 -0.1417 -0.4238
  306MOL0     C40288  -0.012   8.649  -0.677  0.3712 -0.6400  0.3259
  306MOL0     C40289  -0.144   8.599  -0.730  0.9450  0.6138 -0.2516
  306MOL0     O40290  -0.259   8.665  -0.689 -0.2657 -0.1802 -0.3380
  306MOL0     C40291  -0.386   8.607  -0.723  0.0428 -0.2503 -0.0125
  306MOL0     C40292  -0.416   8.476  -0.779 -0.1034  0.0627 -0.2817
  306MOL0     C40293  -0.545   8.424  -0.798  0.4707 -0.5324  0.5320
  306MOL0     C40294  -0.650   8.516  -0.770  0.4146 -0.4278 -0.8957
  306MOL0     O40295  -0.787   8.481  -0.762 -0.1004  0.3584  0.0822
  306MOL0     C40296  -0.823   8.372  -0.848  0.1364  1.1853  0.6225
  306MOL0     C40297  -0.977   8.362  -0.860  0.1280 -0.0589  0.5851
  306MOL0     C40298  -1.057   8.331  -0.733  0.0310 -0.0368  0.7247
  306MOL0     C40299  -1.028   8.190  -0.686 -0.3612 -0.0393  0.2789
  306MOL0     C40300  -1.135   8.158  -0.580 -0.3037 -0.4344  0.4474
  306MOL0     C40301  -1.096   8.025  -0.504 -0.1503 -0.0512  0.4519
  306MOL0     C40302  -1.186   7.995  -0.388 -0.4487 -0.0646 -0.6843
  306MOL0     C40303  -1.158   8.087  -0.271  0.3287 -0.7094  0.0922
  306MOL0    Cl40304  -1.228   8.011  -0.129 -0.2083  0.1842  0.3790
  306MOL0     C40305  -0.622   8.642  -0.722 -0.4731 -0.9356 -0.5155
  306MOL0     C40306  -0.495   8.688  -0.694 -0.6573  0.1345 -0.1574
  306MOL0     O40307  -0.136   8.507  -0.814  0.1271  0.1181 -0.4695
  306MOL0     C40308  -0.006   8.736  -0.577 -0.3112 -0.0502 -0.0108
  306MOL0     C40309   0.114   8.779  -0.518 -0.1531 -0.8392 -0.0011
  306MOL0     N40310   0.569   9.277  -0.646 -0.6132 -0.2182  0.0535
  306MOL0     N40311   0.695   9.303  -0.655  0.2414 -0.5066 -0.6080
  306MOL0     C40312   2.038   8.947  -0.417  0.4324  0.6878  0.2114
  306MOL0     C40313   2.165   8.945  -0.353  0.4068 -0.1019  0.8938
  306MOL0     C40314   2.432   9.010   0.030  0.1840 -0.4362 -0.0143
  306MOL0     C40315   2.545   8.993  -0.051  0.0745  0.1767  0.5772
  306MOL0     C40316   2.666   9.001   0.000 -0.6424 -0.2666  0.0671
  306MOL0     C40317   2.684   9.040   0.133  0.2931 -0.0407  0.1541
  306MOL0     O40318   2.810   9.079   0.179 -0.6213 -0.1025  0.1020
  306MOL0     C40319   2.844   9.212   0.135 -0.5110 -0.0555  0.2853
  306MOL0     C40320   2.940   9.268   0.231 -1.3363 -0.3110  0.4012
  306MOL0     C40321   3.004   9.403   0.176 -0.1679  0.4524  0.7626
  306MOL0     C40322   3.051   9.497   0.291 -0.7135  0.3053  0.1555
  306MOL0     C40323   3.188   9.474   0.338 -0.0106 -0.3426 -0.0511
  306MOL0     C40324   3.298   9.452   0.386  0.3451  0.3722 -0.4156
  306MOL0     C40325   2.574   9.064   0.213  0.3164  0.7425  0.4607
  306MOL0     C40326   2.444   9.034   0.166 -1.0520 -0.1531  0.3747
  306MOL0     H40327   2.080   9.152  -0.099 -3.0018 -0.8921  0.6303
  306MOL0     H40328   1.853   9.139  -0.211 -1.3975 -2.7168  0.9913
  306MOL0     H40329   1.687   9.149  -0.347  2.4437  0.2355  0.4994
  306MOL0     H40330   1.666   8.976  -0.294  0.6298 -0.1477 -1.1322
  306MOL0     H40331   1.589   8.936  -0.535 -0.7701 -0.6069  1.3923
  306MOL0     H40332   1.620   9.104  -0.562  0.0866 -1.2260 -0.8974
  306MOL0     H40333   1.420   9.130  -0.370 -1.9258 -1.2461  0.4068
  306MOL0     H40334   1.415   8.956  -0.376  0.9636  0.6800  1.2096
  306MOL0     H40335   1.400   9.163  -0.607 -0.8194  0.5094  1.6301
  306MOL0     H40336   1.360   8.989  -0.630 -3.0674  1.6675 -3.0134
  306MOL0     H40337   1.209   9.167  -0.448  0.1415  0.2801 -0.3566
  306MOL0     H40338   1.178   8.990  -0.481  3.8933 -0.6963  0.9889
  306MOL0     H40339   1.150   9.051  -0.724 -1.5669 -0.8360  1.0234
  306MOL0     H40340   1.148   9.223  -0.671 -0.3896  0.5721 -0.3261
  306MOL0     H40341   0.937   9.087  -0.735 -2.1001 -0.7283  0.4639
  306MOL0     H40342   0.945   9.006  -0.589  0.4087 -1.1198 -2.0149
  306MOL0     H40343   0.944   9.313  -0.611  0.2824  0.8309  0.3350
  306MOL0     H40344   0.948   9.227  -0.458 -0.7625 -4.7500  0.2226
  306MOL0     H40345   0.701   9.081  -0.416 -0.6292  1.8371  1.6860
  306MOL0     H40346   0.386   9.205  -0.460  0.5610  2.1526 -3.1241
  306MOL0     H40347   0.441   9.045  -0.421 -0.4074  0.8489 -0.2773
  306MOL0     H40348   0.317   9.128  -0.683 -0.8907 -0.6623 -0.7190
  306MOL0     H40349   0.254   9.009  -0.575 -2.1705 -1.1303 -3.4819
  306MOL0     H40350   0.361   8.916  -0.763  0.2320  2.4233  0.0285
  306MOL0     H40351   0.521   8.990  -0.725 -0.3443 -0.6875 -2.5947
  306MOL0     H40352   0.551   8.862  -0.532 -2.0417  0.4529  0.3118
  306MOL0     H40353   0.489   8.740  -0.652  0.9321  0.8371 -0.0079
  306MOL0     H40354   0.320   8.632  -0.750  1.0316  1.8804  0.2187
  306MOL0     H40355   0.119   8.560  -0.832  1.8126  1.8403 -1.5054
  306MOL0     H40356  -0.335   8.407  -0.799  0.9047  1.2432 -0.4117
  306MOL0     H40357  -0.563   8.320  -0.826 -1.4988 -0.1248  0.0892
  306MOL0     H40358  -0.779   8.279  -0.811  2.1903  1.6018 -0.5822
  306MOL0     H40359  -0.782   8.396  -0.947  1.6883  0.5466  1.0752
  306MOL0     H40360  -0.996   8.286  -0.937  1.2400  0.2999 -0.0748
  306MOL0     H40361  -1.018   8.451  -0.909  0.0005 -0.1086  0.6031
  306MOL0     H40362  -1.162   8.344  -0.758  0.1137 -1.7359 -0.7175
  306MOL0     H40363  -1.026   8.409  -0.662  1.0941  0.1977  0.0284
  306MOL0     H40364  -1.026   8.112  -0.763  1.6955  1.0395 -0.8520
  306MOL0     H40365  -0.928   8.203  -0.644  1.1652  0.3310 -3.1228
  306MOL0     H40366  -1.238   8.168  -0.613 -0.5733  1.3752  1.6768
  306MOL0     H40367  -1.125   8.231  -0.499  0.0822 -0.1004  0.1075
  306MOL0     H40368  -0.992   8.027  -0.471  0.1182  0.8805 -0.3984
  306MOL0     H40369  -1.104   7.936  -0.567 -1.1351 -0.7717  1.5510
  306MOL0     H40370  -1.290   8.017  -0.417 -0.6387  1.2847  0.8740
  306MOL0     H40371  -1.185   7.890  -0.359 -0.7253  0.1206  0.0258
  306MOL0     H40372  -1.202   8.186  -0.284  1.6805 -0.0530  0.2663
  306MOL0     H40373  -1.049   8.092  -0.256  0.2023  0.0755  0.8361
  306MOL0     H40374  -0.709   8.700  -0.692 -0.0211  0.1886 -1.3471
  306MOL0     H40375  -0.472   8.784  -0.649 -0.4809  0.7986 -1.6214
  306MOL0     H40376  -0.092   8.781  -0.527 -0.5444  0.8804 -1.2088
  306MOL0     H40377   0.103   8.859  -0.445 -0.4933 -1.0059  0.1288
  306MOL0     H40378   2.018   8.895  -0.511 -0.5749  3.0618 -0.9673
  306MOL0     H40379   2.238   8.874  -0.390 -2.2491 -1.5743 -2.0924
  306MOL0     H40380   2.545   8.942  -0.147 -1.4754  0.2178  0.5411
  306MOL0     H40381   2.751   8.982  -0.065 -0.5579  1.2719 -0.3142
  306MOL0     H40382   2.764   9.285   0.128  0.3091  1.1534  2.4870
  306MOL0     H40383   2.888   9.190   0.037 -2.7098 -1.5204 -0.4357
  306MOL0     H40384   2.892   9.278   0.329 -0.5502 -1.5695  0.9497
  306MOL0     H40385   3.017   9.190   0.241 -0.8962 -0.1501 -1.3684
  306MOL0     H40386   2.921   9.458   0.130 -0.2301 -1.4817 -1.6295
  306MOL0     H40387   3.088   9.387   0.108 -0.5048 -0.4459  0.5491
  306MOL0     H40388   3.053   9.601   0.258  0.7591  0.5973  1.0279
  306MOL0     H40389   2.985   9.489   0.378 -2.3255 -0.2067 -1.0838
  306MOL0     H40390   3.394   9.424   0.425  0.1525  0.4101  0.0921
  306MOL0     H40391   2.586   9.094   0.317  1.4038 -1.5016  1.0412
  306MOL0     H40392   2.360   9.043   0.233 -0.0706 -2.1746  1.9792
  307MOL0     O40393   5.047   1.579   3.749  0.0651 -0.2892 -0.2680
  307MOL0     C40394   5.100   1.478   3.697  0.4303 -0.1113 -0.4900
  307MOL0     O40395   5.032   1.378   3.640  0.3460 -0.0596  0.2599
  307MOL0     C40396   4.903   1.390   3.606  0.4619 -0.3939  0.6892
  307MOL0     C40397   4.804   1.326   3.681 -0.3048 -0.2665 -0.9863
  307MOL0     C40398   4.666   1.331   3.642 -0.3036  1.2182 -0.7742
  307MOL0     C40399   4.634   1.400   3.524 -0.2181 -0.3969  0.1764
  307MOL0     O40400   4.506   1.389   3.482  0.1207 -0.1395 -0.3790
  307MOL0     C40401   4.442   1.504   3.433 -0.6241 -0.5453  0.0709
  307MOL0     C40402   4.289   1.483   3.426  0.8658 -0.0886  0.6343
  307MOL0     C40403   4.212   1.495   3.553 -0.8662  1.1730 -0.0074
  307MOL0     C40404   4.063   1.464   3.552  0.2937  0.6367  0.5849
  307MOL0     C40405   4.028   1.341   3.461 -0.2444 -0.0795  0.1461
  307MOL0     C40406   3.884   1.292   3.479  0.0937  0.0076  0.0288
  307MOL0     C40407   3.785   1.388   3.408 -0.0944  0.3423  0.5296
  307MOL0     C40408   3.644   1.341   3.378  0.2266 -0.0434 -0.1594
  307MOL0     N40409   3.557   1.323   3.488  0.0210  0.3640 -0.3337
  307MOL0     C40410   3.455   1.407   3.515 -0.1347  0.1723 -0.2236
  307MOL0     C40411   3.381   1.347   3.603 -0.0653  0.5632 -0.4449
  307MOL0     C40412   3.243   1.372   3.662  0.3857 -0.0586 -0.0418
  307MOL0     C40413   3.196   1.519   3.657 -0.1831  0.2805 -0.0700
  307MOL0     C40414   3.102   1.547   3.767 -0.5522 -0.4232  0.7153
  307MOL0     C40415   3.049   1.691   3.764 -0.1457  0.1240  0.2566
  307MOL0     O40416   2.997   1.744   3.639 -0.4302 -0.4588 -0.5544
  307MOL0     C40417   2.864   1.719   3.617 -0.0598  0.5175 -0.0367
  307MOL0     C40418   2.808   1.770   3.499 -0.2296 -0.5142  0.3336
  307MOL0     C40419   2.674   1.752   3.459  0.0650  0.4438 -0.4395
  307MOL0     C40420   2.579   1.676   3.540  0.0876 -0.7840  0.2731
  307MOL0     C40421   2.435   1.658   3.511 -0.0849 -0.3530 -0.4949
  307MOL0     O40422   2.398   1.683   3.383  0.6053  0.7672 -0.2141
  307MOL0     C40423   2.264   1.684   3.362  0.0168 -0.4820  0.8291
  307MOL0     C40424   2.200   1.558   3.364  0.0899  1.0894  0.9354
  307MOL0     C40425   2.057   1.562   3.363  0.2301  0.8443  0.0726
  307MOL0     C40426   1.986   1.679   3.347  0.4434  0.3784  0.6043
  307MOL0     O40427   1.850   1.681   3.339 -0.0403  0.7810  0.4796
  307MOL0     C40428   1.796   1.613   3.224 -1.0900 -0.5227 -0.3834
  307MOL0     C40429   1.641   1.625   3.235 -0.4306 -0.4526 -0.0589
  307MOL0     C40430   1.577   1.537   3.348  0.4359 -1.1179 -0.2269
  307MOL0     C40431   1.424   1.541   3.334  0.7182 -0.1198  0.1182
  307MOL0     C40432   1.374   1.393   3.290  0.1659 -0.3488 -0.4441
  307MOL0     C40433   1.226   1.387   3.266  0.7182  0.2086  0.0459
  307MOL0     C40434   1.177   1.471   3.153 -0.8531 -0.1860 -0.0794
  307MOL0     C40435   1.021   1.484   3.158  0.2579 -0.4002 -0.3378
  307MOL0    Cl40436   0.963   1.598   3.032  0.4005  0.4984 -0.0454
  307MOL0     C40437   2.049   1.798   3.339  1.0653 -0.8060 -0.0763
  307MOL0     C40438   2.183   1.811   3.351  1.0022 -0.4566 -0.3925
  307MOL0     O40439   2.359   1.624   3.597  0.1615  0.1584 -0.7947
  307MOL0     C40440   2.636   1.638   3.664  0.0235  0.2661  0.7995
  307MOL0     C40441   2.778   1.640   3.694  1.1503  0.6618  0.3767
  307MOL0     N40442   3.444   1.221   3.628 -0.2378  1.2261 -0.1757
  307MOL0     N40443   3.558   1.218   3.570 -0.2518  0.7383  0.1390
  307MOL0     C40444   4.736   1.457   3.445  0.4640 -0.8277  0.0902
  307MOL0     C40445   4.864   1.465   3.491  0.2498 -0.4149 -0.3583
  307MOL0     C40446   5.256   1.459   3.691  0.4247  0.4330  0.6176
  307MOL0     C40447   5.307   1.400   3.570 -0.2154 -0.4084 -0.5727
  307MOL0     C40448   5.443   1.367   3.568 -0.2700 -0.0943  0.3051
  307MOL0     C40449   5.526   1.417   3.669 -0.3932  0.8834  0.0264
  307MOL0     O40450   5.661   1.393   3.670  0.2827 -0.8071 -0.0686
  307MOL0     C40451   5.760   1.492   3.678  0.2867  1.0197  0.0393
  307MOL0     C40452   5.879   1.443   3.755  0.2422  0.2800 -0.1566
  307MOL0     C40453   5.879   1.499   3.902  0.2737  0.2264  0.3026
  307MOL0     C40454   5.995   1.481   3.988 -0.0246 -0.4876 -0.4675
  307MOL0     C40455   6.118   1.527   3.921  0.0075 -0.3711 -0.3587
  307MOL0     C40456   6.233   1.537   3.887 -1.5228 -0.1595 -0.0537
  307MOL0     C40457   5.474   1.488   3.775 -0.4238 -0.2578  0.5467
  307MOL0     C40458   5.339   1.518   3.788  0.0343  0.1613 -0.0752
  307MOL0     H40459   4.842   1.273   3.768 -0.1344  1.7326  0.2284
  307MOL0     H40460   4.588   1.294   3.707  0.6334  3.3748  1.7461
  307MOL0     H40461   4.476   1.525   3.332 -1.6093  0.9074  0.0040
  307MOL0     H40462   4.469   1.599   3.480  4.2872 -1.7128  0.0498
  307MOL0     H40463   4.272   1.385   3.379 -3.4840  0.4687  0.6383
  307MOL0     H40464   4.233   1.558   3.369 -1.8443 -1.0391  1.8649
  307MOL0     H40465   4.230   1.592   3.599  1.0694  0.0912  1.6398
  307MOL0     H40466   4.262   1.419   3.613  1.3228  1.6554 -1.1060
  307MOL0     H40467   4.018   1.459   3.652 -1.5628  0.4104 -0.2158
  307MOL0     H40468   4.013   1.541   3.493  2.3775 -0.3797 -2.7665
  307MOL0     H40469   4.093   1.255   3.481  0.0689 -0.0294 -0.6203
  307MOL0     H40470   4.023   1.372   3.357  1.8785 -0.1677 -0.0273
  307MOL0     H40471   3.862   1.279   3.585 -1.3952  0.1829 -0.2311
  307MOL0     H40472   3.867   1.189   3.447 -2.2141  0.2822  0.1881
  307MOL0     H40473   3.782   1.487   3.457 -1.2503  1.0165 -0.8257
  307MOL0     H40474   3.816   1.400   3.304 -1.1475  1.1317  0.2867
  307MOL0     H40475   3.662   1.246   3.328 -2.2558  0.8602 -3.1323
  307MOL0     H40476   3.593   1.407   3.306 -1.3958 -0.5431  0.4935
  307MOL0     H40477   3.433   1.506   3.476 -1.8317  0.7135  1.9031
  307MOL0     H40478   3.241   1.336   3.765  3.6138 -0.0612  0.1395
  307MOL0     H40479   3.168   1.317   3.606 -1.1470 -0.3845  2.2038
  307MOL0     H40480   3.132   1.534   3.569  1.0342  3.9207 -0.4717
  307MOL0     H40481   3.278   1.591   3.659 -1.5891  2.0640 -2.3099
  307MOL0     H40482   3.018   1.481   3.744  0.7396 -1.2452 -1.9975
  307MOL0     H40483   3.158   1.526   3.859 -0.6797 -1.0836  0.6422
  307MOL0     H40484   3.137   1.752   3.784 -1.6142  2.7594 -0.7674
  307MOL0     H40485   2.975   1.706   3.844 -3.2577 -1.5841 -2.0559
  307MOL0     H40486   2.882   1.823   3.440 -1.1694  0.2468 -0.2025
  307MOL0     H40487   2.634   1.792   3.366 -0.0916  1.6406  0.1172
  307MOL0     H40488   2.251   1.466   3.387 -1.3666  0.1212  0.4049
  307MOL0     H40489   1.993   1.477   3.386  1.8065 -0.5311 -0.3708
  307MOL0     H40490   1.819   1.506   3.218  1.0355 -0.1772  0.6394
  307MOL0     H40491   1.830   1.662   3.132 -0.9514 -1.6416 -0.9438
  307MOL0     H40492   1.598   1.588   3.142  2.8818 -1.0276 -1.5117
  307MOL0     H40493   1.612   1.729   3.252  0.5517 -0.6502  3.9838
  307MOL0     H40494   1.608   1.576   3.446  3.2450  1.9326 -2.1063
  307MOL0     H40495   1.613   1.434   3.355  1.2196 -0.8060  0.6698
  307MOL0     H40496   1.368   1.567   3.424  1.8381  1.9257  0.3043
  307MOL0     H40497   1.397   1.621   3.265  0.0295 -0.4791 -0.0393
  307MOL0     H40498   1.394   1.317   3.367  4.2011  0.4218 -0.5074
  307MOL0     H40499   1.422   1.364   3.196 -2.1933 -1.0505 -1.5258
  307MOL0     H40500   1.172   1.411   3.358 -1.6798 -2.0243 -0.6344
  307MOL0     H40501   1.206   1.281   3.248  0.9432  0.2912 -0.7169
  307MOL0     H40502   1.216   1.573   3.153 -2.2332  0.3687 -1.2742
  307MOL0     H40503   1.206   1.430   3.056  1.5851  0.5803  0.2613
  307MOL0     H40504   0.989   1.523   3.255  3.1352  1.1341  0.1250
  307MOL0     H40505   0.981   1.383   3.150  2.9318 -1.6361  0.7382
  307MOL0     H40506   1.982   1.882   3.321 -0.6861 -1.9969  0.6259
  307MOL0     H40507   2.232   1.908   3.358  2.7642 -1.4147  1.5157
  307MOL0     H40508   2.570   1.589   3.736  0.4167 -0.8625  0.4151
  307MOL0     H40509   2.810   1.581   3.779  1.4741  1.3090  0.7085
  307MOL0     H40510   4.698   1.483   3.347  2.4338 -1.6776 -0.9658
  307MOL0     H40511   4.939   1.521   3.435 -1.7648  1.9806 -0.8085
  307MOL0     H40512   5.246   1.379   3.483 -0.3483  0.3065 -0.6644
  307MOL0     H40513   5.498   1.310   3.493 -0.1716  1.7823 -1.1185
  307MOL0     H40514   5.718   1.589   3.708 -1.5252 -0.1520  1.4903
  307MOL0     H40515   5.806   1.512   3.581 -0.3316 -1.9226 -0.9500
  307MOL0     H40516   5.888   1.334   3.769 -0.2395  0.4067  1.2932
  307MOL0     H40517   5.975   1.471   3.710  0.6292 -0.9100 -0.1319
  307MOL0     H40518   5.790   1.459   3.952 -0.3352  0.2527 -0.7129
  307MOL0     H40519   5.867   1.607   3.891  0.0669  0.0466 -1.5111
  307MOL0     H40520   5.987   1.530   4.085 -0.1698  1.5179 -1.4455
  307MOL0     H40521   6.001   1.372   4.002  1.9379 -0.7595 -2.7187
  307MOL0     H40522   6.332   1.543   3.845 -1.2387  2.9995  0.8133
  307MOL0     H40523   5.530   1.521   3.862  0.5134 -1.8342  0.5790
  307MOL0     H40524   5.292   1.579   3.864  2.3190  2.2155 -0.1875
  308MOL0     O40525   8.221   5.212  11.029 -0.0457  0.2639 -0.4757
  308MOL0     C40526   8.323   5.146  11.020 -0.5236 -0.3827 -0.6901
  308MOL0     O40527   8.373   5.078  10.911  0.3940 -0.0856 -0.5221
  308MOL0     C40528   8.326   5.127  10.795 -0.2193  0.7787  0.9575
  308MOL0     C40529   8.425   5.190  10.705 -1.0957  0.2980  0.2579
  308MOL0     C40530   8.396   5.233  10.580  0.2202 -0.6404  0.8896
  308MOL0     C40531   8.265   5.221  10.529 -0.3050  0.2316  0.1749
  308MOL0     O40532   8.233   5.260  10.399 -1.0370  0.4857  0.1022
  308MOL0     C40533   8.278   5.387  10.347 -0.4447 -0.1665  0.6117
  308MOL0     C40534   8.246   5.386  10.195 -0.0822  0.2093 -1.2445
  308MOL0     C40535   8.106   5.348  10.159  0.2894  0.0163  0.4540
  308MOL0     C40536   8.087   5.397  10.008  0.7313 -0.6528 -0.4674
  308MOL0     C40537   7.945   5.368   9.949 -0.8914  0.2420  0.7180
  308MOL0     C40538   7.823   5.417  10.025 -0.5615 -0.7958  0.0681
  308MOL0     C40539   7.817   5.568  10.020 -0.5626  0.2191 -0.1173
  308MOL0     C40540   7.738   5.624  10.135 -0.7804 -0.2221  0.4954
  308MOL0     N40541   7.809   5.632  10.261  0.7433 -1.4717  0.2512
  308MOL0     C40542   7.815   5.528  10.346  0.3419 -0.3035  0.3997
  308MOL0     C40543   7.896   5.565  10.447  0.2462  0.3384 -0.3663
  308MOL0     C40544   7.935   5.473  10.564 -0.2772 -0.9124 -0.1061
  308MOL0     C40545   8.032   5.555  10.658 -0.0323 -0.2521 -0.7246
  308MOL0     C40546   8.065   5.468  10.770  0.2314  0.7033 -0.1216
  308MOL0     C40547   7.958   5.448  10.885 -0.7976  0.2335  0.1810
  308MOL0     O40548   7.870   5.564  10.898 -0.0117  0.1903  0.4065
  308MOL0     C40549   7.737   5.542  10.933 -0.4672  0.1851 -1.0570
  308MOL0     C40550   7.643   5.639  10.897  0.3697 -0.1782  0.1112
  308MOL0     C40551   7.510   5.629  10.929  0.5841  0.1186 -0.8992
  308MOL0     C40552   7.463   5.516  11.003  0.5174 -0.4934  0.0849
  308MOL0     C40553   7.314   5.488  11.018 -0.1672 -0.0450 -0.2920
  308MOL0     O40554   7.228   5.571  10.957  0.4465 -0.5153 -0.1741
  308MOL0     C40555   7.099   5.538  10.940  0.1831 -0.4767 -0.0585
  308MOL0     C40556   6.992   5.625  10.972 -0.0376 -0.0707 -0.1564
  308MOL0     C40557   6.854   5.583  10.955 -0.2287  0.4070 -0.1628
  308MOL0     C40558   6.825   5.460  10.891  0.1918 -0.0592  0.3183
  308MOL0     O40559   6.693   5.428  10.864  0.3558  0.2026  0.3193
  308MOL0     C40560   6.594   5.528  10.872  0.2606 -0.1640 -0.0665
  308MOL0     C40561   6.472   5.457  10.834  0.1585  0.8006  0.2334
  308MOL0     C40562   6.355   5.554  10.817 -0.3012  0.3159  0.9932
  308MOL0     C40563   6.219   5.491  10.817  0.4818  0.2508  0.7218
  308MOL0     C40564   6.117   5.601  10.778  0.1905  0.5217  0.0235
  308MOL0     C40565   5.982   5.536  10.769 -0.6158 -0.3864  0.3673
  308MOL0     C40566   5.878   5.626  10.693 -0.2805  0.0400 -0.2615
  308MOL0     C40567   5.737   5.559  10.692 -0.0432  0.3279  0.2086
  308MOL0    Cl40568   5.654   5.523  10.852  0.0301 -0.0790  0.1840
  308MOL0     C40569   6.925   5.369  10.856  0.0756 -1.0992 -0.9047
  308MOL0     C40570   7.062   5.411  10.885 -0.3480 -0.6662  0.4335
  308MOL0     O40571   7.280   5.392  11.076 -0.4313  0.5433  0.3902
  308MOL0     C40572   7.552   5.424  11.048 -0.6777  0.2034  0.6650
  308MOL0     C40573   7.688   5.431  11.010 -0.4072  0.5585 -0.6160
  308MOL0     N40574   7.946   5.691  10.417 -0.3066 -0.3518  0.5643
  308MOL0     N40575   7.894   5.730  10.298  0.0575  0.1827 -0.3070
  308MOL0     C40576   8.169   5.150  10.607  0.9163 -0.6522 -0.4493
  308MOL0     C40577   8.198   5.106  10.738  0.5004 -0.9721 -0.2089
  308MOL0     C40578   8.389   5.114  11.159  0.5990 -0.8769  0.6838
  308MOL0     C40579   8.474   5.002  11.184  0.1191 -0.1271  0.1508
  308MOL0     C40580   8.526   4.976  11.309 -0.7830  0.2027 -0.2017
  308MOL0     C40581   8.504   5.059  11.412 -1.2629 -0.1667  0.3969
  308MOL0     O40582   8.558   5.036  11.530 -0.1767  0.5035 -0.4556
  308MOL0     C40583   8.514   5.105  11.652  0.7962 -0.7065  0.1341
  308MOL0     C40584   8.597   5.048  11.772 -0.4841 -0.2687  0.4363
  308MOL0     C40585   8.760   5.050  11.752  0.5842 -0.4032  0.1265
  308MOL0     C40586   8.844   5.032  11.878 -0.3886  0.9505 -0.3677
  308MOL0     C40587   8.838   4.886  11.926 -0.0777  0.1452 -0.6418
  308MOL0     C40588   8.821   4.767  11.957  0.2000 -0.2938 -0.2101
  308MOL0     C40589   8.413   5.170  11.395 -0.7903  0.1230 -0.4883
  308MOL0     C40590   8.358   5.198  11.269  0.5275  0.7107 -1.0114
  308MOL0     H40591   8.523   5.217  10.744 -1.8332  0.8764  1.7908
  308MOL0     H40592   8.462   5.287  10.513 -1.4463  0.2166 -0.1458
  308MOL0     H40593   8.386   5.397  10.356 -0.0578 -3.2053  0.4088
  308MOL0     H40594   8.219   5.466  10.394  1.8099  1.3066  1.1180
  308MOL0     H40595   8.306   5.322  10.130 -1.7449  0.4005 -3.0556
  308MOL0     H40596   8.271   5.486  10.158  1.2559  0.9342  1.3596
  308MOL0     H40597   8.044   5.406  10.228  0.6253  1.6594 -0.5661
  308MOL0     H40598   8.075   5.244  10.157 -1.2213  0.4519 -1.5502
  308MOL0     H40599   8.109   5.504  10.002  0.9156 -0.7371 -1.5213
  308MOL0     H40600   8.163   5.345   9.949  0.2228 -2.3275  0.2656
  308MOL0     H40601   7.951   5.260   9.936  2.5302  0.6104 -2.4678
  308MOL0     H40602   7.948   5.413   9.849  3.1481 -0.3109  0.4456
  308MOL0     H40603   7.823   5.385  10.130  0.4412  3.3676  1.5368
  308MOL0     H40604   7.743   5.364   9.972 -0.6452  1.0314 -1.7485
  308MOL0     H40605   7.916   5.614  10.018  0.0095 -0.9838 -0.6498
  308MOL0     H40606   7.773   5.610   9.929 -2.7419  0.7998  1.1303
  308MOL0     H40607   7.655   5.554  10.143  1.4397 -3.1920 -0.4525
  308MOL0     H40608   7.690   5.718  10.106  1.0198  0.2771 -1.0381
  308MOL0     H40609   7.757   5.436  10.347 -1.5306  0.8145  0.6188
  308MOL0     H40610   7.982   5.390  10.511 -1.5660 -0.9249 -1.2787
  308MOL0     H40611   7.843   5.454  10.619 -1.4572  2.4963 -0.6683
  308MOL0     H40612   8.000   5.654  10.691  0.3222 -0.8880  1.7912
  308MOL0     H40613   8.128   5.575  10.609 -0.8653  1.4342 -1.7413
  308MOL0     H40614   8.086   5.373  10.720 -0.7504  1.0269 -1.1822
  308MOL0     H40615   8.148   5.502  10.833  0.2734 -0.7572  0.6692
  308MOL0     H40616   8.007   5.424  10.980  1.4584  0.2157 -0.9198
  308MOL0     H40617   7.896   5.360  10.866 -0.6867  0.4581 -1.3519
  308MOL0     H40618   7.676   5.732  10.851 -2.7582  0.5487 -0.9553
  308MOL0     H40619   7.446   5.716  10.914 -1.9487 -1.6396 -0.9151
  308MOL0     H40620   7.018   5.724  11.006  1.7772 -0.4935 -0.2426
  308MOL0     H40621   6.779   5.655  10.983  0.2464  1.3863 -1.3068
  308MOL0     H40622   6.616   5.613  10.806  3.6958  0.3337  1.5047
  308MOL0     H40623   6.576   5.570  10.971 -2.6539  0.0398 -0.6139
  308MOL0     H40624   6.439   5.390  10.913 -2.9629  2.1868  0.2460
  308MOL0     H40625   6.480   5.396  10.743  1.3686 -1.1258  1.5661
  308MOL0     H40626   6.370   5.601  10.719  1.8199 -0.7189  0.7420
  308MOL0     H40627   6.349   5.625  10.899 -2.7535 -0.5445  1.6453
  308MOL0     H40628   6.208   5.404  10.752 -1.3303  1.2822 -0.4148
  308MOL0     H40629   6.199   5.456  10.919  1.0468 -2.2901  0.0213
  308MOL0     H40630   6.134   5.639  10.677 -2.4918  1.0394 -0.2844
  308MOL0     H40631   6.123   5.680  10.853  0.1398 -0.4010  1.0200
  308MOL0     H40632   5.946   5.494  10.863 -0.9522  0.0761  0.4490
  308MOL0     H40633   5.995   5.457  10.695  1.2511  0.7731 -0.6321
  308MOL0     H40634   5.870   5.721  10.747 -1.5365 -0.4906  0.5173
  308MOL0     H40635   5.914   5.641  10.591  2.7160 -0.1324  0.6759
  308MOL0     H40636   5.744   5.471  10.628 -0.4994  1.5318 -1.5683
  308MOL0     H40637   5.673   5.631  10.640 -1.1003 -2.1635 -2.1766
  308MOL0     H40638   6.899   5.267  10.828  0.8563 -1.1402 -1.5295
  308MOL0     H40639   7.136   5.339  10.852  0.2555 -0.3523  1.0734
  308MOL0     H40640   7.527   5.334  11.104  1.4660 -1.7846 -1.3399
  308MOL0     H40641   7.760   5.356  11.040  0.0653  1.4677  0.5529
  308MOL0     H40642   8.066   5.147  10.573 -0.0672  0.9292  2.1071
  308MOL0     H40643   8.116   5.062  10.794  1.8767 -3.6063 -0.1195
  308MOL0     H40644   8.484   4.933  11.101 -0.8136  1.7716 -1.6514
  308MOL0     H40645   8.591   4.891  11.327 -1.0961 -0.1739 -0.8044
  308MOL0     H40646   8.409   5.080  11.666 -0.5087  1.9280 -3.5215
  308MOL0     H40647   8.528   5.213  11.654  0.2461 -0.6506  1.1162
  308MOL0     H40648   8.562   5.093  11.865 -1.9558 -1.9968  0.7896
  308MOL0     H40649   8.564   4.944  11.777 -2.6154  0.2575 -0.9716
  308MOL0     H40650   8.770   5.152  11.715 -3.8411  0.2478  0.1560
  308MOL0     H40651   8.805   4.987  11.674  2.5554 -1.3175  1.8902
  308MOL0     H40652   8.950   5.052  11.859  0.7616 -2.7573  1.2781
  308MOL0     H40653   8.801   5.096  11.955 -4.2877 -0.8118 -0.8461
  308MOL0     H40654   8.821   4.663  11.981  2.5106 -0.2703  0.0952
  308MOL0     H40655   8.393   5.244  11.472  1.4212  1.1089 -0.7765
  308MOL0     H40656   8.278   5.271  11.268 -0.4436 -0.2638  0.4962
  309MOL0     O40657   6.024   9.943   7.786 -0.0413  0.3991  0.1682
  309MOL0     C40658   6.080  10.010   7.867  0.1708 -0.3732 -1.1104
  309MOL0     O40659   6.087  10.141   7.874 -0.2625 -1.0538  0.2315
  309MOL0     C40660   6.022  10.211   7.777 -0.3044  0.1058 -0.1753
  309MOL0     C40661   6.040  10.197   7.641  0.0289  0.1007  0.1965
  309MOL0     C40662   5.983  10.293   7.553  0.1907 -0.2090  0.1419
  309MOL0     C40663   5.907  10.397   7.595 -1.0650 -0.8369 -0.7362
  309MOL0     O40664   5.866  10.483   7.499  0.0341 -0.0977  0.3904
  309MOL0     C40665   5.791  10.600   7.539  0.8675 -0.2325  0.6006
  309MOL0     C40666   5.718  10.665   7.411 -0.5246  0.0971 -0.1335
  309MOL0     C40667   5.812  10.721   7.307 -0.6176  0.0548  0.0058
  309MOL0     C40668   5.732  10.774   7.192 -0.0344 -0.4229  0.2307
  309MOL0     C40669   5.806  10.854   7.084 -0.3744 -0.1395 -0.4087
  309MOL0     C40670   5.712  10.948   7.003 -0.0921 -0.2699  0.0796
  309MOL0     C40671   5.589  10.872   6.949 -0.3263  0.7601 -0.6122
  309MOL0     C40672   5.629  10.780   6.836 -0.0921 -0.0517  0.6515
  309MOL0     N40673   5.517  10.698   6.786 -0.1281 -0.0046  0.0191
  309MOL0     C40674   5.400  10.747   6.740 -0.1578 -0.8647  0.5447
  309MOL0     C40675   5.332  10.641   6.705  0.1049  0.1262  0.6156
  309MOL0     C40676   5.199  10.643   6.632 -0.4082 -0.4143  0.6760
  309MOL0     C40677   5.161  10.778   6.555  0.5867  0.6468 -0.4950
  309MOL0     C40678   5.042  10.754   6.454 -0.8686  0.0449  0.0106
  309MOL0     C40679   4.919  10.716   6.536  0.4940  0.3367  0.6353
  309MOL0     O40680   4.809  10.726   6.442 -0.3507  0.3730 -0.9369
  309MOL0     C40681   4.680  10.707   6.484 -0.4256 -0.8510 -0.3616
  309MOL0     C40682   4.581  10.735   6.389 -0.0557 -0.0760  0.6591
  309MOL0     C40683   4.451  10.709   6.413  0.0303 -0.3526  0.0770
  309MOL0     C40684   4.415  10.656   6.538  0.0604 -0.0899 -0.0967
  309MOL0     C40685   4.272  10.625   6.555 -0.2109 -0.5704 -0.4319
  309MOL0     O40686   4.193  10.631   6.445 -0.0899 -0.5713  0.3337
  309MOL0     C40687   4.060  10.600   6.454  0.1125  0.0629 -0.9161
  309MOL0     C40688   3.962  10.637   6.554 -0.1177  0.4450 -0.3360
  309MOL0     C40689   3.823  10.597   6.538 -0.5719  0.6727  0.2620
  309MOL0     C40690   3.776  10.529   6.422 -0.4531  0.0723  0.7715
  309MOL0     O40691   3.632  10.498   6.413 -0.3452 -0.8260 -0.2460
  309MOL0     C40692   3.604  10.393   6.319  0.5769  0.8243 -0.4888
  309MOL0     C40693   3.481  10.340   6.390  0.1402 -0.6718 -0.2928
  309MOL0     C40694   3.402  10.270   6.286  0.4067  0.0402  0.3987
  309MOL0     C40695   3.260  10.221   6.320  0.1366 -0.2414  0.3778
  309MOL0     C40696   3.215  10.114   6.229  0.5280 -0.4144 -0.0979
  309MOL0     C40697   3.070  10.121   6.194  1.0795 -0.4780 -1.1263
  309MOL0     C40698   2.983  10.099   6.323 -0.0666 -0.5028  0.6197
  309MOL0     C40699   2.840  10.059   6.281 -0.1962 -0.1612 -0.1507
  309MOL0    Cl40700   2.816   9.886   6.224 -0.4399 -0.2039  0.0511
  309MOL0     C40701   3.876  10.492   6.325  0.8800 -0.2118  0.1397
  309MOL0     C40702   4.011  10.531   6.339  0.1513 -0.0734  0.1983
  309MOL0     O40703   4.234  10.601   6.668 -0.5783 -0.4435 -0.5592
  309MOL0     C40704   4.513  10.637   6.631  0.1281 -0.0335 -0.1876
  309MOL0     C40705   4.646  10.655   6.606 -0.4246 -0.0406 -1.1685
  309MOL0     N40706   5.403  10.526   6.735 -0.1961 -0.4594  0.1986
  309MOL0     N40707   5.522  10.565   6.789 -0.0977  0.3793 -0.7798
  309MOL0     C40708   5.887  10.411   7.737 -0.6080 -0.2820 -0.2441
  309MOL0     C40709   5.959  10.325   7.824  0.7123 -0.4108  0.7713
  309MOL0     C40710   6.129   9.931   7.983  0.0262  0.5845  0.6153
  309MOL0     C40711   6.237   9.985   8.061  0.1750  0.1447 -0.5203
  309MOL0     C40712   6.291   9.912   8.165 -0.3019  0.3970  0.0320
  309MOL0     C40713   6.251   9.780   8.185  0.0552  1.0730 -0.5396
  309MOL0     O40714   6.299   9.689   8.279  0.0029 -0.4494  0.1082
  309MOL0     C40715   6.425   9.715   8.337  0.5020 -0.1636  0.4210
  309MOL0     C40716   6.539   9.700   8.234 -0.4620 -0.6776  0.3009
  309MOL0     C40717   6.539   9.567   8.175 -0.1842 -0.2415 -0.2481
  309MOL0     C40718   6.680   9.519   8.115  0.5940  0.1528  0.3075
  309MOL0     C40719   6.802   9.523   8.192 -1.2979 -0.6719 -0.1236
  309MOL0     C40720   6.900   9.511   8.263 -0.6373  0.0209  0.3855
  309MOL0     C40721   6.140   9.736   8.115  0.5142  0.4956  0.3179
  309MOL0     C40722   6.084   9.802   8.011  0.2557 -0.4485  0.4561
  309MOL0     H40723   6.108  10.123   7.600 -1.5208 -0.9437 -0.5867
  309MOL0     H40724   6.010  10.286   7.449 -0.7599 -0.1119 -0.1197
  309MOL0     H40725   5.854  10.672   7.593  2.5710  1.5845 -3.3633
  309MOL0     H40726   5.715  10.560   7.607 -0.4995  4.9506  2.5765
  309MOL0     H40727   5.650  10.744   7.443 -3.7014 -2.7702  0.7416
  309MOL0     H40728   5.654  10.586   7.372 -0.8004 -0.9301  2.1909
  309MOL0     H40729   5.876  10.646   7.260 -1.5778 -0.7259 -0.0710
  309MOL0     H40730   5.879  10.796   7.352  1.8813 -2.1483  0.1810
  309MOL0     H40731   5.683  10.686   7.149 -0.5952 -0.0504  0.0913
  309MOL0     H40732   5.657  10.844   7.230  2.1070  0.7190  2.6545
  309MOL0     H40733   5.858  10.782   7.019  0.0869 -0.3321  0.1618
  309MOL0     H40734   5.874  10.923   7.136  1.0011 -2.4083  0.9693
  309MOL0     H40735   5.768  11.001   6.925  3.4805 -1.8385  1.3711
  309MOL0     H40736   5.667  11.025   7.068  0.8160  0.6809 -0.3983
  309MOL0     H40737   5.545  10.799   7.017  2.9974  0.0528  0.9887
  309MOL0     H40738   5.505  10.935   6.921 -1.7810 -2.0635 -3.2224
  309MOL0     H40739   5.716  10.722   6.868 -0.9443  0.1483  3.6991
  309MOL0     H40740   5.645  10.841   6.746  0.6597 -2.0454 -0.6268
  309MOL0     H40741   5.369  10.850   6.728  1.3457 -0.4883 -0.4230
  309MOL0     H40742   5.120  10.601   6.695  0.0945 -3.0046 -0.2710
  309MOL0     H40743   5.205  10.569   6.552 -0.7472  1.7412 -1.4367
  309MOL0     H40744   5.242  10.807   6.488  0.3759 -3.3354 -2.8319
  309MOL0     H40745   5.137  10.850   6.634  0.6058 -0.7524  0.8434
  309MOL0     H40746   5.027  10.847   6.398 -0.7910 -1.0121 -1.8355
  309MOL0     H40747   5.061  10.670   6.386 -0.8651  0.0522  0.0022
  309MOL0     H40748   4.907  10.784   6.622 -3.8397 -3.0763  3.1167
  309MOL0     H40749   4.937  10.615   6.572  1.1661  0.8699  1.8701
  309MOL0     H40750   4.616  10.768   6.292 -0.0238  0.8371  0.9729
  309MOL0     H40751   4.378  10.734   6.336  0.9420  1.6276 -0.2126
  309MOL0     H40752   3.989  10.699   6.639 -0.1489  0.7818 -0.5718
  309MOL0     H40753   3.753  10.624   6.616 -1.3868 -1.1928  0.2244
  309MOL0     H40754   3.678  10.313   6.310 -0.7291 -0.5771  0.7592
  309MOL0     H40755   3.582  10.438   6.222 -1.5444  0.0345 -0.4275
  309MOL0     H40756   3.418  10.425   6.417  2.3025  1.3456 -1.2373
  309MOL0     H40757   3.511  10.281   6.477  0.5829  0.4574  0.3295
  309MOL0     H40758   3.465  10.187   6.252  1.8871  2.0131 -1.9711
  309MOL0     H40759   3.383  10.335   6.200 -1.1113  1.3513  1.6622
  309MOL0     H40760   3.253  10.186   6.424  0.8979 -0.4646  0.3602
  309MOL0     H40761   3.194  10.308   6.325 -0.9079 -0.9988  5.2557
  309MOL0     H40762   3.251  10.024   6.280 -0.0568  1.2358  3.5855
  309MOL0     H40763   3.267  10.124   6.133  0.1984 -1.2474 -0.3764
  309MOL0     H40764   3.049  10.034   6.132 -2.3606 -0.2984 -0.4333
  309MOL0     H40765   3.045  10.218   6.149  0.0179 -1.2789 -2.3246
  309MOL0     H40766   3.023  10.024   6.391 -2.4823 -0.3241  2.4041
  309MOL0     H40767   2.979  10.198   6.371  3.0367 -0.0656  0.1794
  309MOL0     H40768   2.800  10.127   6.205 -1.6982 -0.9315 -0.0967
  309MOL0     H40769   2.781  10.092   6.368  0.0543  0.1231 -0.0854
  309MOL0     H40770   3.850  10.445   6.230 -1.5438 -1.4504  1.3238
  309MOL0     H40771   4.080  10.500   6.260 -0.9529 -0.0488 -0.8108
  309MOL0     H40772   4.483  10.593   6.725  0.5591 -0.4683 -0.2534
  309MOL0     H40773   4.727  10.631   6.675  1.3824 -0.6451 -3.3844
  309MOL0     H40774   5.832  10.492   7.784  0.7315 -0.2987  1.4529
  309MOL0     H40775   5.958  10.342   7.932  1.4222 -1.0369  0.8849
  309MOL0     H40776   6.277  10.084   8.042 -0.6348  0.5992  0.0521
  309MOL0     H40777   6.376   9.951   8.221  2.2282 -2.3529 -1.5396
  309MOL0     H40778   6.442   9.657   8.429  0.0036  0.1071  0.6872
  309MOL0     H40779   6.421   9.820   8.368  1.9100 -0.0199  0.2128
  309MOL0     H40780   6.525   9.775   8.156  0.2338  0.3046  1.0913
  309MOL0     H40781   6.632   9.711   8.290 -0.1263 -1.8048 -0.0129
  309MOL0     H40782   6.460   9.547   8.103  0.5428  1.8254 -1.7214
  309MOL0     H40783   6.521   9.502   8.262 -1.2091 -1.6140 -1.4472
  309MOL0     H40784   6.674   9.414   8.084  3.3031 -0.0919  0.3292
  309MOL0     H40785   6.703   9.578   8.026  2.5831 -2.0299 -0.7354
  309MOL0     H40786   6.991   9.503   8.320  0.1933  1.4938 -0.6621
  309MOL0     H40787   6.103   9.635   8.127  0.1820  0.0227 -3.4456
  309MOL0     H40788   6.010   9.762   7.943 -0.8087  1.6418  0.3332
  310MOL0     O40789   4.848   8.924   5.709 -0.2932 -0.0416 -0.0324
  310MOL0     C40790   4.815   9.036   5.747  0.4638 -0.2881  0.1796
  310MOL0     O40791   4.685   9.074   5.761  0.1944  0.3761 -0.0002
  310MOL0     C40792   4.590   8.983   5.703  1.0918 -0.9920  0.8315
  310MOL0     C40793   4.590   8.951   5.561  0.2315  0.1931 -0.1574
  310MOL0     C40794   4.497   8.844   5.528 -0.2739 -0.0820  0.4996
  310MOL0     C40795   4.407   8.783   5.621 -0.2032 -0.1289  1.0180
  310MOL0     O40796   4.340   8.682   5.568  0.2146  0.0491  0.3877
  310MOL0     C40797   4.228   8.618   5.640  0.1841 -0.1034 -0.1124
  310MOL0     C40798   4.100   8.688   5.587  0.8386  0.6497  0.6944
  310MOL0     C40799   4.058   8.624   5.456 -0.0001 -0.3847 -0.9010
  310MOL0     C40800   3.960   8.512   5.475 -0.0112  0.5880  0.0485
  310MOL0     C40801   3.935   8.458   5.333 -0.2690 -0.0604 -0.3531
  310MOL0     C40802   3.901   8.306   5.343  0.4497 -0.4304  0.5847
  310MOL0     C40803   3.808   8.261   5.228 -0.4876 -0.3883  0.3429
  310MOL0     C40804   3.780   8.113   5.212 -0.3561 -0.3560 -0.3665
  310MOL0     N40805   3.673   8.071   5.306  0.6749 -0.3521 -0.7460
  310MOL0     C40806   3.699   8.058   5.437  0.1616  0.1056 -0.3842
  310MOL0     C40807   3.576   8.024   5.481 -0.3325  0.2076 -0.1461
  310MOL0     C40808   3.548   7.978   5.619  0.4450  0.3710  0.0492
  310MOL0     C40809   3.447   7.854   5.617 -0.2022 -0.3562  0.4765
  310MOL0     C40810   3.310   7.905   5.668  0.1172 -0.3470 -0.7026
  310MOL0     C40811   3.208   7.795   5.658 -0.1915  0.4364  0.2379
  310MOL0     O40812   3.234   7.707   5.770  0.7237 -0.5818  0.1805
  310MOL0     C40813   3.116   7.666   5.830  0.7485 -0.3049  0.5387
  310MOL0     C40814   3.048   7.751   5.915  0.4015 -0.3834 -0.4714
  310MOL0     C40815   2.927   7.704   5.974  0.8249  0.1075 -0.6661
  310MOL0     C40816   2.889   7.568   5.954  0.0576 -0.3145  0.8805
  310MOL0     C40817   2.765   7.519   6.019  0.0195 -0.0379  0.4955
  310MOL0     O40818   2.680   7.617   6.069 -0.1421 -0.2137  0.0371
  310MOL0     C40819   2.581   7.582   6.156 -0.3261 -0.0499  1.2205
  310MOL0     C40820   2.603   7.608   6.289 -0.3529  0.0402 -0.7472
  310MOL0     C40821   2.500   7.594   6.380  0.5235  0.0762  0.3827
  310MOL0     C40822   2.378   7.542   6.335 -0.0752 -0.7399 -0.1568
  310MOL0     O40823   2.281   7.531   6.428  1.1894 -0.3025  0.3074
  310MOL0     C40824   2.149   7.482   6.405  0.1051 -0.1361  0.2472
  310MOL0     C40825   2.065   7.470   6.538 -0.4230  0.1199  0.5124
  310MOL0     C40826   1.936   7.399   6.525  0.0155 -0.3565 -0.1554
  310MOL0     C40827   1.863   7.387   6.658  0.4442 -0.6029  0.2300
  310MOL0     C40828   1.760   7.501   6.661  0.7653 -0.2068  0.0800
  310MOL0     C40829   1.657   7.479   6.775  0.5965 -0.5898  0.2429
  310MOL0     C40830   1.556   7.596   6.788  0.6306  0.0997  0.1189
  310MOL0     C40831   1.474   7.620   6.657 -0.8479 -0.5064 -0.2703
  310MOL0    Cl40832   1.313   7.693   6.709  0.1570  0.3402  0.0191
  310MOL0     C40833   2.354   7.515   6.202 -0.4393  0.0338  0.7015
  310MOL0     C40834   2.454   7.532   6.111  0.4312  0.0187 -0.5813
  310MOL0     O40835   2.740   7.397   6.029  0.2024 -0.3245  0.0471
  310MOL0     C40836   2.961   7.491   5.861 -0.8856  0.1384 -0.4980
  310MOL0     C40837   3.076   7.537   5.800  0.0567  0.2917  0.4374
  310MOL0     N40838   3.475   8.042   5.390  0.3175 -0.2056  0.0896
  310MOL0     N40839   3.537   8.069   5.278  0.1845 -0.4998  0.4479
  310MOL0     C40840   4.393   8.842   5.745 -1.2773  0.8340 -0.1733
  310MOL0     C40841   4.499   8.926   5.793  0.5748 -0.3872 -0.4818
  310MOL0     C40842   4.911   9.127   5.799  0.1942  0.1651 -0.5042
  310MOL0     C40843   5.045   9.099   5.813  0.0661  0.0312  0.8967
  310MOL0     C40844   5.136   9.196   5.868 -0.3144  0.8093  0.4910
  310MOL0     C40845   5.087   9.319   5.914 -0.5742  0.5141 -0.4261
  310MOL0     O40846   5.153   9.412   5.987  0.1370 -0.2170 -0.2782
  310MOL0     C40847   5.287   9.387   6.020 -0.3696  0.0517  0.0747
  310MOL0     C40848   5.340   9.505   6.099  0.4859  0.0971 -0.4282
  310MOL0     C40849   5.497   9.488   6.133 -0.2587  0.0786  0.0843
  310MOL0     C40850   5.531   9.503   6.280 -0.2571 -0.2997  0.2439
  310MOL0     C40851   5.669   9.457   6.305 -0.3375 -0.3831 -0.0603
  310MOL0     C40852   5.786   9.431   6.329  0.3775  0.3181  1.2967
  310MOL0     C40853   4.950   9.352   5.899  0.1487  0.6903  0.1642
  310MOL0     C40854   4.859   9.254   5.845 -0.4700  0.1497 -0.4713
  310MOL0     H40855   4.666   8.983   5.491  1.3268  1.1126  1.3942
  310MOL0     H40856   4.495   8.802   5.428  0.4072  1.4323 -0.1856
  310MOL0     H40857   4.239   8.619   5.748  0.3076  4.2763  0.0095
  310MOL0     H40858   4.217   8.510   5.623  3.0140 -0.7550  1.6001
  310MOL0     H40859   4.119   8.796   5.580  2.2578  0.3567 -0.4065
  310MOL0     H40860   4.018   8.689   5.660  0.6929  2.3647  0.5513
  310MOL0     H40861   4.154   8.589   5.416  1.1569  2.2806 -0.6235
  310MOL0     H40862   4.019   8.692   5.380 -2.0320  0.1718  0.5696
  310MOL0     H40863   3.997   8.433   5.541 -1.7460 -0.7056 -0.4406
  310MOL0     H40864   3.861   8.542   5.511 -0.6094  0.2587 -1.2543
  310MOL0     H40865   4.023   8.476   5.270  1.2696 -0.0547  1.6847
  310MOL0     H40866   3.851   8.517   5.296 -2.3585 -1.3887  1.9636
  310MOL0     H40867   3.836   8.301   5.432  1.2405  1.7108  1.3610
  310MOL0     H40868   3.983   8.235   5.348 -0.6986 -1.7188  2.0716
  310MOL0     H40869   3.709   8.305   5.241  0.2791  1.2071  0.9910
  310MOL0     H40870   3.852   8.292   5.133 -3.4376  2.4985 -0.2668
  310MOL0     H40871   3.872   8.057   5.233 -0.6525  0.3327  3.5149
  310MOL0     H40872   3.757   8.092   5.107  0.5540 -0.4235 -0.5617
  310MOL0     H40873   3.794   8.070   5.488 -0.9321 -1.3222  2.1823
  310MOL0     H40874   3.495   8.044   5.688  1.6092  0.2534  1.0676
  310MOL0     H40875   3.640   7.956   5.673  0.0468  3.5149  2.2737
  310MOL0     H40876   3.483   7.770   5.677  0.8581 -2.8895 -3.3584
  310MOL0     H40877   3.432   7.816   5.516  0.4657  0.0190  0.2301
  310MOL0     H40878   3.311   7.940   5.772  0.4746 -0.9920 -0.4808
  310MOL0     H40879   3.272   7.991   5.613  2.8465  1.6331  0.2777
  310MOL0     H40880   3.229   7.745   5.564  0.8244 -1.4141  1.3862
  310MOL0     H40881   3.106   7.834   5.657 -0.8699 -0.9102 -4.0589
  310MOL0     H40882   3.091   7.850   5.927 -2.2478  0.7746  0.2477
  310MOL0     H40883   2.861   7.769   6.031  1.2441 -1.3526  1.6177
  310MOL0     H40884   2.699   7.646   6.323 -0.5122 -0.5765  0.4295
  310MOL0     H40885   2.523   7.637   6.477 -0.0040 -1.6590  1.3177
  310MOL0     H40886   2.153   7.383   6.357 -1.2072  1.6426 -4.0076
  310MOL0     H40887   2.101   7.545   6.329 -0.1013 -1.0286 -0.3837
  310MOL0     H40888   2.054   7.571   6.580 -1.3616  0.0338  0.4810
  310MOL0     H40889   2.122   7.415   6.614 -0.1399 -2.7875 -1.6362
  310MOL0     H40890   1.947   7.297   6.488 -0.5485 -0.4012 -0.2166
  310MOL0     H40891   1.876   7.443   6.444  0.5720 -2.3393 -1.7356
  310MOL0     H40892   1.813   7.291   6.646 -0.9865 -0.2567  2.6009
  310MOL0     H40893   1.933   7.383   6.742  2.0035 -1.1620 -1.0603
  310MOL0     H40894   1.712   7.503   6.562 -0.0098  0.6548  0.4553
  310MOL0     H40895   1.813   7.595   6.678  2.9325 -0.8879 -2.2842
  310MOL0     H40896   1.708   7.473   6.871  1.1473 -0.7083 -0.0533
  310MOL0     H40897   1.607   7.384   6.753  0.5755 -0.0982 -2.1011
  310MOL0     H40898   1.483   7.566   6.864  0.6554 -0.9977 -0.2788
  310MOL0     H40899   1.604   7.689   6.821 -0.9545  0.9333  0.1594
  310MOL0     H40900   1.463   7.523   6.608 -0.1812 -0.4464 -0.5588
  310MOL0     H40901   1.521   7.694   6.591  0.8750 -0.9068  0.4343
  310MOL0     H40902   2.259   7.472   6.173 -1.0431  1.8034 -0.1217
  310MOL0     H40903   2.444   7.496   6.010  1.7883 -2.9456  0.2266
  310MOL0     H40904   2.951   7.383   5.858 -1.0754  0.1694 -2.8956
  310MOL0     H40905   3.126   7.469   5.732  0.3970 -0.8541  1.7838
  310MOL0     H40906   4.313   8.799   5.805  0.8077 -0.8471  1.5408
  310MOL0     H40907   4.499   8.970   5.893  1.1718 -1.6457  0.0952
  310MOL0     H40908   5.084   9.001   5.789  2.2738  1.0931 -0.1713
  310MOL0     H40909   5.236   9.157   5.887 -0.6982  1.2797  4.4843
  310MOL0     H40910   5.338   9.381   5.923  0.3952  2.4242  0.2643
  310MOL0     H40911   5.290   9.297   6.081 -3.0406  0.0847  0.3693
  310MOL0     H40912   5.326   9.602   6.050 -0.2463  1.2102  1.8617
  310MOL0     H40913   5.287   9.505   6.194  1.8111  0.8646  0.3413
  310MOL0     H40914   5.556   9.559   6.075 -1.8515  1.6126  0.2494
  310MOL0     H40915   5.524   9.387   6.103 -0.9569  0.3256 -1.4612
  310MOL0     H40916   5.509   9.601   6.323 -0.2165 -1.2503  2.6112
  310MOL0     H40917   5.471   9.432   6.337  0.4890  0.3194  1.8644
  310MOL0     H40918   5.887   9.403   6.351  1.0694  2.5240  1.1785
  310MOL0     H40919   4.910   9.443   5.942  3.3474  3.1302 -1.5972
  310MOL0     H40920   4.754   9.283   5.849 -0.4902 -0.0359  1.1095
  311MOL0     O40921   2.389   2.976  10.396  0.7289  1.0100  0.5491
  311MOL0     C40922   2.440   3.012  10.501 -0.6608  0.3901 -0.5535
  311MOL0     O40923   2.380   3.080  10.614 -0.4379 -0.4242  0.1908
  311MOL0     C40924   2.251   3.113  10.617 -0.1183  0.0954  0.5155
  311MOL0     C40925   2.154   3.107  10.513  1.5077  0.2496  0.1246
  311MOL0     C40926   2.020   3.127  10.551 -0.0459  0.0164  0.1978
  311MOL0     C40927   1.981   3.158  10.684 -0.4014 -0.0800 -0.2584
  311MOL0     O40928   1.844   3.142  10.707  0.4651 -0.3556 -1.0512
  311MOL0     C40929   1.790   3.188  10.838  0.6896 -0.3407 -0.2015
  311MOL0     C40930   1.645   3.142  10.845  0.2974  0.0865  0.2819
  311MOL0     C40931   1.549   3.239  10.773  0.2432  0.4939  0.9847
  311MOL0     C40932   1.395   3.225  10.796 -1.0655  0.2916  0.2157
  311MOL0     C40933   1.349   3.093  10.725  0.9857  0.5453 -1.0334
  311MOL0     C40934   1.194   3.089  10.715  0.4301  0.0678  0.4937
  311MOL0     C40935   1.143   2.960  10.654  0.0216 -0.4962 -0.3124
  311MOL0     C40936   1.179   2.822  10.717 -0.3027  0.0289 -0.3274
  311MOL0     N40937   1.160   2.845  10.864 -0.1332  0.0525  0.3549
  311MOL0     C40938   1.250   2.834  10.967  0.0254 -0.2611  0.0427
  311MOL0     C40939   1.180   2.860  11.080 -0.6660  0.2771 -0.2317
  311MOL0     C40940   1.250   2.863  11.220 -0.7006 -0.6305 -0.1514
  311MOL0     C40941   1.335   2.987  11.250  0.8324 -0.3686 -0.4469
  311MOL0     C40942   1.468   2.972  11.182  0.5069  0.5221 -0.5550
  311MOL0     C40943   1.565   3.086  11.208  0.8349  0.5248 -0.1137
  311MOL0     O40944   1.696   3.031  11.194  0.2128  0.0418 -1.0782
  311MOL0     C40945   1.809   3.110  11.192  0.5191 -0.1368 -0.4812
  311MOL0     C40946   1.937   3.055  11.174 -0.4358 -0.0692  0.9048
  311MOL0     C40947   2.055   3.130  11.184 -0.1489  0.1547 -0.4259
  311MOL0     C40948   2.048   3.268  11.210  0.3553  1.3581 -0.5392
  311MOL0     C40949   2.172   3.346  11.230 -0.1001  0.0201 -0.1163
  311MOL0     O40950   2.149   3.476  11.267 -0.7558  0.6022 -0.0466
  311MOL0     C40951   2.261   3.556  11.280  0.7668  0.0102  0.7790
  311MOL0     C40952   2.280   3.618  11.402 -0.2140  0.1165  0.6601
  311MOL0     C40953   2.401   3.672  11.437  0.3748  0.0743 -0.1704
  311MOL0     C40954   2.508   3.677  11.341 -0.7975  0.5454  0.8007
  311MOL0     O40955   2.638   3.727  11.359  0.3520 -0.4424  0.2855
  311MOL0     C40956   2.680   3.777  11.490  0.3975 -0.0484 -0.1689
  311MOL0     C40957   2.785   3.880  11.463 -0.2717  0.7863  0.6004
  311MOL0     C40958   2.862   3.926  11.584 -0.7522 -0.2484 -0.1045
  311MOL0     C40959   3.012   3.905  11.547 -0.4074  0.2486 -0.4343
  311MOL0     C40960   3.103   3.965  11.656  0.3319 -0.4055 -0.1170
  311MOL0     C40961   3.256   3.952  11.616  0.1460 -0.2853  0.5240
  311MOL0     C40962   3.339   4.065  11.684  0.7119  0.0724 -0.5457
  311MOL0     C40963   3.494   4.029  11.687 -0.6648  0.1014 -0.2359
  311MOL0    Cl40964   3.592   4.166  11.756 -0.0912 -0.2762 -0.2532
  311MOL0     C40965   2.472   3.639  11.203  0.3772 -0.5884  0.2697
  311MOL0     C40966   2.354   3.581  11.177 -1.1588  0.8249  0.5566
  311MOL0     O40967   2.281   3.290  11.207 -0.0652 -0.0578 -0.0096
  311MOL0     C40968   1.923   3.324  11.233 -0.9225  0.3713 -0.4276
  311MOL0     C40969   1.800   3.249  11.218  0.5917  0.7036 -0.6861
  311MOL0     N40970   1.044   2.885  11.053  0.0090 -0.5512 -0.3812
  311MOL0     N40971   1.041   2.886  10.925  0.6966 -0.1228  0.3333
  311MOL0     C40972   2.081   3.170  10.780  0.6929  1.2438  0.6447
  311MOL0     C40973   2.212   3.145  10.744 -0.2687 -0.1207 -0.0136
  311MOL0     C40974   2.589   2.998  10.521  0.4425 -0.2143 -0.3491
  311MOL0     C40975   2.667   2.980  10.411 -0.7073 -0.8925  0.3351
  311MOL0     C40976   2.809   2.988  10.426  0.5513 -0.3127  0.2896
  311MOL0     C40977   2.866   3.016  10.552  0.1267  0.1224 -0.0176
  311MOL0     O40978   3.008   3.027  10.550 -0.1802  0.0579 -0.8577
  311MOL0     C40979   3.072   2.994  10.673 -0.4723  0.2771  0.0201
  311MOL0     C40980   3.218   2.998  10.625  0.1334 -0.7643 -0.2701
  311MOL0     C40981   3.271   3.143  10.584 -0.6061 -0.8196 -0.0122
  311MOL0     C40982   3.431   3.164  10.601  0.3887 -0.2415 -0.1743
  311MOL0     C40983   3.458   3.297  10.544  0.7921  0.1515  0.3485
  311MOL0     C40984   3.472   3.409  10.490  0.0266  0.9109  0.2145
  311MOL0     C40985   2.781   3.034  10.667  0.6325  0.2336  0.3253
  311MOL0     C40986   2.640   3.032  10.651 -0.2120 -0.8121 -0.0591
  311MOL0     H40987   2.188   3.087  10.412 -1.9598  1.0456 -1.3433
  311MOL0     H40988   1.940   3.127  10.477 -0.1043  1.1211  0.2398
  311MOL0     H40989   1.789   3.297  10.842 -1.6666 -0.3043  4.0050
  311MOL0     H40990   1.838   3.154  10.930 -2.1828 -0.0524  1.5064
  311MOL0     H40991   1.607   3.128  10.946  2.1347 -1.3339  0.8206
  311MOL0     H40992   1.630   3.042  10.803 -1.1598 -1.1730  3.5032
  311MOL0     H40993   1.564   3.231  10.665 -1.9601  0.9550  0.5986
  311MOL0     H40994   1.569   3.341  10.806  1.2846  0.4255  0.6023
  311MOL0     H40995   1.371   3.229  10.903  0.2350 -2.0501  0.6605
  311MOL0     H40996   1.347   3.307  10.741 -1.9311 -1.8480 -2.4361
  311MOL0     H40997   1.383   3.001  10.773 -4.9424 -0.4016  2.3101
  311MOL0     H40998   1.402   3.076  10.631  2.4799  0.0019 -0.1366
  311MOL0     H40999   1.155   3.172  10.656 -1.7092 -0.0888  1.5856
  311MOL0     H41000   1.151   3.096  10.816  2.4078  0.5718  1.3371
  311MOL0     H41001   1.034   2.966  10.650  0.0805  0.3579 -0.9585
  311MOL0     H41002   1.183   2.945  10.553 -0.2714 -1.9023 -0.2371
  311MOL0     H41003   1.279   2.798  10.681 -0.9825  1.1936 -3.2656
  311MOL0     H41004   1.117   2.747  10.668 -0.6388  1.2294 -1.8258
  311MOL0     H41005   1.351   2.797  10.956  0.6598  0.5292  2.5172
  311MOL0     H41006   1.309   2.774  11.246 -1.0571 -0.7764  0.1794
  311MOL0     H41007   1.165   2.846  11.288  1.6187 -2.3908  2.5669
  311MOL0     H41008   1.347   2.991  11.358 -0.0403 -0.3716 -0.3385
  311MOL0     H41009   1.287   3.080  11.218  0.1702 -0.2544  0.8243
  311MOL0     H41010   1.523   2.886  11.222  1.2126 -0.3295 -3.1498
  311MOL0     H41011   1.466   2.965  11.073  1.1318  1.2756 -0.6230
  311MOL0     H41012   1.539   3.138  11.300  1.4905  0.4829  0.1001
  311MOL0     H41013   1.544   3.160  11.130  2.3389  1.9053  0.7330
  311MOL0     H41014   1.948   2.949  11.152  1.0642 -0.2249  2.2370
  311MOL0     H41015   2.155   3.089  11.176 -0.6177 -0.6758 -2.7868
  311MOL0     H41016   2.200   3.603  11.474 -1.3018 -0.7697 -0.6698
  311MOL0     H41017   2.403   3.717  11.535 -2.3246 -0.5890  0.2606
  311MOL0     H41018   2.717   3.700  11.557 -2.0436 -0.7424  0.4866
  311MOL0     H41019   2.602   3.832  11.543  2.4420  0.8472  2.0770
  311MOL0     H41020   2.743   3.972  11.421 -0.1424  0.2803 -0.7016
  311MOL0     H41021   2.855   3.840  11.389 -1.4393 -2.0679  0.9087
  311MOL0     H41022   2.834   3.869  11.674  0.3816 -1.6223 -0.5753
  311MOL0     H41023   2.850   4.033  11.601 -2.4127 -0.6386  1.5111
  311MOL0     H41024   3.032   3.797  11.546  0.4185  0.3545  1.1440
  311MOL0     H41025   3.042   3.945  11.450 -0.3808 -1.8680 -1.3765
  311MOL0     H41026   3.084   3.907  11.746 -0.3880 -1.0859 -0.6909
  311MOL0     H41027   3.075   4.069  11.676  1.1226 -0.4066  1.0971
  311MOL0     H41028   3.274   3.940  11.509  2.3013 -2.8154  1.0590
  311MOL0     H41029   3.289   3.855  11.654  1.0163 -0.4394 -0.5627
  311MOL0     H41030   3.323   4.161  11.635  0.7455  1.1967  1.5258
  311MOL0     H41031   3.306   4.080  11.787  1.5527  1.5699 -0.4614
  311MOL0     H41032   3.528   4.021  11.583 -1.1048 -2.1325 -0.2578
  311MOL0     H41033   3.527   3.933  11.727  0.1080 -0.6013 -2.4079
  311MOL0     H41034   2.554   3.632  11.132  0.3454 -0.4444  0.2200
  311MOL0     H41035   2.338   3.547  11.075  3.7141 -0.9939  0.1201
  311MOL0     H41036   1.924   3.428  11.264 -0.1076  0.3000 -0.1930
  311MOL0     H41037   1.708   3.295  11.254 -1.2174 -2.7373 -0.5338
  311MOL0     H41038   2.058   3.205  10.880 -0.5438 -0.6200  1.0644
  311MOL0     H41039   2.292   3.170  10.812 -0.9361  2.6297 -0.1322
  311MOL0     H41040   2.617   2.953  10.319 -1.9867 -3.6379  1.7243
  311MOL0     H41041   2.874   2.983  10.339  0.1787 -1.2145  0.0573
  311MOL0     H41042   3.049   2.892  10.705 -1.6244  1.1585  2.2450
  311MOL0     H41043   3.056   3.065  10.754  0.5148  2.4160 -1.5471
  311MOL0     H41044   3.268   2.952  10.711 -0.1527  0.6651  0.7008
  311MOL0     H41045   3.237   2.930  10.542  0.1987 -0.8639 -0.1755
  311MOL0     H41046   3.214   3.218  10.639  1.3705  0.5297  0.3078
  311MOL0     H41047   3.251   3.150  10.477 -1.4904 -0.6502  0.1587
  311MOL0     H41048   3.452   3.150  10.708 -2.9952  0.9038  0.7967
  311MOL0     H41049   3.491   3.085  10.555 -0.8278 -0.0187 -2.2379
  311MOL0     H41050   3.498   3.505  10.450  0.7627  0.1858 -1.1221
  311MOL0     H41051   2.824   3.056  10.764  0.3493 -0.5748  0.6419
  311MOL0     H41052   2.580   3.032  10.741 -0.2040 -1.1272 -0.0516
  312MOL0     O41053   5.793   3.202   1.195 -0.4527  0.4308  0.1789
  312MOL0     C41054   5.829   3.315   1.222 -0.1677  0.4035 -0.2021
  312MOL0     O41055   5.758   3.431   1.198 -0.9477  0.6141 -0.1302
  312MOL0     C41056   5.663   3.422   1.109  1.0489 -0.4431  0.5980
  312MOL0     C41057   5.676   3.379   0.980 -0.0856  0.1925  0.2703
  312MOL0     C41058   5.569   3.380   0.890  0.2125 -0.5594  0.2282
  312MOL0     C41059   5.443   3.423   0.939  1.2360 -1.2586  0.1269
  312MOL0     O41060   5.323   3.404   0.866  0.4785 -0.2467  0.2500
  312MOL0     C41061   5.328   3.337   0.736  1.0854 -0.0615 -0.2217
  312MOL0     C41062   5.182   3.324   0.679  0.2241 -0.8747  0.5183
  312MOL0     C41063   5.183   3.238   0.555  0.1722 -0.4385 -0.1869
  312MOL0     C41064   5.039   3.232   0.494  0.2354 -0.0583 -0.7682
  312MOL0     C41065   4.935   3.150   0.577  0.5964  0.4177 -0.2364
  312MOL0     C41066   4.795   3.171   0.507 -0.0961 -0.7105  0.2208
  312MOL0     C41067   4.686   3.069   0.552 -0.2251 -0.3103 -0.2543
  312MOL0     C41068   4.563   3.080   0.466 -1.1030  0.3828  0.2433
  312MOL0     N41069   4.465   2.991   0.506  0.3768  0.3224 -0.2255
  312MOL0     C41070   4.348   3.021   0.570 -0.5045 -0.3454 -0.2957
  312MOL0     C41071   4.287   2.910   0.590 -0.2171  0.1167 -1.2502
  312MOL0     C41072   4.158   2.902   0.674  0.1190  0.2618  0.6940
  312MOL0     C41073   4.111   2.759   0.697 -0.0364  0.2964  0.3693
  312MOL0     C41074   3.974   2.758   0.759  0.1814  0.0385  0.5330
  312MOL0     C41075   3.968   2.795   0.905  0.6140  0.5681  0.3887
  312MOL0     O41076   4.046   2.693   0.965 -0.4112  0.3532 -0.0038
  312MOL0     C41077   3.986   2.580   1.011  0.7702 -0.9743  0.2268
  312MOL0     C41078   4.063   2.497   1.082 -0.2256  0.5340  0.1401
  312MOL0     C41079   4.013   2.370   1.127  1.0643 -0.7812 -0.2717
  312MOL0     C41080   3.879   2.335   1.094 -0.1475  0.2122  0.7439
  312MOL0     C41081   3.835   2.198   1.134 -0.4109  0.6551 -0.0851
  312MOL0     O41082   3.715   2.165   1.094 -0.0855 -0.8175  0.3824
  312MOL0     C41083   3.645   2.060   1.155  0.8512  0.6529  0.0881
  312MOL0     C41084   3.643   2.041   1.294 -0.3974 -0.0384 -0.0304
  312MOL0     C41085   3.540   1.951   1.346 -0.1038 -0.3355  0.5855
  312MOL0     C41086   3.455   1.875   1.259  0.3156 -0.5829  0.7774
  312MOL0     O41087   3.356   1.788   1.296 -0.3495 -0.3662  1.2048
  312MOL0     C41088   3.279   1.846   1.408 -0.1876  0.1547  0.6055
  312MOL0     C41089   3.151   1.771   1.449 -0.0839  0.3007  0.6858
  312MOL0     C41090   3.044   1.732   1.341  0.1024  0.4477 -0.4278
  312MOL0     C41091   2.916   1.675   1.397  0.0921  0.3626 -0.3417
  312MOL0     C41092   2.820   1.651   1.289  0.2669  0.0357 -0.0852
  312MOL0     C41093   2.671   1.620   1.327 -0.0063  0.0713  0.0242
  312MOL0     C41094   2.608   1.542   1.209 -0.3440  0.0417  0.4438
  312MOL0     C41095   2.466   1.499   1.258  0.2701  0.2363  0.7702
  312MOL0    Cl41096   2.365   1.478   1.118 -0.3312 -0.1464 -0.4425
  312MOL0     C41097   3.468   1.896   1.121 -0.0447  1.1080 -0.1076
  312MOL0     C41098   3.556   1.990   1.074 -0.6123 -0.3790  0.3807
  312MOL0     O41099   3.913   2.125   1.200 -0.1102 -0.0181  0.3937
  312MOL0     C41100   3.801   2.422   1.025 -0.8277 -0.9289  0.4822
  312MOL0     C41101   3.858   2.541   0.971 -0.6301 -1.0340  0.1732
  312MOL0     N41102   4.354   2.804   0.537  0.2997  0.6113  0.0170
  312MOL0     N41103   4.462   2.855   0.484  0.0370 -0.0105 -0.9339
  312MOL0     C41104   5.429   3.474   1.067 -1.0014 -0.1987 -0.0610
  312MOL0     C41105   5.536   3.465   1.163  0.0611  0.8776  0.3544
  312MOL0     C41106   5.956   3.323   1.293  0.1156 -0.7241  0.3785
  312MOL0     C41107   6.056   3.228   1.268 -0.2319  0.5839  0.8821
  312MOL0     C41108   6.180   3.233   1.335 -1.1870 -0.4305 -0.2310
  312MOL0     C41109   6.196   3.329   1.434 -0.3154 -0.2861 -0.4362
  312MOL0     O41110   6.317   3.338   1.503  0.3230  1.2535  0.4082
  312MOL0     C41111   6.311   3.287   1.634 -0.0825  0.1236  0.0022
  312MOL0     C41112   6.405   3.163   1.629  0.0988  0.3002  0.0425
  312MOL0     C41113   6.545   3.208   1.615  0.3237  0.4752 -0.2942
  312MOL0     C41114   6.625   3.085   1.560 -0.1972  0.2960 -0.1421
  312MOL0     C41115   6.763   3.130   1.535  0.3764 -0.5940  0.9447
  312MOL0     C41116   6.875   3.167   1.504  0.6053  0.9949 -0.2757
  312MOL0     C41117   6.095   3.417   1.462  0.3201 -0.6400 -0.7795
  312MOL0     C41118   5.977   3.426   1.379 -1.3083  0.0487  0.0297
  312MOL0     H41119   5.778   3.358   0.949 -0.2847 -1.9170  0.8961
  312MOL0     H41120   5.577   3.351   0.786  2.3707 -1.2926  0.5598
  312MOL0     H41121   5.363   3.233   0.737  0.4651 -0.3167 -1.7643
  312MOL0     H41122   5.383   3.399   0.666 -0.0209  0.1642 -0.9239
  312MOL0     H41123   5.144   3.421   0.645  1.9040 -0.8203 -1.3777
  312MOL0     H41124   5.115   3.284   0.756  0.8627  2.8162  3.2638
  312MOL0     H41125   5.227   3.141   0.581  0.6566 -0.4768 -1.0841
  312MOL0     H41126   5.239   3.288   0.475  2.0779 -3.5687 -0.9995
  312MOL0     H41127   5.002   3.335   0.496  0.4593  0.0376 -1.6028
  312MOL0     H41128   5.046   3.203   0.389 -0.9673  0.2310 -0.9446
  312MOL0     H41129   4.933   3.180   0.682  4.1647  1.0245 -0.2479
  312MOL0     H41130   4.959   3.043   0.578  0.7783  0.4183 -2.1974
  312MOL0     H41131   4.808   3.173   0.398 -0.5345 -0.7009  0.1677
  312MOL0     H41132   4.760   3.270   0.534  2.6982 -0.0495  1.8702
  312MOL0     H41133   4.723   2.966   0.548  2.0441  0.4617 -0.3827
  312MOL0     H41134   4.659   3.088   0.656 -1.5057  0.8559 -0.7767
  312MOL0     H41135   4.606   3.052   0.369 -1.3033  0.4712  0.1285
  312MOL0     H41136   4.525   3.182   0.465 -2.8233 -0.2229  0.7533
  312MOL0     H41137   4.323   3.119   0.610  2.5948 -0.4341  2.2973
  312MOL0     H41138   4.087   2.962   0.616  1.4244  3.4425  2.1225
  312MOL0     H41139   4.178   2.960   0.765  0.3956  1.4077 -0.0660
  312MOL0     H41140   4.187   2.710   0.758 -1.7616 -2.8675  0.1688
  312MOL0     H41141   4.106   2.699   0.605 -2.7340  0.8067  0.1189
  312MOL0     H41142   3.903   2.825   0.710  0.1538 -0.7964 -0.6083
  312MOL0     H41143   3.944   2.655   0.736 -0.9055  0.6290 -0.8395
  312MOL0     H41144   3.867   2.788   0.946 -0.6978  0.4239 -2.6270
  312MOL0     H41145   4.004   2.896   0.925  0.5551  0.8326 -0.7442
  312MOL0     H41146   4.164   2.534   1.099 -0.8161  2.6466 -0.5879
  312MOL0     H41147   4.079   2.310   1.189  2.6237  0.3483 -0.7752
  312MOL0     H41148   3.713   2.103   1.349  2.9345 -3.2178 -0.3116
  312MOL0     H41149   3.537   1.942   1.454 -0.8915 -1.1423  0.5103
  312MOL0     H41150   3.258   1.950   1.382 -0.8452  0.6215  2.7604
  312MOL0     H41151   3.347   1.849   1.494 -0.3697  0.2997  0.7450
  312MOL0     H41152   3.100   1.842   1.514 -0.0477 -1.6572  3.0202
  312MOL0     H41153   3.165   1.682   1.512  2.8389 -1.8673 -2.6173
  312MOL0     H41154   3.082   1.659   1.270  0.7028 -1.6344  1.8935
  312MOL0     H41155   3.023   1.832   1.301 -2.1484 -0.5195 -1.8316
  312MOL0     H41156   2.950   1.583   1.446  4.2793  2.4429  1.1622
  312MOL0     H41157   2.866   1.732   1.477 -3.8082  1.3942 -3.2132
  312MOL0     H41158   2.853   1.558   1.242 -0.6849 -0.0633 -0.5904
  312MOL0     H41159   2.828   1.726   1.210  1.2298 -0.2394 -0.2693
  312MOL0     H41160   2.615   1.714   1.331  1.3768  1.0273 -1.3928
  312MOL0     H41161   2.667   1.556   1.415  1.7587 -3.1053 -2.0074
  312MOL0     H41162   2.599   1.596   1.114  1.3573 -0.7682 -0.2307
  312MOL0     H41163   2.661   1.451   1.180 -0.4242 -0.8249  2.8258
  312MOL0     H41164   2.418   1.569   1.327 -1.0120 -1.0733  1.2622
  312MOL0     H41165   2.465   1.403   1.310  1.2437  0.2494  0.8219
  312MOL0     H41166   3.394   1.850   1.057 -0.2780 -1.3998  1.7762
  312MOL0     H41167   3.556   2.015   0.968  0.8487 -3.7471 -0.5682
  312MOL0     H41168   3.699   2.402   0.994 -0.9663  0.0372  0.2899
  312MOL0     H41169   3.794   2.585   0.895 -1.5717  0.3912  1.7126
  312MOL0     H41170   5.342   3.520   1.111  0.6855  2.4398  0.7603
  312MOL0     H41171   5.527   3.514   1.260 -2.4548  0.7192  0.2650
  312MOL0     H41172   6.032   3.156   1.190  2.9703 -1.0781  1.2892
  312MOL0     H41173   6.261   3.165   1.309  1.0639  2.2758 -0.6986
  312MOL0     H41174   6.212   3.254   1.665 -0.5187  2.3105  1.1252
  312MOL0     H41175   6.351   3.361   1.703 -2.4428  0.6063  0.9390
  312MOL0     H41176   6.394   3.117   1.728  3.0067  1.6338  1.1038
  312MOL0     H41177   6.373   3.094   1.551 -0.5115 -1.0815  1.4599
  312MOL0     H41178   6.576   3.217   1.720  1.6099 -1.9421 -0.4007
  312MOL0     H41179   6.552   3.303   1.562 -0.6060  0.2350 -0.8819
  312MOL0     H41180   6.635   3.011   1.640  0.0883  1.7105  1.1846
  312MOL0     H41181   6.576   3.038   1.474 -0.5525  4.1694 -2.2767
  312MOL0     H41182   6.973   3.192   1.470  0.6188  1.0603 -0.1892
  312MOL0     H41183   6.114   3.499   1.530 -2.9564  1.5827 -2.2789
  312MOL0     H41184   5.914   3.512   1.397 -1.0966  0.2015  0.0543
  313MOL0     O41185   1.126   7.882   8.831 -0.0090  0.6892 -0.6992
  313MOL0     C41186   1.071   7.918   8.931 -0.2093 -0.1835  0.0443
  313MOL0     O41187   1.136   7.973   9.047  0.6347  0.0950  0.6095
  313MOL0     C41188   1.272   7.975   9.045 -1.2931  0.0998  1.0310
  313MOL0     C41189   1.354   8.091   9.005 -0.0241  0.4171  0.6622
  313MOL0     C41190   1.494   8.089   9.018 -0.8304 -0.5658  0.2878
  313MOL0     C41191   1.559   7.975   9.066  0.0846 -0.7030 -0.4996
  313MOL0     O41192   1.694   7.984   9.090 -0.0705  0.6379 -0.2427
  313MOL0     C41193   1.760   7.883   9.166 -1.6238 -0.3690  0.0747
  313MOL0     C41194   1.903   7.928   9.189  0.2138  0.7700  0.0600
  313MOL0     C41195   1.908   8.034   9.298 -0.5880 -0.1725  0.5581
  313MOL0     C41196   2.040   8.102   9.302 -1.1703 -0.4097  0.6876
  313MOL0     C41197   2.146   8.013   9.363  0.2520  0.0823 -0.8213
  313MOL0     C41198   2.286   8.073   9.334 -0.9349 -1.8411 -0.1944
  313MOL0     C41199   2.394   7.996   9.412  0.7817  0.2938 -0.1800
  313MOL0     C41200   2.382   8.029   9.562 -0.2644  0.3432 -0.2690
  313MOL0     N41201   2.484   7.947   9.632 -0.5168 -0.4087  0.2413
  313MOL0     C41202   2.612   7.936   9.594  0.1527 -0.1103 -0.1762
  313MOL0     C41203   2.656   7.823   9.655  0.6812 -0.0947  0.5037
  313MOL0     C41204   2.763   7.736   9.627 -0.1236  0.3700 -1.0401
  313MOL0     C41205   2.735   7.664   9.490 -0.5056 -0.1688  0.9434
  313MOL0     C41206   2.633   7.541   9.499  0.9095  0.5419  1.0340
  313MOL0     C41207   2.489   7.580   9.475  0.7444  0.0218  0.8374
  313MOL0     O41208   2.409   7.471   9.430  0.3599  0.1006 -0.5748
  313MOL0     C41209   2.271   7.498   9.433 -0.3845 -0.8597  0.2890
  313MOL0     C41210   2.196   7.396   9.378 -0.1478 -0.0769  0.3886
  313MOL0     C41211   2.063   7.417   9.348 -0.7045  0.6540  0.2402
  313MOL0     C41212   2.004   7.539   9.383 -0.5403 -0.1591 -0.5496
  313MOL0     C41213   1.856   7.558   9.349  0.3813  0.6131  0.9178
  313MOL0     O41214   1.809   7.500   9.232 -0.5162 -0.0801  0.0422
  313MOL0     C41215   1.671   7.482   9.208 -0.2434 -0.3737 -0.0617
  313MOL0     C41216   1.636   7.487   9.076 -0.0265  0.1935 -0.0384
  313MOL0     C41217   1.502   7.466   9.037  0.0480 -0.3447 -0.8195
  313MOL0     C41218   1.407   7.450   9.137  0.0693 -0.3862  1.0095
  313MOL0     O41219   1.267   7.437   9.114 -0.3783 -0.5305  0.0051
  313MOL0     C41220   1.207   7.476   8.988 -0.7013  0.2723  0.2746
  313MOL0     C41221   1.057   7.461   9.005  0.4245  0.0085 -0.0356
  313MOL0     C41222   1.003   7.556   9.113 -0.6075  0.2987  0.9481
  313MOL0     C41223   0.853   7.575   9.105  0.1091  0.5903  0.1553
  313MOL0     C41224   0.759   7.461   9.170  0.1212  0.0367 -0.7399
  313MOL0     C41225   0.628   7.523   9.226 -0.4331  1.0927  0.4157
  313MOL0     C41226   0.559   7.602   9.110  0.6811  1.1302  0.2981
  313MOL0     C41227   0.432   7.538   9.048  0.2724  0.3101  0.1013
  313MOL0    Cl41228   0.298   7.479   9.168 -0.1843  0.0026 -0.2675
  313MOL0     C41229   1.445   7.442   9.268 -0.2009  0.4219 -0.5795
  313MOL0     C41230   1.572   7.453   9.300 -0.8315  0.6384 -0.2895
  313MOL0     O41231   1.795   7.629   9.428 -0.0113 -0.1668  0.2966
  313MOL0     C41232   2.079   7.642   9.447 -0.4311 -0.4406 -0.4121
  313MOL0     C41233   2.215   7.625   9.469 -0.0459  0.2362 -0.3608
  313MOL0     N41234   2.547   7.780   9.732  0.0285 -0.0007 -0.3095
  313MOL0     N41235   2.448   7.854   9.720  0.6977  0.7903  0.1404
  313MOL0     C41236   1.486   7.864   9.108 -0.2140 -0.6209 -0.4960
  313MOL0     C41237   1.353   7.869   9.101  0.6719  0.5714 -0.6469
  313MOL0     C41238   0.922   7.922   8.927 -0.6932 -0.0904 -0.1694
  313MOL0     C41239   0.856   7.954   9.046 -0.1584  0.1396  0.3653
  313MOL0     C41240   0.718   7.963   9.052 -0.4025 -0.4028  0.0506
  313MOL0     C41241   0.643   7.920   8.935 -0.8860 -0.4622 -0.5819
  313MOL0     O41242   0.508   7.927   8.946  0.3640 -0.1600  0.1829
  313MOL0     C41243   0.423   7.877   8.838  0.1653 -0.0115 -0.0412
  313MOL0     C41244   0.278   7.917   8.875 -0.1833 -0.0129 -0.2979
  313MOL0     C41245   0.173   7.880   8.769  0.1509  0.1764  0.7580
  313MOL0     C41246   0.170   7.734   8.727  0.0663  0.4004 -0.2125
  313MOL0     C41247   0.103   7.658   8.836 -0.3555  0.9814 -0.1743
  313MOL0     C41248   0.049   7.588   8.920  0.1014 -0.6116 -0.3005
  313MOL0     C41249   0.707   7.882   8.820  0.3176 -0.1185 -0.0637
  313MOL0     C41250   0.848   7.888   8.811 -0.1141  0.0907  0.2934
  313MOL0     H41251   1.323   8.175   8.943 -1.4105 -0.3525  0.2662
  313MOL0     H41252   1.556   8.174   8.991  1.9525 -2.5097  0.1094
  313MOL0     H41253   1.754   7.788   9.112  2.1401 -0.3632 -0.6267
  313MOL0     H41254   1.725   7.860   9.267 -1.9458 -2.4302 -0.4708
  313MOL0     H41255   1.945   7.956   9.092  2.9276  0.3360  1.0310
  313MOL0     H41256   1.959   7.840   9.221 -1.7149 -1.3357 -1.9177
  313MOL0     H41257   1.884   7.996   9.398 -0.4665 -3.5479 -0.5636
  313MOL0     H41258   1.834   8.113   9.284 -3.2673 -2.5918 -0.0714
  313MOL0     H41259   2.076   8.119   9.200  4.8288 -3.5670  1.8247
  313MOL0     H41260   2.041   8.198   9.354  0.5537 -0.4823  0.8613
  313MOL0     H41261   2.151   7.910   9.326  0.9670 -0.5153  0.8209
  313MOL0     H41262   2.117   8.012   9.468  2.5768  1.8643 -0.0724
  313MOL0     H41263   2.303   8.180   9.342  0.6047 -1.9857 -1.1826
  313MOL0     H41264   2.308   8.044   9.231  1.9072  0.9448 -0.4887
  313MOL0     H41265   2.383   7.888   9.397  0.4651  0.1313  1.1079
  313MOL0     H41266   2.487   8.014   9.357  0.3744  1.4631 -0.5070
  313MOL0     H41267   2.288   7.993   9.604  0.4876  1.3655  2.5244
  313MOL0     H41268   2.387   8.138   9.574 -1.8017  0.5007 -0.9269
  313MOL0     H41269   2.667   7.978   9.511 -0.5156  1.4945  0.1562
  313MOL0     H41270   2.762   7.667   9.712 -2.0037  1.8430  0.2013
  313MOL0     H41271   2.856   7.793   9.617  0.9943 -1.3872 -1.2301
  313MOL0     H41272   2.831   7.628   9.452 -0.4074  0.9570  0.0418
  313MOL0     H41273   2.709   7.728   9.405  3.5881 -0.6028 -0.8365
  313MOL0     H41274   2.667   7.482   9.414 -1.8428  0.2283  0.0684
  313MOL0     H41275   2.639   7.481   9.591 -3.4464  1.6356  2.2619
  313MOL0     H41276   2.475   7.666   9.409  1.0578  0.7384  1.6858
  313MOL0     H41277   2.450   7.610   9.573  1.1239  2.6643  0.2658
  313MOL0     H41278   2.237   7.302   9.345  0.9626 -0.0347  1.5615
  313MOL0     H41279   2.006   7.334   9.307 -1.9415 -0.1989  3.4202
  313MOL0     H41280   1.719   7.502   9.008  1.7722 -1.9292  1.5378
  313MOL0     H41281   1.479   7.472   8.931 -0.1770  0.5205 -0.7319
  313MOL0     H41282   1.235   7.396   8.920 -1.6442 -1.1016  1.4500
  313MOL0     H41283   1.248   7.573   8.957  0.8949 -0.0891  1.1441
  313MOL0     H41284   1.027   7.362   9.039  0.6228 -0.1368 -0.2803
  313MOL0     H41285   1.006   7.479   8.910 -0.6034  1.4158  0.7574
  313MOL0     H41286   1.052   7.654   9.105 -2.4740  1.2154 -0.0999
  313MOL0     H41287   1.041   7.514   9.207  2.3800 -0.9936 -0.6996
  313MOL0     H41288   0.835   7.663   9.166 -0.0805  1.1965 -0.7462
  313MOL0     H41289   0.824   7.603   9.003 -2.9966  0.3568  0.8832
  313MOL0     H41290   0.808   7.414   9.256  0.6760  0.6810 -0.7010
  313MOL0     H41291   0.750   7.378   9.099 -0.1182 -1.1400  0.6215
  313MOL0     H41292   0.654   7.596   9.304 -1.7650  2.1827 -0.1151
  313MOL0     H41293   0.568   7.440   9.265 -0.7022  0.5974 -1.0089
  313MOL0     H41294   0.535   7.701   9.150 -0.4801  0.4926  1.2340
  313MOL0     H41295   0.622   7.614   9.021 -1.5498  0.5241 -1.4703
  313MOL0     H41296   0.465   7.455   8.984  0.0383  0.3311 -0.0497
  313MOL0     H41297   0.396   7.611   8.974  2.9317  1.0993 -0.4992
  313MOL0     H41298   1.371   7.447   9.347 -0.1979 -0.4546 -0.5089
  313MOL0     H41299   1.588   7.428   9.405  1.8505 -2.7011 -1.2897
  313MOL0     H41300   2.019   7.728   9.475 -0.4112  0.2488 -2.2789
  313MOL0     H41301   2.278   7.698   9.519 -0.3856 -1.4341  2.7559
  313MOL0     H41302   1.537   7.783   9.160 -0.7868  0.8748  2.6313
  313MOL0     H41303   1.294   7.788   9.141 -1.3899  2.0461 -0.5760
  313MOL0     H41304   0.903   7.986   9.138 -1.0371  0.0906  0.8437
  313MOL0     H41305   0.675   7.999   9.145  2.0693  0.1015  1.0752
  313MOL0     H41306   0.422   7.768   8.825 -1.6181 -0.2592  1.7353
  313MOL0     H41307   0.446   7.922   8.741 -1.0543 -0.9542 -0.8029
  313MOL0     H41308   0.251   7.871   8.971 -3.2804 -0.0454 -1.0668
  313MOL0     H41309   0.262   8.024   8.887  1.4150  0.6005 -2.9076
  313MOL0     H41310   0.203   7.931   8.678  3.7487 -0.4359  1.4404
  313MOL0     H41311   0.080   7.921   8.810 -2.1617 -2.3405 -1.5056
  313MOL0     H41312   0.105   7.726   8.640  0.8329 -0.6040 -0.7082
  313MOL0     H41313   0.266   7.684   8.709 -0.7809 -1.0382 -0.9373
  313MOL0     H41314   0.017   7.544   9.012  0.5775 -3.8424 -1.5292
  313MOL0     H41315   0.654   7.862   8.728 -0.7058 -0.5654  0.6115
  313MOL0     H41316   0.897   7.866   8.717 -2.5686  0.9418 -1.2977
  314MOL0     O41317   2.211   4.393   9.553  0.4819 -0.1746  0.0091
  314MOL0     C41318   2.146   4.475   9.627 -0.3751 -1.0371 -0.1164
  314MOL0     O41319   2.214   4.564   9.705  0.1657  0.2670 -0.5614
  314MOL0     C41320   2.349   4.552   9.697 -0.9612 -0.6327  0.3085
  314MOL0     C41321   2.422   4.475   9.786  0.4043 -0.6866  0.2423
  314MOL0     C41322   2.562   4.473   9.782 -0.0156 -0.4444  0.7554
  314MOL0     C41323   2.631   4.546   9.685 -0.2724 -0.2782 -0.2311
  314MOL0     O41324   2.767   4.518   9.672 -0.2560 -0.1496  0.1859
  314MOL0     C41325   2.847   4.583   9.570 -0.9432  0.5223  0.2617
  314MOL0     C41326   2.888   4.729   9.599 -0.5115  0.2263 -0.1118
  314MOL0     C41327   2.996   4.731   9.714  0.2076  0.0997 -0.2605
  314MOL0     C41328   3.043   4.872   9.734  0.2520 -0.2013  0.4076
  314MOL0     C41329   3.096   4.951   9.613 -0.5913  1.1616 -0.2069
  314MOL0     C41330   3.172   5.071   9.654  0.1440  0.4294  0.1561
  314MOL0     C41331   3.078   5.190   9.659 -0.4312 -0.0264 -0.7795
  314MOL0     C41332   3.140   5.319   9.715  1.1985 -0.4321 -0.4122
  314MOL0     N41333   3.239   5.367   9.623  0.2700  0.7314 -0.1487
  314MOL0     C41334   3.233   5.382   9.490  0.2034 -0.0934 -0.0588
  314MOL0     C41335   3.352   5.437   9.454  0.4088  0.7893 -0.2703
  314MOL0     C41336   3.399   5.464   9.314  0.1542 -0.0882  1.0157
  314MOL0     C41337   3.298   5.506   9.206  0.4218  0.9720 -0.2620
  314MOL0     C41338   3.260   5.387   9.115 -0.1886 -0.3031 -0.4282
  314MOL0     C41339   3.139   5.423   9.030  0.4920 -1.3528  0.0018
  314MOL0     O41340   3.023   5.429   9.117  0.6153 -0.3125  0.3411
  314MOL0     C41341   2.898   5.427   9.055  0.3159  0.6705  0.4480
  314MOL0     C41342   2.810   5.526   9.101 -1.3874  0.4962 -0.7881
  314MOL0     C41343   2.673   5.536   9.068 -0.9881  0.2335  0.2979
  314MOL0     C41344   2.622   5.430   8.988  0.0780 -0.3523  0.3860
  314MOL0     C41345   2.480   5.434   8.953  0.2475 -0.7260 -0.0521
  314MOL0     O41346   2.424   5.329   8.884 -0.6594 -0.6566  0.2352
  314MOL0     C41347   2.310   5.351   8.802  0.0060  0.0955  0.5329
  314MOL0     C41348   2.214   5.251   8.801  0.1162  0.9291  0.2567
  314MOL0     C41349   2.114   5.256   8.711  0.4458  0.3354  0.1754
  314MOL0     C41350   2.091   5.367   8.623  0.1295  0.2033 -0.3559
  314MOL0     O41351   2.002   5.383   8.517 -0.6229  0.8907 -0.0374
  314MOL0     C41352   1.945   5.258   8.455  0.2800 -0.4089 -0.2120
  314MOL0     C41353   1.821   5.287   8.360 -0.7099 -0.3774  0.1833
  314MOL0     C41354   1.869   5.315   8.218 -0.5988  0.0210  0.6850
  314MOL0     C41355   1.747   5.375   8.148 -0.9169 -0.0267  0.3592
  314MOL0     C41356   1.808   5.445   8.021  0.2370  0.5635 -0.8567
  314MOL0     C41357   1.696   5.486   7.922 -0.2984  0.6510  0.4979
  314MOL0     C41358   1.744   5.580   7.804  0.4998 -0.6775 -0.4142
  314MOL0     C41359   1.626   5.591   7.705  0.5975 -0.3115  0.4348
  314MOL0    Cl41360   1.489   5.676   7.768 -0.2584 -0.0767 -0.2255
  314MOL0     C41361   2.170   5.478   8.652  0.0309 -1.0487  0.4828
  314MOL0     C41362   2.284   5.469   8.733 -0.2220  0.9589 -0.1939
  314MOL0     O41363   2.419   5.542   8.975  0.7900 -0.5711 -1.0383
  314MOL0     C41364   2.707   5.327   8.943  0.4985  0.2157  0.4655
  314MOL0     C41365   2.846   5.326   8.975 -0.0087  0.5426  0.2316
  314MOL0     N41366   3.431   5.431   9.564  0.2589 -0.0294  0.6404
  314MOL0     N41367   3.359   5.401   9.663  0.3004 -1.3516  0.7559
  314MOL0     C41368   2.558   4.631   9.600  0.4587  0.3625  0.5965
  314MOL0     C41369   2.422   4.635   9.603  0.3810 -0.4212 -0.1128
  314MOL0     C41370   2.002   4.477   9.611  0.7600 -0.5362 -1.3021
  314MOL0     C41371   1.923   4.546   9.698  0.4294  0.3183  0.3581
  314MOL0     C41372   1.783   4.542   9.696 -0.3267 -0.0401  0.4633
  314MOL0     C41373   1.708   4.469   9.598 -0.2558 -0.3861 -1.1088
  314MOL0     O41374   1.571   4.479   9.586 -0.8644  1.0535 -0.6464
  314MOL0     C41375   1.496   4.557   9.672  0.7170 -0.5501 -0.2010
  314MOL0     C41376   1.504   4.707   9.637  0.3586 -0.7403  0.4318
  314MOL0     C41377   1.406   4.745   9.523 -0.4825 -0.1035 -0.8837
  314MOL0     C41378   1.407   4.900   9.513 -0.3876 -0.2511 -0.4268
  314MOL0     C41379   1.290   4.958   9.575  0.0481  0.4847  0.1159
  314MOL0     C41380   1.193   5.011   9.624  0.6685 -0.5403  0.7968
  314MOL0     C41381   1.793   4.377   9.524  0.3684 -0.6077 -0.2741
  314MOL0     C41382   1.932   4.381   9.524  1.2898  0.2342  0.1815
  314MOL0     H41383   2.378   4.409   9.861  2.6471 -0.7777  1.5822
  314MOL0     H41384   2.610   4.400   9.847 -2.4054 -0.2207  2.9296
  314MOL0     H41385   2.789   4.581   9.478 -1.5179  1.0689  0.6063
  314MOL0     H41386   2.940   4.526   9.563 -0.8209  0.6360  0.8829
  314MOL0     H41387   2.801   4.791   9.621  0.5558  1.4379  0.9241
  314MOL0     H41388   2.926   4.775   9.508 -2.3948  2.8886  0.3460
  314MOL0     H41389   3.075   4.656   9.717  2.2635  2.1267 -0.7363
  314MOL0     H41390   2.949   4.713   9.811  1.7596  1.4378  0.7976
  314MOL0     H41391   2.958   4.930   9.772  1.7332  1.4781  1.2813
  314MOL0     H41392   3.111   4.851   9.816 -1.6673 -3.2312  1.3866
  314MOL0     H41393   3.015   4.973   9.542 -1.4220 -1.2257 -0.0874
  314MOL0     H41394   3.156   4.874   9.564 -1.5132  1.1104 -1.3040
  314MOL0     H41395   3.253   5.093   9.583 -0.8573  0.3700 -1.0241
  314MOL0     H41396   3.217   5.056   9.753 -0.2319 -1.4455  0.0892
  314MOL0     H41397   3.031   5.223   9.566 -1.8352  3.9593  1.1172
  314MOL0     H41398   2.994   5.165   9.724 -1.2714 -2.8621 -2.7728
  314MOL0     H41399   3.169   5.309   9.820 -0.7785  1.6066  0.4175
  314MOL0     H41400   3.059   5.392   9.723  2.3922  0.8680  0.0147
  314MOL0     H41401   3.156   5.357   9.418 -2.4996  2.2288  1.7774
  314MOL0     H41402   3.454   5.378   9.276 -1.6271 -0.9507  0.2659
  314MOL0     H41403   3.468   5.549   9.321 -0.2562  0.8563 -3.3813
  314MOL0     H41404   3.340   5.590   9.150 -2.1684  2.0338 -0.7250
  314MOL0     H41405   3.213   5.541   9.265 -0.7217 -1.4471 -0.3366
  314MOL0     H41406   3.348   5.349   9.064  1.1737 -0.3187  1.7962
  314MOL0     H41407   3.235   5.304   9.182  0.4875 -0.5183 -0.4326
  314MOL0     H41408   3.125   5.349   8.950  2.2565 -1.6416 -0.0813
  314MOL0     H41409   3.166   5.516   8.980 -0.6413  1.6175  4.3754
  314MOL0     H41410   2.856   5.598   9.168 -1.3416 -0.3699  0.1393
  314MOL0     H41411   2.606   5.616   9.096 -3.1866 -0.9294 -1.3339
  314MOL0     H41412   2.238   5.158   8.850  0.0566  0.7783 -0.0004
  314MOL0     H41413   2.053   5.167   8.704  2.3271 -0.9571 -0.9113
  314MOL0     H41414   1.904   5.194   8.534 -1.4922  2.0011  0.9811
  314MOL0     H41415   2.026   5.212   8.398 -0.6782 -3.1318  0.4800
  314MOL0     H41416   1.771   5.376   8.398 -0.5003  0.9670 -2.4859
  314MOL0     H41417   1.753   5.201   8.363  0.1009 -1.0190  1.4162
  314MOL0     H41418   1.898   5.222   8.168  1.6913  1.0156  0.0286
  314MOL0     H41419   1.946   5.393   8.218 -0.6628  0.0901  1.3480
  314MOL0     H41420   1.680   5.299   8.107 -0.5453 -0.1140 -0.0914
  314MOL0     H41421   1.688   5.453   8.197 -2.5800 -0.0297 -1.5044
  314MOL0     H41422   1.878   5.373   7.978  0.5602 -0.9343  1.9334
  314MOL0     H41423   1.857   5.537   8.056 -0.5381 -0.0105  1.9476
  314MOL0     H41424   1.622   5.539   7.982 -0.8108  0.3247  0.1579
  314MOL0     H41425   1.654   5.394   7.881  1.1892  1.0880 -2.3053
  314MOL0     H41426   1.793   5.670   7.841  1.6730 -1.5229  0.1546
  314MOL0     H41427   1.824   5.528   7.750  1.7123  2.1788 -1.5284
  314MOL0     H41428   1.594   5.494   7.667 -0.8233  1.0291 -2.1169
  314MOL0     H41429   1.652   5.647   7.615 -1.7022 -1.3475 -0.9773
  314MOL0     H41430   2.157   5.562   8.585  2.3839 -2.4333 -1.9396
  314MOL0     H41431   2.350   5.554   8.721 -1.0173  1.9962  2.1313
  314MOL0     H41432   2.667   5.248   8.880 -2.1573  2.9957 -1.6027
  314MOL0     H41433   2.916   5.250   8.942  0.5469  0.3818  1.7490
  314MOL0     H41434   2.617   4.695   9.535  0.1475 -1.0833 -1.2078
  314MOL0     H41435   2.374   4.718   9.552 -1.8483 -1.2775  0.4771
  314MOL0     H41436   1.963   4.624   9.762  0.2550  1.1290 -0.4974
  314MOL0     H41437   1.730   4.602   9.770 -2.0884 -1.6862  0.5973
  314MOL0     H41438   1.519   4.539   9.778  0.0298  3.9315  0.8964
  314MOL0     H41439   1.393   4.523   9.667  0.0447  1.4843 -0.9640
  314MOL0     H41440   1.475   4.765   9.725  3.0957  1.0421  0.2752
  314MOL0     H41441   1.606   4.742   9.620 -0.2357  0.8653 -0.0292
  314MOL0     H41442   1.304   4.712   9.547  0.4996 -2.5129  0.3495
  314MOL0     H41443   1.438   4.694   9.432 -0.9308 -2.0836  0.0120
  314MOL0     H41444   1.500   4.945   9.549 -1.0005 -0.1421  1.0998
  314MOL0     H41445   1.398   4.933   9.409  1.2682  3.7156  0.4959
  314MOL0     H41446   1.103   5.058   9.660 -2.3467 -2.6759 -3.1981
  314MOL0     H41447   1.745   4.310   9.453  0.3921  1.5040 -2.4397
  314MOL0     H41448   1.980   4.309   9.459  1.3325  1.4341 -1.1603
  315MOL0     O41449   2.016   2.466   2.368  0.4047 -0.1528 -0.7541
  315MOL0     C41450   1.935   2.404   2.303 -0.9250  1.0237 -0.3818
  315MOL0     O41451   1.960   2.358   2.181 -0.0202  0.2697  0.2281
  315MOL0     C41452   2.069   2.404   2.114  0.0752  0.3678  0.3306
  315MOL0     C41453   2.193   2.364   2.141 -0.6170  0.2927 -0.2573
  315MOL0     C41454   2.306   2.414   2.071  0.0793  0.0373 -0.0147
  315MOL0     C41455   2.289   2.504   1.963  0.7460 -0.2053 -0.6013
  315MOL0     O41456   2.385   2.566   1.898 -0.2707 -0.4126 -0.0281
  315MOL0     C41457   2.490   2.499   1.831 -0.0713 -0.2058  0.4765
  315MOL0     C41458   2.466   2.489   1.678  0.0660 -0.5018 -0.6142
  315MOL0     C41459   2.363   2.370   1.655  0.3493 -0.2686  0.2700
  315MOL0     C41460   2.340   2.349   1.506 -0.5753 -0.1861 -0.4755
  315MOL0     C41461   2.260   2.451   1.425  0.5686  0.9500 -0.1850
  315MOL0     C41462   2.112   2.475   1.477  0.3266  0.5570 -0.0479
  315MOL0     C41463   2.016   2.355   1.497 -0.6570  0.2006 -0.2466
  315MOL0     C41464   1.880   2.403   1.544 -1.1609 -0.8728  0.1752
  315MOL0     N41465   1.795   2.280   1.551  0.7420 -0.7093  0.1044
  315MOL0     C41466   1.815   2.158   1.612 -0.3334 -0.5827 -0.1825
  315MOL0     C41467   1.705   2.082   1.581 -0.3358 -0.3762  0.6555
  315MOL0     C41468   1.688   1.932   1.617  0.3465  0.0204 -0.8936
  315MOL0     C41469   1.805   1.844   1.582  0.3580 -0.4178 -0.1626
  315MOL0     C41470   1.776   1.698   1.552 -0.0463 -0.9377  0.4633
  315MOL0     C41471   1.892   1.625   1.496  0.2100  0.5615  0.9332
  315MOL0     O41472   1.985   1.602   1.613  0.4327 -0.0443 -0.1486
  315MOL0     C41473   2.090   1.515   1.603  0.0862 -0.3944  0.0751
  315MOL0     C41474   2.124   1.441   1.489  0.7203  0.4509  0.2134
  315MOL0     C41475   2.235   1.369   1.480 -0.3422 -0.3092 -0.0359
  315MOL0     C41476   2.327   1.374   1.580 -1.0371  0.3381 -0.8944
  315MOL0     C41477   2.460   1.303   1.563 -0.4666  0.3972  0.2358
  315MOL0     O41478   2.577   1.331   1.643  0.0824 -0.4390 -0.7761
  315MOL0     C41479   2.704   1.285   1.613  0.1067 -0.4144  0.1562
  315MOL0     C41480   2.746   1.253   1.481  0.2427  0.4194 -0.1678
  315MOL0     C41481   2.880   1.225   1.447  0.3877  0.2845 -0.6654
  315MOL0     C41482   2.979   1.221   1.548  0.0105 -0.1306 -0.4165
  315MOL0     O41483   3.108   1.169   1.538 -0.2951  0.1079  0.0119
  315MOL0     C41484   3.154   1.102   1.421  1.2165  1.1257 -0.2458
  315MOL0     C41485   3.124   0.951   1.463  1.5205  0.1608 -0.2652
  315MOL0     C41486   3.245   0.862   1.499 -0.3789  0.1778  0.0455
  315MOL0     C41487   3.286   0.888   1.645 -0.0950  0.2242  0.2305
  315MOL0     C41488   3.415   0.813   1.679 -0.3452 -0.6502  0.0727
  315MOL0     C41489   3.539   0.840   1.586 -0.4848  0.7942 -0.7967
  315MOL0     C41490   3.653   0.761   1.666  0.5102  0.3065  0.6231
  315MOL0     C41491   3.772   0.768   1.575 -0.2963  0.3833 -0.0901
  315MOL0    Cl41492   3.735   0.663   1.432 -0.0456 -0.6011  0.2063
  315MOL0     C41493   2.931   1.261   1.675  0.2051  0.3738  0.1827
  315MOL0     C41494   2.802   1.288   1.703  0.6032  0.3510  0.1560
  315MOL0     O41495   2.461   1.217   1.475 -0.8890  0.2472  0.6483
  315MOL0     C41496   2.298   1.441   1.703 -0.5739  0.6202  0.0856
  315MOL0     C41497   2.174   1.502   1.715 -0.3427 -0.5330  0.5389
  315MOL0     N41498   1.612   2.164   1.519 -0.4297  0.3353  1.3546
  315MOL0     N41499   1.671   2.272   1.481  0.0792  0.0265 -0.1555
  315MOL0     C41500   2.161   2.561   1.942 -0.4141  1.0083  0.1942
  315MOL0     C41501   2.052   2.502   2.012 -0.8139 -1.0276 -0.3075
  315MOL0     C41502   1.807   2.366   2.377 -0.1455  0.0546 -0.3082
  315MOL0     C41503   1.695   2.301   2.313  0.1986  0.4914 -0.0427
  315MOL0     C41504   1.576   2.267   2.382 -0.7187 -0.6414  0.6634
  315MOL0     C41505   1.571   2.297   2.521 -0.0792  0.6337  0.5011
  315MOL0     O41506   1.459   2.263   2.585  0.4597 -0.2648 -0.1187
  315MOL0     C41507   1.443   2.275   2.731  0.4347 -0.3672 -0.1681
  315MOL0     C41508   1.356   2.398   2.749  0.3205  0.3103 -0.4303
  315MOL0     C41509   1.330   2.426   2.899  1.2141  0.6289 -0.0004
  315MOL0     C41510   1.445   2.459   2.982  0.3052  0.8757 -0.3077
  315MOL0     C41511   1.493   2.597   2.950  0.6462 -0.3145 -0.8499
  315MOL0     C41512   1.518   2.713   2.936  0.4698 -0.1758 -0.3939
  315MOL0     C41513   1.679   2.359   2.575 -0.4136 -0.3738 -0.6821
  315MOL0     C41514   1.792   2.395   2.513 -0.7345 -0.2992  0.1761
  315MOL0     H41515   2.214   2.288   2.217  0.9774  0.4745 -0.4820
  315MOL0     H41516   2.408   2.378   2.076  1.9225  3.7563 -3.7530
  315MOL0     H41517   2.513   2.402   1.875 -0.3303 -0.3396  0.3195
  315MOL0     H41518   2.574   2.567   1.850 -0.4801 -0.0499  1.8614
  315MOL0     H41519   2.559   2.468   1.624  1.7536  0.7269  1.6748
  315MOL0     H41520   2.437   2.588   1.644 -0.1839  0.1990  1.4981
  315MOL0     H41521   2.274   2.397   1.713 -0.1136 -0.6701 -0.2400
  315MOL0     H41522   2.414   2.282   1.694  1.3775 -0.2746 -1.0106
  315MOL0     H41523   2.441   2.335   1.466 -0.9506 -2.9368 -0.6362
  315MOL0     H41524   2.295   2.251   1.488  1.2914 -2.0478  3.6519
  315MOL0     H41525   2.254   2.422   1.320  0.6303 -1.6270  0.4718
  315MOL0     H41526   2.322   2.541   1.432 -0.0312  1.4352 -0.9554
  315MOL0     H41527   2.060   2.545   1.411  1.9327  1.2213 -0.6689
  315MOL0     H41528   2.107   2.523   1.575  1.4316  1.5901 -0.4662
  315MOL0     H41529   2.007   2.301   1.402 -1.2300  3.0192 -1.9310
  315MOL0     H41530   2.060   2.282   1.566 -2.4280 -2.7990 -2.0810
  315MOL0     H41531   1.838   2.469   1.468 -0.8450 -0.3174  0.4842
  315MOL0     H41532   1.887   2.459   1.637 -2.3849  1.4244 -1.0454
  315MOL0     H41533   1.902   2.141   1.674 -0.7965  2.5699  1.6034
  315MOL0     H41534   1.594   1.901   1.570 -2.3243  0.6352  3.4124
  315MOL0     H41535   1.670   1.932   1.725  2.7950 -0.6249 -0.4323
  315MOL0     H41536   1.881   1.855   1.660  1.4204  2.0963 -1.4429
  315MOL0     H41537   1.842   1.884   1.487  0.1085  2.6797  0.9347
  315MOL0     H41538   1.754   1.656   1.650  0.1333 -1.8934  0.1037
  315MOL0     H41539   1.694   1.695   1.480 -0.2181 -3.5622  0.6770
  315MOL0     H41540   1.946   1.677   1.416 -1.6206 -2.8053 -2.7808
  315MOL0     H41541   1.852   1.532   1.455 -0.2969  1.3637 -0.4511
  315MOL0     H41542   2.073   1.446   1.394  2.2553 -2.7826 -0.9096
  315MOL0     H41543   2.255   1.312   1.390 -0.6485 -3.0986  1.5336
  315MOL0     H41544   2.677   1.272   1.399  0.1018  2.6941  0.4008
  315MOL0     H41545   2.901   1.204   1.342 -1.3913 -1.7791 -0.6849
  315MOL0     H41546   3.262   1.120   1.413  1.3826  0.3534  0.1743
  315MOL0     H41547   3.101   1.137   1.332 -0.7008  1.5510  1.0194
  315MOL0     H41548   3.067   0.918   1.375  0.1851  1.9838 -0.1414
  315MOL0     H41549   3.050   0.944   1.543  0.5485  3.1343 -0.7769
  315MOL0     H41550   3.322   0.882   1.424  0.9760 -3.5252  0.2158
  315MOL0     H41551   3.213   0.757   1.501  4.4458 -1.6072 -1.5571
  315MOL0     H41552   3.304   0.996   1.651  3.5929 -0.2876  0.8267
  315MOL0     H41553   3.210   0.866   1.721  0.2480  0.6679  0.7120
  315MOL0     H41554   3.389   0.706   1.684 -2.4476 -0.2724 -1.3095
  315MOL0     H41555   3.432   0.840   1.783 -2.4283 -3.2413  1.2254
  315MOL0     H41556   3.562   0.947   1.575 -0.6027  1.4041  3.3184
  315MOL0     H41557   3.520   0.791   1.490  0.9256  0.3695 -0.8753
  315MOL0     H41558   3.661   0.803   1.767 -2.5441  1.0643  0.6777
  315MOL0     H41559   3.619   0.657   1.670 -0.0945  0.3052 -2.3221
  315MOL0     H41560   3.860   0.725   1.624 -0.3620 -1.3401 -1.3841
  315MOL0     H41561   3.793   0.872   1.549 -1.3396  1.2101  2.2039
  315MOL0     H41562   2.999   1.254   1.759  0.6670 -1.7001 -0.3123
  315MOL0     H41563   2.775   1.314   1.805 -4.1647  1.1261 -1.0728
  315MOL0     H41564   2.370   1.452   1.784 -0.1994 -1.7555  0.1436
  315MOL0     H41565   2.162   1.554   1.809  3.2450 -1.2499  1.5422
  315MOL0     H41566   2.159   2.639   1.867  1.0373 -2.2962 -3.6890
  315MOL0     H41567   1.948   2.522   1.989 -0.3909  0.9443 -0.6819
  315MOL0     H41568   1.708   2.287   2.206 -1.4563 -1.4135 -0.0574
  315MOL0     H41569   1.485   2.224   2.341 -1.2019 -0.7407  1.7947
  315MOL0     H41570   1.537   2.266   2.786 -0.6095 -1.0715  1.5782
  315MOL0     H41571   1.385   2.190   2.768  1.3732 -0.7589  0.4527
  315MOL0     H41572   1.403   2.487   2.704  1.9315 -1.1404 -1.7766
  315MOL0     H41573   1.260   2.388   2.698  1.0492 -0.8699 -1.6293
  315MOL0     H41574   1.281   2.332   2.925 -2.1130  2.7430  2.0390
  315MOL0     H41575   1.245   2.494   2.900  0.9221  0.3034 -0.9967
  315MOL0     H41576   1.405   2.437   3.081 -0.9776 -1.5133 -1.2779
  315MOL0     H41577   1.528   2.391   2.965 -0.6235 -0.4280  0.2568
  315MOL0     H41578   1.532   2.818   2.923 -0.0394  0.4167  3.0631
  315MOL0     H41579   1.681   2.377   2.682  1.7076  2.2045 -1.0445
  315MOL0     H41580   1.882   2.439   2.555  0.5986 -1.5656 -1.1975
  316MOL0     O41581   7.817   1.827   6.166 -0.4217  0.0929  0.5783
  316MOL0     C41582   7.920   1.846   6.114  0.7596  0.5985 -0.6200
  316MOL0     O41583   7.955   1.965   6.059 -0.2654 -0.6623 -0.2118
  316MOL0     C41584   7.870   2.076   6.059 -0.2358 -0.0506  0.6101
  316MOL0     C41585   7.873   2.160   5.948  0.2196 -0.8070  0.9531
  316MOL0     C41586   7.813   2.285   5.945  0.8415 -0.3899 -0.8770
  316MOL0     C41587   7.741   2.330   6.058 -0.1099 -0.6378 -0.8298
  316MOL0     O41588   7.679   2.452   6.060  0.2863 -0.1010  0.2970
  316MOL0     C41589   7.591   2.481   6.167  0.0186  0.5866  0.1824
  316MOL0     C41590   7.479   2.580   6.131 -0.6518  0.8160  0.9514
  316MOL0     C41591   7.421   2.627   6.265  0.7744 -0.1587 -0.9869
  316MOL0     C41592   7.278   2.679   6.244 -0.1814  0.0989 -1.2713
  316MOL0     C41593   7.214   2.735   6.374 -0.6267  0.2726  0.7016
  316MOL0     C41594   7.230   2.645   6.498 -0.9221 -0.1810  0.1123
  316MOL0     C41595   7.126   2.676   6.600 -0.3653 -0.1281  0.1531
  316MOL0     C41596   7.114   2.566   6.712  0.5956  0.3092  0.1876
  316MOL0     N41597   7.002   2.587   6.810  0.3659  0.0250 -0.4237
  316MOL0     C41598   6.867   2.565   6.786  0.0000 -0.6606  0.9002
  316MOL0     C41599   6.809   2.617   6.894  0.9061  0.1668  0.0165
  316MOL0     C41600   6.661   2.599   6.920  0.0382 -0.6559  0.0158
  316MOL0     C41601   6.612   2.672   7.045 -0.2671 -0.0031 -0.0101
  316MOL0     C41602   6.487   2.627   7.119  0.1195  0.7212 -0.5465
  316MOL0     C41603   6.369   2.592   7.026  0.1715 -0.6977 -0.3629
  316MOL0     O41604   6.341   2.712   6.952 -0.4792  0.0971  0.4465
  316MOL0     C41605   6.248   2.802   7.009 -0.1140  0.3562  0.2926
  316MOL0     C41606   6.168   2.791   7.125  0.7686 -0.6817  0.0554
  316MOL0     C41607   6.071   2.887   7.163 -0.9072  0.4875 -0.1728
  316MOL0     C41608   6.032   2.988   7.074  0.6126 -0.0155 -0.0679
  316MOL0     C41609   5.924   3.089   7.113 -0.0024  0.2436  0.2605
  316MOL0     O41610   5.930   3.200   7.035 -0.8370 -0.4038 -0.3011
  316MOL0     C41611   5.841   3.307   7.051  0.2870 -0.6755  1.0119
  316MOL0     C41612   5.888   3.434   7.012  0.0271  0.4292 -0.0781
  316MOL0     C41613   5.805   3.551   7.011  0.2432 -0.2213  0.1218
  316MOL0     C41614   5.675   3.547   7.041  0.7171  0.7784  0.2437
  316MOL0     O41615   5.584   3.648   7.027  1.3552  0.2848 -0.3583
  316MOL0     C41616   5.630   3.779   7.006  0.3432 -0.4267  0.0537
  316MOL0     C41617   5.498   3.863   6.988 -1.1218 -0.0123  0.4686
  316MOL0     C41618   5.397   3.849   7.107 -0.8259 -0.9939  0.3118
  316MOL0     C41619   5.285   3.952   7.086 -0.1803  0.3281  0.1423
  316MOL0     C41620   5.195   3.974   7.204 -0.1384  0.4681  0.0072
  316MOL0     C41621   5.111   4.104   7.211 -0.9087 -0.7024  0.0012
  316MOL0     C41622   5.044   4.135   7.346 -0.4241 -0.3892 -1.1706
  316MOL0     C41623   4.987   4.266   7.372  0.1913 -0.2061  0.2179
  316MOL0    Cl41624   4.884   4.265   7.518  0.3410  0.3643  0.3267
  316MOL0     C41625   5.621   3.420   7.071  0.5394  0.1320 -1.0810
  316MOL0     C41626   5.702   3.306   7.079  0.8007 -0.3539 -0.1440
  316MOL0     O41627   5.857   3.070   7.211  0.2064 -0.1859 -0.2049
  316MOL0     C41628   6.108   2.998   6.960  0.8213 -0.5428  1.4720
  316MOL0     C41629   6.215   2.914   6.931 -0.3598 -0.2660  0.3747
  316MOL0     N41630   6.907   2.686   6.967  0.2121  0.9421  0.0880
  316MOL0     N41631   7.022   2.655   6.928 -0.5576 -0.5050 -1.0228
  316MOL0     C41632   7.742   2.242   6.173  0.6878  0.1745  0.5228
  316MOL0     C41633   7.794   2.114   6.165 -0.2800  0.1353 -0.1564
  316MOL0     C41634   8.005   1.730   6.089  0.7662 -0.2696 -0.6867
  316MOL0     C41635   7.972   1.601   6.149 -0.1260 -0.6370 -0.9706
  316MOL0     C41636   8.057   1.503   6.127  0.1618 -0.2632 -0.2332
  316MOL0     C41637   8.175   1.515   6.053 -0.9053 -0.0495 -0.0884
  316MOL0     O41638   8.261   1.404   6.040  0.1229 -0.0858 -0.0469
  316MOL0     C41639   8.385   1.416   5.970 -0.1090 -0.4691 -0.9437
  316MOL0     C41640   8.461   1.280   5.953  0.2422 -0.2631 -0.1614
  316MOL0     C41641   8.481   1.201   6.086  0.5070 -0.0620 -0.0824
  316MOL0     C41642   8.537   1.057   6.057  0.2154 -0.2316  0.2465
  316MOL0     C41643   8.516   0.975   6.171  0.9629 -0.8252  0.3345
  316MOL0     C41644   8.483   0.894   6.251  0.2823  0.9359 -0.5195
  316MOL0     C41645   8.213   1.642   6.000 -0.3271  0.7052 -0.4644
  316MOL0     C41646   8.125   1.750   6.014  0.8848 -0.3523  0.5912
  316MOL0     H41647   7.934   2.119   5.868  3.0485 -0.3713  2.7294
  316MOL0     H41648   7.819   2.354   5.861 -1.2095  0.0096 -0.7540
  316MOL0     H41649   7.647   2.518   6.253 -0.8235 -0.8492  1.4002
  316MOL0     H41650   7.540   2.386   6.185  2.7969 -1.2344 -0.8161
  316MOL0     H41651   7.407   2.527   6.067  2.3920  0.0742 -2.1273
  316MOL0     H41652   7.522   2.653   6.061 -2.6465  0.2670 -0.9926
  316MOL0     H41653   7.482   2.704   6.312 -1.3152 -0.2722  2.1943
  316MOL0     H41654   7.400   2.542   6.331 -2.6247 -1.9643 -4.0010
  316MOL0     H41655   7.279   2.753   6.163 -0.4392  1.7923  0.1994
  316MOL0     H41656   7.211   2.597   6.216 -2.0236  1.3899 -0.8645
  316MOL0     H41657   7.108   2.756   6.357 -0.6350  0.9984  1.5919
  316MOL0     H41658   7.249   2.834   6.402 -2.1294  0.4175  2.2292
  316MOL0     H41659   7.330   2.661   6.540 -0.6844 -0.2160 -0.4338
  316MOL0     H41660   7.224   2.539   6.472 -0.8671  0.4161 -2.6551
  316MOL0     H41661   7.136   2.780   6.632 -1.9575  0.6770 -1.7253
  316MOL0     H41662   7.024   2.671   6.559  0.6951 -3.5056 -2.6453
  316MOL0     H41663   7.208   2.554   6.766 -0.6755  1.3375  2.8060
  316MOL0     H41664   7.090   2.473   6.659  0.6300  1.5605 -2.2010
  316MOL0     H41665   6.817   2.516   6.703  0.9014  1.9217 -1.3162
  316MOL0     H41666   6.634   2.493   6.933 -0.9355 -0.2919  1.1452
  316MOL0     H41667   6.619   2.650   6.833  2.4456  1.6200  0.0827
  316MOL0     H41668   6.605   2.776   7.011 -0.1630 -0.5365 -1.7313
  316MOL0     H41669   6.699   2.661   7.111  0.7397 -1.4853 -1.5073
  316MOL0     H41670   6.515   2.544   7.183  1.2680  1.0387 -0.6151
  316MOL0     H41671   6.445   2.713   7.173 -1.3804  0.3915 -1.1276
  316MOL0     H41672   6.284   2.567   7.090  0.0830 -2.0059 -0.9482
  316MOL0     H41673   6.386   2.507   6.959  0.1985 -1.6709  0.8399
  316MOL0     H41674   6.167   2.702   7.187 -4.5113 -1.7816 -1.0306
  316MOL0     H41675   6.023   2.886   7.260 -2.6360  0.5091 -0.9928
  316MOL0     H41676   5.994   3.450   6.993  0.3622  0.4200  1.6832
  316MOL0     H41677   5.858   3.640   6.980  0.4816 -0.8169 -1.2399
  316MOL0     H41678   5.699   3.787   6.921  3.0800  3.1447  2.3121
  316MOL0     H41679   5.677   3.823   7.094 -0.4934  1.6607 -0.4798
  316MOL0     H41680   5.457   3.826   6.894  2.3709  0.3603 -1.3846
  316MOL0     H41681   5.516   3.970   6.977 -1.4066 -0.0079  0.0015
  316MOL0     H41682   5.450   3.852   7.202 -0.2851 -1.6543  0.0455
  316MOL0     H41683   5.357   3.747   7.100 -0.3895 -1.0757 -2.2109
  316MOL0     H41684   5.328   4.047   7.053 -0.0815  0.0335 -0.5972
  316MOL0     H41685   5.220   3.909   7.010 -0.9636  1.0600  0.3791
  316MOL0     H41686   5.256   3.977   7.295 -0.2644  1.5550  0.0671
  316MOL0     H41687   5.138   3.881   7.211  1.9335 -0.9801 -1.4265
  316MOL0     H41688   5.036   4.096   7.132 -0.1870 -0.5938 -0.6977
  316MOL0     H41689   5.173   4.193   7.194 -0.8275 -1.1696 -2.6019
  316MOL0     H41690   4.964   4.061   7.350 -2.0152  1.3226  1.1719
  316MOL0     H41691   5.116   4.113   7.426  0.9740 -0.8228 -2.5026
  316MOL0     H41692   4.909   4.296   7.301 -0.8387  2.8702  2.4323
  316MOL0     H41693   5.063   4.345   7.374  0.3834 -0.4104  1.3908
  316MOL0     H41694   5.520   3.393   7.099  1.1691 -2.1382 -0.8047
  316MOL0     H41695   5.639   3.223   7.107 -0.0952  0.1827 -0.5157
  316MOL0     H41696   6.108   3.078   6.886  2.3612 -1.3997  0.4787
  316MOL0     H41697   6.262   2.911   6.833 -0.7040 -0.8851  0.2264
  316MOL0     H41698   7.693   2.273   6.265  0.9726 -1.3644  1.2333
  316MOL0     H41699   7.787   2.050   6.252 -0.1560  2.4681  1.6799
  316MOL0     H41700   7.872   1.585   6.186  0.0438  0.7522  0.1951
  316MOL0     H41701   8.027   1.407   6.168 -1.9362  0.2565 -0.4148
  316MOL0     H41702   8.448   1.484   6.029 -1.3024  0.7100 -0.9622
  316MOL0     H41703   8.377   1.459   5.870  1.0145 -1.3781 -1.4428
  316MOL0     H41704   8.405   1.213   5.887 -0.8780 -0.5674  1.0680
  316MOL0     H41705   8.555   1.290   5.898  1.0179  0.5513  1.2506
  316MOL0     H41706   8.388   1.201   6.145  0.1518  1.1310 -0.6132
  316MOL0     H41707   8.560   1.254   6.141  0.2426 -0.2176  0.4617
  316MOL0     H41708   8.479   1.014   5.974 -1.2038  0.9310  0.6066
  316MOL0     H41709   8.644   1.059   6.035 -0.2180 -0.8294 -2.2603
  316MOL0     H41710   8.475   0.808   6.315 -1.8596  1.3658 -0.1349
  316MOL0     H41711   8.309   1.663   5.954 -0.5003  0.9709 -0.7075
  316MOL0     H41712   8.145   1.844   5.963 -3.7598  2.5153  3.3215
  317MOL0     O41713   9.911  10.820  10.151 -0.2593 -0.6359  0.4992
  317MOL0     C41714   9.912  10.911  10.236 -0.1332 -0.1956  0.1800
  317MOL0     O41715   9.812  10.930  10.322  0.6227  0.7567  0.2673
  317MOL0     C41716   9.692  10.863  10.302 -0.7870  0.2008 -0.4883
  317MOL0     C41717   9.584  10.938  10.254 -0.8081 -1.2983 -0.5707
  317MOL0     C41718   9.467  10.870  10.226  0.5668 -0.5076 -0.4471
  317MOL0     C41719   9.456  10.731  10.247 -0.4361  0.5120 -0.3014
  317MOL0     O41720   9.336  10.668  10.237  0.3190  0.2723 -0.3045
  317MOL0     C41721   9.223  10.724  10.312  0.4473  0.2114  0.0479
  317MOL0     C41722   9.098  10.653  10.259 -0.7719 -0.2796 -0.0357
  317MOL0     C41723   8.960  10.719  10.298 -0.5844 -0.4745  0.0754
  317MOL0     C41724   8.940  10.744  10.447  0.7575  0.1402 -1.1010
  317MOL0     C41725   8.791  10.760  10.472  0.3348 -0.1329 -0.0766
  317MOL0     C41726   8.699  10.633  10.511  0.0867 -0.2471 -0.3652
  317MOL0     C41727   8.736  10.491  10.440  0.1738  0.8710 -0.1613
  317MOL0     C41728   8.678  10.362  10.505 -0.6199 -0.8220 -0.5270
  317MOL0     N41729   8.532  10.370  10.503  0.3289 -0.3441  0.0699
  317MOL0     C41730   8.453  10.441  10.600  0.4611 -0.3353  0.5010
  317MOL0     C41731   8.326  10.417  10.560 -1.0912 -0.7808  0.5031
  317MOL0     C41732   8.201  10.482  10.622  0.2480 -0.3402 -0.5332
  317MOL0     C41733   8.133  10.400  10.735  0.3478  0.5074  0.4042
  317MOL0     C41734   8.034  10.292  10.682 -0.0018  0.0766  0.7809
  317MOL0     C41735   7.887  10.343  10.679 -0.4597  0.4819 -0.3059
  317MOL0     O41736   7.824  10.240  10.607 -0.2718  0.1700  0.4620
  317MOL0     C41737   7.690  10.226  10.620 -0.0082  0.7659  0.3306
  317MOL0     C41738   7.635  10.103  10.583 -0.5301  0.1373 -0.2932
  317MOL0     C41739   7.500  10.088  10.559 -0.0348 -0.1777  0.1033
  317MOL0     C41740   7.418  10.198  10.579 -0.2922 -0.2518  0.3888
  317MOL0     C41741   7.272  10.175  10.537  0.1251  0.1668  0.3077
  317MOL0     O41742   7.195  10.287  10.529 -0.1400  0.2857  0.1474
  317MOL0     C41743   7.060  10.288  10.535  0.3271 -0.5861  0.8351
  317MOL0     C41744   7.002  10.414  10.500 -1.3628  0.6546 -0.0050
  317MOL0     C41745   6.868  10.431  10.509 -0.4835  0.1203 -0.6413
  317MOL0     C41746   6.790  10.326  10.560 -0.1194  0.4993 -0.7054
  317MOL0     O41747   6.655  10.342  10.558  0.2831 -0.6364  0.6739
  317MOL0     C41748   6.559  10.250  10.613  0.0928  0.7227  0.0729
  317MOL0     C41749   6.415  10.303  10.634  0.1386 -1.2027 -0.2716
  317MOL0     C41750   6.423  10.446  10.699  0.5873  0.2159 -0.1453
  317MOL0     C41751   6.291  10.508  10.756  0.3152  0.8955 -0.2914
  317MOL0     C41752   6.307  10.608  10.871 -0.3524  1.1663  0.5324
  317MOL0     C41753   6.171  10.683  10.901 -1.0630  0.9563 -0.0636
  317MOL0     C41754   6.070  10.587  10.971 -0.3550 -0.7670 -0.2359
  317MOL0     C41755   5.945  10.669  10.995  0.7058  0.7117 -0.4171
  317MOL0    Cl41756   5.801  10.570  10.976 -0.2778 -0.2024 -0.2389
  317MOL0     C41757   6.847  10.207  10.598  0.2037 -0.1363  0.1748
  317MOL0     C41758   6.981  10.191  10.593 -0.3861 -1.1169  0.5229
  317MOL0     O41759   7.232  10.059  10.522  0.4860  0.5159 -0.3744
  317MOL0     C41760   7.467  10.318  10.617 -0.0478  0.2202 -1.0428
  317MOL0     C41761   7.602  10.336  10.627  0.0939  0.2495  0.7164
  317MOL0     N41762   8.326  10.323  10.464 -0.8500  0.9910 -0.7834
  317MOL0     N41763   8.443  10.301  10.423 -0.3287 -0.2294  0.1691
  317MOL0     C41764   9.562  10.656  10.300 -0.5872 -0.4615  0.3654
  317MOL0     C41765   9.681  10.731  10.328  0.6684  0.9087  0.5344
  317MOL0     C41766  10.030  11.002  10.251  0.2192  0.2563 -0.6305
  317MOL0     C41767  10.154  10.976  10.199 -0.2169 -0.5018  0.1602
  317MOL0     C41768  10.267  11.065  10.226 -0.9779  0.2338  0.5053
  317MOL0     C41769  10.255  11.166  10.313  0.2384 -0.2287 -0.4625
  317MOL0     O41770  10.366  11.242  10.336  0.5908  0.4788  0.7068
  317MOL0     C41771  10.359  11.359  10.415  0.2754  0.1637 -0.2709
  317MOL0     C41772  10.499  11.416  10.436 -0.3886  0.2261  0.2973
  317MOL0     C41773  10.594  11.304  10.488 -0.3013 -0.0968  0.1178
  317MOL0     C41774  10.740  11.349  10.540  0.3456  0.5646  0.4548
  317MOL0     C41775  10.807  11.431  10.440  0.5474 -0.2547 -1.0486
  317MOL0     C41776  10.862  11.491  10.349 -0.3957 -0.0541 -0.1404
  317MOL0     C41777  10.125  11.202  10.352  0.5950  0.0706  0.1705
  317MOL0     C41778  10.009  11.127  10.315 -0.4492 -0.0214 -0.9021
  317MOL0     H41779   9.583  11.044  10.227 -1.4711  0.2274  4.3426
  317MOL0     H41780   9.399  10.915  10.154  1.4250 -0.9916 -1.5910
  317MOL0     H41781   9.205  10.831  10.298 -0.2871  0.1920  0.7865
  317MOL0     H41782   9.216  10.701  10.418 -2.3126  1.9683  0.3362
  317MOL0     H41783   9.095  10.547  10.287 -0.7806  0.3173  2.4753
  317MOL0     H41784   9.102  10.646  10.150  1.4320 -0.1475  0.0015
  317MOL0     H41785   8.887  10.651  10.254 -0.7931  1.6366 -3.2261
  317MOL0     H41786   8.939  10.808  10.237 -0.1943 -0.9787 -0.8177
  317MOL0     H41787   8.984  10.668  10.511  0.9715  0.5349 -0.7716
  317MOL0     H41788   8.992  10.839  10.464 -0.7448  0.6492  1.1942
  317MOL0     H41789   8.752  10.819  10.389 -1.5989  0.2207  1.0069
  317MOL0     H41790   8.776  10.834  10.551 -1.1884  0.6626 -1.0517
  317MOL0     H41791   8.598  10.663  10.484  0.3093  1.4009  0.4893
  317MOL0     H41792   8.702  10.626  10.620 -3.5789  0.0231 -0.1336
  317MOL0     H41793   8.692  10.486  10.341 -1.6060  0.5371  0.6121
  317MOL0     H41794   8.845  10.481  10.449 -0.0179 -1.7573 -0.0496
  317MOL0     H41795   8.701  10.354  10.612 -1.7226  1.6771 -0.0414
  317MOL0     H41796   8.714  10.271  10.456  2.7809 -1.2251  2.3216
  317MOL0     H41797   8.476  10.506  10.684  0.2948  1.3568 -0.6954
  317MOL0     H41798   8.127  10.511  10.546 -0.7554  1.2466  0.9748
  317MOL0     H41799   8.243  10.577  10.655  3.4774 -1.9779  0.5038
  317MOL0     H41800   8.095  10.475  10.804  2.7969  2.0016  0.2601
  317MOL0     H41801   8.214  10.350  10.789  0.2577  1.7359  1.7292
  317MOL0     H41802   8.048  10.268  10.576  0.6494  1.2189  0.5952
  317MOL0     H41803   8.050  10.207  10.749  2.2136 -0.2545 -0.0909
  317MOL0     H41804   7.881  10.438  10.624 -1.3355  1.3745  1.2435
  317MOL0     H41805   7.853  10.365  10.781  1.2156  2.4628 -0.1101
  317MOL0     H41806   7.692  10.016  10.552  1.2297  0.4177  1.8925
  317MOL0     H41807   7.459   9.992  10.533  0.0298 -0.3370  0.5737
  317MOL0     H41808   7.073  10.483  10.455  1.3628 -1.0114  1.4547
  317MOL0     H41809   6.829  10.523  10.466 -2.6062 -0.8441 -0.8551
  317MOL0     H41810   6.597  10.218  10.711 -1.1513  2.2264  1.1009
  317MOL0     H41811   6.557  10.153  10.563  1.0514 -2.0804  4.7983
  317MOL0     H41812   6.358  10.243  10.706  1.0179 -1.1339  0.5108
  317MOL0     H41813   6.361  10.311  10.539 -2.7158  0.5577  1.3451
  317MOL0     H41814   6.460  10.515  10.623 -1.5867  1.9387  0.2529
  317MOL0     H41815   6.492  10.450  10.784 -0.2576  0.8640  0.5411
  317MOL0     H41816   6.234  10.559  10.678  0.0787  1.6475  0.3650
  317MOL0     H41817   6.238  10.422  10.797 -2.5621  1.1320 -3.0873
  317MOL0     H41818   6.391  10.675  10.850 -0.6407  0.8253 -2.0793
  317MOL0     H41819   6.343  10.548  10.955  0.9322 -0.6873 -1.2569
  317MOL0     H41820   6.133  10.724  10.807  0.8551  1.1044 -0.8242
  317MOL0     H41821   6.180  10.771  10.965 -1.1793  0.7127  0.2965
  317MOL0     H41822   6.057  10.500  10.906 -0.5185 -0.1758 -1.0007
  317MOL0     H41823   6.119  10.544  11.059  0.0943 -1.0506 -0.6192
  317MOL0     H41824   5.923  10.753  10.929 -3.1878  1.1102  1.1614
  317MOL0     H41825   5.936  10.707  11.097 -0.9850 -0.1121 -0.2134
  317MOL0     H41826   6.781  10.129  10.633  0.6465 -0.2033  0.8905
  317MOL0     H41827   7.030  10.100  10.625  2.1265 -0.2399 -0.5595
  317MOL0     H41828   7.394  10.397  10.627 -2.1569 -1.6138 -0.9794
  317MOL0     H41829   7.637  10.435  10.654 -2.0768  1.4501 -0.6501
  317MOL0     H41830   9.553  10.550  10.323  0.0562 -1.7192 -4.0784
  317MOL0     H41831   9.760  10.669  10.369 -0.1609 -0.2395  0.4715
  317MOL0     H41832  10.157  10.881  10.148  0.6210 -1.0511  1.1815
  317MOL0     H41833  10.366  11.043  10.187 -0.2963  3.2106  0.3795
  317MOL0     H41834  10.306  11.341  10.509  0.6678 -1.5716 -0.3677
  317MOL0     H41835  10.290  11.428  10.363 -0.5462  0.2033  0.8297
  317MOL0     H41836  10.518  11.466  10.341 -1.3896  0.0776  0.0085
  317MOL0     H41837  10.497  11.493  10.514 -2.4144  2.6413 -1.9705
  317MOL0     H41838  10.605  11.222  10.416  1.4994 -0.8155  1.1407
  317MOL0     H41839  10.536  11.260  10.569  0.8482 -4.8335 -1.3098
  317MOL0     H41840  10.720  11.415  10.625 -0.3510 -2.1234  2.5209
  317MOL0     H41841  10.804  11.268  10.577  0.3076  0.7175  0.8638
  317MOL0     H41842  10.907  11.537  10.264  3.0848 -0.8300  1.1224
  317MOL0     H41843  10.107  11.300  10.394 -1.2516  0.2561 -0.9304
  317MOL0     H41844   9.921  11.169  10.360  2.5040  3.8562  1.8945
  318MOL0     O41845   9.472   6.344   0.552  0.4707  0.3218 -0.1503
  318MOL0     C41846   9.589   6.312   0.541 -0.7635  0.8886 -0.3665
  318MOL0     O41847   9.659   6.308   0.420  0.2112  0.0129 -0.5364
  318MOL0     C41848   9.584   6.310   0.305  0.0218  0.3835  0.6124
  318MOL0     C41849   9.515   6.197   0.257 -0.1658 -0.1171 -0.5350
  318MOL0     C41850   9.447   6.202   0.139  0.0691  0.0545  0.7966
  318MOL0     C41851   9.443   6.308   0.046 -0.3754 -0.1921  0.2499
  318MOL0     O41852   9.382   6.303  -0.074  0.0710 -0.0962 -0.5454
  318MOL0     C41853   9.355   6.432  -0.139 -0.4189 -0.4672 -0.0396
  318MOL0     C41854   9.437   6.433  -0.266 -0.3501 -0.0248 -0.1148
  318MOL0     C41855   9.388   6.556  -0.348  0.4430 -0.2656 -0.0981
  318MOL0     C41856   9.499   6.601  -0.441 -0.5374 -0.5210 -0.2592
  318MOL0     C41857   9.455   6.699  -0.551 -0.7689 -1.0385 -0.2149
  318MOL0     C41858   9.355   6.648  -0.649  0.4136 -0.6102  0.5621
  318MOL0     C41859   9.348   6.743  -0.773  0.8281 -0.8315 -0.3136
  318MOL0     C41860   9.212   6.727  -0.838 -0.3613  0.2570  0.1367
  318MOL0     N41861   9.184   6.583  -0.847  0.4350  0.1364  0.1018
  318MOL0     C41862   9.265   6.493  -0.913 -0.0657  0.5099 -0.4278
  318MOL0     C41863   9.199   6.374  -0.884 -0.4138  0.1040 -0.1386
  318MOL0     C41864   9.252   6.236  -0.936  0.1322 -0.1326  0.7386
  318MOL0     C41865   9.229   6.237  -1.091  0.5620  0.2579 -0.7930
  318MOL0     C41866   9.297   6.112  -1.153  0.1433 -0.2453 -0.1978
  318MOL0     C41867   9.283   6.127  -1.306 -0.3371 -0.8126  0.9684
  318MOL0     O41868   9.362   6.029  -1.368 -0.2454 -0.1565  0.6467
  318MOL0     C41869   9.480   6.080  -1.400 -0.0969  0.4232 -0.3633
  318MOL0     C41870   9.501   6.140  -1.525 -0.4131 -0.4301  0.3734
  318MOL0     C41871   9.633   6.176  -1.551 -0.1715  0.9528 -0.1661
  318MOL0     C41872   9.745   6.142  -1.469  0.3718 -0.2783 -0.4242
  318MOL0     C41873   9.888   6.172  -1.492  0.8181 -0.1306  0.9436
  318MOL0     O41874   9.916   6.233  -1.613 -0.4153  0.2046  0.2619
  318MOL0     C41875  10.032   6.274  -1.665 -0.5288 -0.3987  0.4931
  318MOL0     C41876  10.023   6.329  -1.793  0.6586  0.7389 -0.0282
  318MOL0     C41877  10.137   6.384  -1.852  0.1338 -1.2548  0.5216
  318MOL0     C41878  10.259   6.401  -1.794  0.8464  0.4382  0.2473
  318MOL0     O41879  10.359   6.464  -1.859 -0.1551  0.3396  0.0807
  318MOL0     C41880  10.497   6.445  -1.800 -0.0708 -0.2947  0.5390
  318MOL0     C41881  10.591   6.523  -1.892 -0.6703  0.1504 -0.2791
  318MOL0     C41882  10.599   6.673  -1.849  0.2023 -0.3674  0.4214
  318MOL0     C41883  10.719   6.747  -1.921  0.7262 -0.2430  0.1283
  318MOL0     C41884  10.853   6.708  -1.849  0.4330  0.3264  0.2659
  318MOL0     C41885  10.967   6.743  -1.945  0.9083 -0.0606 -0.0867
  318MOL0     C41886  11.101   6.710  -1.884 -0.1402  0.0791 -0.0127
  318MOL0     C41887  11.211   6.802  -1.941  0.6078 -0.1598 -0.7017
  318MOL0    Cl41888  11.365   6.761  -1.865  0.2382 -0.5069  0.5146
  318MOL0     C41889  10.265   6.342  -1.664  0.0941 -0.8826 -0.8740
  318MOL0     C41890  10.158   6.283  -1.600  0.4996  0.9255  0.2477
  318MOL0     O41891   9.970   6.142  -1.405 -0.1113  0.1726  0.5164
  318MOL0     C41892   9.715   6.075  -1.348 -0.3960 -0.4096  0.6894
  318MOL0     C41893   9.586   6.047  -1.318  0.1905  1.1236  0.8035
  318MOL0     N41894   9.086   6.403  -0.797 -0.5060  0.3532 -0.0721
  318MOL0     N41895   9.082   6.529  -0.781 -0.5589 -0.3495 -0.4616
  318MOL0     C41896   9.526   6.410   0.087 -0.0096  0.6125  0.3920
  318MOL0     C41897   9.583   6.415   0.218 -0.0450 -1.0829 -0.7310
  318MOL0     C41898   9.675   6.295   0.663 -0.4715 -0.6230  0.7101
  318MOL0     C41899   9.619   6.275   0.793 -0.6647 -0.7117 -0.1754
  318MOL0     C41900   9.715   6.261   0.901 -0.2951  0.2195  0.2641
  318MOL0     C41901   9.855   6.257   0.889 -0.1773 -0.2353 -0.3486
  318MOL0     O41902   9.936   6.273   1.005 -0.2913 -0.2505  0.3934
  318MOL0     C41903   9.902   6.184   1.114  0.1727  0.5039  0.1112
  318MOL0     C41904  10.001   6.142   1.213  0.3360  0.3025  0.2854
  318MOL0     C41905  10.077   6.265   1.267  0.2996  0.1772 -0.0916
  318MOL0     C41906  10.178   6.226   1.382  0.5942 -0.1772  1.2859
  318MOL0     C41907  10.288   6.330   1.382  0.4774  0.1705  0.4026
  318MOL0     C41908  10.372   6.413   1.404  0.1077 -0.8783  0.3527
  318MOL0     C41909   9.905   6.275   0.758 -0.6808  0.2867 -0.9666
  318MOL0     C41910   9.818   6.298   0.656 -0.0843 -0.4045  0.7775
  318MOL0     H41911   9.526   6.105   0.313 -1.6976 -0.3734 -0.6057
  318MOL0     H41912   9.388   6.114   0.113  3.4022 -3.6288  4.2229
  318MOL0     H41913   9.361   6.528  -0.086 -0.5951 -0.9801  0.9206
  318MOL0     H41914   9.248   6.437  -0.163 -0.8247 -1.7626  1.3664
  318MOL0     H41915   9.428   6.334  -0.312  3.5301 -1.2459  1.3447
  318MOL0     H41916   9.545   6.434  -0.248 -0.4277 -0.3440  0.4083
  318MOL0     H41917   9.361   6.641  -0.284  2.0616 -0.1288  0.4497
  318MOL0     H41918   9.297   6.530  -0.402  0.6121  1.1869 -1.1561
  318MOL0     H41919   9.576   6.658  -0.388 -2.0967  1.0125  0.4178
  318MOL0     H41920   9.553   6.518  -0.489 -1.6691 -1.2556 -0.2950
  318MOL0     H41921   9.535   6.731  -0.619 -1.1055 -0.8022 -0.5017
  318MOL0     H41922   9.428   6.792  -0.500  1.6108  0.6082 -1.7292
  318MOL0     H41923   9.261   6.639  -0.594 -1.7821  1.9650 -2.3958
  318MOL0     H41924   9.387   6.548  -0.680  1.3548 -0.5443  1.2550
  318MOL0     H41925   9.365   6.845  -0.740 -0.5016 -1.4045  2.4670
  318MOL0     H41926   9.431   6.720  -0.840  1.4698 -1.0596  0.5433
  318MOL0     H41927   9.214   6.774  -0.937  2.1569  0.1646  0.0830
  318MOL0     H41928   9.137   6.777  -0.775 -0.6580  0.5331 -0.4296
  318MOL0     H41929   9.355   6.517  -0.969 -0.0626  0.3036 -0.5140
  318MOL0     H41930   9.199   6.153  -0.888  1.9770 -0.6295  2.0054
  318MOL0     H41931   9.360   6.225  -0.930  0.3344  1.4342  0.2697
  318MOL0     H41932   9.292   6.319  -1.128  2.4527 -1.3639 -1.3188
  318MOL0     H41933   9.127   6.251  -1.128  1.1426  1.5005 -2.0079
  318MOL0     H41934   9.405   6.119  -1.135  0.3537 -2.0800 -0.5975
  318MOL0     H41935   9.251   6.018  -1.120 -0.3293  1.0302  3.2439
  318MOL0     H41936   9.313   6.226  -1.341  0.7428 -1.8296 -1.1601
  318MOL0     H41937   9.176   6.111  -1.326 -0.7760  1.4387  1.1986
  318MOL0     H41938   9.413   6.148  -1.587  0.3350 -0.2074 -0.6767
  318MOL0     H41939   9.643   6.227  -1.646  0.3011 -0.6148 -0.9928
  318MOL0     H41940   9.934   6.332  -1.854  1.9240  0.5395 -1.9725
  318MOL0     H41941  10.135   6.435  -1.948  0.4359  0.8431  1.5737
  318MOL0     H41942  10.516   6.339  -1.820 -0.7929 -0.0162 -1.9191
  318MOL0     H41943  10.503   6.478  -1.696  2.2653  3.6249 -0.6424
  318MOL0     H41944  10.560   6.506  -1.996 -2.2653  0.6943  0.0802
  318MOL0     H41945  10.692   6.480  -1.895 -0.5368  0.5165 -1.5349
  318MOL0     H41946  10.597   6.671  -1.740 -0.9432 -4.5273  0.4898
  318MOL0     H41947  10.504   6.726  -1.864  0.9189  2.1468  3.4991
  318MOL0     H41948  10.707   6.722  -2.027  0.7891  3.1778 -0.8224
  318MOL0     H41949  10.706   6.856  -1.924 -3.3564 -0.5719 -2.4007
  318MOL0     H41950  10.858   6.601  -1.828 -2.1503  0.3549  1.3433
  318MOL0     H41951  10.857   6.759  -1.752  3.3060  0.7320  0.0178
  318MOL0     H41952  10.963   6.849  -1.973  2.4937 -0.2187 -1.0342
  318MOL0     H41953  10.961   6.686  -2.038  2.7853 -0.4902  0.0189
  318MOL0     H41954  11.097   6.739  -1.778 -1.6456 -0.5054  0.1256
  318MOL0     H41955  11.111   6.602  -1.895 -1.1376 -0.0977  0.6163
  318MOL0     H41956  11.196   6.910  -1.937  2.0735  0.1129 -1.8527
  318MOL0     H41957  11.218   6.774  -2.046 -0.5938  0.1819 -0.8948
  318MOL0     H41958  10.359   6.335  -1.611 -0.8906 -0.6454  0.9847
  318MOL0     H41959  10.160   6.240  -1.500  1.7531  1.2213  0.3621
  318MOL0     H41960   9.788   6.036  -1.279 -1.2099 -1.2533  1.0926
  318MOL0     H41961   9.571   5.984  -1.231  0.2693  1.2687  0.9234
  318MOL0     H41962   9.544   6.496   0.023  2.1011 -0.3784 -0.4311
  318MOL0     H41963   9.630   6.504   0.256  0.7217 -2.0595  0.6887
  318MOL0     H41964   9.514   6.288   0.820 -0.5815  1.2583 -0.6111
  318MOL0     H41965   9.668   6.255   0.999  0.3856 -1.1653  0.5285
  318MOL0     H41966   9.872   6.086   1.075 -1.2698  0.6286  0.8229
  318MOL0     H41967   9.816   6.223   1.169  0.5546 -0.1031  1.1704
  318MOL0     H41968   9.959   6.096   1.303 -0.7145  3.8721  1.7923
  318MOL0     H41969  10.080   6.072   1.183  0.5845 -0.5963  2.7528
  318MOL0     H41970  10.023   6.350   1.309  2.0130 -0.3726  3.6546
  318MOL0     H41971  10.134   6.308   1.184 -0.6844 -0.0817 -0.9138
  318MOL0     H41972  10.133   6.218   1.481  1.3568  1.2717  1.7673
  318MOL0     H41973  10.223   6.129   1.357  0.0019 -0.1081 -0.1458
  318MOL0     H41974  10.427   6.503   1.422  1.1212 -1.8718  2.6509
  318MOL0     H41975  10.014   6.267   0.753 -0.5746  1.1485 -0.2756
  318MOL0     H41976   9.867   6.316   0.561 -0.4015 -1.0187  0.4931
  319MOL0     O41977   7.045   9.430   7.441  0.0324  0.6889 -0.0941
  319MOL0     C41978   7.100   9.539   7.476  0.1250  0.9997  0.5754
  319MOL0     O41979   7.046   9.664   7.456 -0.0241 -0.1208 -0.0712
  319MOL0     C41980   6.920   9.695   7.396 -0.1573  0.0116 -1.4816
  319MOL0     C41981   6.902   9.808   7.323 -0.3156 -0.6825 -0.3117
  319MOL0     C41982   6.773   9.846   7.275  0.0054  0.1702  0.2590
  319MOL0     C41983   6.667   9.757   7.304 -0.7503  0.2340  0.2539
  319MOL0     O41984   6.533   9.760   7.263 -0.1481 -0.7388  1.0087
  319MOL0     C41985   6.495   9.871   7.172 -0.9248  0.3827  0.2037
  319MOL0     C41986   6.344   9.866   7.149 -0.0624  0.3441  0.1909
  319MOL0     C41987   6.314   9.966   7.040  0.0223 -0.1918  1.0248
  319MOL0     C41988   6.163   9.988   7.008 -0.4738  0.7882 -0.0648
  319MOL0     C41989   6.082   9.874   6.956 -0.6343  0.0598  0.1255
  319MOL0     C41990   5.935   9.918   6.938 -0.3063 -0.2122  0.9519
  319MOL0     C41991   5.861   9.780   6.914 -0.5124  0.5786  0.4466
  319MOL0     C41992   5.717   9.810   6.875 -0.0841  0.7757  0.0896
  319MOL0     N41993   5.627   9.704   6.907 -0.5805 -0.1631  0.2852
  319MOL0     C41994   5.586   9.671   7.032  0.8866 -0.1864 -0.9886
  319MOL0     C41995   5.501   9.564   7.008 -0.7161 -0.6730 -0.0736
  319MOL0     C41996   5.442   9.479   7.104 -0.0922 -0.3825  0.0388
  319MOL0     C41997   5.306   9.528   7.159 -0.2459 -0.1231 -0.0336
  319MOL0     C41998   5.242   9.417   7.238 -0.4379 -0.3878  0.6568
  319MOL0     C41999   5.089   9.436   7.278 -0.1600 -0.4102 -0.4206
  319MOL0     O42000   5.062   9.559   7.355  1.0694 -0.2836  0.0109
  319MOL0     C42001   4.929   9.578   7.372  0.4454  0.4933  0.0740
  319MOL0     C42002   4.906   9.698   7.432  0.2138  0.8895 -0.1898
  319MOL0     C42003   4.769   9.735   7.472  0.1411 -0.3453  0.2973
  319MOL0     C42004   4.658   9.649   7.444 -0.5286  0.3733  0.3878
  319MOL0     C42005   4.514   9.681   7.463 -0.0771 -0.1330  0.4645
  319MOL0     O42006   4.422   9.591   7.405 -1.1725  0.2387 -0.0750
  319MOL0     C42007   4.290   9.596   7.432  0.8980 -0.0855  0.6607
  319MOL0     C42008   4.209   9.523   7.344 -0.5673 -0.3405  0.3278
  319MOL0     C42009   4.074   9.505   7.363  0.0756 -0.2724  0.2180
  319MOL0     C42010   4.007   9.585   7.460 -0.3342 -0.6008  0.2610
  319MOL0     O42011   3.872   9.562   7.471  0.0066 -0.3388 -0.8225
  319MOL0     C42012   3.810   9.565   7.595  0.3367  0.1539 -0.8468
  319MOL0     C42013   3.659   9.535   7.590 -0.3732 -0.1405  0.2508
  319MOL0     C42014   3.580   9.603   7.709 -0.3537  0.1748  0.5067
  319MOL0     C42015   3.430   9.556   7.704 -0.2715 -0.1251 -0.1393
  319MOL0     C42016   3.349   9.614   7.823 -0.1211  0.1487  0.1917
  319MOL0     C42017   3.198   9.568   7.816 -0.1483 -0.2397  0.0440
  319MOL0     C42018   3.108   9.640   7.907  0.2908  0.0485 -0.7410
  319MOL0     C42019   2.967   9.596   7.881 -1.0739 -0.4916 -0.7609
  319MOL0    Cl42020   2.856   9.687   7.979  0.0189  0.2145 -0.7119
  319MOL0     C42021   4.081   9.677   7.540  0.2672  0.7387  0.6556
  319MOL0     C42022   4.223   9.672   7.530  0.5488 -0.5629  0.0163
  319MOL0     O42023   4.489   9.780   7.527 -0.1389 -0.4976  0.0726
  319MOL0     C42024   4.690   9.526   7.382  0.1839  0.0673 -0.4488
  319MOL0     C42025   4.822   9.490   7.348 -0.5078 -0.3536  0.0216
  319MOL0     N42026   5.489   9.546   6.871 -0.2743 -0.6720  0.1514
  319MOL0     N42027   5.569   9.629   6.812 -0.0706 -0.5458 -0.2397
  319MOL0     C42028   6.682   9.641   7.370  0.4790  0.1146  0.5580
  319MOL0     C42029   6.809   9.611   7.425  0.0687  0.4783 -0.1114
  319MOL0     C42030   7.219   9.522   7.560  1.3509  0.6265 -0.1044
  319MOL0     C42031   7.280   9.625   7.631 -0.9172 -0.9839 -0.6028
  319MOL0     C42032   7.406   9.609   7.700 -0.0353 -0.3231  0.2504
  319MOL0     C42033   7.467   9.487   7.696  0.1149 -0.0538 -1.1175
  319MOL0     O42034   7.590   9.476   7.749 -0.5083  0.9329  0.1514
  319MOL0     C42035   7.591   9.493   7.886 -0.8945 -0.1243 -0.0048
  319MOL0     C42036   7.704   9.408   7.947  0.1576  0.1942  0.8792
  319MOL0     C42037   7.847   9.463   7.900  0.3761  0.4167  0.4909
  319MOL0     C42038   7.954   9.389   7.977  0.0659 -0.7291 -1.0233
  319MOL0     C42039   8.089   9.399   7.913  0.1747  0.0258 -0.2515
  319MOL0     C42040   8.199   9.395   7.846 -0.4439 -1.4622 -0.6366
  319MOL0     C42041   7.409   9.383   7.622 -0.7358 -0.5372  0.3963
  319MOL0     C42042   7.285   9.402   7.548 -0.5294 -0.3363  0.3031
  319MOL0     H42043   6.993   9.866   7.308 -0.5857 -0.0630  0.3759
  319MOL0     H42044   6.774   9.930   7.206  2.4969 -1.2636 -1.6434
  319MOL0     H42045   6.550   9.846   7.080 -0.0760  1.7827  0.3105
  319MOL0     H42046   6.522   9.971   7.205  0.0788  0.0655  0.3790
  319MOL0     H42047   6.292   9.896   7.240 -2.7440 -0.7780 -0.8599
  319MOL0     H42048   6.314   9.766   7.116 -0.1859 -1.7399  5.7006
  319MOL0     H42049   6.359   9.947   6.943  1.1328  0.3524  1.4123
  319MOL0     H42050   6.345  10.069   7.063 -1.1559  0.4522 -0.1338
  319MOL0     H42051   6.111  10.005   7.103 -0.2545  1.0156  0.0162
  319MOL0     H42052   6.157  10.068   6.935  0.3295  0.2875 -0.6841
  319MOL0     H42053   6.093   9.801   7.037  0.1079  3.2047  3.0832
  319MOL0     H42054   6.122   9.827   6.866 -0.0152 -1.3564  1.0897
  319MOL0     H42055   5.920   9.989   6.856 -0.3741 -0.4122  0.7903
  319MOL0     H42056   5.889   9.955   7.031 -2.6699  1.3820 -0.7266
  319MOL0     H42057   5.908   9.721   6.835  0.6996 -0.6317  2.0168
  319MOL0     H42058   5.860   9.725   7.008 -0.9651 -0.9313 -0.4124
  319MOL0     H42059   5.723   9.818   6.766 -0.0569  0.1827  0.0455
  319MOL0     H42060   5.681   9.910   6.902  0.7027  1.7852 -2.2977
  319MOL0     H42061   5.610   9.718   7.127 -2.9241 -0.9464  0.5367
  319MOL0     H42062   5.520   9.470   7.180  0.8761  2.0416 -0.5599
  319MOL0     H42063   5.431   9.384   7.052  1.3699 -0.4607 -0.1568
  319MOL0     H42064   5.239   9.546   7.074  1.2724  0.5828 -1.1024
  319MOL0     H42065   5.323   9.623   7.210  1.8902  1.0695 -2.7446
  319MOL0     H42066   5.246   9.325   7.180  0.8174 -1.5768  2.5289
  319MOL0     H42067   5.306   9.403   7.325  1.8093  2.4761 -0.3717
  319MOL0     H42068   5.069   9.349   7.341  1.7947 -2.7545 -2.7802
  319MOL0     H42069   5.020   9.435   7.193 -0.6282 -2.3718 -0.0725
  319MOL0     H42070   4.989   9.768   7.442  1.2163 -0.3638  0.5031
  319MOL0     H42071   4.738   9.821   7.530  1.5364  0.9788 -0.8403
  319MOL0     H42072   4.265   9.466   7.271  0.7096  1.1884  0.0688
  319MOL0     H42073   4.028   9.431   7.298 -0.3516  0.7855 -0.7069
  319MOL0     H42074   3.818   9.668   7.632 -2.9653  0.2375 -0.0975
  319MOL0     H42075   3.853   9.489   7.660 -1.8303 -2.8099 -2.6449
  319MOL0     H42076   3.647   9.427   7.590  0.2806 -0.2721 -2.1616
  319MOL0     H42077   3.608   9.578   7.504 -0.6063 -2.8921 -1.0873
  319MOL0     H42078   3.587   9.712   7.696  1.2870  0.2259  1.5066
  319MOL0     H42079   3.627   9.572   7.803  2.8843  2.2445 -0.2421
  319MOL0     H42080   3.392   9.596   7.610  0.4022  1.4456  0.2305
  319MOL0     H42081   3.424   9.447   7.694  0.9745 -0.3835  1.4299
  319MOL0     H42082   3.369   9.722   7.822  0.8687 -0.0319 -1.0940
  319MOL0     H42083   3.388   9.582   7.921 -0.2066  1.9855  0.8716
  319MOL0     H42084   3.190   9.460   7.831 -1.2484 -0.3468 -1.1369
  319MOL0     H42085   3.170   9.585   7.712 -1.5495 -0.6890  0.3258
  319MOL0     H42086   3.136   9.628   8.013  1.4781 -2.3324 -1.2633
  319MOL0     H42087   3.113   9.747   7.886  1.2715  0.0119 -0.7138
  319MOL0     H42088   2.977   9.495   7.920  4.2872  0.4746  1.3558
  319MOL0     H42089   2.939   9.586   7.776  2.4886 -1.2085 -1.8030
  319MOL0     H42090   4.031   9.747   7.607 -0.2748  0.2277  0.7997
  319MOL0     H42091   4.263   9.740   7.604  1.8994 -0.1102 -1.0865
  319MOL0     H42092   4.614   9.454   7.353 -1.2153  1.7208 -1.0675
  319MOL0     H42093   4.829   9.394   7.299  0.3545 -1.3286  1.9276
  319MOL0     H42094   6.590   9.586   7.385  0.0137  0.7857  0.2430
  319MOL0     H42095   6.822   9.513   7.469 -0.0989  0.9847  1.0972
  319MOL0     H42096   7.243   9.727   7.625 -0.7843 -0.9459 -0.7952
  319MOL0     H42097   7.446   9.688   7.763  0.7531 -2.9895  3.3636
  319MOL0     H42098   7.490   9.473   7.923 -0.1244 -3.1086  0.7658
  319MOL0     H42099   7.624   9.591   7.919 -5.1972  0.3544  3.7926
  319MOL0     H42100   7.687   9.396   8.055 -0.4110  0.7852  0.8619
  319MOL0     H42101   7.712   9.304   7.916 -0.3227 -0.0408  1.5332
  319MOL0     H42102   7.844   9.571   7.886 -2.9459  0.3790  0.2190
  319MOL0     H42103   7.858   9.419   7.801  0.7399 -0.6159  0.9740
  319MOL0     H42104   7.970   9.436   8.075 -0.0834 -0.3980 -1.1582
  319MOL0     H42105   7.929   9.283   7.985 -1.3349 -0.3389  0.1612
  319MOL0     H42106   8.295   9.390   7.800 -1.2978  0.0502 -2.7600
  319MOL0     H42107   7.466   9.291   7.620  0.5340  0.1465  2.5970
  319MOL0     H42108   7.244   9.320   7.490 -1.8942  0.4280  0.1652
  320MOL0     O42109   5.776   1.602   4.770 -0.5591 -0.3769  0.1637
  320MOL0     C42110   5.811   1.720   4.752 -0.1711  0.5139 -0.0375
  320MOL0     O42111   5.741   1.825   4.787  0.0406 -1.1052  0.4422
  320MOL0     C42112   5.614   1.809   4.824  0.8041 -1.0035 -1.1197
  320MOL0     C42113   5.504   1.838   4.739 -0.1321 -0.3738  0.3143
  320MOL0     C42114   5.368   1.821   4.781  0.2395 -0.5775  0.8316
  320MOL0     C42115   5.339   1.777   4.906 -0.3564 -0.0391 -0.4791
  320MOL0     O42116   5.208   1.744   4.935 -0.1480  0.4476 -0.4189
  320MOL0     C42117   5.157   1.708   5.064 -0.3731  1.0109  0.1474
  320MOL0     C42118   5.010   1.731   5.086 -0.4147  0.8745 -0.7027
  320MOL0     C42119   4.969   1.770   5.231 -0.3117  0.7669  0.4704
  320MOL0     C42120   4.820   1.818   5.239  0.2106 -0.3236 -0.2877
  320MOL0     C42121   4.712   1.716   5.222 -0.3863 -0.2878 -0.4927
  320MOL0     C42122   4.587   1.767   5.281  1.1871  0.2856  0.0074
  320MOL0     C42123   4.467   1.675   5.270  0.1668  0.6255 -0.1915
  320MOL0     C42124   4.407   1.674   5.136  0.4145 -0.5985 -0.1996
  320MOL0     N42125   4.289   1.596   5.133  0.2180 -0.1534 -0.4985
  320MOL0     C42126   4.281   1.464   5.105 -0.4206  0.7813  0.2172
  320MOL0     C42127   4.150   1.435   5.114 -0.3548  0.0214 -0.0666
  320MOL0     C42128   4.065   1.313   5.087 -0.0869 -1.0268 -0.1559
  320MOL0     C42129   3.955   1.332   4.975 -0.3212 -0.0965  0.0927
  320MOL0     C42130   3.873   1.206   4.937  0.0005 -0.4320  0.3656
  320MOL0     C42131   3.805   1.219   4.802  0.4216 -0.9818  0.4565
  320MOL0     O42132   3.703   1.321   4.810 -0.4759 -0.4552  0.1181
  320MOL0     C42133   3.572   1.279   4.798 -0.1386  0.2357 -0.1907
  320MOL0     C42134   3.488   1.313   4.688 -0.2108  0.2537  0.0101
  320MOL0     C42135   3.354   1.276   4.680  1.6843  1.3822  0.0977
  320MOL0     C42136   3.302   1.202   4.791 -0.0829  0.7917  0.1573
  320MOL0     C42137   3.164   1.160   4.785 -0.3934 -0.5846 -0.4541
  320MOL0     O42138   3.111   1.129   4.912  0.2404 -0.2679  0.8123
  320MOL0     C42139   2.990   1.074   4.912 -0.2901 -0.2066  0.7277
  320MOL0     C42140   2.872   1.116   4.843 -0.1114  0.5572  0.0285
  320MOL0     C42141   2.752   1.030   4.846  0.7050  0.4439 -1.0847
  320MOL0     C42142   2.753   0.909   4.910  0.0295 -0.7142 -0.0382
  320MOL0     O42143   2.632   0.839   4.933  0.3520  0.1129 -0.3375
  320MOL0     C42144   2.513   0.873   4.865  0.3522  0.2458  0.0352
  320MOL0     C42145   2.398   0.780   4.858  0.1911 -0.5208  0.1992
  320MOL0     C42146   2.266   0.822   4.777  0.0684  0.0534  0.4278
  320MOL0     C42147   2.186   0.939   4.836 -0.5487 -0.0027  0.9310
  320MOL0     C42148   2.107   0.893   4.955  0.2766 -0.1264  0.2316
  320MOL0     C42149   1.992   0.993   4.986 -0.9612  0.3033  0.3323
  320MOL0     C42150   1.890   0.945   5.083  0.5226  1.1950 -0.0281
  320MOL0     C42151   1.757   1.019   5.069 -0.0267 -0.1059  0.5233
  320MOL0    Cl42152   1.784   1.194   5.095  0.0340  0.3073  0.1793
  320MOL0     C42153   2.871   0.866   4.972 -0.1765  0.0360  0.3474
  320MOL0     C42154   2.987   0.950   4.968 -0.3513 -0.2005 -0.0627
  320MOL0     O42155   3.110   1.136   4.676 -0.3110 -0.0867  0.6598
  320MOL0     C42156   3.383   1.170   4.898  0.3968  0.5920 -0.0349
  320MOL0     C42157   3.518   1.206   4.903 -1.1236 -0.2772 -0.9163
  320MOL0     N42158   4.084   1.551   5.145  0.7884 -0.5086 -0.2498
  320MOL0     N42159   4.169   1.654   5.155 -0.0878  0.1330  0.2435
  320MOL0     C42160   5.444   1.747   4.992 -0.4334 -0.0508 -0.1318
  320MOL0     C42161   5.578   1.773   4.953 -1.0464  0.0625 -0.1409
  320MOL0     C42162   5.953   1.752   4.720  0.0671  1.0280  0.5290
  320MOL0     C42163   6.047   1.652   4.692  0.3818  0.1447  0.4631
  320MOL0     C42164   6.185   1.670   4.666  0.2372 -0.0856  0.1402
  320MOL0     C42165   6.237   1.795   4.665 -0.0553 -0.7500  0.6404
  320MOL0     O42166   6.362   1.828   4.629 -0.4402 -0.0903  0.3750
  320MOL0     C42167   6.455   1.732   4.573  0.2696 -0.3450 -0.6104
  320MOL0     C42168   6.580   1.817   4.561 -0.0117 -0.3417 -0.0834
  320MOL0     C42169   6.558   1.934   4.467  0.0503 -0.4857  0.7905
  320MOL0     C42170   6.634   2.056   4.509  0.2431 -0.1924 -0.3981
  320MOL0     C42171   6.773   2.023   4.474  0.0674  0.2551  0.0800
  320MOL0     C42172   6.890   1.991   4.440  0.2645 -0.1167 -0.9311
  320MOL0     C42173   6.152   1.897   4.703 -0.2512  0.1847  0.1565
  320MOL0     C42174   6.015   1.875   4.724 -0.3720  0.2518  1.0915
  320MOL0     H42175   5.524   1.866   4.635 -1.9588  0.2825  0.1008
  320MOL0     H42176   5.285   1.823   4.711  0.4271 -1.8040  0.5626
  320MOL0     H42177   5.213   1.765   5.139  0.0686 -1.5994  1.9526
  320MOL0     H42178   5.172   1.602   5.087 -0.3139  0.8492 -0.6072
  320MOL0     H42179   4.959   1.639   5.056 -1.1017  1.5354 -1.6319
  320MOL0     H42180   4.979   1.814   5.022 -0.7856  0.0249 -1.6509
  320MOL0     H42181   5.030   1.857   5.259  0.8845  1.0532 -2.6372
  320MOL0     H42182   4.983   1.683   5.295 -1.2445 -0.8163 -1.3586
  320MOL0     H42183   4.820   1.861   5.339 -1.7964 -1.3676  0.2214
  320MOL0     H42184   4.803   1.905   5.174 -0.0288  0.6900  1.0981
  320MOL0     H42185   4.741   1.628   5.280 -1.8937  1.0632  2.5479
  320MOL0     H42186   4.707   1.701   5.113 -0.8575 -1.5897 -0.3155
  320MOL0     H42187   4.557   1.850   5.217 -1.8107  0.1670  1.1321
  320MOL0     H42188   4.605   1.787   5.387  1.5210 -3.3547  0.7764
  320MOL0     H42189   4.484   1.576   5.313 -0.9555  1.0851  1.4255
  320MOL0     H42190   4.400   1.719   5.345  0.1605  0.7884 -0.2939
  320MOL0     H42191   4.479   1.623   5.072  0.0180  0.7168 -1.7909
  320MOL0     H42192   4.392   1.777   5.100  2.3208  1.0835  3.3627
  320MOL0     H42193   4.359   1.390   5.087  0.4750  1.3294  1.6157
  320MOL0     H42194   4.013   1.289   5.180  4.1889  0.1065  2.8429
  320MOL0     H42195   4.135   1.231   5.069  0.0785 -0.6503 -1.2814
  320MOL0     H42196   3.996   1.374   4.883  0.1359 -3.5920 -1.4434
  320MOL0     H42197   3.891   1.408   5.023  2.3713  1.1176  2.0198
  320MOL0     H42198   3.945   1.124   4.936 -0.5492 -0.9997  2.4544
  320MOL0     H42199   3.796   1.186   5.013 -0.6881 -0.9435 -0.4468
  320MOL0     H42200   3.769   1.121   4.770  2.1532 -0.7773 -2.3871
  320MOL0     H42201   3.877   1.256   4.729 -0.2467  1.4718  0.9500
  320MOL0     H42202   3.526   1.371   4.605  3.1830 -1.2413  0.3521
  320MOL0     H42203   3.284   1.319   4.610 -0.7004  0.0850  1.5684
  320MOL0     H42204   2.875   1.213   4.795  0.9468  0.9155  0.7666
  320MOL0     H42205   2.656   1.069   4.813 -0.0710  1.3824  1.9473
  320MOL0     H42206   2.535   0.891   4.759  3.6889 -2.2286  0.1654
  320MOL0     H42207   2.475   0.967   4.906 -1.0730 -0.7610  1.1291
  320MOL0     H42208   2.358   0.751   4.956 -2.5117  2.0056 -0.0209
  320MOL0     H42209   2.437   0.688   4.814  1.2324  0.4247 -0.9163
  320MOL0     H42210   2.203   0.736   4.753 -2.6107  1.2528  2.5588
  320MOL0     H42211   2.301   0.865   4.683 -1.7381  1.2142  0.2173
  320MOL0     H42212   2.254   1.022   4.856  2.1888 -2.0812  0.8392
  320MOL0     H42213   2.119   0.970   4.756  0.5676 -2.1477 -0.9403
  320MOL0     H42214   2.165   0.895   5.047 -0.8099 -2.1780  1.0275
  320MOL0     H42215   2.069   0.793   4.932 -2.2179  0.8451 -0.1903
  320MOL0     H42216   1.948   1.012   4.887  2.4907  0.1693 -1.3686
  320MOL0     H42217   2.033   1.088   5.019  0.9044 -1.1777  2.5207
  320MOL0     H42218   1.866   0.839   5.071  0.0040  1.2875  0.1375
  320MOL0     H42219   1.921   0.956   5.188 -0.5927 -2.5824  0.8719
  320MOL0     H42220   1.674   0.992   5.136  0.5699  1.5393  1.9865
  320MOL0     H42221   1.729   0.996   4.966  3.1811 -1.8523 -0.0790
  320MOL0     H42222   2.865   0.774   5.029 -2.6115 -0.1606 -0.1141
  320MOL0     H42223   3.075   0.913   5.019 -0.4982 -1.4149 -0.6536
  320MOL0     H42224   3.344   1.117   4.984 -1.4482  2.5978  0.4552
  320MOL0     H42225   3.580   1.177   4.987 -2.3610 -1.1082 -0.2553
  320MOL0     H42226   5.428   1.695   5.085 -1.6166  0.3462 -0.0944
  320MOL0     H42227   5.659   1.743   5.019 -0.8466 -1.1897 -0.9253
  320MOL0     H42228   6.011   1.549   4.697 -2.5882  1.1208  4.6899
  320MOL0     H42229   6.247   1.584   4.646 -2.3445 -2.4501  1.7118
  320MOL0     H42230   6.419   1.683   4.483  0.8067 -0.8698 -0.5467
  320MOL0     H42231   6.467   1.647   4.641 -0.2623 -0.1532 -0.2679
  320MOL0     H42232   6.598   1.866   4.657 -0.4081 -0.5310  0.0924
  320MOL0     H42233   6.662   1.751   4.533 -1.4241 -2.9787  1.4918
  320MOL0     H42234   6.451   1.957   4.463 -0.0560  0.1356  4.4764
  320MOL0     H42235   6.586   1.917   4.362 -0.4394  1.7364  0.2566
  320MOL0     H42236   6.596   2.140   4.450 -1.8661  0.2052  1.4108
  320MOL0     H42237   6.619   2.076   4.615  0.9165  0.9207 -0.5014
  320MOL0     H42238   6.990   1.956   4.421 -0.4181 -3.2775  0.5899
  320MOL0     H42239   6.197   1.996   4.696 -3.6328  1.9588  1.4442
  320MOL0     H42240   5.962   1.970   4.725  0.4479  0.8691 -2.0308
  321MOL0     O42241   6.223   7.821  10.763  0.4761  0.2220 -0.9433
  321MOL0     C42242   6.142   7.795  10.672 -1.0451  0.2899 -0.0977
  321MOL0     O42243   6.184   7.742  10.552  0.0689 -0.0459  0.1069
  321MOL0     C42244   6.310   7.744  10.515 -0.1755  0.5805 -0.5668
  321MOL0     C42245   6.358   7.632  10.446 -0.0346  0.4603 -0.7786
  321MOL0     C42246   6.492   7.619  10.413 -0.0368 -0.1359 -0.1126
  321MOL0     C42247   6.589   7.724  10.430  0.3306 -0.2018 -0.5309
  321MOL0     O42248   6.716   7.729  10.392 -0.4285 -0.4950 -0.6075
  321MOL0     C42249   6.774   7.610  10.329 -0.5813  0.2227  0.5028
  321MOL0     C42250   6.896   7.654  10.250  0.1680  0.5685  0.3230
  321MOL0     C42251   7.014   7.664  10.351 -0.9425  0.1124  0.2929
  321MOL0     C42252   7.138   7.706  10.275  0.6018  0.1353  0.2522
  321MOL0     C42253   7.276   7.664  10.330  0.0145 -0.0113  1.3564
  321MOL0     C42254   7.307   7.710  10.468 -0.3353 -0.0849 -0.2926
  321MOL0     C42255   7.432   7.643  10.539  0.5974 -0.6834 -0.6724
  321MOL0     C42256   7.366   7.588  10.670 -0.3206  0.7747  0.7459
  321MOL0     N42257   7.484   7.548  10.753  0.1830  0.0065 -0.1578
  321MOL0     C42258   7.540   7.432  10.756  1.1069  0.3258  0.3919
  321MOL0     C42259   7.645   7.438  10.843  0.6708  0.5966  0.6892
  321MOL0     C42260   7.747   7.341  10.889 -0.5767 -0.3360  0.2533
  321MOL0     C42261   7.674   7.220  10.946  0.4510  0.4473 -0.4159
  321MOL0     C42262   7.581   7.257  11.063  0.0968 -0.9860 -0.1209
  321MOL0     C42263   7.434   7.292  11.034  0.3278 -0.6241  0.1296
  321MOL0     O42264   7.362   7.204  10.941  0.3374  0.4580 -0.8184
  321MOL0     C42265   7.225   7.217  10.944  0.4491 -0.9636  0.5755
  321MOL0     C42266   7.153   7.335  10.964 -0.6582  0.6936 -0.6837
  321MOL0     C42267   7.015   7.340  10.957 -0.2303 -0.6767  0.2734
  321MOL0     C42268   6.935   7.225  10.941 -0.5322 -0.2402  0.3699
  321MOL0     C42269   6.787   7.225  10.955  0.0308  1.4854 -0.4435
  321MOL0     O42270   6.733   7.107  10.912 -0.2184 -0.2097  0.3179
  321MOL0     C42271   6.611   7.086  10.958  0.3152  0.3501  0.2501
  321MOL0     C42272   6.587   7.012  11.070 -0.0525  0.2929  0.4831
  321MOL0     C42273   6.456   7.001  11.118  0.8162  0.3763  0.5590
  321MOL0     C42274   6.346   7.074  11.056  0.0294  0.2177 -0.1268
  321MOL0     O42275   6.215   7.073  11.094 -0.2757  0.7953 -0.2699
  321MOL0     C42276   6.181   6.991  11.214 -0.7394 -0.4317 -0.2663
  321MOL0     C42277   6.028   7.013  11.244 -0.1528 -0.0348 -0.5160
  321MOL0     C42278   5.935   6.924  11.157  0.1773  0.1147  0.6908
  321MOL0     C42279   5.789   6.971  11.177 -0.1445  0.0142 -0.3320
  321MOL0     C42280   5.698   6.872  11.090  0.0066 -0.2430 -0.1845
  321MOL0     C42281   5.714   6.898  10.936 -0.3474 -0.8188  0.0299
  321MOL0     C42282   5.606   6.829  10.857  0.0616  0.2117  0.0138
  321MOL0     C42283   5.605   6.872  10.713  0.2398  0.6450  0.5696
  321MOL0    Cl42284   5.454   6.838  10.632  0.1130  0.6634  0.3183
  321MOL0     C42285   6.370   7.139  10.935 -0.0516  0.4616 -0.3520
  321MOL0     C42286   6.503   7.146  10.888 -0.7047 -0.4190 -0.7283
  321MOL0     O42287   6.723   7.311  11.002 -0.1996 -0.3120 -0.0205
  321MOL0     C42288   7.008   7.110  10.905  0.9259  0.2492 -0.2100
  321MOL0     C42289   7.148   7.105  10.900 -0.2701 -0.3506  0.3401
  321MOL0     N42290   7.628   7.567  10.905  0.1701  0.1948  0.2252
  321MOL0     N42291   7.526   7.627  10.851 -0.7831 -0.1371 -0.6564
  321MOL0     C42292   6.531   7.841  10.480 -0.5326  0.2909  0.1688
  321MOL0     C42293   6.401   7.855  10.526 -0.3627 -0.2239 -0.9146
  321MOL0     C42294   6.004   7.840  10.694 -0.1882 -0.4465  0.5716
  321MOL0     C42295   5.912   7.811  10.582 -0.2440 -0.5173 -0.8540
  321MOL0     C42296   5.779   7.853  10.597  0.6928  0.5424 -0.4558
  321MOL0     C42297   5.724   7.928  10.700  0.0687  0.2003 -0.2630
  321MOL0     O42298   5.591   7.961  10.694 -0.7574 -0.1721 -0.0795
  321MOL0     C42299   5.553   8.081  10.764 -0.0798 -0.3498 -0.5932
  321MOL0     C42300   5.416   8.141  10.706 -0.0900  0.6899 -0.5844
  321MOL0     C42301   5.299   8.036  10.710 -0.3123 -0.8303  0.2894
  321MOL0     C42302   5.164   8.099  10.728 -0.2932 -0.2581  0.2888
  321MOL0     C42303   5.062   8.004  10.769 -0.0014 -0.1462  0.4643
  321MOL0     C42304   4.983   7.937  10.839  0.7416  0.2107 -0.6319
  321MOL0     C42305   5.815   7.970  10.802 -0.0829 -0.4968 -0.2745
  321MOL0     C42306   5.948   7.914  10.803  0.0586 -0.1565 -0.0351
  321MOL0     H42307   6.289   7.555  10.415  1.4262 -0.9541 -0.6498
  321MOL0     H42308   6.516   7.525  10.365 -0.2963 -0.7634  0.9546
  321MOL0     H42309   6.702   7.569  10.257  0.1316  0.1019 -0.1544
  321MOL0     H42310   6.804   7.530  10.397 -2.4752 -0.4667  0.6076
  321MOL0     H42311   6.861   7.741  10.195  1.0526  0.5055 -0.3686
  321MOL0     H42312   6.917   7.575  10.177 -2.6118 -0.5829  0.6459
  321MOL0     H42313   7.039   7.566  10.392 -0.7206  0.2096  0.3904
  321MOL0     H42314   6.998   7.733  10.434 -0.6133  1.0395 -0.3926
  321MOL0     H42315   7.122   7.679  10.170  0.1422  1.7096 -0.1164
  321MOL0     H42316   7.135   7.816  10.278 -0.4387  0.1447 -0.5078
  321MOL0     H42317   7.351   7.709  10.265  1.6915 -1.2743  2.3272
  321MOL0     H42318   7.289   7.555  10.324  3.9899  0.4192 -1.4085
  321MOL0     H42319   7.216   7.705  10.529  0.5003 -1.1959  0.9058
  321MOL0     H42320   7.342   7.813  10.467 -3.1137  0.9704  0.7597
  321MOL0     H42321   7.488   7.571  10.478 -1.5854 -1.1874 -2.1996
  321MOL0     H42322   7.506   7.722  10.558  1.9512 -0.4853 -5.3986
  321MOL0     H42323   7.294   7.508  10.650 -0.3308  0.8262  0.5779
  321MOL0     H42324   7.319   7.674  10.720  1.4785  0.0132  4.0583
  321MOL0     H42325   7.528   7.348  10.688  1.1174  1.8380 -1.5425
  321MOL0     H42326   7.815   7.388  10.961  1.5212  0.1382 -1.9109
  321MOL0     H42327   7.802   7.307  10.801  0.0761  0.0297  0.5094
  321MOL0     H42328   7.748   7.145  10.976 -2.0387 -2.0184 -0.0093
  321MOL0     H42329   7.610   7.163  10.877 -1.3238  0.2307  1.2986
  321MOL0     H42330   7.577   7.175  11.136 -3.1845 -0.2475  0.6547
  321MOL0     H42331   7.627   7.336  11.123  3.2570 -3.7875  1.5148
  321MOL0     H42332   7.413   7.397  11.013 -0.6867 -0.5396  1.4136
  321MOL0     H42333   7.376   7.302  11.127 -1.0978  0.6299 -0.8437
  321MOL0     H42334   7.200   7.431  10.982  1.5211 -0.6501  1.4275
  321MOL0     H42335   6.957   7.430  10.977  0.2518 -0.1159 -0.7729
  321MOL0     H42336   6.669   6.962  11.121  1.0133  2.7008  1.3055
  321MOL0     H42337   6.446   6.945  11.211  1.3696  2.1558  1.7544
  321MOL0     H42338   6.249   7.017  11.296 -1.1861  0.8602 -0.2814
  321MOL0     H42339   6.200   6.884  11.200 -0.8788 -0.5111  0.1170
  321MOL0     H42340   6.006   7.119  11.229 -1.1395 -0.0679  0.5508
  321MOL0     H42341   6.010   6.985  11.349 -3.1277  1.4581 -0.5315
  321MOL0     H42342   5.957   6.821  11.185  1.3267 -0.1192 -0.9130
  321MOL0     H42343   5.957   6.931  11.050 -1.3016 -2.7073  0.1057
  321MOL0     H42344   5.767   6.964  11.284  0.9998  1.5031  0.0324
  321MOL0     H42345   5.773   7.072  11.138 -1.9999 -0.2773 -0.3751
  321MOL0     H42346   5.594   6.894  11.118  0.0949  0.2381 -0.2335
  321MOL0     H42347   5.722   6.769  11.117 -2.7911 -1.2881 -1.2386
  321MOL0     H42348   5.805   6.845  10.903 -0.0274 -0.5890  0.5363
  321MOL0     H42349   5.720   7.005  10.916 -0.6097 -0.4947  1.5854
  321MOL0     H42350   5.629   6.723  10.870 -0.7883 -0.4441 -2.8932
  321MOL0     H42351   5.511   6.852  10.907  1.6558  0.9352  2.8831
  321MOL0     H42352   5.690   6.820  10.669  1.0047  1.9819  0.4063
  321MOL0     H42353   5.620   6.981  10.712 -1.8771  0.9847  1.1927
  321MOL0     H42354   6.291   7.191  10.881  0.6099  0.3190 -1.4826
  321MOL0     H42355   6.542   7.214  10.813  0.5418 -0.6599 -0.3194
  321MOL0     H42356   6.953   7.018  10.888  1.6100  0.0286 -1.3730
  321MOL0     H42357   7.200   7.011  10.886 -0.0589 -0.7902  3.4552
  321MOL0     H42358   6.597   7.925  10.496 -3.7000  2.7471  1.4125
  321MOL0     H42359   6.385   7.947  10.581  1.7713 -1.3679  1.8776
  321MOL0     H42360   5.949   7.748  10.501 -0.2751  0.6317 -1.7919
  321MOL0     H42361   5.708   7.811  10.526  1.2742 -0.8388 -0.2447
  321MOL0     H42362   5.632   8.157  10.766 -1.4790  1.1640  0.1113
  321MOL0     H42363   5.539   8.058  10.870 -2.9616  2.6670 -0.1416
  321MOL0     H42364   5.387   8.228  10.766 -1.0952 -0.1170  0.1356
  321MOL0     H42365   5.432   8.173  10.603 -0.7507  0.2857 -0.8162
  321MOL0     H42366   5.314   7.978  10.802  2.6098  2.9008  2.4717
  321MOL0     H42367   5.297   7.973  10.621  1.0330 -2.0318  1.0456
  321MOL0     H42368   5.166   8.176  10.805  0.4747  1.2826 -1.2189
  321MOL0     H42369   5.139   8.149  10.634  0.1390  2.4051  1.5100
  321MOL0     H42370   4.900   7.887  10.885 -0.7996  2.2766 -1.0208
  321MOL0     H42371   5.781   8.038  10.879  0.4641  1.5297 -1.7547
  321MOL0     H42372   6.005   7.944  10.891 -0.2674  0.8589 -0.1574
  322MOL0     O42373   1.238   3.593   4.922  0.0841 -0.3405 -0.2621
  322MOL0     C42374   1.302   3.620   4.819  0.7152 -0.1550  0.4214
  322MOL0     O42375   1.258   3.602   4.688  0.0052 -0.3877  0.1229
  322MOL0     C42376   1.136   3.547   4.669  0.7591 -0.2957 -0.1794
  322MOL0     C42377   1.128   3.432   4.590 -0.1275 -0.0467 -0.3957
  322MOL0     C42378   1.009   3.390   4.528  0.8448  0.0180  0.5892
  322MOL0     C42379   0.893   3.465   4.546  0.0709 -0.6052  0.1984
  322MOL0     O42380   0.771   3.438   4.485 -0.3031  0.3395 -0.1144
  322MOL0     C42381   0.785   3.434   4.347 -0.2133 -0.0086 -0.1126
  322MOL0     C42382   0.648   3.463   4.273  0.0199 -0.0820 -0.0214
  322MOL0     C42383   0.595   3.609   4.322 -0.0644 -0.1198  0.0971
  322MOL0     C42384   0.499   3.683   4.234 -0.9145  0.6583  0.2127
  322MOL0     C42385   0.530   3.831   4.206  0.1543 -0.5061  0.3991
  322MOL0     C42386   0.437   3.901   4.095 -0.4035 -0.3241  0.1357
  322MOL0     C42387   0.474   4.049   4.085  0.2724 -0.0447  0.4600
  322MOL0     C42388   0.419   4.137   4.193  1.0833  0.0788 -0.3565
  322MOL0     N42389   0.269   4.120   4.203 -0.5683  1.0293 -0.0695
  322MOL0     C42390   0.203   4.095   4.325  0.6164 -0.2406 -0.9580
  322MOL0     C42391   0.071   4.116   4.294  0.7657  1.0833 -0.7659
  322MOL0     C42392  -0.045   4.069   4.377 -0.7092  0.3885 -0.3693
  322MOL0     C42393  -0.183   4.107   4.325 -0.4990  0.9668  0.8857
  322MOL0     C42394  -0.295   4.004   4.352 -0.7559  0.3077 -0.0935
  322MOL0     C42395  -0.305   3.975   4.505  0.6402  0.9126 -0.2303
  322MOL0     O42396  -0.392   3.869   4.534 -0.2042  0.2097  0.0878
  322MOL0     C42397  -0.531   3.887   4.511  0.1815  0.0795  0.1723
  322MOL0     C42398  -0.602   3.998   4.460  0.6859 -0.4273 -0.0336
  322MOL0     C42399  -0.745   4.005   4.451 -0.1866  1.0813  0.4444
  322MOL0     C42400  -0.820   3.890   4.480 -1.0722  0.6295  0.6908
  322MOL0     C42401  -0.964   3.883   4.462 -0.1353 -0.0841  0.2023
  322MOL0     O42402  -1.029   3.763   4.485 -0.0414  0.2072  0.5730
  322MOL0     C42403  -1.163   3.749   4.488  0.3201 -0.6971 -0.1087
  322MOL0     C42404  -1.270   3.849   4.490 -0.1761 -0.2362 -0.0447
  322MOL0     C42405  -1.403   3.807   4.484  0.4598 -0.7071  0.2310
  322MOL0     C42406  -1.431   3.672   4.464  0.0716  0.5588  0.1723
  322MOL0     O42407  -1.550   3.603   4.451 -0.3012  0.7328  0.1282
  322MOL0     C42408  -1.633   3.617   4.563  0.7314  0.8175 -0.0988
  322MOL0     C42409  -1.775   3.611   4.522 -0.7083 -0.6945 -0.4168
  322MOL0     C42410  -1.801   3.714   4.408 -0.4722  0.2779 -0.1326
  322MOL0     C42411  -1.938   3.702   4.335 -1.2193 -0.4328  0.8697
  322MOL0     C42412  -1.954   3.821   4.233  0.0351 -0.1347 -0.7664
  322MOL0     C42413  -1.847   3.822   4.126 -0.5229 -0.0966  0.2219
  322MOL0     C42414  -1.879   3.951   4.043 -0.8088  1.1294 -0.5884
  322MOL0     C42415  -1.990   3.924   3.948  0.8265  0.4535  0.3242
  322MOL0    Cl42416  -1.993   4.038   3.809 -0.2036 -0.2097 -0.5323
  322MOL0     C42417  -1.323   3.572   4.448  0.1230  0.3968 -0.8705
  322MOL0     C42418  -1.191   3.614   4.464  0.2337 -0.6252 -0.1612
  322MOL0     O42419  -1.019   3.992   4.446  0.0235  0.5795 -0.0748
  322MOL0     C42420  -0.750   3.783   4.532 -0.7552 -0.2140  0.7617
  322MOL0     C42421  -0.613   3.784   4.550 -0.3899  0.3805  0.5467
  322MOL0     N42422   0.063   4.173   4.168  0.3975 -0.8495 -0.0041
  322MOL0     N42423   0.181   4.174   4.114  0.5325 -0.1232 -0.1343
  322MOL0     C42424   0.896   3.577   4.624 -0.1301  1.2226  1.0909
  322MOL0     C42425   1.016   3.622   4.684 -0.9772  0.6655  1.1234
  322MOL0     C42426   1.433   3.685   4.838  0.3445 -0.2848  0.1265
  322MOL0     C42427   1.510   3.679   4.963 -0.5986  0.3662  1.3649
  322MOL0     C42428   1.632   3.753   4.959 -0.0662  0.7621  0.0568
  322MOL0     C42429   1.667   3.839   4.852 -0.6903 -1.1429 -0.1015
  322MOL0     O42430   1.787   3.902   4.828 -0.1046 -0.1048 -0.1692
  322MOL0     C42431   1.895   3.884   4.926  0.5700 -0.1030 -0.8248
  322MOL0     C42432   1.880   3.960   5.051  0.2123  0.0613 -0.2653
  322MOL0     C42433   1.937   4.097   5.030  0.5049 -1.2598 -0.0247
  322MOL0     C42434   1.855   4.200   4.956  0.2924 -0.2771 -0.0956
  322MOL0     C42435   1.940   4.321   4.936 -1.0592 -1.3566  0.2471
  322MOL0     C42436   2.004   4.423   4.942  0.2638  0.1405 -0.0926
  322MOL0     C42437   1.577   3.855   4.752 -1.1206 -0.3684  0.5107
  322MOL0     C42438   1.468   3.782   4.735  0.0528  0.3840  0.1120
  322MOL0     H42439   1.226   3.386   4.580 -0.6354 -1.0543 -0.9011
  322MOL0     H42440   1.018   3.293   4.480  1.3475  1.1666 -1.7648
  322MOL0     H42441   0.828   3.341   4.307 -1.0263  0.2624 -1.6729
  322MOL0     H42442   0.849   3.517   4.317  0.1305  0.0511  0.7615
  322MOL0     H42443   0.574   3.385   4.293 -2.1485  1.6436 -0.8020
  322MOL0     H42444   0.652   3.473   4.164 -0.0739 -2.2427 -0.2638
  322MOL0     H42445   0.688   3.665   4.333  1.0917 -2.2664  2.3385
  322MOL0     H42446   0.560   3.595   4.425 -0.6770 -1.2728 -0.2448
  322MOL0     H42447   0.514   3.642   4.134 -1.6210  0.3929  0.2077
  322MOL0     H42448   0.394   3.666   4.262 -0.2155 -2.3895  1.4371
  322MOL0     H42449   0.635   3.840   4.176 -0.3228 -1.1024 -1.6369
  322MOL0     H42450   0.529   3.889   4.298  6.2010 -0.2626  0.7052
  322MOL0     H42451   0.330   3.894   4.117 -1.1592  0.8352 -2.8100
  322MOL0     H42452   0.437   3.855   3.996 -3.0852 -0.0129 -0.0675
  322MOL0     H42453   0.583   4.060   4.088  0.2009  0.7585  0.3842
  322MOL0     H42454   0.417   4.075   3.996 -1.8495  1.3988  2.1211
  322MOL0     H42455   0.428   4.242   4.164  0.2176  0.5958  1.0748
  322MOL0     H42456   0.456   4.127   4.296  0.8913  0.3970 -0.2542
  322MOL0     H42457   0.248   4.043   4.409  1.9633  2.3666  0.0605
  322MOL0     H42458  -0.031   4.125   4.469 -0.0046  1.2718 -1.0041
  322MOL0     H42459  -0.029   3.962   4.396  2.3577  0.8679  0.2862
  322MOL0     H42460  -0.177   4.111   4.216  0.0304 -4.2288  0.4625
  322MOL0     H42461  -0.207   4.203   4.369 -0.1570  0.5122  2.0926
  322MOL0     H42462  -0.389   4.036   4.304 -2.4269 -1.1959  1.9641
  322MOL0     H42463  -0.278   3.909   4.301  1.8028 -0.1536  1.4858
  322MOL0     H42464  -0.342   4.066   4.553  2.8527 -0.4599  4.6846
  322MOL0     H42465  -0.211   3.951   4.555  0.1727 -1.4502 -0.3768
  322MOL0     H42466  -0.552   4.091   4.434  3.6111 -2.4133 -2.0341
  322MOL0     H42467  -0.799   4.087   4.405 -1.0865  0.1321 -0.2697
  322MOL0     H42468  -1.256   3.951   4.522  0.4197 -1.1928  3.1139
  322MOL0     H42469  -1.483   3.877   4.501  0.2771 -1.0849  0.9494
  322MOL0     H42470  -1.618   3.710   4.619  0.3753  0.1945  1.0617
  322MOL0     H42471  -1.606   3.545   4.640  0.6974  2.3652  1.4400
  322MOL0     H42472  -1.843   3.624   4.606  2.8561 -0.1814  2.6340
  322MOL0     H42473  -1.789   3.507   4.491  2.5303 -0.2543 -4.2396
  322MOL0     H42474  -1.729   3.688   4.330  1.1380  2.4560  0.5375
  322MOL0     H42475  -1.790   3.818   4.440 -0.6707  0.2191  0.1288
  322MOL0     H42476  -1.940   3.610   4.277  1.2042  0.5241 -0.8829
  322MOL0     H42477  -2.019   3.710   4.408 -0.0185  1.5884  2.0926
  322MOL0     H42478  -1.956   3.915   4.288 -0.9411 -0.5180 -0.1147
  322MOL0     H42479  -2.052   3.809   4.184 -1.8256 -0.3227  2.7010
  322MOL0     H42480  -1.841   3.732   4.063 -1.0609 -0.2531  0.3881
  322MOL0     H42481  -1.742   3.835   4.157 -0.4522  1.8635 -0.6896
  322MOL0     H42482  -1.895   4.037   4.109 -0.3200 -2.0018  4.0858
  322MOL0     H42483  -1.789   3.956   3.980 -1.4557  2.8081 -1.4385
  322MOL0     H42484  -2.089   3.937   3.994  0.0740 -0.4764 -0.9575
  322MOL0     H42485  -1.984   3.826   3.900 -1.2566 -0.1752  1.2376
  322MOL0     H42486  -1.339   3.465   4.439  0.6432  0.2094  0.3088
  322MOL0     H42487  -1.113   3.538   4.468  2.3487  1.3060 -2.0958
  322MOL0     H42488  -0.793   3.685   4.545 -0.3538 -0.7316 -1.3782
  322MOL0     H42489  -0.573   3.690   4.587  1.5416  0.2810 -1.5447
  322MOL0     H42490   0.802   3.631   4.629 -1.3041 -0.7715  1.6202
  322MOL0     H42491   1.036   3.709   4.746  1.9693  0.5204  0.5402
  322MOL0     H42492   1.491   3.613   5.048 -0.4866  0.9146  1.8178
  322MOL0     H42493   1.707   3.745   5.037  0.7136  0.5620 -0.6939
  322MOL0     H42494   1.991   3.914   4.882  0.4023 -0.7835 -1.6780
  322MOL0     H42495   1.895   3.777   4.947 -3.4299  0.0119  0.6092
  322MOL0     H42496   1.774   3.974   5.076  0.5260  2.2373  0.0488
  322MOL0     H42497   1.929   3.914   5.137 -3.1751  0.2607  1.9413
  322MOL0     H42498   2.037   4.099   4.987  0.9239 -0.2485  0.9432
  322MOL0     H42499   1.944   4.148   5.127  0.5497  0.0532 -0.7014
  322MOL0     H42500   1.817   4.164   4.860 -0.3868 -6.0932  1.9636
  322MOL0     H42501   1.769   4.221   5.020  1.0126  0.2918  0.7204
  322MOL0     H42502   2.066   4.510   4.946  0.7092 -0.0933 -1.3102
  322MOL0     H42503   1.614   3.923   4.677 -0.4090  0.7776  1.8473
  322MOL0     H42504   1.401   3.792   4.651  1.3799  0.9116 -0.9333
  323MOL0     O42505   8.588  10.766   4.575 -0.8987  0.2863 -0.0703
  323MOL0     C42506   8.649  10.689   4.646  0.3867  0.8782 -0.0586
  323MOL0     O42507   8.594  10.620   4.756 -0.1675 -1.0565 -0.3869
  323MOL0     C42508   8.459  10.606   4.775 -0.4571  0.3350 -0.2649
  323MOL0     C42509   8.384  10.677   4.870 -0.8846  0.0383 -0.4076
  323MOL0     C42510   8.251  10.644   4.904  0.6439  0.2140  0.2748
  323MOL0     C42511   8.186  10.547   4.826  1.0880 -0.8281 -0.3444
  323MOL0     O42512   8.055  10.518   4.852  0.6313 -0.6523 -0.0553
  323MOL0     C42513   7.992  10.402   4.807 -0.1310  0.4081 -0.2209
  323MOL0     C42514   7.860  10.387   4.893 -0.8667 -0.7692  0.4705
  323MOL0     C42515   7.791  10.258   4.878 -0.0151 -0.0957 -0.1619
  323MOL0     C42516   7.649  10.277   4.925 -0.4609 -0.1462  0.0785
  323MOL0     C42517   7.575  10.146   4.951 -0.5236 -0.4141 -0.3049
  323MOL0     C42518   7.426  10.169   4.969  0.2094 -0.6887  0.5225
  323MOL0     C42519   7.391  10.263   5.076  0.0034  0.6215 -0.5228
  323MOL0     C42520   7.248  10.300   5.094 -0.1797  0.1789 -0.3823
  323MOL0     N42521   7.220  10.321   5.239 -0.1713  0.0488 -0.1680
  323MOL0     C42522   7.241  10.442   5.317  0.4095 -1.0446  0.7702
  323MOL0     C42523   7.189  10.403   5.435  0.0740  0.4823  0.8775
  323MOL0     C42524   7.202  10.490   5.563 -0.3823 -0.2747 -0.5682
  323MOL0     C42525   7.068  10.567   5.574  0.5057 -0.3855 -0.1137
  323MOL0     C42526   6.947  10.470   5.565 -0.2288 -0.3158 -0.0345
  323MOL0     C42527   6.817  10.523   5.626  0.4227  0.3389 -0.1815
  323MOL0     O42528   6.758  10.620   5.541 -0.9246 -0.1615  0.2400
  323MOL0     C42529   6.624  10.614   5.512  0.1283 -0.1478  0.4352
  323MOL0     C42530   6.585  10.720   5.433  0.1841 -0.4836 -0.1763
  323MOL0     C42531   6.455  10.715   5.373 -0.1708 -0.6872  0.0650
  323MOL0     C42532   6.363  10.616   5.396  0.9321 -0.2323  0.3901
  323MOL0     C42533   6.230  10.603   5.325  0.0203 -0.9902  0.4865
  323MOL0     O42534   6.210  10.690   5.219  0.1933  0.1174  0.5622
  323MOL0     C42535   6.087  10.700   5.164 -0.8653  1.0587  1.1974
  323MOL0     C42536   6.027  10.585   5.120 -0.3102 -0.3557 -0.1121
  323MOL0     C42537   5.889  10.586   5.070 -0.7523  0.8353  0.2684
  323MOL0     C42538   5.825  10.709   5.061 -0.6330  0.3269  0.2836
  323MOL0     O42539   5.693  10.725   5.014  0.0239 -0.4672  0.0797
  323MOL0     C42540   5.601  10.623   5.042 -0.9467 -0.2274 -0.5482
  323MOL0     C42541   5.452  10.664   5.044 -0.1040  0.0476 -0.2891
  323MOL0     C42542   5.344  10.552   5.073 -0.0425 -1.1119 -1.0274
  323MOL0     C42543   5.210  10.623   5.105  0.1018  0.3045  0.2289
  323MOL0     C42544   5.101  10.525   5.054  0.5058  0.1413 -0.1354
  323MOL0     C42545   4.965  10.553   5.129 -0.4611  0.3501  0.3781
  323MOL0     C42546   4.862  10.439   5.081  0.1958  0.1363 -0.8115
  323MOL0     C42547   4.734  10.424   5.176 -0.1983 -0.3994  0.2500
  323MOL0    Cl42548   4.634  10.569   5.153  0.0412 -0.0636 -0.0728
  323MOL0     C42549   5.895  10.820   5.102 -0.0800  0.4483  0.0419
  323MOL0     C42550   6.022  10.821   5.150  0.4934 -0.2389 -0.1123
  323MOL0     O42551   6.147  10.532   5.377  0.2223  0.4160 -0.5383
  323MOL0     C42552   6.401  10.512   5.485 -0.1660 -1.3366  0.0558
  323MOL0     C42553   6.534  10.508   5.538  0.4953 -0.0432  1.1022
  323MOL0     N42554   7.135  10.276   5.431  0.0846  0.4688 -0.1856
  323MOL0     N42555   7.155  10.230   5.312 -0.8012  0.0290 -0.0880
  323MOL0     C42556   8.258  10.479   4.726  0.4519  0.3642  0.4735
  323MOL0     C42557   8.394  10.498   4.712  0.7138  0.2857 -0.4456
  323MOL0     C42558   8.792  10.655   4.603  0.4997 -0.3324 -0.0283
  323MOL0     C42559   8.854  10.714   4.491 -0.3621 -0.0600  0.1244
  323MOL0     C42560   8.988  10.689   4.454 -0.2728  0.0833  0.2074
  323MOL0     C42561   9.066  10.599   4.525  0.4296  0.1617  0.9949
  323MOL0     O42562   9.196  10.579   4.489 -0.6112 -0.0365 -0.7348
  323MOL0     C42563   9.269  10.478   4.551 -0.1970  0.6880 -0.3102
  323MOL0     C42564   9.418  10.501   4.506 -0.6910 -0.7988 -0.4962
  323MOL0     C42565   9.449  10.480   4.360  0.5223  0.4989  0.9018
  323MOL0     C42566   9.470  10.335   4.324  0.5576  0.7797  0.3794
  323MOL0     C42567   9.612  10.309   4.310 -0.2496 -0.3777  0.0116
  323MOL0     C42568   9.732  10.288   4.296 -0.3453  0.4836 -0.1748
  323MOL0     C42569   9.005  10.535   4.634  0.2354  0.6832 -0.4221
  323MOL0     C42570   8.871  10.557   4.663 -0.0122 -0.6236  0.5355
  323MOL0     H42571   8.439  10.747   4.933 -1.1570 -1.7443  1.9810
  323MOL0     H42572   8.184  10.705   4.964  0.5506 -0.9005  1.3451
  323MOL0     H42573   8.054  10.312   4.818  0.7490  0.9842 -0.3311
  323MOL0     H42574   7.962  10.405   4.701 -0.7285 -0.6755 -0.0959
  323MOL0     H42575   7.801  10.471   4.854 -1.4253 -1.4173 -0.0966
  323MOL0     H42576   7.892  10.415   4.994  2.6104  0.1871 -0.7478
  323MOL0     H42577   7.832  10.178   4.939  0.4492 -0.3834 -0.8394
  323MOL0     H42578   7.789  10.226   4.773 -0.2600 -1.3241  0.2090
  323MOL0     H42579   7.661  10.330   5.020  3.1664  0.0243 -0.3340
  323MOL0     H42580   7.589  10.328   4.849  0.2258  2.0935  0.9586
  323MOL0     H42581   7.622  10.103   5.040  1.3934 -3.1382 -2.4463
  323MOL0     H42582   7.596  10.076   4.870  1.0477 -2.1816  1.5313
  323MOL0     H42583   7.379  10.074   4.997 -1.2906  0.1053  0.8508
  323MOL0     H42584   7.392  10.212   4.874  1.6710 -0.5263  0.0486
  323MOL0     H42585   7.427  10.218   5.169 -0.9147 -0.6100 -0.7316
  323MOL0     H42586   7.445  10.358   5.066  2.1915 -0.5981 -0.9148
  323MOL0     H42587   7.180  10.223   5.057 -2.9301  2.4461 -0.3978
  323MOL0     H42588   7.238  10.379   5.020  6.0816 -1.0266 -3.1983
  323MOL0     H42589   7.282  10.538   5.288  0.9791 -1.3094  0.6958
  323MOL0     H42590   7.296  10.546   5.555  0.6474 -1.9774 -1.0889
  323MOL0     H42591   7.209  10.429   5.654 -5.0661  1.1448  1.0239
  323MOL0     H42592   7.058  10.641   5.494  1.6573  1.0759  1.0407
  323MOL0     H42593   7.057  10.625   5.666  0.0142 -1.0743  0.2704
  323MOL0     H42594   6.923  10.460   5.458 -1.1287  1.4263 -0.0403
  323MOL0     H42595   6.964  10.378   5.621 -1.1045 -0.5477 -0.1333
  323MOL0     H42596   6.840  10.565   5.724 -1.8472  0.9030  0.1663
  323MOL0     H42597   6.750  10.438   5.643 -0.5215  1.1323  0.1524
  323MOL0     H42598   6.656  10.794   5.395  1.4500 -1.2701  0.5974
  323MOL0     H42599   6.429  10.803   5.315 -0.9977  0.6149  2.2885
  323MOL0     H42600   6.078  10.489   5.122  0.7134  0.1683 -0.2962
  323MOL0     H42601   5.860  10.494   5.021  2.0998 -0.3775  0.6115
  323MOL0     H42602   5.633  10.589   5.141  0.8083  1.5671 -0.4269
  323MOL0     H42603   5.614  10.541   4.970  1.8210 -0.6265  0.2581
  323MOL0     H42604   5.422  10.690   4.942 -0.7151 -0.0271 -0.1330
  323MOL0     H42605   5.444  10.753   5.106 -2.6809 -1.1109  1.2041
  323MOL0     H42606   5.379  10.488   5.154 -2.4096 -2.0155 -0.6286
  323MOL0     H42607   5.333  10.490   4.984 -1.8737  0.6055 -2.0890
  323MOL0     H42608   5.196  10.634   5.213 -1.4227  2.2587 -0.0960
  323MOL0     H42609   5.190  10.721   5.059 -0.9391 -0.2235 -0.4959
  323MOL0     H42610   5.127  10.424   5.089 -2.3892 -1.3746 -2.0386
  323MOL0     H42611   5.100  10.510   4.946  1.6787  2.4271 -0.5063
  323MOL0     H42612   4.926  10.651   5.103 -2.5500 -0.0290  1.8542
  323MOL0     H42613   4.979  10.537   5.236  1.4925  1.5284  0.3406
  323MOL0     H42614   4.835  10.460   4.978  0.4883 -3.1040 -1.6727
  323MOL0     H42615   4.923  10.347   5.084  2.5565  1.6027 -0.9836
  323MOL0     H42616   4.757  10.417   5.283  0.0221  0.3031  0.2501
  323MOL0     H42617   4.673  10.338   5.145 -0.2059  0.4044 -2.1624
  323MOL0     H42618   5.844  10.913   5.077 -0.9308 -0.1495 -0.5287
  323MOL0     H42619   6.078  10.906   5.187  1.4487  0.0457 -2.0920
  323MOL0     H42620   6.328  10.437   5.512 -0.4769 -0.3900  2.0817
  323MOL0     H42621   6.546  10.416   5.594 -1.0767 -0.8514  0.1900
  323MOL0     H42622   8.205  10.405   4.666 -1.8780  1.2472  1.3299
  323MOL0     H42623   8.450  10.439   4.641 -0.6848  4.1104 -5.3367
  323MOL0     H42624   8.791  10.784   4.436 -0.6895  0.7589  1.4924
  323MOL0     H42625   9.039  10.736   4.370 -2.0302  0.6934 -0.5762
  323MOL0     H42626   9.226  10.385   4.513  0.4570 -0.7546  2.2352
  323MOL0     H42627   9.270  10.483   4.660  0.6206 -0.1526 -0.2663
  323MOL0     H42628   9.452  10.601   4.536 -0.1446 -1.5229  1.4292
  323MOL0     H42629   9.488  10.445   4.569 -0.4658 -0.8595 -0.8009
  323MOL0     H42630   9.540  10.533   4.330  0.0463  0.4602 -0.7109
  323MOL0     H42631   9.377  10.534   4.297  1.5590  0.7152 -0.1301
  323MOL0     H42632   9.448  10.274   4.412 -0.0384  1.0402  0.4126
  323MOL0     H42633   9.417  10.310   4.231  0.1843 -0.4086  0.8846
  323MOL0     H42634   9.837  10.267   4.288 -0.9302 -2.0837 -3.2267
  323MOL0     H42635   9.057  10.458   4.691 -2.0512 -0.6824 -0.0430
  323MOL0     H42636   8.819  10.508   4.745  0.6649 -0.2049  1.2263
  324MOL0     O42637   0.714   0.653   6.278  0.0356 -0.1048  0.0574
  324MOL0     C42638   0.794   0.736   6.315  0.3443 -0.5046  0.1174
  324MOL0     O42639   0.797   0.871   6.267  0.5751  0.4367 -0.8538
  324MOL0     C42640   0.702   0.930   6.190 -0.2486  0.0449  0.1131
  324MOL0     C42641   0.582   0.982   6.248 -0.2157 -0.6202 -0.3275
  324MOL0     C42642   0.486   1.045   6.161 -0.3946  0.7208 -0.2392
  324MOL0     C42643   0.509   1.062   6.026 -0.1003 -0.4571 -0.2522
  324MOL0     O42644   0.409   1.123   5.960  0.4232  0.1588  0.0912
  324MOL0     C42645   0.414   1.121   5.814  0.1651  0.3077  0.2559
  324MOL0     C42646   0.281   1.112   5.746 -0.2207  0.3825  0.1498
  324MOL0     C42647   0.294   1.075   5.589 -0.5362  0.3325 -0.7203
  324MOL0     C42648   0.158   1.076   5.535 -0.2697 -0.3340  0.1834
  324MOL0     C42649   0.135   0.976   5.423 -0.3903  0.5880 -0.3329
  324MOL0     C42650   0.221   1.004   5.296  1.3061  0.3755  0.1779
  324MOL0     C42651   0.219   1.146   5.228  0.1972  0.2505 -0.0429
  324MOL0     C42652   0.180   1.161   5.081 -0.5689  0.0805  0.7214
  324MOL0     N42653   0.125   1.298   5.055  0.8220  0.0215 -0.0173
  324MOL0     C42654   0.190   1.404   5.000 -0.3975 -0.2698 -0.8036
  324MOL0     C42655   0.100   1.502   4.993  0.0029  0.0538  0.0474
  324MOL0     C42656   0.122   1.653   4.963  0.5987 -0.0221 -0.1093
  324MOL0     C42657   0.084   1.691   4.812  0.1342  0.5609  0.4304
  324MOL0     C42658  -0.073   1.690   4.776  0.2688  0.9589 -0.3396
  324MOL0     C42659  -0.095   1.663   4.630 -0.2198  0.7082  1.2568
  324MOL0     O42660  -0.223   1.729   4.601 -0.0074 -0.1864 -0.2037
  324MOL0     C42661  -0.339   1.667   4.637 -0.6553  0.2624  0.6069
  324MOL0     C42662  -0.431   1.739   4.714 -0.9221 -0.2769  0.8165
  324MOL0     C42663  -0.542   1.669   4.756 -0.4339 -0.0171 -0.9075
  324MOL0     C42664  -0.560   1.529   4.714 -0.3278  0.8061  0.5340
  324MOL0     C42665  -0.689   1.462   4.743 -0.1417  0.8469 -0.4507
  324MOL0     O42666  -0.701   1.328   4.705 -0.4421  0.1806  0.3094
  324MOL0     C42667  -0.815   1.265   4.747  0.8599 -0.0685 -0.2562
  324MOL0     C42668  -0.881   1.184   4.654 -0.3049 -1.0663  0.2151
  324MOL0     C42669  -0.995   1.115   4.687 -0.0312 -0.4273 -0.7618
  324MOL0     C42670  -1.039   1.112   4.824  0.3370  0.6750 -0.4174
  324MOL0     O42671  -1.144   1.034   4.855 -0.3183  0.1937  0.8899
  324MOL0     C42672  -1.154   0.997   4.992 -0.7892 -0.6442 -0.3813
  324MOL0     C42673  -1.265   0.897   5.018 -0.4849 -0.2380  0.2306
  324MOL0     C42674  -1.394   0.923   4.941 -0.3485 -1.2446  0.4997
  324MOL0     C42675  -1.486   0.797   4.952  0.2603  0.2338  0.5768
  324MOL0     C42676  -1.619   0.790   4.869 -0.0806  1.0347  0.3964
  324MOL0     C42677  -1.700   0.918   4.898  0.0281  0.3073  0.5836
  324MOL0     C42678  -1.854   0.911   4.857 -1.4692  0.4646 -0.3111
  324MOL0     C42679  -1.942   1.029   4.907  0.2796 -0.0597 -0.3006
  324MOL0    Cl42680  -2.096   1.019   4.820  0.0683 -0.0018 -0.0816
  324MOL0     C42681  -0.968   1.184   4.919 -0.4859 -0.2878  0.1048
  324MOL0     C42682  -0.849   1.250   4.884 -0.1264 -0.1943  0.4753
  324MOL0     O42683  -0.775   1.527   4.792  0.0633 -0.0843  0.1842
  324MOL0     C42684  -0.466   1.468   4.631  0.9648 -0.1403 -0.2779
  324MOL0     C42685  -0.362   1.535   4.585  0.3766  0.5759  0.2095
  324MOL0     N42686  -0.028   1.450   5.021  0.2546  0.1177 -0.7335
  324MOL0     N42687  -0.009   1.329   5.068  0.0019  0.0766  0.5629
  324MOL0     C42688   0.626   1.019   5.969  0.5380 -0.0679 -0.1938
  324MOL0     C42689   0.722   0.947   6.047  0.3755  0.0877 -0.1665
  324MOL0     C42690   0.903   0.690   6.400  0.2008  0.0960  0.3760
  324MOL0     C42691   1.013   0.776   6.424 -0.7354  0.4916  1.0191
  324MOL0     C42692   1.116   0.735   6.509 -0.3770  0.2914  0.4698
  324MOL0     C42693   1.115   0.610   6.574 -0.2384  0.9577  0.1251
  324MOL0     O42694   1.205   0.547   6.648 -0.1909 -0.3657  0.5517
  324MOL0     C42695   1.337   0.604   6.649 -0.0589  0.3427  0.8303
  324MOL0     C42696   1.443   0.496   6.670 -0.9725  0.8446  0.5048
  324MOL0     C42697   1.578   0.572   6.673 -0.9189  0.1529 -0.1145
  324MOL0     C42698   1.630   0.651   6.555  0.4092  1.1539 -0.8142
  324MOL0     C42699   1.681   0.567   6.447  0.3235 -0.2866  0.2162
  324MOL0     C42700   1.705   0.513   6.345 -0.1181 -0.5106 -0.1446
  324MOL0     C42701   1.008   0.520   6.542 -0.2379 -0.3316 -0.0748
  324MOL0     C42702   0.905   0.562   6.458  0.1804 -0.3026 -0.6271
  324MOL0     H42703   0.553   0.968   6.351 -2.1739  2.8468 -0.2490
  324MOL0     H42704   0.390   1.079   6.200  0.2580  0.2650  1.9188
  324MOL0     H42705   0.473   1.031   5.793  0.9796  0.3382  2.2113
  324MOL0     H42706   0.470   1.210   5.783 -0.1687  0.8244  1.1128
  324MOL0     H42707   0.235   1.211   5.755 -1.4979 -0.2366  0.7849
  324MOL0     H42708   0.222   1.037   5.800  2.1261 -1.3027  0.5788
  324MOL0     H42709   0.343   0.977   5.581  2.3091  1.5205  0.8133
  324MOL0     H42710   0.353   1.148   5.534 -0.7989  1.2671  0.2224
  324MOL0     H42711   0.087   1.047   5.613 -0.6695 -3.5359 -1.2052
  324MOL0     H42712   0.124   1.173   5.498  3.5046  1.3430  0.6794
  324MOL0     H42713   0.027   0.975   5.403 -1.0439 -0.9231  2.6940
  324MOL0     H42714   0.158   0.877   5.464  0.3189  0.6615 -0.5407
  324MOL0     H42715   0.180   0.938   5.220  0.9438 -2.7245  2.8585
  324MOL0     H42716   0.325   0.978   5.318  0.7852 -0.3931  1.9084
  324MOL0     H42717   0.148   1.202   5.289  0.4089 -3.0689  3.6012
  324MOL0     H42718   0.318   1.185   5.255 -2.0840  5.1109  2.6905
  324MOL0     H42719   0.112   1.078   5.065  2.1495 -1.9526 -1.2159
  324MOL0     H42720   0.268   1.149   5.017 -2.0939 -0.5616 -1.3250
  324MOL0     H42721   0.293   1.418   4.968 -0.0554 -2.0401 -0.5940
  324MOL0     H42722   0.226   1.686   4.970  0.3510  0.8717 -0.5471
  324MOL0     H42723   0.060   1.709   5.033  0.3770 -0.9207  0.4352
  324MOL0     H42724   0.132   1.614   4.751 -1.8509 -0.3248 -0.0957
  324MOL0     H42725   0.120   1.787   4.774  2.0650 -0.3073 -0.0875
  324MOL0     H42726  -0.125   1.612   4.832  2.2341  0.9777  1.6047
  324MOL0     H42727  -0.111   1.785   4.814  2.6295  0.8859  2.5369
  324MOL0     H42728  -0.103   1.556   4.611 -0.0529  0.5096  2.2715
  324MOL0     H42729  -0.015   1.701   4.565 -0.5003  2.0262  1.6527
  324MOL0     H42730  -0.398   1.836   4.749  0.1712 -1.0901  2.1426
  324MOL0     H42731  -0.618   1.705   4.825  0.8896  0.4535  0.3479
  324MOL0     H42732  -0.861   1.187   4.547  0.6156  0.6665  0.4019
  324MOL0     H42733  -1.052   1.059   4.614 -0.7487  1.2511 -1.5540
  324MOL0     H42734  -1.173   1.080   5.062 -0.7847 -0.3181 -0.7638
  324MOL0     H42735  -1.061   0.952   5.029 -1.2731  1.3150  3.7968
  324MOL0     H42736  -1.277   0.891   5.127 -1.9041 -0.1322  0.0932
  324MOL0     H42737  -1.235   0.796   4.986  0.5904 -0.1745  0.9471
  324MOL0     H42738  -1.380   0.926   4.832  0.5580  1.2835  0.6353
  324MOL0     H42739  -1.450   1.011   4.973  1.1063 -0.6900  1.6645
  324MOL0     H42740  -1.431   0.711   4.911  1.3181  2.4163 -2.9826
  324MOL0     H42741  -1.511   0.773   5.056 -2.8379 -2.6927 -0.6344
  324MOL0     H42742  -1.674   0.700   4.899  2.4184 -0.4494  0.8000
  324MOL0     H42743  -1.598   0.789   4.761  2.6675 -0.9007  0.8430
  324MOL0     H42744  -1.657   0.995   4.833  2.6068  0.5788  2.4548
  324MOL0     H42745  -1.684   0.927   5.006  2.6437  0.7220  0.2248
  324MOL0     H42746  -1.851   0.911   4.748  0.1282  3.9037 -0.4082
  324MOL0     H42747  -1.894   0.817   4.896  1.6285 -0.7288  0.2755
  324MOL0     H42748  -1.890   1.121   4.879 -2.3972  2.4283  2.2072
  324MOL0     H42749  -1.963   1.028   5.014 -1.8181  1.3435 -0.6391
  324MOL0     H42750  -0.990   1.185   5.025  2.3626  0.8874  0.7930
  324MOL0     H42751  -0.801   1.303   4.965  1.8261 -0.0927 -0.6878
  324MOL0     H42752  -0.486   1.365   4.603 -3.0712  0.1640  0.8807
  324MOL0     H42753  -0.303   1.485   4.509 -0.3675 -0.8866  0.5508
  324MOL0     H42754   0.648   1.024   5.863  3.1412  4.1741  0.3291
  324MOL0     H42755   0.817   0.911   6.009 -0.4542 -2.6943  0.2185
  324MOL0     H42756   1.024   0.874   6.377 -0.3447  0.0636  0.2038
  324MOL0     H42757   1.199   0.800   6.537 -0.7455  0.6165  0.8143
  324MOL0     H42758   1.347   0.667   6.737 -0.3986  2.0559 -0.2975
  324MOL0     H42759   1.374   0.657   6.560  3.2685  0.2236  2.0273
  324MOL0     H42760   1.436   0.450   6.768 -1.5959  0.2454  0.1863
  324MOL0     H42761   1.456   0.421   6.591 -2.5647 -0.0273  1.0373
  324MOL0     H42762   1.648   0.497   6.710 -1.6674 -0.5929 -0.1589
  324MOL0     H42763   1.567   0.643   6.755  0.2762 -0.6927  0.8061
  324MOL0     H42764   1.552   0.714   6.511 -0.4224  1.0095  0.4009
  324MOL0     H42765   1.710   0.719   6.586  1.0255  0.7467 -1.4715
  324MOL0     H42766   1.731   0.445   6.266  3.0839 -2.2317  2.1794
  324MOL0     H42767   1.005   0.422   6.588 -2.2497 -0.8525 -1.1550
  324MOL0     H42768   0.827   0.494   6.427 -1.6479  1.1407  0.6028
  325MOL0     O42769   1.202   6.719   5.114  0.0757 -0.4625  0.1493
  325MOL0     C42770   1.238   6.834   5.107  0.5176  0.1839  0.4777
  325MOL0     O42771   1.162   6.947   5.122  0.4335 -0.0426  0.5266
  325MOL0     C42772   1.038   6.933   5.155 -0.4176  0.7836  0.9643
  325MOL0     C42773   0.995   6.882   5.278  0.1829 -0.0106  0.9606
  325MOL0     C42774   0.859   6.891   5.321 -1.0817  0.0577 -0.9037
  325MOL0     C42775   0.757   6.948   5.241 -0.7526 -1.0114 -0.0705
  325MOL0     O42776   0.634   6.966   5.299  0.7158  0.0385 -0.1546
  325MOL0     C42777   0.543   7.041   5.218  0.5201  0.4255  0.5300
  325MOL0     C42778   0.416   7.088   5.287 -0.4163  0.3384  0.8248
  325MOL0     C42779   0.297   7.116   5.188 -0.0896 -0.0374  0.0721
  325MOL0     C42780   0.159   7.136   5.250  0.3492 -0.2582  0.8402
  325MOL0     C42781   0.069   7.214   5.154 -0.5827 -0.5891 -0.9328
  325MOL0     C42782  -0.062   7.255   5.226  0.0210 -0.0497  0.2466
  325MOL0     C42783  -0.146   7.135   5.271  0.1772 -0.5052  0.3704
  325MOL0     C42784  -0.285   7.180   5.317  0.9661 -0.3939 -0.4161
  325MOL0     N42785  -0.370   7.073   5.358 -0.1933  0.1265  1.2923
  325MOL0     C42786  -0.431   6.979   5.276 -0.3497 -0.1751 -0.0494
  325MOL0     C42787  -0.500   6.896   5.357 -0.9904  0.3624 -0.1391
  325MOL0     C42788  -0.557   6.759   5.311  0.3848  0.4009  0.7745
  325MOL0     C42789  -0.709   6.752   5.331 -0.7050 -0.2883 -0.0863
  325MOL0     C42790  -0.765   6.784   5.470  0.9836  0.7988 -0.2276
  325MOL0     C42791  -0.910   6.842   5.480  0.7525  0.3271 -0.4773
  325MOL0     O42792  -0.983   6.797   5.368 -0.5809  0.1200 -0.2408
  325MOL0     C42793  -1.066   6.699   5.394  1.0140  0.2210 -0.2465
  325MOL0     C42794  -1.168   6.678   5.303 -0.6963  0.8589 -0.6097
  325MOL0     C42795  -1.264   6.579   5.325 -0.3576 -0.2135 -1.0107
  325MOL0     C42796  -1.254   6.493   5.442  1.1522  0.0411 -0.2126
  325MOL0     C42797  -1.357   6.389   5.475  0.1415  0.1068 -0.1124
  325MOL0     O42798  -1.445   6.342   5.372 -0.3057 -0.7659 -1.2717
  325MOL0     C42799  -1.566   6.277   5.396  0.5479 -0.3899  0.1371
  325MOL0     C42800  -1.641   6.268   5.521  0.2438  0.2767 -0.1860
  325MOL0     C42801  -1.765   6.211   5.525 -0.3715 -0.6839 -0.1865
  325MOL0     C42802  -1.821   6.156   5.410  0.5008  0.1042 -0.2539
  325MOL0     O42803  -1.933   6.082   5.400 -0.2103  0.1149 -0.1903
  325MOL0     C42804  -2.009   6.055   5.519 -0.7241  0.8342  0.7784
  325MOL0     C42805  -1.959   5.936   5.595 -0.8706 -0.5177  0.1570
  325MOL0     C42806  -1.938   5.812   5.506  0.8467 -0.1483  0.6332
  325MOL0     C42807  -1.899   5.692   5.591  0.1126  1.1945  0.3912
  325MOL0     C42808  -1.913   5.569   5.492  0.3487 -0.1471 -0.5790
  325MOL0     C42809  -1.937   5.432   5.554 -0.8777 -0.0157  0.1981
  325MOL0     C42810  -2.066   5.412   5.618  0.4576  0.2980 -1.0299
  325MOL0     C42811  -2.075   5.269   5.675  0.0279  0.4651  0.2252
  325MOL0    Cl42812  -2.218   5.276   5.784  0.0748  0.7214 -0.1862
  325MOL0     C42813  -1.751   6.171   5.291 -0.1794  0.9289  0.4372
  325MOL0     C42814  -1.627   6.231   5.279 -0.4266  0.4065 -0.0662
  325MOL0     O42815  -1.360   6.344   5.589 -0.1738  0.2139 -0.1225
  325MOL0     C42816  -1.148   6.508   5.528 -0.6583  0.0829 -0.2356
  325MOL0     C42817  -1.058   6.611   5.502 -0.6908 -0.5818  0.1312
  325MOL0     N42818  -0.503   6.961   5.482  0.1552 -0.0125  0.1610
  325MOL0     N42819  -0.417   7.054   5.487  0.4471  0.5885  0.0399
  325MOL0     C42820   0.801   6.997   5.119  0.6928 -0.2887 -0.1896
  325MOL0     C42821   0.934   6.984   5.074  0.4079 -0.7301 -1.0521
  325MOL0     C42822   1.386   6.853   5.072  0.5383  0.6557 -0.6896
  325MOL0     C42823   1.468   6.744   5.072  0.5071  0.0430 -0.7459
  325MOL0     C42824   1.603   6.752   5.041 -0.6657  0.2975 -0.1093
  325MOL0     C42825   1.668   6.875   5.025 -0.5829  0.1106 -0.4886
  325MOL0     O42826   1.796   6.877   4.978 -0.7303  0.2776 -0.0556
  325MOL0     C42827   1.855   7.007   4.944  0.5743  0.4514 -0.0533
  325MOL0     C42828   2.006   6.992   4.939 -0.2957 -0.0156 -0.4215
  325MOL0     C42829   2.065   7.125   4.884 -0.2220 -0.3467 -0.2969
  325MOL0     C42830   2.211   7.116   4.882  0.0867 -0.4610  0.2793
  325MOL0     C42831   2.269   7.240   4.817 -0.1355 -0.3397  0.1480
  325MOL0     C42832   2.315   7.346   4.783 -0.3472  0.2070 -0.2014
  325MOL0     C42833   1.583   6.988   5.033  0.0646  0.5879  0.3329
  325MOL0     C42834   1.448   6.978   5.060  0.0900 -1.1502  0.2933
  325MOL0     H42835   1.060   6.836   5.351  0.8852 -2.1026 -0.8749
  325MOL0     H42836   0.840   6.854   5.421  0.0553 -1.4121 -1.1945
  325MOL0     H42837   0.525   6.983   5.127 -2.1096  2.8281 -0.6311
  325MOL0     H42838   0.586   7.133   5.179  1.4082 -0.5655 -0.9669
  325MOL0     H42839   0.426   7.184   5.338 -2.0927  1.6300 -1.1052
  325MOL0     H42840   0.385   7.013   5.360  1.0573 -1.6421 -0.4895
  325MOL0     H42841   0.281   7.030   5.122 -1.2671 -0.7351  1.2281
  325MOL0     H42842   0.318   7.199   5.120  0.5285 -0.8861 -0.8078
  325MOL0     H42843   0.116   7.036   5.266  0.9445 -0.3749  1.8071
  325MOL0     H42844   0.161   7.183   5.349 -1.3023 -1.7788  1.6575
  325MOL0     H42845   0.057   7.152   5.065  1.5371  0.4285 -2.0070
  325MOL0     H42846   0.116   7.309   5.128 -2.1018  0.8388  1.2165
  325MOL0     H42847  -0.120   7.322   5.162 -0.8744  0.0046  1.0857
  325MOL0     H42848  -0.030   7.315   5.312  0.8874  2.2146 -1.5671
  325MOL0     H42849  -0.150   7.065   5.187 -0.3479  0.0217 -0.0478
  325MOL0     H42850  -0.098   7.097   5.362 -0.7941  1.5202  1.7865
  325MOL0     H42851  -0.343   7.241   5.246 -4.2585 -1.2725  2.5585
  325MOL0     H42852  -0.286   7.248   5.403 -0.9408 -2.1791  1.0611
  325MOL0     H42853  -0.399   6.963   5.173  1.4710  2.4981 -0.0050
  325MOL0     H42854  -0.514   6.688   5.382  0.3753 -0.4928 -0.0878
  325MOL0     H42855  -0.521   6.741   5.209 -0.4748  0.5483  0.4401
  325MOL0     H42856  -0.750   6.660   5.288  1.2997 -0.6299 -1.4141
  325MOL0     H42857  -0.747   6.833   5.268 -2.0050 -1.0628 -0.3296
  325MOL0     H42858  -0.775   6.685   5.516 -0.6587  0.2924 -1.5714
  325MOL0     H42859  -0.695   6.836   5.536 -0.2312  0.1933  1.6288
  325MOL0     H42860  -0.909   6.949   5.454  0.6788  0.2130 -0.9412
  325MOL0     H42861  -0.956   6.849   5.580 -0.4720  3.0838 -1.1239
  325MOL0     H42862  -1.162   6.758   5.230 -0.0593  0.3190 -1.1762
  325MOL0     H42863  -1.356   6.577   5.266  0.4595  0.1486 -2.3293
  325MOL0     H42864  -1.593   6.301   5.613  0.3044 -0.1123 -0.0754
  325MOL0     H42865  -1.814   6.189   5.619  1.7163 -2.5161  0.5692
  325MOL0     H42866  -2.110   6.026   5.487 -0.0344  1.2996 -2.1069
  325MOL0     H42867  -2.014   6.145   5.582  0.0725  1.1093  0.4601
  325MOL0     H42868  -2.030   5.910   5.674 -1.5172 -2.4917 -0.9835
  325MOL0     H42869  -1.865   5.965   5.643 -1.4687  0.6786  0.6348
  325MOL0     H42870  -1.862   5.832   5.430 -1.3678 -0.8569 -1.9011
  325MOL0     H42871  -2.026   5.792   5.445  0.6283 -0.2939  0.9968
  325MOL0     H42872  -1.798   5.687   5.631  0.3515 -0.5461 -0.2983
  325MOL0     H42873  -1.974   5.689   5.671  0.0587 -0.1114  0.3257
  325MOL0     H42874  -1.826   5.559   5.427  1.5255 -0.2901  0.9758
  325MOL0     H42875  -1.997   5.589   5.424 -0.9156 -0.9529  0.6929
  325MOL0     H42876  -1.863   5.404   5.629 -1.0701  0.4664  0.5697
  325MOL0     H42877  -1.935   5.373   5.462  0.9008  2.7416 -1.6734
  325MOL0     H42878  -2.084   5.483   5.699  4.9727 -2.6453  3.0793
  325MOL0     H42879  -2.149   5.423   5.546  0.8793  0.4203 -1.5046
  325MOL0     H42880  -1.990   5.231   5.733  0.4285 -0.2399 -0.7862
  325MOL0     H42881  -2.091   5.188   5.604 -2.0345 -0.5653  1.7664
  325MOL0     H42882  -1.790   6.115   5.207 -2.7000  1.1175  1.3693
  325MOL0     H42883  -1.565   6.226   5.190  0.1820 -2.8750  0.4335
  325MOL0     H42884  -1.140   6.444   5.615 -0.4859 -2.7504 -2.1818
  325MOL0     H42885  -0.974   6.631   5.568 -0.3525 -0.2424 -0.3890
  325MOL0     H42886   0.736   7.058   5.057 -0.7597 -1.9937 -0.4159
  325MOL0     H42887   0.959   7.027   4.977 -0.0079  1.0249 -0.4195
  325MOL0     H42888   1.425   6.647   5.095  1.1240  0.4781  2.8295
  325MOL0     H42889   1.652   6.655   5.052  2.5813  1.9632  2.0160
  325MOL0     H42890   1.824   7.074   5.024 -1.5331 -1.0562  0.4879
  325MOL0     H42891   1.813   7.040   4.849 -0.9879  2.9806  1.3947
  325MOL0     H42892   2.060   6.958   5.027 -3.4371 -2.0679  0.8787
  325MOL0     H42893   2.033   6.914   4.868  0.6749 -0.0504 -0.0311
  325MOL0     H42894   2.037   7.211   4.946  0.9506 -0.3683  0.2832
  325MOL0     H42895   2.033   7.128   4.779 -0.0200  1.3992 -0.3402
  325MOL0     H42896   2.232   7.126   4.988 -3.8884  2.2125  1.0011
  325MOL0     H42897   2.237   7.023   4.830 -2.1021 -0.9838  0.0464
  325MOL0     H42898   2.345   7.446   4.757  1.9988 -0.0613  1.2493
  325MOL0     H42899   1.616   7.086   5.002 -1.2457  1.5135  1.7286
  325MOL0     H42900   1.390   7.069   5.066 -0.8528 -1.8011  1.3582
  326MOL0     O42901   2.089   0.692  11.237  0.7929 -0.3514 -0.1411
  326MOL0     C42902   2.172   0.625  11.299 -0.0836 -0.3728 -0.2036
  326MOL0     O42903   2.153   0.562  11.415 -0.1630  0.2401 -0.1178
  326MOL0     C42904   2.043   0.567  11.487 -0.4177  0.1730 -1.0022
  326MOL0     C42905   1.918   0.544  11.427 -0.0065  0.1830  0.5121
  326MOL0     C42906   1.797   0.545  11.490  0.0113 -0.3711 -0.8207
  326MOL0     C42907   1.794   0.560  11.629 -0.2222 -0.4990 -0.2334
  326MOL0     O42908   1.685   0.537  11.709  0.5436  0.1567  0.2703
  326MOL0     C42909   1.549   0.508  11.660  0.3866  0.1063  0.2035
  326MOL0     C42910   1.452   0.434  11.764 -1.1586 -0.3945 -0.8094
  326MOL0     C42911   1.328   0.371  11.716 -0.3064 -0.2752  0.0030
  326MOL0     C42912   1.253   0.295  11.825  0.3137  0.2281 -0.5639
  326MOL0     C42913   1.239   0.373  11.961  0.1733 -0.5772  0.1485
  326MOL0     C42914   1.145   0.313  12.061 -0.1650  0.2903  1.2333
  326MOL0     C42915   1.209   0.190  12.123 -0.1677  0.3615  0.6334
  326MOL0     C42916   1.110   0.127  12.225 -0.0213 -1.5159  0.3839
  326MOL0     N42917   1.171   0.039  12.320 -0.5627  1.0238 -0.1164
  326MOL0     C42918   1.241   0.075  12.438 -0.2416  0.4552  0.0488
  326MOL0     C42919   1.271  -0.047  12.481 -0.2093  0.1761  0.6239
  326MOL0     C42920   1.370  -0.068  12.593 -0.4431 -0.0282  0.2382
  326MOL0     C42921   1.486  -0.159  12.541 -0.4947  0.2517 -0.4135
  326MOL0     C42922   1.575  -0.089  12.439  0.0676  0.2310  0.3046
  326MOL0     C42923   1.700  -0.180  12.400  1.0782  0.9726  0.7929
  326MOL0     O42924   1.781  -0.099  12.312  0.4188 -0.7704 -0.7983
  326MOL0     C42925   1.914  -0.104  12.309 -0.0358 -0.4372 -0.0374
  326MOL0     C42926   1.983  -0.031  12.211  0.1798 -0.2339  0.0068
  326MOL0     C42927   2.124  -0.028  12.197 -0.2353  0.0439  0.4351
  326MOL0     C42928   2.212  -0.093  12.287  0.5371 -0.3220  0.2519
  326MOL0     C42929   2.354  -0.081  12.278 -0.2175 -0.8731 -0.4073
  326MOL0     O42930   2.405   0.033  12.214 -0.2953  0.2416 -0.3517
  326MOL0     C42931   2.535   0.074  12.239  0.2333  0.6346  0.8707
  326MOL0     C42932   2.612   0.099  12.125  0.6758 -0.6580  0.8213
  326MOL0     C42933   2.741   0.151  12.123  0.6637 -0.1677 -0.2716
  326MOL0     C42934   2.802   0.166  12.252 -0.1089 -0.4395 -0.0594
  326MOL0     O42935   2.927   0.211  12.274 -0.1538 -0.3986 -0.0424
  326MOL0     C42936   3.016   0.201  12.162  0.6714 -0.8184 -0.1076
  326MOL0     C42937   3.157   0.220  12.200 -0.4084  0.3564 -0.5988
  326MOL0     C42938   3.209   0.079  12.258  0.2632  0.1024  0.1914
  326MOL0     C42939   3.361   0.093  12.297  0.3051 -0.5661  0.4070
  326MOL0     C42940   3.377   0.160  12.441 -0.4078  0.3026  0.6345
  326MOL0     C42941   3.521   0.158  12.490  0.0822  0.4128  0.6421
  326MOL0     C42942   3.608   0.270  12.443  0.2507  0.1340 -0.4368
  326MOL0     C42943   3.733   0.291  12.536 -0.1447 -0.8408  0.4944
  326MOL0    Cl42944   3.892   0.323  12.458  0.0486 -0.5315  0.0843
  326MOL0     C42945   2.722   0.141  12.370  0.0438 -0.0500 -0.1743
  326MOL0     C42946   2.592   0.088  12.360 -0.2785  0.4671 -0.0562
  326MOL0     O42947   2.418  -0.167  12.341  0.9867 -0.7284  0.3464
  326MOL0     C42948   2.139  -0.167  12.388  0.5240 -0.9319 -0.0278
  326MOL0     C42949   1.995  -0.165  12.409  0.0157 -0.2275 -0.5106
  326MOL0     N42950   1.226  -0.142  12.400  0.7246  0.7865  0.0443
  326MOL0     N42951   1.155  -0.094  12.301 -1.0728 -0.1552  0.0630
  326MOL0     C42952   1.921   0.578  11.695  0.4958 -0.5951 -0.3406
  326MOL0     C42953   2.044   0.588  11.624 -0.4877 -0.4218  0.0623
  326MOL0     C42954   2.308   0.614  11.241 -0.5381 -0.1763 -0.6797
  326MOL0     C42955   2.409   0.594  11.327 -0.2934 -0.5039 -0.8271
  326MOL0     C42956   2.542   0.605  11.277  0.0810  0.1507 -0.1060
  326MOL0     C42957   2.568   0.630  11.149 -0.2567  0.1529  0.3912
  326MOL0     O42958   2.697   0.629  11.096  0.1916 -0.1946 -0.1015
  326MOL0     C42959   2.803   0.561  11.170 -0.1954  0.2801 -0.2270
  326MOL0     C42960   2.925   0.568  11.081  0.7846 -0.2814  0.6991
  326MOL0     C42961   3.046   0.533  11.166 -0.2973 -0.6963  0.3417
  326MOL0     C42962   3.167   0.547  11.083  0.4720  0.3124 -0.6852
  326MOL0     C42963   3.280   0.505  11.166 -0.6813 -0.3788 -0.1416
  326MOL0     C42964   3.380   0.485  11.229 -0.7864 -0.0167  0.3040
  326MOL0     C42965   2.464   0.673  11.065  0.5711 -0.0237  0.0471
  326MOL0     C42966   2.329   0.665  11.111 -0.4953 -0.0343  0.1871
  326MOL0     H42967   1.930   0.537  11.319  2.0203  2.0458  0.5225
  326MOL0     H42968   1.710   0.531  11.426  1.1645  0.9036 -2.7875
  326MOL0     H42969   1.554   0.455  11.564 -2.7351  0.0156 -0.0130
  326MOL0     H42970   1.507   0.606  11.638 -0.7045 -0.2747  0.5265
  326MOL0     H42971   1.436   0.516  11.835  0.7620 -3.0677  3.1234
  326MOL0     H42972   1.510   0.364  11.826 -2.2634  0.1710  0.9635
  326MOL0     H42973   1.365   0.295  11.646 -0.1719  1.2581 -1.6481
  326MOL0     H42974   1.265   0.442  11.663 -1.2902 -1.2245 -0.1149
  326MOL0     H42975   1.160   0.280  11.771  1.2090  2.3923 -2.8805
  326MOL0     H42976   1.313   0.207  11.851  1.5591  1.4920  1.0939
  326MOL0     H42977   1.208   0.477  11.950 -2.8162 -0.8636  3.9377
  326MOL0     H42978   1.339   0.380  12.006  0.7288 -1.3511 -0.8935
  326MOL0     H42979   1.054   0.279  12.011 -0.7596  1.2077  1.6807
  326MOL0     H42980   1.119   0.381  12.142  1.1606  2.3100  0.0495
  326MOL0     H42981   1.222   0.112  12.047  0.7563 -0.8575  1.9731
  326MOL0     H42982   1.303   0.217  12.173  0.6073  1.0331 -1.0915
  326MOL0     H42983   1.033   0.068  12.174 -1.9651 -1.2151  2.7688
  326MOL0     H42984   1.049   0.202  12.277 -0.3863  0.1135 -2.1590
  326MOL0     H42985   1.267   0.175  12.471  3.4495  0.2924 -1.7883
  326MOL0     H42986   1.326  -0.123  12.676  2.4534 -0.5821  1.5442
  326MOL0     H42987   1.408   0.030  12.626  2.7768 -1.5675  1.5350
  326MOL0     H42988   1.460  -0.252  12.490  1.5505 -1.0240  0.7516
  326MOL0     H42989   1.538  -0.189  12.632 -0.3850 -5.6169 -2.0203
  326MOL0     H42990   1.522  -0.051  12.351  1.3944  2.0633  0.2241
  326MOL0     H42991   1.619   0.005  12.474  0.0667  0.5309 -0.4700
  326MOL0     H42992   1.656  -0.263  12.345 -1.2272  1.6154  1.5467
  326MOL0     H42993   1.746  -0.220  12.490 -3.1245  0.5407  2.9845
  326MOL0     H42994   1.922   0.016  12.135  0.6088 -2.7928 -2.0857
  326MOL0     H42995   2.161   0.022  12.109 -2.2007  0.6700 -0.0902
  326MOL0     H42996   2.573   0.080  12.026  1.4418 -4.0251  1.0518
  326MOL0     H42997   2.787   0.165  12.026 -0.2712  0.7514 -0.6073
  326MOL0     H42998   2.985   0.278  12.091  2.6340 -0.2801 -0.4280
  326MOL0     H42999   2.995   0.108  12.109 -2.6788  0.4171 -1.2519
  326MOL0     H43000   3.163   0.299  12.276 -1.0604  0.7405 -0.9386
  326MOL0     H43001   3.221   0.246  12.115  1.5084  0.8170  0.8988
  326MOL0     H43002   3.205  -0.009  12.193  1.2092 -1.8546  2.6421
  326MOL0     H43003   3.152   0.056  12.348 -0.1286  0.1826 -0.0335
  326MOL0     H43004   3.404  -0.006  12.311 -1.4447 -1.2870  0.9658
  326MOL0     H43005   3.423   0.144  12.222  0.6424 -0.6211  0.6456
  326MOL0     H43006   3.321   0.101  12.514 -1.3426 -0.2878 -0.5306
  326MOL0     H43007   3.327   0.258  12.438  1.1331  1.1351  0.9969
  326MOL0     H43008   3.563   0.057  12.482 -1.4620 -0.4699  2.6137
  326MOL0     H43009   3.504   0.175  12.597 -1.8171  2.2642  0.1040
  326MOL0     H43010   3.633   0.236  12.342 -0.2417  0.7002 -0.7574
  326MOL0     H43011   3.552   0.364  12.433 -1.8212 -0.9876  0.1228
  326MOL0     H43012   3.748   0.193  12.582  2.8000  0.0295  1.5735
  326MOL0     H43013   3.711   0.368  12.611  1.4105  0.2325 -0.0903
  326MOL0     H43014   2.775   0.147  12.465  1.2881  3.6828 -0.9615
  326MOL0     H43015   2.532   0.065  12.447 -3.2550  2.1798 -1.4799
  326MOL0     H43016   2.198  -0.227  12.456  2.0858 -0.5739 -1.0266
  326MOL0     H43017   1.955  -0.219  12.495  0.6580  2.7736  1.8224
  326MOL0     H43018   1.922   0.580  11.804  1.7604  1.7294 -0.3387
  326MOL0     H43019   2.137   0.594  11.681 -0.1133  0.3964 -0.6187
  326MOL0     H43020   2.404   0.578  11.434  2.9882 -1.3078 -0.6823
  326MOL0     H43021   2.624   0.581  11.344  1.8725  1.5192 -1.7328
  326MOL0     H43022   2.766   0.461  11.195 -1.0295  1.4676  4.1595
  326MOL0     H43023   2.816   0.622  11.260 -0.7349  3.7899 -2.3614
  326MOL0     H43024   2.911   0.489  11.007 -1.9691  0.3430  0.4191
  326MOL0     H43025   2.932   0.664  11.029 -2.1896  2.1684  4.2666
  326MOL0     H43026   3.024   0.429  11.193 -1.4885 -1.0546 -1.8233
  326MOL0     H43027   3.044   0.594  11.257 -2.4169 -1.6863  1.0299
  326MOL0     H43028   3.153   0.487  10.993 -1.2964 -2.2304  1.1229
  326MOL0     H43029   3.175   0.650  11.049  1.3262 -0.2208 -2.1732
  326MOL0     H43030   3.468   0.474  11.289 -2.0208 -0.9941  2.0255
  326MOL0     H43031   2.490   0.703  10.964 -1.1657  2.0466  0.1468
  326MOL0     H43032   2.248   0.687  11.042 -1.4482 -3.1893  0.1467
  327MOL0     O43033   6.249   0.700   9.159 -0.7284  0.3253  0.8781
  327MOL0     C43034   6.158   0.727   9.081  0.4583 -0.3910 -0.0058
  327MOL0     O43035   6.160   0.801   8.967  0.1342 -0.7329  0.5765
  327MOL0     C43036   6.268   0.892   8.961 -0.3694  0.4311  0.1872
  327MOL0     C43037   6.397   0.848   8.946  0.5269  0.1673  0.5694
  327MOL0     C43038   6.499   0.938   8.947 -0.7995  0.6046 -0.2952
  327MOL0     C43039   6.480   1.078   8.959  0.1564 -0.0985  0.2396
  327MOL0     O43040   6.570   1.180   8.946 -0.1357  0.2451  0.4088
  327MOL0     C43041   6.673   1.164   8.848  0.5890  0.7809 -0.3675
  327MOL0     C43042   6.735   1.297   8.813  0.4073 -0.7240  0.6235
  327MOL0     C43043   6.807   1.358   8.933 -0.3522  0.1490 -0.4380
  327MOL0     C43044   6.896   1.470   8.878 -0.1061 -0.8127  0.1208
  327MOL0     C43045   6.948   1.549   8.995 -0.3256  0.3073 -0.4082
  327MOL0     C43046   7.047   1.473   9.080  0.1891 -0.1162 -0.4135
  327MOL0     C43047   7.102   1.557   9.193 -0.0146  0.0671  1.0355
  327MOL0     C43048   7.154   1.485   9.323 -0.2592  0.3445  0.2115
  327MOL0     N43049   7.207   1.570   9.432  0.8232  0.6947 -0.1823
  327MOL0     C43050   7.263   1.697   9.431  0.1027  0.1643  0.3160
  327MOL0     C43051   7.302   1.723   9.556  0.0732 -0.0458 -1.0570
  327MOL0     C43052   7.385   1.833   9.606 -0.4187 -0.4450 -0.5814
  327MOL0     C43053   7.531   1.794   9.638 -0.0962  0.1647  0.1164
  327MOL0     C43054   7.610   1.884   9.728 -0.2636  0.5558  0.4460
  327MOL0     C43055   7.743   1.828   9.780 -0.0947 -0.1072 -0.0785
  327MOL0     O43056   7.839   1.842   9.668 -0.4241  0.9520  0.2388
  327MOL0     C43057   7.976   1.838   9.700  0.3621  0.3657  0.5055
  327MOL0     C43058   8.066   1.882   9.610 -0.0961  0.2969 -0.3916
  327MOL0     C43059   8.203   1.895   9.648  0.8508 -0.6222  0.5705
  327MOL0     C43060   8.258   1.850   9.772  0.0519  0.1114 -0.5345
  327MOL0     C43061   8.408   1.841   9.785  0.5692  0.6243  0.1840
  327MOL0     O43062   8.488   1.933   9.723 -0.2500 -0.1049  0.3411
  327MOL0     C43063   8.618   1.947   9.749  0.6832  1.0626 -0.2526
  327MOL0     C43064   8.675   1.934   9.878  0.2590  0.7754  0.3157
  327MOL0     C43065   8.806   1.955   9.903  0.1147 -0.5794 -0.0291
  327MOL0     C43066   8.891   2.002   9.802  0.6212  0.7132  0.1128
  327MOL0     O43067   9.023   2.019   9.832  0.7619  0.3877 -0.2378
  327MOL0     C43068   9.111   1.988   9.722  0.1346  0.0720  0.1689
  327MOL0     C43069   9.250   2.005   9.774 -0.3806  0.7473  0.2056
  327MOL0     C43070   9.305   2.150   9.789  0.8526  0.5733 -0.0826
  327MOL0     C43071   9.427   2.140   9.884  0.4002 -0.1227  0.1812
  327MOL0     C43072   9.490   2.283   9.908 -0.2696 -0.2208  0.4505
  327MOL0     C43073   9.423   2.359  10.023  0.4120 -0.5789  0.0331
  327MOL0     C43074   9.484   2.507  10.039  0.6315 -0.4587  0.7951
  327MOL0     C43075   9.418   2.596   9.925  0.4865 -0.1392 -0.5296
  327MOL0    Cl43076   9.434   2.768   9.948 -0.0492  0.0893 -0.4555
  327MOL0     C43077   8.830   2.027   9.678 -0.4321 -0.3094 -0.3592
  327MOL0     C43078   8.699   1.997   9.648  0.0107  0.1630  0.0917
  327MOL0     O43079   8.447   1.751   9.856  0.2655 -0.2345  0.1499
  327MOL0     C43080   8.168   1.787   9.853 -0.3077  0.4997 -0.1113
  327MOL0     C43081   8.030   1.791   9.815 -0.1935  0.3059 -0.0240
  327MOL0     N43082   7.265   1.616   9.636  0.2599 -0.3127  0.5556
  327MOL0     N43083   7.218   1.520   9.555 -1.0417  0.0756 -0.2222
  327MOL0     C43084   6.347   1.122   8.976 -0.4090  0.3378  0.7541
  327MOL0     C43085   6.239   1.027   8.968 -0.8886 -0.1261 -0.2822
  327MOL0     C43086   6.026   0.673   9.112  0.2174 -0.3820  0.4336
  327MOL0     C43087   6.000   0.583   9.217  0.1800  0.1583  0.0503
  327MOL0     C43088   5.875   0.531   9.241  0.2714 -0.2535  0.2009
  327MOL0     C43089   5.764   0.579   9.160  0.3016 -0.5962  0.0717
  327MOL0     O43090   5.634   0.534   9.180  0.9650 -0.2210 -0.3151
  327MOL0     C43091   5.597   0.417   9.094 -0.7535 -1.0385 -0.2494
  327MOL0     C43092   5.518   0.309   9.168  0.0769 -0.2001 -0.4251
  327MOL0     C43093   5.400   0.361   9.250  0.0294  0.5858 -0.4080
  327MOL0     C43094   5.287   0.256   9.270  0.2117  0.3071  0.0865
  327MOL0     C43095   5.154   0.316   9.305  0.1294 -0.0665 -0.1568
  327MOL0     C43096   5.050   0.372   9.345 -0.0098 -0.2238 -0.4306
  327MOL0     C43097   5.785   0.676   9.061  0.4109  0.0814 -0.7496
  327MOL0     C43098   5.916   0.719   9.041 -0.1337 -0.4598  0.1271
  327MOL0     H43099   6.410   0.740   8.944 -1.7454 -0.1356 -1.1946
  327MOL0     H43100   6.603   0.912   8.928 -0.5066  1.4200  0.1137
  327MOL0     H43101   6.620   1.125   8.760 -0.8906  0.4600  0.6336
  327MOL0     H43102   6.749   1.092   8.881 -0.3678  0.5871  1.5757
  327MOL0     H43103   6.668   1.374   8.772  2.8373  0.8417 -0.6155
  327MOL0     H43104   6.810   1.266   8.740 -0.3255 -2.8854  0.7088
  327MOL0     H43105   6.872   1.283   8.978  0.8086  1.3292 -0.0807
  327MOL0     H43106   6.738   1.393   9.010 -2.5559 -0.6481 -1.9474
  327MOL0     H43107   6.982   1.437   8.819  0.9670  1.0652  0.5605
  327MOL0     H43108   6.838   1.540   8.817  1.3911  1.0836  0.7757
  327MOL0     H43109   6.866   1.593   9.052 -0.5277 -3.3456  2.5098
  327MOL0     H43110   7.016   1.623   8.951 -0.0679 -0.7346 -1.8391
  327MOL0     H43111   7.130   1.441   9.016  0.7897  2.4213 -0.9858
  327MOL0     H43112   7.002   1.382   9.121 -1.6187  0.3106 -1.3421
  327MOL0     H43113   7.185   1.618   9.158 -0.7744 -0.6288 -2.3066
  327MOL0     H43114   7.024   1.624   9.229  0.6675  1.8519 -0.6889
  327MOL0     H43115   7.238   1.422   9.292 -0.5671  1.2438 -2.7556
  327MOL0     H43116   7.078   1.415   9.360  0.3000 -1.5538 -1.9854
  327MOL0     H43117   7.279   1.761   9.345  2.0556 -2.6071 -1.5487
  327MOL0     H43118   7.331   1.865   9.696 -1.8311 -1.2290 -1.1155
  327MOL0     H43119   7.385   1.907   9.525 -0.3871 -0.8407 -0.9460
  327MOL0     H43120   7.583   1.788   9.542 -1.2433 -0.1315 -0.5031
  327MOL0     H43121   7.535   1.689   9.671 -0.8312 -0.4829 -1.6977
  327MOL0     H43122   7.634   1.974   9.669 -1.0222  2.5381  2.9905
  327MOL0     H43123   7.546   1.906   9.814 -0.5720  0.7435  0.1732
  327MOL0     H43124   7.731   1.725   9.815 -1.1649  0.3261  0.9029
  327MOL0     H43125   7.780   1.870   9.873 -2.8075  1.4271  0.4235
  327MOL0     H43126   8.047   1.915   9.508 -1.6546 -2.1483 -0.9727
  327MOL0     H43127   8.278   1.932   9.579 -0.8809  1.3360 -0.3834
  327MOL0     H43128   8.613   1.895   9.958 -0.3796  0.0060 -0.5232
  327MOL0     H43129   8.851   1.924   9.997 -1.1714  1.0193  1.1708
  327MOL0     H43130   9.104   2.057   9.637  1.0177 -0.1027 -0.0543
  327MOL0     H43131   9.095   1.887   9.683  0.9277  0.0963 -0.2352
  327MOL0     H43132   9.329   1.943   9.730  1.9565  0.3919  4.3208
  327MOL0     H43133   9.244   1.959   9.873 -5.4027 -1.1559 -0.6919
  327MOL0     H43134   9.229   2.220   9.825  1.3574  0.2263  1.7982
  327MOL0     H43135   9.339   2.191   9.693 -2.2756  1.3397 -0.9629
  327MOL0     H43136   9.385   2.111   9.980 -2.8673  0.6897 -0.8928
  327MOL0     H43137   9.502   2.065   9.854  1.2524  1.1934 -1.1443
  327MOL0     H43138   9.485   2.338   9.814  0.4174  0.0507  0.5623
  327MOL0     H43139   9.598   2.275   9.925  0.0214 -1.8920 -1.7477
  327MOL0     H43140   9.451   2.311  10.117 -0.1707 -1.3251 -0.1658
  327MOL0     H43141   9.314   2.362  10.016  0.5373  1.7724 -2.7448
  327MOL0     H43142   9.460   2.552  10.136 -0.5215  0.8650 -0.0543
  327MOL0     H43143   9.593   2.519  10.030  0.3202  0.8568 -4.3232
  327MOL0     H43144   9.310   2.577   9.918 -0.1939  3.2055 -0.5939
  327MOL0     H43145   9.474   2.568   9.835  1.1819  0.5623 -0.3207
  327MOL0     H43146   8.887   2.064   9.593  0.5945  0.4606  0.6397
  327MOL0     H43147   8.662   2.019   9.548 -2.2099 -0.9567  0.6091
  327MOL0     H43148   8.198   1.722   9.935  0.3877  0.0621 -0.7060
  327MOL0     H43149   7.966   1.723   9.871 -1.4085 -0.4919 -2.2241
  327MOL0     H43150   6.324   1.227   8.981 -0.6432  0.2685  1.1366
  327MOL0     H43151   6.135   1.058   8.979 -1.1431 -1.4510  1.4387
  327MOL0     H43152   6.084   0.546   9.275  1.4385  2.0058 -0.5000
  327MOL0     H43153   5.865   0.446   9.307  4.0894 -2.2768 -1.4922
  327MOL0     H43154   5.685   0.374   9.045  0.6352 -1.3350  2.3539
  327MOL0     H43155   5.537   0.461   9.014  0.4026  3.9476  1.2922
  327MOL0     H43156   5.481   0.234   9.098  0.5188 -0.2132 -0.6507
  327MOL0     H43157   5.597   0.260   9.226  0.6801 -0.3719 -1.3658
  327MOL0     H43158   5.348   0.435   9.188  2.6453  2.2804 -0.7336
  327MOL0     H43159   5.425   0.401   9.349 -0.3433  0.6536 -0.3391
  327MOL0     H43160   5.264   0.202   9.177 -1.0183  2.2014 -0.7711
  327MOL0     H43161   5.311   0.183   9.348 -0.1325 -0.5569 -0.5926
  327MOL0     H43162   4.971   0.433   9.384 -0.1754 -1.9766  2.2939
  327MOL0     H43163   5.703   0.715   9.002 -0.2543 -1.3401 -0.8114
  327MOL0     H43164   5.927   0.788   8.958 -1.8466  1.3030  1.2613
  328MOL0     O43165   1.408   1.750   4.242 -0.4442  0.0292 -0.5746
  328MOL0     C43166   1.522   1.711   4.222 -0.0877  0.3507  0.1899
  328MOL0     O43167   1.559   1.581   4.188 -0.1564 -0.2200  0.4625
  328MOL0     C43168   1.467   1.478   4.206  0.3582  0.1587  0.3857
  328MOL0     C43169   1.480   1.373   4.118 -0.3141  0.1329 -0.5019
  328MOL0     C43170   1.406   1.258   4.134  0.8614  0.2003  0.3855
  328MOL0     C43171   1.301   1.247   4.228  0.0152 -0.6336 -0.1669
  328MOL0     O43172   1.223   1.142   4.245  0.3161  0.2815 -0.4276
  328MOL0     C43173   1.082   1.164   4.229  0.4532 -0.5620  0.1920
  328MOL0     C43174   1.011   1.034   4.255 -0.1060  0.3304 -0.8860
  328MOL0     C43175   0.855   1.042   4.246 -0.7421 -1.4509  0.6311
  328MOL0     C43176   0.795   0.906   4.293  0.3461  0.7370  0.3764
  328MOL0     C43177   0.652   0.889   4.233  0.9666  0.4111 -0.1750
  328MOL0     C43178   0.572   0.768   4.316 -0.5778 -0.0553 -0.3364
  328MOL0     C43179   0.556   0.782   4.474 -0.2027  0.6908  0.4430
  328MOL0     C43180   0.469   0.899   4.513  0.4857  0.0053 -0.0068
  328MOL0     N43181   0.352   0.919   4.427 -0.4122  0.1985 -0.6544
  328MOL0     C43182   0.229   0.867   4.457  0.5264  0.0675 -0.4759
  328MOL0     C43183   0.150   0.900   4.352 -0.3455  0.5649  0.3102
  328MOL0     C43184   0.007   0.863   4.344 -1.1230 -0.3704 -0.4630
  328MOL0     C43185  -0.094   0.926   4.241 -0.2210  0.0520 -0.9549
  328MOL0     C43186  -0.094   0.839   4.108 -0.3405 -0.2818 -0.9624
  328MOL0     C43187  -0.196   0.898   4.019 -0.4831 -0.5461  0.1830
  328MOL0     O43188  -0.325   0.848   4.052 -0.1870  0.3224  0.5669
  328MOL0     C43189  -0.429   0.911   3.985 -0.0204  0.2770  0.2452
  328MOL0     C43190  -0.558   0.866   4.015  0.9365  0.0729 -0.5405
  328MOL0     C43191  -0.670   0.934   3.965  0.2466 -0.6742 -0.2415
  328MOL0     C43192  -0.655   1.028   3.869  0.7367  0.5666 -0.0685
  328MOL0     C43193  -0.784   1.077   3.799 -0.8018 -0.2885 -0.1795
  328MOL0     O43194  -0.752   1.163   3.698  0.1364  0.1982 -0.6250
  328MOL0     C43195  -0.855   1.225   3.630 -1.0386 -0.7982  0.8759
  328MOL0     C43196  -0.837   1.234   3.492  0.2433  0.5635  0.9514
  328MOL0     C43197  -0.924   1.306   3.411  0.1347  0.6484  0.9334
  328MOL0     C43198  -1.047   1.344   3.457  0.1852 -0.6396 -0.1463
  328MOL0     O43199  -1.129   1.412   3.368  0.0441  0.8105  0.2460
  328MOL0     C43200  -1.221   1.507   3.416 -0.4383  0.4812  0.1442
  328MOL0     C43201  -1.363   1.444   3.426 -0.8386 -0.1307 -0.2652
  328MOL0     C43202  -1.484   1.540   3.434  0.0907 -0.6095  0.6373
  328MOL0     C43203  -1.501   1.631   3.316  0.2584 -0.1735  0.2250
  328MOL0     C43204  -1.626   1.727   3.347  0.3596  0.0856 -0.2548
  328MOL0     C43205  -1.584   1.834   3.448 -0.2419 -0.2492  0.2948
  328MOL0     C43206  -1.697   1.918   3.487  0.6258 -0.2548  0.2155
  328MOL0     C43207  -1.661   2.009   3.607 -0.0313  0.7341  0.2836
  328MOL0    Cl43208  -1.534   2.121   3.535  0.1604 -0.4970 -0.0554
  328MOL0     C43209  -1.077   1.323   3.592  0.8205 -0.0608  0.6631
  328MOL0     C43210  -0.982   1.262   3.679 -0.0848 -0.0903  1.0577
  328MOL0     O43211  -0.895   1.036   3.835 -0.5273  0.1248 -0.2364
  328MOL0     C43212  -0.526   1.066   3.835 -0.2199 -0.5667  0.0352
  328MOL0     C43213  -0.416   1.022   3.900  0.4827 -0.1826  0.2160
  328MOL0     N43214   0.228   0.973   4.254 -0.4169  0.3509 -1.3331
  328MOL0     N43215   0.344   0.995   4.305 -0.5301  0.1743  0.1497
  328MOL0     C43216   1.289   1.356   4.316  0.3242 -0.2142 -0.6779
  328MOL0     C43217   1.375   1.466   4.311 -0.1785  1.0360  0.1682
  328MOL0     C43218   1.628   1.816   4.205 -0.9810 -0.3082  0.0066
  328MOL0     C43219   1.611   1.945   4.261 -0.1398  1.0404 -0.6625
  328MOL0     C43220   1.701   2.047   4.242 -0.3321 -0.3648 -0.0151
  328MOL0     C43221   1.825   2.020   4.176  0.1914 -0.8613 -0.2272
  328MOL0     O43222   1.921   2.105   4.140 -0.1195 -0.5082 -0.2291
  328MOL0     C43223   1.975   2.197   4.239 -0.0183  0.4208 -0.4364
  328MOL0     C43224   2.077   2.282   4.170  0.0437 -0.2165 -0.3099
  328MOL0     C43225   2.204   2.192   4.137  0.4799 -0.3601  0.8804
  328MOL0     C43226   2.312   2.273   4.070  0.0192  0.4920  0.2379
  328MOL0     C43227   2.355   2.384   4.151 -0.3764  0.1362  0.2503
  328MOL0     C43228   2.391   2.457   4.234 -0.6165 -0.6386 -0.2671
  328MOL0     C43229   1.848   1.895   4.115 -0.1025  0.6593 -0.1511
  328MOL0     C43230   1.751   1.794   4.131 -0.4391 -0.0589 -0.0927
  328MOL0     H43231   1.556   1.362   4.042 -0.5464  0.5989 -0.8060
  328MOL0     H43232   1.411   1.182   4.057  2.0697  0.9700 -0.3277
  328MOL0     H43233   1.060   1.194   4.126  1.2473  0.8045  0.4010
  328MOL0     H43234   1.031   1.237   4.291 -0.7560  1.4108 -2.9085
  328MOL0     H43235   1.035   1.001   4.356  0.2396  1.3859 -0.6064
  328MOL0     H43236   1.038   0.958   4.181 -2.4672  0.0526 -1.5723
  328MOL0     H43237   0.818   1.061   4.145  0.7082  2.3432  0.6785
  328MOL0     H43238   0.831   1.125   4.313  0.4849 -0.9712  0.4936
  328MOL0     H43239   0.852   0.821   4.256 -0.0210  1.0875 -1.0797
  328MOL0     H43240   0.806   0.894   4.401 -0.0929 -1.3380  0.2146
  328MOL0     H43241   0.651   0.866   4.127 -1.3458 -2.0008  0.2733
  328MOL0     H43242   0.591   0.979   4.246 -0.6293 -0.4544 -1.4532
  328MOL0     H43243   0.631   0.677   4.301 -2.2810 -1.7624  2.5380
  328MOL0     H43244   0.475   0.745   4.271 -1.7272 -0.1784  2.0566
  328MOL0     H43245   0.511   0.687   4.505  0.9571 -0.0447 -0.0655
  328MOL0     H43246   0.658   0.792   4.513 -0.2760  1.4969  0.4550
  328MOL0     H43247   0.524   0.993   4.504  2.2602 -0.7910  1.7559
  328MOL0     H43248   0.438   0.900   4.617  1.6489  1.6441  0.3775
  328MOL0     H43249   0.193   0.820   4.548 -1.7575 -1.4591 -2.0801
  328MOL0     H43250  -0.030   0.885   4.445  0.0846  2.4718 -0.5354
  328MOL0     H43251   0.001   0.755   4.330 -4.2466 -0.0585 -2.4884
  328MOL0     H43252  -0.068   1.031   4.232  0.6210  0.3683  3.2312
  328MOL0     H43253  -0.192   0.921   4.289 -0.1701 -1.0110 -0.9239
  328MOL0     H43254   0.003   0.846   4.060 -2.0211 -0.2992 -4.7221
  328MOL0     H43255  -0.106   0.733   4.134 -0.2224  0.3512  2.0292
  328MOL0     H43256  -0.152   0.882   3.921  0.0517  0.2877  0.2782
  328MOL0     H43257  -0.197   1.006   4.037 -0.7512 -0.4505 -0.3866
  328MOL0     H43258  -0.565   0.781   4.081 -1.3945  1.6108  1.3702
  328MOL0     H43259  -0.772   0.916   3.997 -1.4647  1.4298 -3.8462
  328MOL0     H43260  -0.740   1.197   3.460 -0.8089 -1.2942 -0.3344
  328MOL0     H43261  -0.902   1.320   3.306 -1.0158 -0.7968  0.4744
  328MOL0     H43262  -1.223   1.592   3.347 -2.8036  1.0317  0.7964
  328MOL0     H43263  -1.197   1.552   3.513 -2.2120  0.6011  0.5696
  328MOL0     H43264  -1.364   1.381   3.515  1.6551 -1.8686 -1.3651
  328MOL0     H43265  -1.382   1.390   3.333  1.1162  0.5514 -1.1256
  328MOL0     H43266  -1.479   1.598   3.527  0.1984  1.2893 -0.5010
  328MOL0     H43267  -1.573   1.477   3.426 -3.0008  3.5621 -2.6530
  328MOL0     H43268  -1.417   1.697   3.297 -1.5027  2.2453  0.3792
  328MOL0     H43269  -1.519   1.566   3.230 -0.9893 -0.1609  0.4588
  328MOL0     H43270  -1.709   1.670   3.390 -0.9971  0.8324 -1.7436
  328MOL0     H43271  -1.663   1.777   3.256  2.0807  2.1562  0.1058
  328MOL0     H43272  -1.515   1.892   3.387  0.8602 -2.4607 -0.6654
  328MOL0     H43273  -1.535   1.792   3.536  1.7090 -1.4388 -1.2702
  328MOL0     H43274  -1.720   1.984   3.403 -1.6574  0.1315  1.0667
  328MOL0     H43275  -1.779   1.855   3.522  1.6912 -0.7431  1.9798
  328MOL0     H43276  -1.624   1.959   3.697  1.2168  1.1439  0.0190
  328MOL0     H43277  -1.749   2.060   3.648 -1.3411 -0.6572 -0.6710
  328MOL0     H43278  -1.175   1.355   3.627 -0.0094  1.1707 -2.4616
  328MOL0     H43279  -1.020   1.265   3.780  0.6722  4.3151  1.4107
  328MOL0     H43280  -0.502   1.141   3.760  3.3127 -1.8661 -0.3329
  328MOL0     H43281  -0.318   1.055   3.868  1.9429 -3.2201  1.1635
  328MOL0     H43282   1.217   1.353   4.397 -0.9097  1.0512 -1.6758
  328MOL0     H43283   1.368   1.548   4.382 -1.0141  1.3295 -0.2436
  328MOL0     H43284   1.523   1.968   4.320  0.6670  1.1150  0.5498
  328MOL0     H43285   1.682   2.146   4.283 -1.1084 -1.3436  2.1657
  328MOL0     H43286   2.031   2.135   4.310  1.8624  0.8582 -1.4690
  328MOL0     H43287   1.902   2.264   4.284 -0.0808  0.8545 -1.1727
  328MOL0     H43288   2.026   2.348   4.099 -1.3512  0.3606  1.1772
  328MOL0     H43289   2.102   2.346   4.254 -2.9299 -1.1263  1.4249
  328MOL0     H43290   2.170   2.108   4.076  1.2115 -2.0917  2.7582
  328MOL0     H43291   2.232   2.150   4.234 -0.9900 -0.1618  1.4138
  328MOL0     H43292   2.401   2.211   4.053  1.2655  2.5197 -1.0216
  328MOL0     H43293   2.286   2.314   3.972  2.1349  1.7594  0.1484
  328MOL0     H43294   2.413   2.528   4.311 -0.0913  2.2100 -2.8859
  328MOL0     H43295   1.944   1.873   4.069  0.4784 -1.3951  1.8546
  328MOL0     H43296   1.771   1.698   4.084 -1.0241  0.4140 -1.3316
  329MOL0     O43297   3.198   6.626   1.676 -0.3349  0.4705 -0.1904
  329MOL0     C43298   3.171   6.546   1.586  0.9824  0.2295 -0.6231
  329MOL0     O43299   3.050   6.512   1.541  0.0255 -0.4251 -0.3752
  329MOL0     C43300   2.942   6.538   1.623 -0.4213  0.3999  0.1052
  329MOL0     C43301   2.819   6.559   1.560  0.6959 -0.2430 -0.3630
  329MOL0     C43302   2.714   6.575   1.635  0.9942 -0.1773 -0.0219
  329MOL0     C43303   2.710   6.555   1.775 -0.4367  0.3786 -0.1589
  329MOL0     O43304   2.591   6.569   1.835  0.3317  0.0863  0.2637
  329MOL0     C43305   2.589   6.612   1.970  0.3041 -0.6396  0.5233
  329MOL0     C43306   2.475   6.715   1.986  0.3037  0.3036  0.2498
  329MOL0     C43307   2.429   6.804   1.861 -0.1831  0.2928  0.2224
  329MOL0     C43308   2.304   6.879   1.885  0.5589 -0.4725 -0.5917
  329MOL0     C43309   2.263   6.961   1.760  0.1131  0.3759 -0.6872
  329MOL0     C43310   2.120   7.010   1.787 -0.3438 -0.5924  0.3497
  329MOL0     C43311   2.078   7.119   1.686  0.1267 -0.0860 -0.7672
  329MOL0     C43312   1.921   7.122   1.686  0.0606  0.3640  0.5819
  329MOL0     N43313   1.862   7.103   1.824  0.4793 -0.7442 -0.4520
  329MOL0     C43314   1.855   7.199   1.920 -0.2696  0.1926 -0.2855
  329MOL0     C43315   1.809   7.143   2.035  0.0565 -0.5625  0.3232
  329MOL0     C43316   1.784   7.224   2.152 -0.7392 -0.3600  0.1811
  329MOL0     C43317   1.644   7.286   2.144 -0.3598 -0.1638  0.2739
  329MOL0     C43318   1.531   7.183   2.132  0.5742  1.0834 -0.6053
  329MOL0     C43319   1.505   7.105   2.263  0.2708  0.5341 -0.0516
  329MOL0     O43320   1.432   7.182   2.361 -0.0390  0.4361  0.0075
  329MOL0     C43321   1.300   7.220   2.332  0.0053  0.9171 -0.4588
  329MOL0     C43322   1.210   7.145   2.250  0.5653  0.0781 -0.3162
  329MOL0     C43323   1.081   7.200   2.228  0.2511 -0.3074  0.2643
  329MOL0     C43324   1.037   7.324   2.293  0.5621 -0.1398 -0.2561
  329MOL0     C43325   0.905   7.398   2.258 -0.3385  0.3026 -0.2558
  329MOL0     O43326   0.830   7.335   2.170 -0.2797 -0.5196  0.0218
  329MOL0     C43327   0.697   7.378   2.149 -0.0891 -0.2655 -0.1845
  329MOL0     C43328   0.598   7.307   2.211  0.7287 -0.2122 -0.4407
  329MOL0     C43329   0.463   7.347   2.176  0.3323  0.7359 -0.6170
  329MOL0     C43330   0.437   7.444   2.076  0.1811 -0.5085  0.0251
  329MOL0     O43331   0.299   7.461   2.048 -0.2344 -0.2906  0.1971
  329MOL0     C43332   0.256   7.535   1.930 -0.1911 -0.2064 -0.8738
  329MOL0     C43333   0.108   7.572   1.932 -0.7155  0.1189 -0.2735
  329MOL0     C43334   0.016   7.454   1.967 -0.6146  0.5519  0.1804
  329MOL0     C43335  -0.124   7.498   1.965  0.5290 -0.1898 -0.6026
  329MOL0     C43336  -0.219   7.383   1.998  0.2075  0.5869  0.1687
  329MOL0     C43337  -0.364   7.414   1.975 -0.2196  0.0500 -1.1176
  329MOL0     C43338  -0.433   7.280   2.009  0.3428  0.5190  0.9857
  329MOL0     C43339  -0.588   7.277   2.015 -0.6845 -1.1000 -0.6179
  329MOL0    Cl43340  -0.650   7.356   1.866  0.4563  0.2482 -0.4458
  329MOL0     C43341   0.541   7.504   2.002  0.2810  0.5994 -0.2648
  329MOL0     C43342   0.674   7.466   2.041  0.3103 -1.3540 -0.1043
  329MOL0     O43343   0.876   7.498   2.324  0.1522  1.0839  0.2127
  329MOL0     C43344   1.131   7.386   2.390  0.1492  0.2972  0.6489
  329MOL0     C43345   1.254   7.329   2.402  0.7346 -0.2913  0.4870
  329MOL0     N43346   1.779   7.011   2.004  0.8464 -0.7427 -0.7490
  329MOL0     N43347   1.801   6.994   1.877 -0.2378 -0.4168 -0.4567
  329MOL0     C43348   2.830   6.531   1.850  0.6633 -0.0520  0.6256
  329MOL0     C43349   2.946   6.523   1.763 -0.3041  0.8484 -0.8058
  329MOL0     C43350   3.288   6.471   1.533 -0.0268  0.1510 -0.2948
  329MOL0     C43351   3.270   6.361   1.437  0.3352 -0.0481 -1.3837
  329MOL0     C43352   3.385   6.293   1.382 -0.3666  0.0639  0.3251
  329MOL0     C43353   3.513   6.329   1.412 -0.3514  0.4565  1.2209
  329MOL0     O43354   3.620   6.264   1.348  0.6949 -0.2976  0.6017
  329MOL0     C43355   3.761   6.287   1.370 -0.4551 -0.5626  0.9613
  329MOL0     C43356   3.826   6.151   1.339  0.1637 -0.0843 -0.1366
  329MOL0     C43357   3.970   6.168   1.321 -0.2260 -0.8735  0.4164
  329MOL0     C43358   4.046   6.044   1.292 -0.7677  1.4281  0.6107
  329MOL0     C43359   4.190   6.056   1.256 -0.3808  0.6202 -0.3363
  329MOL0     C43360   4.306   6.084   1.235 -0.8662  0.0996 -0.3485
  329MOL0     C43361   3.527   6.438   1.500 -0.4945  0.1339 -0.1236
  329MOL0     C43362   3.423   6.510   1.558 -0.0324  0.2966  0.0306
  329MOL0     H43363   2.810   6.575   1.453  1.5142 -2.5495 -0.8181
  329MOL0     H43364   2.618   6.593   1.588  1.7402  1.4662 -1.0115
  329MOL0     H43365   2.669   6.680   1.998  0.2454 -0.2481 -0.2418
  329MOL0     H43366   2.578   6.534   2.047 -0.0405 -2.0145 -0.8577
  329MOL0     H43367   2.503   6.779   2.070  0.0164  1.4658 -0.5121
  329MOL0     H43368   2.389   6.657   2.018 -0.4056  0.1220 -1.8255
  329MOL0     H43369   2.417   6.736   1.777 -0.0396 -1.6698  1.7329
  329MOL0     H43370   2.512   6.871   1.837 -1.1530  1.1649 -0.8114
  329MOL0     H43371   2.217   6.813   1.896 -0.7166  0.8287 -2.3113
  329MOL0     H43372   2.303   6.937   1.977 -2.1601 -2.3974  0.7218
  329MOL0     H43373   2.277   6.900   1.670 -2.3468 -0.3482 -0.6614
  329MOL0     H43374   2.327   7.048   1.743 -0.6836  1.3047  0.7839
  329MOL0     H43375   2.105   7.033   1.893  1.0875 -0.8391  0.6258
  329MOL0     H43376   2.057   6.926   1.756 -1.4019 -0.3127  1.6707
  329MOL0     H43377   2.130   7.205   1.728  1.5689 -1.6046  0.7357
  329MOL0     H43378   2.119   7.104   1.586 -0.2106 -0.4005 -0.8615
  329MOL0     H43379   1.884   7.039   1.626 -0.4283  1.0100 -0.0404
  329MOL0     H43380   1.890   7.208   1.626  3.1412 -0.8343 -3.1220
  329MOL0     H43381   1.883   7.303   1.908 -2.6982  0.9515  0.0008
  329MOL0     H43382   1.860   7.303   2.148 -1.7269  0.7508  2.0235
  329MOL0     H43383   1.796   7.178   2.250 -1.2939  1.6297  1.2331
  329MOL0     H43384   1.637   7.362   2.067 -1.1948 -0.7972 -0.3013
  329MOL0     H43385   1.624   7.338   2.238  2.2798 -0.8993  1.3250
  329MOL0     H43386   1.438   7.233   2.103  1.2693  2.6810 -0.1818
  329MOL0     H43387   1.551   7.104   2.060 -2.2191  0.6110 -0.9782
  329MOL0     H43388   1.602   7.068   2.296  0.4881  1.2420  0.1216
  329MOL0     H43389   1.445   7.015   2.245 -0.4796  0.3045  3.1136
  329MOL0     H43390   1.236   7.051   2.203  0.1269 -0.1325 -0.1391
  329MOL0     H43391   1.006   7.143   2.174 -0.1050 -3.4008  3.6265
  329MOL0     H43392   0.607   7.231   2.287  0.2140  0.5403  0.3921
  329MOL0     H43393   0.374   7.310   2.227 -1.4654 -0.1925 -4.1314
  329MOL0     H43394   0.272   7.475   1.840 -0.1341 -3.0465  0.9007
  329MOL0     H43395   0.312   7.629   1.926 -1.6434  0.8699  1.3864
  329MOL0     H43396   0.077   7.620   1.839  1.3800  3.2318  0.4732
  329MOL0     H43397   0.099   7.655   2.002  0.2731 -0.6451  0.7987
  329MOL0     H43398   0.051   7.416   2.064 -1.1254  2.2907  1.1026
  329MOL0     H43399   0.027   7.382   1.885 -0.3934  2.2262 -1.3163
  329MOL0     H43400  -0.134   7.587   2.029 -0.3613  0.3287 -1.4420
  329MOL0     H43401  -0.147   7.526   1.862  1.6334 -0.6222 -0.9786
  329MOL0     H43402  -0.203   7.357   2.103 -1.1973  0.0350  0.2696
  329MOL0     H43403  -0.191   7.296   1.937 -0.4907 -0.3309  1.1327
  329MOL0     H43404  -0.401   7.434   1.874 -4.5943 -0.7704  0.1114
  329MOL0     H43405  -0.399   7.493   2.042 -0.1910 -1.0537  0.2506
  329MOL0     H43406  -0.408   7.213   1.926 -2.9491  0.4399 -0.0925
  329MOL0     H43407  -0.379   7.248   2.099  2.1712  0.2818 -0.1448
  329MOL0     H43408  -0.616   7.342   2.099  1.0290 -0.9534 -0.1193
  329MOL0     H43409  -0.624   7.176   2.032  1.0770 -1.8767 -1.2372
  329MOL0     H43410   0.540   7.572   1.918 -2.6456 -0.4803 -1.2170
  329MOL0     H43411   0.761   7.511   1.993 -0.7444  1.5603  0.5144
  329MOL0     H43412   1.112   7.473   2.452 -4.4007 -0.9535  1.4283
  329MOL0     H43413   1.328   7.374   2.467 -0.7006 -1.2787  2.8976
  329MOL0     H43414   2.836   6.527   1.958  0.5309  1.0726  0.6942
  329MOL0     H43415   3.039   6.496   1.811  0.1999  0.1409 -2.1187
  329MOL0     H43416   3.170   6.328   1.413 -0.5971 -0.4284  2.3275
  329MOL0     H43417   3.384   6.199   1.328  1.4948 -0.7663  1.6427
  329MOL0     H43418   3.775   6.304   1.477 -0.3597  0.7455  0.7683
  329MOL0     H43419   3.820   6.365   1.321  1.4590 -1.4751  1.6846
  329MOL0     H43420   3.796   6.079   1.416 -2.5280 -0.2022 -1.1737
  329MOL0     H43421   3.792   6.116   1.240 -0.3452 -0.3052  0.1115
  329MOL0     H43422   4.005   6.211   1.415 -1.4083 -1.6810  1.2538
  329MOL0     H43423   3.980   6.227   1.230  0.4915  0.5001  1.3470
  329MOL0     H43424   4.034   5.971   1.373 -5.6381  0.6985 -0.4681
  329MOL0     H43425   4.001   5.995   1.205 -2.2110  0.6802  1.7289
  329MOL0     H43426   4.405   6.119   1.215  0.5211 -3.8215 -1.1944
  329MOL0     H43427   3.627   6.477   1.520  0.1384 -0.6145 -1.6414
  329MOL0     H43428   3.442   6.588   1.631  0.1488 -0.5349  0.8874
  330MOL0     O43429   3.062   3.326   0.458  0.1197  0.9926 -0.2051
  330MOL0     C43430   3.180   3.299   0.466  0.5836 -0.2004 -0.3411
  330MOL0     O43431   3.238   3.185   0.416  0.1870  0.2032  0.3807
  330MOL0     C43432   3.143   3.098   0.368  0.4528 -0.8542  0.5301
  330MOL0     C43433   3.160   3.029   0.245  0.7424 -0.4431  0.0411
  330MOL0     C43434   3.063   2.942   0.194 -0.2147 -0.3503  0.7693
  330MOL0     C43435   2.951   2.914   0.263 -0.6534 -0.2012  0.8214
  330MOL0     O43436   2.857   2.827   0.218 -0.0024 -0.7997  0.2626
  330MOL0     C43437   2.712   2.870   0.237 -0.1268  0.0493 -0.7809
  330MOL0     C43438   2.620   2.767   0.175  0.1056 -0.5452 -0.3790
  330MOL0     C43439   2.486   2.831   0.141  1.3059  0.2118  1.0357
  330MOL0     C43440   2.377   2.841   0.250 -0.4472 -0.4079  0.3441
  330MOL0     C43441   2.254   2.927   0.206 -0.2463  0.3295 -0.5227
  330MOL0     C43442   2.117   2.857   0.255 -0.1372  0.7198 -1.3329
  330MOL0     C43443   2.018   2.951   0.320  0.3537 -0.6030  0.1761
  330MOL0     C43444   1.883   2.881   0.368  0.0122 -0.1913  0.1049
  330MOL0     N43445   1.796   2.988   0.417 -0.2191  0.5241 -0.2248
  330MOL0     C43446   1.815   3.055   0.532 -0.4094 -0.6621 -0.0675
  330MOL0     C43447   1.739   3.160   0.527  0.5643 -0.2921 -0.0834
  330MOL0     C43448   1.737   3.268   0.626 -0.0390 -0.0641 -1.1295
  330MOL0     C43449   1.730   3.218   0.774 -1.1713 -0.0261  0.8009
  330MOL0     C43450   1.721   3.319   0.887 -0.4439  0.1873  0.2894
  330MOL0     C43451   1.606   3.418   0.872 -1.3767 -0.5506 -0.6595
  330MOL0     O43452   1.485   3.340   0.874 -0.3323 -0.2305 -0.2650
  330MOL0     C43453   1.384   3.363   0.952 -0.1821  0.5271  0.2919
  330MOL0     C43454   1.269   3.281   0.927 -0.1695  0.4610 -0.1208
  330MOL0     C43455   1.151   3.291   0.993 -0.4738  0.2150  0.4632
  330MOL0     C43456   1.132   3.394   1.092 -0.5413 -0.3750  0.0716
  330MOL0     C43457   1.014   3.401   1.170 -0.0050 -0.3470 -0.7191
  330MOL0     O43458   0.904   3.346   1.120  0.3102 -0.0800 -0.4702
  330MOL0     C43459   0.778   3.340   1.182 -0.1201 -0.5028 -0.5061
  330MOL0     C43460   0.721   3.438   1.267 -0.6718 -0.6157 -0.6450
  330MOL0     C43461   0.590   3.415   1.323  0.1641 -0.3562 -0.3274
  330MOL0     C43462   0.518   3.307   1.284 -0.2609  0.9750  0.0395
  330MOL0     O43463   0.384   3.285   1.325 -0.3626 -0.0336 -0.6927
  330MOL0     C43464   0.294   3.397   1.301  0.5779 -0.4972  0.1676
  330MOL0     C43465   0.176   3.410   1.394  0.1967 -0.6396 -0.0673
  330MOL0     C43466   0.085   3.296   1.386  0.4977  0.3365  0.2224
  330MOL0     C43467  -0.019   3.310   1.503 -0.1122 -0.1432 -0.5327
  330MOL0     C43468  -0.164   3.264   1.477 -0.1834  0.6016  1.0243
  330MOL0     C43469  -0.264   3.367   1.541 -0.8061  0.3710  0.1863
  330MOL0     C43470  -0.405   3.300   1.577  0.6100 -0.2388 -0.4872
  330MOL0     C43471  -0.516   3.392   1.633 -0.0623 -0.2003  0.6414
  330MOL0    Cl43472  -0.468   3.481   1.779 -0.2115 -0.2850  0.5754
  330MOL0     C43473   0.572   3.216   1.192 -0.4903  0.7860 -0.4252
  330MOL0     C43474   0.703   3.227   1.146  0.2732 -0.2160 -0.6699
  330MOL0     O43475   1.026   3.450   1.281  0.4050 -0.1901  0.2908
  330MOL0     C43476   1.245   3.476   1.117  0.3452 -1.0991 -0.2584
  330MOL0     C43477   1.366   3.464   1.048  0.3684  0.1629  0.1904
  330MOL0     N43478   1.652   3.145   0.412  0.7286 -1.0290 -0.4700
  330MOL0     N43479   1.701   3.051   0.342 -0.0979  0.2885  1.0164
  330MOL0     C43480   2.941   2.954   0.394  0.1098  0.3326 -0.0014
  330MOL0     C43481   3.024   3.058   0.436  0.0135  0.5251 -0.2869
  330MOL0     C43482   3.261   3.401   0.527  0.5360 -0.3690  0.1641
  330MOL0     C43483   3.398   3.383   0.550  0.3338  0.6349  0.7125
  330MOL0     C43484   3.474   3.474   0.625  0.3356 -1.0372 -0.1696
  330MOL0     C43485   3.418   3.597   0.662 -0.1074  1.5631 -0.0487
  330MOL0     O43486   3.511   3.689   0.706 -0.1068  0.3038 -0.1780
  330MOL0     C43487   3.464   3.788   0.798  0.4793 -0.6370 -0.2921
  330MOL0     C43488   3.577   3.838   0.894  0.0277  0.3314 -0.0093
  330MOL0     C43489   3.689   3.902   0.817  0.2363 -0.3356 -0.0493
  330MOL0     C43490   3.775   3.989   0.912  0.4374  0.5734  0.0332
  330MOL0     C43491   3.892   4.035   0.836 -0.6759 -0.6252 -0.0897
  330MOL0     C43492   3.994   4.058   0.790  0.2566  0.0436  0.9575
  330MOL0     C43493   3.280   3.619   0.646 -0.2721  0.1939 -1.1019
  330MOL0     C43494   3.203   3.513   0.585  0.3241  0.0706 -0.5039
  330MOL0     H43495   3.252   3.044   0.190  1.7893  2.5619  2.2807
  330MOL0     H43496   3.094   2.881   0.110  1.9612 -0.2994  1.4590
  330MOL0     H43497   2.711   2.968   0.189 -0.6671 -0.1276 -1.1417
  330MOL0     H43498   2.689   2.884   0.343 -2.4784 -0.4448 -1.1812
  330MOL0     H43499   2.603   2.679   0.239 -0.1670 -1.8647 -2.1911
  330MOL0     H43500   2.668   2.729   0.085 -1.6235 -1.5036 -0.9457
  330MOL0     H43501   2.442   2.779   0.056  1.9719  3.5390 -1.5271
  330MOL0     H43502   2.496   2.935   0.108 -0.6996  0.0364 -0.3481
  330MOL0     H43503   2.345   2.738   0.271 -0.0106 -0.4334  0.9278
  330MOL0     H43504   2.408   2.878   0.348 -0.0769  1.2983 -0.3876
  330MOL0     H43505   2.261   2.937   0.098  1.0650  0.5484 -0.4309
  330MOL0     H43506   2.271   3.026   0.250 -0.7004  0.8232 -1.4296
  330MOL0     H43507   2.134   2.770   0.319 -2.2532  0.7845 -0.6057
  330MOL0     H43508   2.058   2.813   0.175 -1.1753 -2.6641  1.0877
  330MOL0     H43509   2.073   3.001   0.401  1.9611 -1.2540 -0.4705
  330MOL0     H43510   2.007   3.030   0.246  1.8016 -2.3965 -2.1127
  330MOL0     H43511   1.902   2.804   0.443 -1.8216 -1.6584 -0.8777
  330MOL0     H43512   1.839   2.830   0.282  0.8962 -0.4319 -0.2171
  330MOL0     H43513   1.902   3.045   0.597  0.6319 -0.3894 -1.3648
  330MOL0     H43514   1.653   3.336   0.609 -0.4576 -0.2325  0.1608
  330MOL0     H43515   1.819   3.339   0.613  0.2361 -0.4435 -1.4809
  330MOL0     H43516   1.823   3.164   0.795 -1.6617 -1.5215 -0.7259
  330MOL0     H43517   1.643   3.153   0.778 -0.0978 -1.5190  0.6386
  330MOL0     H43518   1.700   3.258   0.976 -0.4827  1.8000  1.4475
  330MOL0     H43519   1.815   3.373   0.902  0.8636 -2.2437  1.3803
  330MOL0     H43520   1.623   3.477   0.781  0.7811  3.2554  1.9618
  330MOL0     H43521   1.608   3.492   0.952 -0.5526 -0.5324 -0.6855
  330MOL0     H43522   1.273   3.207   0.847 -0.8245 -1.9486  1.9144
  330MOL0     H43523   1.073   3.218   0.972 -1.4582  0.8719  1.6589
  330MOL0     H43524   0.781   3.525   1.294  2.9839 -2.8971 -0.7677
  330MOL0     H43525   0.565   3.494   1.392  2.9862 -0.4640  0.9204
  330MOL0     H43526   0.260   3.387   1.197  1.7382 -1.4956 -0.1415
  330MOL0     H43527   0.347   3.493   1.298 -3.1034  1.7171 -1.4541
  330MOL0     H43528   0.122   3.500   1.363 -1.4074 -0.4946  2.7879
  330MOL0     H43529   0.216   3.425   1.495 -1.5344 -1.0895  0.7249
  330MOL0     H43530   0.133   3.197   1.391 -1.2377 -0.5056  0.8266
  330MOL0     H43531   0.036   3.291   1.289 -1.0051  2.9783  0.7691
  330MOL0     H43532   0.019   3.250   1.586 -0.7981 -0.4909 -0.4627
  330MOL0     H43533  -0.023   3.416   1.530  0.8412 -0.1068 -0.5089
  330MOL0     H43534  -0.173   3.162   1.516  2.6094  0.5235  1.6597
  330MOL0     H43535  -0.190   3.263   1.371 -0.1948 -4.5140  0.8324
  330MOL0     H43536  -0.275   3.450   1.470  0.6339  1.8017  1.5345
  330MOL0     H43537  -0.221   3.410   1.633  3.3166  0.5486 -1.6108
  330MOL0     H43538  -0.443   3.252   1.486 -1.6998  0.8701 -0.1962
  330MOL0     H43539  -0.381   3.228   1.656 -1.0610  0.1159  0.3994
  330MOL0     H43540  -0.603   3.331   1.660 -0.6298  1.4820  2.9939
  330MOL0     H43541  -0.557   3.456   1.554  0.7622 -0.6792 -0.1848
  330MOL0     H43542   0.515   3.127   1.167 -1.3691  0.8699  1.1699
  330MOL0     H43543   0.739   3.147   1.082 -1.9351 -1.5648 -0.3114
  330MOL0     H43544   1.239   3.562   1.183  1.4617  0.1105 -1.6565
  330MOL0     H43545   1.439   3.539   1.076  0.3426 -0.0561  0.8698
  330MOL0     H43546   2.852   2.923   0.447 -0.7649  2.8083  0.1097
  330MOL0     H43547   3.004   3.111   0.528  2.7113  1.7044 -0.2979
  330MOL0     H43548   3.448   3.288   0.533  0.3041  0.4238  1.7104
  330MOL0     H43549   3.579   3.456   0.644  0.6042  1.3749  1.0209
  330MOL0     H43550   3.386   3.739   0.858  1.2003  0.5634  1.7149
  330MOL0     H43551   3.410   3.867   0.745 -4.8308 -2.7268  1.2667
  330MOL0     H43552   3.529   3.911   0.960  1.8575 -0.3445  2.2159
  330MOL0     H43553   3.609   3.754   0.957 -1.7099  0.0656  0.5657
  330MOL0     H43554   3.644   3.964   0.739  0.4023  1.4609  1.2357
  330MOL0     H43555   3.743   3.818   0.771  1.9360 -1.0468  2.9972
  330MOL0     H43556   3.716   4.066   0.962 -1.4433 -1.8161  1.7186
  330MOL0     H43557   3.819   3.920   0.984  1.0521 -2.8558 -3.3126
  330MOL0     H43558   4.088   4.084   0.745  0.0724 -1.5225 -0.4430
  330MOL0     H43559   3.229   3.709   0.679  0.6433 -0.3483  2.1630
  330MOL0     H43560   3.095   3.524   0.586  0.0811 -1.9934  0.6527
  331MOL0     O43561   6.161   9.064   2.022  0.3440  0.4923  0.7019
  331MOL0     C43562   6.224   9.171   2.039  0.9527 -0.3435  0.1678
  331MOL0     O43563   6.177   9.269   2.121  0.3038 -0.6036 -0.1948
  331MOL0     C43564   6.041   9.268   2.169  0.0807  0.1003  0.1660
  331MOL0     C43565   5.990   9.396   2.190  0.6704 -0.6348  0.1990
  331MOL0     C43566   5.860   9.420   2.235 -0.2689 -0.0519 -0.0221
  331MOL0     C43567   5.772   9.317   2.254  0.0754 -0.4638 -0.4236
  331MOL0     O43568   5.646   9.354   2.301 -0.7209 -0.5462  0.0630
  331MOL0     C43569   5.577   9.242   2.365  0.1958 -0.0709 -0.2222
  331MOL0     C43570   5.472   9.190   2.263 -0.1754  0.5000  0.0758
  331MOL0     C43571   5.372   9.096   2.331  0.3159  0.1750  0.6391
  331MOL0     C43572   5.259   9.059   2.234  0.5944  0.0511  1.1736
  331MOL0     C43573   5.146   8.974   2.289  0.3764  0.4506 -0.5824
  331MOL0     C43574   5.012   8.991   2.208  1.2789 -0.0144 -0.9901
  331MOL0     C43575   4.890   8.921   2.273  0.6336 -0.1436 -0.1373
  331MOL0     C43576   4.886   8.768   2.280 -0.1229  0.3581  0.0445
  331MOL0     N43577   4.759   8.712   2.330 -0.4930  0.4827 -0.3763
  331MOL0     C43578   4.696   8.730   2.446 -0.1636 -1.2181  0.1173
  331MOL0     C43579   4.590   8.644   2.444  0.0255  0.4315 -0.4079
  331MOL0     C43580   4.515   8.605   2.570  1.1729 -0.1884  0.7502
  331MOL0     C43581   4.380   8.676   2.586  0.6891  1.0886 -0.5684
  331MOL0     C43582   4.347   8.682   2.730 -0.3484  0.2537  0.0671
  331MOL0     C43583   4.201   8.669   2.756 -0.4522  0.4097  1.4710
  331MOL0     O43584   4.170   8.714   2.893  0.0160 -0.0305 -0.6446
  331MOL0     C43585   4.045   8.698   2.947 -0.3577  0.2370 -0.3626
  331MOL0     C43586   4.045   8.707   3.082 -0.6212 -0.9241 -0.3868
  331MOL0     C43587   3.923   8.693   3.142  0.3525  0.0497 -1.1387
  331MOL0     C43588   3.803   8.657   3.078  0.2823 -0.2803 -0.2265
  331MOL0     C43589   3.683   8.638   3.161  0.2894  0.6922  0.0488
  331MOL0     O43590   3.670   8.695   3.284 -0.2116  0.7504 -0.7240
  331MOL0     C43591   3.560   8.654   3.354 -0.4114 -0.5592 -0.2450
  331MOL0     C43592   3.592   8.563   3.458  0.2466  0.2967 -0.4860
  331MOL0     C43593   3.496   8.529   3.552 -0.1727  0.2056  0.3513
  331MOL0     C43594   3.369   8.591   3.553 -0.0070  0.2155 -0.3638
  331MOL0     O43595   3.288   8.551   3.655  0.8090 -1.1292  0.3869
  331MOL0     C43596   3.148   8.545   3.626  0.1134  0.4906  0.9091
  331MOL0     C43597   3.086   8.470   3.737  0.6919  0.1574 -0.3545
  331MOL0     C43598   2.934   8.496   3.748 -0.0382  0.4702 -0.0011
  331MOL0     C43599   2.896   8.638   3.781  0.2969  0.0241  0.7199
  331MOL0     C43600   2.742   8.648   3.808  0.1827  0.4396  0.4041
  331MOL0     C43601   2.654   8.628   3.689 -0.0005  0.1438 -0.2567
  331MOL0     C43602   2.517   8.693   3.706  0.5531  0.2880 -0.7343
  331MOL0     C43603   2.446   8.616   3.831  0.0711 -0.4649  0.2596
  331MOL0    Cl43604   2.411   8.447   3.763  0.0795 -0.3234  0.0414
  331MOL0     C43605   3.343   8.693   3.457 -0.5412  0.1828 -0.0535
  331MOL0     C43606   3.442   8.723   3.350  0.7101  0.4286  0.4078
  331MOL0     O43607   3.597   8.566   3.112  0.2309  0.3817 -0.0231
  331MOL0     C43608   3.810   8.647   2.938  0.6689 -0.4201  0.7585
  331MOL0     C43609   3.933   8.676   2.873 -0.0322 -0.2178  0.8052
  331MOL0     N43610   4.588   8.583   2.325 -0.7955 -0.4378 -0.7048
  331MOL0     N43611   4.684   8.627   2.250 -0.5814  0.2241 -0.1717
  331MOL0     C43612   5.819   9.189   2.228 -1.1622  0.4829 -0.7587
  331MOL0     C43613   5.951   9.159   2.188 -0.8592 -0.2042 -0.1276
  331MOL0     C43614   6.356   9.193   1.992  1.3354 -0.0432  0.8297
  331MOL0     C43615   6.424   9.303   2.047  0.1840  0.0936 -0.2452
  331MOL0     C43616   6.558   9.315   2.007  0.4502 -0.7952 -0.3634
  331MOL0     C43617   6.624   9.223   1.926  0.1580 -0.0862 -1.1021
  331MOL0     O43618   6.756   9.234   1.889 -0.3484 -0.0814 -0.2817
  331MOL0     C43619   6.822   9.364   1.909  1.2581  1.4558 -0.0465
  331MOL0     C43620   6.954   9.372   1.836  0.1811 -0.0380  0.0569
  331MOL0     C43621   7.071   9.281   1.881  0.6748 -0.2781  0.1584
  331MOL0     C43622   7.188   9.298   1.785  0.0176 -0.1132 -0.3732
  331MOL0     C43623   7.299   9.211   1.814  0.2904  0.5589  0.5365
  331MOL0     C43624   7.390   9.148   1.850 -0.1539 -0.2562 -1.0218
  331MOL0     C43625   6.546   9.126   1.871  0.6141  0.5758  0.2130
  331MOL0     C43626   6.415   9.102   1.907  0.1469 -0.5581  0.7704
  331MOL0     H43627   6.046   9.483   2.155 -0.7194 -0.6309 -2.2566
  331MOL0     H43628   5.817   9.516   2.261 -1.1291 -0.5153  0.3053
  331MOL0     H43629   5.534   9.305   2.443  1.4800 -0.2413  0.6408
  331MOL0     H43630   5.640   9.161   2.405  2.0350  0.9799 -0.8756
  331MOL0     H43631   5.532   9.150   2.181  0.0501 -2.9124  1.7290
  331MOL0     H43632   5.411   9.277   2.237 -4.0675 -1.9881  0.0880
  331MOL0     H43633   5.328   9.141   2.420 -1.8565  1.6999 -1.0806
  331MOL0     H43634   5.430   9.007   2.360  1.9394 -1.9502 -6.9284
  331MOL0     H43635   5.217   9.154   2.200  1.3917  0.0012 -0.0169
  331MOL0     H43636   5.314   9.007   2.155  1.2055 -1.6839  2.6687
  331MOL0     H43637   5.138   8.991   2.396  1.2303  1.2831 -0.6447
  331MOL0     H43638   5.182   8.870   2.283  1.3000  0.8471 -2.9818
  331MOL0     H43639   5.032   8.965   2.103  0.6248  0.6414 -1.2846
  331MOL0     H43640   4.981   9.096   2.206  0.5471  0.1646  4.3717
  331MOL0     H43641   4.873   8.957   2.374  0.1613 -0.6687 -0.0245
  331MOL0     H43642   4.809   8.958   2.209  1.6950  3.8172  0.5259
  331MOL0     H43643   4.965   8.717   2.336  1.1225 -2.0759 -3.5409
  331MOL0     H43644   4.901   8.734   2.177 -0.7685 -2.1626  0.7156
  331MOL0     H43645   4.730   8.788   2.531  1.4084  3.0290 -3.0326
  331MOL0     H43646   4.583   8.623   2.654  0.4368 -1.2948  1.6140
  331MOL0     H43647   4.495   8.497   2.562 -1.6735  0.3258 -0.2336
  331MOL0     H43648   4.300   8.625   2.531  0.0353  0.9987  0.4418
  331MOL0     H43649   4.381   8.779   2.550 -1.7124  1.9567  1.5719
  331MOL0     H43650   4.387   8.593   2.779 -0.4435  1.4855  2.5031
  331MOL0     H43651   4.391   8.768   2.781  1.3974 -0.7580  0.3471
  331MOL0     H43652   4.174   8.563   2.746  0.3630  0.4200 -2.9438
  331MOL0     H43653   4.141   8.723   2.682 -0.9813  0.1094  1.6783
  331MOL0     H43654   4.133   8.726   3.143  0.1508 -3.1617 -0.7178
  331MOL0     H43655   3.930   8.688   3.250  3.8723 -1.9772 -1.3081
  331MOL0     H43656   3.686   8.511   3.469  0.6411  1.0180 -0.4317
  331MOL0     H43657   3.507   8.465   3.639 -2.0548  0.9372  1.1842
  331MOL0     H43658   3.125   8.497   3.530 -0.3859  0.1825  1.1803
  331MOL0     H43659   3.124   8.651   3.628  2.0943  0.9688  2.2728
  331MOL0     H43660   3.124   8.511   3.831 -0.5554 -1.9466  1.1600
  331MOL0     H43661   3.097   8.361   3.737  2.1833  0.2762 -1.5388
  331MOL0     H43662   2.903   8.438   3.836 -3.2221 -0.5363 -1.6625
  331MOL0     H43663   2.892   8.449   3.659  1.4511 -0.1292 -0.4204
  331MOL0     H43664   2.959   8.671   3.865  2.0897 -0.6225 -0.3258
  331MOL0     H43665   2.905   8.708   3.698 -3.0275  1.5065  1.4223
  331MOL0     H43666   2.726   8.754   3.833  2.6162  0.6078  1.5868
  331MOL0     H43667   2.719   8.580   3.891  0.7855 -1.4503 -0.9178
  331MOL0     H43668   2.635   8.521   3.680 -2.9147  0.5858 -0.3199
  331MOL0     H43669   2.699   8.657   3.594  1.3236 -3.0633 -0.7045
  331MOL0     H43670   2.527   8.800   3.725 -2.1094  0.5082 -0.1222
  331MOL0     H43671   2.458   8.678   3.615 -1.3550 -3.3194  0.8632
  331MOL0     H43672   2.360   8.681   3.846 -0.0501  0.5614 -3.8018
  331MOL0     H43673   2.506   8.611   3.923 -0.5476 -0.6034  0.6613
  331MOL0     H43674   3.249   8.747   3.456 -0.4037  0.7788  4.0389
  331MOL0     H43675   3.442   8.799   3.273 -1.5356 -0.0122 -0.1151
  331MOL0     H43676   3.722   8.624   2.880  1.7567  1.3441 -1.7884
  331MOL0     H43677   3.941   8.688   2.765  2.9591  4.4339  1.2395
  331MOL0     H43678   5.750   9.106   2.235  0.9354 -1.5439 -2.4386
  331MOL0     H43679   5.981   9.055   2.178  1.0365  0.1641  1.2362
  331MOL0     H43680   6.368   9.379   2.099 -0.3278  0.5538 -1.4355
  331MOL0     H43681   6.608   9.403   2.046  3.3554 -1.9786 -1.1424
  331MOL0     H43682   6.847   9.363   2.015 -1.2022 -0.1456  0.5979
  331MOL0     H43683   6.757   9.449   1.886 -1.2089 -0.2024  0.4057
  331MOL0     H43684   6.940   9.360   1.728 -0.5648  2.6972 -0.2345
  331MOL0     H43685   6.986   9.476   1.843  0.8487 -0.2222 -0.1838
  331MOL0     H43686   7.043   9.177   1.899  2.9273 -1.6895 -3.4447
  331MOL0     H43687   7.110   9.327   1.973  2.2258  2.1208 -1.5870
  331MOL0     H43688   7.153   9.277   1.683  0.9811  1.6237 -1.1084
  331MOL0     H43689   7.224   9.400   1.796 -1.6524  0.3277  1.5230
  331MOL0     H43690   7.472   9.094   1.894  0.3057  0.3304 -1.1361
  331MOL0     H43691   6.588   9.047   1.811  0.2478 -0.0990  0.8169
  331MOL0     H43692   6.359   9.019   1.866 -0.0912  0.2407 -0.5745
  332MOL0     O43693   0.437   1.616   5.657 -0.1400 -0.8965 -0.6158
  332MOL0     C43694   0.491   1.535   5.593  0.0415  0.5078  0.2048
  332MOL0     O43695   0.464   1.513   5.467 -0.0410  0.4823  0.1062
  332MOL0     C43696   0.364   1.587   5.405  0.5100 -0.0302  0.2813
  332MOL0     C43697   0.394   1.706   5.346  0.3554 -0.7589 -0.4879
  332MOL0     C43698   0.300   1.794   5.297  1.1561 -0.1172 -0.7927
  332MOL0     C43699   0.162   1.767   5.302  0.1316  1.0213  0.4380
  332MOL0     O43700   0.074   1.856   5.247 -0.1844 -0.0584 -0.6083
  332MOL0     C43701  -0.059   1.817   5.232  0.4773  0.0298 -0.6302
  332MOL0     C43702  -0.117   1.913   5.128  0.0594  0.4387  0.8330
  332MOL0     C43703  -0.243   1.847   5.068 -0.6191  0.8606  0.9926
  332MOL0     C43704  -0.356   1.836   5.168 -0.6019  0.4631 -0.1248
  332MOL0     C43705  -0.492   1.831   5.095  0.7593 -0.5679 -0.1899
  332MOL0     C43706  -0.611   1.786   5.180 -0.0650 -0.0094  0.0261
  332MOL0     C43707  -0.737   1.768   5.099 -0.1621  0.1134 -0.1691
  332MOL0     C43708  -0.857   1.747   5.185 -0.5043 -0.2838 -0.6179
  332MOL0     N43709  -0.969   1.716   5.099 -0.4685  0.1021  0.4047
  332MOL0     C43710  -0.969   1.615   5.009 -0.4771  0.0585  0.9430
  332MOL0     C43711  -1.091   1.627   4.947 -0.7501  0.6626  0.2770
  332MOL0     C43712  -1.143   1.531   4.846  0.0782  0.4162  0.2937
  332MOL0     C43713  -1.281   1.475   4.894 -0.3796 -0.5283  0.6048
  332MOL0     C43714  -1.334   1.375   4.788 -1.2510 -0.2726  0.0174
  332MOL0     C43715  -1.479   1.349   4.815 -0.1803 -0.3659  0.2972
  332MOL0     O43716  -1.542   1.300   4.691  0.6110  0.0094  0.1866
  332MOL0     C43717  -1.676   1.313   4.663 -1.4666  1.0332  0.0242
  332MOL0     C43718  -1.774   1.384   4.728 -0.2829  0.7018 -0.9279
  332MOL0     C43719  -1.907   1.377   4.692 -0.4079  1.4185  1.0748
  332MOL0     C43720  -1.944   1.290   4.587  0.1339 -0.3173  0.5964
  332MOL0     C43721  -2.090   1.270   4.563  0.8739 -0.3877 -0.3754
  332MOL0     O43722  -2.173   1.363   4.607 -0.3069 -0.2833 -0.3008
  332MOL0     C43723  -2.304   1.349   4.630 -0.1530 -0.4988  0.0446
  332MOL0     C43724  -2.387   1.448   4.587 -0.0706 -0.0973  0.2284
  332MOL0     C43725  -2.525   1.443   4.611 -0.1539 -0.1249  1.1933
  332MOL0     C43726  -2.576   1.340   4.685 -0.2342  0.9703 -0.0639
  332MOL0     O43727  -2.713   1.338   4.708 -0.1712  0.0998  0.5469
  332MOL0     C43728  -2.766   1.423   4.808 -0.5445  0.6208 -0.2028
  332MOL0     C43729  -2.909   1.383   4.827 -0.3448  0.9541  0.2718
  332MOL0     C43730  -2.948   1.432   4.965 -0.9349 -0.1209  0.1725
  332MOL0     C43731  -3.075   1.365   4.999  1.1269  0.3269  0.4557
  332MOL0     C43732  -3.130   1.418   5.133  0.0372 -1.2526  1.1390
  332MOL0     C43733  -3.155   1.573   5.120 -0.2645  0.2370  0.4285
  332MOL0     C43734  -3.259   1.614   5.009 -0.1700 -0.4421  0.1823
  332MOL0     C43735  -3.279   1.767   5.022 -0.3906  0.2478  0.5421
  332MOL0    Cl43736  -3.361   1.833   4.881 -0.2325 -0.1487 -0.2528
  332MOL0     C43737  -2.488   1.234   4.725 -0.3717 -0.3459 -0.4970
  332MOL0     C43738  -2.348   1.246   4.716  0.0194  0.0534  1.1636
  332MOL0     O43739  -2.123   1.166   4.514 -0.3440  0.1650  0.8219
  332MOL0     C43740  -1.849   1.220   4.516  0.1720 -0.4132 -0.2419
  332MOL0     C43741  -1.718   1.234   4.556 -1.1499 -1.1140 -0.2028
  332MOL0     N43742  -1.152   1.745   4.982  0.1274  1.1739 -0.1778
  332MOL0     N43743  -1.081   1.795   5.073  0.4563 -1.1384  0.1449
  332MOL0     C43744   0.131   1.632   5.353  0.5745 -1.4724  0.1812
  332MOL0     C43745   0.230   1.554   5.413  0.3908  0.4020 -1.1030
  332MOL0     C43746   0.599   1.442   5.647 -0.4452 -0.1636 -0.2078
  332MOL0     C43747   0.628   1.437   5.786  0.4550  0.3734  0.2219
  332MOL0     C43748   0.741   1.360   5.826 -0.1843 -0.2408 -0.7851
  332MOL0     C43749   0.825   1.301   5.728  0.3383 -0.6112  0.1829
  332MOL0     O43750   0.933   1.227   5.765  1.1522  0.8441  0.3351
  332MOL0     C43751   0.996   1.235   5.889  0.2597  0.5890 -0.0728
  332MOL0     C43752   1.128   1.325   5.885  0.0479  0.2314 -0.1552
  332MOL0     C43753   1.245   1.250   5.804 -0.0023 -0.3644 -0.0114
  332MOL0     C43754   1.381   1.313   5.834 -0.2025 -0.7054 -0.4073
  332MOL0     C43755   1.416   1.304   5.977 -0.0358  0.1086 -0.4975
  332MOL0     C43756   1.442   1.284   6.094  0.5153  0.0128 -0.8985
  332MOL0     C43757   0.794   1.311   5.588  0.3055  0.4822  0.9922
  332MOL0     C43758   0.677   1.382   5.553  0.2528 -0.9006 -0.1954
  332MOL0     H43759   0.497   1.739   5.339 -0.3105  1.4046 -1.1415
  332MOL0     H43760   0.330   1.894   5.267  1.5010 -0.7291 -2.6499
  332MOL0     H43761  -0.110   1.831   5.328  0.7043  1.0310 -0.6472
  332MOL0     H43762  -0.064   1.712   5.199 -0.5078 -0.5485  1.2391
  332MOL0     H43763  -0.043   1.920   5.048  2.2992 -0.9470  2.6367
  332MOL0     H43764  -0.134   2.013   5.169 -2.8608  0.3237  0.1259
  332MOL0     H43765  -0.214   1.748   5.033 -2.3692 -0.6857  3.5781
  332MOL0     H43766  -0.271   1.903   4.978  0.6095 -3.7472 -2.7001
  332MOL0     H43767  -0.336   1.748   5.230  1.2017  0.0967 -1.1596
  332MOL0     H43768  -0.361   1.917   5.241  0.1325 -0.3742  0.8926
  332MOL0     H43769  -0.491   1.776   5.000 -1.7467 -1.2765  0.1329
  332MOL0     H43770  -0.518   1.932   5.061  0.5478 -0.3829  0.5088
  332MOL0     H43771  -0.637   1.862   5.254  0.3982 -0.2880  0.4817
  332MOL0     H43772  -0.581   1.706   5.248  4.2666 -1.1501 -2.8244
  332MOL0     H43773  -0.754   1.849   5.027 -0.6509  1.9128  1.8851
  332MOL0     H43774  -0.717   1.681   5.036  2.7042 -0.5549  1.5159
  332MOL0     H43775  -0.866   1.835   5.249  0.2740 -0.5750 -0.0880
  332MOL0     H43776  -0.837   1.663   5.251  3.2219  0.7095 -0.2535
  332MOL0     H43777  -0.897   1.538   4.984 -1.2175 -1.1553  2.3835
  332MOL0     H43778  -1.067   1.454   4.831 -1.6779 -1.1460 -1.0318
  332MOL0     H43779  -1.167   1.576   4.750 -1.0054 -1.4028 -0.3474
  332MOL0     H43780  -1.356   1.555   4.903  1.2196  0.9874  0.8542
  332MOL0     H43781  -1.281   1.429   4.993  0.8882 -1.7421  0.0819
  332MOL0     H43782  -1.325   1.423   4.690  0.0395  0.5082  0.4923
  332MOL0     H43783  -1.271   1.285   4.780  0.5514  0.9639 -0.2776
  332MOL0     H43784  -1.520   1.445   4.848  0.3104  0.7715 -2.2139
  332MOL0     H43785  -1.500   1.283   4.900 -0.7979 -0.6857 -0.0990
  332MOL0     H43786  -1.742   1.443   4.813 -0.1997 -3.0676  1.8946
  332MOL0     H43787  -1.991   1.416   4.748 -0.7455 -0.0173  1.6163
  332MOL0     H43788  -2.357   1.533   4.526 -2.1346 -0.7127 -1.7664
  332MOL0     H43789  -2.602   1.510   4.575  1.6722  1.7474  0.6096
  332MOL0     H43790  -2.772   1.528   4.779 -0.2086  0.9022  0.7195
  332MOL0     H43791  -2.701   1.419   4.896  0.6017  1.9750 -0.9345
  332MOL0     H43792  -2.910   1.275   4.817 -0.3046  1.1164 -1.9949
  332MOL0     H43793  -2.968   1.425   4.745 -1.0283 -1.9200 -0.8048
  332MOL0     H43794  -2.945   1.541   4.968 -0.3653 -0.1462  0.8351
  332MOL0     H43795  -2.877   1.388   5.035 -1.5569  0.6413  1.3258
  332MOL0     H43796  -3.150   1.380   4.921 -0.2608  1.5780  1.9735
  332MOL0     H43797  -3.080   1.258   5.022 -2.9119  0.1634 -0.4487
  332MOL0     H43798  -3.058   1.391   5.210  2.7611  0.9081 -0.4801
  332MOL0     H43799  -3.223   1.362   5.151  0.2856 -3.3507 -2.9283
  332MOL0     H43800  -3.062   1.628   5.099  1.2444 -2.7840 -1.5781
  332MOL0     H43801  -3.200   1.602   5.215  1.1874  0.1037  1.1886
  332MOL0     H43802  -3.215   1.593   4.911  3.6928  0.1719  1.6119
  332MOL0     H43803  -3.346   1.549   5.022 -0.1410 -0.9166 -1.6673
  332MOL0     H43804  -3.180   1.812   5.038  1.0335 -1.4443 -2.5674
  332MOL0     H43805  -3.341   1.784   5.111 -0.1951  0.0514  0.7197
  332MOL0     H43806  -2.523   1.147   4.779 -2.9835  0.1533 -1.2588
  332MOL0     H43807  -2.285   1.169   4.759  0.1895  0.2950  1.3479
  332MOL0     H43808  -1.870   1.153   4.433 -1.6651 -1.5793  1.0726
  332MOL0     H43809  -1.643   1.183   4.496  0.9432  0.9957  0.4233
  332MOL0     H43810   0.027   1.604   5.368 -0.4274  0.6484 -2.1285
  332MOL0     H43811   0.195   1.476   5.479 -1.5356  2.1094  0.0274
  332MOL0     H43812   0.568   1.495   5.855 -0.5779  0.1285 -0.4533
  332MOL0     H43813   0.761   1.364   5.932  1.0689  0.9922 -1.0450
  332MOL0     H43814   1.029   1.132   5.906  1.0323  0.5651 -1.6011
  332MOL0     H43815   0.929   1.269   5.969 -1.1832 -0.0989 -0.9419
  332MOL0     H43816   1.102   1.420   5.838  0.2671  0.0088 -0.7352
  332MOL0     H43817   1.156   1.335   5.990  0.6671  1.6578 -0.4304
  332MOL0     H43818   1.229   1.257   5.696  0.3885  0.4173 -0.0213
  332MOL0     H43819   1.255   1.142   5.822  2.6665 -0.5534 -2.0767
  332MOL0     H43820   1.462   1.258   5.785  0.3582  0.9681 -1.4614
  332MOL0     H43821   1.388   1.414   5.792  1.4748 -1.0781 -1.0788
  332MOL0     H43822   1.468   1.279   6.197 -0.7500 -1.6310 -0.6162
  332MOL0     H43823   0.855   1.270   5.508  1.6374  2.8016  0.7462
  332MOL0     H43824   0.659   1.384   5.446 -0.2975  1.2491 -0.1019
  333MOL0     O43825   1.719   3.597   8.835 -0.1828 -1.2710 -0.6296
  333MOL0     C43826   1.732   3.652   8.952 -0.6429  0.7758 -0.1147
  333MOL0     O43827   1.636   3.700   9.035  0.8400  0.0773  0.2832
  333MOL0     C43828   1.507   3.702   8.981 -0.5279  0.7488  0.4247
  333MOL0     C43829   1.446   3.815   8.918  0.1998 -0.1455 -0.0263
  333MOL0     C43830   1.319   3.808   8.873  0.0686  0.0866 -0.0780
  333MOL0     C43831   1.235   3.700   8.905 -0.1373  0.9914 -0.4673
  333MOL0     O43832   1.099   3.710   8.877 -0.6728 -0.4156 -0.4930
  333MOL0     C43833   1.018   3.602   8.832 -0.1003 -0.5190 -1.5076
  333MOL0     C43834   0.883   3.645   8.783 -0.8184 -0.4238  0.1565
  333MOL0     C43835   0.794   3.524   8.750 -0.1953 -0.0258 -0.6657
  333MOL0     C43836   0.657   3.575   8.712  0.7078 -0.2567  0.1458
  333MOL0     C43837   0.550   3.473   8.720  0.1762 -0.3852  0.0172
  333MOL0     C43838   0.420   3.520   8.658  0.3671 -0.0912 -0.2054
  333MOL0     C43839   0.328   3.406   8.618 -0.4716  0.5213  0.1616
  333MOL0     C43840   0.244   3.350   8.733 -0.8633  0.0494 -0.8943
  333MOL0     N43841   0.166   3.464   8.793  1.2665  0.2222 -0.3656
  333MOL0     C43842   0.188   3.531   8.912  0.5193  0.6699  0.2038
  333MOL0     C43843   0.091   3.622   8.939 -0.7099  0.4933  0.1549
  333MOL0     C43844   0.081   3.737   9.037  0.5298  0.1573  1.0496
  333MOL0     C43845   0.158   3.841   8.966  0.4012 -0.2391 -0.0344
  333MOL0     C43846   0.138   3.976   9.040  0.4135  0.0308 -0.3740
  333MOL0     C43847   0.018   4.054   9.003 -0.5854 -1.0501  0.2500
  333MOL0     O43848  -0.092   4.003   9.073 -0.3667 -0.0621  0.7377
  333MOL0     C43849  -0.217   4.041   9.043 -0.0835 -0.6320  0.0495
  333MOL0     C43850  -0.328   3.951   9.078 -0.1318  0.0119  0.0394
  333MOL0     C43851  -0.465   3.980   9.050 -0.3772 -0.4807 -0.0553
  333MOL0     C43852  -0.494   4.108   8.992 -0.5755  0.6985  0.5388
  333MOL0     C43853  -0.626   4.150   8.938  0.5552 -0.0708  0.4222
  333MOL0     O43854  -0.727   4.049   8.936 -0.4144 -0.4352  0.1090
  333MOL0     C43855  -0.847   4.070   8.874 -0.4914 -0.5206 -0.7562
  333MOL0     C43856  -0.936   3.970   8.906 -0.3754  0.1431  1.4302
  333MOL0     C43857  -1.069   3.983   8.856  0.6044  0.0783 -0.1605
  333MOL0     C43858  -1.104   4.087   8.770 -0.1101  0.3624  0.5051
  333MOL0     O43859  -1.237   4.090   8.743 -0.5129  0.3638 -0.0182
  333MOL0     C43860  -1.262   4.140   8.607  0.1413 -0.1894  0.5172
  333MOL0     C43861  -1.409   4.140   8.592 -0.0216 -0.8983  0.2989
  333MOL0     C43862  -1.452   4.146   8.450  0.1682 -0.1989  0.6899
  333MOL0     C43863  -1.606   4.136   8.431  0.3179  0.6775 -0.4424
  333MOL0     C43864  -1.645   4.120   8.282 -0.0064  0.5557  0.5511
  333MOL0     C43865  -1.796   4.113   8.250 -0.2938  0.0887  0.5775
  333MOL0     C43866  -1.890   4.043   8.352 -0.4419 -0.4706  0.2932
  333MOL0     C43867  -2.026   4.024   8.289 -1.0483  0.3901  0.2858
  333MOL0    Cl43868  -2.124   3.932   8.403  0.4756 -0.2488 -0.2542
  333MOL0     C43869  -1.005   4.185   8.730  0.6690 -0.7023  0.5064
  333MOL0     C43870  -0.876   4.163   8.781  0.6578 -1.1421  0.0230
  333MOL0     O43871  -0.644   4.273   8.918  0.3133 -0.0001  0.1468
  333MOL0     C43872  -0.381   4.196   8.973  0.0302 -0.2808 -0.4489
  333MOL0     C43873  -0.247   4.169   9.002  0.9166 -1.6340 -0.3615
  333MOL0     N43874   0.019   3.619   8.823  0.1108  0.0405  0.0376
  333MOL0     N43875   0.057   3.527   8.732 -0.1700  0.7891  0.5822
  333MOL0     C43876   1.290   3.599   8.984 -0.5296  0.0595  0.9279
  333MOL0     C43877   1.427   3.593   9.014 -0.0262  0.2520  0.1262
  333MOL0     C43878   1.872   3.669   8.994 -0.3008  0.6501  0.4391
  333MOL0     C43879   1.918   3.663   9.135  0.2368  0.0356  0.4448
  333MOL0     C43880   2.052   3.667   9.165 -0.2654 -0.0470  0.0701
  333MOL0     C43881   2.151   3.689   9.064  0.2121 -0.2333  0.1028
  333MOL0     O43882   2.281   3.714   9.093 -0.9039 -0.8725  0.0755
  333MOL0     C43883   2.335   3.691   9.221 -0.6759  0.0441  0.0029
  333MOL0     C43884   2.477   3.740   9.229 -0.1763 -0.7065  0.8727
  333MOL0     C43885   2.545   3.712   9.364 -0.0042  0.4771 -0.1168
  333MOL0     C43886   2.662   3.796   9.399  0.1934  0.4880 -0.0703
  333MOL0     C43887   2.766   3.791   9.296 -0.2667  0.0168  0.3254
  333MOL0     C43888   2.846   3.807   9.208  0.5085  0.4913  0.3537
  333MOL0     C43889   2.119   3.684   8.929  0.2430 -0.1919  0.2167
  333MOL0     C43890   1.983   3.673   8.902 -0.5050  0.2089 -0.5130
  333MOL0     H43891   1.510   3.902   8.903 -0.3808  0.7370  2.1705
  333MOL0     H43892   1.278   3.895   8.823  0.4228  0.1362 -0.2858
  333MOL0     H43893   1.008   3.515   8.898 -0.0869  1.2575  0.9954
  333MOL0     H43894   1.072   3.566   8.744  5.0769  1.9234  0.2621
  333MOL0     H43895   0.912   3.705   8.696  2.3855 -2.3481 -0.2445
  333MOL0     H43896   0.833   3.712   8.854  1.0062  0.6154  0.5149
  333MOL0     H43897   0.794   3.459   8.838  3.8321 -1.0653 -1.2166
  333MOL0     H43898   0.835   3.469   8.664 -2.1745 -1.5408 -0.7047
  333MOL0     H43899   0.636   3.654   8.785 -0.0636  0.3894 -0.7607
  333MOL0     H43900   0.654   3.613   8.610  0.1077 -0.7888 -0.0387
  333MOL0     H43901   0.535   3.459   8.828 -1.8910  0.9779 -0.0374
  333MOL0     H43902   0.582   3.382   8.668  1.0975  0.6568 -1.2925
  333MOL0     H43903   0.437   3.575   8.565 -1.6057 -1.5658 -1.5294
  333MOL0     H43904   0.372   3.587   8.731 -2.0399 -1.4549 -0.4523
  333MOL0     H43905   0.257   3.438   8.540  0.2723  0.1031 -0.7132
  333MOL0     H43906   0.384   3.336   8.555 -0.8086  1.8020 -1.6712
  333MOL0     H43907   0.303   3.303   8.813 -3.0321  0.6777  1.1966
  333MOL0     H43908   0.178   3.279   8.684 -0.9436  0.1668 -0.9574
  333MOL0     H43909   0.272   3.502   8.975  0.4916 -1.8713 -0.8063
  333MOL0     H43910   0.126   3.712   9.134 -0.0999  0.2766  1.3774
  333MOL0     H43911  -0.024   3.762   9.055  1.0870  2.6402  1.1783
  333MOL0     H43912   0.113   3.863   8.868 -0.2804 -0.0339  0.3221
  333MOL0     H43913   0.266   3.823   8.962  0.7034  1.5024 -2.2375
  333MOL0     H43914   0.126   3.963   9.147  1.4490 -0.7260 -0.3267
  333MOL0     H43915   0.227   4.034   9.012 -1.5977  3.4183 -0.1548
  333MOL0     H43916   0.013   4.048   8.893  1.2924 -1.7353  0.1611
  333MOL0     H43917   0.021   4.162   9.019 -1.5494 -0.7899 -1.1042
  333MOL0     H43918  -0.291   3.856   9.113 -1.8419  0.5093  3.7384
  333MOL0     H43919  -0.549   3.912   9.064 -2.6123  2.0572 -0.2538
  333MOL0     H43920  -0.901   3.890   8.971  3.6509 -1.8680 -2.6788
  333MOL0     H43921  -1.143   3.905   8.872 -0.4891  0.8699 -1.2306
  333MOL0     H43922  -1.217   4.082   8.525  0.2009  0.1062  0.3406
  333MOL0     H43923  -1.219   4.240   8.598  0.9302 -0.5881 -0.3283
  333MOL0     H43924  -1.441   4.233   8.640  0.9223 -2.2053  3.7348
  333MOL0     H43925  -1.452   4.052   8.641  1.2293  0.3158  3.8580
  333MOL0     H43926  -1.428   4.061   8.384 -2.0790  1.1918 -2.1369
  333MOL0     H43927  -1.418   4.235   8.396  0.8891 -1.9365 -1.9704
  333MOL0     H43928  -1.632   4.042   8.479  0.4246  0.1382 -1.4208
  333MOL0     H43929  -1.661   4.217   8.480 -0.2283 -0.9618  1.8073
  333MOL0     H43930  -1.601   4.034   8.231 -2.4844  0.4555 -1.6359
  333MOL0     H43931  -1.599   4.205   8.231  0.9963  0.1196  0.7031
  333MOL0     H43932  -1.811   4.056   8.158 -0.4075  1.8281 -0.5471
  333MOL0     H43933  -1.825   4.218   8.234 -0.2114 -0.3563 -3.3868
  333MOL0     H43934  -1.852   3.942   8.365  0.4613 -0.8286 -3.6568
  333MOL0     H43935  -1.903   4.103   8.442 -1.4645  0.3457 -0.3721
  333MOL0     H43936  -2.024   3.976   8.190 -0.7773 -0.9127  0.8978
  333MOL0     H43937  -2.061   4.127   8.286 -0.6207  0.5151 -0.9806
  333MOL0     H43938  -1.028   4.266   8.661 -4.5258 -3.6646 -1.8511
  333MOL0     H43939  -0.811   4.248   8.763 -1.0033  0.8787  2.6192
  333MOL0     H43940  -0.396   4.296   8.933 -1.6980 -0.2684  0.1247
  333MOL0     H43941  -0.174   4.239   8.962  0.4443 -1.4140 -0.8470
  333MOL0     H43942   1.224   3.523   9.025  0.3607 -0.8942  0.6376
  333MOL0     H43943   1.462   3.512   9.076 -1.9316  1.3319  2.8246
  333MOL0     H43944   1.846   3.634   9.211 -0.8924  0.1270 -0.5645
  333MOL0     H43945   2.073   3.649   9.270 -1.0315 -3.2681 -0.2354
  333MOL0     H43946   2.335   3.586   9.249  0.3108  0.4924  1.8652
  333MOL0     H43947   2.281   3.749   9.297  0.6293 -0.8794  1.7325
  333MOL0     H43948   2.540   3.712   9.143  0.7352 -3.5859  2.3376
  333MOL0     H43949   2.467   3.849   9.223 -0.6248 -0.7496  0.8367
  333MOL0     H43950   2.585   3.611   9.357 -4.0129 -1.1969 -3.2630
  333MOL0     H43951   2.474   3.723   9.446 -0.8772  1.8565 -1.0091
  333MOL0     H43952   2.629   3.900   9.409 -0.0316  0.2874  1.5292
  333MOL0     H43953   2.704   3.774   9.497 -0.1975  0.7076  0.1491
  333MOL0     H43954   2.921   3.810   9.131 -2.0985  0.1070 -2.4151
  333MOL0     H43955   2.197   3.676   8.854 -0.3382 -5.0132 -0.1809
  333MOL0     H43956   1.952   3.681   8.798 -0.4394  2.4094 -0.4021
  334MOL0     O43957   3.578  10.809   7.935 -0.0780 -0.0288 -0.3992
  334MOL0     C43958   3.636  10.725   7.864 -0.1690 -0.3545 -0.6797
  334MOL0     O43959   3.583  10.602   7.833 -0.3146  0.1076  0.3850
  334MOL0     C43960   3.452  10.578   7.890 -0.1638  0.8891  0.2723
  334MOL0     C43961   3.348  10.588   7.808 -0.0462 -0.0633  0.2437
  334MOL0     C43962   3.216  10.560   7.855 -0.5039  0.2364  0.4177
  334MOL0     C43963   3.196  10.525   7.988  0.7655  0.2159  0.1529
  334MOL0     O43964   3.071  10.493   8.037  0.5332 -0.1385  0.0184
  334MOL0     C43965   2.946  10.542   7.978 -0.1288  0.6701  0.4223
  334MOL0     C43966   2.831  10.507   8.067  0.0819  0.7060 -0.2729
  334MOL0     C43967   2.702  10.522   8.001  0.6917  0.3830  0.2310
  334MOL0     C43968   2.582  10.488   8.097  0.8926  0.7914 -0.1674
  334MOL0     C43969   2.458  10.448   8.012  0.0095  0.3579 -0.4532
  334MOL0     C43970   2.345  10.386   8.103  0.3317  0.9770 -0.1087
  334MOL0     C43971   2.245  10.302   8.018  0.0244  0.0937 -0.3435
  334MOL0     C43972   2.142  10.388   7.937  0.0044  0.2350 -0.0919
  334MOL0     N43973   2.045  10.451   8.028  0.6034  0.0359 -0.4048
  334MOL0     C43974   1.913  10.398   8.026 -0.7124  0.7806  0.1907
  334MOL0     C43975   1.833  10.503   8.055  0.3146 -0.1067  0.1575
  334MOL0     C43976   1.683  10.481   8.064  0.4479 -0.6100  0.3218
  334MOL0     C43977   1.617  10.583   7.964  0.6327  0.1738  0.7854
  334MOL0     C43978   1.466  10.584   7.961  0.0246  0.7161 -0.8727
  334MOL0     C43979   1.394  10.651   7.841 -0.1264  0.2480  0.5171
  334MOL0     O43980   1.249  10.654   7.866 -0.3636 -0.1545  1.0699
  334MOL0     C43981   1.161  10.646   7.763 -0.0868  0.1777  0.4476
  334MOL0     C43982   1.181  10.686   7.626  0.5441 -0.7113  0.0339
  334MOL0     C43983   1.068  10.688   7.537  0.0953 -0.0534 -0.1521
  334MOL0     C43984   0.938  10.671   7.587  0.6757 -0.5950 -0.1687
  334MOL0     C43985   0.831  10.690   7.487  0.9183 -0.1358 -0.2346
  334MOL0     O43986   0.710  10.628   7.522  0.1981 -0.1307 -0.7558
  334MOL0     C43987   0.614  10.614   7.423 -0.4596 -0.0670  0.7601
  334MOL0     C43988   0.490  10.675   7.439  0.4569  0.6602  0.7681
  334MOL0     C43989   0.392  10.659   7.346  0.3637  0.2741 -0.2188
  334MOL0     C43990   0.415  10.586   7.227 -0.2577  0.7393 -0.6987
  334MOL0     O43991   0.315  10.581   7.138 -0.0780 -0.0102  0.1467
  334MOL0     C43992   0.346  10.518   7.014  0.6266 -0.0381  0.9510
  334MOL0     C43993   0.246  10.532   6.899  0.2405 -0.0599  0.2375
  334MOL0     C43994   0.119  10.441   6.904  0.4622  0.7136  0.0384
  334MOL0     C43995   0.153  10.309   6.845  0.2582  0.3699  0.7594
  334MOL0     C43996   0.048  10.197   6.860  0.3150  0.5420 -0.1361
  334MOL0     C43997  -0.074  10.210   6.775 -0.3592  0.0734  0.6393
  334MOL0     C43998  -0.148  10.078   6.792 -1.1667  0.0059  0.1983
  334MOL0     C43999  -0.091   9.973   6.693  0.4962 -0.0986  0.4204
  334MOL0    Cl44000  -0.112  10.008   6.520  0.4727 -0.1904  0.4395
  334MOL0     C44001   0.538  10.509   7.220  0.1242  0.8253 -0.4919
  334MOL0     C44002   0.636  10.522   7.314  0.1306 -0.6650  0.6043
  334MOL0     O44003   0.855  10.744   7.380 -0.1865 -0.1296 -0.0040
  334MOL0     C44004   0.917  10.651   7.720 -0.4858 -0.0520 -0.4814
  334MOL0     C44005   1.026  10.630   7.802  0.0106 -0.3742  0.1106
  334MOL0     N44006   1.916  10.617   8.078  0.3104  0.7683 -0.5185
  334MOL0     N44007   2.040  10.583   8.047 -0.2292  0.1432  0.7418
  334MOL0     C44008   3.305  10.506   8.074  0.1302  0.0284 -0.6869
  334MOL0     C44009   3.433  10.531   8.022  0.4572 -0.1651 -0.8388
  334MOL0     C44010   3.760  10.757   7.805 -0.1302  0.2120  0.7883
  334MOL0     C44011   3.810  10.695   7.691 -0.0466 -0.1501 -1.5885
  334MOL0     C44012   3.941  10.725   7.657  0.3403  0.6544 -0.2522
  334MOL0     C44013   4.015  10.828   7.713  0.8601 -0.2276 -0.2971
  334MOL0     O44014   4.139  10.876   7.678 -0.1568 -0.0532  0.2958
  334MOL0     C44015   4.198  10.800   7.566  0.0816  0.2879  0.2734
  334MOL0     C44016   4.337  10.860   7.524  0.3654  0.1831 -0.3841
  334MOL0     C44017   4.436  10.789   7.621 -0.0920 -0.3759 -0.0061
  334MOL0     C44018   4.582  10.821   7.612 -0.7532  0.4096  0.1395
  334MOL0     C44019   4.613  10.963   7.610 -0.4945 -0.1539 -0.0574
  334MOL0     C44020   4.648  11.075   7.626  0.1843 -0.9226 -0.4764
  334MOL0     C44021   3.955  10.896   7.816 -0.1471  0.3092 -0.9074
  334MOL0     C44022   3.831  10.861   7.867 -0.3010  0.5266 -0.7201
  334MOL0     H44023   3.366  10.612   7.704 -2.8176 -1.0941 -0.5474
  334MOL0     H44024   3.141  10.575   7.778  0.3482  0.6300 -0.3597
  334MOL0     H44025   2.933  10.501   7.877  1.1038  1.5246 -0.1185
  334MOL0     H44026   2.950  10.649   7.956 -2.7797  0.2467 -3.0260
  334MOL0     H44027   2.849  10.563   8.159  1.1199 -0.4129  0.2323
  334MOL0     H44028   2.842  10.402   8.093  0.2070  0.6370 -0.5972
  334MOL0     H44029   2.693  10.463   7.909  2.2819  0.9469 -0.3278
  334MOL0     H44030   2.693  10.629   7.981 -2.7756 -0.1619 -1.9601
  334MOL0     H44031   2.620  10.406   8.158  0.8603  0.6850 -0.2891
  334MOL0     H44032   2.561  10.571   8.166 -0.8681  0.3133 -0.0749
  334MOL0     H44033   2.493  10.387   7.928 -0.0425  0.3872 -0.4962
  334MOL0     H44034   2.419  10.544   7.976 -0.0214  0.7649  0.6358
  334MOL0     H44035   2.294  10.450   8.175 -0.0758 -0.4806  0.9464
  334MOL0     H44036   2.396  10.313   8.167  0.2790  0.3276 -0.7999
  334MOL0     H44037   2.290  10.228   7.951  0.5335  1.5367 -1.6411
  334MOL0     H44038   2.191  10.241   8.091 -0.6124  1.2781  0.1839
  334MOL0     H44039   2.091  10.347   7.850  1.9076 -0.9553 -0.7224
  334MOL0     H44040   2.209  10.467   7.900  0.0144 -0.4579 -1.6078
  334MOL0     H44041   1.876  10.300   7.995 -0.2163  0.3385  0.9626
  334MOL0     H44042   1.645  10.506   8.164  1.2806  0.8021  0.3197
  334MOL0     H44043   1.654  10.383   8.027 -0.3456  0.3288 -1.7167
  334MOL0     H44044   1.646  10.545   7.865 -2.6876 -0.1050 -0.2239
  334MOL0     H44045   1.652  10.684   7.986 -1.1022  0.8837  0.4484
  334MOL0     H44046   1.420  10.485   7.968 -0.4742  0.6028 -4.0728
  334MOL0     H44047   1.435  10.634   8.054 -3.9743 -0.4845 -1.3380
  334MOL0     H44048   1.428  10.597   7.753  4.5555  0.8148  1.7420
  334MOL0     H44049   1.427  10.755   7.827  2.2963 -0.2177  2.2298
  334MOL0     H44050   1.272  10.728   7.583 -0.2367  2.7288  1.4385
  334MOL0     H44051   1.088  10.704   7.432  0.4771 -1.5481 -0.3291
  334MOL0     H44052   0.467  10.738   7.524  1.8938 -0.0233  1.7149
  334MOL0     H44053   0.298  10.710   7.362  0.2380  0.2300 -0.8017
  334MOL0     H44054   0.359  10.409   7.015 -2.5051 -0.5568 -1.4048
  334MOL0     H44055   0.427  10.575   6.967  0.0160 -1.3478 -1.8820
  334MOL0     H44056   0.300  10.498   6.811  1.3827 -1.4719  1.4289
  334MOL0     H44057   0.213  10.635   6.883 -2.5553 -0.8746  0.2396
  334MOL0     H44058   0.030  10.484   6.856 -0.7491 -0.1232  1.4497
  334MOL0     H44059   0.086  10.427   7.007 -3.0871 -0.1993 -1.0706
  334MOL0     H44060   0.168  10.324   6.737 -0.9275  1.9875  0.7770
  334MOL0     H44061   0.245  10.279   6.895  0.3357 -1.4207 -0.3472
  334MOL0     H44062   0.021  10.182   6.965  1.1221  1.5108  0.2220
  334MOL0     H44063   0.097  10.103   6.835 -3.0797 -0.3049 -4.8955
  334MOL0     H44064  -0.052  10.235   6.671 -0.7789 -1.8668  0.0363
  334MOL0     H44065  -0.132  10.288   6.825 -0.4192  1.2818 -1.2386
  334MOL0     H44066  -0.149  10.038   6.893  3.1115  0.3800  0.5775
  334MOL0     H44067  -0.254  10.087   6.766 -1.7108 -0.2074  2.2001
  334MOL0     H44068  -0.131   9.871   6.698 -1.9152  0.8419  1.8026
  334MOL0     H44069   0.019   9.968   6.698  0.9229  0.5505 -3.9931
  334MOL0     H44070   0.577  10.448   7.140  1.3883  0.5624  0.2856
  334MOL0     H44071   0.735  10.478   7.302  1.0234 -0.0698  4.4810
  334MOL0     H44072   0.823  10.639   7.772  1.5554 -1.1053  3.3988
  334MOL0     H44073   1.024  10.594   7.904  1.9441  0.0313  0.3460
  334MOL0     H44074   3.297  10.476   8.178 -0.3117  3.1217  0.2709
  334MOL0     H44075   3.518  10.499   8.080  0.7839 -1.2424 -1.8777
  334MOL0     H44076   3.743  10.621   7.648 -1.9841 -0.7395  2.0650
  334MOL0     H44077   3.984  10.671   7.573 -2.1692 -1.1527 -0.5094
  334MOL0     H44078   4.127  10.810   7.483  2.4027 -0.3569 -1.8918
  334MOL0     H44079   4.202  10.695   7.596 -0.3830  0.1879 -0.0082
  334MOL0     H44080   4.368  10.829   7.424  2.6498 -0.7203  0.5421
  334MOL0     H44081   4.348  10.967   7.540 -1.7274  0.5810 -1.2841
  334MOL0     H44082   4.421  10.681   7.612  0.8815 -0.5986  0.8396
  334MOL0     H44083   4.413  10.803   7.727  1.7859  0.3976  0.3434
  334MOL0     H44084   4.630  10.784   7.702  0.5672  1.1288 -0.2474
  334MOL0     H44085   4.629  10.786   7.520  0.3027  0.4379  0.6597
  334MOL0     H44086   4.687  11.172   7.651  1.9409 -1.3130 -1.4970
  334MOL0     H44087   4.022  10.964   7.868  0.6097 -1.7847  1.0671
  334MOL0     H44088   3.788  10.898   7.959  2.3954 -1.9343  1.7336
  335MOL0     O44089   3.979   0.947  10.456  0.5536 -0.0881  0.6586
  335MOL0     C44090   3.992   0.990  10.567  0.4125  0.3131  0.2423
  335MOL0     O44091   3.894   1.062  10.634  0.0332  0.0465 -0.7233
  335MOL0     C44092   3.789   1.111  10.553  0.3211 -1.0276  0.7499
  335MOL0     C44093   3.671   1.042  10.553  0.3902 -0.9577 -0.3686
  335MOL0     C44094   3.557   1.080  10.472 -0.3849 -0.4421 -0.3819
  335MOL0     C44095   3.570   1.200  10.391  0.6138 -0.0807  0.2778
  335MOL0     O44096   3.462   1.242  10.316  0.0346 -0.8958  0.3482
  335MOL0     C44097   3.450   1.189  10.188 -0.2193  0.0967  0.2034
  335MOL0     C44098   3.320   1.242  10.125 -0.1166  0.4422  0.4509
  335MOL0     C44099   3.198   1.193  10.209  0.1750 -0.0732 -0.5931
  335MOL0     C44100   3.064   1.224  10.149  0.0688 -0.1209  0.5152
  335MOL0     C44101   3.041   1.154  10.015 -0.2176 -0.1899 -0.6979
  335MOL0     C44102   2.891   1.161   9.983 -0.2914 -0.2777  0.3724
  335MOL0     C44103   2.861   1.097   9.850 -0.5768  0.9840 -0.1411
  335MOL0     C44104   2.712   1.101   9.820  0.3243  0.1263  1.0549
  335MOL0     N44105   2.686   1.034   9.689 -0.3955 -0.5249 -0.2851
  335MOL0     C44106   2.650   1.101   9.569 -0.0897 -0.8564  0.0206
  335MOL0     C44107   2.617   1.005   9.477 -0.7865 -0.1051  1.2596
  335MOL0     C44108   2.593   1.021   9.331  0.4292 -0.2741 -0.5705
  335MOL0     C44109   2.443   1.014   9.307  0.8279  0.9353  0.4206
  335MOL0     C44110   2.422   1.055   9.158  0.2526  0.6437 -1.5015
  335MOL0     C44111   2.283   1.007   9.109 -0.7174 -0.4247  0.3704
  335MOL0     O44112   2.279   1.060   8.977  0.0541 -0.1442  0.1370
  335MOL0     C44113   2.161   1.039   8.908  0.0491 -0.2116  0.2639
  335MOL0     C44114   2.180   1.037   8.765  0.0767  0.0606  0.7170
  335MOL0     C44115   2.081   0.993   8.676  0.0849  0.0675  1.3527
  335MOL0     C44116   1.951   0.959   8.729  0.8878  0.0362 -1.1210
  335MOL0     C44117   1.834   0.934   8.655  0.3926  0.6019 -0.1299
  335MOL0     O44118   1.861   0.959   8.526 -0.2494  0.5933  0.2110
  335MOL0     C44119   1.766   0.929   8.427  0.1965  0.4673  0.4801
  335MOL0     C44120   1.816   0.854   8.320 -0.2535 -0.6311 -0.8289
  335MOL0     C44121   1.733   0.827   8.205 -0.0241 -0.6311 -1.3809
  335MOL0     C44122   1.592   0.842   8.216  0.1564 -0.0586 -0.3772
  335MOL0     O44123   1.503   0.798   8.127  0.9344  0.1531  0.6502
  335MOL0     C44124   1.548   0.773   7.992  0.5622 -0.2074 -0.8020
  335MOL0     C44125   1.452   0.712   7.892 -0.2206 -0.0854 -0.2912
  335MOL0     C44126   1.331   0.803   7.872  0.1362  0.0242  0.1901
  335MOL0     C44127   1.228   0.728   7.777  0.0096 -0.1821  0.8210
  335MOL0     C44128   1.094   0.795   7.762  1.1003  0.4595 -0.5905
  335MOL0     C44129   1.014   0.711   7.663  0.1818 -0.3295 -0.1294
  335MOL0     C44130   0.868   0.753   7.656  0.3690  0.2460 -1.0389
  335MOL0     C44131   0.845   0.888   7.601  0.0905 -0.0429 -0.4480
  335MOL0    Cl44132   0.916   0.897   7.434  0.0275 -0.0166 -0.3556
  335MOL0     C44133   1.547   0.916   8.323 -0.3562  0.4900 -0.3251
  335MOL0     C44134   1.631   0.964   8.424 -0.3422  0.3081  0.8917
  335MOL0     O44135   1.722   0.899   8.701  0.3544 -0.1936 -0.2830
  335MOL0     C44136   1.934   0.970   8.870  0.1609 -0.4655  0.4370
  335MOL0     C44137   2.035   1.010   8.957 -0.0804  0.9958  1.1673
  335MOL0     N44138   2.618   0.887   9.547 -1.0523 -0.0298  0.7020
  335MOL0     N44139   2.670   0.900   9.666 -0.0391 -1.3191 -0.3970
  335MOL0     C44140   3.690   1.268  10.394  0.2854  0.0871  0.2609
  335MOL0     C44141   3.796   1.222  10.467 -0.2831 -0.3704 -0.0465
  335MOL0     C44142   4.123   0.961  10.631 -0.7373 -0.4405 -0.2446
  335MOL0     C44143   4.227   0.881  10.573  0.2178 -0.7244  0.1931
  335MOL0     C44144   4.345   0.852  10.638 -0.2308  0.1683 -0.0035
  335MOL0     C44145   4.376   0.917  10.765 -0.6940 -0.1493  0.1844
  335MOL0     O44146   4.490   0.891  10.833 -0.2337  0.1018  0.2074
  335MOL0     C44147   4.594   0.834  10.752 -0.4631  0.9882  0.2214
  335MOL0     C44148   4.711   0.805  10.843  0.4637 -0.1286 -0.4293
  335MOL0     C44149   4.857   0.801  10.766  0.8541 -0.1381  0.2116
  335MOL0     C44150   4.871   0.706  10.660  0.4286  0.6339  0.0374
  335MOL0     C44151   5.006   0.690  10.623  0.4675 -0.4918  0.2121
  335MOL0     C44152   5.116   0.670  10.580 -0.2559 -0.2466  0.1521
  335MOL0     C44153   4.270   1.005  10.822  0.2785  0.5804  0.3520
  335MOL0     C44154   4.143   1.011  10.756 -0.6076  0.2140 -0.3354
  335MOL0     H44155   3.655   0.953  10.613  2.1601 -1.0339  0.0504
  335MOL0     H44156   3.459   1.034  10.477  0.7529 -3.1167 -0.9616
  335MOL0     H44157   3.452   1.080  10.186  2.1424  0.0643 -2.9589
  335MOL0     H44158   3.537   1.225  10.133  2.1354 -0.7843  3.0748
  335MOL0     H44159   3.313   1.198  10.025 -2.2052 -1.8029  1.4865
  335MOL0     H44160   3.313   1.351  10.129 -0.7802  0.5022 -1.5166
  335MOL0     H44161   3.198   1.236  10.310  1.6434 -2.0231  0.3220
  335MOL0     H44162   3.209   1.086  10.231 -1.4410  0.1203  1.5098
  335MOL0     H44163   2.988   1.198  10.223  0.9172 -2.2926  0.6967
  335MOL0     H44164   3.052   1.331  10.128  1.8891 -0.1761 -1.0211
  335MOL0     H44165   3.078   1.051  10.018 -0.7203 -0.4304 -2.0049
  335MOL0     H44166   3.093   1.213   9.939 -2.6066  2.6696 -0.3116
  335MOL0     H44167   2.848   1.262   9.988 -0.0496 -0.0299 -1.7163
  335MOL0     H44168   2.850   1.108  10.070  2.0547 -2.4674  0.2374
  335MOL0     H44169   2.929   1.138   9.775  0.4746 -0.5154 -0.0657
  335MOL0     H44170   2.894   0.993   9.861 -0.6810  0.9338 -0.2902
  335MOL0     H44171   2.664   1.199   9.817 -1.0522 -0.5449  0.1502
  335MOL0     H44172   2.669   1.036   9.897  0.4340 -0.7010  0.4306
  335MOL0     H44173   2.658   1.204   9.539 -0.1202 -1.0863 -0.7880
  335MOL0     H44174   2.658   0.951   9.278 -0.4307 -1.6950  0.2077
  335MOL0     H44175   2.612   1.123   9.296 -0.7911 -0.7871 -2.9445
  335MOL0     H44176   2.379   1.072   9.375  0.6258  2.1792 -0.7880
  335MOL0     H44177   2.424   0.907   9.325  3.5914  0.4045  0.4927
  335MOL0     H44178   2.415   1.165   9.163  2.2301  0.7610  1.1878
  335MOL0     H44179   2.503   1.029   9.091  1.5096 -1.8140  0.7939
  335MOL0     H44180   2.198   1.051   9.162 -0.6071  0.6679 -0.3046
  335MOL0     H44181   2.275   0.898   9.114  1.7217 -0.6032  1.7203
  335MOL0     H44182   2.270   1.073   8.716 -0.6311  0.3892 -0.3556
  335MOL0     H44183   2.105   0.982   8.571  1.0395 -3.0165  1.8068
  335MOL0     H44184   1.921   0.827   8.326  0.3658  1.9187  2.9967
  335MOL0     H44185   1.780   0.760   8.133  3.5103 -1.7004  1.6264
  335MOL0     H44186   1.625   0.697   8.004 -1.0005 -1.6939  0.2399
  335MOL0     H44187   1.589   0.869   7.958  0.1303 -0.4885 -2.1551
  335MOL0     H44188   1.414   0.617   7.930 -0.1778 -0.6527 -1.6052
  335MOL0     H44189   1.500   0.684   7.798 -0.6775  0.0457 -0.5661
  335MOL0     H44190   1.351   0.903   7.834  0.8635  0.0505  0.6325
  335MOL0     H44191   1.290   0.832   7.969  1.5345  1.2093  0.4529
  335MOL0     H44192   1.269   0.693   7.682  1.6989  0.3511  1.3271
  335MOL0     H44193   1.209   0.630   7.822 -0.6426  0.3109  1.6479
  335MOL0     H44194   1.106   0.900   7.732 -1.6799  0.8211 -0.6301
  335MOL0     H44195   1.053   0.794   7.863 -0.2150 -0.0897 -1.1172
  335MOL0     H44196   1.016   0.606   7.693  0.1619  0.3742  2.6504
  335MOL0     H44197   1.060   0.713   7.563  1.0083  4.8617  0.1083
  335MOL0     H44198   0.818   0.674   7.599 -0.7481  0.0028  0.2349
  335MOL0     H44199   0.826   0.761   7.757 -2.6043  0.4550 -2.1654
  335MOL0     H44200   0.899   0.959   7.665 -3.1798 -0.8507  3.6184
  335MOL0     H44201   0.739   0.914   7.611  0.0902 -0.0811 -0.3530
  335MOL0     H44202   1.439   0.927   8.332 -0.6273 -1.3293 -0.9442
  335MOL0     H44203   1.603   1.044   8.492  1.2526  2.1029 -0.4431
  335MOL0     H44204   1.834   0.946   8.904 -0.1800  0.3961  0.0713
  335MOL0     H44205   2.010   1.013   9.063 -1.4922  2.2566  0.8321
  335MOL0     H44206   3.707   1.356  10.333 -0.7184 -0.1364 -0.3732
  335MOL0     H44207   3.893   1.270  10.463 -0.5723  0.2475  0.1448
  335MOL0     H44208   4.202   0.831  10.480 -1.0898 -0.2355  0.2555
  335MOL0     H44209   4.402   0.778  10.584 -1.1555 -2.8495  2.8185
  335MOL0     H44210   4.615   0.902  10.669 -3.4568 -0.7790 -2.1693
  335MOL0     H44211   4.563   0.739  10.709 -1.6895  1.3927  0.1501
  335MOL0     H44212   4.711   0.884  10.919 -0.9387  3.0247 -3.4494
  335MOL0     H44213   4.695   0.713  10.901 -0.4120  0.4253  0.2350
  335MOL0     H44214   4.933   0.784  10.843  0.1253  0.9027  1.2030
  335MOL0     H44215   4.880   0.898  10.720  2.0302 -0.1158  0.8046
  335MOL0     H44216   4.834   0.612  10.703 -0.9196 -0.0911 -2.5030
  335MOL0     H44217   4.800   0.719  10.578 -1.9099 -0.5907  1.7468
  335MOL0     H44218   5.216   0.638  10.558 -0.3468  0.6118 -1.7128
  335MOL0     H44219   4.296   1.054  10.915 -0.6524  1.1691  0.3240
  335MOL0     H44220   4.061   1.059  10.808 -0.9758 -2.0773  1.3359
  336MOL0     O44221   1.700   0.361   6.911  0.0598 -0.7217 -0.1308
  336MOL0     C44222   1.695   0.447   6.996 -0.0563  0.2406  0.4320
  336MOL0     O44223   1.597   0.480   7.076 -0.3146  0.7759  0.2401
  336MOL0     C44224   1.477   0.403   7.074 -0.4409  0.1411 -0.3309
  336MOL0     C44225   1.462   0.290   7.157 -0.4695  0.2943  0.2509
  336MOL0     C44226   1.345   0.216   7.154 -0.9583  0.1344  1.1712
  336MOL0     C44227   1.235   0.268   7.074  0.5648  0.4994 -1.0003
  336MOL0     O44228   1.127   0.191   7.068 -0.1321  0.0961 -0.4004
  336MOL0     C44229   1.049   0.181   6.945  0.9660  0.2621 -0.4168
  336MOL0     C44230   0.910   0.258   6.955 -0.7050 -0.2129 -0.4400
  336MOL0     C44231   0.841   0.281   6.821 -0.3334  0.2805 -0.6542
  336MOL0     C44232   0.745   0.394   6.848  0.3054  0.0013 -0.3376
  336MOL0     C44233   0.643   0.411   6.737  0.2856 -0.2765 -0.6790
  336MOL0     C44234   0.543   0.521   6.780 -1.2085  0.2161 -0.2525
  336MOL0     C44235   0.451   0.554   6.663 -0.2639 -0.7059 -0.1910
  336MOL0     C44236   0.502   0.695   6.609 -0.0169  0.1397 -0.0113
  336MOL0     N44237   0.399   0.738   6.515  0.6124 -0.9531 -0.0648
  336MOL0     C44238   0.411   0.728   6.384 -0.5548 -0.3949 -0.1005
  336MOL0     C44239   0.282   0.745   6.336 -0.2654  0.6865 -0.2569
  336MOL0     C44240   0.229   0.743   6.199 -0.4607 -0.1446 -0.5353
  336MOL0     C44241   0.078   0.753   6.199 -0.3997 -0.0875  0.5169
  336MOL0     C44242   0.034   0.900   6.194  0.5029 -0.3193 -0.3959
  336MOL0     C44243   0.042   0.962   6.056 -0.3913  0.7897 -0.3161
  336MOL0     O44244  -0.018   0.875   5.958  0.5740 -0.2790  0.4099
  336MOL0     C44245  -0.157   0.866   5.950  0.7442  0.5977 -0.2759
  336MOL0     C44246  -0.215   0.765   5.870 -0.1134 -0.2880 -0.2216
  336MOL0     C44247  -0.356   0.768   5.847  0.7747 -0.2654  0.4967
  336MOL0     C44248  -0.443   0.859   5.908 -0.4457 -1.2067 -1.3181
  336MOL0     C44249  -0.589   0.849   5.881 -0.0623  0.0552 -0.5946
  336MOL0     O44250  -0.635   0.799   5.758 -0.1314  0.1040  0.8617
  336MOL0     C44251  -0.762   0.751   5.746 -0.6706 -0.4768  0.4980
  336MOL0     C44252  -0.826   0.799   5.637  0.4161 -0.2522 -0.1724
  336MOL0     C44253  -0.968   0.782   5.626 -0.8518 -0.4038  0.6940
  336MOL0     C44254  -1.033   0.698   5.722 -0.4026  0.5168 -0.3457
  336MOL0     O44255  -1.167   0.678   5.703  0.1254 -0.2483  0.3963
  336MOL0     C44256  -1.225   0.586   5.797 -0.5171 -0.4337  0.9190
  336MOL0     C44257  -1.370   0.567   5.765  0.5068 -0.0124  0.3107
  336MOL0     C44258  -1.446   0.692   5.781  0.7007 -0.0791 -0.0895
  336MOL0     C44259  -1.604   0.681   5.813 -0.5874  0.2142  0.2254
  336MOL0     C44260  -1.675   0.660   5.681  0.8442  0.2474  0.1827
  336MOL0     C44261  -1.827   0.661   5.694  0.2521 -0.0403  0.2995
  336MOL0     C44262  -1.877   0.733   5.572  0.3773 -0.9083  0.4147
  336MOL0     C44263  -2.033   0.749   5.550 -0.4614  0.2039 -0.0710
  336MOL0    Cl44264  -2.082   0.579   5.534 -0.3664 -0.1184 -0.0917
  336MOL0     C44265  -0.955   0.650   5.836  0.3516  0.2306  0.8379
  336MOL0     C44266  -0.821   0.677   5.849  0.2215  0.2826  0.8569
  336MOL0     O44267  -0.659   0.907   5.968  0.8007 -0.2112  0.9547
  336MOL0     C44268  -0.383   0.961   5.994  0.3442  0.6297 -0.5937
  336MOL0     C44269  -0.245   0.964   6.006 -0.2211 -0.3662 -0.2382
  336MOL0     N44270   0.200   0.769   6.449 -0.4868 -0.1447 -0.1832
  336MOL0     N44271   0.269   0.764   6.552 -0.5520  0.3705 -0.0576
  336MOL0     C44272   1.251   0.386   7.004 -0.5007 -0.0136 -0.3053
  336MOL0     C44273   1.377   0.454   7.002 -0.2862  0.1941 -0.9962
  336MOL0     C44274   1.819   0.526   7.022 -0.0741  0.6035  0.2939
  336MOL0     C44275   1.901   0.551   6.910 -0.7173  1.0868 -0.1449
  336MOL0     C44276   2.009   0.643   6.914 -0.1612 -0.1619  0.6391
  336MOL0     C44277   2.046   0.696   7.038  0.6860 -0.1530 -0.0559
  336MOL0     O44278   2.155   0.778   7.053  0.2017 -0.0560 -0.1128
  336MOL0     C44279   2.220   0.842   6.943 -0.6726  0.9325  0.2689
  336MOL0     C44280   2.129   0.924   6.862 -0.0959  0.3428  0.4561
  336MOL0     C44281   2.040   1.018   6.939  0.4578  0.9678 -0.1798
  336MOL0     C44282   1.948   1.096   6.846 -0.1786  0.2087 -0.2099
  336MOL0     C44283   1.989   1.217   6.776 -0.6038  0.2029 -0.1198
  336MOL0     C44284   2.006   1.321   6.717 -0.2652  0.4493  0.3117
  336MOL0     C44285   1.978   0.650   7.149 -0.0409  0.1339 -0.5825
  336MOL0     C44286   1.860   0.577   7.142  0.3666 -0.2794 -0.2413
  336MOL0     H44287   1.542   0.259   7.224 -0.4626 -0.2277 -0.0014
  336MOL0     H44288   1.342   0.118   7.200 -0.8220 -0.1589  0.5641
  336MOL0     H44289   1.022   0.076   6.929  2.2776 -0.4925  1.8500
  336MOL0     H44290   1.107   0.215   6.859  1.5585  1.5994  0.4839
  336MOL0     H44291   0.943   0.351   7.001  0.7232 -1.7597  1.8290
  336MOL0     H44292   0.855   0.201   7.030  1.7491 -3.1685 -0.6755
  336MOL0     H44293   0.791   0.189   6.791 -0.1017  0.0672 -0.3981
  336MOL0     H44294   0.919   0.310   6.749 -0.6634  0.5529 -0.9039
  336MOL0     H44295   0.687   0.373   6.937  0.0072 -1.6749 -0.9008
  336MOL0     H44296   0.805   0.485   6.865  0.7251 -0.0202 -1.5427
  336MOL0     H44297   0.586   0.322   6.711 -1.1332  0.3835  0.0274
  336MOL0     H44298   0.689   0.453   6.647 -3.1714  0.6288 -2.1730
  336MOL0     H44299   0.599   0.611   6.806  0.1895  0.3243 -3.2083
  336MOL0     H44300   0.487   0.488   6.868 -0.5575 -2.7207 -0.8294
  336MOL0     H44301   0.460   0.490   6.575 -1.9521  0.0508 -0.9605
  336MOL0     H44302   0.346   0.565   6.692 -0.2119 -0.4822 -0.0850
  336MOL0     H44303   0.604   0.684   6.572 -0.7435 -0.4858 -1.9534
  336MOL0     H44304   0.514   0.766   6.691  3.6891 -0.5134  0.1429
  336MOL0     H44305   0.498   0.688   6.333  0.3629 -1.6769  2.3087
  336MOL0     H44306   0.255   0.656   6.138 -1.9730  1.1372 -3.2323
  336MOL0     H44307   0.282   0.830   6.158 -0.1867 -1.0443 -2.1714
  336MOL0     H44308   0.037   0.691   6.280 -2.6479 -0.1719 -0.5901
  336MOL0     H44309   0.050   0.700   6.107  3.1647 -1.7876  0.2375
  336MOL0     H44310  -0.072   0.907   6.221  0.5457  1.1763 -0.5719
  336MOL0     H44311   0.087   0.962   6.267  1.3300  0.2339 -1.4406
  336MOL0     H44312   0.145   0.953   6.019 -0.0873  3.4866 -0.3583
  336MOL0     H44313   0.016   1.068   6.048 -0.6516  0.6397 -1.9725
  336MOL0     H44314  -0.146   0.694   5.827 -1.0835  0.1038 -2.5880
  336MOL0     H44315  -0.410   0.699   5.782 -2.7170  1.4505  1.3163
  336MOL0     H44316  -0.765   0.872   5.586  2.3967 -1.4630  0.3588
  336MOL0     H44317  -1.031   0.830   5.552 -1.4954  1.2366  2.2478
  336MOL0     H44318  -1.224   0.624   5.899  1.3127  2.1669  0.0235
  336MOL0     H44319  -1.181   0.487   5.784  1.0663  0.3561 -0.0566
  336MOL0     H44320  -1.414   0.494   5.834  0.2606  0.6891  0.9208
  336MOL0     H44321  -1.372   0.514   5.670 -3.3899 -3.1164  1.8595
  336MOL0     H44322  -1.438   0.758   5.694 -0.7887  0.9612  0.4974
  336MOL0     H44323  -1.409   0.751   5.866 -0.0569  0.5267 -0.1693
  336MOL0     H44324  -1.620   0.591   5.873  2.0084 -1.2604 -1.0750
  336MOL0     H44325  -1.647   0.764   5.869  0.9510 -0.1415  2.0682
  336MOL0     H44326  -1.639   0.566   5.637  4.9811  1.1036  1.2759
  336MOL0     H44327  -1.650   0.741   5.612  0.0251  1.0533  0.8098
  336MOL0     H44328  -1.859   0.724   5.777  1.3310  1.2789 -0.2521
  336MOL0     H44329  -1.872   0.563   5.710 -0.5220  0.3515  0.6000
  336MOL0     H44330  -1.848   0.838   5.561 -1.3674 -0.5305 -1.0976
  336MOL0     H44331  -1.834   0.686   5.483  1.1535  0.7572 -0.1336
  336MOL0     H44332  -2.039   0.792   5.450  0.8070  0.4501 -0.0456
  336MOL0     H44333  -2.093   0.808   5.620 -0.6026  0.2027 -0.1891
  336MOL0     H44334  -1.000   0.598   5.920  0.6023  3.4576  3.1794
  336MOL0     H44335  -0.764   0.646   5.937  1.8398  1.0612  0.1149
  336MOL0     H44336  -0.453   1.031   6.039 -1.3190 -1.7281  0.6969
  336MOL0     H44337  -0.205   1.046   6.064 -3.2522  2.6721 -2.0703
  336MOL0     H44338   1.172   0.429   6.944 -0.2651 -0.5612 -1.0230
  336MOL0     H44339   1.388   0.545   6.944  1.7181  0.9302  0.4291
  336MOL0     H44340   1.877   0.512   6.811  1.1597 -1.4499  0.3011
  336MOL0     H44341   2.052   0.658   6.816 -2.9116 -1.9258 -0.9819
  336MOL0     H44342   2.264   0.768   6.876  0.6147  2.1427 -0.2726
  336MOL0     H44343   2.301   0.907   6.976  2.4904 -0.5406 -3.7317
  336MOL0     H44344   2.176   0.983   6.783 -0.4658  0.2213  0.1413
  336MOL0     H44345   2.057   0.857   6.813 -0.1998  1.0513 -0.3704
  336MOL0     H44346   2.102   1.093   6.989  0.6618  0.3542  0.4969
  336MOL0     H44347   1.981   0.966   7.015  2.2356  0.3891  0.8589
  336MOL0     H44348   1.912   1.028   6.769  1.0393  0.4566 -1.0355
  336MOL0     H44349   1.863   1.131   6.904  0.4129  1.7719 -0.2274
  336MOL0     H44350   2.024   1.405   6.653  1.4739 -1.9431 -2.6070
  336MOL0     H44351   2.008   0.691   7.245  1.1728 -0.0392 -0.8773
  336MOL0     H44352   1.806   0.552   7.233  2.3267 -1.8613  0.5689
  337MOL0     O44353   3.174   4.162   7.868  0.0216  0.5881  0.0890
  337MOL0     C44354   3.106   4.219   7.950 -0.9941 -0.0976 -0.0625
  337MOL0     O44355   2.980   4.264   7.925 -0.2445  0.1609  0.2512
  337MOL0     C44356   2.910   4.231   7.809  0.5620 -0.8434 -0.9848
  337MOL0     C44357   2.773   4.195   7.821  0.0675 -0.3256 -0.3967
  337MOL0     C44358   2.695   4.168   7.709 -0.8659  0.6862 -0.4620
  337MOL0     C44359   2.758   4.195   7.581 -1.2863 -0.4593  0.2919
  337MOL0     O44360   2.675   4.183   7.470 -0.0289  0.2496  0.3232
  337MOL0     C44361   2.723   4.209   7.340 -0.5755 -0.1798 -0.0236
  337MOL0     C44362   2.607   4.172   7.243  0.0049 -0.4467 -0.5283
  337MOL0     C44363   2.482   4.257   7.271 -0.4836  0.0346 -0.0471
  337MOL0     C44364   2.506   4.404   7.277  1.0191  0.0365  0.0859
  337MOL0     C44365   2.373   4.477   7.317 -0.1535 -0.0784  0.5232
  337MOL0     C44366   2.365   4.633   7.302  0.0541  0.0293 -0.6611
  337MOL0     C44367   2.224   4.688   7.340 -1.2434  0.3253 -0.6033
  337MOL0     C44368   2.224   4.841   7.328 -0.4852  0.7207 -0.3693
  337MOL0     N44369   2.090   4.896   7.312  0.5661 -0.3800 -0.7891
  337MOL0     C44370   2.014   4.866   7.203 -0.2728 -0.1627  0.9485
  337MOL0     C44371   1.897   4.934   7.225 -0.7294  0.4770 -0.3228
  337MOL0     C44372   1.791   4.950   7.123  0.8065 -0.4488  0.0925
  337MOL0     C44373   1.728   5.090   7.114  0.0431  0.4691  0.4370
  337MOL0     C44374   1.595   5.092   7.033 -0.0621  0.5946  0.3236
  337MOL0     C44375   1.490   5.015   7.105  0.9179  0.4846  0.9101
  337MOL0     O44376   1.363   5.060   7.048 -0.6332  0.0879 -0.5415
  337MOL0     C44377   1.246   5.011   7.105  0.4814 -0.2370 -0.5427
  337MOL0     C44378   1.124   5.050   7.051  0.0020  0.4458 -0.6560
  337MOL0     C44379   0.999   4.995   7.085 -1.4081  0.8850  0.8415
  337MOL0     C44380   0.996   4.894   7.187  0.7918  0.4435 -0.2657
  337MOL0     C44381   0.857   4.845   7.212  0.9770 -0.6953 -0.5201
  337MOL0     O44382   0.752   4.877   7.120 -0.0882  0.6027 -0.2365
  337MOL0     C44383   0.630   4.825   7.135 -0.4221 -1.0222  0.6437
  337MOL0     C44384   0.517   4.914   7.116  0.0098 -0.8456  0.1090
  337MOL0     C44385   0.388   4.863   7.126  0.2001  0.0207 -0.4282
  337MOL0     C44386   0.372   4.722   7.131  0.0872  0.4500  0.3270
  337MOL0     O44387   0.244   4.684   7.144  0.4287 -0.5075  0.3709
  337MOL0     C44388   0.198   4.562   7.071 -0.6657 -0.2583 -0.0304
  337MOL0     C44389   0.136   4.465   7.171  0.1611  0.6567  0.4100
  337MOL0     C44390   0.055   4.350   7.103 -0.1505 -0.4596 -0.7967
  337MOL0     C44391  -0.040   4.278   7.207 -0.3568 -0.0344 -0.0529
  337MOL0     C44392  -0.122   4.173   7.129 -0.2483 -0.4636 -0.0949
  337MOL0     C44393  -0.205   4.095   7.222  0.6013 -0.0262  0.3068
  337MOL0     C44394  -0.303   4.015   7.138  0.1505  0.2647  0.6732
  337MOL0     C44395  -0.399   3.940   7.225  0.2286  0.1749 -0.6880
  337MOL0    Cl44396  -0.477   3.800   7.145 -0.4820  0.2503  0.1314
  337MOL0     C44397   0.482   4.632   7.133  0.3777 -0.1156 -0.2603
  337MOL0     C44398   0.611   4.688   7.134  0.9036 -0.1305 -0.6577
  337MOL0     O44399   0.841   4.784   7.318  0.0267  0.0835 -0.6667
  337MOL0     C44400   1.113   4.853   7.245  0.4546 -0.0737 -0.0045
  337MOL0     C44401   1.239   4.905   7.198  0.0842  0.4621 -1.0360
  337MOL0     N44402   1.912   4.996   7.349 -0.3374 -0.5899 -0.5022
  337MOL0     N44403   2.031   4.980   7.393  0.0632  0.1871 -0.6816
  337MOL0     C44404   2.896   4.228   7.564 -0.0516 -0.0582 -0.2411
  337MOL0     C44405   2.968   4.245   7.684  0.4795 -0.5920 -0.6275
  337MOL0     C44406   3.159   4.221   8.088 -0.2138 -0.4051  0.2394
  337MOL0     C44407   3.286   4.170   8.121 -0.8136 -0.0771 -0.3191
  337MOL0     C44408   3.341   4.213   8.246 -0.5966  0.4986  0.4815
  337MOL0     C44409   3.258   4.257   8.355  0.1631 -0.1290  0.2251
  337MOL0     O44410   3.298   4.284   8.485 -0.9790 -0.5344 -0.0183
  337MOL0     C44411   3.437   4.283   8.516  0.1943  0.4860 -0.1156
  337MOL0     C44412   3.465   4.138   8.550 -0.4886  0.5562  0.4069
  337MOL0     C44413   3.606   4.114   8.601 -0.8726 -0.5746 -0.3272
  337MOL0     C44414   3.609   4.157   8.748 -0.5099  0.8032  0.3097
  337MOL0     C44415   3.728   4.114   8.828  0.0535 -0.0745 -0.2845
  337MOL0     C44416   3.830   4.093   8.887 -0.3976  0.4707  0.4318
  337MOL0     C44417   3.135   4.286   8.325  0.5585 -0.3976 -0.0242
  337MOL0     C44418   3.080   4.274   8.196 -0.4989  0.8084 -0.6176
  337MOL0     H44419   2.726   4.193   7.919  0.6065 -0.8804 -0.1443
  337MOL0     H44420   2.595   4.126   7.711  1.0893 -4.6730  0.6148
  337MOL0     H44421   2.807   4.141   7.325 -1.3728 -1.1932 -0.0111
  337MOL0     H44422   2.755   4.313   7.323  1.0934 -0.8589 -1.3599
  337MOL0     H44423   2.573   4.068   7.250 -0.4359 -0.2497  0.3104
  337MOL0     H44424   2.647   4.188   7.142  1.0035 -2.2072 -0.4640
  337MOL0     H44425   2.452   4.225   7.371 -1.0269  3.5487  1.0577
  337MOL0     H44426   2.402   4.235   7.200  0.9811 -1.3400 -1.3586
  337MOL0     H44427   2.583   4.422   7.353  0.9063 -1.9444  0.7038
  337MOL0     H44428   2.550   4.427   7.180 -0.9000 -1.5786 -1.2318
  337MOL0     H44429   2.357   4.453   7.422  0.3377 -0.3105  0.5479
  337MOL0     H44430   2.287   4.433   7.266 -2.7621  1.4477  3.3033
  337MOL0     H44431   2.388   4.664   7.200 -3.3094  0.7772 -1.3204
  337MOL0     H44432   2.431   4.688   7.369  1.4941 -2.2329 -0.1330
  337MOL0     H44433   2.155   4.645   7.267 -0.3128  0.3818 -1.5474
  337MOL0     H44434   2.208   4.660   7.444  2.9769  1.9667  0.7012
  337MOL0     H44435   2.284   4.871   7.242 -1.0067  2.1056 -0.2761
  337MOL0     H44436   2.271   4.882   7.417  1.1886 -1.3067 -0.2532
  337MOL0     H44437   2.041   4.816   7.110  0.2413 -0.4296  1.2403
  337MOL0     H44438   1.718   4.870   7.137  1.7153 -2.0099 -3.1357
  337MOL0     H44439   1.829   4.932   7.022 -2.3299  1.8660 -1.6673
  337MOL0     H44440   1.800   5.161   7.072 -0.1737  1.8251  2.2146
  337MOL0     H44441   1.716   5.136   7.213  3.0116  1.5014  0.4426
  337MOL0     H44442   1.561   5.194   7.015  0.2327  0.4498 -1.2192
  337MOL0     H44443   1.613   5.036   6.940  4.1575 -2.3364  2.5594
  337MOL0     H44444   1.491   5.028   7.213 -0.3654  1.1186  0.8644
  337MOL0     H44445   1.500   4.909   7.079 -0.6527  0.3869  0.6055
  337MOL0     H44446   1.120   5.133   6.981  0.8450  0.2809 -0.9018
  337MOL0     H44447   0.911   5.037   7.038 -0.9486 -1.1941 -2.1513
  337MOL0     H44448   0.544   5.019   7.122 -1.2708 -0.5751  2.0802
  337MOL0     H44449   0.292   4.912   7.120 -0.2138 -0.6859  0.2543
  337MOL0     H44450   0.277   4.513   7.014 -1.6232 -1.0479 -0.7189
  337MOL0     H44451   0.121   4.593   7.000 -0.5176 -0.0183 -0.0846
  337MOL0     H44452   0.060   4.517   7.231 -0.6026 -1.1268  1.0441
  337MOL0     H44453   0.210   4.411   7.230  1.9276  3.0705  0.5826
  337MOL0     H44454   0.116   4.268   7.064 -0.9507 -1.3183 -0.2881
  337MOL0     H44455  -0.003   4.389   7.019 -0.6716 -0.0424 -0.2547
  337MOL0     H44456   0.026   4.216   7.268  1.6225  2.6618  0.7218
  337MOL0     H44457  -0.104   4.347   7.263 -1.7550 -0.3507 -1.1937
  337MOL0     H44458  -0.052   4.112   7.072 -0.3716  0.8980 -1.8152
  337MOL0     H44459  -0.187   4.227   7.059  0.0289  0.1816  0.1316
  337MOL0     H44460  -0.261   4.167   7.281 -0.3702 -0.7676  0.3165
  337MOL0     H44461  -0.149   4.018   7.275 -0.5324 -3.1897 -2.7099
  337MOL0     H44462  -0.362   4.075   7.068  1.0902 -0.6824 -0.9886
  337MOL0     H44463  -0.244   3.949   7.073 -0.3781  1.1374 -0.7322
  337MOL0     H44464  -0.470   4.011   7.268 -0.2863 -0.2519 -0.8317
  337MOL0     H44465  -0.346   3.903   7.313  1.1429 -0.9627 -1.6785
  337MOL0     H44466   0.474   4.526   7.151  0.0735  0.0927  0.8883
  337MOL0     H44467   0.700   4.626   7.141  1.4863  0.6062 -1.3810
  337MOL0     H44468   1.117   4.762   7.305 -1.8287 -0.6691 -0.6428
  337MOL0     H44469   1.337   4.868   7.225 -0.0577  1.9126  1.8873
  337MOL0     H44470   2.948   4.245   7.471  0.4066  0.2687  0.0687
  337MOL0     H44471   3.071   4.279   7.676  0.9800 -1.7362  0.5818
  337MOL0     H44472   3.347   4.116   8.050  1.3634 -1.7687  2.6113
  337MOL0     H44473   3.447   4.190   8.247 -0.9420 -1.5121 -1.3531
  337MOL0     H44474   3.448   4.335   8.611  2.7344 -2.5022  1.4294
  337MOL0     H44475   3.496   4.324   8.434  2.4595 -2.6899 -0.2816
  337MOL0     H44476   3.392   4.100   8.623 -2.4130  0.3718 -1.5215
  337MOL0     H44477   3.449   4.095   8.451 -0.3554  1.1518  0.1228
  337MOL0     H44478   3.673   4.179   8.545 -0.6622  0.0719  0.6530
  337MOL0     H44479   3.632   4.008   8.592  0.5632 -0.3722  0.9555
  337MOL0     H44480   3.617   4.266   8.751  0.3571  0.7228  2.7950
  337MOL0     H44481   3.521   4.114   8.798 -0.8481 -0.6053 -1.3637
  337MOL0     H44482   3.916   4.056   8.941  2.8182  1.9114 -3.1976
  337MOL0     H44483   3.078   4.332   8.404  1.2906 -0.2312  0.4149
  337MOL0     H44484   2.978   4.301   8.171 -0.6860 -0.3792 -1.1966
  338MOL0     O44485   0.533   6.053   9.886 -0.2846  0.5931 -0.4114
  338MOL0     C44486   0.588   6.114   9.789  0.0325  0.2123  0.2252
  338MOL0     O44487   0.532   6.138   9.663  0.4674  0.3284  0.7039
  338MOL0     C44488   0.399   6.109   9.640 -0.3155  0.6934 -0.5919
  338MOL0     C44489   0.369   6.053   9.519  0.3223 -0.1876  0.4040
  338MOL0     C44490   0.237   6.008   9.493  0.0854  0.0726 -0.3866
  338MOL0     C44491   0.131   6.034   9.586  0.8780  0.7311  0.0932
  338MOL0     O44492  -0.003   6.017   9.568  0.1315 -0.0224 -0.2428
  338MOL0     C44493  -0.034   5.913   9.472  0.0833 -0.0323 -0.0226
  338MOL0     C44494  -0.182   5.890   9.464  0.6260  0.1803 -0.3663
  338MOL0     C44495  -0.236   5.825   9.599 -0.3265 -0.7273  1.0967
  338MOL0     C44496  -0.394   5.832   9.607 -0.4470  0.3897  0.0125
  338MOL0     C44497  -0.453   5.696   9.638  0.3027 -0.3760 -1.3655
  338MOL0     C44498  -0.605   5.724   9.668  0.1135  0.4410 -0.4202
  338MOL0     C44499  -0.692   5.597   9.673  0.6526  0.3380 -1.0132
  338MOL0     C44500  -0.838   5.623   9.647  1.1658 -0.3877  0.1077
  338MOL0     N44501  -0.931   5.503   9.663 -0.4549 -0.3974  0.2595
  338MOL0     C44502  -0.969   5.453   9.788  0.8845 -0.6924 -0.2583
  338MOL0     C44503  -1.064   5.365   9.769  0.1365 -0.2951 -0.5752
  338MOL0     C44504  -1.130   5.288   9.884 -0.1398  0.0653 -0.1316
  338MOL0     C44505  -1.211   5.167   9.839  0.2957  0.2486  0.3984
  338MOL0     C44506  -1.131   5.030   9.840  0.1453 -0.3732  0.5017
  338MOL0     C44507  -1.180   4.940   9.728  0.0167 -0.2807 -0.0012
  338MOL0     O44508  -1.323   4.919   9.762 -0.3945 -0.1398 -0.3259
  338MOL0     C44509  -1.405   4.831   9.697  0.4484 -0.0424 -0.6582
  338MOL0     C44510  -1.532   4.810   9.749  0.4229  0.3754  0.6312
  338MOL0     C44511  -1.619   4.734   9.674 -0.1249  0.4407 -0.0483
  338MOL0     C44512  -1.583   4.663   9.552  0.3908  1.0259  0.2616
  338MOL0     C44513  -1.680   4.590   9.476 -0.6319  0.0863 -1.0088
  338MOL0     O44514  -1.798   4.578   9.539  0.2694  0.0599 -0.0399
  338MOL0     C44515  -1.898   4.499   9.495 -1.0490  0.6143  0.0244
  338MOL0     C44516  -1.877   4.374   9.436 -0.2623 -0.2025  0.3833
  338MOL0     C44517  -1.983   4.283   9.396  0.1920 -0.3151  0.4750
  338MOL0     C44518  -2.114   4.318   9.420 -0.2741 -0.4473 -0.1174
  338MOL0     O44519  -2.210   4.229   9.378 -0.2237  0.4863 -0.6053
  338MOL0     C44520  -2.347   4.262   9.380  0.4183 -0.7076  0.5035
  338MOL0     C44521  -2.425   4.172   9.289 -0.6569  0.9891 -0.0512
  338MOL0     C44522  -2.385   4.199   9.143 -0.3197  0.2142 -0.0248
  338MOL0     C44523  -2.469   4.144   9.037  0.1204  0.0453 -0.7195
  338MOL0     C44524  -2.422   4.192   8.894 -0.3786 -0.0437 -0.2153
  338MOL0     C44525  -2.509   4.127   8.787  0.2262 -0.0151  0.7306
  338MOL0     C44526  -2.418   4.132   8.664  0.0279  0.4460  0.0996
  338MOL0     C44527  -2.485   4.106   8.525 -0.9695 -0.4218 -0.4103
  338MOL0    Cl44528  -2.580   3.959   8.535 -0.0488  0.1497  0.3758
  338MOL0     C44529  -2.139   4.437   9.489  0.1542  0.1737 -0.8071
  338MOL0     C44530  -2.033   4.519   9.528 -0.3319 -0.0376  0.4452
  338MOL0     O44531  -1.647   4.533   9.371  0.5423  0.0319  0.1281
  338MOL0     C44532  -1.451   4.675   9.504 -0.0731  0.3856 -0.0691
  338MOL0     C44533  -1.363   4.757   9.582  0.4336  0.3727 -0.8904
  338MOL0     N44534  -1.087   5.361   9.628 -0.0040  0.0958  0.1661
  338MOL0     N44535  -1.000   5.438   9.564  0.5661  0.3227 -0.1670
  338MOL0     C44536   0.164   6.090   9.712 -0.3957  0.7716 -0.4231
  338MOL0     C44537   0.299   6.134   9.736 -0.0611 -0.0829  0.0382
  338MOL0     C44538   0.725   6.170   9.812  0.1083  0.3102  0.8446
  338MOL0     C44539   0.781   6.277   9.744 -0.8139  0.0381 -0.1521
  338MOL0     C44540   0.910   6.326   9.776 -0.4017 -0.0030 -0.3250
  338MOL0     C44541   0.993   6.265   9.864 -0.2268  0.0864 -0.5506
  338MOL0     O44542   1.132   6.302   9.878  0.4756  0.1020 -0.0505
  338MOL0     C44543   1.181   6.437   9.858 -0.3927 -0.2906 -0.4593
  338MOL0     C44544   1.101   6.523   9.951 -0.3002 -0.7036 -0.2340
  338MOL0     C44545   1.183   6.545  10.078  0.1201 -0.0697  0.0472
  338MOL0     C44546   1.294   6.650  10.068 -0.8883  0.1371  0.9803
  338MOL0     C44547   1.233   6.783  10.050  0.2414 -0.1646 -0.3948
  338MOL0     C44548   1.182   6.888  10.027  0.2731 -0.1164 -0.4749
  338MOL0     C44549   0.941   6.161   9.932  0.1300  0.5113  0.1369
  338MOL0     C44550   0.816   6.109   9.910 -0.4118  0.2170 -0.2302
  338MOL0     H44551   0.442   6.038   9.440 -0.4203  1.5010 -0.6450
  338MOL0     H44552   0.211   5.971   9.394 -0.6215  1.0530 -0.5860
  338MOL0     H44553   0.017   5.817   9.484  0.2929 -0.0184 -0.7304
  338MOL0     H44554  -0.023   5.935   9.365 -2.0097 -0.1791 -0.3128
  338MOL0     H44555  -0.204   5.827   9.377 -1.6990  0.1423  0.1896
  338MOL0     H44556  -0.229   5.989   9.464 -0.5616 -0.3618  0.3300
  338MOL0     H44557  -0.194   5.879   9.684 -3.7231  0.3148  2.2619
  338MOL0     H44558  -0.189   5.726   9.601  2.3516  0.3932 -0.1721
  338MOL0     H44559  -0.408   5.873   9.707  0.5253 -0.1886  0.4016
  338MOL0     H44560  -0.425   5.894   9.522  1.4605  2.1319  0.5105
  338MOL0     H44561  -0.413   5.650   9.728 -2.0518 -0.7740 -0.4384
  338MOL0     H44562  -0.442   5.626   9.554  0.5679 -1.2042 -0.6568
  338MOL0     H44563  -0.638   5.786   9.584 -0.9758  1.5147  0.7698
  338MOL0     H44564  -0.616   5.778   9.762 -0.8576 -0.8760  0.2527
  338MOL0     H44565  -0.668   5.517   9.602 -2.7756 -1.9099  0.0798
  338MOL0     H44566  -0.679   5.546   9.768 -0.6548  1.4982 -0.1755
  338MOL0     H44567  -0.852   5.673   9.550 -0.4397  3.4711  2.1077
  338MOL0     H44568  -0.878   5.695   9.719  1.3582 -1.4732  1.3336
  338MOL0     H44569  -0.925   5.473   9.885 -1.6507 -0.2934  0.9011
  338MOL0     H44570  -1.186   5.354   9.951 -0.3320 -0.9166  0.7035
  338MOL0     H44571  -1.048   5.261   9.952  1.6147 -0.1763 -2.2331
  338MOL0     H44572  -1.249   5.174   9.736 -0.7209 -0.3797  0.7142
  338MOL0     H44573  -1.297   5.158   9.905 -0.4470  2.4195 -0.1952
  338MOL0     H44574  -1.024   5.043   9.826  0.2642 -0.8491  0.9466
  338MOL0     H44575  -1.140   4.971   9.931  1.8885 -2.2331 -0.4692
  338MOL0     H44576  -1.115   4.853   9.713  1.1605  0.8206 -1.7238
  338MOL0     H44577  -1.176   4.983   9.628  0.2958 -3.5068 -1.4738
  338MOL0     H44578  -1.562   4.867   9.836 -0.6340  1.5978 -0.4883
  338MOL0     H44579  -1.719   4.725   9.715 -0.0861  0.3728  0.0314
  338MOL0     H44580  -1.776   4.336   9.420 -0.9742 -1.6154 -1.1344
  338MOL0     H44581  -1.964   4.192   9.339 -1.2034 -1.1497  1.2741
  338MOL0     H44582  -2.368   4.367   9.357 -0.8827 -0.7902  1.2254
  338MOL0     H44583  -2.382   4.259   9.484 -1.9562 -0.1256 -0.2215
  338MOL0     H44584  -2.531   4.195   9.306 -1.4080 -1.2550 -1.1199
  338MOL0     H44585  -2.409   4.068   9.321 -2.5363  0.2411 -1.3589
  338MOL0     H44586  -2.287   4.157   9.117 -1.1024 -0.3730 -2.2284
  338MOL0     H44587  -2.371   4.307   9.130 -0.4235  0.3091  0.6225
  338MOL0     H44588  -2.456   4.036   9.048  0.2517  0.2535  1.8635
  338MOL0     H44589  -2.574   4.174   9.048  0.3249  1.3762 -2.1505
  338MOL0     H44590  -2.318   4.158   8.898  0.0120  1.1228  2.7838
  338MOL0     H44591  -2.420   4.301   8.889 -1.7732  0.1349  1.5609
  338MOL0     H44592  -2.601   4.183   8.770 -2.4230 -3.6820  1.7555
  338MOL0     H44593  -2.536   4.026   8.818 -2.4962  0.6145  0.6270
  338MOL0     H44594  -2.381   4.233   8.644 -0.2908 -0.1118 -4.2359
  338MOL0     H44595  -2.329   4.069   8.673 -0.1278  0.2634  0.3883
  338MOL0     H44596  -2.402   4.105   8.454 -0.4124  0.9154  0.1941
  338MOL0     H44597  -2.546   4.192   8.496 -1.7937 -0.7298  0.3560
  338MOL0     H44598  -2.242   4.467   9.500 -0.0327 -0.9207  0.7227
  338MOL0     H44599  -2.050   4.613   9.579  1.9194  0.4928  0.3181
  338MOL0     H44600  -1.412   4.620   9.419 -0.4298  1.2049 -0.7742
  338MOL0     H44601  -1.262   4.764   9.541  1.0632  0.6207  0.6210
  338MOL0     H44602   0.089   6.104   9.789  2.4452  1.8699  2.3415
  338MOL0     H44603   0.330   6.185   9.827  0.1107  1.4244 -0.8451
  338MOL0     H44604   0.719   6.323   9.668 -1.7324 -1.0301 -0.0768
  338MOL0     H44605   0.934   6.405   9.705  1.2883  0.8358  1.1035
  338MOL0     H44606   1.158   6.471   9.757  2.1226  2.6527 -0.1801
  338MOL0     H44607   1.289   6.455   9.859 -0.4948  0.7529  2.4395
  338MOL0     H44608   1.072   6.619   9.907  0.5783 -1.0239 -1.5659
  338MOL0     H44609   1.005   6.480   9.983 -0.8963  0.2346 -0.6975
  338MOL0     H44610   1.223   6.450  10.115  1.2370  0.7381  0.9647
  338MOL0     H44611   1.116   6.585  10.155 -0.0255 -1.6030  0.7683
  338MOL0     H44612   1.359   6.649  10.156  0.7682 -1.5191 -0.1972
  338MOL0     H44613   1.359   6.642   9.981 -2.2947 -0.4299 -0.0480
  338MOL0     H44614   1.153   6.989  10.005 -2.4905  0.0407  2.8270
  338MOL0     H44615   1.002   6.109  10.005 -1.7515  1.4041  2.4829
  338MOL0     H44616   0.783   6.027   9.973  1.1548 -0.2633 -0.0082
  339MOL0     O44617   8.961   4.984   3.103  0.7781 -0.2702 -0.0840
  339MOL0     C44618   8.910   4.978   3.217  0.0539 -0.7375 -0.6222
  339MOL0     O44619   8.787   5.020   3.265  0.2323 -0.2484 -0.0203
  339MOL0     C44620   8.700   5.084   3.181 -0.4085 -0.7492  0.1983
  339MOL0     C44621   8.606   5.161   3.248 -0.8884  0.5392 -1.0588
  339MOL0     C44622   8.508   5.235   3.185  0.2560 -0.1309  0.3517
  339MOL0     C44623   8.489   5.226   3.040 -0.6500  0.1002  0.1066
  339MOL0     O44624   8.386   5.289   2.972 -0.3599 -0.0855 -0.6071
  339MOL0     C44625   8.265   5.335   3.032  1.7075 -0.1827 -0.8732
  339MOL0     C44626   8.150   5.315   2.938  0.3308 -0.7355 -0.1119
  339MOL0     C44627   8.024   5.388   2.989  0.4126 -0.7856  0.0401
  339MOL0     C44628   7.915   5.375   2.891 -0.4205 -0.9702  0.3442
  339MOL0     C44629   7.797   5.449   2.956 -0.1833 -0.8470 -0.2200
  339MOL0     C44630   7.678   5.450   2.864  0.0481 -0.1000  0.8161
  339MOL0     C44631   7.557   5.499   2.936 -0.0958 -0.3837 -0.3012
  339MOL0     C44632   7.429   5.492   2.857 -0.2278 -0.4038  0.2564
  339MOL0     N44633   7.304   5.544   2.914 -0.6388 -0.5222 -0.2014
  339MOL0     C44634   7.238   5.643   2.839 -0.0035  0.1778  0.6470
  339MOL0     C44635   7.138   5.682   2.927 -0.0896  0.5748  0.5471
  339MOL0     C44636   7.041   5.788   2.897 -0.4522  0.6832  0.2871
  339MOL0     C44637   6.922   5.734   2.818 -0.4557  0.4727  0.4395
  339MOL0     C44638   6.947   5.720   2.665  0.2530  0.2168  0.5169
  339MOL0     C44639   6.818   5.712   2.587  0.2722 -0.3610 -0.3609
  339MOL0     O44640   6.719   5.634   2.658  0.4629  0.5622 -0.5223
  339MOL0     C44641   6.593   5.598   2.609 -0.0573  0.1359  0.2813
  339MOL0     C44642   6.518   5.520   2.688  0.3796  0.3770 -0.9099
  339MOL0     C44643   6.383   5.484   2.666  0.1027  0.2488 -0.2370
  339MOL0     C44644   6.328   5.519   2.534  0.7736 -0.0004 -0.0410
  339MOL0     C44645   6.191   5.488   2.507 -0.4085  0.5330 -0.4377
  339MOL0     O44646   6.136   5.549   2.402 -0.1164  0.5918  0.2724
  339MOL0     C44647   6.005   5.532   2.351  0.2433  0.2840 -0.2021
  339MOL0     C44648   5.971   5.596   2.237  0.3279 -0.4122 -1.0565
  339MOL0     C44649   5.847   5.594   2.179  0.1068 -0.3489  0.4804
  339MOL0     C44650   5.750   5.507   2.220 -0.1995  0.0567  0.1218
  339MOL0     O44651   5.637   5.484   2.146  0.3044 -0.3270  0.5103
  339MOL0     C44652   5.511   5.528   2.194 -0.1617  0.0651 -0.1463
  339MOL0     C44653   5.418   5.539   2.074  0.9298  0.2477  0.0912
  339MOL0     C44654   5.278   5.576   2.106  0.4326  0.3290 -0.8348
  339MOL0     C44655   5.212   5.471   2.194  0.1958 -0.2142  0.2023
  339MOL0     C44656   5.061   5.450   2.158  0.4076 -0.4608 -0.2753
  339MOL0     C44657   4.960   5.557   2.200  0.2842  0.9720  0.0776
  339MOL0     C44658   4.818   5.509   2.215  0.4534  0.2659 -0.0958
  339MOL0     C44659   4.765   5.472   2.076  0.0243 -0.5263 -0.3455
  339MOL0    Cl44660   4.592   5.508   2.060 -0.1663  0.0503 -0.2478
  339MOL0     C44661   5.759   5.459   2.342  0.0156  0.0121 -0.7112
  339MOL0     C44662   5.883   5.475   2.407  0.2389  0.2783 -0.2761
  339MOL0     O44663   6.130   5.414   2.586 -0.8595  0.3483 -0.3224
  339MOL0     C44664   6.408   5.601   2.444  0.5541 -0.1775 -0.1767
  339MOL0     C44665   6.535   5.643   2.484  0.3451  0.6537 -0.2929
  339MOL0     N44666   7.148   5.606   3.044  0.0957  0.0155 -0.2092
  339MOL0     N44667   7.244   5.525   3.036  0.1957  0.1238 -0.3031
  339MOL0     C44668   8.590   5.163   2.974 -0.7263 -0.2030  0.1866
  339MOL0     C44669   8.694   5.091   3.044  0.1458  0.0173 -0.6386
  339MOL0     C44670   8.996   4.904   3.319  0.0021  0.1605 -0.1981
  339MOL0     C44671   9.111   4.829   3.280 -0.2982 -0.1162  0.7159
  339MOL0     C44672   9.195   4.762   3.371 -0.0361 -0.6354  0.6840
  339MOL0     C44673   9.144   4.743   3.505  0.1071 -0.2850 -0.4923
  339MOL0     O44674   9.217   4.676   3.599 -0.9201 -0.3838 -0.0040
  339MOL0     C44675   9.336   4.607   3.569  0.3770 -0.6020 -0.7322
  339MOL0     C44676   9.315   4.478   3.495  1.0395 -0.5931  0.1565
  339MOL0     C44677   9.223   4.379   3.559  0.3843 -0.0347 -0.1075
  339MOL0     C44678   9.191   4.254   3.474  0.2987  0.6462  0.4430
  339MOL0     C44679   9.060   4.281   3.408 -0.5976  1.4366  1.0867
  339MOL0     C44680   8.966   4.298   3.322 -0.2676 -0.4125  0.2751
  339MOL0     C44681   9.022   4.810   3.536 -0.8309  0.5460  0.2280
  339MOL0     C44682   8.947   4.890   3.455 -0.1007 -0.2897  0.4935
  339MOL0     H44683   8.604   5.161   3.357  3.1078  2.3989 -0.8367
  339MOL0     H44684   8.439   5.305   3.232  1.0330 -0.2466  1.6897
  339MOL0     H44685   8.282   5.441   3.055  2.4073 -0.1414 -1.5374
  339MOL0     H44686   8.237   5.277   3.121  3.5443 -2.0617 -1.4352
  339MOL0     H44687   8.129   5.210   2.917  3.4014 -1.4331 -0.0681
  339MOL0     H44688   8.171   5.360   2.840 -0.1087  3.0545  1.3766
  339MOL0     H44689   8.049   5.493   3.005 -0.0361 -0.4907 -1.1087
  339MOL0     H44690   7.993   5.341   3.083 -0.6662 -0.0658  0.0630
  339MOL0     H44691   7.940   5.413   2.792  0.0284 -2.8506 -0.3224
  339MOL0     H44692   7.888   5.270   2.876  0.3288 -1.1323  0.0629
  339MOL0     H44693   7.811   5.554   2.983 -3.8056 -0.3529  0.2826
  339MOL0     H44694   7.772   5.397   3.048  0.0588 -1.7710 -0.6618
  339MOL0     H44695   7.649   5.349   2.835  1.8273 -0.2413 -0.6760
  339MOL0     H44696   7.701   5.499   2.769 -2.5256 -2.3718 -1.1301
  339MOL0     H44697   7.541   5.421   3.011 -0.0187 -1.2705 -1.1951
  339MOL0     H44698   7.584   5.597   2.977 -0.4764  0.0933 -1.1673
  339MOL0     H44699   7.421   5.384   2.841 -1.5441 -0.6489  2.2121
  339MOL0     H44700   7.445   5.539   2.760  0.2279  1.2070  1.0672
  339MOL0     H44701   7.269   5.676   2.741  1.3075 -2.1621  0.1818
  339MOL0     H44702   7.093   5.856   2.829 -0.6984 -0.0210 -0.6237
  339MOL0     H44703   7.001   5.835   2.987  1.2090 -4.1520  3.9717
  339MOL0     H44704   6.845   5.809   2.834 -1.5107 -0.9875  2.8229
  339MOL0     H44705   6.887   5.640   2.862 -1.8304  0.5511 -0.4380
  339MOL0     H44706   6.999   5.806   2.621 -0.1345 -0.4788 -1.4101
  339MOL0     H44707   7.012   5.636   2.636  1.4746  1.7262 -1.3864
  339MOL0     H44708   6.844   5.678   2.486  0.2630 -1.0418 -0.1408
  339MOL0     H44709   6.771   5.810   2.589 -2.6523 -1.6766  0.4955
  339MOL0     H44710   6.567   5.487   2.779 -1.8135 -3.1132 -0.8118
  339MOL0     H44711   6.327   5.433   2.744 -0.1460  1.3580  0.3331
  339MOL0     H44712   6.043   5.661   2.189 -2.1557  3.5897  0.1059
  339MOL0     H44713   5.823   5.636   2.082  0.3240  1.7597  1.2875
  339MOL0     H44714   5.519   5.617   2.257 -0.2920  0.5426 -0.7928
  339MOL0     H44715   5.480   5.443   2.256  2.8374 -1.0933 -0.0941
  339MOL0     H44716   5.419   5.445   2.018  0.3353  1.0207 -1.2717
  339MOL0     H44717   5.448   5.619   2.006 -1.9972  1.8423  0.5255
  339MOL0     H44718   5.220   5.579   2.014  1.0074  2.2616 -1.1853
  339MOL0     H44719   5.277   5.674   2.154  0.4630 -0.7600  1.5496
  339MOL0     H44720   5.260   5.374   2.184 -1.3812 -0.8800 -1.4393
  339MOL0     H44721   5.228   5.501   2.298  1.7053 -4.0766  1.2441
  339MOL0     H44722   5.028   5.353   2.195 -0.4626 -0.1975 -0.3306
  339MOL0     H44723   5.054   5.445   2.049 -3.4208  5.3588 -0.7581
  339MOL0     H44724   4.957   5.642   2.132  0.3586  0.8106 -0.1269
  339MOL0     H44725   4.999   5.597   2.294 -1.7209 -0.7307  1.7572
  339MOL0     H44726   4.812   5.425   2.285 -2.3177 -0.8633 -1.4758
  339MOL0     H44727   4.762   5.594   2.255 -0.2634 -0.0001 -0.5020
  339MOL0     H44728   4.776   5.365   2.058  1.5061 -0.3803 -0.3873
  339MOL0     H44729   4.824   5.525   2.001  2.6914 -0.7769  1.4284
  339MOL0     H44730   5.677   5.401   2.383 -1.3032  0.9964 -1.8303
  339MOL0     H44731   5.901   5.423   2.500  2.2963  0.1545 -0.7028
  339MOL0     H44732   6.367   5.618   2.345 -2.2908 -1.3712  0.7077
  339MOL0     H44733   6.600   5.704   2.423 -1.1062  1.3372 -1.2081
  339MOL0     H44734   8.570   5.168   2.867 -0.5056  2.4572  0.1978
  339MOL0     H44735   8.747   5.019   2.983 -1.4118 -0.7652 -1.1397
  339MOL0     H44736   9.146   4.820   3.178  3.0576 -2.6957  1.9212
  339MOL0     H44737   9.283   4.720   3.324  1.7794  2.1624  1.3605
  339MOL0     H44738   9.383   4.592   3.666 -0.3498 -1.9886 -0.5642
  339MOL0     H44739   9.406   4.670   3.515  2.0119 -1.7497 -0.0233
  339MOL0     H44740   9.278   4.492   3.393 -2.3427 -0.7345  1.2346
  339MOL0     H44741   9.410   4.425   3.486  1.2068 -0.1715 -0.5962
  339MOL0     H44742   9.137   4.443   3.580 -0.0469 -0.5441 -0.2932
  339MOL0     H44743   9.251   4.340   3.657 -4.9411 -2.0589  0.9462
  339MOL0     H44744   9.275   4.221   3.412 -0.8348 -3.2597  0.7088
  339MOL0     H44745   9.183   4.175   3.549  2.6740 -0.8711 -0.7939
  339MOL0     H44746   8.884   4.320   3.256 -1.5260 -0.5202  1.7465
  339MOL0     H44747   8.976   4.786   3.631  0.5139 -1.5658  0.3878
  339MOL0     H44748   8.849   4.923   3.488  0.1548 -0.8969  1.9511
  340MOL0     O44749   0.964   1.998   1.388  0.1016 -0.6517 -0.3593
  340MOL0     C44750   0.929   2.076   1.470 -0.9750 -0.0172 -0.0535
  340MOL0     O44751   0.813   2.075   1.530 -0.5487 -0.4981  0.5102
  340MOL0     C44752   0.727   1.979   1.501 -0.8003  0.4310 -0.4258
  340MOL0     C44753   0.609   2.003   1.426  0.6513 -0.2509 -0.5567
  340MOL0     C44754   0.507   1.912   1.425 -0.2728 -0.4585 -0.0315
  340MOL0     C44755   0.517   1.791   1.478  0.2657  0.1766  0.4410
  340MOL0     O44756   0.410   1.709   1.450 -0.1682 -0.5055 -0.0751
  340MOL0     C44757   0.381   1.600   1.538  0.1808 -0.7124  0.8241
  340MOL0     C44758   0.230   1.606   1.574 -0.6942 -0.1667  0.6457
  340MOL0     C44759   0.202   1.487   1.674 -0.2764  0.0555 -0.0347
  340MOL0     C44760   0.067   1.511   1.740  0.2455  1.2018  0.9853
  340MOL0     C44761   0.038   1.385   1.826 -0.1514  0.0894 -0.6430
  340MOL0     C44762  -0.097   1.380   1.904 -1.0311  1.2654  0.0260
  340MOL0     C44763  -0.224   1.357   1.815 -0.2543 -0.4095 -0.0203
  340MOL0     C44764  -0.283   1.218   1.821  0.8628  0.3237  0.1487
  340MOL0     N44765  -0.412   1.214   1.753 -0.2014 -0.0576  0.9027
  340MOL0     C44766  -0.437   1.258   1.624 -0.2471  0.8151 -0.3395
  340MOL0     C44767  -0.566   1.216   1.606 -0.3368 -0.3482 -0.2155
  340MOL0     C44768  -0.659   1.221   1.485  0.0057  0.0774 -0.4709
  340MOL0     C44769  -0.778   1.333   1.502  0.2694 -0.4356 -0.0997
  340MOL0     C44770  -0.895   1.284   1.594 -0.5149  0.8251  0.6303
  340MOL0     C44771  -1.020   1.379   1.578 -0.3759  0.8347  0.2491
  340MOL0     O44772  -1.130   1.318   1.652 -0.6733  0.3761 -0.1246
  340MOL0     C44773  -1.250   1.363   1.613  0.3088  0.1878  0.9074
  340MOL0     C44774  -1.271   1.483   1.538 -0.1049 -0.4256  0.0613
  340MOL0     C44775  -1.397   1.535   1.514 -0.4075 -0.0636 -0.0333
  340MOL0     C44776  -1.505   1.460   1.546 -0.6945  0.1599 -0.2356
  340MOL0     C44777  -1.651   1.506   1.528 -1.0890  0.7001  0.3828
  340MOL0     O44778  -1.745   1.427   1.587  0.4657 -0.2294  0.5274
  340MOL0     C44779  -1.875   1.468   1.615  0.1870  0.3528  0.3668
  340MOL0     C44780  -1.903   1.598   1.656  0.7595 -0.2368 -0.1771
  340MOL0     C44781  -2.030   1.636   1.704  0.0225  0.3035  1.4999
  340MOL0     C44782  -2.136   1.542   1.709  0.0845 -0.7913  0.1339
  340MOL0     O44783  -2.251   1.586   1.772 -0.2879  0.3140 -0.1722
  340MOL0     C44784  -2.345   1.489   1.798  0.1561  0.4562 -0.2842
  340MOL0     C44785  -2.411   1.512   1.939 -0.5239 -0.4243 -0.7268
  340MOL0     C44786  -2.483   1.647   1.958 -0.2186 -0.5053  0.7581
  340MOL0     C44787  -2.597   1.691   1.859 -0.1172  0.3611  0.6617
  340MOL0     C44788  -2.714   1.593   1.840 -0.2773 -0.7113 -0.7754
  340MOL0     C44789  -2.788   1.559   1.968  0.4465 -0.2170  0.0910
  340MOL0     C44790  -2.852   1.677   2.037  0.2151 -0.0195  0.2712
  340MOL0     C44791  -2.959   1.762   1.949  0.2607  0.2895  0.2129
  340MOL0    Cl44792  -3.081   1.653   1.888  0.0351 -0.0945 -0.2754
  340MOL0     C44793  -2.107   1.419   1.645 -0.4669  0.2108 -0.0991
  340MOL0     C44794  -1.978   1.380   1.606  0.1313  0.1723  0.0592
  340MOL0     O44795  -1.667   1.597   1.453 -0.1201 -0.4502 -0.7350
  340MOL0     C44796  -1.488   1.330   1.612 -0.3313  0.6864  0.7195
  340MOL0     C44797  -1.359   1.278   1.639 -0.2147 -0.8919 -0.2486
  340MOL0     N44798  -0.621   1.166   1.725 -0.0452 -0.2057  0.1809
  340MOL0     N44799  -0.525   1.162   1.809 -0.7741  0.1060 -0.4199
  340MOL0     C44800   0.640   1.757   1.547 -0.3372 -0.1450 -0.0508
  340MOL0     C44801   0.746   1.850   1.553  0.5290  0.0116  0.1725
  340MOL0     C44802   1.032   2.172   1.517  0.1334  0.5033 -0.6541
  340MOL0     C44803   1.166   2.150   1.510 -0.3715 -0.4159  0.1078
  340MOL0     C44804   1.266   2.238   1.561  0.5742 -0.4244  0.4915
  340MOL0     C44805   1.229   2.348   1.643 -0.3667  0.1088 -0.0884
  340MOL0     O44806   1.312   2.457   1.675  0.3877 -0.2593 -0.3468
  340MOL0     C44807   1.446   2.470   1.618 -0.0117  0.5532  0.5897
  340MOL0     C44808   1.492   2.591   1.685 -0.1572 -0.0796 -0.0965
  340MOL0     C44809   1.522   2.576   1.834  0.3329 -0.0551 -0.2712
  340MOL0     C44810   1.671   2.548   1.870  1.1890 -0.2780  0.4470
  340MOL0     C44811   1.754   2.668   1.842 -0.5402  0.3132  0.9377
  340MOL0     C44812   1.825   2.768   1.822  0.5693  1.1105 -0.2574
  340MOL0     C44813   1.088   2.365   1.652 -0.2842 -0.0306 -0.4170
  340MOL0     C44814   0.991   2.280   1.597  0.4354 -0.2133  0.1061
  340MOL0     H44815   0.582   2.101   1.387  0.3347 -0.8928 -2.0524
  340MOL0     H44816   0.416   1.936   1.370  0.7730  2.9733 -0.5070
  340MOL0     H44817   0.441   1.582   1.628 -0.6132 -1.1786  1.2788
  340MOL0     H44818   0.390   1.509   1.478 -0.4573  1.3093 -2.5697
  340MOL0     H44819   0.176   1.590   1.480 -1.0720 -2.6756  1.2170
  340MOL0     H44820   0.209   1.700   1.626  1.4105  1.7085 -1.7124
  340MOL0     H44821   0.271   1.481   1.758 -3.1545 -0.2655  2.4976
  340MOL0     H44822   0.211   1.400   1.608 -1.9742  0.4085 -0.7855
  340MOL0     H44823   0.089   1.597   1.803  1.7588  2.2861 -0.9051
  340MOL0     H44824  -0.014   1.533   1.670 -0.7535 -3.0517  0.5021
  340MOL0     H44825   0.120   1.387   1.898 -0.6492  1.5616 -0.0777
  340MOL0     H44826   0.055   1.298   1.761 -0.5331 -0.5576  0.1025
  340MOL0     H44827  -0.101   1.465   1.973  1.1439  0.9621  0.5956
  340MOL0     H44828  -0.092   1.298   1.976 -1.8205 -1.5701 -2.9279
  340MOL0     H44829  -0.306   1.424   1.846 -0.3529 -0.1365 -0.8572
  340MOL0     H44830  -0.208   1.391   1.713 -0.4965  1.2737  0.4633
  340MOL0     H44831  -0.292   1.189   1.926 -1.1486  2.7878  0.7376
  340MOL0     H44832  -0.207   1.155   1.773 -0.5383  0.1190 -1.9511
  340MOL0     H44833  -0.366   1.302   1.554  0.3097 -0.4007 -0.5601
  340MOL0     H44834  -0.711   1.126   1.468  0.6623 -0.3854  0.0318
  340MOL0     H44835  -0.599   1.246   1.397  1.6544  0.8988  0.8421
  340MOL0     H44836  -0.817   1.355   1.402  3.8300 -0.1163 -1.6049
  340MOL0     H44837  -0.728   1.425   1.533  1.4201 -0.3067 -2.1703
  340MOL0     H44838  -0.919   1.181   1.567  0.9035 -0.1791  2.8585
  340MOL0     H44839  -0.864   1.290   1.699  0.0821  1.2194  0.4332
  340MOL0     H44840  -1.048   1.388   1.473 -1.9042 -5.0413 -0.1879
  340MOL0     H44841  -0.984   1.477   1.611  1.4358  0.4719 -0.5344
  340MOL0     H44842  -1.191   1.546   1.502 -0.0642 -0.6096 -0.1679
  340MOL0     H44843  -1.405   1.630   1.463 -0.3470 -0.4309 -0.7461
  340MOL0     H44844  -1.825   1.673   1.661 -0.7136  1.3811 -0.3642
  340MOL0     H44845  -2.043   1.734   1.748 -1.2569 -0.3238  2.5967
  340MOL0     H44846  -2.306   1.387   1.790  0.0208  0.5380 -2.7800
  340MOL0     H44847  -2.422   1.494   1.720 -0.3247  1.5172  0.2301
  340MOL0     H44848  -2.337   1.508   2.020 -0.9226  0.6039 -0.2845
  340MOL0     H44849  -2.490   1.441   1.965  1.3250 -1.1096  3.9761
  340MOL0     H44850  -2.401   1.720   1.960  0.6379 -1.4358  2.2620
  340MOL0     H44851  -2.530   1.644   2.057 -0.6023 -2.1428  0.5406
  340MOL0     H44852  -2.629   1.796   1.867 -0.4281  0.1506  2.5126
  340MOL0     H44853  -2.551   1.697   1.760  0.0788  2.5840  0.8391
  340MOL0     H44854  -2.672   1.500   1.802 -0.3524 -0.6856 -0.9224
  340MOL0     H44855  -2.783   1.626   1.761 -1.1682 -1.7885 -0.4778
  340MOL0     H44856  -2.718   1.512   2.038  0.2812 -1.5842 -0.6192
  340MOL0     H44857  -2.869   1.489   1.943  0.4971  0.3867 -1.9333
  340MOL0     H44858  -2.923   1.649   2.116 -1.3619 -0.3991 -1.2058
  340MOL0     H44859  -2.772   1.741   2.077  1.7937 -2.6787  1.6218
  340MOL0     H44860  -2.906   1.794   1.858  1.7880  0.5191  1.1425
  340MOL0     H44861  -2.993   1.848   2.006  2.1337  0.6529  0.8646
  340MOL0     H44862  -2.188   1.349   1.628 -3.6628  3.5493  0.0752
  340MOL0     H44863  -1.959   1.282   1.563  1.5264  1.0795 -1.5148
  340MOL0     H44864  -1.576   1.274   1.641 -0.7624 -0.3761 -2.2951
  340MOL0     H44865  -1.342   1.186   1.692  2.9262 -2.3454 -3.3907
  340MOL0     H44866   0.641   1.663   1.600  1.2974 -0.3341 -0.3701
  340MOL0     H44867   0.836   1.830   1.611 -0.7757 -1.9385  1.6665
  340MOL0     H44868   1.185   2.058   1.455 -2.0042 -0.9756  0.4391
  340MOL0     H44869   1.367   2.224   1.524 -0.0602 -1.8468 -0.8291
  340MOL0     H44870   1.442   2.477   1.509 -1.0848  0.3047  0.6080
  340MOL0     H44871   1.512   2.383   1.625 -0.1657 -0.1140 -3.8717
  340MOL0     H44872   1.585   2.619   1.634  0.2170 -0.6351  0.2676
  340MOL0     H44873   1.422   2.670   1.659 -0.2460 -0.1857 -0.1811
  340MOL0     H44874   1.458   2.499   1.877 -0.9456  1.8818  1.5248
  340MOL0     H44875   1.478   2.662   1.886 -2.5478 -1.5318 -0.1105
  340MOL0     H44876   1.676   2.531   1.978 -1.4382  2.0060  1.0289
  340MOL0     H44877   1.708   2.474   1.798 -1.5876 -1.8259  0.4862
  340MOL0     H44878   1.891   2.850   1.800  1.5343  0.8111  1.3421
  340MOL0     H44879   1.058   2.448   1.715  2.3220  1.8826 -1.5681
  340MOL0     H44880   0.886   2.302   1.616 -0.0139 -0.7528 -1.5510
  341MOL0     O44881   3.593  10.813   7.094  0.8081  0.7395  0.4902
  341MOL0     C44882   3.673  10.753   7.021 -0.0367 -1.0168  0.4742
  341MOL0     O44883   3.664  10.627   6.974 -0.4567  0.5454 -0.3241
  341MOL0     C44884   3.567  10.549   7.032 -0.2298 -0.2747 -0.3754
  341MOL0     C44885   3.605  10.436   7.111  1.0280 -0.0901  0.3584
  341MOL0     C44886   3.509  10.344   7.156  0.5791 -0.4476 -0.2429
  341MOL0     C44887   3.370  10.355   7.113 -0.0462 -0.5426 -0.0194
  341MOL0     O44888   3.286  10.258   7.153  0.3765 -0.5331 -0.4455
  341MOL0     C44889   3.146  10.269   7.138  0.4572 -0.2002  0.2448
  341MOL0     C44890   3.082  10.137   7.156 -0.3262  0.3624 -0.1532
  341MOL0     C44891   2.928  10.140   7.150  0.3211  0.7054 -0.3191
  341MOL0     C44892   2.872  10.182   7.016  0.4585  0.6792  0.1510
  341MOL0     C44893   2.717  10.189   7.009 -0.0109 -0.1971 -0.4041
  341MOL0     C44894   2.656  10.051   7.003  0.2196  0.2736  0.0750
  341MOL0     C44895   2.504  10.047   6.970 -0.0195 -0.0016 -1.7414
  341MOL0     C44896   2.449   9.903   6.986  0.1303  0.9476 -0.2196
  341MOL0     N44897   2.504   9.813   6.888  0.1494 -0.2801  0.0591
  341MOL0     C44898   2.499   9.843   6.750  0.1606 -0.1929 -0.4361
  341MOL0     C44899   2.568   9.747   6.687  0.5317 -0.5304  0.3049
  341MOL0     C44900   2.560   9.707   6.542 -0.8076  0.4142 -0.4743
  341MOL0     C44901   2.420   9.733   6.480 -1.0710  0.5525 -0.0243
  341MOL0     C44902   2.437   9.698   6.330  0.4077  0.4199  0.3140
  341MOL0     C44903   2.306   9.718   6.252 -0.4568 -0.4059  0.0700
  341MOL0     O44904   2.333   9.660   6.126  0.0617 -0.2148 -0.0429
  341MOL0     C44905   2.223   9.628   6.043  0.8687 -0.5740  0.4130
  341MOL0     C44906   2.229   9.515   5.968 -0.1723  0.1484 -0.2055
  341MOL0     C44907   2.126   9.485   5.880  0.4104  0.1055 -0.6520
  341MOL0     C44908   2.012   9.565   5.873 -0.8757 -0.5590 -0.7676
  341MOL0     C44909   1.907   9.537   5.779  0.1260 -0.6692  0.8286
  341MOL0     O44910   1.779   9.543   5.814  0.6949 -0.0896 -0.0353
  341MOL0     C44911   1.688   9.467   5.747 -0.3711  0.5535 -0.6908
  341MOL0     C44912   1.714   9.341   5.694  0.3788  0.7656  0.1023
  341MOL0     C44913   1.609   9.265   5.643  0.0009 -0.4585 -0.0056
  341MOL0     C44914   1.475   9.305   5.641 -0.3458  0.0151  0.1538
  341MOL0     O44915   1.389   9.211   5.584 -0.3109  0.6548  0.3168
  341MOL0     C44916   1.250   9.247   5.559 -0.6319  0.4222  0.2625
  341MOL0     C44917   1.164   9.146   5.476 -0.0260 -0.1296  0.3283
  341MOL0     C44918   1.013   9.158   5.491 -0.3256  0.0205 -1.0474
  341MOL0     C44919   0.937   9.070   5.389  0.3936  1.0413 -0.3581
  341MOL0     C44920   0.787   9.077   5.413 -0.0143 -1.0768  0.2214
  341MOL0     C44921   0.686   8.979   5.345 -0.1789 -0.4864 -0.2109
  341MOL0     C44922   0.537   9.002   5.390  0.4270  0.4282 -0.1538
  341MOL0     C44923   0.429   8.899   5.348 -0.5130  0.2714  0.0880
  341MOL0    Cl44924   0.284   8.982   5.400  0.3638 -0.0800  0.2213
  341MOL0     C44925   1.450   9.434   5.692 -0.2577 -0.1337 -0.4883
  341MOL0     C44926   1.551   9.511   5.742  0.5461  0.3669  0.2300
  341MOL0     O44927   1.943   9.524   5.661 -0.3305 -0.3291 -0.4786
  341MOL0     C44928   2.004   9.678   5.959  0.4910 -0.5501 -0.7980
  341MOL0     C44929   2.112   9.711   6.032  0.0783 -0.8913 -0.2315
  341MOL0     N44930   2.617   9.666   6.790 -0.2263 -0.3941  0.5543
  341MOL0     N44931   2.578   9.706   6.909  0.5301 -0.3297  0.7214
  341MOL0     C44932   3.335  10.461   7.030 -0.6951 -0.2766  0.5432
  341MOL0     C44933   3.430  10.567   6.997 -0.2387  0.0661  0.1634
  341MOL0     C44934   3.798  10.826   6.978  0.3563  0.0198  0.0513
  341MOL0     C44935   3.812  10.972   6.979  0.3205  0.3911 -0.4224
  341MOL0     C44936   3.923  11.042   6.930 -0.2663  0.2237 -0.4516
  341MOL0     C44937   4.026  10.963   6.870  0.1075  0.9293 -0.0470
  341MOL0     O44938   4.136  11.014   6.806  0.0129 -0.4927 -0.3095
  341MOL0     C44939   4.173  11.154   6.812 -0.7858  0.0817 -0.7642
  341MOL0     C44940   4.308  11.164   6.889  0.2617  0.2314  0.1962
  341MOL0     C44941   4.428  11.154   6.792  0.1833  0.2144 -0.8001
  341MOL0     C44942   4.432  11.011   6.745 -1.0937  0.6335 -0.2359
  341MOL0     C44943   4.547  11.000   6.655  0.0851 -1.0039  0.6844
  341MOL0     C44944   4.650  10.995   6.587 -0.0733 -0.4630 -0.0177
  341MOL0     C44945   4.010  10.823   6.864 -0.6221 -0.3874  0.2957
  341MOL0     C44946   3.896  10.757   6.910 -0.1735  0.0193 -0.1186
  341MOL0     H44947   3.709  10.407   7.122  1.1380  0.3719  0.5733
  341MOL0     H44948   3.545  10.255   7.207 -1.3403 -0.9914  0.2531
  341MOL0     H44949   3.118  10.310   7.041  2.1415  3.0870  0.9986
  341MOL0     H44950   3.114  10.336   7.219 -0.9751 -0.6849  0.1073
  341MOL0     H44951   3.110  10.105   7.257  1.8738 -0.4962 -0.9715
  341MOL0     H44952   3.122  10.062   7.088 -2.3471 -4.0085  2.9768
  341MOL0     H44953   2.900  10.202   7.236  0.5742 -0.4568  0.6207
  341MOL0     H44954   2.890  10.038   7.162  0.8322  0.7328  1.7075
  341MOL0     H44955   2.898  10.288   7.004 -0.7056  1.2215  1.9484
  341MOL0     H44956   2.923  10.121   6.941  1.8121  1.5701  0.3117
  341MOL0     H44957   2.699  10.236   6.912  0.5276  1.2238  0.1634
  341MOL0     H44958   2.676  10.237   7.098 -0.0586 -1.1817  0.1163
  341MOL0     H44959   2.681   9.995   7.093  1.8605  0.2549 -0.3570
  341MOL0     H44960   2.716   9.991   6.934  0.4654 -1.4374  1.6909
  341MOL0     H44961   2.449  10.112   7.038  2.4929 -1.5085  2.0223
  341MOL0     H44962   2.491  10.078   6.866 -3.3178  0.7171 -1.2132
  341MOL0     H44963   2.340   9.894   6.979  0.2456 -0.2789 -0.7900
  341MOL0     H44964   2.462   9.868   7.089 -1.2439  1.5006  0.1625
  341MOL0     H44965   2.451   9.922   6.693  0.3882  1.5674  1.6707
  341MOL0     H44966   2.586   9.601   6.540 -1.2351  0.2769 -3.0261
  341MOL0     H44967   2.638   9.754   6.481  2.7795 -3.7930  0.3516
  341MOL0     H44968   2.393   9.839   6.491  0.8513  1.2356 -1.4749
  341MOL0     H44969   2.339   9.679   6.531  0.1054 -0.2614  1.0396
  341MOL0     H44970   2.519   9.756   6.287 -1.0824  2.7976  0.4477
  341MOL0     H44971   2.454   9.590   6.331 -2.0889 -0.0563  2.1412
  341MOL0     H44972   2.272   9.823   6.254 -0.6164 -0.4614  0.8625
  341MOL0     H44973   2.231   9.670   6.315  0.6115  0.7700  2.3896
  341MOL0     H44974   2.328   9.471   5.958  1.1234  2.4194  1.6297
  341MOL0     H44975   2.128   9.410   5.802  0.2429  2.7657 -3.4084
  341MOL0     H44976   1.813   9.296   5.689 -0.3873 -1.0140  0.3190
  341MOL0     H44977   1.629   9.164   5.610  2.3031 -0.2665  0.6111
  341MOL0     H44978   1.253   9.340   5.501  0.7831 -0.7357 -1.6074
  341MOL0     H44979   1.190   9.271   5.648  1.7400  1.5724  1.6669
  341MOL0     H44980   1.185   9.043   5.507 -2.3443 -0.2313  1.7671
  341MOL0     H44981   1.181   9.157   5.368 -0.9787 -0.5969  0.1193
  341MOL0     H44982   0.983   9.262   5.472  0.7788  0.3945 -0.8428
  341MOL0     H44983   1.001   9.124   5.594 -0.0743 -0.9560 -1.3297
  341MOL0     H44984   0.961   9.092   5.285  0.6667  0.6696 -0.3767
  341MOL0     H44985   0.969   8.968   5.410 -2.2376  0.7400  3.0710
  341MOL0     H44986   0.758   9.179   5.386 -1.0780 -1.0255  1.4695
  341MOL0     H44987   0.773   9.072   5.522  0.7315  0.9162  0.4591
  341MOL0     H44988   0.721   8.879   5.369 -1.1662 -1.0490 -1.0331
  341MOL0     H44989   0.686   8.999   5.237 -2.4158  1.2462  0.0215
  341MOL0     H44990   0.533   9.010   5.499  0.1240 -1.9409  0.0411
  341MOL0     H44991   0.500   9.097   5.349 -0.0219  0.9074  1.2887
  341MOL0     H44992   0.442   8.809   5.409  0.6309  1.0521  1.0614
  341MOL0     H44993   0.452   8.879   5.243 -1.4297 -0.8495  0.0812
  341MOL0     H44994   1.348   9.471   5.688 -0.4231 -0.1450  2.2238
  341MOL0     H44995   1.521   9.608   5.780 -0.9921  1.3946 -3.2525
  341MOL0     H44996   1.914   9.737   5.964  0.9547  0.0910  0.2462
  341MOL0     H44997   2.099   9.807   6.080 -2.4260 -1.4928  0.4443
  341MOL0     H44998   3.233  10.473   6.997 -0.9675 -0.7542  1.1966
  341MOL0     H44999   3.401  10.648   6.930  3.9398  1.8520  0.2354
  341MOL0     H45000   3.731  11.027   7.026  0.2931 -0.7351  0.9159
  341MOL0     H45001   3.912  11.150   6.928  2.1434  0.5962  1.2547
  341MOL0     H45002   4.100  11.216   6.864 -1.0795  0.5079 -1.6615
  341MOL0     H45003   4.190  11.198   6.713  1.3209  0.7758 -0.1403
  341MOL0     H45004   4.309  11.263   6.935  0.5072  1.4283 -2.2480
  341MOL0     H45005   4.327  11.091   6.968 -2.8151 -1.9785 -0.8640
  341MOL0     H45006   4.525  11.170   6.842 -1.3435 -1.0870  2.9564
  341MOL0     H45007   4.419  11.229   6.714  1.0099  1.5022  0.2792
  341MOL0     H45008   4.426  10.920   6.806  1.4400 -0.8455 -2.0054
  341MOL0     H45009   4.349  10.988   6.678 -1.3107 -2.6048  0.9715
  341MOL0     H45010   4.737  11.008   6.526  0.0444  0.1747  0.2864
  341MOL0     H45011   4.095  10.779   6.813 -0.6473 -0.2905  0.1663
  341MOL0     H45012   3.882  10.652   6.886  0.5164  0.3331 -2.1051
  342MOL0     O45013   2.381   4.009   0.970  0.8210 -0.8585  0.3351
  342MOL0     C45014   2.411   4.124   0.944 -0.3551 -0.1529 -0.2131
  342MOL0     O45015   2.323   4.218   0.882  0.4285 -0.0654 -0.6871
  342MOL0     C45016   2.193   4.187   0.849  0.3475  0.1640  1.3550
  342MOL0     C45017   2.088   4.212   0.938  0.2724 -0.1199  0.4182
  342MOL0     C45018   1.953   4.208   0.896  0.5939  0.1605  0.0334
  342MOL0     C45019   1.919   4.190   0.760 -0.2404 -0.2577 -0.6579
  342MOL0     O45020   1.789   4.189   0.705 -0.4455  0.5051 -0.0034
  342MOL0     C45021   1.698   4.274   0.762  0.4399 -0.2801  0.0083
  342MOL0     C45022   1.636   4.332   0.641 -1.1268  0.4833  0.0734
  342MOL0     C45023   1.532   4.235   0.577  0.2451  0.1626 -0.7364
  342MOL0     C45024   1.464   4.294   0.452  0.6254  0.0299 -1.2656
  342MOL0     C45025   1.329   4.225   0.415  0.5366  0.1859 -0.1266
  342MOL0     C45026   1.361   4.083   0.378 -0.5950  0.7921 -0.4054
  342MOL0     C45027   1.238   4.010   0.323 -0.5032 -0.6879 -0.5150
  342MOL0     C45028   1.280   3.907   0.214  0.0411 -0.0879 -0.9472
  342MOL0     N45029   1.163   3.817   0.182 -0.5530  0.6137  0.5702
  342MOL0     C45030   1.111   3.725   0.269 -0.3041  0.2423  0.5624
  342MOL0     C45031   1.014   3.656   0.197  1.1665 -0.0181 -0.0823
  342MOL0     C45032   0.964   3.525   0.251  0.2927 -0.1622 -0.5540
  342MOL0     C45033   0.832   3.539   0.330 -0.1547 -0.0506 -0.1356
  342MOL0     C45034   0.778   3.405   0.382  0.3561  0.1825 -0.6856
  342MOL0     C45035   0.647   3.435   0.439  0.1052 -0.1500  0.3136
  342MOL0     O45036   0.613   3.314   0.499  0.3908  0.2210 -0.4683
  342MOL0     C45037   0.482   3.302   0.542  0.0442 -0.5785  0.5350
  342MOL0     C45038   0.401   3.412   0.591 -0.1543  0.2842  0.5314
  342MOL0     C45039   0.273   3.378   0.621 -0.0938 -0.7359  0.7007
  342MOL0     C45040   0.216   3.246   0.609 -0.1888  0.5107  0.5685
  342MOL0     C45041   0.072   3.219   0.637 -0.3535 -0.9056  0.1179
  342MOL0     O45042  -0.010   3.328   0.632  0.0676  0.3414  0.4418
  342MOL0     C45043  -0.142   3.347   0.673  0.1468 -0.3916 -0.5362
  342MOL0     C45044  -0.202   3.465   0.629  0.1117  0.3156 -0.6634
  342MOL0     C45045  -0.333   3.488   0.665 -0.0797  0.5159  0.5734
  342MOL0     C45046  -0.422   3.394   0.719  0.4768  0.1804 -0.1304
  342MOL0     O45047  -0.551   3.420   0.736 -0.2784 -0.6078 -0.4949
  342MOL0     C45048  -0.649   3.320   0.762 -0.4406  0.3952  0.3350
  342MOL0     C45049  -0.792   3.364   0.763  0.3811 -0.0474 -0.4721
  342MOL0     C45050  -0.814   3.467   0.870  0.0394 -0.2153  0.5135
  342MOL0     C45051  -0.956   3.525   0.865 -0.5169  0.2729  0.1170
  342MOL0     C45052  -1.056   3.432   0.925  0.9597 -0.5720 -0.0782
  342MOL0     C45053  -1.198   3.484   0.912 -0.2700 -0.0844 -0.5134
  342MOL0     C45054  -1.261   3.446   0.781 -0.2927  0.6516 -0.2565
  342MOL0     C45055  -1.372   3.539   0.755 -0.8195 -0.4808 -0.5521
  342MOL0    Cl45056  -1.454   3.516   0.607 -0.5599  0.4187  0.3549
  342MOL0     C45057  -0.369   3.265   0.752 -0.0975  0.2170 -0.1371
  342MOL0     C45058  -0.227   3.250   0.728  0.0731 -0.2440  0.4123
  342MOL0     O45059   0.035   3.105   0.646  0.1931  0.0537 -0.0172
  342MOL0     C45060   0.309   3.145   0.586 -0.4226  0.3142 -0.7432
  342MOL0     C45061   0.440   3.165   0.551 -0.2899 -0.8529  0.9164
  342MOL0     N45062   1.018   3.705   0.067  0.5719  0.5241 -0.1198
  342MOL0     N45063   1.097   3.808   0.057 -0.5665 -0.1626 -0.2316
  342MOL0     C45064   2.020   4.162   0.672 -0.5421 -0.5317  0.0956
  342MOL0     C45065   2.157   4.159   0.716  0.1372  0.5097 -1.0220
  342MOL0     C45066   2.534   4.185   1.008 -0.4216 -0.7108  1.3839
  342MOL0     C45067   2.579   4.313   0.962  0.3912  0.3488  0.8168
  342MOL0     C45068   2.688   4.373   1.028  0.4414  0.3727  0.4281
  342MOL0     C45069   2.761   4.298   1.120 -0.8858  0.3203 -0.0441
  342MOL0     O45070   2.893   4.326   1.160  0.5862  0.3965  0.1506
  342MOL0     C45071   2.959   4.453   1.120 -0.2347 -0.0570  0.9976
  342MOL0     C45072   2.917   4.574   1.213  0.0775  0.6200 -0.1492
  342MOL0     C45073   2.986   4.706   1.179 -0.2801  0.8754 -0.2035
  342MOL0     C45074   2.897   4.824   1.148  0.9019  0.2236 -0.7057
  342MOL0     C45075   2.844   4.896   1.267  0.1182  0.0174 -0.0304
  342MOL0     C45076   2.798   4.922   1.374  0.3127  0.9950  0.1800
  342MOL0     C45077   2.714   4.167   1.158  0.3939  0.6979 -0.8402
  342MOL0     C45078   2.604   4.116   1.103 -0.3199 -0.1277  0.4649
  342MOL0     H45079   2.106   4.248   1.039 -1.0384 -0.2110  0.7083
  342MOL0     H45080   1.878   4.205   0.974  3.8842  1.1875  3.5576
  342MOL0     H45081   1.737   4.357   0.822 -3.5206  1.5278  0.3863
  342MOL0     H45082   1.633   4.215   0.828 -0.1072  0.0467 -0.2387
  342MOL0     H45083   1.712   4.368   0.571 -1.5512  1.7545  0.2424
  342MOL0     H45084   1.572   4.419   0.658 -2.4862  0.0102 -2.2995
  342MOL0     H45085   1.461   4.207   0.656 -0.1036 -0.7311 -1.3510
  342MOL0     H45086   1.579   4.139   0.552  0.1632  0.4356 -1.9656
  342MOL0     H45087   1.431   4.391   0.492 -0.7128 -1.2950  1.0637
  342MOL0     H45088   1.539   4.299   0.372  1.6511 -1.5571 -0.4510
  342MOL0     H45089   1.282   4.272   0.328 -0.3026  0.0609  0.2469
  342MOL0     H45090   1.251   4.229   0.491 -1.4127 -2.4856 -1.7812
  342MOL0     H45091   1.403   4.023   0.459  1.4505 -0.4558 -2.2761
  342MOL0     H45092   1.437   4.085   0.300  0.0537 -1.2675  0.1045
  342MOL0     H45093   1.191   3.950   0.401  0.8695 -1.5014 -0.2682
  342MOL0     H45094   1.167   4.079   0.277 -0.3180  0.2272  0.5398
  342MOL0     H45095   1.357   3.845   0.260  0.4667  1.0682 -0.0273
  342MOL0     H45096   1.320   3.953   0.123  0.9792 -2.3543 -1.7337
  342MOL0     H45097   1.142   3.703   0.370  0.8700  2.6217  0.7912
  342MOL0     H45098   1.039   3.486   0.321  0.7173 -0.3715 -1.1127
  342MOL0     H45099   0.948   3.461   0.164 -2.8398  0.9674 -0.9309
  342MOL0     H45100   0.764   3.592   0.264  0.2801 -2.9437 -3.1655
  342MOL0     H45101   0.851   3.602   0.418  0.5926  0.4663 -0.6521
  342MOL0     H45102   0.772   3.337   0.296  1.0600 -0.2237 -0.4211
  342MOL0     H45103   0.848   3.366   0.456 -1.0121  2.3879  1.9443
  342MOL0     H45104   0.575   3.464   0.362 -1.8236  1.8969  2.7218
  342MOL0     H45105   0.646   3.512   0.516  1.6947 -1.6917  1.9748
  342MOL0     H45106   0.430   3.517   0.595 -1.3720  0.6064  1.1635
  342MOL0     H45107   0.208   3.454   0.665  0.3373  0.2182 -0.2633
  342MOL0     H45108  -0.147   3.537   0.569  2.1405 -0.2311  0.4536
  342MOL0     H45109  -0.380   3.582   0.635  2.8828  1.7691 -0.5763
  342MOL0     H45110  -0.620   3.260   0.849 -2.5775  0.5295  1.1989
  342MOL0     H45111  -0.652   3.252   0.676 -1.5560 -2.3093  2.3672
  342MOL0     H45112  -0.860   3.281   0.787 -0.3303  1.2413  2.2628
  342MOL0     H45113  -0.823   3.404   0.666 -0.0456  1.3145  0.2011
  342MOL0     H45114  -0.733   3.539   0.853  2.9308 -2.7529  2.5200
  342MOL0     H45115  -0.786   3.431   0.969  2.0714  0.5791  0.2628
  342MOL0     H45116  -0.952   3.624   0.911  1.8920  2.0178 -3.3907
  342MOL0     H45117  -0.984   3.542   0.761  0.5089  2.0469  0.0946
  342MOL0     H45118  -1.034   3.417   1.031 -4.0263 -1.5512  1.0786
  342MOL0     H45119  -1.045   3.336   0.873 -0.0945 -1.0765  0.5804
  342MOL0     H45120  -1.195   3.592   0.929  0.0364  0.1036 -1.6866
  342MOL0     H45121  -1.269   3.445   0.986 -1.2060 -0.5016 -1.5848
  342MOL0     H45122  -1.192   3.444   0.695 -1.6160 -2.0047 -1.3615
  342MOL0     H45123  -1.290   3.341   0.792  0.9548  0.2700 -0.3975
  342MOL0     H45124  -1.331   3.640   0.742  0.0504 -0.4790  1.7509
  342MOL0     H45125  -1.443   3.546   0.839 -2.1404 -0.8584 -1.5924
  342MOL0     H45126  -0.421   3.181   0.796 -0.6632  0.1488 -0.9282
  342MOL0     H45127  -0.179   3.158   0.760  0.5410 -0.5989 -1.2227
  342MOL0     H45128   0.271   3.044   0.589  2.8265 -1.0431  1.8641
  342MOL0     H45129   0.505   3.080   0.533  1.8479  0.6614  1.1853
  342MOL0     H45130   2.009   4.145   0.566  1.3336  3.8719 -1.0602
  342MOL0     H45131   2.238   4.123   0.654  0.8688 -0.0698  0.2423
  342MOL0     H45132   2.527   4.370   0.886 -1.1046 -0.5653  1.1062
  342MOL0     H45133   2.728   4.471   1.003 -1.4566  0.7833 -1.2304
  342MOL0     H45134   2.942   4.472   1.014  2.3296 -3.1860 -0.1690
  342MOL0     H45135   3.067   4.435   1.112 -0.4745 -0.7471 -3.8411
  342MOL0     H45136   2.808   4.578   1.208 -0.0483 -1.7760 -0.4610
  342MOL0     H45137   2.943   4.543   1.315  2.2171 -0.1885 -0.8900
  342MOL0     H45138   3.046   4.693   1.088 -1.3881 -0.4654 -0.7853
  342MOL0     H45139   3.059   4.734   1.254  0.2597  0.5479 -0.5953
  342MOL0     H45140   2.954   4.909   1.110  1.3524  0.7097  0.9491
  342MOL0     H45141   2.818   4.793   1.079  0.1953  0.9069 -0.2258
  342MOL0     H45142   2.768   4.938   1.476  0.2048 -2.0899  0.7066
  342MOL0     H45143   2.762   4.112   1.239  1.2405  2.7230  0.0985
  342MOL0     H45144   2.568   4.015   1.125 -2.1536  0.5176  0.6302
  343MOL0     O45145   2.291   4.523   8.945  0.0920  0.3242 -0.5159
  343MOL0     C45146   2.283   4.480   9.060 -0.6281  0.1133 -0.0807
  343MOL0     O45147   2.165   4.473   9.138 -0.1006 -0.1926 -0.5753
  343MOL0     C45148   2.035   4.503   9.102  0.0891 -0.5591  0.0843
  343MOL0     C45149   1.989   4.505   8.967  0.2624  0.9377  0.3576
  343MOL0     C45150   1.852   4.516   8.931 -0.5541 -0.1398 -0.2928
  343MOL0     C45151   1.762   4.520   9.039  0.6612  0.6288 -0.3291
  343MOL0     O45152   1.627   4.523   9.009 -0.3729 -0.5099 -0.0617
  343MOL0     C45153   1.583   4.632   8.931 -0.6885  0.2163 -0.3987
  343MOL0     C45154   1.430   4.637   8.937 -0.4318 -0.2006  0.3132
  343MOL0     C45155   1.390   4.710   9.062  0.5801  0.1554  0.4668
  343MOL0     C45156   1.239   4.725   9.081 -1.0249 -0.4893  0.8302
  343MOL0     C45157   1.198   4.823   9.194 -0.0059 -0.5018  0.1628
  343MOL0     C45158   1.046   4.838   9.192 -0.0334 -0.7010 -0.3065
  343MOL0     C45159   1.017   4.938   9.309  0.7787  0.3491 -0.0978
  343MOL0     C45160   0.882   5.006   9.321 -0.0966 -0.6022 -0.0932
  343MOL0     N45161   0.823   5.003   9.457  0.0324 -0.3154 -0.3449
  343MOL0     C45162   0.779   5.121   9.521 -0.9072  0.1869  0.6074
  343MOL0     C45163   0.723   5.080   9.642 -0.3316 -0.3182  1.1837
  343MOL0     C45164   0.661   5.154   9.760  0.1311  0.1437  0.3925
  343MOL0     C45165   0.560   5.256   9.705  0.0065 -0.0903  0.1468
  343MOL0     C45166   0.467   5.302   9.817 -0.9037 -0.3156 -0.1758
  343MOL0     C45167   0.353   5.202   9.850  0.1721  0.3039  0.6799
  343MOL0     O45168   0.249   5.269   9.926 -0.5418 -0.0165  0.3698
  343MOL0     C45169   0.133   5.193   9.952  0.5742  1.0023 -0.2863
  343MOL0     C45170   0.009   5.254   9.971 -0.8358  0.1347  0.1290
  343MOL0     C45171  -0.108   5.187  10.005 -0.1621 -0.4562  0.1881
  343MOL0     C45172  -0.098   5.045  10.008  0.0906 -0.2706  0.4312
  343MOL0     C45173  -0.228   4.971  10.026 -0.3910 -0.7156  0.1477
  343MOL0     O45174  -0.229   4.839  10.000 -0.0874  0.8647 -0.1842
  343MOL0     C45175  -0.356   4.780   9.995 -0.7073 -0.0169  0.5176
  343MOL0     C45176  -0.397   4.692  10.096  0.1002  0.2696 -0.4027
  343MOL0     C45177  -0.528   4.644  10.086  0.3977 -0.0291 -0.1879
  343MOL0     C45178  -0.605   4.655   9.974  0.2018  0.2752  0.0376
  343MOL0     O45179  -0.729   4.602   9.969  0.0935  0.9552  0.7062
  343MOL0     C45180  -0.821   4.661   9.873  0.3860 -0.4725 -0.1607
  343MOL0     C45181  -0.957   4.589   9.871 -0.0450  0.8332 -0.2741
  343MOL0     C45182  -1.040   4.626   9.985  0.2171 -0.8244  0.0096
  343MOL0     C45183  -1.177   4.561   9.977 -1.6122  0.4720  0.8692
  343MOL0     C45184  -1.267   4.614  10.095 -0.2975 -0.3991  1.0330
  343MOL0     C45185  -1.410   4.563  10.071  1.0425 -0.1805 -0.0216
  343MOL0     C45186  -1.507   4.631  10.166  0.8434 -0.2914 -0.8349
  343MOL0     C45187  -1.644   4.584  10.139  0.1007 -0.0711  0.4181
  343MOL0    Cl45188  -1.730   4.656   9.997 -0.2353  0.4853 -0.2025
  343MOL0     C45189  -0.562   4.750   9.875  0.1023 -0.0135  0.6234
  343MOL0     C45190  -0.436   4.810   9.890  0.4511  0.0705 -0.7940
  343MOL0     O45191  -0.326   5.037  10.066 -0.3962 -0.3767  0.4074
  343MOL0     C45192   0.018   4.971   9.976  0.7727  0.0268 -0.5698
  343MOL0     C45193   0.135   5.051   9.951  0.2126 -0.2131  0.5720
  343MOL0     N45194   0.710   4.941   9.623 -0.1013 -0.4836  0.0593
  343MOL0     N45195   0.780   4.894   9.530 -0.3330  0.6140 -0.3527
  343MOL0     C45196   1.804   4.506   9.167 -0.3112 -0.4055 -0.3980
  343MOL0     C45197   1.937   4.507   9.202  0.2963 -0.1531 -0.1339
  343MOL0     C45198   2.413   4.444   9.120 -1.1143  0.1890  0.1292
  343MOL0     C45199   2.530   4.446   9.047  0.0248  0.5844 -0.0492
  343MOL0     C45200   2.652   4.421   9.124 -0.1719  0.7771  1.0077
  343MOL0     C45201   2.656   4.381   9.254  0.7978 -0.0448  0.3511
  343MOL0     O45202   2.774   4.355   9.308 -0.2571  0.0466  0.1555
  343MOL0     C45203   2.791   4.218   9.327 -0.6305  0.2118 -0.2878
  343MOL0     C45204   2.945   4.196   9.335 -0.4875  0.4712  0.1719
  343MOL0     C45205   3.026   4.238   9.209  0.1972 -0.1019 -0.3932
  343MOL0     C45206   3.164   4.168   9.214  0.0946 -0.8662  0.8742
  343MOL0     C45207   3.241   4.204   9.334 -0.2001 -1.2594 -0.4266
  343MOL0     C45208   3.316   4.240   9.425 -0.1150  0.0217  0.4774
  343MOL0     C45209   2.535   4.359   9.322 -0.2163  0.7628  0.3787
  343MOL0     C45210   2.419   4.403   9.251 -0.1602  0.5126 -0.0757
  343MOL0     H45211   2.057   4.506   8.883  1.0497  1.0317  0.9826
  343MOL0     H45212   1.830   4.523   8.825  1.9441 -1.1248 -0.9525
  343MOL0     H45213   1.613   4.604   8.830  1.9495  0.1184  0.3470
  343MOL0     H45214   1.630   4.728   8.957 -1.0518  0.1564  0.5234
  343MOL0     H45215   1.384   4.537   8.936 -2.7394  0.7876  0.2482
  343MOL0     H45216   1.388   4.687   8.849  0.9244 -0.2417 -0.3748
  343MOL0     H45217   1.434   4.811   9.060 -0.9000  0.8768 -2.4478
  343MOL0     H45218   1.439   4.661   9.147  2.1199 -0.0563 -0.4871
  343MOL0     H45219   1.195   4.757   8.986  0.8606 -1.5933 -0.4834
  343MOL0     H45220   1.196   4.627   9.105 -0.0288 -2.0190 -2.9791
  343MOL0     H45221   1.263   4.911   9.198 -0.4938  0.0222 -2.0920
  343MOL0     H45222   1.216   4.770   9.289  1.4253  0.5056  0.4832
  343MOL0     H45223   1.000   4.742   9.214 -0.4374  0.1361  2.9639
  343MOL0     H45224   1.025   4.880   9.093  1.1429 -2.1588 -1.2290
  343MOL0     H45225   1.044   4.889   9.403  2.4644 -0.0552 -0.7504
  343MOL0     H45226   1.092   5.018   9.309  1.7575 -0.5520 -0.0236
  343MOL0     H45227   0.815   4.961   9.247  0.0182 -0.6901 -0.1440
  343MOL0     H45228   0.885   5.111   9.291 -0.0324 -1.4257 -3.3866
  343MOL0     H45229   0.812   5.218   9.486  1.6673 -1.2182 -1.1943
  343MOL0     H45230   0.743   5.203   9.813  2.2109 -0.8566 -1.6836
  343MOL0     H45231   0.607   5.081   9.821 -0.4146  2.2743  2.6042
  343MOL0     H45232   0.495   5.222   9.625 -0.4640 -3.8345  1.9251
  343MOL0     H45233   0.619   5.337   9.660 -1.3500 -0.3148 -2.1931
  343MOL0     H45234   0.533   5.331   9.899  0.2352  0.7626 -1.4220
  343MOL0     H45235   0.409   5.389   9.785 -1.1406 -0.3387  0.1900
  343MOL0     H45236   0.407   5.116   9.891  1.2817 -0.1161 -1.5130
  343MOL0     H45237   0.305   5.182   9.754  1.4700  0.3120  0.0021
  343MOL0     H45238   0.006   5.361   9.953  0.3459  0.2623  0.6279
  343MOL0     H45239  -0.199   5.241  10.027 -0.3360 -1.9688  3.9012
  343MOL0     H45240  -0.336   4.690  10.186  0.0942 -0.9756 -0.4156
  343MOL0     H45241  -0.564   4.578  10.164  1.0605 -1.5842 -1.1480
  343MOL0     H45242  -0.775   4.661   9.774  3.1438  4.0163  0.8013
  343MOL0     H45243  -0.829   4.766   9.902  1.8038 -1.1610  3.2567
  343MOL0     H45244  -0.942   4.482   9.888 -0.6662  1.0593  2.0597
  343MOL0     H45245  -0.994   4.619   9.772 -2.5905  0.1227  0.3794
  343MOL0     H45246  -1.051   4.734   9.977 -1.1155 -0.6569  2.8840
  343MOL0     H45247  -0.992   4.598  10.080  0.4218  1.0132  0.4832
  343MOL0     H45248  -1.229   4.579   9.883 -0.2635  1.2512  0.2483
  343MOL0     H45249  -1.158   4.453   9.971 -0.2116  0.7815 -3.5822
  343MOL0     H45250  -1.274   4.723  10.087 -0.6131 -0.5082 -0.4744
  343MOL0     H45251  -1.228   4.596  10.196  2.7373  2.6060  0.5883
  343MOL0     H45252  -1.419   4.457  10.096  0.9754  0.3723  2.5868
  343MOL0     H45253  -1.442   4.582   9.968  0.0780  0.0713  0.3088
  343MOL0     H45254  -1.482   4.611  10.270 -0.6991 -3.2276 -0.9062
  343MOL0     H45255  -1.515   4.739  10.159 -5.5549  0.1267  4.0615
  343MOL0     H45256  -1.703   4.617  10.225  0.9230  1.1667  0.5226
  343MOL0     H45257  -1.653   4.476  10.153 -1.2397 -0.0235  0.1013
  343MOL0     H45258  -0.626   4.782   9.793 -1.7939 -0.6931  1.7903
  343MOL0     H45259  -0.396   4.878   9.816  1.8705  0.5497  0.3548
  343MOL0     H45260   0.017   4.863   9.992  0.5246  0.3463  1.7870
  343MOL0     H45261   0.232   5.003   9.941  0.4261  0.5086 -0.9668
  343MOL0     H45262   1.729   4.509   9.246 -1.8478 -0.0731 -1.8048
  343MOL0     H45263   1.975   4.496   9.303 -0.6014  2.1183  0.5083
  343MOL0     H45264   2.530   4.469   8.941  1.4863  0.6301 -0.0654
  343MOL0     H45265   2.749   4.439   9.079 -0.7109 -1.1300 -1.0914
  343MOL0     H45266   2.745   4.165   9.243 -1.0168  1.8173 -1.1190
  343MOL0     H45267   2.739   4.183   9.417  0.4866 -1.4212 -0.2343
  343MOL0     H45268   2.990   4.236   9.427  1.3605 -2.2497  0.5714
  343MOL0     H45269   2.966   4.089   9.341  1.8164  0.7677 -1.2501
  343MOL0     H45270   3.031   4.347   9.218  2.7538 -0.2555  0.8494
  343MOL0     H45271   2.991   4.202   9.112  2.0359 -1.7775 -0.4947
  343MOL0     H45272   3.145   4.061   9.217  3.9823 -1.7581 -0.8739
  343MOL0     H45273   3.229   4.206   9.136 -0.8139  0.4001  0.6925
  343MOL0     H45274   3.377   4.272   9.507  2.1222 -2.5513 -0.0317
  343MOL0     H45275   2.532   4.328   9.426 -1.5232  0.7933  0.3766
  343MOL0     H45276   2.330   4.410   9.312  0.3375  0.3371  0.6892
  344MOL0     O45277   7.838   2.215   6.790 -0.2456  0.1623 -0.3825
  344MOL0     C45278   7.939   2.159   6.828  0.4984 -0.0333 -0.7999
  344MOL0     O45279   7.995   2.164   6.953 -0.6546 -0.1721  0.2566
  344MOL0     C45280   7.924   2.233   7.051  0.2496 -0.1618  0.0310
  344MOL0     C45281   7.970   2.360   7.079 -0.3805  0.2728 -0.7069
  344MOL0     C45282   7.903   2.434   7.174 -0.5127 -0.6203 -0.0746
  344MOL0     C45283   7.786   2.385   7.235 -0.4014 -0.4726 -0.0615
  344MOL0     O45284   7.725   2.470   7.326 -0.5542  0.0268  0.8473
  344MOL0     C45285   7.609   2.435   7.392  0.6267  0.3243 -0.0489
  344MOL0     C45286   7.559   2.539   7.495 -0.1796 -0.1528 -0.8721
  344MOL0     C45287   7.412   2.532   7.507  0.5233 -0.6878  0.5006
  344MOL0     C45288   7.366   2.640   7.605 -0.0053  0.6207 -0.6120
  344MOL0     C45289   7.211   2.654   7.585  0.5283 -0.5336 -0.0455
  344MOL0     C45290   7.136   2.749   7.686  0.3826  0.0771 -0.5011
  344MOL0     C45291   6.985   2.731   7.681 -0.5763  0.2041 -0.0990
  344MOL0     C45292   6.903   2.849   7.719 -0.8403 -0.6345 -0.0165
  344MOL0     N45293   6.757   2.831   7.722  0.3989  0.1551 -0.3531
  344MOL0     C45294   6.668   2.877   7.629  0.6884 -0.7744 -0.9108
  344MOL0     C45295   6.544   2.831   7.668  0.6465  0.2350  0.8642
  344MOL0     C45296   6.410   2.881   7.620  0.8410  0.7928  0.1178
  344MOL0     C45297   6.342   2.798   7.510  0.4006 -0.1533 -0.1723
  344MOL0     C45298   6.268   2.675   7.576 -0.9708  0.0652  0.0328
  344MOL0     C45299   6.182   2.591   7.484  0.6141  0.3254  0.4118
  344MOL0     O45300   6.068   2.666   7.439  0.1980 -0.2365 -0.4873
  344MOL0     C45301   5.937   2.618   7.452  0.0845  0.2316  0.7259
  344MOL0     C45302   5.900   2.484   7.458  0.1701  0.0650  0.1858
  344MOL0     C45303   5.775   2.452   7.476  0.3961 -0.3008 -0.4976
  344MOL0     C45304   5.679   2.549   7.485  0.7215 -0.8792  0.5366
  344MOL0     C45305   5.539   2.521   7.529 -0.0256  0.3153 -0.3296
  344MOL0     O45306   5.443   2.620   7.540 -0.4836 -0.2348  1.4734
  344MOL0     C45307   5.320   2.595   7.609  0.1653 -0.0856 -0.3202
  344MOL0     C45308   5.262   2.693   7.689  0.3722 -0.6825  0.5455
  344MOL0     C45309   5.142   2.669   7.754  0.4612  0.1585 -0.1459
  344MOL0     C45310   5.070   2.552   7.735  0.0353 -0.0716 -0.1159
  344MOL0     O45311   4.949   2.540   7.796 -0.3124 -0.6332 -0.0456
  344MOL0     C45312   4.851   2.449   7.757  0.8356 -0.5292  0.3392
  344MOL0     C45313   4.728   2.480   7.845 -0.1014  0.7707  0.4885
  344MOL0     C45314   4.638   2.602   7.825 -0.7105 -0.0378  0.1481
  344MOL0     C45315   4.556   2.599   7.683  0.5426 -0.2210 -0.3220
  344MOL0     C45316   4.486   2.737   7.659 -1.3009 -0.1962  0.3972
  344MOL0     C45317   4.340   2.729   7.609  0.0558  0.1092  0.1655
  344MOL0     C45318   4.272   2.866   7.588  0.2793 -0.2530 -0.2025
  344MOL0     C45319   4.119   2.851   7.569 -0.1239  0.3634  0.1936
  344MOL0    Cl45320   4.046   2.826   7.731 -0.4015 -0.7518 -0.2279
  344MOL0     C45321   5.124   2.461   7.648 -0.4847  0.1258  1.0375
  344MOL0     C45322   5.252   2.475   7.587  0.6503 -0.0337 -0.1683
  344MOL0     O45323   5.529   2.406   7.581 -0.0690  0.1765  0.4255
  344MOL0     C45324   5.710   2.686   7.451 -0.2101  0.5112  0.3473
  344MOL0     C45325   5.838   2.720   7.446 -0.5058 -0.4077 -0.6471
  344MOL0     N45326   6.570   2.735   7.766 -0.2962  0.5138 -0.3716
  344MOL0     N45327   6.697   2.740   7.799  0.0912 -0.0195  1.1598
  344MOL0     C45328   7.739   2.250   7.204 -0.1291 -0.2468  0.3065
  344MOL0     C45329   7.810   2.175   7.115 -0.5307 -0.3943  0.2574
  344MOL0     C45330   8.015   2.085   6.729 -0.1571  0.2441  0.3371
  344MOL0     C45331   8.082   1.970   6.776 -0.2484 -0.1564  0.3205
  344MOL0     C45332   8.143   1.880   6.687  0.0287 -0.1037 -0.0355
  344MOL0     C45333   8.153   1.911   6.545  0.2055 -0.8491  0.0129
  344MOL0     O45334   8.223   1.839   6.453 -0.2082  0.3578  0.2751
  344MOL0     C45335   8.362   1.855   6.462 -0.3077  0.0107  0.4082
  344MOL0     C45336   8.447   1.812   6.337  0.5888 -0.5447 -0.1166
  344MOL0     C45337   8.436   1.661   6.319 -0.2277 -0.4269  0.0591
  344MOL0     C45338   8.499   1.588   6.436  0.4941  0.4969 -0.1973
  344MOL0     C45339   8.534   1.450   6.395  0.9126  0.6860 -0.4465
  344MOL0     C45340   8.560   1.335   6.381  0.1034 -0.2668  0.2009
  344MOL0     C45341   8.097   2.032   6.507  0.4053  0.8328 -0.0198
  344MOL0     C45342   8.028   2.123   6.590  0.3083  0.1000 -1.2072
  344MOL0     H45343   8.054   2.400   7.023 -0.2491  1.5176  0.3528
  344MOL0     H45344   7.925   2.537   7.202 -2.9848  0.2448 -1.0538
  344MOL0     H45345   7.620   2.343   7.449 -0.6771  0.0528 -0.2045
  344MOL0     H45346   7.530   2.427   7.316  1.9285  1.9179 -1.6817
  344MOL0     H45347   7.593   2.636   7.458 -4.5276  2.3316  0.9563
  344MOL0     H45348   7.605   2.521   7.593 -0.1926 -1.9320 -1.1460
  344MOL0     H45349   7.391   2.436   7.556  1.0477 -0.4870  1.1322
  344MOL0     H45350   7.363   2.547   7.411 -1.7324 -0.6832  1.5756
  344MOL0     H45351   7.393   2.605   7.705  0.1293 -0.4549 -1.0145
  344MOL0     H45352   7.415   2.738   7.595 -1.9408  1.6086 -0.8337
  344MOL0     H45353   7.169   2.554   7.597  1.4945 -1.2249 -2.0279
  344MOL0     H45354   7.176   2.683   7.486 -2.4259 -1.8383  0.4978
  344MOL0     H45355   7.176   2.849   7.670  2.8910 -0.8390 -0.4544
  344MOL0     H45356   7.172   2.713   7.783  1.1469  2.3014  0.0901
  344MOL0     H45357   6.943   2.709   7.582  0.8255 -1.8771 -0.2977
  344MOL0     H45358   6.964   2.648   7.750  2.1444  0.9677  1.8098
  344MOL0     H45359   6.944   2.931   7.660  0.1784  0.2385  1.8200
  344MOL0     H45360   6.934   2.873   7.821 -0.2130  2.1073 -0.7811
  344MOL0     H45361   6.690   2.960   7.563  1.3039  0.3515  0.6444
  344MOL0     H45362   6.411   2.984   7.583  2.0682  1.2167  1.2322
  344MOL0     H45363   6.353   2.872   7.713  2.5542 -3.3804  0.9820
  344MOL0     H45364   6.417   2.756   7.444 -0.3502 -0.2068 -1.0076
  344MOL0     H45365   6.270   2.856   7.451  0.3711 -0.4413 -0.4186
  344MOL0     H45366   6.345   2.619   7.629 -1.6618 -0.5280  0.4302
  344MOL0     H45367   6.209   2.705   7.663  0.5710  3.0077  0.1894
  344MOL0     H45368   6.133   2.510   7.538  3.7440 -1.2288  1.1014
  344MOL0     H45369   6.242   2.533   7.413  1.0080  1.1167  0.0744
  344MOL0     H45370   5.976   2.406   7.460  1.1959  0.9592 -1.5809
  344MOL0     H45371   5.740   2.352   7.496 -1.1614  0.3819  0.3444
  344MOL0     H45372   5.318   2.784   7.709 -0.1197 -0.3054  0.2430
  344MOL0     H45373   5.096   2.745   7.817 -0.7892 -2.6519  2.5374
  344MOL0     H45374   4.866   2.340   7.755 -2.4412 -1.1066 -1.5163
  344MOL0     H45375   4.821   2.470   7.654  1.5649 -3.1017 -0.4905
  344MOL0     H45376   4.758   2.487   7.950  1.6086  0.6291  0.0309
  344MOL0     H45377   4.656   2.399   7.832 -0.8185  1.4067  0.4305
  344MOL0     H45378   4.705   2.689   7.828 -1.8018  0.8358 -0.0839
  344MOL0     H45379   4.564   2.603   7.905 -0.5425 -0.1620  0.3048
  344MOL0     H45380   4.625   2.569   7.603  0.3130 -2.2809  0.2096
  344MOL0     H45381   4.474   2.527   7.686  1.4822 -1.3142  0.1645
  344MOL0     H45382   4.555   2.793   7.595  0.4492 -0.3257  2.0771
  344MOL0     H45383   4.481   2.796   7.751 -0.7193  2.0310 -0.9259
  344MOL0     H45384   4.279   2.689   7.690 -1.9014  2.4812 -0.0035
  344MOL0     H45385   4.322   2.676   7.515 -0.3382  3.2988 -1.7241
  344MOL0     H45386   4.292   2.940   7.665 -1.2075  1.3302 -1.2541
  344MOL0     H45387   4.322   2.903   7.498 -2.1771 -0.1962 -1.6516
  344MOL0     H45388   4.096   2.765   7.506 -0.5434  2.1975 -2.3006
  344MOL0     H45389   4.084   2.941   7.519  2.8633 -0.1367 -3.2291
  344MOL0     H45390   5.074   2.370   7.617  2.5040 -0.8569 -1.4386
  344MOL0     H45391   5.282   2.389   7.527 -0.7884 -0.7014  0.0261
  344MOL0     H45392   5.630   2.757   7.429 -0.2268  0.4761  0.2958
  344MOL0     H45393   5.867   2.825   7.439 -0.2152 -0.3674  0.7267
  344MOL0     H45394   7.649   2.203   7.241  1.1225 -2.1578  1.0768
  344MOL0     H45395   7.785   2.075   7.080  4.0207 -1.8028  0.3754
  344MOL0     H45396   8.072   1.932   6.878  1.8960  0.0727  0.6583
  344MOL0     H45397   8.192   1.790   6.722 -1.7021 -0.1643  2.5824
  344MOL0     H45398   8.392   1.806   6.555 -2.8773  0.1217  1.3941
  344MOL0     H45399   8.378   1.961   6.483 -0.4072 -0.5594  3.8946
  344MOL0     H45400   8.413   1.863   6.246  4.5154  2.0996 -0.3664
  344MOL0     H45401   8.550   1.842   6.361  1.4728 -2.6254 -1.0857
  344MOL0     H45402   8.500   1.656   6.230 -1.2372  1.8371 -0.8742
  344MOL0     H45403   8.335   1.627   6.294 -1.1409 -0.3785  3.2612
  344MOL0     H45404   8.586   1.644   6.472  0.3126 -0.3750  1.7053
  344MOL0     H45405   8.425   1.578   6.516  2.2917  4.4814  2.2671
  344MOL0     H45406   8.596   1.235   6.387 -1.0593 -0.9847 -2.9362
  344MOL0     H45407   8.115   2.067   6.406  0.1848 -0.5626 -0.5672
  344MOL0     H45408   7.988   2.221   6.566 -0.9334 -0.0342  0.2073
  345MOL0     O45409   9.978  10.081   6.698 -0.0738 -0.2158  0.2293
  345MOL0     C45410  10.023  10.167   6.625  0.6026 -0.4635 -0.7127
  345MOL0     O45411   9.950  10.252   6.556 -0.4409 -0.6936 -0.1306
  345MOL0     C45412   9.814  10.225   6.551 -0.5542 -0.7309  0.3537
  345MOL0     C45413   9.735  10.337   6.563  0.0925  0.0042 -0.6776
  345MOL0     C45414   9.597  10.332   6.550 -0.2148 -0.3053  0.5976
  345MOL0     C45415   9.540  10.210   6.510 -0.8369 -0.2570  0.5399
  345MOL0     O45416   9.402  10.185   6.503  0.5726 -0.3351  0.2476
  345MOL0     C45417   9.322  10.234   6.615 -0.8438 -0.6460  0.4662
  345MOL0     C45418   9.167  10.211   6.585 -0.4678 -0.9105  0.4411
  345MOL0     C45419   9.136  10.067   6.569 -0.4086  0.0080 -0.3740
  345MOL0     C45420   8.994  10.024   6.593  0.7508  0.3048 -0.7258
  345MOL0     C45421   8.977   9.873   6.626  0.1177 -0.4325 -0.0598
  345MOL0     C45422   8.826   9.836   6.644 -0.3181  0.5373  0.5253
  345MOL0     C45423   8.731   9.926   6.721 -0.2395  0.2539  0.0694
  345MOL0     C45424   8.585   9.873   6.707  0.3526  0.0568  0.7726
  345MOL0     N45425   8.508   9.920   6.826 -0.0411  0.6761 -0.4243
  345MOL0     C45426   8.396   9.854   6.880  0.6746 -0.7236  0.5235
  345MOL0     C45427   8.347   9.930   6.982  0.5654  0.4983  0.7721
  345MOL0     C45428   8.222   9.893   7.051 -0.3376  0.4711  0.3057
  345MOL0     C45429   8.098   9.926   6.961 -0.3425  0.1860  0.0857
  345MOL0     C45430   8.079  10.080   6.947  0.2468  0.4658  1.3114
  345MOL0     C45431   7.951  10.111   6.865  0.2289 -0.1554 -0.7916
  345MOL0     O45432   7.837  10.125   6.958 -0.2024  0.1313 -0.7382
  345MOL0     C45433   7.722  10.170   6.901  0.1218 -0.6671 -0.6981
  345MOL0     C45434   7.719  10.274   6.812  0.0057 -0.8536  0.3662
  345MOL0     C45435   7.588  10.324   6.779  0.8783  0.2639  0.6844
  345MOL0     C45436   7.464  10.266   6.819 -0.0790  0.3290 -0.9076
  345MOL0     C45437   7.334  10.327   6.791 -0.3256  0.1380  0.3559
  345MOL0     O45438   7.224  10.272   6.852 -0.0041  0.3711 -0.2547
  345MOL0     C45439   7.111  10.325   6.809 -0.1097 -0.8547 -0.7945
  345MOL0     C45440   7.054  10.425   6.883  0.0467  0.1062 -0.0074
  345MOL0     C45441   6.942  10.496   6.846 -0.3732  0.7683 -0.1162
  345MOL0     C45442   6.883  10.470   6.721 -0.1800  0.1133 -0.8429
  345MOL0     O45443   6.772  10.525   6.668 -0.7201 -0.0621 -0.3368
  345MOL0     C45444   6.708  10.630   6.737  0.3773 -0.0725  1.3059
  345MOL0     C45445   6.568  10.651   6.661  0.0110 -0.7001 -0.3159
  345MOL0     C45446   6.579  10.716   6.520 -0.0134  0.4387  0.0818
  345MOL0     C45447   6.441  10.751   6.469 -0.7322  0.6941  0.4245
  345MOL0     C45448   6.450  10.775   6.315  0.8075 -0.5177  0.9262
  345MOL0     C45449   6.337  10.868   6.263  0.8805  0.3025  0.2143
  345MOL0     C45450   6.205  10.799   6.289  0.0147 -0.2304 -0.4888
  345MOL0     C45451   6.093  10.840   6.198 -0.5070 -0.3796  0.2503
  345MOL0    Cl45452   6.121  10.808   6.030  0.2726  0.0434 -0.0234
  345MOL0     C45453   6.943  10.373   6.643  0.2688  0.1471  0.5779
  345MOL0     C45454   7.056  10.303   6.681 -0.4704  0.2942  0.8496
  345MOL0     O45455   7.333  10.420   6.706 -0.5965 -0.1391  0.0356
  345MOL0     C45456   7.476  10.160   6.902 -0.1903  0.3656 -0.4398
  345MOL0     C45457   7.601  10.114   6.941  0.0923 -0.0830 -0.0413
  345MOL0     N45458   8.429  10.042   6.983 -0.0780  0.5328 -0.0018
  345MOL0     N45459   8.527  10.039   6.893 -0.5215  0.0608 -0.1957
  345MOL0     C45460   9.624  10.098   6.495 -0.8013  0.2524  0.4779
  345MOL0     C45461   9.760  10.103   6.516 -0.1337  0.1212  0.0226
  345MOL0     C45462  10.170  10.193   6.637  0.6581 -0.8009  0.1314
  345MOL0     C45463  10.235  10.202   6.758  0.0091 -1.5271  0.0156
  345MOL0     C45464  10.371  10.237   6.763 -0.1230  0.4989  0.3010
  345MOL0     C45465  10.444  10.237   6.641 -0.0226  0.4765 -0.2581
  345MOL0     O45466  10.580  10.244   6.654  0.4171 -0.0726 -0.8112
  345MOL0     C45467  10.659  10.288   6.550 -0.0899 -0.8278 -0.5029
  345MOL0     C45468  10.810  10.292   6.590 -0.0953 -1.5850 -1.1545
  345MOL0     C45469  10.916  10.372   6.513  0.3912  0.4093 -0.1737
  345MOL0     C45470  10.930  10.320   6.368 -0.0198  1.1834  0.2325
  345MOL0     C45471  11.032  10.398   6.297 -0.6809  0.7087 -0.0878
  345MOL0     C45472  11.110  10.471   6.236  0.2322 -0.5225  0.7646
  345MOL0     C45473  10.382  10.238   6.520 -0.5472  0.5176 -0.1473
  345MOL0     C45474  10.239  10.222   6.521  0.1075 -0.1552  1.1256
  345MOL0     H45475   9.780  10.432   6.592 -1.2812  0.7997 -1.0390
  345MOL0     H45476   9.521  10.405   6.573 -2.1168 -2.3043  0.9389
  345MOL0     H45477   9.347  10.337   6.644  0.3421 -0.4428 -1.1241
  345MOL0     H45478   9.352  10.175   6.702  2.4347 -3.5251 -2.2894
  345MOL0     H45479   9.130  10.265   6.497 -0.3505 -0.5885  0.5894
  345MOL0     H45480   9.114  10.242   6.675  1.0195 -3.0009  2.1674
  345MOL0     H45481   9.200  10.014   6.640  2.0490  1.3507 -1.4587
  345MOL0     H45482   9.163  10.021   6.474  0.1706 -4.7715  1.8315
  345MOL0     H45483   8.955  10.080   6.678  2.6514 -0.8425  0.9753
  345MOL0     H45484   8.927  10.049   6.511  2.1173  1.5994 -1.5064
  345MOL0     H45485   9.032   9.852   6.719  2.3839 -0.1600 -1.2610
  345MOL0     H45486   9.022   9.822   6.541  0.3670 -1.2042  0.5200
  345MOL0     H45487   8.823   9.731   6.674  1.7904  0.8756  2.1811
  345MOL0     H45488   8.785   9.832   6.543 -0.1502 -3.8038  0.4108
  345MOL0     H45489   8.761   9.905   6.824 -2.7501 -1.0338  0.6251
  345MOL0     H45490   8.748  10.029   6.691  3.5113 -0.0285  0.6499
  345MOL0     H45491   8.583   9.764   6.715 -1.7759 -0.0443 -0.2654
  345MOL0     H45492   8.537   9.903   6.613 -1.3161 -0.4136  1.4332
  345MOL0     H45493   8.356   9.764   6.835  1.2932  0.0375 -1.6749
  345MOL0     H45494   8.213   9.944   7.147  1.7672  0.2884  0.6412
  345MOL0     H45495   8.225   9.784   7.066 -1.9824  0.4335  0.5785
  345MOL0     H45496   8.016   9.876   7.013  0.8918  0.8415  2.8428
  345MOL0     H45497   8.127   9.884   6.864  2.3504  1.5135  0.2110
  345MOL0     H45498   8.070  10.131   7.043 -2.1312  0.6689  1.0316
  345MOL0     H45499   8.162  10.116   6.886 -0.5717  0.7004  0.2988
  345MOL0     H45500   7.918  10.036   6.793  0.4401 -0.9517 -0.0711
  345MOL0     H45501   7.971  10.207   6.817 -1.4981  0.5758 -0.1584
  345MOL0     H45502   7.805  10.330   6.774 -0.7277  0.0817  0.0336
  345MOL0     H45503   7.586  10.411   6.716  0.7858 -0.7670 -0.7825
  345MOL0     H45504   7.098  10.434   6.982 -0.1044 -0.9193  0.1610
  345MOL0     H45505   6.906  10.565   6.921  1.1126  0.5877  0.8104
  345MOL0     H45506   6.771  10.716   6.712  2.9114 -2.7570 -2.6672
  345MOL0     H45507   6.709  10.614   6.845  0.6866 -0.3591  1.2611
  345MOL0     H45508   6.517  10.726   6.723 -0.9972  0.0224 -1.9538
  345MOL0     H45509   6.505  10.561   6.661 -2.6422  1.0317  0.4448
  345MOL0     H45510   6.630  10.651   6.449  2.1899 -0.6703  2.5285
  345MOL0     H45511   6.639  10.808   6.522  1.1875 -0.3280 -0.2840
  345MOL0     H45512   6.362  10.682   6.500  0.5348 -1.4365 -0.8312
  345MOL0     H45513   6.423  10.845   6.521  1.3388  1.4481 -0.0917
  345MOL0     H45514   6.456  10.684   6.254 -0.3271 -0.3924  0.5952
  345MOL0     H45515   6.545  10.828   6.311  1.0796 -0.8042  2.5476
  345MOL0     H45516   6.363  10.888   6.159  2.2879 -0.4330  0.3908
  345MOL0     H45517   6.339  10.970   6.302 -1.1389  0.3706  0.2490
  345MOL0     H45518   6.223  10.691   6.286 -0.0383 -0.3958  2.1196
  345MOL0     H45519   6.164  10.819   6.389 -0.1645 -1.5188 -0.2834
  345MOL0     H45520   6.066  10.943   6.220 -3.1283 -0.9654  0.1375
  345MOL0     H45521   6.006  10.786   6.237 -1.5567  1.2124  0.1927
  345MOL0     H45522   6.912  10.362   6.540  2.4342 -2.0073  0.0753
  345MOL0     H45523   7.107  10.233   6.615 -0.3583 -0.8060  2.0486
  345MOL0     H45524   7.387  10.106   6.932 -1.5914  0.6752 -3.5826
  345MOL0     H45525   7.604  10.023   7.000 -1.6096  0.2980  0.6738
  345MOL0     H45526   9.579  10.007   6.457 -0.5364  1.2666 -2.5580
  345MOL0     H45527   9.821  10.015   6.499 -0.7484 -0.3582  0.2596
  345MOL0     H45528  10.180  10.187   6.850  2.1447 -2.5692  1.2178
  345MOL0     H45529  10.418  10.239   6.861 -1.6858  2.0002  1.0649
  345MOL0     H45530  10.620  10.381   6.508  0.4141 -0.9282 -1.2298
  345MOL0     H45531  10.667  10.217   6.466  1.3651 -1.6480  0.2950
  345MOL0     H45532  10.808  10.326   6.694  2.2810  2.1569 -2.1096
  345MOL0     H45533  10.839  10.187   6.594  0.9150 -1.2944 -0.1094
  345MOL0     H45534  11.010  10.361   6.568  0.1394 -1.9155 -0.1336
  345MOL0     H45535  10.870  10.471   6.524 -2.3536 -0.7627 -0.3305
  345MOL0     H45536  10.961  10.215   6.362 -1.4180  0.4878  3.1378
  345MOL0     H45537  10.834  10.325   6.317  0.1623  1.1860 -0.1089
  345MOL0     H45538  11.177  10.538   6.186  1.0056 -1.4649  0.5036
  345MOL0     H45539  10.444  10.254   6.433  0.9312  0.3646  0.8511
  345MOL0     H45540  10.191  10.223   6.423  0.5095  2.0858  0.8909
  346MOL0     O45541   4.939   7.139   5.637 -0.1776 -0.3218  0.0919
  346MOL0     C45542   4.992   7.115   5.526  0.3017 -0.0746  0.5390
  346MOL0     O45543   4.935   7.045   5.426  0.5609  0.3735 -0.1997
  346MOL0     C45544   4.818   6.986   5.454 -0.2524 -0.3527 -0.0687
  346MOL0     C45545   4.696   7.052   5.469 -1.1244  0.5246  0.0378
  346MOL0     C45546   4.575   6.980   5.501 -0.2622  0.3505  0.1884
  346MOL0     C45547   4.577   6.849   5.528  0.6583 -0.1824  0.8682
  346MOL0     O45548   4.470   6.765   5.552  0.2501 -0.6337  0.2781
  346MOL0     C45549   4.334   6.818   5.521  0.2692  0.5149  0.2157
  346MOL0     C45550   4.246   6.694   5.532 -0.1227 -0.6612 -0.4146
  346MOL0     C45551   4.109   6.700   5.461 -0.7872 -0.4819 -0.3431
  346MOL0     C45552   4.018   6.588   5.511 -0.7023 -0.0916  0.2488
  346MOL0     C45553   3.872   6.595   5.456  0.0458 -0.4870  0.1787
  346MOL0     C45554   3.810   6.737   5.466  0.6772  0.0759  0.3901
  346MOL0     C45555   3.662   6.748   5.433  0.8390 -0.2856 -0.9828
  346MOL0     C45556   3.630   6.896   5.444 -0.2266  0.6629  0.7422
  346MOL0     N45557   3.503   6.933   5.380  0.2252  0.4780 -0.5788
  346MOL0     C45558   3.483   6.944   5.244  0.3932  0.7628 -0.2012
  346MOL0     C45559   3.353   6.993   5.227  0.2250 -0.7067 -0.0064
  346MOL0     C45560   3.280   7.026   5.102  0.2294 -0.7769  0.9582
  346MOL0     C45561   3.137   6.975   5.092  0.2164 -0.0982  1.0945
  346MOL0     C45562   3.027   7.073   5.158 -0.3568  0.4001  0.2157
  346MOL0     C45563   2.887   7.009   5.160  0.0653 -0.9150 -0.4477
  346MOL0     O45564   2.859   6.939   5.036 -0.2176 -0.1585 -0.3741
  346MOL0     C45565   2.743   6.863   5.035  0.0929 -0.3562  0.2787
  346MOL0     C45566   2.658   6.887   4.920  0.2923  0.3080 -0.0857
  346MOL0     C45567   2.537   6.831   4.901  0.3667  1.2750  0.6095
  346MOL0     C45568   2.497   6.736   4.995  0.7786 -0.3192 -0.1073
  346MOL0     C45569   2.367   6.664   4.983 -0.5279  1.2834 -0.1084
  346MOL0     O45570   2.339   6.557   5.069  0.3876  0.5576 -0.0785
  346MOL0     C45571   2.217   6.498   5.100 -0.8245  0.9345  0.0594
  346MOL0     C45572   2.218   6.363   5.148 -0.4880  0.4191 -0.4999
  346MOL0     C45573   2.091   6.306   5.195  0.3195 -0.6621  0.6495
  346MOL0     C45574   1.974   6.382   5.182  0.4606  0.0614 -0.0605
  346MOL0     O45575   1.857   6.321   5.227  0.2833  0.1727  0.1356
  346MOL0     C45576   1.731   6.382   5.223  0.2521 -0.3919 -0.1718
  346MOL0     C45577   1.637   6.310   5.321 -0.0480  0.0914  0.0239
  346MOL0     C45578   1.502   6.376   5.347 -0.1864  0.1326  0.3326
  346MOL0     C45579   1.414   6.293   5.446 -1.4672 -0.0174  0.8399
  346MOL0     C45580   1.283   6.366   5.475  0.2408 -0.0374 -0.1025
  346MOL0     C45581   1.208   6.368   5.351 -0.2045 -0.0275 -0.7112
  346MOL0     C45582   1.078   6.446   5.389  0.2136  0.5320  0.4470
  346MOL0     C45583   0.982   6.469   5.277  0.0768  0.6844  0.3953
  346MOL0    Cl45584   0.821   6.503   5.347  0.3496  0.1240  0.0880
  346MOL0     C45585   1.981   6.515   5.128 -0.6705 -0.6315 -0.0699
  346MOL0     C45586   2.104   6.575   5.092  0.5828  0.2252 -0.1058
  346MOL0     O45587   2.292   6.695   4.888  0.0687 -0.2050  0.1432
  346MOL0     C45588   2.579   6.710   5.108  0.6403 -0.9928 -0.0437
  346MOL0     C45589   2.703   6.768   5.129  0.6740 -0.1570 -0.2942
  346MOL0     N45590   3.303   6.991   5.362  0.7552  0.4531  0.2241
  346MOL0     N45591   3.386   6.951   5.451 -0.2674  0.8444  0.3720
  346MOL0     C45592   4.700   6.785   5.524  0.9337 -0.1991 -0.4928
  346MOL0     C45593   4.814   6.849   5.483 -0.1565 -1.2160 -0.1505
  346MOL0     C45594   5.135   7.161   5.519 -0.2864 -0.9651  0.4414
  346MOL0     C45595   5.194   7.140   5.393  0.3607 -0.4425  0.3031
  346MOL0     C45596   5.340   7.155   5.378  0.3852  0.9794  0.1125
  346MOL0     C45597   5.414   7.212   5.481  0.0068 -0.3946 -0.4415
  346MOL0     O45598   5.550   7.208   5.456 -0.1207 -0.1687  0.0676
  346MOL0     C45599   5.638   7.301   5.529  0.4077  0.9123 -0.0748
  346MOL0     C45600   5.615   7.444   5.473 -0.5125  0.3663  0.3660
  346MOL0     C45601   5.749   7.522   5.507  1.0884 -0.3544  0.5111
  346MOL0     C45602   5.850   7.513   5.389 -0.2608 -0.2954 -0.3309
  346MOL0     C45603   5.983   7.557   5.440  0.0083  0.3791  0.9333
  346MOL0     C45604   6.086   7.589   5.494 -1.1238  0.1121  0.5996
  346MOL0     C45605   5.347   7.247   5.599  0.9117 -1.2160 -0.1025
  346MOL0     C45606   5.214   7.222   5.621  0.3158  0.2524 -0.0915
  346MOL0     H45607   4.689   7.159   5.453 -0.0254  0.7939  1.2334
  346MOL0     H45608   4.485   7.040   5.501  0.9103  2.2377 -1.4592
  346MOL0     H45609   4.321   6.865   5.423  1.9856 -3.0291 -1.8848
  346MOL0     H45610   4.310   6.894   5.596 -0.7307  0.2625  0.1669
  346MOL0     H45611   4.235   6.670   5.638 -2.4916  0.9362 -0.2195
  346MOL0     H45612   4.301   6.613   5.483 -0.0855  0.1752 -1.8119
  346MOL0     H45613   4.119   6.700   5.352  0.8541 -2.1185 -0.2436
  346MOL0     H45614   4.065   6.797   5.486 -0.1597 -0.2340 -0.1655
  346MOL0     H45615   4.060   6.490   5.487  0.4742 -0.1993  2.5304
  346MOL0     H45616   4.022   6.593   5.620 -1.0443  2.3682  0.2092
  346MOL0     H45617   3.820   6.515   5.510 -1.1579 -0.0595 -0.3097
  346MOL0     H45618   3.868   6.556   5.354  1.3166 -2.1788  0.7200
  346MOL0     H45619   3.867   6.801   5.398  0.5195  0.2155  0.3897
  346MOL0     H45620   3.832   6.772   5.567  0.2894  0.1790  0.4404
  346MOL0     H45621   3.636   6.706   5.336 -1.8090  2.2323 -1.5005
  346MOL0     H45622   3.602   6.693   5.507  0.9761 -0.6738 -1.1585
  346MOL0     H45623   3.718   6.948   5.406  1.2943 -1.5162  1.0918
  346MOL0     H45624   3.621   6.917   5.551 -1.0013  1.1223  0.5923
  346MOL0     H45625   3.552   6.923   5.164  0.9368 -1.4240  0.7624
  346MOL0     H45626   3.334   6.999   5.011 -1.9012  3.4133 -1.8606
  346MOL0     H45627   3.278   7.134   5.088  1.3111 -0.2891  3.8232
  346MOL0     H45628   3.133   6.870   5.122  0.9797 -1.1435 -2.0732
  346MOL0     H45629   3.117   6.982   4.985 -0.9283  2.5696  1.3806
  346MOL0     H45630   3.065   7.089   5.259  4.2855 -0.7860 -1.1311
  346MOL0     H45631   3.020   7.169   5.107  0.6957  0.0105 -0.7009
  346MOL0     H45632   2.815   7.091   5.167 -0.2096 -1.2125  0.2540
  346MOL0     H45633   2.877   6.944   5.247  1.1689  1.0809  1.2742
  346MOL0     H45634   2.683   6.955   4.840  0.5070  0.4734  0.1202
  346MOL0     H45635   2.470   6.841   4.816 -1.4855 -3.0518  1.2797
  346MOL0     H45636   2.311   6.306   5.152  0.1539  1.3192 -1.7134
  346MOL0     H45637   2.083   6.201   5.223 -0.4196 -1.0641 -0.9384
  346MOL0     H45638   1.694   6.370   5.122  0.6761  0.8196 -0.4966
  346MOL0     H45639   1.731   6.488   5.253  1.0325 -0.4847  0.2020
  346MOL0     H45640   1.695   6.312   5.413 -2.4898  0.0843  1.6514
  346MOL0     H45641   1.627   6.207   5.284 -2.8104  1.1986 -2.7880
  346MOL0     H45642   1.460   6.403   5.250 -0.7855  1.9028  1.0325
  346MOL0     H45643   1.530   6.472   5.392 -0.4397  1.5373 -2.2836
  346MOL0     H45644   1.391   6.192   5.414  0.9423  0.0617 -1.5792
  346MOL0     H45645   1.465   6.292   5.543 -1.3823 -3.3897  0.8597
  346MOL0     H45646   1.313   6.465   5.509 -0.9412  0.5196 -0.6586
  346MOL0     H45647   1.223   6.322   5.555 -1.0685  3.7908  1.2191
  346MOL0     H45648   1.193   6.266   5.315  0.9517  0.2362 -2.0443
  346MOL0     H45649   1.248   6.433   5.272 -2.1280 -0.2563 -1.9586
  346MOL0     H45650   1.028   6.393   5.471  0.5733 -0.4204  0.0581
  346MOL0     H45651   1.109   6.545   5.426  2.4144  0.6180 -1.3870
  346MOL0     H45652   0.973   6.373   5.225 -1.5824 -0.4335  2.5665
  346MOL0     H45653   1.015   6.551   5.212  0.2957  0.0581 -0.3001
  346MOL0     H45654   1.899   6.586   5.128  2.1856  2.9441 -0.1804
  346MOL0     H45655   2.106   6.673   5.046  1.6907  0.3030  0.0907
  346MOL0     H45656   2.549   6.644   5.189  1.0839 -0.1306  0.8436
  346MOL0     H45657   2.756   6.750   5.222 -0.1854  1.4251  0.5253
  346MOL0     H45658   4.704   6.680   5.549  3.7343 -0.0983 -0.1114
  346MOL0     H45659   4.910   6.800   5.469 -0.0756 -0.7941 -1.2546
  346MOL0     H45660   5.139   7.105   5.306 -0.4791  1.9998 -0.2410
  346MOL0     H45661   5.368   7.133   5.276 -1.3996  0.8643 -0.3936
  346MOL0     H45662   5.741   7.265   5.528 -0.6702 -2.8404  2.5184
  346MOL0     H45663   5.613   7.309   5.635 -0.4025  2.3958 -0.3499
  346MOL0     H45664   5.596   7.445   5.365 -2.2597  2.2461  0.6355
  346MOL0     H45665   5.535   7.496   5.526  0.6529  1.6672  0.9062
  346MOL0     H45666   5.793   7.493   5.603 -0.2264  1.1345  1.6060
  346MOL0     H45667   5.730   7.629   5.519 -1.3096 -0.7025  0.2745
  346MOL0     H45668   5.862   7.413   5.348  1.0092  0.3859 -1.7352
  346MOL0     H45669   5.823   7.578   5.305 -0.2789 -0.3974 -0.4038
  346MOL0     H45670   6.181   7.625   5.527 -0.6785  0.9925 -1.4792
  346MOL0     H45671   5.384   7.298   5.687 -1.4346  0.2372  0.1273
  346MOL0     H45672   5.169   7.242   5.718 -0.8199 -0.1765 -0.5072
  347MOL0     O45673   1.403   9.204   0.393  0.1130  0.1413 -0.9381
  347MOL0     C45674   1.353   9.106   0.335 -0.9843 -0.6001  0.8079
  347MOL0     O45675   1.400   8.981   0.335  0.5540 -0.2558  0.2009
  347MOL0     C45676   1.515   8.944   0.397  0.7810 -1.0115 -0.0055
  347MOL0     C45677   1.543   9.003   0.525 -0.1076  0.7079 -0.8745
  347MOL0     C45678   1.659   8.969   0.591  0.0344 -0.3021 -0.2443
  347MOL0     C45679   1.743   8.878   0.530 -0.5084 -0.3465  0.1551
  347MOL0     O45680   1.850   8.823   0.598 -0.2597 -0.0482  0.7589
  347MOL0     C45681   1.952   8.912   0.634  0.0549  0.0353  0.6746
  347MOL0     C45682   2.041   8.843   0.737 -0.1115  0.4308  0.1712
  347MOL0     C45683   1.976   8.800   0.867  0.1891  0.8474  0.5372
  347MOL0     C45684   1.938   8.919   0.954  0.0368  0.8291 -0.2820
  347MOL0     C45685   1.828   8.890   1.062 -0.1477  0.0859 -0.6728
  347MOL0     C45686   1.896   8.778   1.163  0.7972 -1.1022  0.8658
  347MOL0     C45687   1.797   8.740   1.270  0.3963 -0.1544  0.2490
  347MOL0     C45688   1.853   8.662   1.383  0.1392  0.0242  0.0024
  347MOL0     N45689   1.900   8.533   1.330  0.7757  0.4335  0.1593
  347MOL0     C45690   1.845   8.439   1.248 -0.1265 -1.0914  0.0776
  347MOL0     C45691   1.941   8.357   1.203  0.2182  1.1217  0.4960
  347MOL0     C45692   1.926   8.248   1.094  0.6395  0.3405 -0.9507
  347MOL0     C45693   2.028   8.285   0.976 -0.8478  0.3768  0.0431
  347MOL0     C45694   2.007   8.418   0.889  0.9499  0.6465  0.4820
  347MOL0     C45695   1.864   8.441   0.830 -0.3851 -0.7346 -1.1927
  347MOL0     O45696   1.781   8.508   0.922 -0.4607 -0.4088  0.0230
  347MOL0     C45697   1.658   8.561   0.880 -0.4137  0.3633  0.2024
  347MOL0     C45698   1.560   8.549   0.968  0.1760 -0.7256  0.1416
  347MOL0     C45699   1.427   8.600   0.954 -0.4790 -0.1432  0.3200
  347MOL0     C45700   1.401   8.675   0.833  0.3899 -0.7369 -0.0901
  347MOL0     C45701   1.264   8.737   0.833 -0.0950 -0.4780 -0.4924
  347MOL0     O45702   1.260   8.843   0.754 -1.1144 -0.6973 -0.5894
  347MOL0     C45703   1.140   8.890   0.710 -0.8640  0.2091  0.7113
  347MOL0     C45704   1.028   8.815   0.684  0.4901  0.1110 -0.0056
  347MOL0     C45705   0.909   8.865   0.629  0.5142 -0.2430  0.6574
  347MOL0     C45706   0.905   9.001   0.593 -0.8288 -0.5345  0.5448
  347MOL0     O45707   0.802   9.058   0.527  0.0058  0.3335  0.3106
  347MOL0     C45708   0.822   9.083   0.390 -0.5194 -0.5113  0.0434
  347MOL0     C45709   0.699   9.142   0.341  0.7246 -0.2559 -0.0829
  347MOL0     C45710   0.677   9.298   0.375  0.0508  0.2347 -0.6727
  347MOL0     C45711   0.563   9.360   0.293  0.1866 -0.4209 -0.1956
  347MOL0     C45712   0.545   9.512   0.330 -0.8130  0.0011  0.2514
  347MOL0     C45713   0.456   9.587   0.230  0.4184 -0.2635 -0.4479
  347MOL0     C45714   0.316   9.527   0.212  0.4568 -0.4758  0.6261
  347MOL0     C45715   0.230   9.618   0.127  0.0117 -0.8803 -0.0810
  347MOL0    Cl45716   0.088   9.540   0.064  0.5120  0.2807  0.0249
  347MOL0     C45717   1.022   9.077   0.618 -0.6436 -0.4693 -0.1641
  347MOL0     C45718   1.140   9.024   0.676  0.4922 -0.3238  1.0372
  347MOL0     O45719   1.171   8.698   0.907  0.1431  0.1796  0.1757
  347MOL0     C45720   1.502   8.695   0.740  0.5130  0.0316 -1.1724
  347MOL0     C45721   1.627   8.633   0.763  0.0030  0.5025 -0.1302
  347MOL0     N45722   2.055   8.396   1.274  0.3382  0.2616  0.2560
  347MOL0     N45723   2.030   8.505   1.332 -0.8104  0.2071  0.0343
  347MOL0     C45724   1.709   8.817   0.407 -0.3900 -0.1509  1.2189
  347MOL0     C45725   1.594   8.859   0.338  0.5339 -0.3302 -0.1292
  347MOL0     C45726   1.242   9.131   0.243  0.0365  0.0023  0.1207
  347MOL0     C45727   1.175   9.017   0.192  0.6896 -1.4381 -0.4393
  347MOL0     C45728   1.056   9.045   0.115  0.5463  0.6211 -0.9894
  347MOL0     C45729   1.007   9.173   0.086 -0.4574  0.1898  0.0835
  347MOL0     O45730   0.894   9.185   0.016  0.7876 -0.4214 -0.0750
  347MOL0     C45731   0.850   9.319  -0.027  0.5706  0.8612  0.3711
  347MOL0     C45732   0.729   9.313  -0.109 -0.3313  0.1749 -0.6513
  347MOL0     C45733   0.662   9.457  -0.131 -1.0028  0.2458  0.0772
  347MOL0     C45734   0.547   9.455  -0.235 -0.8608  0.3741  0.2004
  347MOL0     C45735   0.435   9.376  -0.180 -0.7662 -0.4745  1.0227
  347MOL0     C45736   0.346   9.321  -0.118  0.2650 -0.0709  1.0265
  347MOL0     C45737   1.074   9.285   0.146 -0.8271 -0.5518  0.0112
  347MOL0     C45738   1.185   9.260   0.225  0.0668  0.3089 -0.6513
  347MOL0     H45739   1.482   9.070   0.584 -0.4928 -0.4020  0.0230
  347MOL0     H45740   1.679   9.003   0.692  1.7060  0.7745 -0.8975
  347MOL0     H45741   1.914   9.004   0.679 -0.8336 -0.4669  0.9636
  347MOL0     H45742   2.006   8.943   0.544 -0.1199  1.6049  1.0868
  347MOL0     H45743   2.127   8.904   0.766  0.0196  0.6759 -0.7031
  347MOL0     H45744   2.082   8.756   0.683  0.1717  0.9810 -0.5247
  347MOL0     H45745   2.053   8.740   0.918 -0.2898 -1.3377 -1.1308
  347MOL0     H45746   1.891   8.733   0.848  1.2163 -0.1653 -0.7015
  347MOL0     H45747   2.034   8.949   0.996 -0.5266 -0.1218  1.8018
  347MOL0     H45748   1.906   9.007   0.898  0.2925  1.1406  0.0570
  347MOL0     H45749   1.738   8.849   1.016 -2.0101  1.5572  1.4382
  347MOL0     H45750   1.809   8.981   1.120 -1.5907  0.8691 -2.3096
  347MOL0     H45751   1.983   8.821   1.214  0.0316  0.2730  1.0685
  347MOL0     H45752   1.932   8.695   1.102  3.6253 -1.5883  2.9888
  347MOL0     H45753   1.744   8.830   1.303 -0.8759 -0.0700 -1.8444
  347MOL0     H45754   1.713   8.682   1.230  1.4881 -1.6477  0.0405
  347MOL0     H45755   1.785   8.649   1.468  1.2408  2.5132  1.3838
  347MOL0     H45756   1.934   8.727   1.417  0.5464 -0.5801  0.2032
  347MOL0     H45757   1.741   8.429   1.220 -1.0339 -0.2851  2.8749
  347MOL0     H45758   1.821   8.241   1.063  0.8310 -0.2788 -1.4726
  347MOL0     H45759   1.948   8.155   1.147 -2.2264  0.9750  1.6787
  347MOL0     H45760   2.027   8.197   0.911 -0.4760  2.9612 -3.7811
  347MOL0     H45761   2.131   8.277   1.010  0.3541 -1.8764 -3.5806
  347MOL0     H45762   2.042   8.499   0.954  2.0054 -1.0862  2.2126
  347MOL0     H45763   2.077   8.417   0.806 -0.2345  2.2968 -0.5939
  347MOL0     H45764   1.821   8.346   0.795 -1.8339 -0.3942 -0.3777
  347MOL0     H45765   1.871   8.510   0.745 -1.6117  1.4696  0.4140
  347MOL0     H45766   1.577   8.492   1.059 -2.7465  0.2616  1.4602
  347MOL0     H45767   1.361   8.573   1.036  0.0059  1.7440  1.3949
  347MOL0     H45768   1.038   8.712   0.718  1.9748  0.8728  2.1468
  347MOL0     H45769   0.822   8.803   0.611 -0.7638  2.0664 -2.0395
  347MOL0     H45770   0.853   8.996   0.331 -1.6713 -1.2510  0.4968
  347MOL0     H45771   0.907   9.149   0.367 -0.4540 -0.6123 -0.0055
  347MOL0     H45772   0.609   9.087   0.369 -1.3034  2.0215 -1.6751
  347MOL0     H45773   0.705   9.144   0.231 -1.8733 -0.4296 -0.2897
  347MOL0     H45774   0.769   9.355   0.363  0.4685 -0.1248  0.6643
  347MOL0     H45775   0.663   9.302   0.483 -0.6045  1.2691 -0.7807
  347MOL0     H45776   0.578   9.359   0.184 -1.5172 -0.5740 -0.4521
  347MOL0     H45777   0.470   9.316   0.328 -0.2974  1.8365  1.6073
  347MOL0     H45778   0.643   9.559   0.319 -0.5429 -0.7466 -0.6480
  347MOL0     H45779   0.499   9.506   0.429 -2.1695 -0.3696 -0.3845
  347MOL0     H45780   0.506   9.591   0.133  1.0371 -1.4031 -0.1977
  347MOL0     H45781   0.448   9.688   0.270 -1.2704  0.4487 -2.4063
  347MOL0     H45782   0.328   9.434   0.157 -0.4231  0.5538 -1.4052
  347MOL0     H45783   0.269   9.504   0.308  0.8041  1.6685  1.3790
  347MOL0     H45784   0.299   9.658   0.053  0.0720  0.5630  0.7196
  347MOL0     H45785   0.194   9.710   0.174 -1.4391 -0.6594 -1.5222
  347MOL0     H45786   1.029   9.182   0.591 -0.0897  0.2178  2.3656
  347MOL0     H45787   1.231   9.080   0.697  1.0864 -1.7213  2.4610
  347MOL0     H45788   1.486   8.750   0.648 -1.0014 -1.9757 -2.1788
  347MOL0     H45789   1.697   8.649   0.681 -1.4588  0.4661 -1.4306
  347MOL0     H45790   1.776   8.743   0.365  1.5494  3.1521 -2.2131
  347MOL0     H45791   1.554   8.823   0.244 -2.5893  3.1813 -0.3895
  347MOL0     H45792   1.218   8.919   0.208  1.8073 -1.4161 -2.9036
  347MOL0     H45793   1.005   8.955   0.082 -2.3392 -0.3649  4.8715
  347MOL0     H45794   0.925   9.368  -0.090  1.5691 -1.3589 -0.2730
  347MOL0     H45795   0.834   9.394   0.050  1.8989  3.2696 -1.5862
  347MOL0     H45796   0.755   9.258  -0.200 -0.8806 -0.8591 -0.1923
  347MOL0     H45797   0.653   9.246  -0.068 -1.2775 -1.5921 -4.8066
  347MOL0     H45798   0.751   9.511  -0.166 -1.3613  0.8762  0.1216
  347MOL0     H45799   0.627   9.503  -0.038  0.2227  3.0461 -0.7293
  347MOL0     H45800   0.528   9.561  -0.254  1.2730  0.8598  0.5942
  347MOL0     H45801   0.585   9.414  -0.330 -0.5341 -0.7808  0.8074
  347MOL0     H45802   0.270   9.254  -0.084 -1.6436  0.3512 -1.9411
  347MOL0     H45803   1.030   9.384   0.141  2.5045  1.0334 -0.3967
  347MOL0     H45804   1.221   9.346   0.280 -2.9512  0.1559  1.8590
  348MOL0     O45805   3.374  10.065   1.794 -0.2671  0.3878  0.0139
  348MOL0     C45806   3.473  10.022   1.737 -0.1762  0.0350  0.3904
  348MOL0     O45807   3.469   9.915   1.649 -0.3712  0.5192  0.5383
  348MOL0     C45808   3.353   9.835   1.645 -0.2164 -0.8165  0.4754
  348MOL0     C45809   3.281   9.799   1.525 -0.1701  0.4118  0.9850
  348MOL0     C45810   3.155   9.729   1.546  0.3937 -0.3238  0.3256
  348MOL0     C45811   3.117   9.675   1.669  0.5819 -0.2569 -0.3148
  348MOL0     O45812   3.008   9.594   1.665 -0.0042  0.4270 -0.3638
  348MOL0     C45813   2.966   9.522   1.788  0.4812 -0.1030  0.8023
  348MOL0     C45814   2.884   9.400   1.724  0.1469 -0.1952  0.6833
  348MOL0     C45815   2.732   9.430   1.686 -0.0644  0.1879  0.6001
  348MOL0     C45816   2.669   9.323   1.597  0.3357 -0.0438  0.2131
  348MOL0     C45817   2.552   9.385   1.521 -0.1764 -0.2536 -0.1046
  348MOL0     C45818   2.442   9.435   1.617  0.8297 -0.1463 -0.3097
  348MOL0     C45819   2.299   9.425   1.564  0.6805  0.4385 -0.4199
  348MOL0     C45820   2.272   9.472   1.418 -0.4027 -0.5268 -0.2828
  348MOL0     N45821   2.143   9.428   1.369  0.2366 -0.5687  0.4600
  348MOL0     C45822   2.019   9.428   1.431  0.0650 -0.2300  0.0718
  348MOL0     C45823   1.941   9.377   1.337  0.9246 -1.0326 -0.4336
  348MOL0     C45824   1.792   9.398   1.332 -0.4261  0.0138 -0.1370
  348MOL0     C45825   1.709   9.376   1.447 -0.0986 -0.1562 -0.6948
  348MOL0     C45826   1.705   9.237   1.510 -0.8242 -0.4218 -0.2939
  348MOL0     C45827   1.643   9.129   1.422 -0.4725 -0.4453 -0.0749
  348MOL0     O45828   1.627   9.003   1.475 -0.6412 -0.2780  0.2115
  348MOL0     C45829   1.516   8.966   1.551 -0.5669 -0.2820 -0.9218
  348MOL0     C45830   1.514   8.836   1.604 -0.5212 -0.5453 -0.2836
  348MOL0     C45831   1.428   8.780   1.693  0.2666  0.9864 -0.3122
  348MOL0     C45832   1.322   8.853   1.742 -0.7035  0.1464  0.2183
  348MOL0     C45833   1.230   8.809   1.849 -0.3233  0.4594  0.8344
  348MOL0     O45834   1.103   8.870   1.847 -0.3235  0.7998 -0.1678
  348MOL0     C45835   1.019   8.825   1.944 -0.8611 -0.0195 -0.2368
  348MOL0     C45836   1.041   8.842   2.079  0.9809 -0.4950 -0.1515
  348MOL0     C45837   0.947   8.807   2.177  0.2227 -0.1178 -0.0848
  348MOL0     C45838   0.824   8.765   2.137  0.3522 -0.3016 -0.4915
  348MOL0     O45839   0.739   8.730   2.236 -0.2429 -0.0238 -0.5950
  348MOL0     C45840   0.600   8.732   2.207 -0.0902 -0.6324  0.2779
  348MOL0     C45841   0.527   8.726   2.338  0.2220  0.3450  0.0872
  348MOL0     C45842   0.376   8.744   2.325 -0.0173 -1.0652  0.6811
  348MOL0     C45843   0.330   8.884   2.278  0.8318  0.0877  0.1419
  348MOL0     C45844   0.231   8.870   2.160  0.3994 -0.4950  0.5070
  348MOL0     C45845   0.094   8.812   2.217 -0.5135 -0.2794  0.6735
  348MOL0     C45846  -0.013   8.789   2.104  0.1500  0.6265 -0.3690
  348MOL0     C45847  -0.144   8.765   2.162 -0.5223  0.5553 -0.1610
  348MOL0    Cl45848  -0.262   8.726   2.040 -0.1622  0.1510 -0.0129
  348MOL0     C45849   0.802   8.749   2.007  1.2504  0.7707  0.8116
  348MOL0     C45850   0.891   8.786   1.912 -0.1479  0.1291  0.9118
  348MOL0     O45851   1.263   8.723   1.927 -0.0801 -0.1608  0.1643
  348MOL0     C45852   1.310   8.986   1.693 -0.2071  0.0588  0.6049
  348MOL0     C45853   1.410   9.049   1.604  0.7121 -0.4282  0.3417
  348MOL0     N45854   2.020   9.315   1.242  0.6575  0.2649  0.8236
  348MOL0     N45855   2.144   9.349   1.260  0.0706  0.1381  0.3878
  348MOL0     C45856   3.187   9.711   1.781  0.3769 -0.3302 -0.4858
  348MOL0     C45857   3.301   9.785   1.765  0.0082 -0.1329 -0.8818
  348MOL0     C45858   3.600  10.092   1.751 -0.5021  0.7318  0.2235
  348MOL0     C45859   3.609  10.224   1.786 -0.3001 -0.0846  0.3748
  348MOL0     C45860   3.730  10.281   1.793 -0.1124  0.6552 -0.2359
  348MOL0     C45861   3.852  10.214   1.770  0.4499 -1.4684  0.1884
  348MOL0     O45862   3.972  10.293   1.772  0.0947 -0.2980  0.0230
  348MOL0     C45863   4.091  10.237   1.719  0.3770 -0.2191  0.3960
  348MOL0     C45864   4.187  10.351   1.721 -0.1913  0.3936 -0.6634
  348MOL0     C45865   4.327  10.301   1.680 -0.7912  0.0044  0.3838
  348MOL0     C45866   4.435  10.419   1.697 -0.9184  0.0334 -0.7282
  348MOL0     C45867   4.566  10.378   1.644  0.0247  0.4705 -0.5777
  348MOL0     C45868   4.682  10.360   1.615 -0.3209  0.2990 -0.0172
  348MOL0     C45869   3.840  10.080   1.732 -0.8307 -0.1972  0.4890
  348MOL0     C45870   3.716  10.015   1.736 -0.0131  0.6923  0.1189
  348MOL0     H45871   3.316   9.833   1.428  0.6703 -0.1242  1.0972
  348MOL0     H45872   3.087   9.700   1.467  0.2582 -1.9964  1.0186
  348MOL0     H45873   2.896   9.589   1.837 -0.6850 -0.6972  0.0050
  348MOL0     H45874   3.055   9.488   1.841  2.8146  2.2518 -1.2996
  348MOL0     H45875   2.878   9.311   1.787 -3.2103  1.0821  2.4390
  348MOL0     H45876   2.936   9.364   1.635 -0.5688  0.2632  0.0690
  348MOL0     H45877   2.728   9.528   1.637 -0.5141  0.5861  1.4031
  348MOL0     H45878   2.678   9.453   1.779 -2.5107  1.0462 -0.9351
  348MOL0     H45879   2.740   9.272   1.531  1.2984 -0.8012  1.7865
  348MOL0     H45880   2.635   9.241   1.661 -0.1032  0.2660  0.3837
  348MOL0     H45881   2.510   9.306   1.457 -0.4366 -0.6953  0.6000
  348MOL0     H45882   2.579   9.472   1.460 -3.1038  1.0907  0.3297
  348MOL0     H45883   2.455   9.537   1.655  3.9434 -0.8936  0.9254
  348MOL0     H45884   2.444   9.369   1.704 -4.6707 -1.1686 -0.5818
  348MOL0     H45885   2.262   9.322   1.568 -2.2719  1.3661 -1.2448
  348MOL0     H45886   2.235   9.482   1.631  2.7524  0.3639  1.7646
  348MOL0     H45887   2.351   9.432   1.354  1.3165 -0.5165  1.7059
  348MOL0     H45888   2.286   9.579   1.405 -0.6872 -0.1372  2.2241
  348MOL0     H45889   1.995   9.465   1.530 -0.2092 -0.2086 -0.0002
  348MOL0     H45890   1.758   9.337   1.248  0.1424  1.0191 -1.1172
  348MOL0     H45891   1.774   9.504   1.314  2.3411  0.4073 -0.9133
  348MOL0     H45892   1.605   9.408   1.436  0.1052  0.9343  0.3172
  348MOL0     H45893   1.748   9.445   1.521 -0.2134  0.1336 -0.9043
  348MOL0     H45894   1.808   9.220   1.542 -0.2017  3.0475 -0.1044
  348MOL0     H45895   1.643   9.230   1.601 -1.2932 -3.1425 -0.7236
  348MOL0     H45896   1.708   9.117   1.335 -2.5480  2.0270 -2.1259
  348MOL0     H45897   1.545   9.163   1.386 -0.7641 -3.7507 -2.9756
  348MOL0     H45898   1.590   8.780   1.551  0.5918  3.5499 -3.5599
  348MOL0     H45899   1.440   8.679   1.729  0.5560  1.1948  0.1761
  348MOL0     H45900   1.143   8.873   2.101  2.1535 -1.1697 -3.8976
  348MOL0     H45901   0.969   8.822   2.282  0.4970  3.1899 -0.4953
  348MOL0     H45902   0.586   8.644   2.145 -0.2214 -0.2276 -0.2735
  348MOL0     H45903   0.573   8.819   2.146 -1.4605 -1.1306  0.1406
  348MOL0     H45904   0.576   8.808   2.391  0.4200 -0.6411  1.4918
  348MOL0     H45905   0.549   8.624   2.371 -1.8541  0.4300  1.9875
  348MOL0     H45906   0.337   8.742   2.427  2.6850  1.9062  1.9682
  348MOL0     H45907   0.330   8.666   2.264  0.6393  0.4336 -1.8775
  348MOL0     H45908   0.288   8.939   2.362 -2.8757  0.1590 -1.5786
  348MOL0     H45909   0.422   8.937   2.250  1.5055 -0.3822  1.3648
  348MOL0     H45910   0.271   8.803   2.084 -1.3366 -0.1700 -0.7600
  348MOL0     H45911   0.214   8.972   2.124 -0.7389 -0.3030  1.5329
  348MOL0     H45912   0.047   8.881   2.288 -1.6274  0.2376 -0.5284
  348MOL0     H45913   0.120   8.720   2.270  1.4929 -0.1697 -0.0553
  348MOL0     H45914  -0.014   8.871   2.032  0.0287  0.3205 -0.7199
  348MOL0     H45915   0.015   8.698   2.048  3.0490  2.1007 -1.5344
  348MOL0     H45916  -0.174   8.853   2.219  0.0420  1.4243 -1.1713
  348MOL0     H45917  -0.143   8.677   2.227 -1.2301 -0.5177 -1.5371
  348MOL0     H45918   0.708   8.707   1.972  0.2442  1.0004  3.1159
  348MOL0     H45919   0.879   8.763   1.807 -4.3945  0.8089  1.0783
  348MOL0     H45920   1.225   9.043   1.729  0.3186  1.4766 -0.2886
  348MOL0     H45921   1.415   9.153   1.576  1.8850 -0.3564  0.7669
  348MOL0     H45922   3.153   9.682   1.880 -0.0719 -0.1755 -0.5932
  348MOL0     H45923   3.351   9.820   1.855 -3.2473  2.5918  0.0762
  348MOL0     H45924   3.522  10.278   1.823 -1.2995  0.6312 -2.7079
  348MOL0     H45925   3.743  10.386   1.817 -4.4612  1.9838 -2.6755
  348MOL0     H45926   4.072  10.194   1.620 -3.2099 -0.4694  1.0599
  348MOL0     H45927   4.124  10.152   1.780 -0.6247  0.0569  1.3475
  348MOL0     H45928   4.154  10.434   1.658  0.2330  0.0391 -1.3613
  348MOL0     H45929   4.182  10.379   1.827 -1.7302  2.4220 -1.2196
  348MOL0     H45930   4.332  10.276   1.573  0.0250 -1.1570  0.6748
  348MOL0     H45931   4.360  10.219   1.745 -0.0549  0.0221  0.0435
  348MOL0     H45932   4.414  10.516   1.651 -0.6180 -0.8666 -2.8724
  348MOL0     H45933   4.436  10.439   1.805 -0.1078  1.4303 -0.9815
  348MOL0     H45934   4.788  10.363   1.601  0.2372  0.9894  3.5136
  348MOL0     H45935   3.936  10.040   1.702  1.0004  1.7790  3.1112
  348MOL0     H45936   3.707   9.908   1.719 -1.7078 -0.0767  4.5425
  349MOL0     O45937   7.757   6.289   4.940  0.0621  0.7975 -0.7169
  349MOL0     C45938   7.757   6.412   4.929  0.0182  0.5914 -0.7999
  349MOL0     O45939   7.656   6.497   4.961 -0.2868 -0.1616 -0.2986
  349MOL0     C45940   7.536   6.441   5.007  0.4837 -0.3527  0.4132
  349MOL0     C45941   7.492   6.452   5.138  0.5527 -0.2388 -0.3763
  349MOL0     C45942   7.362   6.415   5.177 -0.2586  0.4770 -1.4112
  349MOL0     C45943   7.270   6.369   5.090  0.5597  0.2855  1.1924
  349MOL0     O45944   7.154   6.311   5.134  0.3963 -0.1031  0.0703
  349MOL0     C45945   7.119   6.188   5.064  0.3568  0.3514  0.3144
  349MOL0     C45946   6.975   6.199   5.007  0.7671 -0.4029  1.3994
  349MOL0     C45947   6.871   6.186   5.122  0.5021 -1.1961  0.3800
  349MOL0     C45948   6.719   6.157   5.092 -0.9983  0.4478 -0.0115
  349MOL0     C45949   6.649   6.113   5.222  0.0444  0.2161 -0.0146
  349MOL0     C45950   6.496   6.089   5.203 -0.7735  0.4927 -0.1156
  349MOL0     C45951   6.426   6.073   5.342 -0.9110  0.3461 -0.9549
  349MOL0     C45952   6.280   6.031   5.326  0.6871  0.6261  0.1694
  349MOL0     N45953   6.262   5.893   5.274  0.0006  0.2288 -0.1294
  349MOL0     C45954   6.317   5.779   5.324 -0.0109 -0.1901  0.7398
  349MOL0     C45955   6.275   5.685   5.236 -0.6863  0.6032  0.1619
  349MOL0     C45956   6.284   5.532   5.243  1.4486  0.1109  0.5802
  349MOL0     C45957   6.157   5.466   5.308  0.3017 -0.2976 -0.4779
  349MOL0     C45958   6.117   5.528   5.439 -0.1105 -0.8669  0.2330
  349MOL0     C45959   5.995   5.451   5.504 -0.2197 -0.8294 -0.0165
  349MOL0     O45960   5.895   5.446   5.408  0.0037  0.0789  0.4243
  349MOL0     C45961   5.783   5.371   5.423 -0.0963 -0.4898  0.3798
  349MOL0     C45962   5.692   5.405   5.324  0.1931  0.1671  0.4574
  349MOL0     C45963   5.577   5.326   5.312 -0.4105 -0.7133 -0.3903
  349MOL0     C45964   5.554   5.221   5.400  0.3008  0.1522  0.5215
  349MOL0     C45965   5.428   5.154   5.388  0.6806 -0.1273  0.1063
  349MOL0     O45966   5.328   5.219   5.328  0.2849 -0.6782 -0.6147
  349MOL0     C45967   5.212   5.144   5.311  0.2547 -0.7703  0.1368
  349MOL0     C45968   5.086   5.201   5.349  0.0028  0.0057 -0.1391
  349MOL0     C45969   4.964   5.145   5.313 -0.5623 -0.0315  1.1349
  349MOL0     C45970   4.970   5.031   5.241 -1.7840 -0.3987  1.2214
  349MOL0     O45971   4.851   4.970   5.219  0.8245 -0.2342 -0.8981
  349MOL0     C45972   4.824   4.927   5.088 -0.2388  0.4503 -0.0330
  349MOL0     C45973   4.674   4.923   5.069  0.4024  0.9605 -0.5062
  349MOL0     C45974   4.589   4.823   5.163 -0.1838 -0.7272 -0.0216
  349MOL0     C45975   4.441   4.858   5.152  0.3535 -0.2310  0.2356
  349MOL0     C45976   4.355   4.758   5.225 -1.1714 -0.3798  0.9321
  349MOL0     C45977   4.207   4.772   5.193 -0.6874 -0.9180 -0.3908
  349MOL0     C45978   4.113   4.733   5.309  0.0682  0.4045 -0.6372
  349MOL0     C45979   3.965   4.716   5.263  0.0331  0.7306 -0.2988
  349MOL0    Cl45980   3.885   4.864   5.224 -0.9757  0.0742  0.2155
  349MOL0     C45981   5.090   4.967   5.201  0.5980  0.0403 -0.4455
  349MOL0     C45982   5.207   5.026   5.235  0.3057 -0.4127 -0.6965
  349MOL0     O45983   5.428   5.037   5.425 -0.3491  0.7437 -0.6784
  349MOL0     C45984   5.649   5.186   5.498  0.2985  0.7034 -0.2168
  349MOL0     C45985   5.764   5.259   5.507 -0.0239  0.5160 -0.3475
  349MOL0     N45986   6.199   5.743   5.138  0.2986  0.1946  0.3541
  349MOL0     N45987   6.198   5.867   5.159  0.6261 -0.0754  0.0358
  349MOL0     C45988   7.307   6.374   4.949  0.4046  0.3267 -0.4061
  349MOL0     C45989   7.440   6.398   4.910  0.2135  0.0067 -0.7553
  349MOL0     C45990   7.881   6.468   4.881  0.4121 -0.3673  0.0912
  349MOL0     C45991   7.974   6.391   4.811 -0.2999  0.1710  0.5114
  349MOL0     C45992   8.093   6.443   4.765 -0.6491  0.8624 -0.3884
  349MOL0     C45993   8.122   6.576   4.784  0.8296  0.0587  0.4922
  349MOL0     O45994   8.239   6.631   4.747 -0.1588 -0.8368 -0.0104
  349MOL0     C45995   8.232   6.731   4.633 -0.9823  0.1172  0.3052
  349MOL0     C45996   8.256   6.660   4.502  0.3298 -0.1364  0.2419
  349MOL0     C45997   8.409   6.625   4.488 -0.2678 -0.0101 -0.1184
  349MOL0     C45998   8.447   6.542   4.360  0.1371 -0.3847 -0.3080
  349MOL0     C45999   8.594   6.520   4.367 -0.6049  0.3046  0.7496
  349MOL0     C46000   8.711   6.487   4.376 -0.3708  0.0056 -0.0483
  349MOL0     C46001   8.028   6.658   4.853  0.6526 -0.6752  0.5118
  349MOL0     C46002   7.904   6.607   4.895  0.1870 -0.5725  0.7001
  349MOL0     H46003   7.548   6.471   5.229 -1.8202 -4.5913  2.3377
  349MOL0     H46004   7.330   6.436   5.278 -0.7627 -0.3820 -1.3827
  349MOL0     H46005   7.137   6.114   5.143  2.6401  1.1644  0.6287
  349MOL0     H46006   7.187   6.155   4.985 -0.2802 -1.7748  0.5657
  349MOL0     H46007   6.959   6.118   4.935  4.1491  0.6057 -0.7645
  349MOL0     H46008   6.974   6.292   4.949  4.4774 -0.5736  0.7689
  349MOL0     H46009   6.872   6.281   5.176  2.0029 -0.6418 -0.5487
  349MOL0     H46010   6.907   6.108   5.190  0.1883  0.7418  2.8838
  349MOL0     H46011   6.670   6.239   5.038 -2.8380 -0.9587 -0.5777
  349MOL0     H46012   6.720   6.071   5.024 -1.2585  0.9367 -0.6467
  349MOL0     H46013   6.660   6.195   5.294 -0.7440 -0.1262  0.5096
  349MOL0     H46014   6.684   6.016   5.256  1.8960  0.3202 -1.4606
  349MOL0     H46015   6.489   5.996   5.145 -0.4398  0.8376 -0.7275
  349MOL0     H46016   6.455   6.176   5.152 -1.4100  0.9551  1.1531
  349MOL0     H46017   6.480   5.993   5.395 -2.1337 -1.0867 -1.7828
  349MOL0     H46018   6.425   6.159   5.409  0.0984 -1.4398  1.5283
  349MOL0     H46019   6.238   6.098   5.250  0.2573  0.2178  0.0461
  349MOL0     H46020   6.215   6.044   5.413 -1.6646 -0.0702 -1.3993
  349MOL0     H46021   6.371   5.768   5.417 -1.8172 -2.7525  1.5959
  349MOL0     H46022   6.366   5.487   5.300  0.9832 -1.1575  0.2922
  349MOL0     H46023   6.287   5.491   5.142 -0.1168 -0.1972  0.6373
  349MOL0     H46024   6.169   5.357   5.313 -0.9226 -0.4058  1.2461
  349MOL0     H46025   6.076   5.492   5.238 -0.6174  2.3211  1.3843
  349MOL0     H46026   6.195   5.515   5.514  0.0567  1.6359  0.5883
  349MOL0     H46027   6.098   5.635   5.428 -0.7295 -1.0873 -1.0505
  349MOL0     H46028   5.950   5.510   5.584 -2.1062 -1.2917 -0.6810
  349MOL0     H46029   6.022   5.353   5.544 -1.2542 -0.4414  1.7232
  349MOL0     H46030   5.707   5.483   5.250 -1.0357  1.8612  1.9087
  349MOL0     H46031   5.513   5.356   5.229  0.1704  1.6308 -0.0597
  349MOL0     H46032   5.092   5.290   5.410 -2.5012 -1.1948  2.0583
  349MOL0     H46033   4.870   5.191   5.340 -0.2342  1.8724 -0.6973
  349MOL0     H46034   4.874   4.830   5.081 -2.3476 -0.6030 -1.5992
  349MOL0     H46035   4.857   4.996   5.011 -1.7034 -0.2067 -1.3029
  349MOL0     H46036   4.661   4.900   4.963  2.1597 -0.4444 -0.4728
  349MOL0     H46037   4.641   5.026   5.082 -0.2729  0.7746 -0.7385
  349MOL0     H46038   4.622   4.843   5.265 -1.3199 -0.6230  0.3387
  349MOL0     H46039   4.604   4.717   5.137 -4.2972 -1.5289  0.1475
  349MOL0     H46040   4.416   4.960   5.182 -0.9034 -0.2983 -0.5010
  349MOL0     H46041   4.415   4.850   5.046 -0.0304  1.0434  0.2188
  349MOL0     H46042   4.378   4.769   5.331  0.5199  4.1479  0.3357
  349MOL0     H46043   4.381   4.657   5.192  2.2451  0.9096 -0.9086
  349MOL0     H46044   4.185   4.701   5.113  0.7219 -1.8261 -0.0141
  349MOL0     H46045   4.182   4.872   5.155  0.1011 -0.1403  1.0339
  349MOL0     H46046   4.160   4.642   5.349  3.6535  1.8030 -1.3174
  349MOL0     H46047   4.118   4.810   5.386 -0.3313  0.9287 -1.1216
  349MOL0     H46048   3.917   4.678   5.353  0.8345  0.8993  0.2025
  349MOL0     H46049   3.965   4.649   5.176 -0.1644 -0.6734  0.7529
  349MOL0     H46050   5.083   4.880   5.137  4.2749 -1.4761  0.9293
  349MOL0     H46051   5.306   4.992   5.205 -0.0671  0.2448 -2.8803
  349MOL0     H46052   5.636   5.109   5.573  1.9239  0.3131 -0.3086
  349MOL0     H46053   5.841   5.234   5.579  0.6682 -1.0262 -1.5460
  349MOL0     H46054   7.242   6.333   4.872  1.7350  1.0575 -1.9758
  349MOL0     H46055   7.458   6.380   4.805 -0.6373 -0.9983 -0.7539
  349MOL0     H46056   7.955   6.284   4.806 -0.9423  0.2306  1.5284
  349MOL0     H46057   8.168   6.381   4.717 -2.0272 -1.8773  0.7858
  349MOL0     H46058   8.305   6.811   4.649  0.6350 -1.4122  0.8741
  349MOL0     H46059   8.134   6.780   4.629 -2.7591 -3.1190  0.4169
  349MOL0     H46060   8.206   6.563   4.492  2.5044 -1.3725  0.7473
  349MOL0     H46061   8.210   6.714   4.419  1.6060  0.7706  0.1029
  349MOL0     H46062   8.437   6.574   4.580  1.2575  1.6764  0.4247
  349MOL0     H46063   8.475   6.712   4.477 -0.9505  0.3877 -1.3863
  349MOL0     H46064   8.399   6.444   4.352  1.7046 -1.1574 -0.6128
  349MOL0     H46065   8.423   6.592   4.266 -0.3428  0.4707  0.2573
  349MOL0     H46066   8.804   6.441   4.403  0.4750  1.9486  0.5039
  349MOL0     H46067   8.067   6.757   4.877  3.6317 -2.0476  1.9081
  349MOL0     H46068   7.832   6.663   4.953  0.8318  1.1695 -0.1078
  350MOL0     O46069   5.844   3.637   1.634 -0.8374  0.2694  0.2487
  350MOL0     C46070   5.931   3.717   1.605  0.5739  0.3059 -0.2993
  350MOL0     O46071   5.919   3.819   1.515  0.1487  0.3728 -0.3722
  350MOL0     C46072   5.788   3.826   1.457  1.1346  0.1904 -0.2402
  350MOL0     C46073   5.678   3.884   1.524  0.4866 -0.0742  0.1380
  350MOL0     C46074   5.552   3.882   1.476  0.0466 -0.4464 -0.0297
  350MOL0     C46075   5.533   3.842   1.344  0.5921 -0.0641 -0.1068
  350MOL0     O46076   5.418   3.864   1.273 -0.6496  0.4377  0.6132
  350MOL0     C46077   5.294   3.866   1.349  0.5886 -0.4781 -0.4344
  350MOL0     C46078   5.262   3.721   1.397 -0.2586  0.5467 -0.3553
  350MOL0     C46079   5.145   3.740   1.492  0.3736 -0.4249 -0.0536
  350MOL0     C46080   5.073   3.605   1.525 -0.4026 -0.0138  0.5316
  350MOL0     C46081   4.945   3.621   1.608  0.0062  0.2514  0.5163
  350MOL0     C46082   4.883   3.486   1.630 -0.0638 -0.0312 -0.2543
  350MOL0     C46083   4.787   3.490   1.737  0.7976 -1.1653 -0.6105
  350MOL0     C46084   4.755   3.352   1.794 -0.2952  0.9627 -0.1554
  350MOL0     N46085   4.627   3.345   1.872 -0.2181 -0.5910 -0.7638
  350MOL0     C46086   4.516   3.394   1.821  0.3341  0.3261 -0.3840
  350MOL0     C46087   4.424   3.364   1.919 -0.3096 -0.0703  0.5218
  350MOL0     C46088   4.281   3.389   1.888 -0.3510  1.0485  0.3137
  350MOL0     C46089   4.190   3.308   1.979 -0.6889  0.7861 -0.9728
  350MOL0     C46090   4.047   3.358   1.969 -0.0744 -0.5911  0.1653
  350MOL0     C46091   3.967   3.344   1.845  0.1122 -0.3320  0.1514
  350MOL0     O46092   3.820   3.359   1.877 -0.3212 -0.3187 -0.0749
  350MOL0     C46093   3.720   3.362   1.777 -0.4232 -0.3839 -0.8806
  350MOL0     C46094   3.590   3.408   1.816 -0.8958 -0.1333  0.1348
  350MOL0     C46095   3.485   3.418   1.724  0.2876 -0.0366  0.0624
  350MOL0     C46096   3.504   3.384   1.590 -0.5215  1.0032 -0.1721
  350MOL0     C46097   3.391   3.406   1.503 -0.0830  0.6415  0.6455
  350MOL0     O46098   3.420   3.406   1.373 -0.0742 -0.8074  0.0048
  350MOL0     C46099   3.325   3.426   1.274 -0.0491 -0.5258 -0.4612
  350MOL0     C46100   3.360   3.485   1.157  0.3740 -0.0612  0.1913
  350MOL0     C46101   3.272   3.482   1.042 -0.6841 -0.3369 -0.0702
  350MOL0     C46102   3.140   3.426   1.053 -0.0572 -0.2354 -1.1573
  350MOL0     O46103   3.071   3.425   0.937 -1.0748 -0.1912 -0.2104
  350MOL0     C46104   2.937   3.373   0.944  0.5895 -0.4295  0.9076
  350MOL0     C46105   2.865   3.381   0.803 -0.1235  0.1482  0.2805
  350MOL0     C46106   2.748   3.285   0.785  0.7307 -0.3365  0.8463
  350MOL0     C46107   2.622   3.359   0.833 -0.4657  0.3260  0.5580
  350MOL0     C46108   2.508   3.268   0.855  0.6916 -0.4778  0.1416
  350MOL0     C46109   2.366   3.323   0.866 -0.4695  0.3603  0.4410
  350MOL0     C46110   2.269   3.246   0.958  0.3970  0.0157  0.1635
  350MOL0     C46111   2.209   3.119   0.904  0.2668 -0.1839  0.4785
  350MOL0    Cl46112   2.095   3.157   0.779  0.5805  0.4910  0.2438
  350MOL0     C46113   3.094   3.381   1.178  0.0853 -0.5564 -0.8496
  350MOL0     C46114   3.185   3.381   1.284 -0.4931  0.0755 -0.4633
  350MOL0     O46115   3.284   3.414   1.552  0.9704 -0.2688  0.6684
  350MOL0     C46116   3.626   3.329   1.550  0.8239  0.7004 -1.2282
  350MOL0     C46117   3.736   3.317   1.643  0.6566  0.5144  0.0212
  350MOL0     N46118   4.488   3.324   2.034 -0.6992  0.0049 -0.4574
  350MOL0     N46119   4.614   3.308   1.998  0.3781 -0.9324  0.5395
  350MOL0     C46120   5.642   3.798   1.265 -0.1442 -0.6433 -0.0854
  350MOL0     C46121   5.768   3.782   1.327  0.2511  0.7548  0.7463
  350MOL0     C46122   6.047   3.725   1.694  1.2250  0.4765  0.2180
  350MOL0     C46123   6.121   3.842   1.714 -0.3626 -0.0706  0.0101
  350MOL0     C46124   6.242   3.844   1.787 -0.2369  0.6172 -0.0328
  350MOL0     C46125   6.269   3.731   1.860  0.5913 -0.0905  0.1914
  350MOL0     O46126   6.396   3.739   1.921  0.0444  0.3903 -0.0494
  350MOL0     C46127   6.411   3.650   2.030 -0.0274 -0.3308  0.6554
  350MOL0     C46128   6.517   3.707   2.126  0.5395  0.1532 -0.3838
  350MOL0     C46129   6.651   3.749   2.053 -0.2196 -1.3780  0.6503
  350MOL0     C46130   6.704   3.630   1.965 -0.6053  0.4083  0.0596
  350MOL0     C46131   6.773   3.526   2.048  0.4492  0.4119 -0.4951
  350MOL0     C46132   6.834   3.444   2.111  0.7586  0.5801 -0.2813
  350MOL0     C46133   6.188   3.613   1.847  0.3514  0.2222 -0.0618
  350MOL0     C46134   6.075   3.612   1.770 -1.0080 -0.1188 -0.5579
  350MOL0     H46135   5.691   3.921   1.625 -3.0353 -2.5726  1.7066
  350MOL0     H46136   5.486   3.934   1.545  1.2604  0.8822  0.1922
  350MOL0     H46137   5.223   3.898   1.271  0.4620 -2.3610 -1.1447
  350MOL0     H46138   5.303   3.938   1.431  1.6659  0.9113 -1.7167
  350MOL0     H46139   5.343   3.676   1.455 -1.1234 -2.2842 -1.1638
  350MOL0     H46140   5.228   3.661   1.312  0.9193 -2.4149  1.1183
  350MOL0     H46141   5.067   3.800   1.444  2.2710  0.4832 -2.1761
  350MOL0     H46142   5.177   3.784   1.586  3.4986  1.4072 -1.8282
  350MOL0     H46143   5.041   3.551   1.436 -1.3344  1.4279 -0.0378
  350MOL0     H46144   5.142   3.542   1.582 -0.2601 -1.3683 -1.0639
  350MOL0     H46145   4.875   3.679   1.547  0.5819 -0.3610 -0.7541
  350MOL0     H46146   4.957   3.664   1.708 -2.5362  0.6135  0.7303
  350MOL0     H46147   4.953   3.409   1.666  0.5122  0.6568  0.1221
  350MOL0     H46148   4.841   3.442   1.539 -0.8009 -1.5399  0.7708
  350MOL0     H46149   4.820   3.549   1.823  2.7284 -0.3180 -1.8733
  350MOL0     H46150   4.698   3.543   1.704  0.5614 -0.4109  1.0887
  350MOL0     H46151   4.832   3.325   1.867 -0.0760  2.6870  0.2972
  350MOL0     H46152   4.760   3.271   1.720 -1.7023  0.8808 -0.1764
  350MOL0     H46153   4.497   3.431   1.721 -0.0041  0.7053 -0.1813
  350MOL0     H46154   4.261   3.356   1.785  2.3936  0.4664 -0.1133
  350MOL0     H46155   4.258   3.496   1.893 -2.7879  0.5464  0.8980
  350MOL0     H46156   4.226   3.325   2.081 -2.8756  0.0814 -0.0342
  350MOL0     H46157   4.202   3.202   1.955  1.0013  0.7716 -0.2436
  350MOL0     H46158   3.997   3.291   2.039 -0.7123 -2.7199 -2.2091
  350MOL0     H46159   4.037   3.463   1.998 -2.3946 -0.9023  0.7294
  350MOL0     H46160   3.985   3.247   1.798  0.0663  0.4117 -1.4680
  350MOL0     H46161   3.999   3.411   1.765 -1.6294  0.2100 -0.1259
  350MOL0     H46162   3.589   3.439   1.920  0.4318 -2.8406  1.0631
  350MOL0     H46163   3.395   3.464   1.765 -0.8597 -0.8572 -1.4395
  350MOL0     H46164   3.457   3.532   1.148  0.6425 -0.6096  0.1401
  350MOL0     H46165   3.304   3.530   0.950 -1.7997  1.2739  0.3481
  350MOL0     H46166   2.885   3.433   1.019  0.2061 -1.7057  1.6851
  350MOL0     H46167   2.952   3.268   0.968 -0.4032 -1.1404 -1.3349
  350MOL0     H46168   2.942   3.365   0.727  1.1240  1.5119  1.2034
  350MOL0     H46169   2.833   3.486   0.797  0.8261  0.5040  1.0838
  350MOL0     H46170   2.766   3.191   0.839  1.4653  0.3774  1.8732
  350MOL0     H46171   2.732   3.260   0.680  0.8906  3.7027 -0.3069
  350MOL0     H46172   2.637   3.414   0.927 -3.7752  0.5542  1.0869
  350MOL0     H46173   2.595   3.430   0.754 -0.9759 -1.0093 -0.5012
  350MOL0     H46174   2.518   3.222   0.954 -0.1221 -0.5646  0.1925
  350MOL0     H46175   2.502   3.187   0.780 -0.9753 -0.8207  0.5913
  350MOL0     H46176   2.313   3.330   0.770  0.1873 -0.4642  0.0084
  350MOL0     H46177   2.362   3.425   0.906 -0.7743  0.2609  0.6678
  350MOL0     H46178   2.324   3.225   1.050  2.5069  2.2434 -0.4925
  350MOL0     H46179   2.187   3.312   0.989  1.3372  1.4026 -0.1777
  350MOL0     H46180   2.151   3.073   0.983 -2.5673  0.2963 -1.1780
  350MOL0     H46181   2.293   3.055   0.877  0.0217 -0.9314  1.4499
  350MOL0     H46182   2.992   3.351   1.199  0.1601 -0.6041 -0.5439
  350MOL0     H46183   3.158   3.337   1.380 -0.1029 -0.5134 -0.6188
  350MOL0     H46184   3.631   3.279   1.454 -0.8722  0.1246 -1.0475
  350MOL0     H46185   3.834   3.279   1.615  0.2277 -0.1739 -0.5967
  350MOL0     H46186   5.624   3.763   1.164  0.5515  0.0762 -0.4695
  350MOL0     H46187   5.841   3.731   1.265 -1.0720 -1.3259  0.7623
  350MOL0     H46188   6.099   3.932   1.657 -0.4414  1.0204  1.6800
  350MOL0     H46189   6.315   3.925   1.791 -0.8193  1.3192 -2.3474
  350MOL0     H46190   6.424   3.545   2.000  1.6089 -0.0619  0.2832
  350MOL0     H46191   6.321   3.650   2.091 -1.5389  2.4112 -1.3388
  350MOL0     H46192   6.478   3.800   2.167  0.5532 -0.2457  0.5435
  350MOL0     H46193   6.541   3.641   2.210  1.7112  2.1932  0.9702
  350MOL0     H46194   6.727   3.788   2.123 -0.6363  0.1033  0.3247
  350MOL0     H46195   6.626   3.834   1.988  0.8790 -1.1378  0.5131
  350MOL0     H46196   6.624   3.586   1.905 -0.1737  1.9783 -1.7683
  350MOL0     H46197   6.778   3.663   1.892 -0.7762  0.3815 -0.1264
  350MOL0     H46198   6.894   3.379   2.171  2.4430  1.6470 -0.7580
  350MOL0     H46199   6.220   3.517   1.884  1.2238  1.0628  1.4806
  350MOL0     H46200   6.010   3.526   1.758 -2.4413  0.8505 -0.0292
  351MOL0     O46201   9.602   1.483   6.687  0.1681  0.0596  0.2345
  351MOL0     C46202   9.683   1.432   6.761  0.2179  0.1518 -0.3040
  351MOL0     O46203   9.679   1.304   6.796 -0.5443 -0.1684  0.1678
  351MOL0     C46204   9.594   1.221   6.725 -0.0627 -0.3587 -0.6385
  351MOL0     C46205   9.455   1.218   6.753 -0.0380 -0.3883 -1.4038
  351MOL0     C46206   9.381   1.128   6.686  0.3088  0.3450 -0.0044
  351MOL0     C46207   9.427   1.040   6.590 -0.6336 -0.5143 -0.5250
  351MOL0     O46208   9.337   0.950   6.541 -0.5868 -0.2576 -0.0653
  351MOL0     C46209   9.370   0.813   6.535 -0.0837  1.1510  0.0679
  351MOL0     C46210   9.322   0.731   6.653 -0.7443  0.2647 -0.0772
  351MOL0     C46211   9.392   0.743   6.785 -0.9738  0.0292 -0.5289
  351MOL0     C46212   9.549   0.739   6.772 -0.1205 -0.4640 -0.7391
  351MOL0     C46213   9.612   0.763   6.918  0.4801 -0.5114  0.2857
  351MOL0     C46214   9.595   0.909   6.975 -0.0970  0.7150 -0.1944
  351MOL0     C46215   9.646   0.910   7.125 -0.0242  0.0977  0.1249
  351MOL0     C46216   9.680   1.046   7.162 -0.9747 -0.4364  0.3064
  351MOL0     N46217   9.685   1.061   7.304 -0.3032  0.0374 -0.0646
  351MOL0     C46218   9.583   1.047   7.399 -0.1744  0.7460 -0.6483
  351MOL0     C46219   9.632   1.095   7.514  0.5899 -0.4170  0.8213
  351MOL0     C46220   9.552   1.112   7.645  0.5196  0.8792  0.0665
  351MOL0     C46221   9.545   0.981   7.725 -0.2247 -0.3617  0.2652
  351MOL0     C46222   9.693   0.949   7.765 -0.1351  0.4022  0.8378
  351MOL0     C46223   9.710   0.820   7.844  0.0598  0.0647 -0.3081
  351MOL0     O46224   9.674   0.703   7.766  0.2285  0.0590  0.3386
  351MOL0     C46225   9.541   0.662   7.772 -0.9470  0.9379  0.1946
  351MOL0     C46226   9.511   0.553   7.692 -0.2131  0.5925  0.2487
  351MOL0     C46227   9.381   0.501   7.686  0.4612  0.1316  0.4171
  351MOL0     C46228   9.274   0.557   7.754 -1.0433  0.3686  0.4767
  351MOL0     C46229   9.134   0.521   7.727 -0.1345  0.2050  0.8613
  351MOL0     O46230   9.107   0.422   7.636 -0.4198 -0.2999  0.0185
  351MOL0     C46231   8.976   0.387   7.613 -0.3421 -0.3690  0.2907
  351MOL0     C46232   8.901   0.306   7.694  0.5476  0.4230 -0.2059
  351MOL0     C46233   8.762   0.268   7.667  0.1216  0.1922  0.4288
  351MOL0     C46234   8.700   0.326   7.552 -0.3167  0.1501 -0.1238
  351MOL0     O46235   8.573   0.301   7.508 -1.1848  0.5389  0.0290
  351MOL0     C46236   8.480   0.244   7.595 -0.5577 -0.0402 -0.1851
  351MOL0     C46237   8.333   0.260   7.547 -0.8676  0.4632 -0.4131
  351MOL0     C46238   8.228   0.209   7.641  0.1703 -0.2971 -0.2496
  351MOL0     C46239   8.083   0.234   7.588 -0.2933 -0.8594  0.5498
  351MOL0     C46240   8.038   0.108   7.521 -0.2477  0.2255  0.8985
  351MOL0     C46241   7.903   0.122   7.443  0.3200 -0.0639  0.5119
  351MOL0     C46242   7.841  -0.011   7.421  0.1409  0.5455  0.9723
  351MOL0     C46243   7.740  -0.008   7.313  0.9364 -0.0291 -0.4225
  351MOL0    Cl46244   7.648  -0.159   7.295  0.1683 -0.4673  0.3280
  351MOL0     C46245   8.771   0.409   7.467 -0.1859  0.1221 -0.4113
  351MOL0     C46246   8.908   0.427   7.493 -0.6247 -0.1905 -0.4077
  351MOL0     O46247   9.049   0.565   7.803  0.6740 -0.1622  0.1223
  351MOL0     C46248   9.302   0.679   7.821 -0.0602 -0.6008 -0.7117
  351MOL0     C46249   9.430   0.721   7.839  0.1273 -0.4706 -0.7793
  351MOL0     N46250   9.766   1.129   7.497  0.4393 -0.3882  0.2158
  351MOL0     N46251   9.783   1.126   7.371  0.0345  0.0670  0.5174
  351MOL0     C46252   9.561   1.055   6.549  0.2911 -0.6520 -0.4281
  351MOL0     C46253   9.641   1.150   6.613  1.1489  0.4673 -0.2664
  351MOL0     C46254   9.786   1.516   6.815  0.4445 -1.4735 -0.8827
  351MOL0     C46255   9.873   1.481   6.921  0.3707 -1.3520 -0.6030
  351MOL0     C46256   9.958   1.579   6.980  0.1776 -0.1705 -0.1100
  351MOL0     C46257   9.960   1.708   6.940  0.2354  0.4177  0.3375
  351MOL0     O46258  10.059   1.785   6.998 -0.4097 -0.7675 -0.7214
  351MOL0     C46259  10.028   1.925   7.003 -0.4399 -0.1340  0.3829
  351MOL0     C46260  10.117   1.983   7.113 -0.2140 -0.7670  0.3314
  351MOL0     C46261  10.120   2.138   7.099  0.5214 -0.7377  0.2457
  351MOL0     C46262  10.000   2.211   7.170 -1.4692  0.5588 -0.1723
  351MOL0     C46263  10.013   2.349   7.164 -0.1866 -1.1604  0.0014
  351MOL0     C46264  10.027   2.471   7.179 -0.0806 -0.1249 -0.8904
  351MOL0     C46265   9.870   1.749   6.838  0.2348  0.3180 -0.4396
  351MOL0     C46266   9.781   1.656   6.783 -0.1793 -0.0711  0.1570
  351MOL0     H46267   9.412   1.291   6.821  2.2630  0.8045 -1.1695
  351MOL0     H46268   9.280   1.108   6.720  0.4165 -1.3328 -0.6062
  351MOL0     H46269   9.476   0.795   6.516 -0.6323 -1.4658 -0.9563
  351MOL0     H46270   9.318   0.774   6.447  0.6183 -1.4647  0.7358
  351MOL0     H46271   9.329   0.626   6.621 -2.4260 -0.0831  0.6010
  351MOL0     H46272   9.218   0.761   6.670 -0.7323 -0.6058  1.8110
  351MOL0     H46273   9.369   0.669   6.862  0.6741  1.3557  1.3301
  351MOL0     H46274   9.371   0.839   6.832  1.2445  1.4536 -2.1992
  351MOL0     H46275   9.584   0.646   6.727 -0.0562 -2.0063  2.2364
  351MOL0     H46276   9.586   0.818   6.706  2.7448  0.3664  1.6472
  351MOL0     H46277   9.717   0.733   6.921  0.5766 -0.1504  0.8405
  351MOL0     H46278   9.554   0.706   6.992  0.3991  0.3816  0.9306
  351MOL0     H46279   9.488   0.928   6.971 -0.2774 -0.0250  0.8222
  351MOL0     H46280   9.641   0.983   6.909  0.7418  0.8663  0.5413
  351MOL0     H46281   9.574   0.871   7.198 -1.3259  2.6455  0.3273
  351MOL0     H46282   9.738   0.852   7.137 -0.1802 -0.0641  0.5844
  351MOL0     H46283   9.615   1.119   7.111 -0.4475 -0.2837 -0.1580
  351MOL0     H46284   9.780   1.068   7.125  0.1378 -0.0476  3.2859
  351MOL0     H46285   9.481   1.010   7.393  1.0481 -3.0973 -0.2146
  351MOL0     H46286   9.449   1.143   7.624  0.5567 -0.6333 -2.8612
  351MOL0     H46287   9.598   1.187   7.709  1.2011 -1.0137  1.9402
  351MOL0     H46288   9.502   0.909   7.655  0.9713  2.1318 -3.3550
  351MOL0     H46289   9.486   1.005   7.814 -1.9100 -2.5284 -0.1699
  351MOL0     H46290   9.765   0.954   7.683 -0.1699 -0.1141  0.7735
  351MOL0     H46291   9.720   1.037   7.825 -1.5528  1.3381  0.1684
  351MOL0     H46292   9.659   0.817   7.941  1.5986 -4.5928  0.5956
  351MOL0     H46293   9.816   0.808   7.868 -0.2339 -2.7751 -0.1166
  351MOL0     H46294   9.589   0.499   7.640 -2.2408 -4.5570  1.9848
  351MOL0     H46295   9.365   0.424   7.611 -0.4363  3.3134 -2.9810
  351MOL0     H46296   8.956   0.271   7.780 -0.2722 -3.1112 -0.9714
  351MOL0     H46297   8.716   0.198   7.736  0.3719  0.9745  1.4172
  351MOL0     H46298   8.491   0.276   7.698 -0.3337  0.5410 -0.3894
  351MOL0     H46299   8.502   0.137   7.582  0.3400 -0.1142  1.6741
  351MOL0     H46300   8.328   0.219   7.445  2.9180 -0.1494 -0.4935
  351MOL0     H46301   8.319   0.369   7.544 -0.8183  0.4951  0.3810
  351MOL0     H46302   8.239   0.268   7.733  1.8005  3.2655 -2.5227
  351MOL0     H46303   8.241   0.104   7.669  3.4895  0.1168  0.1576
  351MOL0     H46304   8.013   0.259   7.668 -2.1949  0.0393 -1.3025
  351MOL0     H46305   8.083   0.306   7.506 -2.3468 -2.7879 -1.2727
  351MOL0     H46306   8.029   0.028   7.594 -2.0849  0.2813  0.7886
  351MOL0     H46307   8.124   0.081   7.460 -0.4954 -0.7995  0.9843
  351MOL0     H46308   7.912   0.170   7.345 -3.4712 -1.1394 -0.5102
  351MOL0     H46309   7.831   0.183   7.499  1.0975  1.4988 -0.1227
  351MOL0     H46310   7.921  -0.082   7.398  0.2730  1.4069 -1.5425
  351MOL0     H46311   7.801  -0.043   7.517  2.4678  1.2092  2.2407
  351MOL0     H46312   7.792  -0.012   7.217  0.3542 -1.1408 -0.7016
  351MOL0     H46313   7.676   0.081   7.311  0.7164 -0.1838 -0.2408
  351MOL0     H46314   8.724   0.450   7.378 -0.7706 -0.4417 -0.3694
  351MOL0     H46315   8.966   0.488   7.424  0.8994  0.3847  1.3005
  351MOL0     H46316   9.229   0.737   7.875  3.1386  2.4111  0.7613
  351MOL0     H46317   9.439   0.810   7.900  2.5453 -1.5185  0.5446
  351MOL0     H46318   9.608   0.991   6.475  3.3215  0.6094  0.2799
  351MOL0     H46319   9.743   1.166   6.577  1.3381 -0.7771 -0.3293
  351MOL0     H46320   9.861   1.385   6.970 -2.9972 -0.9122 -0.3324
  351MOL0     H46321  10.025   1.558   7.063 -0.1935  1.0432  0.5061
  351MOL0     H46322   9.923   1.953   7.021 -0.0760  0.4416  1.7241
  351MOL0     H46323  10.059   1.960   6.904  0.7486 -0.6480  0.5653
  351MOL0     H46324  10.091   1.953   7.214  0.9494 -0.3250  0.7764
  351MOL0     H46325  10.219   1.944   7.108  0.0336 -0.0928 -0.1249
  351MOL0     H46326  10.121   2.170   6.994  1.0960  4.1215  1.4933
  351MOL0     H46327  10.205   2.176   7.155 -0.0467  1.4256 -0.2714
  351MOL0     H46328   9.906   2.175   7.126 -1.4975  1.1019 -0.5716
  351MOL0     H46329   9.987   2.188   7.276  1.4174 -0.6251  0.0233
  351MOL0     H46330  10.042   2.577   7.189  0.4728 -0.3489  1.0101
  351MOL0     H46331   9.868   1.850   6.800  2.5362 -0.0631 -1.7408
  351MOL0     H46332   9.718   1.697   6.705 -0.4579  0.9611  0.9062
  352MOL0     O46333  11.102   6.224   5.857 -0.1692  0.5341 -0.4053
  352MOL0     C46334  11.177   6.133   5.894  0.4264  0.1758 -0.5870
  352MOL0     O46335  11.135   6.001   5.925 -0.3128  0.1652  0.1406
  352MOL0     C46336  11.012   5.946   5.907  0.2406 -0.4780 -0.2444
  352MOL0     C46337  10.932   5.980   5.797  0.6455  0.1424 -0.0182
  352MOL0     C46338  10.800   5.944   5.785 -0.4933 -0.1399  1.1058
  352MOL0     C46339  10.748   5.863   5.880  0.1664  0.0152  0.5545
  352MOL0     O46340  10.614   5.849   5.875  0.5572 -0.3337  0.0709
  352MOL0     C46341  10.557   5.720   5.837 -0.6654  0.1513 -0.2849
  352MOL0     C46342  10.413   5.735   5.827  0.2772 -0.8130 -0.3302
  352MOL0     C46343  10.340   5.604   5.808 -0.1814  0.1458  0.3267
  352MOL0     C46344  10.189   5.630   5.824 -0.6000  0.1020 -0.5846
  352MOL0     C46345  10.114   5.498   5.828 -0.4926 -0.0516  0.2634
  352MOL0     C46346   9.973   5.528   5.856 -0.1183  0.2334 -0.7226
  352MOL0     C46347   9.870   5.404   5.880  0.7553  1.1540  0.4347
  352MOL0     C46348   9.858   5.339   5.746  0.1638  0.3753 -0.0724
  352MOL0     N46349   9.737   5.265   5.726 -0.1285 -0.4139  0.8986
  352MOL0     C46350   9.719   5.138   5.776  0.9407  0.7450 -0.0455
  352MOL0     C46351   9.597   5.097   5.727 -0.3625 -0.6576  0.8364
  352MOL0     C46352   9.530   4.978   5.746  0.2460  0.8766  0.0359
  352MOL0     C46353   9.374   4.985   5.747 -0.7776  0.1949 -0.2626
  352MOL0     C46354   9.284   4.861   5.763 -0.0294  0.1258 -0.2747
  352MOL0     C46355   9.131   4.882   5.754 -0.0841  0.0550 -0.7999
  352MOL0     O46356   9.096   4.916   5.618 -0.6798  0.1909  0.6419
  352MOL0     C46357   8.963   4.922   5.589  0.3423  0.0819  1.0028
  352MOL0     C46358   8.854   4.884   5.674 -0.7125 -1.1958  0.6330
  352MOL0     C46359   8.725   4.899   5.620 -0.1726  0.1885 -0.1153
  352MOL0     C46360   8.699   4.940   5.487  0.3885  0.5172 -0.3838
  352MOL0     C46361   8.564   4.918   5.432  0.2079 -0.1954 -0.3483
  352MOL0     O46362   8.530   4.962   5.309  0.4455  0.3313  0.5282
  352MOL0     C46363   8.414   4.916   5.251 -0.6615 -0.5613 -0.3119
  352MOL0     C46364   8.380   4.779   5.237  0.3316  0.2754 -1.5779
  352MOL0     C46365   8.261   4.742   5.177  0.6726  0.3356  0.0832
  352MOL0     C46366   8.170   4.834   5.122 -0.2337  0.7302  0.3199
  352MOL0     O46367   8.060   4.793   5.055  0.1036 -0.3659  0.6177
  352MOL0     C46368   7.951   4.739   5.139  0.5399 -0.5270 -0.7353
  352MOL0     C46369   7.848   4.683   5.039 -0.3976 -0.3581 -0.0681
  352MOL0     C46370   7.896   4.560   4.951  0.3709 -0.0576 -0.7133
  352MOL0     C46371   7.895   4.429   5.039  0.0749 -0.2243  0.1005
  352MOL0     C46372   7.999   4.336   4.982 -0.6940  0.2282  0.3236
  352MOL0     C46373   8.018   4.211   5.064  0.1413  0.0435  0.9534
  352MOL0     C46374   7.905   4.104   5.036  0.1231 -0.6678  0.0648
  352MOL0     C46375   7.924   3.992   5.135  0.5185  0.2525  0.4767
  352MOL0    Cl46376   7.787   3.878   5.106 -0.2469 -0.1263  0.1384
  352MOL0     C46377   8.202   4.974   5.130 -0.5386  0.2776 -0.0360
  352MOL0     C46378   8.323   5.013   5.194  0.3483 -0.5360 -0.5836
  352MOL0     O46379   8.487   4.854   5.503 -0.7286  0.6686 -0.2455
  352MOL0     C46380   8.812   4.983   5.406  0.4346  0.5114  0.4826
  352MOL0     C46381   8.944   4.969   5.455  0.0823  0.7653 -0.8577
  352MOL0     N46382   9.554   5.199   5.647 -0.2273  0.1097  0.3729
  352MOL0     N46383   9.627   5.301   5.660  1.4228 -0.7761 -0.1298
  352MOL0     C46384  10.823   5.827   5.994  0.3651 -0.0752  0.2983
  352MOL0     C46385  10.950   5.870   6.012  0.3506  0.0225  0.1416
  352MOL0     C46386  11.311   6.169   5.931  0.5538  0.4263 -0.3589
  352MOL0     C46387  11.378   6.271   5.864 -0.5557 -0.1626  0.1363
  352MOL0     C46388  11.507   6.316   5.906 -0.0675 -0.0531 -0.6647
  352MOL0     C46389  11.573   6.246   6.010 -0.3582  0.5434  0.0979
  352MOL0     O46390  11.696   6.286   6.060 -0.7954 -0.3242  0.3982
  352MOL0     C46391  11.771   6.206   6.157 -0.5033 -0.3113  0.4111
  352MOL0     C46392  11.917   6.253   6.163 -0.6642 -0.4484 -0.5695
  352MOL0     C46393  11.982   6.273   6.018  0.6568  0.2920 -0.5682
  352MOL0     C46394  12.125   6.310   6.018 -0.0014 -0.5126  0.6917
  352MOL0     C46395  12.169   6.332   5.885  0.7674  1.2386  0.3791
  352MOL0     C46396  12.217   6.361   5.775  0.4994  0.2733  0.0259
  352MOL0     C46397  11.509   6.140   6.076  0.1709  0.8443  0.1671
  352MOL0     C46398  11.380   6.103   6.034 -0.5116 -0.3399 -0.5255
  352MOL0     H46399  10.970   6.049   5.723  0.1843 -0.4395 -0.8199
  352MOL0     H46400  10.738   5.988   5.707  0.5212  0.5275  0.6579
  352MOL0     H46401  10.581   5.641   5.909  2.1937 -0.9440 -2.2552
  352MOL0     H46402  10.593   5.685   5.740  0.9625 -1.8500  0.9443
  352MOL0     H46403  10.400   5.807   5.746  5.9212  1.6213  0.4368
  352MOL0     H46404  10.372   5.782   5.916  2.1650 -0.2088  0.2727
  352MOL0     H46405  10.373   5.527   5.877 -0.8933 -3.2796 -2.8412
  352MOL0     H46406  10.362   5.558   5.711 -3.4451  0.2332 -0.5845
  352MOL0     H46407  10.174   5.684   5.918 -2.5846  1.2909 -1.5178
  352MOL0     H46408  10.157   5.688   5.737  0.2739  0.0347 -0.9555
  352MOL0     H46409  10.153   5.436   5.909  0.5613 -1.3174 -1.1511
  352MOL0     H46410  10.120   5.454   5.728 -4.6098  0.1260 -0.2455
  352MOL0     H46411   9.933   5.582   5.770  0.4503  1.2378 -0.3704
  352MOL0     H46412   9.972   5.599   5.940 -0.1340 -2.3875  1.6498
  352MOL0     H46413   9.910   5.338   5.958  0.6945 -0.4614 -0.8627
  352MOL0     H46414   9.772   5.439   5.914  0.4318  1.4080 -0.7098
  352MOL0     H46415   9.941   5.276   5.712 -2.0042 -1.8838 -1.5882
  352MOL0     H46416   9.847   5.427   5.682  1.1123  0.9090  0.4784
  352MOL0     H46417   9.783   5.079   5.841 -0.2962 -0.9017 -0.2422
  352MOL0     H46418   9.574   4.942   5.840  0.8713  2.9210  0.5753
  352MOL0     H46419   9.557   4.905   5.669 -0.7568 -0.3536  0.8121
  352MOL0     H46420   9.341   5.025   5.651 -0.0126  0.2901 -0.4902
  352MOL0     H46421   9.346   5.056   5.826  0.5402  1.8810 -1.2499
  352MOL0     H46422   9.313   4.785   5.690 -1.1504  0.9064 -1.5747
  352MOL0     H46423   9.306   4.815   5.860 -0.2455 -0.4645 -0.5014
  352MOL0     H46424   9.106   4.962   5.825  3.1272  0.0409  0.4922
  352MOL0     H46425   9.087   4.786   5.781 -0.3413 -0.2500 -2.2206
  352MOL0     H46426   8.875   4.843   5.772  0.2346 -1.4202  0.3524
  352MOL0     H46427   8.640   4.884   5.685 -0.7856 -2.6392 -1.4103
  352MOL0     H46428   8.443   4.702   5.281  0.3230  1.3918  0.5007
  352MOL0     H46429   8.231   4.637   5.177  0.9429  0.2371  1.3409
  352MOL0     H46430   7.908   4.805   5.216  0.9020 -3.1213  1.8743
  352MOL0     H46431   7.989   4.656   5.200 -2.1582 -0.2138  1.5781
  352MOL0     H46432   7.830   4.764   4.967  0.6101  0.0165  0.0897
  352MOL0     H46433   7.755   4.648   5.083 -0.3527 -2.7385 -1.6863
  352MOL0     H46434   7.994   4.576   4.905 -0.4248  0.7458 -2.2123
  352MOL0     H46435   7.823   4.538   4.872  0.7911  0.3205 -1.2144
  352MOL0     H46436   7.923   4.458   5.141  1.7661  2.5183 -1.0221
  352MOL0     H46437   7.799   4.379   5.026  1.0903 -1.6481 -2.8762
  352MOL0     H46438   8.091   4.395   4.988  0.9427 -2.1214 -0.5395
  352MOL0     H46439   7.969   4.314   4.879 -4.1957 -0.9187  1.4347
  352MOL0     H46440   8.000   4.234   5.169  0.2678 -1.5563  1.3600
  352MOL0     H46441   8.123   4.185   5.043  0.1117  1.0013 -0.4763
  352MOL0     H46442   7.804   4.145   5.049  1.0335  1.1233  2.3344
  352MOL0     H46443   7.926   4.073   4.933  1.4299 -2.7395  0.8926
  352MOL0     H46444   7.904   4.035   5.234  0.6857  0.6481  0.3401
  352MOL0     H46445   8.015   3.932   5.126  0.6010  0.2037  1.5100
  352MOL0     H46446   8.142   5.047   5.076  1.4935  3.4466  1.6621
  352MOL0     H46447   8.350   5.116   5.212  1.6702 -0.9903  0.1386
  352MOL0     H46448   8.806   5.000   5.299  0.6338 -1.2460  0.1659
  352MOL0     H46449   9.030   4.996   5.395 -0.1716 -2.9190 -3.1789
  352MOL0     H46450  10.783   5.771   6.079 -0.6638  3.2048  2.1366
  352MOL0     H46451  10.999   5.830   6.101 -1.3484  2.4586  2.3201
  352MOL0     H46452  11.341   6.310   5.770  0.1610 -1.2768 -0.6336
  352MOL0     H46453  11.544   6.411   5.867 -2.7159  2.2175  1.8877
  352MOL0     H46454  11.774   6.103   6.121 -1.6661 -0.4088  0.5374
  352MOL0     H46455  11.725   6.216   6.256 -0.1565 -1.5585  0.7180
  352MOL0     H46456  11.928   6.347   6.219  0.2436 -1.7851  1.6248
  352MOL0     H46457  11.973   6.184   6.227 -1.9594 -0.3987  0.6685
  352MOL0     H46458  11.918   6.342   5.962 -1.4508 -0.3008  0.9658
  352MOL0     H46459  11.959   6.175   5.975 -2.7269  1.2639 -1.2692
  352MOL0     H46460  12.127   6.402   6.076 -0.3556  1.1686 -1.8270
  352MOL0     H46461  12.184   6.234   6.072 -0.3765 -0.3000  1.4157
  352MOL0     H46462  12.266   6.382   5.682 -3.0467 -1.2896 -2.4272
  352MOL0     H46463  11.552   6.085   6.159  0.8248 -3.2496 -2.5556
  352MOL0     H46464  11.328   6.029   6.095 -1.8615 -1.7921 -3.2491
  353MOL0     O46465   6.464   8.417   7.111 -0.2764 -0.7745  0.2049
  353MOL0     C46466   6.457   8.347   7.208 -0.3699 -0.1899  0.0529
  353MOL0     O46467   6.340   8.315   7.276 -0.3143 -0.2485 -0.0244
  353MOL0     C46468   6.219   8.370   7.244 -0.1325 -0.3573 -0.6147
  353MOL0     C46469   6.109   8.309   7.305  0.3960 -0.3030 -0.0632
  353MOL0     C46470   5.979   8.340   7.264  0.2911 -0.6174 -0.4162
  353MOL0     C46471   5.942   8.441   7.174 -0.2542 -0.2765 -0.4069
  353MOL0     O46472   5.820   8.488   7.148 -0.1415  0.2231 -0.2871
  353MOL0     C46473   5.769   8.420   7.029 -0.4308 -0.7100 -0.6892
  353MOL0     C46474   5.676   8.305   7.052 -0.5135 -0.6041 -0.0875
  353MOL0     C46475   5.626   8.251   6.926 -0.7597 -0.5803 -0.0299
  353MOL0     C46476   5.704   8.155   6.840  0.2691  0.1534  0.8463
  353MOL0     C46477   5.623   8.067   6.742 -1.0140 -0.1719  0.1032
  353MOL0     C46478   5.723   7.966   6.679  0.7885  0.1319  0.0934
  353MOL0     C46479   5.646   7.840   6.621  0.6625  0.3173 -0.0983
  353MOL0     C46480   5.736   7.751   6.533  0.1600  0.4470  0.6290
  353MOL0     N46481   5.647   7.643   6.493 -0.7093  0.1015  0.8917
  353MOL0     C46482   5.583   7.555   6.579  0.4526 -0.9400 -0.4620
  353MOL0     C46483   5.518   7.471   6.496 -0.0031 -0.3364 -0.3891
  353MOL0     C46484   5.420   7.371   6.547 -0.5486 -0.1114 -0.2011
  353MOL0     C46485   5.488   7.241   6.596 -0.8032 -0.3268 -0.6122
  353MOL0     C46486   5.361   7.153   6.634 -0.5835 -0.0376  0.4681
  353MOL0     C46487   5.391   7.004   6.649 -0.9272 -0.2518  0.2515
  353MOL0     O46488   5.318   6.936   6.751  0.7148 -0.0640  0.3359
  353MOL0     C46489   5.180   6.944   6.751  0.3231  0.5389  0.2443
  353MOL0     C46490   5.096   6.945   6.640 -0.3469  0.1165 -0.0807
  353MOL0     C46491   4.959   6.940   6.661 -0.3922  0.5701  0.1310
  353MOL0     C46492   4.903   6.943   6.789  0.0236 -0.2174 -0.3565
  353MOL0     C46493   4.758   6.932   6.815  0.6657 -0.1753  0.2586
  353MOL0     O46494   4.672   6.936   6.701  0.7185  0.2373 -0.3181
  353MOL0     C46495   4.535   6.927   6.712  0.5572 -0.1353  0.4537
  353MOL0     C46496   4.459   6.981   6.604 -0.0620 -1.0814  0.6251
  353MOL0     C46497   4.318   6.977   6.599 -0.6038 -0.3152 -0.5676
  353MOL0     C46498   4.255   6.915   6.703 -0.3160 -0.0341  0.3092
  353MOL0     O46499   4.122   6.915   6.704 -0.7616  1.1534 -0.4007
  353MOL0     C46500   4.065   6.786   6.667 -0.8456 -0.6655  0.1446
  353MOL0     C46501   3.980   6.740   6.784 -0.3695 -0.1998 -0.2189
  353MOL0     C46502   3.871   6.639   6.739  0.2077  0.0429 -0.0274
  353MOL0     C46503   3.758   6.605   6.850 -0.2677 -0.5159 -0.8140
  353MOL0     C46504   3.637   6.525   6.801  0.1702 -0.8442  1.0961
  353MOL0     C46505   3.499   6.550   6.870 -0.6561 -1.0340  0.0596
  353MOL0     C46506   3.505   6.461   6.994  0.7495  0.1743  0.7791
  353MOL0     C46507   3.455   6.322   6.957 -0.2086 -0.2095  0.3525
  353MOL0    Cl46508   3.424   6.227   7.098  0.1861  0.2642 -0.1884
  353MOL0     C46509   4.328   6.853   6.808 -0.2829  0.5706  0.0811
  353MOL0     C46510   4.463   6.863   6.815 -0.7093 -1.2430 -0.2173
  353MOL0     O46511   4.725   6.923   6.938 -0.4728  0.0186 -0.7038
  353MOL0     C46512   4.988   6.919   6.896  0.1351  0.7766 -0.6315
  353MOL0     C46513   5.129   6.926   6.878 -0.1901  0.0434  0.1913
  353MOL0     N46514   5.546   7.499   6.362 -0.4630  0.0806  1.0404
  353MOL0     N46515   5.622   7.602   6.363 -0.5769  0.3801  0.0443
  353MOL0     C46516   6.049   8.506   7.119 -0.2102 -0.8918 -1.1571
  353MOL0     C46517   6.187   8.463   7.142  0.2176  0.3084  1.3637
  353MOL0     C46518   6.586   8.298   7.265  0.2326  0.4195  0.7595
  353MOL0     C46519   6.593   8.196   7.366  0.6597  0.2149  0.5948
  353MOL0     C46520   6.718   8.152   7.414  0.5020  0.3193  0.9198
  353MOL0     C46521   6.832   8.222   7.378 -0.2167 -1.1446 -0.3199
  353MOL0     O46522   6.948   8.167   7.420  0.8720 -0.0945  0.5591
  353MOL0     C46523   7.068   8.238   7.411  0.0792 -0.2096  0.3267
  353MOL0     C46524   7.188   8.162   7.484 -0.4194  0.0814 -0.3718
  353MOL0     C46525   7.194   8.015   7.453 -0.4468 -0.4492  0.9615
  353MOL0     C46526   7.337   7.947   7.488  0.2541 -0.5255  0.0308
  353MOL0     C46527   7.324   7.806   7.506  0.4507  1.2606  0.4148
  353MOL0     C46528   7.320   7.695   7.534  0.2317  0.6024  0.7027
  353MOL0     C46529   6.825   8.333   7.295 -0.1819  0.2337 -0.3433
  353MOL0     C46530   6.704   8.369   7.233  0.1357 -0.4439  0.9812
  353MOL0     H46531   6.134   8.230   7.375  2.0599  0.5131  0.3269
  353MOL0     H46532   5.891   8.293   7.307  0.0029 -0.1084 -0.4445
  353MOL0     H46533   5.855   8.376   6.976  0.3080 -1.9389  1.4351
  353MOL0     H46534   5.730   8.501   6.966  0.8251  1.1190  0.7522
  353MOL0     H46535   5.601   8.339   7.123 -1.0016  0.5396 -1.1153
  353MOL0     H46536   5.721   8.220   7.105  1.4096 -0.3250 -1.1706
  353MOL0     H46537   5.601   8.332   6.856 -1.6571 -0.3387  0.5570
  353MOL0     H46538   5.532   8.199   6.946 -0.1841 -1.2326  1.0768
  353MOL0     H46539   5.762   8.220   6.774 -0.0694  0.3810  0.7704
  353MOL0     H46540   5.770   8.091   6.899  0.3563 -1.2771 -0.7364
  353MOL0     H46541   5.569   8.121   6.664 -1.0799  0.6269  0.6805
  353MOL0     H46542   5.548   8.022   6.808 -0.0946 -1.1590  0.4998
  353MOL0     H46543   5.780   7.924   6.762 -2.2001 -4.8665 -0.0086
  353MOL0     H46544   5.787   8.005   6.599 -1.8546  0.0837 -2.1740
  353MOL0     H46545   5.607   7.785   6.707 -0.3703  0.9938 -0.1207
  353MOL0     H46546   5.560   7.884   6.570  0.4967  0.5573  0.3759
  353MOL0     H46547   5.818   7.701   6.586  1.5499 -0.4773 -2.1943
  353MOL0     H46548   5.778   7.807   6.449 -0.5620  0.5927  0.3509
  353MOL0     H46549   5.582   7.557   6.688 -1.7219 -1.2924 -0.4252
  353MOL0     H46550   5.342   7.354   6.473 -1.1954  0.0147  0.4377
  353MOL0     H46551   5.359   7.416   6.625  0.9238  0.4227  0.6862
  353MOL0     H46552   5.548   7.272   6.682  0.5182  1.1552 -1.9896
  353MOL0     H46553   5.549   7.205   6.513 -0.8167  2.5703 -2.0011
  353MOL0     H46554   5.314   7.187   6.727 -1.7606 -1.2322  0.3306
  353MOL0     H46555   5.291   7.150   6.550 -0.3374 -0.6737  0.2813
  353MOL0     H46556   5.499   6.992   6.659 -0.5574  2.1856 -0.2290
  353MOL0     H46557   5.375   6.961   6.549  3.1362 -0.5166 -0.4338
  353MOL0     H46558   5.135   6.960   6.540  0.3051 -2.1435 -0.2144
  353MOL0     H46559   4.896   6.944   6.573 -0.3494  1.2163  0.1279
  353MOL0     H46560   4.512   7.020   6.517 -2.6746  0.9862 -0.1534
  353MOL0     H46561   4.253   7.011   6.520 -2.5670 -1.9414  0.2710
  353MOL0     H46562   4.133   6.706   6.634 -0.7386 -0.0388 -1.2226
  353MOL0     H46563   4.005   6.801   6.577  0.5290  0.5517 -0.6092
  353MOL0     H46564   3.928   6.819   6.838 -0.3351  0.5793 -1.2961
  353MOL0     H46565   4.043   6.699   6.863 -1.0774  1.4928  1.2795
  353MOL0     H46566   3.911   6.551   6.688  2.2307  0.7934  0.1491
  353MOL0     H46567   3.820   6.694   6.659 -0.0063  1.3295  0.9590
  353MOL0     H46568   3.798   6.541   6.930 -0.9567 -0.1053 -0.1256
  353MOL0     H46569   3.728   6.697   6.902 -0.7324 -0.3499 -1.3662
  353MOL0     H46570   3.658   6.419   6.783  0.0621 -1.0274  2.0111
  353MOL0     H46571   3.622   6.567   6.701 -0.7691 -0.4537  1.3917
  353MOL0     H46572   3.418   6.527   6.800 -0.5189  0.3477 -0.5663
  353MOL0     H46573   3.489   6.654   6.901  0.4571 -0.8584 -0.1464
  353MOL0     H46574   3.606   6.451   7.037  0.7428 -0.5445  0.6340
  353MOL0     H46575   3.442   6.486   7.080  1.4654 -0.2435  1.4402
  353MOL0     H46576   3.526   6.276   6.888 -3.5909 -1.9752 -2.1992
  353MOL0     H46577   3.360   6.333   6.905  0.3634 -0.9088 -0.8823
  353MOL0     H46578   4.280   6.794   6.885 -0.9956 -0.8986 -1.4156
  353MOL0     H46579   4.503   6.820   6.907 -2.0542  0.6404  1.3402
  353MOL0     H46580   4.949   6.903   6.996  0.5181  2.0632 -0.2531
  353MOL0     H46581   5.201   6.912   6.958  1.3665 -0.5192 -1.2314
  353MOL0     H46582   6.022   8.593   7.061  0.7218 -1.3822 -2.3736
  353MOL0     H46583   6.255   8.518   7.077 -2.7983 -0.3924 -2.8280
  353MOL0     H46584   6.503   8.141   7.394  1.4310 -2.1089 -1.1694
  353MOL0     H46585   6.729   8.069   7.482  0.1697  0.7904  1.5603
  353MOL0     H46586   7.056   8.333   7.464 -1.3601 -0.7415  0.9872
  353MOL0     H46587   7.095   8.265   7.308 -0.9342  1.0109  0.3607
  353MOL0     H46588   7.285   8.205   7.458  0.3078  0.2358  2.2712
  353MOL0     H46589   7.189   8.176   7.593  2.7046  1.7714 -0.5073
  353MOL0     H46590   7.188   8.005   7.344  0.2979 -2.1904  1.0401
  353MOL0     H46591   7.108   7.961   7.495 -1.9601  2.4765  1.8695
  353MOL0     H46592   7.412   7.976   7.414  0.9725  2.1557  1.6675
  353MOL0     H46593   7.389   7.977   7.580  1.8765 -0.1370 -0.9750
  353MOL0     H46594   7.320   7.593   7.567  1.6776  0.2019 -0.4491
  353MOL0     H46595   6.918   8.382   7.269 -0.7802  0.9431 -1.2054
  353MOL0     H46596   6.700   8.455   7.167  1.7519 -0.1486  1.2312
  354MOL0     O46597   1.263   6.340   6.398  1.1091  0.0187 -0.5999
  354MOL0     C46598   1.211   6.373   6.290  0.1620  0.4557 -0.0726
  354MOL0     O46599   1.079   6.404   6.269 -0.5015  0.3135 -0.2138
  354MOL0     C46600   0.988   6.397   6.376 -0.0123 -0.4669 -0.1381
  354MOL0     C46601   0.876   6.493   6.372  0.7876 -0.6989 -0.2939
  354MOL0     C46602   0.781   6.492   6.471  0.4238  0.2264 -0.0995
  354MOL0     C46603   0.788   6.404   6.588  0.6988 -0.2962  0.1111
  354MOL0     O46604   0.704   6.386   6.697 -0.0930  0.7116  0.1517
  354MOL0     C46605   0.570   6.403   6.678  0.1380  0.6412  1.4001
  354MOL0     C46606   0.511   6.261   6.620  0.0136 -0.0819  0.4086
  354MOL0     C46607   0.361   6.267   6.606  0.2148  0.5769 -0.6041
  354MOL0     C46608   0.306   6.134   6.542  0.1235 -0.0458 -0.0885
  354MOL0     C46609   0.148   6.134   6.553 -0.2565 -0.3028  0.2913
  354MOL0     C46610   0.096   6.026   6.465 -0.1792  0.9864  0.3291
  354MOL0     C46611  -0.050   6.011   6.451  1.4019 -0.0975 -0.6330
  354MOL0     C46612  -0.089   5.881   6.369  0.4788 -0.6837  0.2749
  354MOL0     N46613  -0.226   5.840   6.391 -0.0356 -0.0928 -0.3789
  354MOL0     C46614  -0.336   5.923   6.375 -0.5616 -0.3570 -1.0189
  354MOL0     C46615  -0.435   5.835   6.412 -0.6163  0.5025 -0.3842
  354MOL0     C46616  -0.574   5.888   6.423 -0.4847 -0.2460 -0.6448
  354MOL0     C46617  -0.686   5.781   6.414 -0.7096  0.3130 -0.7615
  354MOL0     C46618  -0.711   5.752   6.273 -0.0788  0.0193 -0.4211
  354MOL0     C46619  -0.780   5.620   6.252  0.0025  0.5523  0.0706
  354MOL0     O46620  -0.886   5.603   6.346 -0.1183 -1.1902 -0.1421
  354MOL0     C46621  -0.976   5.504   6.325 -0.4991 -0.0879  0.1103
  354MOL0     C46622  -0.955   5.386   6.248  1.1339 -0.4051  0.5956
  354MOL0     C46623  -1.067   5.308   6.215  0.3749  1.0169  0.3009
  354MOL0     C46624  -1.197   5.328   6.264 -0.5083 -0.9138 -0.0347
  354MOL0     C46625  -1.312   5.238   6.239 -0.1626  0.9389 -0.6928
  354MOL0     O46626  -1.423   5.260   6.317  1.0040 -0.0701  1.1716
  354MOL0     C46627  -1.539   5.205   6.269  0.3839  0.0838  0.6927
  354MOL0     C46628  -1.620   5.130   6.357 -0.3568  1.2199  0.0336
  354MOL0     C46629  -1.735   5.067   6.315  0.0521 -0.7034 -0.3965
  354MOL0     C46630  -1.780   5.080   6.184 -0.4894 -0.1752  0.4451
  354MOL0     O46631  -1.894   5.024   6.134  0.0691 -0.0064 -0.6344
  354MOL0     C46632  -2.012   5.038   6.221  1.0486 -1.0160  0.5389
  354MOL0     C46633  -2.127   5.021   6.113 -0.7557  0.0787  0.4212
  354MOL0     C46634  -2.262   5.012   6.184 -0.1324  0.0947 -0.5820
  354MOL0     C46635  -2.367   4.958   6.086  0.5261  0.0941  0.4994
  354MOL0     C46636  -2.509   4.983   6.143  0.0147 -0.6487  0.2405
  354MOL0     C46637  -2.622   4.956   6.036 -0.2837 -0.0465 -0.3929
  354MOL0     C46638  -2.764   4.943   6.096 -0.3419  0.5470 -0.4381
  354MOL0     C46639  -2.863   4.910   5.985  0.7253  0.0381  0.3910
  354MOL0    Cl46640  -2.866   5.026   5.860  0.3604  0.2113  0.0449
  354MOL0     C46641  -1.711   5.161   6.093 -1.4415  0.5045  0.1080
  354MOL0     C46642  -1.587   5.223   6.141  0.0687  0.4996  0.3618
  354MOL0     O46643  -1.300   5.146   6.153  0.8378 -0.2150 -0.1885
  354MOL0     C46644  -1.211   5.438   6.350  0.2194  0.3096 -0.6010
  354MOL0     C46645  -1.106   5.528   6.370  0.1117  0.0921 -0.4201
  354MOL0     N46646  -0.389   5.715   6.451  0.1634  0.5496 -0.7655
  354MOL0     N46647  -0.267   5.717   6.427 -0.5379  0.2316  0.6519
  354MOL0     C46648   0.896   6.312   6.586 -0.2699 -0.1154  0.3533
  354MOL0     C46649   0.998   6.307   6.486 -0.5527 -0.6863  0.6389
  354MOL0     C46650   1.298   6.382   6.169 -0.5876 -0.1281 -0.0555
  354MOL0     C46651   1.442   6.383   6.174 -0.8414 -0.1418 -0.1134
  354MOL0     C46652   1.517   6.404   6.060  0.1966  0.2297 -0.2267
  354MOL0     C46653   1.457   6.437   5.934 -0.0047  0.8160 -0.2713
  354MOL0     O46654   1.524   6.444   5.811  0.1648 -0.5379  0.3830
  354MOL0     C46655   1.668   6.423   5.818 -0.0728  0.9816  0.5044
  354MOL0     C46656   1.729   6.400   5.674 -0.4218 -0.2546  0.5749
  354MOL0     C46657   1.879   6.387   5.672  0.2649  0.0578  0.0965
  354MOL0     C46658   1.933   6.407   5.525 -0.5258  0.6444  0.0745
  354MOL0     C46659   2.066   6.471   5.516 -0.0871 -0.6392 -0.3611
  354MOL0     C46660   2.155   6.550   5.516  0.0371 -0.2352  0.5296
  354MOL0     C46661   1.318   6.430   5.927 -0.6555  0.0441 -0.0165
  354MOL0     C46662   1.243   6.413   6.044  0.9228  0.0964 -0.8319
  354MOL0     H46663   0.878   6.555   6.283  6.6876  1.1162  0.6688
  354MOL0     H46664   0.693   6.555   6.480 -0.2090 -0.7703  1.0912
  354MOL0     H46665   0.547   6.483   6.606  2.8586  0.0531 -0.2415
  354MOL0     H46666   0.512   6.426   6.768 -2.5068 -0.0825 -0.0103
  354MOL0     H46667   0.538   6.188   6.697  0.0929  2.1860  2.6774
  354MOL0     H46668   0.561   6.251   6.523 -0.4716  1.5487 -0.0402
  354MOL0     H46669   0.327   6.353   6.548  4.5061  2.5076 -0.6263
  354MOL0     H46670   0.319   6.271   6.707 -0.1445 -1.5050 -0.6257
  354MOL0     H46671   0.327   6.131   6.434 -1.6963 -1.2242 -0.4599
  354MOL0     H46672   0.355   6.051   6.593  0.7704 -0.6796 -1.6719
  354MOL0     H46673   0.116   6.228   6.507  0.8077 -0.2006 -0.2934
  354MOL0     H46674   0.114   6.130   6.657 -2.2817  0.7483 -0.2823
  354MOL0     H46675   0.150   5.938   6.502  1.5212  0.9880 -1.9271
  354MOL0     H46676   0.133   6.045   6.364 -0.9410 -1.9480 -0.5853
  354MOL0     H46677  -0.088   6.013   6.553  1.7107  0.8434 -0.5318
  354MOL0     H46678  -0.082   6.091   6.384 -0.8403 -0.4630 -0.0751
  354MOL0     H46679  -0.019   5.800   6.388  1.6466  0.4359  0.8902
  354MOL0     H46680  -0.082   5.917   6.266 -2.6407  1.6243  0.7155
  354MOL0     H46681  -0.338   6.028   6.352 -0.0850 -0.3139 -0.8634
  354MOL0     H46682  -0.591   5.962   6.344 -3.3390 -1.3478 -1.1938
  354MOL0     H46683  -0.586   5.941   6.518  2.1603 -1.4610  0.4568
  354MOL0     H46684  -0.775   5.825   6.460 -0.0672 -1.0995  2.0900
  354MOL0     H46685  -0.659   5.692   6.472  1.2546 -0.1615 -2.2978
  354MOL0     H46686  -0.779   5.824   6.227  0.3375  0.1980 -0.7617
  354MOL0     H46687  -0.618   5.758   6.217 -0.6729  4.5727 -1.3171
  354MOL0     H46688  -0.708   5.540   6.274 -0.5474  0.6648  2.5842
  354MOL0     H46689  -0.814   5.613   6.149 -0.6618  2.0232  0.1648
  354MOL0     H46690  -0.856   5.358   6.214  1.9769  2.4450  0.3813
  354MOL0     H46691  -1.042   5.224   6.151  0.2761  1.9329 -0.9780
  354MOL0     H46692  -1.574   5.123   6.455  1.1866  1.6390 -0.6208
  354MOL0     H46693  -1.792   5.006   6.384  0.7470 -0.2969  0.5542
  354MOL0     H46694  -2.021   5.136   6.269  1.4123  0.5081 -2.2549
  354MOL0     H46695  -2.013   4.960   6.298 -1.5339 -2.1785 -0.5588
  354MOL0     H46696  -2.113   4.922   6.067 -1.8910  0.5861 -1.0880
  354MOL0     H46697  -2.131   5.098   6.036 -0.2182  1.2675  1.5566
  354MOL0     H46698  -2.277   5.117   6.211  0.7967  0.0150  0.2997
  354MOL0     H46699  -2.258   4.955   6.277 -0.8417 -3.5233 -2.5883
  354MOL0     H46700  -2.348   5.000   5.987 -0.2736  0.4820  0.5025
  354MOL0     H46701  -2.350   4.853   6.062 -1.8888 -0.0590 -0.8643
  354MOL0     H46702  -2.514   5.091   6.162 -0.6249 -0.6541  0.1389
  354MOL0     H46703  -2.518   4.935   6.241  1.7958  0.5052  1.0195
  354MOL0     H46704  -2.584   4.870   5.980 -1.8841 -1.1199  0.0950
  354MOL0     H46705  -2.629   5.043   5.969 -1.7871 -0.4280 -0.7823
  354MOL0     H46706  -2.767   4.878   6.185 -0.4336  0.8025 -0.2554
  354MOL0     H46707  -2.788   5.043   6.131 -1.6417 -0.1871  0.9037
  354MOL0     H46708  -2.967   4.907   6.018 -0.1701  3.9324 -1.3845
  354MOL0     H46709  -2.830   4.817   5.939 -1.5648 -0.8713  0.4605
  354MOL0     H46710  -1.733   5.182   5.989  3.2146  1.1852 -0.9783
  354MOL0     H46711  -1.522   5.280   6.075  0.9210  1.4214  1.9476
  354MOL0     H46712  -1.309   5.454   6.394  1.4502  1.8789  1.7918
  354MOL0     H46713  -1.140   5.612   6.430 -0.2641 -0.6608  0.4449
  354MOL0     H46714   0.904   6.239   6.667  1.7381  1.2447  1.4603
  354MOL0     H46715   1.077   6.232   6.488  1.1572  0.7943 -2.9115
  354MOL0     H46716   1.505   6.363   6.260  2.2070  0.7366 -1.9974
  354MOL0     H46717   1.624   6.400   6.080 -0.1457  1.6332  2.3096
  354MOL0     H46718   1.710   6.340   5.875 -0.2162  1.0292  0.6794
  354MOL0     H46719   1.700   6.517   5.864 -2.0898  0.7153  2.6667
  354MOL0     H46720   1.692   6.302   5.643 -0.2337 -0.0848 -0.2090
  354MOL0     H46721   1.700   6.480   5.606  2.3332  0.9821  0.7148
  354MOL0     H46722   1.901   6.287   5.711 -1.4747 -0.3421  0.1200
  354MOL0     H46723   1.916   6.465   5.738 -0.1808  0.3229  0.0325
  354MOL0     H46724   1.948   6.306   5.486  0.1551  0.6170  0.3997
  354MOL0     H46725   1.867   6.464   5.459  0.6249  1.5507 -0.3176
  354MOL0     H46726   2.233   6.623   5.510  0.4982 -0.6862  1.0149
  354MOL0     H46727   1.277   6.458   5.831 -0.9856  0.4311  0.2362
  354MOL0     H46728   1.136   6.414   6.023  0.7216  0.5053  0.1369
  355MOL0     O46729   2.933   8.252   3.392 -0.2482 -0.5427 -0.3363
  355MOL0     C46730   2.964   8.154   3.336  0.3790 -0.0190  0.2868
  355MOL0     O46731   2.885   8.062   3.287 -0.2008  0.0564  0.1123
  355MOL0     C46732   2.761   8.105   3.252  0.1483 -0.6912 -0.0499
  355MOL0     C46733   2.722   8.229   3.187  0.3730  0.6158  0.2170
  355MOL0     C46734   2.590   8.254   3.155  0.0737 -0.4413  0.4591
  355MOL0     C46735   2.493   8.158   3.184 -0.5537 -0.3138  0.0184
  355MOL0     O46736   2.367   8.196   3.165  0.2011 -0.0359  0.0988
  355MOL0     C46737   2.286   8.104   3.081  0.4446  0.5145 -0.2701
  355MOL0     C46738   2.150   8.180   3.058 -0.8528 -0.4433 -0.1742
  355MOL0     C46739   2.080   8.091   2.949 -0.9537  0.3225  0.3090
  355MOL0     C46740   1.947   8.149   2.902  0.5045 -0.1690 -0.3142
  355MOL0     C46741   1.893   8.087   2.769 -0.0391  0.2520 -0.3584
  355MOL0     C46742   1.833   7.952   2.801 -0.1777 -0.3151 -0.3648
  355MOL0     C46743   1.773   7.874   2.682 -0.2773  0.2093  0.0510
  355MOL0     C46744   1.635   7.924   2.637 -0.5537 -0.4802  1.0526
  355MOL0     N46745   1.565   7.827   2.551 -0.1148  0.9511  0.6333
  355MOL0     C46746   1.589   7.798   2.415  0.1366  0.4037  0.7103
  355MOL0     C46747   1.509   7.688   2.391  0.0651 -0.7843  0.0541
  355MOL0     C46748   1.506   7.611   2.267 -0.1566  0.4948 -0.7725
  355MOL0     C46749   1.379   7.641   2.195 -0.9091 -1.1528 -0.1661
  355MOL0     C46750   1.347   7.537   2.086 -0.4256  0.2748  0.3463
  355MOL0     C46751   1.212   7.553   2.023 -0.5519 -0.2785 -0.9711
  355MOL0     O46752   1.198   7.687   1.973 -0.1200  0.6440 -0.4337
  355MOL0     C46753   1.076   7.710   1.906 -0.6898 -0.2222 -0.2546
  355MOL0     C46754   0.980   7.622   1.865 -0.6574  0.1104  0.0086
  355MOL0     C46755   0.855   7.664   1.818 -0.1561  0.4564 -0.4836
  355MOL0     C46756   0.819   7.802   1.808  0.1975 -0.6526  0.3560
  355MOL0     C46757   0.687   7.843   1.752  0.0967  0.0367  0.2592
  355MOL0     O46758   0.607   7.747   1.699 -0.4066  0.2831  0.0041
  355MOL0     C46759   0.476   7.777   1.664 -0.6037  0.0578  0.6105
  355MOL0     C46760   0.420   7.691   1.565  0.7194  0.1066  0.1386
  355MOL0     C46761   0.285   7.709   1.521  0.8388 -0.7356 -0.1725
  355MOL0     C46762   0.202   7.805   1.579 -1.4705  0.8510 -0.4327
  355MOL0     O46763   0.076   7.815   1.527 -0.2334  0.2771 -0.2029
  355MOL0     C46764   0.005   7.706   1.473 -0.6920  0.3884  0.3918
  355MOL0     C46765  -0.131   7.732   1.522  1.3798 -0.4383  0.0796
  355MOL0     C46766  -0.234   7.632   1.466  0.6877  0.0166 -0.1071
  355MOL0     C46767  -0.373   7.645   1.521  0.1039  0.2541  0.2848
  355MOL0     C46768  -0.476   7.543   1.468 -0.3243 -0.0368 -0.0928
  355MOL0     C46769  -0.612   7.535   1.541 -0.1982 -0.3477  0.1217
  355MOL0     C46770  -0.700   7.654   1.552  0.8412 -0.4961 -0.6951
  355MOL0     C46771  -0.848   7.617   1.582  0.1041  0.0262 -0.4297
  355MOL0    Cl46772  -0.955   7.754   1.551  0.0683 -0.1929  0.0081
  355MOL0     C46773   0.258   7.888   1.683 -0.1660 -0.2306  0.1741
  355MOL0     C46774   0.389   7.873   1.732  0.5324 -0.1973  0.9163
  355MOL0     O46775   0.662   7.965   1.755  0.0507 -0.6543  0.4566
  355MOL0     C46776   0.910   7.888   1.867  0.3286 -0.7092 -0.0482
  355MOL0     C46777   1.036   7.850   1.912  0.0405 -0.4291  0.0907
  355MOL0     N46778   1.447   7.650   2.507  0.1591 -0.1887 -0.8284
  355MOL0     N46779   1.471   7.743   2.596 -0.2654 -0.9465  0.6289
  355MOL0     C46780   2.534   8.033   3.240  0.6462  0.5944 -0.1688
  355MOL0     C46781   2.669   8.004   3.266  0.0566 -0.3001 -0.7780
  355MOL0     C46782   3.110   8.136   3.320  0.8242  0.2075  0.6157
  355MOL0     C46783   3.165   8.046   3.229  0.1244 -0.5193  0.3369
  355MOL0     C46784   3.301   8.033   3.211  0.1486 -0.1448 -0.0391
  355MOL0     C46785   3.391   8.100   3.299  0.0134 -0.4372  0.2826
  355MOL0     O46786   3.529   8.090   3.290 -0.1274  0.5793  0.1084
  355MOL0     C46787   3.581   8.192   3.200 -0.5707 -0.6013 -0.3802
  355MOL0     C46788   3.723   8.162   3.167 -0.5714  0.0809  0.3115
  355MOL0     C46789   3.758   8.069   3.049 -0.5521 -0.3614  0.3093
  355MOL0     C46790   3.905   8.081   3.011  0.5674  0.0768  0.2679
  355MOL0     C46791   3.947   8.210   2.954  0.3377  0.5613  0.2218
  355MOL0     C46792   4.001   8.313   2.915 -0.5364  0.4707 -0.0682
  355MOL0     C46793   3.335   8.187   3.392 -0.1206  0.4034 -0.3883
  355MOL0     C46794   3.196   8.209   3.398  0.6627  0.4833 -0.7099
  355MOL0     H46795   2.794   8.309   3.178 -2.0309  2.7884 -0.8806
  355MOL0     H46796   2.553   8.344   3.106 -1.0696 -1.8118 -1.3088
  355MOL0     H46797   2.269   8.015   3.142  0.1345  2.6725  3.0237
  355MOL0     H46798   2.337   8.080   2.987 -1.8180 -2.1591 -0.9489
  355MOL0     H46799   2.184   8.275   3.017  0.2721 -0.5453  0.4857
  355MOL0     H46800   2.085   8.201   3.143  1.7555 -0.0803  1.8537
  355MOL0     H46801   2.053   7.993   2.990  0.1414 -0.5757 -1.0198
  355MOL0     H46802   2.141   8.068   2.861 -0.9092  1.0779  0.1409
  355MOL0     H46803   1.880   8.134   2.986  1.8216  2.9665  1.4655
  355MOL0     H46804   1.967   8.256   2.891  4.0458 -0.7803 -1.2564
  355MOL0     H46805   1.982   8.071   2.706  3.1295  0.1651  3.7309
  355MOL0     H46806   1.816   8.156   2.734 -2.1495 -0.7985  1.9535
  355MOL0     H46807   1.750   7.972   2.868 -0.5906  2.9739 -1.6428
  355MOL0     H46808   1.897   7.885   2.860 -0.1486  1.1746  1.3895
  355MOL0     H46809   1.850   7.871   2.604 -0.9300  1.3881 -0.6713
  355MOL0     H46810   1.758   7.769   2.707  0.4278  0.2010  0.4713
  355MOL0     H46811   1.645   8.018   2.582  1.3678 -0.9310  0.5515
  355MOL0     H46812   1.582   7.943   2.731 -1.1616  2.1963  0.2416
  355MOL0     H46813   1.672   7.823   2.351 -1.1814  0.8126 -0.9231
  355MOL0     H46814   1.493   7.505   2.291 -0.1222  0.5820 -0.3632
  355MOL0     H46815   1.599   7.629   2.213  0.4166  2.9951  0.8868
  355MOL0     H46816   1.384   7.747   2.169 -1.1835 -1.0763  0.0887
  355MOL0     H46817   1.303   7.646   2.273 -2.4291  0.4847 -1.6786
  355MOL0     H46818   1.417   7.550   2.003 -0.1418 -3.4411 -0.1502
  355MOL0     H46819   1.375   7.435   2.114 -0.4023  0.2799  0.3441
  355MOL0     H46820   1.135   7.530   2.098  1.7078 -1.1037  1.2516
  355MOL0     H46821   1.206   7.484   1.938  1.8859 -1.5140 -0.2457
  355MOL0     H46822   1.002   7.516   1.858  0.7313  0.4770 -2.6277
  355MOL0     H46823   0.784   7.587   1.788 -1.5228  1.3031  0.4519
  355MOL0     H46824   0.482   7.610   1.528  0.9597  0.1765  0.3856
  355MOL0     H46825   0.252   7.644   1.441  1.1196 -1.4273  0.2652
  355MOL0     H46826   0.052   7.611   1.502 -0.7570  0.0207 -0.6546
  355MOL0     H46827   0.005   7.714   1.364  2.2204 -0.5145  0.2401
  355MOL0     H46828  -0.171   7.829   1.491 -0.4198 -1.7698 -2.0471
  355MOL0     H46829  -0.130   7.733   1.631  4.4677  4.0190  0.2894
  355MOL0     H46830  -0.202   7.530   1.488  1.2026  0.6755  2.4389
  355MOL0     H46831  -0.230   7.647   1.357 -0.6089  2.0570  0.0684
  355MOL0     H46832  -0.363   7.633   1.630  3.4882 -0.4399  0.0078
  355MOL0     H46833  -0.415   7.743   1.497  0.0076  0.2463  0.4192
  355MOL0     H46834  -0.436   7.441   1.461  0.5705  0.4225 -2.9852
  355MOL0     H46835  -0.499   7.572   1.365  1.7842  0.0787 -0.5804
  355MOL0     H46836  -0.603   7.496   1.643 -2.0706 -2.0210 -0.2777
  355MOL0     H46837  -0.661   7.447   1.498  0.8284 -0.8952  0.0534
  355MOL0     H46838  -0.672   7.708   1.643  0.7761 -0.5317 -0.6543
  355MOL0     H46839  -0.696   7.731   1.475 -3.6637  3.3089  2.2817
  355MOL0     H46840  -0.867   7.583   1.684 -1.1163 -0.8391 -0.9152
  355MOL0     H46841  -0.875   7.536   1.513  1.8012 -0.2560 -0.8111
  355MOL0     H46842   0.178   7.955   1.713  0.7433  0.9135  0.1234
  355MOL0     H46843   0.426   7.944   1.805  1.0167  3.0101 -2.1806
  355MOL0     H46844   0.882   7.991   1.885  0.3093 -0.9523  1.5078
  355MOL0     H46845   1.102   7.928   1.948  2.4193 -0.5074 -3.5858
  355MOL0     H46846   2.450   7.967   3.255  2.0430 -1.8594 -2.3588
  355MOL0     H46847   2.695   7.909   3.312  0.9090  0.0048 -0.6251
  355MOL0     H46848   3.096   8.005   3.157 -1.2876  1.5895  0.3845
  355MOL0     H46849   3.348   7.991   3.123  1.5958  0.1561  0.5664
  355MOL0     H46850   3.565   8.293   3.238  1.3529  1.1354 -3.7871
  355MOL0     H46851   3.520   8.191   3.109 -3.7560 -0.8040  1.5948
  355MOL0     H46852   3.769   8.260   3.152  0.1944 -0.6803 -2.9925
  355MOL0     H46853   3.780   8.123   3.252  3.1504  2.9919 -0.5796
  355MOL0     H46854   3.696   8.087   2.961  2.6258 -2.0689 -2.5317
  355MOL0     H46855   3.731   7.966   3.071  2.5417 -1.7458 -1.6787
  355MOL0     H46856   3.968   8.053   3.096 -2.9485 -2.8620  2.1931
  355MOL0     H46857   3.915   8.001   2.937  2.7003 -1.8443  2.4717
  355MOL0     H46858   4.050   8.401   2.879 -0.5893  0.6904  0.3970
  355MOL0     H46859   3.391   8.253   3.457 -2.4439  3.2253 -1.0420
  355MOL0     H46860   3.155   8.274   3.474 -1.1461 -1.7653  0.3484
  356MOL0     O46861   8.564   7.062  10.860  0.2961  0.0682  0.4015
  356MOL0     C46862   8.638   7.092  10.950 -0.8505 -0.0666  0.2028
  356MOL0     O46863   8.612   7.047  11.079  0.0594 -0.8019 -0.7199
  356MOL0     C46864   8.505   6.969  11.102 -0.1667  0.8618  0.6476
  356MOL0     C46865   8.388   7.011  11.173  0.1701  0.6484 -0.4797
  356MOL0     C46866   8.278   6.931  11.189  0.5239  1.4775  0.7079
  356MOL0     C46867   8.287   6.801  11.136 -0.6181  0.1300 -0.7605
  356MOL0     O46868   8.183   6.704  11.141  0.2712 -0.5109 -0.1765
  356MOL0     C46869   8.053   6.754  11.190  0.5619 -0.1949  0.4235
  356MOL0     C46870   7.944   6.647  11.182  0.3944  0.5295 -0.2968
  356MOL0     C46871   7.805   6.719  11.172  0.3095  1.0195  0.1352
  356MOL0     C46872   7.696   6.638  11.246  0.1529 -0.2769  0.0212
  356MOL0     C46873   7.558   6.676  11.182 -0.2207 -0.0518 -0.0587
  356MOL0     C46874   7.497   6.810  11.218  0.5417  0.2745 -0.5320
  356MOL0     C46875   7.378   6.854  11.144 -0.0905 -0.0747  0.8005
  356MOL0     C46876   7.252   6.773  11.164  1.3546 -0.4951  0.1715
  356MOL0     N46877   7.180   6.813  11.284  0.2036 -0.7163  0.2195
  356MOL0     C46878   7.077   6.898  11.286  1.0134  0.4157  0.8619
  356MOL0     C46879   7.035   6.890  11.415 -1.3910 -0.0484 -0.9390
  356MOL0     C46880   6.923   6.972  11.487 -1.5605 -1.4069  0.0165
  356MOL0     C46881   6.799   6.905  11.516 -0.2253 -0.4247  0.4721
  356MOL0     C46882   6.821   6.780  11.605  0.2970  0.1069 -0.0770
  356MOL0     C46883   6.691   6.711  11.634  0.0163  1.0621  0.4185
  356MOL0     O46884   6.623   6.666  11.517  0.0460  1.1414  0.1861
  356MOL0     C46885   6.493   6.651  11.535  0.7977  0.5665  0.0659
  356MOL0     C46886   6.407   6.733  11.467 -0.2984 -1.1179  0.1060
  356MOL0     C46887   6.271   6.726  11.483  0.7007 -1.0184 -0.0630
  356MOL0     C46888   6.212   6.613  11.550  0.0799 -1.4659  0.6316
  356MOL0     C46889   6.065   6.594  11.545 -0.3306 -0.9683 -0.9401
  356MOL0     O46890   5.996   6.699  11.495  0.1545  0.1907 -0.0106
  356MOL0     C46891   5.862   6.707  11.523  0.2633  0.0884 -0.0655
  356MOL0     C46892   5.806   6.692  11.648  0.3060  0.2024 -0.0834
  356MOL0     C46893   5.664   6.695  11.664  0.3003 -0.6766 -0.6069
  356MOL0     C46894   5.585   6.730  11.547 -0.8101 -0.2122 -0.1733
  356MOL0     O46895   5.453   6.737  11.570  0.4673 -0.4162 -0.3971
  356MOL0     C46896   5.353   6.755  11.461  0.1751  0.7652  0.4859
  356MOL0     C46897   5.219   6.791  11.520  0.6727 -0.0818 -0.3013
  356MOL0     C46898   5.107   6.843  11.432 -0.2369 -0.5268 -0.2578
  356MOL0     C46899   4.975   6.869  11.505  0.2862 -0.8020 -0.4673
  356MOL0     C46900   4.872   6.912  11.400 -0.8006  0.8951 -0.1379
  356MOL0     C46901   4.733   6.944  11.466  0.3926  1.0661  0.0361
  356MOL0     C46902   4.628   6.980  11.357  0.5413  0.6112 -0.5546
  356MOL0     C46903   4.493   7.032  11.412  1.3310  0.0886 -0.5112
  356MOL0    Cl46904   4.414   6.907  11.517  0.3244 -0.1592  0.5202
  356MOL0     C46905   5.646   6.739  11.419 -0.2276  0.8714  0.4962
  356MOL0     C46906   5.782   6.719  11.409 -0.8558 -0.3546  0.2807
  356MOL0     O46907   6.017   6.496  11.594 -0.1284 -0.6012 -0.1869
  356MOL0     C46908   6.300   6.514  11.606  0.8170 -0.3968 -0.7797
  356MOL0     C46909   6.434   6.542  11.609 -0.2324  0.2427 -0.5492
  356MOL0     N46910   7.119   6.808  11.493 -0.5297  0.4227 -0.7139
  356MOL0     N46911   7.204   6.755  11.403  0.5858 -0.3108  0.0570
  356MOL0     C46912   8.402   6.752  11.073  0.3545  0.0283  0.3170
  356MOL0     C46913   8.515   6.836  11.058  0.6687  0.6889  1.0160
  356MOL0     C46914   8.757   7.178  10.934 -0.1754 -0.1282 -0.6537
  356MOL0     C46915   8.869   7.153  11.025  0.6547 -0.1600  0.1012
  356MOL0     C46916   8.993   7.208  10.990 -0.2481 -0.2117  0.3543
  356MOL0     C46917   9.014   7.290  10.877  0.0722  0.1177 -0.4307
  356MOL0     O46918   9.136   7.352  10.856 -0.4969 -0.8035 -0.3920
  356MOL0     C46919   9.131   7.495  10.837 -0.5952 -0.0369  0.2338
  356MOL0     C46920   9.252   7.554  10.914 -0.5808  0.2328  0.3908
  356MOL0     C46921   9.375   7.455  10.898  0.3762 -0.3989  0.4718
  356MOL0     C46922   9.508   7.509  10.955  0.4352  0.4807  0.8990
  356MOL0     C46923   9.528   7.496  11.104  0.4492 -0.2352 -0.4940
  356MOL0     C46924   9.546   7.490  11.227  0.0593 -0.2943 -0.0935
  356MOL0     C46925   8.905   7.324  10.798  0.0631 -0.0802  0.9782
  356MOL0     C46926   8.783   7.264  10.820 -1.1867 -0.3690  0.1651
  356MOL0     H46927   8.387   7.114  11.206  1.9794 -0.2695  3.0110
  356MOL0     H46928   8.194   6.975  11.242  0.6066  2.0341  0.3859
  356MOL0     H46929   8.016   6.835  11.126 -0.0571  1.2120  2.4782
  356MOL0     H46930   8.073   6.788  11.292  1.5983  2.1131 -0.4689
  356MOL0     H46931   7.965   6.580  11.266  0.0977  0.8761  0.0563
  356MOL0     H46932   7.959   6.593  11.088  0.5808 -0.4076  0.2671
  356MOL0     H46933   7.789   6.722  11.064  2.0679  0.9316 -0.1531
  356MOL0     H46934   7.805   6.825  11.196 -0.6672  1.5802 -2.0991
  356MOL0     H46935   7.703   6.529  11.242  0.2120 -0.2982  0.6458
  356MOL0     H46936   7.695   6.659  11.353 -1.6243 -1.2449  0.2380
  356MOL0     H46937   7.482   6.605  11.217 -0.0101  0.8684  2.4571
  356MOL0     H46938   7.563   6.677  11.073  1.4746 -0.3257 -0.0125
  356MOL0     H46939   7.576   6.886  11.213  0.9392  0.3917  3.5569
  356MOL0     H46940   7.474   6.796  11.324 -0.4097 -1.0855 -0.8866
  356MOL0     H46941   7.356   6.957  11.176 -2.3208 -1.1508  3.0941
  356MOL0     H46942   7.405   6.866  11.039  0.4125 -1.5188  0.7464
  356MOL0     H46943   7.287   6.670  11.178 -0.5911 -1.3077 -0.6140
  356MOL0     H46944   7.199   6.770  11.069 -1.3681 -0.3810  1.5911
  356MOL0     H46945   7.046   6.948  11.195  0.3360 -1.3844  0.0772
  356MOL0     H46946   6.911   7.060  11.424 -0.7405 -0.4444  1.1480
  356MOL0     H46947   6.971   7.014  11.577  1.3699  3.3369 -3.2906
  356MOL0     H46948   6.746   6.870  11.426 -0.3027  1.6145 -0.3325
  356MOL0     H46949   6.726   6.976  11.558 -3.4982 -3.2639  0.0159
  356MOL0     H46950   6.896   6.713  11.561  0.4764  1.0775 -1.3034
  356MOL0     H46951   6.864   6.807  11.702  1.7010 -0.4809 -0.5085
  356MOL0     H46952   6.626   6.774  11.696 -1.5313 -1.1224  1.1227
  356MOL0     H46953   6.718   6.624  11.694 -0.8980  0.4407 -0.0586
  356MOL0     H46954   6.460   6.804  11.404  0.6799 -2.1485 -0.2481
  356MOL0     H46955   6.203   6.795  11.434  2.1039  0.3660 -0.1698
  356MOL0     H46956   5.872   6.671  11.731  0.7826  0.5140 -0.3847
  356MOL0     H46957   5.620   6.685  11.763  3.8832 -3.3664  0.9278
  356MOL0     H46958   5.337   6.662  11.406 -4.4825  0.1743  2.3967
  356MOL0     H46959   5.392   6.827  11.388 -1.4984 -1.6532 -3.0887
  356MOL0     H46960   5.252   6.864  11.594 -1.7354 -0.1575  0.9257
  356MOL0     H46961   5.183   6.715  11.590 -0.4462 -0.2946 -1.0897
  356MOL0     H46962   5.099   6.772  11.349  1.3058 -0.5540 -0.4206
  356MOL0     H46963   5.146   6.939  11.396  0.1642 -0.0672  1.3401
  356MOL0     H46964   4.947   6.776  11.554 -0.3511 -0.0088  0.7231
  356MOL0     H46965   5.008   6.948  11.574 -1.2733  0.2713 -0.8954
  356MOL0     H46966   4.875   6.834  11.323  2.0760 -0.2596  0.9768
  356MOL0     H46967   4.905   7.000  11.344  0.2041  0.0077 -1.0031
  356MOL0     H46968   4.740   7.031  11.532 -0.2014 -1.1539  3.2686
  356MOL0     H46969   4.693   6.862  11.527 -0.7565  2.0840  0.7263
  356MOL0     H46970   4.670   7.057  11.293 -0.2536  1.7065  0.2100
  356MOL0     H46971   4.608   6.891  11.296  0.5459  1.4263 -1.7837
  356MOL0     H46972   4.423   7.059  11.332  0.1887  2.8486  1.2686
  356MOL0     H46973   4.517   7.120  11.472  1.0669 -1.1206  1.4373
  356MOL0     H46974   5.588   6.765  11.331 -0.5935  3.2891  1.3695
  356MOL0     H46975   5.832   6.723  11.312 -0.9203 -0.9341  0.2190
  356MOL0     H46976   6.252   6.429  11.654 -1.0244  0.1739 -1.5603
  356MOL0     H46977   6.497   6.464  11.650  0.0017 -0.6811 -2.5157
  356MOL0     H46978   8.407   6.651  11.036 -0.7442 -1.1125  3.0298
  356MOL0     H46979   8.597   6.801  10.996 -2.1455  1.5383 -3.6624
  356MOL0     H46980   8.859   7.089  11.112  2.6701 -0.3518  0.2487
  356MOL0     H46981   9.076   7.199  11.059  0.4885  2.2173 -0.1201
  356MOL0     H46982   9.040   7.540  10.878 -0.2789 -1.6005  2.9003
  356MOL0     H46983   9.143   7.516  10.730  0.2950 -2.6681 -0.2502
  356MOL0     H46984   9.273   7.654  10.874 -0.8486 -0.5875 -1.9843
  356MOL0     H46985   9.228   7.541  11.020 -0.6550 -1.0415  0.2420
  356MOL0     H46986   9.391   7.440  10.791 -1.1533 -1.4477  0.3628
  356MOL0     H46987   9.353   7.360  10.947 -0.2179 -0.6096 -0.1887
  356MOL0     H46988   9.594   7.464  10.905  0.4455  3.2301 -1.8643
  356MOL0     H46989   9.528   7.611  10.921  0.0293 -0.4596 -2.5577
  356MOL0     H46990   9.554   7.491  11.334 -3.5962 -3.3375  0.4256
  356MOL0     H46991   8.914   7.375  10.704 -0.8429 -0.5075  0.6389
  356MOL0     H46992   8.712   7.274  10.738 -1.3808  2.1844  0.5750
  357MOL0     O46993   6.671   5.818   0.157 -0.2015  0.4642 -0.0834
  357MOL0     C46994   6.742   5.735   0.100 -0.1114  0.3277 -0.0683
  357MOL0     O46995   6.706   5.620   0.045 -0.3444 -0.3827 -0.5931
  357MOL0     C46996   6.570   5.583   0.030 -0.2400 -0.7425  0.4067
  357MOL0     C46997   6.516   5.475   0.098 -0.7234  0.1370 -0.2778
  357MOL0     C46998   6.382   5.441   0.079  0.0258  0.1318  0.4440
  357MOL0     C46999   6.306   5.506  -0.020 -0.0042  0.8317 -0.3387
  357MOL0     O47000   6.192   5.444  -0.065  0.7921  0.3899  0.6688
  357MOL0     C47001   6.129   5.329   0.008  0.2699  0.1204 -0.7024
  357MOL0     C47002   6.005   5.290  -0.073  0.3392  0.7399  0.1212
  357MOL0     C47003   5.886   5.383  -0.053  0.3639  0.6624  0.0345
  357MOL0     C47004   5.754   5.329  -0.106 -0.4564  0.5148 -0.0849
  357MOL0     C47005   5.634   5.406  -0.055  0.5078  0.6859 -0.6087
  357MOL0     C47006   5.602   5.357   0.092 -0.3360 -0.1032  0.0140
  357MOL0     C47007   5.483   5.410   0.151 -0.2457 -0.3986  0.0481
  357MOL0     C47008   5.360   5.351   0.107  0.4586  0.1484  0.6785
  357MOL0     N47009   5.241   5.402   0.169 -0.9888 -0.8412  0.1195
  357MOL0     C47010   5.182   5.523   0.166 -0.0493 -0.4902  0.0747
  357MOL0     C47011   5.083   5.516   0.256 -0.4745  0.0813 -0.4368
  357MOL0     C47012   4.988   5.631   0.255 -0.5525  0.6112  0.5580
  357MOL0     C47013   4.859   5.623   0.171 -1.0204  0.3885  0.2582
  357MOL0     C47014   4.757   5.517   0.220 -0.2008 -0.2817 -0.2550
  357MOL0     C47015   4.621   5.576   0.188 -0.0523  0.0371 -0.6454
  357MOL0     O47016   4.520   5.476   0.206  0.0409  0.5985  0.4268
  357MOL0     C47017   4.388   5.500   0.181  0.8103 -0.4233  0.3827
  357MOL0     C47018   4.296   5.395   0.184  0.1530 -0.4814 -0.6242
  357MOL0     C47019   4.162   5.424   0.163  0.5322  0.1052  0.4044
  357MOL0     C47020   4.111   5.557   0.147 -0.9688  0.1480 -0.1950
  357MOL0     C47021   3.974   5.579   0.128  0.1541  0.0933  0.4820
  357MOL0     O47022   3.892   5.468   0.116 -0.1907 -0.4514  0.1522
  357MOL0     C47023   3.759   5.485   0.106 -0.7245  0.3744  0.1147
  357MOL0     C47024   3.684   5.572   0.185  0.4200  0.7843  0.4445
  357MOL0     C47025   3.541   5.568   0.170  0.3223  0.5938  0.4834
  357MOL0     C47026   3.473   5.484   0.078 -0.3120  0.5443 -0.3687
  357MOL0     O47027   3.342   5.511   0.066 -0.0414  0.5451 -0.1604
  357MOL0     C47028   3.267   5.401   0.006  0.3785 -0.3384 -1.2068
  357MOL0     C47029   3.120   5.443   0.001  0.0617  0.5498  0.5468
  357MOL0     C47030   3.071   5.369  -0.124  0.1088 -0.3274  0.1481
  357MOL0     C47031   2.923   5.370  -0.147  0.2319 -0.0642 -0.3414
  357MOL0     C47032   2.868   5.267  -0.247 -0.9442 -0.2050  0.7203
  357MOL0     C47033   2.715   5.280  -0.282  0.1627  0.0936 -1.3883
  357MOL0     C47034   2.612   5.236  -0.178 -0.1719 -0.3152 -0.3714
  357MOL0     C47035   2.577   5.323  -0.053  0.8246 -0.3963  0.5261
  357MOL0    Cl47036   2.510   5.216   0.076  0.6928 -0.0667  0.0835
  357MOL0     C47037   3.557   5.410  -0.005  0.0471  0.3599  0.1527
  357MOL0     C47038   3.695   5.410   0.012  0.0157  0.6443  0.3932
  357MOL0     O47039   3.937   5.699   0.121 -0.8182 -0.5452 -0.4778
  357MOL0     C47040   4.210   5.656   0.136 -0.1999  0.9059 -0.1169
  357MOL0     C47041   4.344   5.633   0.162  0.7603 -0.3484  0.4093
  357MOL0     N47042   5.067   5.388   0.300 -0.0921  0.1471 -0.0694
  357MOL0     N47043   5.174   5.324   0.253  0.1190  0.3194  0.9523
  357MOL0     C47044   6.349   5.626  -0.067  0.2860  0.8238 -0.4275
  357MOL0     C47045   6.480   5.667  -0.042 -0.0653  0.5487  0.2193
  357MOL0     C47046   6.890   5.764   0.107 -0.4538  0.2666 -0.5164
  357MOL0     C47047   6.946   5.881   0.166  0.2936  0.1125  0.2516
  357MOL0     C47048   7.085   5.895   0.193  0.6783  0.2750 -0.9885
  357MOL0     C47049   7.176   5.790   0.160 -0.1115 -0.1632 -0.4178
  357MOL0     O47050   7.313   5.800   0.182  0.6487 -1.1505  0.0008
  357MOL0     C47051   7.387   5.825   0.066 -0.0203 -0.1996  0.1125
  357MOL0     C47052   7.530   5.776   0.073  0.1697  0.3193 -0.1845
  357MOL0     C47053   7.549   5.629   0.128 -0.8384 -0.4167  0.4304
  357MOL0     C47054   7.695   5.584   0.098  0.4560  0.2757  0.0486
  357MOL0     C47055   7.789   5.676   0.167  0.0968  0.4523  0.6009
  357MOL0     C47056   7.872   5.735   0.228  0.1239  0.0638  0.8326
  357MOL0     C47057   7.121   5.683   0.091  0.4809 -0.1531  0.0750
  357MOL0     C47058   6.985   5.669   0.071  0.3474 -0.9170  0.6531
  357MOL0     H47059   6.577   5.429   0.175 -0.0524  1.2119 -0.1460
  357MOL0     H47060   6.336   5.359   0.133 -0.9007  0.2611 -0.1283
  357MOL0     H47061   6.090   5.373   0.100  1.0226 -2.7861  1.0930
  357MOL0     H47062   6.196   5.246   0.029 -1.4019 -1.4371 -1.2962
  357MOL0     H47063   5.988   5.183  -0.060  0.3930  0.4968 -1.5360
  357MOL0     H47064   6.029   5.295  -0.180 -1.6671 -1.2889 -0.4996
  357MOL0     H47065   5.903   5.480  -0.101  1.1506 -1.0189 -3.4052
  357MOL0     H47066   5.870   5.392   0.054 -0.6792  1.1321 -0.1511
  357MOL0     H47067   5.759   5.328  -0.216 -0.7938 -0.7185 -0.1075
  357MOL0     H47068   5.746   5.225  -0.072 -3.2284  1.0174  1.0661
  357MOL0     H47069   5.554   5.362  -0.116  3.5972 -3.7277 -2.0491
  357MOL0     H47070   5.635   5.515  -0.060 -0.1766  0.8500  1.7418
  357MOL0     H47071   5.677   5.395   0.163 -1.4317  0.1384  1.0876
  357MOL0     H47072   5.608   5.248   0.092 -1.0511 -0.1906 -2.3761
  357MOL0     H47073   5.494   5.394   0.259 -0.1631  3.8669  0.8460
  357MOL0     H47074   5.479   5.518   0.138 -2.6645 -0.3066  1.1298
  357MOL0     H47075   5.362   5.243   0.122 -0.2349  0.0398  0.0512
  357MOL0     H47076   5.351   5.363  -0.001  1.7746  2.6845  0.7681
  357MOL0     H47077   5.217   5.604   0.103 -0.4341 -1.2733 -1.1727
  357MOL0     H47078   5.045   5.716   0.216 -3.0510  1.4721 -1.5379
  357MOL0     H47079   4.966   5.657   0.359  0.4615  2.7021  0.3109
  357MOL0     H47080   4.886   5.590   0.070  3.1046  1.7604  0.7066
  357MOL0     H47081   4.814   5.722   0.162 -2.2318 -0.2177 -0.6149
  357MOL0     H47082   4.781   5.424   0.170  1.3653  0.0957 -0.2558
  357MOL0     H47083   4.763   5.510   0.329 -1.0211 -0.4834 -0.2207
  357MOL0     H47084   4.615   5.615   0.086  1.2628 -0.1140 -0.8000
  357MOL0     H47085   4.610   5.657   0.261 -3.0908 -0.2085 -0.7098
  357MOL0     H47086   4.340   5.296   0.196  0.5686 -0.0230  2.2835
  357MOL0     H47087   4.095   5.340   0.175 -1.3690  1.7034  1.5189
  357MOL0     H47088   3.738   5.626   0.262 -2.0265 -0.4968  3.2395
  357MOL0     H47089   3.486   5.634   0.235  0.5306  0.0687  1.2073
  357MOL0     H47090   3.285   5.313   0.069 -0.4790 -0.2047 -0.7505
  357MOL0     H47091   3.306   5.383  -0.095  0.3442  1.2639 -1.5251
  357MOL0     H47092   3.107   5.551  -0.014 -0.5810  0.2821 -1.0942
  357MOL0     H47093   3.072   5.407   0.092  2.4497 -1.5899  1.0619
  357MOL0     H47094   3.093   5.264  -0.104 -1.8852 -0.6342  1.0321
  357MOL0     H47095   3.123   5.400  -0.216  1.0578 -0.1250  0.7465
  357MOL0     H47096   2.875   5.350  -0.051  0.0280 -3.2717 -1.0030
  357MOL0     H47097   2.905   5.472  -0.183  2.0532  1.2574  2.1724
  357MOL0     H47098   2.887   5.167  -0.208  0.1665 -0.3715 -0.1927
  357MOL0     H47099   2.933   5.270  -0.335 -3.9770  0.7265 -1.6766
  357MOL0     H47100   2.700   5.224  -0.375  3.5781 -0.9133 -1.4895
  357MOL0     H47101   2.701   5.387  -0.301 -1.8033  0.2995  0.8730
  357MOL0     H47102   2.516   5.218  -0.229 -2.5016  1.6311  2.8901
  357MOL0     H47103   2.654   5.141  -0.143 -1.6087 -0.6362  0.6200
  357MOL0     H47104   2.500   5.391  -0.091 -1.5019 -1.4355  3.1120
  357MOL0     H47105   2.667   5.382  -0.031 -0.5823  2.2541 -0.3353
  357MOL0     H47106   3.511   5.362  -0.091  0.4641 -0.8136  0.5700
  357MOL0     H47107   3.747   5.343  -0.055 -0.2831  0.2629  0.5432
  357MOL0     H47108   4.180   5.758   0.113  0.2705  1.2679  0.8069
  357MOL0     H47109   4.405   5.721   0.148 -0.4471  0.0154 -3.7215
  357MOL0     H47110   6.267   5.680  -0.113 -1.5554  1.4531  3.2678
  357MOL0     H47111   6.509   5.756  -0.097  0.8471 -0.3792 -0.8887
  357MOL0     H47112   6.869   5.954   0.189  0.3593  0.0922  0.5424
  357MOL0     H47113   7.099   5.988   0.247 -1.5912  0.4634 -0.6480
  357MOL0     H47114   7.391   5.930   0.037 -0.1552  0.6179  2.8194
  357MOL0     H47115   7.341   5.770  -0.017 -2.3967  1.4447  0.2645
  357MOL0     H47116   7.580   5.791  -0.024 -2.2437  0.7115 -1.4582
  357MOL0     H47117   7.577   5.846   0.143  0.1273  0.2382 -0.0767
  357MOL0     H47118   7.488   5.553   0.078  1.4646  0.0447 -3.4499
  357MOL0     H47119   7.529   5.624   0.235 -0.9258 -1.1418  0.3847
  357MOL0     H47120   7.707   5.479   0.127 -0.0957 -0.3004 -1.6877
  357MOL0     H47121   7.717   5.590  -0.009 -0.4167 -0.8240 -0.2106
  357MOL0     H47122   7.944   5.804   0.267  0.1570 -0.2109  1.2647
  357MOL0     H47123   7.190   5.607   0.055  3.5545  2.2942  0.3354
  357MOL0     H47124   6.959   5.574   0.024 -1.7567  0.9129 -2.1654
  358MOL0     O47125   9.645   1.222   2.235  0.2163 -0.2482 -0.2993
  358MOL0     C47126   9.700   1.228   2.132 -0.4515  0.0696 -0.6323
  358MOL0     O47127   9.646   1.207   2.002 -0.1399  0.7321  0.1163
  358MOL0     C47128   9.515   1.163   1.996  0.1227 -0.4825  0.3975
  358MOL0     C47129   9.431   1.249   1.923  0.4050  0.1363 -0.0625
  358MOL0     C47130   9.298   1.208   1.906 -0.3696  0.3387 -0.2190
  358MOL0     C47131   9.257   1.081   1.962  0.0378 -0.3601 -0.5877
  358MOL0     O47132   9.125   1.058   1.940 -0.6408  0.0848  0.1373
  358MOL0     C47133   9.072   0.931   1.970 -0.4236  1.0008  0.1201
  358MOL0     C47134   8.937   0.911   1.899 -0.3889  0.0123 -0.7520
  358MOL0     C47135   8.842   1.027   1.914 -0.7275 -1.0338 -0.8545
  358MOL0     C47136   8.701   0.991   1.880  0.1588  0.1579  0.3785
  358MOL0     C47137   8.606   1.115   1.887 -0.7047  0.4962  0.2521
  358MOL0     C47138   8.463   1.089   1.834 -0.7294 -0.7953 -0.2379
  358MOL0     C47139   8.400   0.974   1.905  0.3256 -0.5050  0.5349
  358MOL0     C47140   8.258   0.953   1.847  0.0447 -0.0045 -0.2743
  358MOL0     N47141   8.167   1.066   1.874  0.1519  0.0605  0.2811
  358MOL0     C47142   8.142   1.110   2.001  0.6286  0.7855  0.8957
  358MOL0     C47143   8.069   1.223   1.979  0.1438 -0.6865  0.0309
  358MOL0     C47144   8.019   1.316   2.082 -0.2888 -0.1589  0.2934
  358MOL0     C47145   7.868   1.331   2.063  0.0903  0.0538  0.2395
  358MOL0     C47146   7.787   1.206   2.110  0.9098  0.3437  0.2812
  358MOL0     C47147   7.643   1.215   2.065  0.5679 -0.3348 -0.9135
  358MOL0     O47148   7.560   1.100   2.109 -0.4388 -0.1837  0.0362
  358MOL0     C47149   7.435   1.100   2.045  0.5192  0.7023  0.1949
  358MOL0     C47150   7.390   1.206   1.966 -0.1076  0.0494 -0.1195
  358MOL0     C47151   7.264   1.207   1.910 -0.4605  0.3245  0.6622
  358MOL0     C47152   7.181   1.095   1.908  0.2002  0.9425 -0.5552
  358MOL0     C47153   7.052   1.105   1.854 -0.0543  1.1028  0.6131
  358MOL0     O47154   6.990   0.988   1.799 -0.4112 -0.1155  0.2307
  358MOL0     C47155   6.860   1.004   1.753  0.0548 -0.5826 -0.0871
  358MOL0     C47156   6.822   0.938   1.638  1.0901  0.3869 -0.0063
  358MOL0     C47157   6.694   0.950   1.579  0.0873 -0.1832  0.0342
  358MOL0     C47158   6.596   1.016   1.647 -0.3854 -0.7802  0.0560
  358MOL0     O47159   6.462   1.024   1.607 -0.3222  0.4731  0.0036
  358MOL0     C47160   6.397   0.926   1.525 -0.6956  1.1548 -0.1157
  358MOL0     C47161   6.362   0.803   1.622  0.3189  0.4669  0.3294
  358MOL0     C47162   6.269   0.687   1.574  0.1122  0.1101  0.0979
  358MOL0     C47163   6.155   0.740   1.485  0.1396 -0.0095 -0.2537
  358MOL0     C47164   6.060   0.624   1.449 -0.3003  0.5504 -0.2747
  358MOL0     C47165   5.931   0.670   1.384  0.4100 -0.5765 -0.5733
  358MOL0     C47166   5.816   0.566   1.352 -0.0429  0.3852 -0.0881
  358MOL0     C47167   5.705   0.620   1.259  0.4966 -0.4462  0.0928
  358MOL0    Cl47168   5.612   0.746   1.338  0.1014  0.4327  0.5123
  358MOL0     C47169   6.624   1.090   1.764  0.5392  0.6132  0.0551
  358MOL0     C47170   6.754   1.081   1.813  0.3872  0.5313 -0.6429
  358MOL0     O47171   7.004   1.213   1.845  0.3831  0.3456 -0.1732
  358MOL0     C47172   7.224   0.984   1.992  0.7143 -0.7273  0.3812
  358MOL0     C47173   7.348   0.986   2.057  0.0730  0.0306 -0.3395
  358MOL0     N47174   8.054   1.244   1.843 -0.0464 -0.2331  0.4903
  358MOL0     N47175   8.120   1.154   1.781  0.7963  0.5011 -0.1012
  358MOL0     C47176   9.353   1.000   2.043 -0.5120  1.0562  1.1533
  358MOL0     C47177   9.483   1.045   2.058 -0.6510 -0.4482  0.3532
  358MOL0     C47178   9.843   1.266   2.135 -0.0649 -0.3417  0.1126
  358MOL0     C47179   9.926   1.244   2.022 -0.1928  0.3603 -1.3641
  358MOL0     C47180  10.065   1.269   2.012  0.0690  0.3401 -0.1549
  358MOL0     C47181  10.132   1.312   2.132 -0.2248 -0.3586 -0.4286
  358MOL0     O47182  10.269   1.321   2.133 -0.2545  0.3358 -0.9877
  358MOL0     C47183  10.354   1.290   2.021 -0.0902 -0.7537 -0.5325
  358MOL0     C47184  10.491   1.273   2.077 -0.4915  0.8592 -0.3578
  358MOL0     C47185  10.575   1.406   2.111  0.4598 -0.5376 -0.1111
  358MOL0     C47186  10.708   1.352   2.158 -0.7715  0.1445 -0.0266
  358MOL0     C47187  10.805   1.458   2.169  0.2794 -0.3516  0.3029
  358MOL0     C47188  10.878   1.547   2.202 -0.4703  0.4516  0.5882
  358MOL0     C47189  10.056   1.329   2.246  0.8604 -0.0542  0.3328
  358MOL0     C47190   9.912   1.319   2.245 -0.3224  0.3500 -0.5693
  358MOL0     H47191   9.467   1.340   1.876  2.2867  1.1852  3.0835
  358MOL0     H47192   9.221   1.270   1.864 -3.1885 -1.6520  1.6242
  358MOL0     H47193   9.053   0.896   2.072 -0.8045 -3.1137 -1.1706
  358MOL0     H47194   9.145   0.857   1.934 -1.1287  1.4058 -2.3119
  358MOL0     H47195   8.903   0.810   1.923  1.3234 -0.3378  0.4418
  358MOL0     H47196   8.960   0.920   1.793  3.7780  2.3030  0.1425
  358MOL0     H47197   8.882   1.114   1.862  2.2628 -0.8948  1.3993
  358MOL0     H47198   8.844   1.044   2.022  1.3433  2.1432 -1.2758
  358MOL0     H47199   8.686   0.950   1.779  0.4531  0.4086  0.2321
  358MOL0     H47200   8.667   0.916   1.953 -1.7790  0.6802  0.0803
  358MOL0     H47201   8.651   1.193   1.825 -2.2484 -0.0949 -1.7378
  358MOL0     H47202   8.604   1.151   1.990  2.3774  0.6939  0.3248
  358MOL0     H47203   8.467   1.069   1.727  0.5195  2.4864 -0.9233
  358MOL0     H47204   8.400   1.179   1.833  1.7074  1.0723  0.9858
  358MOL0     H47205   8.446   0.877   1.887 -2.4038 -1.9587  0.8610
  358MOL0     H47206   8.390   1.002   2.011  4.2112 -0.4061  1.0048
  358MOL0     H47207   8.217   0.859   1.884  1.4097  0.4899  2.8113
  358MOL0     H47208   8.264   0.933   1.740 -0.6632  0.2321 -0.3636
  358MOL0     H47209   8.189   1.067   2.088  0.5679  0.7973  0.9350
  358MOL0     H47210   8.071   1.412   2.073 -0.0769  0.2561  4.0375
  358MOL0     H47211   8.034   1.276   2.183 -0.7360  1.1322  0.8918
  358MOL0     H47212   7.839   1.359   1.961 -0.8828 -0.3969  0.3844
  358MOL0     H47213   7.841   1.418   2.124 -1.5303 -0.3278  0.1262
  358MOL0     H47214   7.825   1.110   2.074  0.3087 -0.6353  2.1301
  358MOL0     H47215   7.783   1.208   2.219  4.0180  2.0406  0.4810
  358MOL0     H47216   7.649   1.216   1.956 -1.7126 -1.9697 -1.1083
  358MOL0     H47217   7.592   1.306   2.096 -0.3022 -0.5000 -1.8340
  358MOL0     H47218   7.432   1.306   1.964  2.7201 -1.0388  0.5452
  358MOL0     H47219   7.232   1.298   1.861 -2.5994  0.5744  2.3640
  358MOL0     H47220   6.892   0.876   1.584  0.7872  0.1438 -0.1265
  358MOL0     H47221   6.678   0.904   1.482  1.9333 -0.6681 -0.0841
  358MOL0     H47222   6.463   0.903   1.440  0.5736  1.3560  0.7786
  358MOL0     H47223   6.307   0.976   1.488 -0.9131 -0.1794 -1.4928
  358MOL0     H47224   6.314   0.852   1.708 -1.7337 -1.9563  0.6788
  358MOL0     H47225   6.458   0.765   1.660  2.3362  0.7459 -3.9516
  358MOL0     H47226   6.222   0.634   1.658 -1.4034 -2.4164 -2.1710
  358MOL0     H47227   6.323   0.612   1.516  1.0628 -1.9789  3.4117
  358MOL0     H47228   6.101   0.815   1.544 -1.9303 -2.2858  0.9550
  358MOL0     H47229   6.194   0.787   1.395  0.0642 -1.6725 -1.1917
  358MOL0     H47230   6.027   0.578   1.542 -2.0975  3.6812  0.7879
  358MOL0     H47231   6.117   0.557   1.383 -1.2460  0.4901 -1.0655
  358MOL0     H47232   5.949   0.716   1.286  0.2171  1.6663  0.3759
  358MOL0     H47233   5.889   0.758   1.435  1.9620  1.7823 -3.0681
  358MOL0     H47234   5.858   0.471   1.316 -0.9490 -1.1105  2.5376
  358MOL0     H47235   5.778   0.539   1.451  0.9389 -1.3354 -0.1328
  358MOL0     H47236   5.644   0.535   1.227 -1.9266  1.3749 -0.3748
  358MOL0     H47237   5.738   0.670   1.167 -3.9433 -0.3997 -1.7151
  358MOL0     H47238   6.551   1.145   1.823 -0.8486  0.9474 -1.8534
  358MOL0     H47239   6.758   1.140   1.904 -2.7207  0.6555 -0.4725
  358MOL0     H47240   7.179   0.887   2.004  2.2341 -1.8435 -2.0552
  358MOL0     H47241   7.372   0.900   2.119 -1.7198  0.7417  1.4386
  358MOL0     H47242   9.324   0.909   2.093  0.2062 -1.7371 -3.0302
  358MOL0     H47243   9.567   0.993   2.103  1.1628  2.2456  0.2786
  358MOL0     H47244   9.866   1.205   1.941 -2.0862 -2.7270  1.2889
  358MOL0     H47245  10.112   1.242   1.918 -2.2181  2.0193 -1.9262
  358MOL0     H47246  10.351   1.374   1.951 -2.3747 -1.5200 -1.4405
  358MOL0     H47247  10.315   1.206   1.963 -2.7812  2.2573 -3.5362
  358MOL0     H47248  10.486   1.206   2.163  0.8175 -0.4597 -1.2566
  358MOL0     H47249  10.547   1.215   2.002  1.6856  1.0646  1.0086
  358MOL0     H47250  10.527   1.473   2.184 -1.6988  0.1474 -2.0441
  358MOL0     H47251  10.586   1.456   2.015  0.2703 -0.2723  0.0047
  358MOL0     H47252  10.703   1.285   2.245 -0.4232  0.4516  0.2324
  358MOL0     H47253  10.741   1.280   2.082  0.5945  0.5530  0.1555
  358MOL0     H47254  10.944   1.620   2.243  1.6116 -1.1681  0.2940
  358MOL0     H47255  10.107   1.350   2.339  0.1703 -0.1193  0.7285
  358MOL0     H47256   9.863   1.345   2.338  3.3625  2.2107  1.0831
  359MOL0     O47257   0.615   6.543   9.688 -0.2921  0.1737  0.0870
  359MOL0     C47258   0.637   6.590   9.574 -0.0784  0.4961 -1.0462
  359MOL0     O47259   0.558   6.581   9.465 -0.3518  0.1988 -0.1389
  359MOL0     C47260   0.442   6.520   9.480  1.2751  1.1190  0.1938
  359MOL0     C47261   0.357   6.553   9.585  0.3734  0.1509 -0.4332
  359MOL0     C47262   0.225   6.495   9.593 -0.5363 -0.0495 -0.6803
  359MOL0     C47263   0.184   6.406   9.489 -0.6059 -0.4894  0.4373
  359MOL0     O47264   0.056   6.361   9.466  0.4818 -0.8281  0.1992
  359MOL0     C47265  -0.037   6.397   9.568  0.3456  0.5627  0.8443
  359MOL0     C47266  -0.175   6.346   9.526 -0.2070 -0.4459 -0.2084
  359MOL0     C47267  -0.277   6.364   9.637 -0.5623 -0.9434 -0.9243
  359MOL0     C47268  -0.405   6.286   9.599  0.0507 -0.3564 -0.2303
  359MOL0     C47269  -0.471   6.234   9.733 -0.2024 -0.9554  0.3004
  359MOL0     C47270  -0.597   6.176   9.697 -0.0236  0.1980  0.5014
  359MOL0     C47271  -0.657   6.114   9.814 -0.4603 -0.1631 -0.3327
  359MOL0     C47272  -0.791   6.054   9.772 -0.8905 -0.1037  0.2417
  359MOL0     N47273  -0.862   6.011   9.895 -0.4861  0.4918 -0.0605
  359MOL0     C47274  -0.938   6.093   9.973  0.7449  0.0634 -1.0913
  359MOL0     C47275  -0.982   6.014  10.078 -0.8087 -0.4131  0.4720
  359MOL0     C47276  -1.067   6.064  10.186  0.5376 -0.0340  0.1361
  359MOL0     C47277  -1.216   6.018  10.183  0.9683  0.1678  0.2806
  359MOL0     C47278  -1.287   6.093  10.291  0.5199 -0.3077 -0.0605
  359MOL0     C47279  -1.416   6.020  10.347 -0.1041  0.3438  0.1917
  359MOL0     O47280  -1.503   6.127  10.403  0.6566 -0.4746 -0.2426
  359MOL0     C47281  -1.622   6.088  10.459 -0.1987 -0.6762  0.1434
  359MOL0     C47282  -1.694   6.183  10.538  0.8069  0.1763  0.7502
  359MOL0     C47283  -1.824   6.147  10.584 -0.5459  0.6931  0.0283
  359MOL0     C47284  -1.878   6.018  10.559 -0.0488  0.3907  0.1896
  359MOL0     C47285  -2.018   5.983  10.593 -0.0215 -0.5523 -0.7081
  359MOL0     O47286  -2.071   6.069  10.675  0.0320 -0.0640  0.7292
  359MOL0     C47287  -2.202   6.048  10.698 -0.5857  0.3276  0.9146
  359MOL0     C47288  -2.297   6.127  10.633 -0.5492 -0.6232 -0.8340
  359MOL0     C47289  -2.430   6.110  10.657 -0.5966 -0.3226  0.4872
  359MOL0     C47290  -2.473   6.016  10.752  0.1069  0.0274  0.3290
  359MOL0     O47291  -2.604   5.980  10.738 -0.0880 -0.3507 -0.3104
  359MOL0     C47292  -2.669   5.909  10.846  0.8242 -0.0238 -0.3008
  359MOL0     C47293  -2.699   5.984  10.973 -0.0995 -0.5996  0.0848
  359MOL0     C47294  -2.754   6.126  10.946  0.1095  0.4820 -0.5295
  359MOL0     C47295  -2.793   6.199  11.074 -0.8506  0.7405  0.8384
  359MOL0     C47296  -2.874   6.322  11.053  0.5598 -0.4615  0.3690
  359MOL0     C47297  -2.940   6.390  11.176  0.1395  0.5002  0.7762
  359MOL0     C47298  -3.061   6.312  11.228 -0.1569 -0.0335  0.6548
  359MOL0     C47299  -3.103   6.382  11.359  0.0758  0.2093 -0.4789
  359MOL0    Cl47300  -3.261   6.321  11.405  0.6587  0.1857 -0.3079
  359MOL0     C47301  -2.383   5.934  10.819 -0.0529  0.1163 -1.0173
  359MOL0     C47302  -2.246   5.959  10.794  0.0280 -0.4100  0.3645
  359MOL0     O47303  -2.070   5.892  10.538  0.1157 -0.1394  0.0009
  359MOL0     C47304  -1.806   5.924  10.489  0.1589  0.3565  0.0609
  359MOL0     C47305  -1.679   5.958  10.440 -1.2838  0.4745 -0.2730
  359MOL0     N47306  -0.944   5.884  10.051  0.4379 -0.9696 -0.0398
  359MOL0     N47307  -0.880   5.882   9.940  0.6240  0.0355 -0.0852
  359MOL0     C47308   0.273   6.376   9.389  0.0728  0.5579  0.4101
  359MOL0     C47309   0.394   6.432   9.384  0.4195  0.6536 -0.4622
  359MOL0     C47310   0.764   6.652   9.560 -1.1253 -0.3611  0.3629
  359MOL0     C47311   0.809   6.684   9.431 -0.8809  0.3952 -0.0754
  359MOL0     C47312   0.934   6.733   9.410 -0.2422 -0.2185  0.0429
  359MOL0     C47313   1.019   6.753   9.529  0.4939  0.5580  0.2134
  359MOL0     O47314   1.145   6.797   9.513 -1.4277  0.2023 -0.9766
  359MOL0     C47315   1.226   6.741   9.414 -0.4703 -0.2928  0.2425
  359MOL0     C47316   1.370   6.727   9.447  1.4133  0.5161 -0.2240
  359MOL0     C47317   1.373   6.640   9.570 -0.0500 -0.0582  0.1548
  359MOL0     C47318   1.514   6.589   9.572  0.3683  0.2804 -0.2912
  359MOL0     C47319   1.548   6.542   9.706  0.0225 -0.8312  0.5204
  359MOL0     C47320   1.567   6.497   9.818  0.2304 -0.2023 -0.9890
  359MOL0     C47321   0.973   6.727   9.659 -0.1229 -0.6725 -0.3739
  359MOL0     C47322   0.849   6.684   9.669  0.3513  0.0155 -0.2397
  359MOL0     H47323   0.386   6.632   9.654  0.5802  0.5512 -0.9781
  359MOL0     H47324   0.170   6.527   9.681  0.4579 -2.5159  0.9495
  359MOL0     H47325  -0.038   6.502   9.597  0.8569 -0.1451  3.8133
  359MOL0     H47326  -0.010   6.341   9.658 -0.4521 -0.5511  0.4126
  359MOL0     H47327  -0.177   6.237   9.517 -0.0141 -0.5922  1.2298
  359MOL0     H47328  -0.206   6.394   9.433 -0.3212 -3.3955 -1.8403
  359MOL0     H47329  -0.294   6.468   9.664  2.1386 -0.6023 -0.2792
  359MOL0     H47330  -0.237   6.317   9.727  4.0624  2.2917 -0.9682
  359MOL0     H47331  -0.472   6.362   9.557  0.9202  0.9019  0.6000
  359MOL0     H47332  -0.387   6.208   9.524  1.8403  0.5132 -0.7538
  359MOL0     H47333  -0.492   6.312   9.806 -4.1085 -1.4827 -0.0472
  359MOL0     H47334  -0.410   6.152   9.771  1.0541 -0.1142  0.1585
  359MOL0     H47335  -0.586   6.105   9.615  3.0716  2.0706 -0.8852
  359MOL0     H47336  -0.660   6.260   9.665  0.6409  1.2379  1.8011
  359MOL0     H47337  -0.597   6.044   9.873 -1.4129 -0.3561  0.4253
  359MOL0     H47338  -0.684   6.187   9.891 -2.6452  0.6043 -1.7434
  359MOL0     H47339  -0.778   5.971   9.702  1.1537  0.3179  0.0614
  359MOL0     H47340  -0.839   6.140   9.723  2.0614  2.5698  1.6422
  359MOL0     H47341  -0.981   6.193   9.966 -0.6231 -0.4204 -0.0977
  359MOL0     H47342  -1.059   6.172  10.191  1.9452 -0.0922 -0.5133
  359MOL0     H47343  -1.028   6.042  10.286  0.5472  4.1233  1.2057
  359MOL0     H47344  -1.228   5.910  10.199 -2.5075  0.8409  3.4488
  359MOL0     H47345  -1.260   6.041  10.085 -0.7590  1.7096  1.3638
  359MOL0     H47346  -1.220   6.109  10.377  0.7602 -1.5290 -0.0022
  359MOL0     H47347  -1.305   6.193  10.250 -2.2357 -1.6948 -2.5295
  359MOL0     H47348  -1.397   5.945  10.424 -2.5526 -3.1983 -2.3347
  359MOL0     H47349  -1.477   5.974  10.269  0.7073  0.5724 -0.5891
  359MOL0     H47350  -1.656   6.284  10.555  0.9719 -0.2353  3.0605
  359MOL0     H47351  -1.868   6.235  10.631  0.5234  1.5172 -0.4526
  359MOL0     H47352  -2.265   6.201  10.560  2.2379 -0.3760  0.5010
  359MOL0     H47353  -2.496   6.167  10.593  2.9346  1.8405 -1.5714
  359MOL0     H47354  -2.625   5.810  10.860 -0.0944 -0.3185  0.5671
  359MOL0     H47355  -2.769   5.897  10.801 -0.5636 -3.1019  3.0948
  359MOL0     H47356  -2.608   5.991  11.032  0.1767  1.2175 -0.4825
  359MOL0     H47357  -2.778   5.927  11.023  0.0584  0.0222  1.0801
  359MOL0     H47358  -2.841   6.123  10.879 -0.4245  0.1465  0.1666
  359MOL0     H47359  -2.687   6.196  10.896 -1.5550  1.9709 -0.7609
  359MOL0     H47360  -2.850   6.122  11.127 -0.6697  0.1711  0.2153
  359MOL0     H47361  -2.696   6.217  11.120  1.3595 -2.7118 -2.0004
  359MOL0     H47362  -2.953   6.295  10.983  1.4902  0.8140 -1.2237
  359MOL0     H47363  -2.817   6.396  10.997 -2.4163 -0.1660 -2.5235
  359MOL0     H47364  -2.973   6.485  11.133 -1.9205 -0.4645  0.0750
  359MOL0     H47365  -2.874   6.404  11.262 -0.0729  3.4039  0.5662
  359MOL0     H47366  -3.149   6.316  11.162 -0.9270  0.9643  1.6850
  359MOL0     H47367  -3.026   6.210  11.241 -0.0995 -0.4723 -2.2860
  359MOL0     H47368  -3.112   6.489  11.342 -0.3634  0.4504  1.1049
  359MOL0     H47369  -3.031   6.359  11.437 -4.2683 -1.9545  3.3988
  359MOL0     H47370  -2.417   5.854  10.884  1.7915 -0.4120 -0.6268
  359MOL0     H47371  -2.169   5.908  10.851  1.7397 -0.7544 -2.0562
  359MOL0     H47372  -1.860   5.830  10.477 -5.3242  2.7363  2.6688
  359MOL0     H47373  -1.626   5.882  10.383 -1.3699 -0.9404  1.4629
  359MOL0     H47374   0.241   6.304   9.314 -0.2120 -0.2579  1.2972
  359MOL0     H47375   0.471   6.396   9.316  1.1881  0.3920  0.5169
  359MOL0     H47376   0.754   6.655   9.342 -0.1175  0.7077 -0.6556
  359MOL0     H47377   0.975   6.750   9.310  0.0407  1.0251  0.3561
  359MOL0     H47378   1.236   6.820   9.339  0.5360  0.0849  0.7621
  359MOL0     H47379   1.186   6.648   9.370 -3.1926  1.8395 -2.1813
  359MOL0     H47380   1.413   6.689   9.354 -2.6690  0.1359 -2.1761
  359MOL0     H47381   1.411   6.825   9.472  0.4742  1.1296 -1.0276
  359MOL0     H47382   1.303   6.555   9.571 -0.2953  0.0973  2.6028
  359MOL0     H47383   1.344   6.696   9.659  3.7630  0.8559  0.9999
  359MOL0     H47384   1.514   6.504   9.503 -0.2169  0.0779 -0.0487
  359MOL0     H47385   1.590   6.661   9.540  0.7289  0.4652  0.9548
  359MOL0     H47386   1.591   6.474   9.920 -2.8564  0.3328 -0.0348
  359MOL0     H47387   1.036   6.741   9.747 -0.6183 -0.0536 -0.1123
  359MOL0     H47388   0.807   6.671   9.768 -1.6422 -0.5025 -1.0857
  360MOL0     O47389   4.355   5.869   3.909 -0.1130 -0.0939  0.2681
  360MOL0     C47390   4.415   5.765   3.883  1.0090  0.4638 -0.0282
  360MOL0     O47391   4.352   5.649   3.857 -0.2971  0.5555 -0.6846
  360MOL0     C47392   4.254   5.599   3.932 -0.5394  1.0428 -0.0834
  360MOL0     C47393   4.189   5.489   3.874 -0.0265  0.9489  0.0023
  360MOL0     C47394   4.088   5.417   3.942 -0.0123  0.4221 -1.2133
  360MOL0     C47395   4.029   5.466   4.052  0.5613  0.1741 -0.9769
  360MOL0     O47396   3.912   5.406   4.092  0.0581  0.5637  0.3729
  360MOL0     C47397   3.828   5.466   4.193 -0.1294  0.0698 -0.5282
  360MOL0     C47398   3.688   5.397   4.174  0.5560 -0.1068 -0.3268
  360MOL0     C47399   3.691   5.241   4.158 -0.4036  0.1057 -0.3262
  360MOL0     C47400   3.548   5.175   4.154 -0.6404 -0.2023  0.9928
  360MOL0     C47401   3.559   5.023   4.173  0.9904  0.0091 -0.6369
  360MOL0     C47402   3.428   4.950   4.141  0.4762  0.3471  0.3725
  360MOL0     C47403   3.428   4.806   4.193 -0.0464 -0.6173  0.5997
  360MOL0     C47404   3.307   4.726   4.161  0.4145  0.1016 -0.8104
  360MOL0     N47405   3.182   4.792   4.217  0.0800  1.0972  0.0216
  360MOL0     C47406   3.096   4.867   4.147  0.9436 -0.2198 -0.5038
  360MOL0     C47407   2.994   4.889   4.240  0.9803  0.1418  1.2436
  360MOL0     C47408   2.862   4.962   4.208 -0.5605 -0.4308 -0.9632
  360MOL0     C47409   2.763   4.964   4.327  0.3104 -0.3542 -0.5621
  360MOL0     C47410   2.629   5.030   4.294 -0.7174  0.2414  0.5499
  360MOL0     C47411   2.542   4.936   4.208  0.2191  0.0986 -0.2950
  360MOL0     O47412   2.425   5.000   4.155  0.6025 -0.3205  0.6429
  360MOL0     C47413   2.304   4.986   4.226 -1.3225  0.1863  1.0157
  360MOL0     C47414   2.184   4.986   4.157 -0.7445  0.7905 -0.3210
  360MOL0     C47415   2.057   4.967   4.217 -0.2480  0.2810  0.1805
  360MOL0     C47416   2.046   4.955   4.354 -0.0356 -0.4477 -0.8426
  360MOL0     C47417   1.916   4.938   4.422 -0.1627 -0.0509 -0.2685
  360MOL0     O47418   1.920   4.938   4.560  0.6584  0.3113  0.2954
  360MOL0     C47419   1.803   4.915   4.634  0.1122 -0.0532 -0.8751
  360MOL0     C47420   1.823   4.869   4.764  0.3756  0.0499 -0.9776
  360MOL0     C47421   1.726   4.877   4.865 -0.8813  0.8263 -0.2068
  360MOL0     C47422   1.597   4.921   4.827 -0.2611  0.4392 -0.3204
  360MOL0     O47423   1.489   4.934   4.906  0.4126 -0.1455  0.4877
  360MOL0     C47424   1.497   4.897   5.045  0.1254  0.1414  0.3647
  360MOL0     C47425   1.362   4.919   5.120 -0.5308  0.1994  0.7031
  360MOL0     C47426   1.303   5.063   5.120  0.0090  0.1128  0.2338
  360MOL0     C47427   1.184   5.097   5.208 -0.3140  0.3242 -0.5618
  360MOL0     C47428   1.145   5.246   5.205  0.2492  0.1216 -0.1738
  360MOL0     C47429   1.066   5.273   5.073  0.2778 -0.1755 -0.3994
  360MOL0     C47430   1.021   5.419   5.077 -0.9067 -0.2543  0.2099
  360MOL0     C47431   0.885   5.424   5.142 -0.4559  0.6957 -0.4152
  360MOL0    Cl47432   0.818   5.579   5.120  0.1047 -0.0635  0.2072
  360MOL0     C47433   1.576   4.963   4.695  0.6844  0.1800  0.0982
  360MOL0     C47434   1.673   4.957   4.598  0.2412 -0.3104 -0.3642
  360MOL0     O47435   1.817   4.924   4.352  0.2629 -0.7033 -0.2299
  360MOL0     C47436   2.171   4.962   4.424 -0.2269  0.7817 -0.5823
  360MOL0     C47437   2.301   4.972   4.363  0.6174  0.3610 -0.2915
  360MOL0     N47438   3.019   4.822   4.354  0.0761 -0.5732  0.2571
  360MOL0     N47439   3.143   4.774   4.345  0.8684  0.4299  0.4908
  360MOL0     C47440   4.091   5.577   4.113 -0.3394  0.7217 -0.2570
  360MOL0     C47441   4.198   5.640   4.056  0.1957  0.1384 -0.5949
  360MOL0     C47442   4.560   5.761   3.879 -0.1494  0.9601  0.3968
  360MOL0     C47443   4.630   5.865   3.928 -0.2966 -0.4574 -0.1199
  360MOL0     C47444   4.770   5.861   3.933  0.4538  0.2793  0.0497
  360MOL0     C47445   4.839   5.754   3.881  0.2548 -0.6889  0.8903
  360MOL0     O47446   4.976   5.765   3.882 -0.2502  0.0880 -0.1806
  360MOL0     C47447   5.048   5.667   3.961  0.1181 -0.1921 -0.1119
  360MOL0     C47448   5.183   5.713   4.014  0.2753  0.5702 -0.4062
  360MOL0     C47449   5.247   5.822   3.934  0.0886 -0.6594 -0.2139
  360MOL0     C47450   5.372   5.870   4.009 -0.0537  0.0017  0.7461
  360MOL0     C47451   5.456   5.938   3.909  0.3596  0.1352 -0.3799
  360MOL0     C47452   5.530   5.989   3.828 -0.5126 -0.6529 -0.0182
  360MOL0     C47453   4.768   5.640   3.832  0.8137 -0.5989 -0.9707
  360MOL0     C47454   4.628   5.645   3.825 -0.2128  0.0886  0.1776
  360MOL0     H47455   4.218   5.459   3.774 -0.6580 -3.2769  0.8812
  360MOL0     H47456   4.040   5.330   3.898  1.3844 -1.3149  0.5008
  360MOL0     H47457   3.819   5.573   4.173  2.3546  0.8244  1.7559
  360MOL0     H47458   3.871   5.444   4.291  0.4726 -1.7145 -1.1457
  360MOL0     H47459   3.644   5.426   4.078 -0.3244  0.8374  0.3364
  360MOL0     H47460   3.620   5.423   4.256 -0.9777 -0.6976 -1.3645
  360MOL0     H47461   3.745   5.201   4.245 -1.0107 -1.6554 -0.7122
  360MOL0     H47462   3.747   5.208   4.070 -0.3136 -0.4599 -0.0628
  360MOL0     H47463   3.475   5.219   4.223 -3.9321 -1.1632 -1.5580
  360MOL0     H47464   3.514   5.199   4.052  1.9805 -1.1699 -0.2025
  360MOL0     H47465   3.576   5.004   4.280 -1.2766 -2.0302 -0.5311
  360MOL0     H47466   3.637   4.967   4.121 -1.2565 -2.9017 -1.1769
  360MOL0     H47467   3.407   4.951   4.034 -0.6053 -3.9618  0.3702
  360MOL0     H47468   3.343   5.003   4.187  1.3627  2.2605 -0.0711
  360MOL0     H47469   3.517   4.749   4.165  0.3276  1.3876 -2.8569
  360MOL0     H47470   3.435   4.805   4.302 -0.7292  1.3055  0.7101
  360MOL0     H47471   3.328   4.624   4.194  3.9130  0.8742 -0.2589
  360MOL0     H47472   3.302   4.717   4.052  0.6951 -0.5879 -0.7694
  360MOL0     H47473   3.108   4.901   4.045  1.9534  0.6209 -0.1227
  360MOL0     H47474   2.817   4.906   4.125  0.7595  0.0646 -2.0534
  360MOL0     H47475   2.877   5.066   4.177  0.5119 -0.2204  0.1847
  360MOL0     H47476   2.813   5.020   4.406  2.4324 -1.9193 -0.6963
  360MOL0     H47477   2.758   4.863   4.369  3.4433  0.8492  3.3742
  360MOL0     H47478   2.576   5.063   4.384 -3.1677  1.2909 -1.1601
  360MOL0     H47479   2.640   5.114   4.224 -2.0082 -0.5364 -0.6424
  360MOL0     H47480   2.519   4.852   4.274  0.5379  0.2262 -0.0109
  360MOL0     H47481   2.595   4.879   4.132  0.5069 -0.5890  0.4006
  360MOL0     H47482   2.189   4.994   4.049 -1.0855 -0.6423 -0.4551
  360MOL0     H47483   1.972   4.963   4.149 -1.4867 -0.7777  1.7008
  360MOL0     H47484   1.920   4.829   4.791  2.3618  1.7917 -4.7031
  360MOL0     H47485   1.741   4.828   4.960  0.0083  0.3305 -0.5879
  360MOL0     H47486   1.578   4.951   5.095 -0.0337  0.1704  0.5912
  360MOL0     H47487   1.524   4.791   5.047  0.5695  0.2590  2.2675
  360MOL0     H47488   1.377   4.881   5.222 -1.8717  0.2129  0.9293
  360MOL0     H47489   1.283   4.863   5.069 -1.0039  1.0291  0.4998
  360MOL0     H47490   1.272   5.093   5.020  1.3617  4.0099  0.7843
  360MOL0     H47491   1.383   5.132   5.150 -1.6519  2.8420 -1.2405
  360MOL0     H47492   1.105   5.042   5.157 -0.2176  0.3901 -0.7827
  360MOL0     H47493   1.203   5.066   5.311 -2.5658  0.6560  0.0029
  360MOL0     H47494   1.228   5.314   5.226 -0.0278  0.2986  0.3695
  360MOL0     H47495   1.075   5.269   5.286  0.2095  0.5739 -0.3335
  360MOL0     H47496   0.975   5.214   5.061 -0.9559  0.8386  2.8644
  360MOL0     H47497   1.136   5.252   4.992  0.7552 -0.5857  0.1150
  360MOL0     H47498   1.086   5.481   5.140 -0.5336 -1.2482  0.8477
  360MOL0     H47499   1.036   5.472   4.983 -0.0047 -3.0932 -1.3596
  360MOL0     H47500   0.877   5.389   5.245 -2.6270 -1.1438 -1.1179
  360MOL0     H47501   0.821   5.355   5.085 -0.0010  0.4499 -0.6370
  360MOL0     H47502   1.480   5.004   4.665  1.5184  0.3388 -2.6656
  360MOL0     H47503   1.658   5.011   4.505  0.4138 -0.1173 -0.2798
  360MOL0     H47504   2.167   4.942   4.530  0.0343 -2.1099 -1.0274
  360MOL0     H47505   2.396   4.970   4.415  1.1554  0.7951 -1.2199
  360MOL0     H47506   4.073   5.610   4.215  3.1730  2.7492 -0.1103
  360MOL0     H47507   4.239   5.723   4.112  1.3545 -1.0642  0.4294
  360MOL0     H47508   4.578   5.946   3.976 -0.0626 -0.5268  0.2546
  360MOL0     H47509   4.824   5.936   3.989  1.3689 -1.3022  1.3650
  360MOL0     H47510   5.058   5.577   3.900  0.5677 -1.2376  1.4612
  360MOL0     H47511   4.988   5.629   4.044  2.3660  1.0878  2.2534
  360MOL0     H47512   5.174   5.738   4.120 -0.9901 -1.0002 -0.1007
  360MOL0     H47513   5.242   5.621   4.014 -0.5797 -0.0450  1.7317
  360MOL0     H47514   5.175   5.904   3.941 -0.0777 -0.9420  2.7237
  360MOL0     H47515   5.265   5.790   3.831 -1.6943  1.9494 -1.4385
  360MOL0     H47516   5.351   5.936   4.093 -0.0869  0.8693  0.0696
  360MOL0     H47517   5.419   5.784   4.059 -1.0684 -1.9695 -1.4872
  360MOL0     H47518   5.591   6.047   3.761  1.9102 -2.1984  0.7254
  360MOL0     H47519   4.838   5.560   3.808  1.3085 -0.6185  0.4811
  360MOL0     H47520   4.589   5.552   3.785 -0.0393 -0.6792  1.6890
  361MOL0     O47521   4.230   9.961   2.010 -0.7883 -0.7871  0.4557
  361MOL0     C47522   4.293   9.926   2.109 -0.0503 -0.0350 -0.3303
  361MOL0     O47523   4.241   9.899   2.236 -0.5826 -0.2914  0.8748
  361MOL0     C47524   4.110   9.897   2.257  0.1558  0.6631 -0.8746
  361MOL0     C47525   4.016   9.998   2.230 -0.4526 -0.2697  0.1588
  361MOL0     C47526   3.885  10.005   2.279  0.1763 -0.2180 -0.1180
  361MOL0     C47527   3.840   9.897   2.354  0.3799 -0.0681 -0.4816
  361MOL0     O47528   3.710   9.911   2.404 -0.1553 -0.0044  0.7040
  361MOL0     C47529   3.653   9.791   2.460 -0.1480 -0.7071  0.3357
  361MOL0     C47530   3.519   9.817   2.530 -0.0414 -0.9823  0.3265
  361MOL0     C47531   3.417   9.888   2.432 -0.7970  0.2754 -0.6982
  361MOL0     C47532   3.289   9.931   2.493 -1.0964 -0.4068  0.2343
  361MOL0     C47533   3.189   9.940   2.379  0.5429  0.3913  0.4155
  361MOL0     C47534   3.072  10.044   2.401  1.0109  0.0310 -0.0259
  361MOL0     C47535   3.009  10.048   2.262 -0.0148 -0.5859 -0.4498
  361MOL0     C47536   2.876  10.128   2.278  0.5635 -0.5015  0.3190
  361MOL0     N47537   2.773  10.056   2.361 -0.1487 -0.0967  0.5657
  361MOL0     C47538   2.712   9.939   2.327  0.5724  0.5041 -0.8506
  361MOL0     C47539   2.625   9.919   2.431 -0.0686  0.3404  1.0491
  361MOL0     C47540   2.524   9.812   2.442  0.5993  0.2322  0.0774
  361MOL0     C47541   2.405   9.845   2.357  0.1827 -0.6338  0.2853
  361MOL0     C47542   2.313   9.729   2.350 -0.3399 -0.0121 -0.2836
  361MOL0     C47543   2.179   9.764   2.276  0.7670 -0.0026 -0.5714
  361MOL0     O47544   2.089   9.659   2.303 -0.8255  0.4138  0.3074
  361MOL0     C47545   1.960   9.699   2.317  0.5935 -0.3193  0.5403
  361MOL0     C47546   1.875   9.616   2.385  0.3207 -0.1030  0.2547
  361MOL0     C47547   1.741   9.638   2.397  0.0836 -0.3608  0.0207
  361MOL0     C47548   1.690   9.748   2.336 -0.6007  0.2151  0.2829
  361MOL0     C47549   1.543   9.767   2.337  0.3084  0.0644 -0.9002
  361MOL0     O47550   1.490   9.811   2.217  0.5278  0.2240 -0.0605
  361MOL0     C47551   1.350   9.796   2.212  0.5997 -0.9231 -0.7588
  361MOL0     C47552   1.296   9.679   2.171  0.4626  0.4390 -0.3040
  361MOL0     C47553   1.156   9.664   2.157  0.1322  0.5762 -0.1465
  361MOL0     C47554   1.066   9.767   2.194  0.3595 -0.0183 -0.6387
  361MOL0     O47555   0.929   9.744   2.177 -0.5171  0.0507 -0.8842
  361MOL0     C47556   0.830   9.838   2.219  0.9591  0.0494 -0.8320
  361MOL0     C47557   0.694   9.788   2.182  0.4178  0.0943  0.3456
  361MOL0     C47558   0.644   9.654   2.241  0.2893  0.8371  0.7761
  361MOL0     C47559   0.512   9.637   2.168  0.5000 -0.1041  0.2617
  361MOL0     C47560   0.441   9.508   2.205 -0.7823 -1.1232  0.4517
  361MOL0     C47561   0.315   9.507   2.124  0.7901  0.3949  0.3425
  361MOL0     C47562   0.247   9.369   2.128 -0.2116  0.0191 -0.3374
  361MOL0     C47563   0.122   9.360   2.042 -0.2574  0.0472  0.4589
  361MOL0    Cl47564   0.018   9.235   2.108  0.1714  0.2320 -0.4875
  361MOL0     C47565   1.129   9.883   2.239 -0.0157  0.2300  1.0962
  361MOL0     C47566   1.267   9.901   2.240 -0.2537 -0.8381 -0.6568
  361MOL0     O47567   1.478   9.732   2.439  0.4053  0.0403  0.6688
  361MOL0     C47568   1.769   9.845   2.273  0.0825  0.2527  0.7178
  361MOL0     C47569   1.901   9.819   2.256 -0.8343  0.0562  0.2938
  361MOL0     N47570   2.653  10.016   2.530 -0.0626  0.2774 -0.5660
  361MOL0     N47571   2.739  10.095   2.484 -0.0846 -1.0708 -0.1796
  361MOL0     C47572   3.927   9.788   2.374 -0.4417  0.7234  0.2846
  361MOL0     C47573   4.064   9.790   2.335  0.1127  0.1628 -0.1368
  361MOL0     C47574   4.440   9.938   2.098 -0.1248  0.3520  0.6097
  361MOL0     C47575   4.526   9.913   2.203  0.1640 -0.2890 -0.0538
  361MOL0     C47576   4.666   9.940   2.190  0.0100 -0.1033 -0.3479
  361MOL0     C47577   4.724  10.003   2.078  1.6391 -0.0435  0.5514
  361MOL0     O47578   4.854  10.038   2.062 -0.1226  0.7425  0.1901
  361MOL0     C47579   4.913  10.097   2.178 -0.2346  0.0699 -0.3531
  361MOL0     C47580   5.011   9.988   2.243  0.9564 -0.0647 -0.1883
  361MOL0     C47581   5.139   9.972   2.164  0.3894  0.9721 -0.0667
  361MOL0     C47582   5.225   9.841   2.196  0.6267  1.2610  0.5890
  361MOL0     C47583   5.276   9.829   2.332 -0.0740 -0.5716  0.3052
  361MOL0     C47584   5.288   9.825   2.455 -0.2309  0.3628  0.8025
  361MOL0     C47585   4.639  10.025   1.968  1.1821  0.8409 -0.0894
  361MOL0     C47586   4.500   9.996   1.980 -0.4869  0.7309  0.1914
  361MOL0     H47587   4.055  10.087   2.181 -1.4775  1.3069  2.0783
  361MOL0     H47588   3.825  10.091   2.249 -0.0596 -0.0811  0.7388
  361MOL0     H47589   3.716   9.773   2.547 -1.8312  2.2225  2.3331
  361MOL0     H47590   3.647   9.709   2.388  0.7564 -1.4222  1.0460
  361MOL0     H47591   3.528   9.878   2.620 -3.3961  1.8865 -1.0310
  361MOL0     H47592   3.478   9.721   2.563 -3.0876  0.5182  1.2810
  361MOL0     H47593   3.387   9.813   2.358  1.3818 -0.8194 -0.5593
  361MOL0     H47594   3.465   9.965   2.372 -1.5553 -0.8682 -2.9096
  361MOL0     H47595   3.251   9.867   2.573  0.3956  4.2727  5.3473
  361MOL0     H47596   3.303  10.034   2.529 -2.2635  0.5185 -1.7772
  361MOL0     H47597   3.136   9.845   2.365  1.3412 -0.0488  0.3405
  361MOL0     H47598   3.239   9.951   2.282 -2.1899 -2.5414 -1.5349
  361MOL0     H47599   3.107  10.144   2.432  1.4732 -1.0166  3.2153
  361MOL0     H47600   3.007  10.013   2.482  0.7502 -1.3987 -0.7579
  361MOL0     H47601   3.076  10.106   2.198 -1.2234  4.5557  2.3520
  361MOL0     H47602   2.984   9.948   2.225 -1.7547 -0.6965  0.8582
  361MOL0     H47603   2.832  10.132   2.178  0.2981 -0.4340  0.4367
  361MOL0     H47604   2.890  10.228   2.318 -0.2881 -0.0986 -0.3527
  361MOL0     H47605   2.727   9.872   2.243  0.9350  0.5939 -0.8599
  361MOL0     H47606   2.483   9.779   2.538 -3.6856 -2.6692 -2.3978
  361MOL0     H47607   2.573   9.722   2.405 -1.8554 -0.7561 -1.0316
  361MOL0     H47608   2.439   9.871   2.256  0.0741 -2.4498 -0.2540
  361MOL0     H47609   2.356   9.934   2.397  1.6725 -1.0370  3.3134
  361MOL0     H47610   2.355   9.647   2.291 -3.1391 -1.3268 -0.6238
  361MOL0     H47611   2.304   9.692   2.452  0.5806 -0.8163 -0.4838
  361MOL0     H47612   2.199   9.781   2.170 -3.1561 -0.2904 -1.4734
  361MOL0     H47613   2.143   9.862   2.309 -1.8277 -0.7554 -1.0152
  361MOL0     H47614   1.912   9.526   2.431  0.4206  0.3807  1.1395
  361MOL0     H47615   1.678   9.574   2.458  0.1847 -0.6070 -0.1331
  361MOL0     H47616   1.355   9.599   2.129 -2.3677 -0.7897 -2.2652
  361MOL0     H47617   1.114   9.571   2.122  0.0654  0.1505  1.0239
  361MOL0     H47618   0.842   9.928   2.159  2.1077 -1.1184 -2.4351
  361MOL0     H47619   0.846   9.877   2.320 -0.5915 -0.7566 -0.2382
  361MOL0     H47620   0.697   9.780   2.073 -2.8601 -1.3387  0.2271
  361MOL0     H47621   0.624   9.870   2.203  0.1951  0.1719 -0.6469
  361MOL0     H47622   0.642   9.674   2.348  3.2723  1.3362  0.8179
  361MOL0     H47623   0.710   9.568   2.227 -1.7089 -0.5682 -0.6455
  361MOL0     H47624   0.445   9.721   2.189 -4.1224 -3.4523  0.3627
  361MOL0     H47625   0.538   9.624   2.062  2.8124 -0.0100  0.7767
  361MOL0     H47626   0.420   9.504   2.312 -1.7456 -1.5252  0.2536
  361MOL0     H47627   0.503   9.420   2.188 -0.4113 -0.5113 -1.7159
  361MOL0     H47628   0.334   9.525   2.018 -1.2253 -1.0980 -0.3485
  361MOL0     H47629   0.246   9.582   2.165  2.2564  1.1816  1.4470
  361MOL0     H47630   0.319   9.293   2.098  1.0414  1.4934 -1.2700
  361MOL0     H47631   0.223   9.344   2.231  2.4656 -0.6916  0.1885
  361MOL0     H47632   0.129   9.357   1.933  0.3242 -1.7196  0.5044
  361MOL0     H47633   0.066   9.451   2.066 -0.9497 -0.4392  0.7364
  361MOL0     H47634   1.068   9.962   2.280 -1.7340 -0.4270 -0.0981
  361MOL0     H47635   1.318   9.992   2.269  0.1531 -0.0991 -3.3818
  361MOL0     H47636   1.726   9.935   2.230  1.1514 -0.2195 -1.4937
  361MOL0     H47637   1.963   9.876   2.187  0.2633  1.4191  2.2816
  361MOL0     H47638   3.905   9.690   2.414  1.1810  0.1505 -0.1339
  361MOL0     H47639   4.141   9.720   2.366 -0.2992 -0.1405  0.2158
  361MOL0     H47640   4.498   9.870   2.298  1.5131  1.4264  1.1879
  361MOL0     H47641   4.728   9.905   2.272  0.5553 -1.3202 -1.2448
  361MOL0     H47642   4.836  10.136   2.245  1.1849  1.7688  0.3976
  361MOL0     H47643   4.960  10.193   2.152 -1.6521  0.8280 -0.2108
  361MOL0     H47644   5.046  10.030   2.338  2.6602 -2.3281  0.2862
  361MOL0     H47645   4.966   9.891   2.266 -0.9906  0.6731 -0.7080
  361MOL0     H47646   5.211  10.044   2.203  3.0690 -1.8731  0.6554
  361MOL0     H47647   5.114   9.977   2.058  1.7143 -1.4910 -0.5578
  361MOL0     H47648   5.168   9.755   2.161 -0.0209  0.5681  3.1044
  361MOL0     H47649   5.315   9.839   2.134 -0.7320  1.2681 -1.4512
  361MOL0     H47650   5.297   9.820   2.562 -0.4318  1.1285  0.8634
  361MOL0     H47651   4.679  10.070   1.878 -3.3288  2.5306 -1.5521
  361MOL0     H47652   4.435  10.025   1.898 -2.2643 -1.8248  0.5885
  362MOL0     O47653   1.320   4.165   6.744 -0.3457 -0.1518  0.7237
  362MOL0     C47654   1.352   4.257   6.667  0.2556  0.4175 -0.6263
  362MOL0     O47655   1.260   4.329   6.599 -0.1951 -0.3351 -0.0031
  362MOL0     C47656   1.127   4.309   6.596  0.4067  0.5142 -0.3660
  362MOL0     C47657   1.055   4.199   6.649 -0.1968 -0.9347 -0.6083
  362MOL0     C47658   0.914   4.197   6.632 -0.0328  0.3836  0.3233
  362MOL0     C47659   0.844   4.308   6.568  0.4631 -0.4943 -0.5232
  362MOL0     O47660   0.704   4.308   6.576  0.6340 -0.0579 -0.0652
  362MOL0     C47661   0.637   4.189   6.516 -0.4548 -0.6143  0.0897
  362MOL0     C47662   0.546   4.212   6.399 -0.0192  0.5343 -0.5285
  362MOL0     C47663   0.466   4.336   6.414  0.9276 -1.3565 -0.8213
  362MOL0     C47664   0.325   4.328   6.345 -0.0803 -0.6530  0.2302
  362MOL0     C47665   0.247   4.461   6.369  0.0060  0.2328  0.2938
  362MOL0     C47666   0.102   4.473   6.299 -0.4538  0.5416 -0.5563
  362MOL0     C47667   0.002   4.370   6.369  0.3924 -0.6802  0.2316
  362MOL0     C47668  -0.151   4.409   6.367 -0.1962  0.1288  0.1505
  362MOL0     N47669  -0.176   4.412   6.225 -0.1656  0.3431 -0.2942
  362MOL0     C47670  -0.172   4.512   6.134  0.1750  0.3002 -0.4926
  362MOL0     C47671  -0.194   4.460   6.017 -0.3123 -1.1417  0.9654
  362MOL0     C47672  -0.189   4.539   5.897  0.4273 -0.4561 -0.1034
  362MOL0     C47673  -0.049   4.589   5.854  0.0194  0.9931 -0.4740
  362MOL0     C47674   0.066   4.480   5.855 -0.2254 -0.7198 -0.2962
  362MOL0     C47675   0.028   4.337   5.825 -0.6998 -0.0508 -0.2354
  362MOL0     O47676   0.119   4.269   5.739 -0.6749 -0.0197 -0.2898
  362MOL0     C47677   0.245   4.255   5.774  0.1212 -0.0489 -0.0313
  362MOL0     C47678   0.298   4.266   5.901 -0.2947 -0.0474 -0.1972
  362MOL0     C47679   0.438   4.261   5.923  1.0831 -0.9542  0.0197
  362MOL0     C47680   0.522   4.234   5.816 -0.4545 -0.0095  0.1993
  362MOL0     C47681   0.676   4.246   5.838  0.1708 -0.1239  0.1208
  362MOL0     O47682   0.757   4.206   5.746 -0.4294 -0.1574 -0.2119
  362MOL0     C47683   0.895   4.205   5.750  0.7238  1.2822  0.1323
  362MOL0     C47684   0.955   4.085   5.696  0.3765  0.1807 -0.4890
  362MOL0     C47685   1.095   4.075   5.707  0.4433  0.4633 -0.7996
  362MOL0     C47686   1.175   4.175   5.752  0.4771 -0.5336 -0.1668
  362MOL0     O47687   1.307   4.150   5.745  0.1667 -0.1736  0.3602
  362MOL0     C47688   1.392   4.262   5.756 -0.1151 -0.1234 -0.7671
  362MOL0     C47689   1.528   4.198   5.721  0.6457 -0.1233 -0.1722
  362MOL0     C47690   1.655   4.277   5.752  0.5304  0.5905  0.5819
  362MOL0     C47691   1.680   4.264   5.900 -0.5741 -0.2956  0.7830
  362MOL0     C47692   1.799   4.353   5.946  0.1905 -1.1904 -0.8609
  362MOL0     C47693   1.751   4.493   5.969  0.3852 -0.6758 -0.3446
  362MOL0     C47694   1.789   4.567   6.096  0.6953 -0.7706 -0.3079
  362MOL0     C47695   1.728   4.713   6.107 -0.1484 -0.9849 -0.1694
  362MOL0    Cl47696   1.557   4.690   6.136  0.0499  0.1737 -0.2154
  362MOL0     C47697   1.117   4.293   5.800  0.3049  0.0168  0.3050
  362MOL0     C47698   0.978   4.306   5.804 -0.6739 -0.9240 -0.2117
  362MOL0     O47699   0.709   4.304   5.939  0.3876 -0.1422  0.0805
  362MOL0     C47700   0.466   4.229   5.686 -0.3288  0.4496  0.0901
  362MOL0     C47701   0.327   4.237   5.671 -0.4663  0.1530 -0.2147
  362MOL0     N47702  -0.216   4.324   6.020  0.2611 -0.3188  0.4269
  362MOL0     N47703  -0.189   4.297   6.140 -0.1299 -0.0953 -0.3995
  362MOL0     C47704   0.918   4.413   6.521  0.1329 -1.0907  0.9933
  362MOL0     C47705   1.057   4.421   6.541 -0.4501 -0.5892  0.1475
  362MOL0     C47706   1.493   4.287   6.647 -0.3242  0.2792 -0.8656
  362MOL0     C47707   1.538   4.376   6.552 -0.0362  0.1832 -0.6744
  362MOL0     C47708   1.669   4.421   6.540  0.0589 -0.2720 -0.9256
  362MOL0     C47709   1.769   4.357   6.633  0.2007  0.0949  1.1402
  362MOL0     O47710   1.904   4.380   6.625  0.1488 -0.0072 -0.7883
  362MOL0     C47711   1.960   4.473   6.533  0.0825  0.3237 -0.5177
  362MOL0     C47712   2.112   4.453   6.508  0.6413 -0.4978  0.0409
  362MOL0     C47713   2.174   4.523   6.392  0.1739  0.1872  0.1629
  362MOL0     C47714   2.329   4.518   6.407 -0.1012  0.1102 -0.4140
  362MOL0     C47715   2.391   4.563   6.283 -0.2974 -0.3822 -1.1149
  362MOL0     C47716   2.458   4.580   6.181 -0.2785  0.4634  1.1573
  362MOL0     C47717   1.731   4.270   6.732 -0.3667 -0.4338  0.1825
  362MOL0     C47718   1.592   4.233   6.742  0.1979 -0.6536 -0.3246
  362MOL0     H47719   1.108   4.114   6.690  0.3054 -0.6998 -0.7593
  362MOL0     H47720   0.864   4.115   6.682 -1.9188  0.2860 -1.5334
  362MOL0     H47721   0.580   4.146   6.599  0.1172 -3.7498 -1.0031
  362MOL0     H47722   0.719   4.124   6.482  1.5062  1.5248  0.4579
  362MOL0     H47723   0.483   4.124   6.383  0.8817 -0.3081  0.4273
  362MOL0     H47724   0.607   4.222   6.309 -0.3251 -2.4849 -1.1685
  362MOL0     H47725   0.520   4.410   6.354 -0.9621  0.1070 -0.7916
  362MOL0     H47726   0.468   4.385   6.511 -0.0253 -0.2311 -1.3437
  362MOL0     H47727   0.331   4.298   6.240  1.0609 -1.2230  0.4442
  362MOL0     H47728   0.261   4.250   6.387 -0.1490  0.0559  1.4913
  362MOL0     H47729   0.320   4.541   6.362 -0.8707  0.9597 -0.9722
  362MOL0     H47730   0.227   4.467   6.477 -0.4883 -0.3361  0.2430
  362MOL0     H47731   0.109   4.442   6.194  1.3345 -0.8165 -0.0907
  362MOL0     H47732   0.063   4.575   6.302 -2.1696 -0.0344 -1.8941
  362MOL0     H47733   0.015   4.270   6.325 -0.0820  0.7979 -3.7330
  362MOL0     H47734   0.029   4.370   6.475 -1.5447 -1.8001  0.7704
  362MOL0     H47735  -0.172   4.509   6.408 -2.1505  0.2407 -1.0112
  362MOL0     H47736  -0.210   4.335   6.422 -4.4483  4.4702  2.2227
  362MOL0     H47737  -0.161   4.617   6.159 -0.4139 -0.0069  1.2075
  362MOL0     H47738  -0.249   4.630   5.914  1.6026  0.5150 -0.9950
  362MOL0     H47739  -0.237   4.489   5.812 -0.4485  3.2591 -2.0247
  362MOL0     H47740  -0.018   4.676   5.913  0.3246  0.0563  0.7778
  362MOL0     H47741  -0.059   4.627   5.752 -1.4808  1.1019 -0.3130
  362MOL0     H47742   0.134   4.511   5.776 -1.1178  0.9728 -0.4439
  362MOL0     H47743   0.115   4.498   5.952 -1.7798  1.5497  0.1489
  362MOL0     H47744  -0.068   4.329   5.773 -0.1856 -1.1286 -1.0848
  362MOL0     H47745   0.017   4.273   5.913 -0.3265 -1.1230 -0.9420
  362MOL0     H47746   0.246   4.288   5.994 -1.0653  1.4624 -0.9557
  362MOL0     H47747   0.478   4.281   6.022  0.7614 -0.1839 -0.0074
  362MOL0     H47748   0.897   4.004   5.652 -0.7547  2.8356 -4.4432
  362MOL0     H47749   1.139   3.986   5.662 -0.4955 -0.0022 -0.8209
  362MOL0     H47750   1.398   4.296   5.860  0.1789  3.4784 -1.8322
  362MOL0     H47751   1.364   4.346   5.691 -2.5896  0.6383  1.1234
  362MOL0     H47752   1.524   4.178   5.614 -1.3824 -1.2363  0.0802
  362MOL0     H47753   1.537   4.105   5.777  2.6589  0.3978  0.4910
  362MOL0     H47754   1.660   4.379   5.714 -1.2405 -0.4452 -2.9401
  362MOL0     H47755   1.726   4.218   5.695 -2.9404 -0.9576 -2.5975
  362MOL0     H47756   1.587   4.298   5.947 -1.4825  1.2187 -1.9240
  362MOL0     H47757   1.698   4.160   5.929 -2.4901 -0.5478  1.2141
  362MOL0     H47758   1.881   4.356   5.874 -0.8077  0.9634 -2.0122
  362MOL0     H47759   1.824   4.318   6.046 -0.6564  0.3082 -0.0786
  362MOL0     H47760   1.641   4.495   5.964  0.2950  1.6719  1.0857
  362MOL0     H47761   1.782   4.554   5.884  0.4693 -0.3666 -0.0944
  362MOL0     H47762   1.744   4.510   6.178  0.9427 -1.3623 -0.5793
  362MOL0     H47763   1.898   4.566   6.101  0.6741 -1.2328  0.1694
  362MOL0     H47764   1.743   4.773   6.017 -0.5016  1.6661  1.4393
  362MOL0     H47765   1.761   4.770   6.194 -0.8486 -1.4781  0.4274
  362MOL0     H47766   1.182   4.371   5.838  0.3467 -0.7365  1.8748
  362MOL0     H47767   0.927   4.391   5.847 -1.6846 -0.3776 -2.3575
  362MOL0     H47768   0.539   4.217   5.607 -3.0008 -1.2313 -2.3282
  362MOL0     H47769   0.282   4.224   5.573 -1.9907  1.0343  0.3322
  362MOL0     H47770   0.854   4.494   6.486  0.1292 -0.2534  2.8220
  362MOL0     H47771   1.111   4.505   6.499  0.3093 -1.8459 -1.5183
  362MOL0     H47772   1.475   4.417   6.474 -1.1784 -2.4527 -1.2670
  362MOL0     H47773   1.703   4.501   6.475 -0.7947  0.3276 -0.6449
  362MOL0     H47774   1.942   4.573   6.574 -0.4414 -0.0932  0.2958
  362MOL0     H47775   1.901   4.459   6.442  0.0218 -0.4722 -0.3634
  362MOL0     H47776   2.161   4.477   6.603  1.7152  0.3516 -0.6981
  362MOL0     H47777   2.136   4.349   6.485 -2.1228 -0.7207 -2.3240
  362MOL0     H47778   2.121   4.619   6.390 -2.0382 -0.8664  2.0631
  362MOL0     H47779   2.139   4.476   6.300  2.6064 -0.0277 -0.7165
  362MOL0     H47780   2.347   4.590   6.487 -2.7617  0.5187 -0.0883
  362MOL0     H47781   2.363   4.417   6.433 -1.8619 -0.5637 -0.6130
  362MOL0     H47782   2.527   4.589   6.100 -0.0909  1.1319  1.3880
  362MOL0     H47783   1.800   4.237   6.810 -2.5285 -1.7529  1.6569
  362MOL0     H47784   1.563   4.163   6.821  0.6914  1.7073  2.0962
  363MOL0     O47785   2.755   8.073   1.941 -0.5114  0.0629 -0.6722
  363MOL0     C47786   2.767   7.961   1.898 -0.8676 -0.4880  1.3245
  363MOL0     O47787   2.667   7.870   1.884 -0.1348 -0.0958  0.2080
  363MOL0     C47788   2.531   7.894   1.918  0.0759  0.3997 -0.7216
  363MOL0     C47789   2.464   7.795   1.989  0.3266  0.1400  0.1289
  363MOL0     C47790   2.327   7.814   2.028  0.0126 -0.0815 -0.7105
  363MOL0     C47791   2.247   7.914   1.980  0.2995 -0.3074 -1.2830
  363MOL0     O47792   2.113   7.911   2.015 -0.3652  0.1905  0.0610
  363MOL0     C47793   2.045   8.036   2.031  0.4226  0.4124 -0.8365
  363MOL0     C47794   1.942   8.019   2.144  0.3078  0.0319  0.3041
  363MOL0     C47795   1.791   7.981   2.104  0.1333 -0.9222 -0.5038
  363MOL0     C47796   1.790   7.832   2.065 -0.3552 -0.5464 -0.4701
  363MOL0     C47797   1.714   7.811   1.935  0.3912 -0.0902 -0.0985
  363MOL0     C47798   1.573   7.882   1.930 -0.1231 -0.3597 -0.4818
  363MOL0     C47799   1.500   7.843   1.799 -0.1638  0.5176 -1.1229
  363MOL0     C47800   1.372   7.922   1.786  0.1692  0.0100 -0.1081
  363MOL0     N47801   1.308   7.883   1.655 -0.7235  0.3253 -0.5766
  363MOL0     C47802   1.195   7.934   1.609 -0.0725 -0.6289  0.1096
  363MOL0     C47803   1.172   7.874   1.489 -0.3538 -0.3246 -0.1026
  363MOL0     C47804   1.058   7.914   1.393  0.5417  0.0369 -0.1217
  363MOL0     C47805   0.928   7.950   1.472  0.4196 -0.8683 -1.3719
  363MOL0     C47806   0.810   7.995   1.382  0.3744 -0.4692  0.4295
  363MOL0     C47807   0.665   8.014   1.439  0.2131 -0.0165  0.0061
  363MOL0     O47808   0.571   8.030   1.333 -0.6209 -0.4182  0.3011
  363MOL0     C47809   0.443   8.070   1.358  0.3469  0.4062  0.2185
  363MOL0     C47810   0.353   8.057   1.251  1.6474 -1.1551  0.0445
  363MOL0     C47811   0.217   8.085   1.270 -0.5174  0.3710  0.2020
  363MOL0     C47812   0.167   8.136   1.389  0.6542  0.0995 -0.1499
  363MOL0     C47813   0.022   8.170   1.404 -1.0612  0.8297  0.7725
  363MOL0     O47814  -0.018   8.211   1.527 -0.1421 -0.2401 -0.1997
  363MOL0     C47815  -0.140   8.261   1.550  0.7501 -0.7437 -0.0758
  363MOL0     C47816  -0.151   8.384   1.612 -0.0171 -0.6397 -0.2726
  363MOL0     C47817  -0.269   8.451   1.632 -0.0646 -1.0341 -0.4161
  363MOL0     C47818  -0.389   8.399   1.596  0.2179  0.2114 -0.1872
  363MOL0     O47819  -0.502   8.476   1.609  0.0046  0.8843  0.3075
  363MOL0     C47820  -0.633   8.415   1.603  0.4120 -0.5621 -0.1923
  363MOL0     C47821  -0.742   8.511   1.648  0.5015 -0.6640 -0.9575
  363MOL0     C47822  -0.879   8.470   1.604 -0.9089 -0.2824  0.1329
  363MOL0     C47823  -0.993   8.551   1.668  0.6496  0.3304 -0.2535
  363MOL0     C47824  -1.113   8.459   1.642 -0.5374  0.1519  0.1770
  363MOL0     C47825  -1.244   8.541   1.660 -0.4242 -0.3944  0.5281
  363MOL0     C47826  -1.353   8.460   1.597  0.1899  0.2280 -0.0297
  363MOL0     C47827  -1.486   8.516   1.651  0.3813 -0.2556  0.2956
  363MOL0    Cl47828  -1.624   8.460   1.542 -0.4862  0.1802 -0.2333
  363MOL0     C47829  -0.379   8.275   1.523 -0.0739  0.5125  0.3233
  363MOL0     C47830  -0.265   8.201   1.517 -0.8306  0.5161  0.4193
  363MOL0     O47831  -0.051   8.138   1.314 -0.6317  0.0378 -0.1746
  363MOL0     C47832   0.257   8.156   1.497  0.2660  0.1780  0.2047
  363MOL0     C47833   0.386   8.108   1.478 -0.6718 -0.1513  0.2439
  363MOL0     N47834   1.281   7.792   1.463 -0.8205 -0.3483 -0.0803
  363MOL0     N47835   1.355   7.788   1.565 -0.2372  0.6327 -0.5836
  363MOL0     C47836   2.315   8.013   1.915  0.7211 -0.1460  0.5966
  363MOL0     C47837   2.455   8.005   1.896 -0.2221  0.2578 -0.1916
  363MOL0     C47838   2.896   7.934   1.834 -0.2108 -0.1515  0.3341
  363MOL0     C47839   3.024   7.997   1.857 -0.0668 -0.0425 -0.0020
  363MOL0     C47840   3.139   7.963   1.788 -0.6960  0.6928  0.1534
  363MOL0     C47841   3.138   7.845   1.704 -0.8077 -0.5577 -0.7819
  363MOL0     O47842   3.268   7.793   1.665  0.4697  0.1737  0.4013
  363MOL0     C47843   3.254   7.682   1.579  0.1737  0.3600  0.3221
  363MOL0     C47844   3.390   7.643   1.523  0.7579  0.2161  0.0950
  363MOL0     C47845   3.461   7.766   1.466 -0.0912 -0.1373  0.0630
  363MOL0     C47846   3.552   7.722   1.350  0.1666  0.2793  0.0328
  363MOL0     C47847   3.620   7.839   1.287 -1.3415 -0.0981  0.3932
  363MOL0     C47848   3.660   7.947   1.249  0.3108 -1.3229 -0.4631
  363MOL0     C47849   3.017   7.775   1.683 -0.5501 -0.3264  0.1881
  363MOL0     C47850   2.899   7.823   1.744 -0.3021 -0.5765  0.2390
  363MOL0     H47851   2.519   7.705   2.015  0.5903 -0.7948 -3.2268
  363MOL0     H47852   2.282   7.738   2.090 -3.5765  2.4426  0.1104
  363MOL0     H47853   2.005   8.076   1.937  1.2622  2.9180 -0.2042
  363MOL0     H47854   2.115   8.109   2.071  0.5943  1.5834 -3.0709
  363MOL0     H47855   1.935   8.120   2.184  0.8637  0.8587 -1.5450
  363MOL0     H47856   1.978   7.941   2.211  0.8555  0.2704  0.2931
  363MOL0     H47857   1.755   8.054   2.031  1.2272 -0.9378 -1.0810
  363MOL0     H47858   1.729   7.989   2.194 -0.0490  0.6824 -0.7392
  363MOL0     H47859   1.891   7.802   2.039 -0.6638 -1.4869 -0.6224
  363MOL0     H47860   1.756   7.763   2.143 -1.4450  0.0806 -0.3601
  363MOL0     H47861   1.687   7.706   1.924 -2.4276  0.7110 -1.9506
  363MOL0     H47862   1.777   7.842   1.851  1.4920 -1.4468  0.1964
  363MOL0     H47863   1.584   7.990   1.937 -0.6933 -0.3706  1.0586
  363MOL0     H47864   1.509   7.849   2.012  0.9741  2.0907  1.4695
  363MOL0     H47865   1.559   7.863   1.708 -0.4336 -0.4454 -1.5240
  363MOL0     H47866   1.478   7.737   1.805 -0.4402  0.6347  0.2656
  363MOL0     H47867   1.397   8.029   1.795  2.2010 -0.5211  1.3395
  363MOL0     H47868   1.304   7.908   1.871  0.2905  3.1010  0.6186
  363MOL0     H47869   1.136   8.004   1.667  0.7467  0.9246 -0.8689
  363MOL0     H47870   1.040   7.834   1.322  0.9089 -1.8038  1.7651
  363MOL0     H47871   1.084   8.010   1.348 -0.9587  0.1693 -0.7824
  363MOL0     H47872   0.948   8.025   1.548 -0.4121 -0.3024 -1.7004
  363MOL0     H47873   0.893   7.867   1.534  1.4745  0.6823  1.4815
  363MOL0     H47874   0.846   8.078   1.321 -0.3378 -0.1198  0.4700
  363MOL0     H47875   0.803   7.915   1.308  0.5543  1.2612 -1.5615
  363MOL0     H47876   0.660   8.104   1.501 -0.5851  1.1303 -1.6409
  363MOL0     H47877   0.623   7.934   1.500 -2.3132  0.5736 -0.8516
  363MOL0     H47878   0.385   8.027   1.151  0.8041  2.0511 -1.3097
  363MOL0     H47879   0.157   8.058   1.183  1.9966  0.6494 -1.7611
  363MOL0     H47880  -0.059   8.440   1.624 -0.8393  1.9021 -4.0985
  363MOL0     H47881  -0.275   8.552   1.671 -1.6850 -0.3358 -2.2583
  363MOL0     H47882  -0.634   8.331   1.674  2.9587 -0.8504 -0.3776
  363MOL0     H47883  -0.640   8.370   1.504  0.0043 -0.3646 -0.2502
  363MOL0     H47884  -0.722   8.604   1.593  1.3229 -0.7854 -0.8813
  363MOL0     H47885  -0.735   8.530   1.756  1.7589 -1.9871 -0.7804
  363MOL0     H47886  -0.892   8.364   1.630 -3.2276 -0.6856 -2.2604
  363MOL0     H47887  -0.886   8.478   1.496  2.6758  0.2010 -0.1888
  363MOL0     H47888  -0.988   8.562   1.777  1.3164  0.0106 -0.2466
  363MOL0     H47889  -1.000   8.648   1.618  0.8814  1.4262  1.7343
  363MOL0     H47890  -1.110   8.374   1.711 -1.0058 -0.4287 -0.5033
  363MOL0     H47891  -1.114   8.416   1.541 -3.3152 -5.2766  2.1029
  363MOL0     H47892  -1.233   8.637   1.609 -1.3769 -2.2528 -3.6578
  363MOL0     H47893  -1.263   8.554   1.767  2.7882 -2.0254  1.4369
  363MOL0     H47894  -1.359   8.485   1.491 -1.3166  1.8428  0.3819
  363MOL0     H47895  -1.330   8.356   1.620  2.6803  0.4787 -1.1165
  363MOL0     H47896  -1.474   8.624   1.638 -0.1342 -0.2602 -0.2577
  363MOL0     H47897  -1.501   8.484   1.754  1.2792 -2.0155 -0.0947
  363MOL0     H47898  -0.460   8.221   1.473  0.7477  0.5578 -1.1212
  363MOL0     H47899  -0.250   8.106   1.467  0.5761 -0.1707  2.0299
  363MOL0     H47900   0.225   8.203   1.590 -1.7255  3.2018 -1.8357
  363MOL0     H47901   0.460   8.119   1.557  0.3472 -1.5530 -0.4564
  363MOL0     H47902   2.256   8.098   1.882 -1.0264 -1.6062 -0.2070
  363MOL0     H47903   2.509   8.090   1.855 -0.8008  1.1145  0.7384
  363MOL0     H47904   3.023   8.084   1.921  0.9527 -0.1787  0.2164
  363MOL0     H47905   3.234   8.014   1.802  0.2090  0.5713 -4.2380
  363MOL0     H47906   3.191   7.702   1.493  2.0028  1.2805 -0.8723
  363MOL0     H47907   3.219   7.592   1.631  0.8748 -0.6426 -0.8635
  363MOL0     H47908   3.461   7.604   1.596  3.0313 -1.1519 -2.6503
  363MOL0     H47909   3.373   7.556   1.459 -1.0896  0.5274  0.1257
  363MOL0     H47910   3.508   7.828   1.542  1.2498 -1.4491  0.3281
  363MOL0     H47911   3.376   7.826   1.432 -1.5210 -0.2392  3.1327
  363MOL0     H47912   3.633   7.657   1.386  0.2196  1.3973  2.0703
  363MOL0     H47913   3.492   7.671   1.274  0.5848 -1.0811  0.5895
  363MOL0     H47914   3.706   8.041   1.223  0.5078 -0.6526  2.1027
  363MOL0     H47915   3.007   7.689   1.618 -1.8178 -0.4152  0.4822
  363MOL0     H47916   2.809   7.764   1.727  0.0994 -1.4662  1.0496
  364MOL0     O47917   8.896   1.517   8.184 -0.0230  0.2595  0.7685
  364MOL0     C47918   8.859   1.405   8.153  0.1977 -0.6208 -0.8578
  364MOL0     O47919   8.934   1.302   8.119  0.0814  0.9411  0.3234
  364MOL0     C47920   9.068   1.314   8.121 -0.6355  1.6922 -0.4149
  364MOL0     C47921   9.139   1.359   8.008  0.4838  0.2036  0.1095
  364MOL0     C47922   9.276   1.372   7.997 -0.6296  0.9217  0.0438
  364MOL0     C47923   9.352   1.319   8.097  0.6248 -0.0152 -0.8269
  364MOL0     O47924   9.485   1.311   8.080 -0.0667 -0.1182  0.4146
  364MOL0     C47925   9.554   1.204   8.151 -0.3398 -0.3155  0.3033
  364MOL0     C47926   9.704   1.207   8.104  0.0826  0.2011  0.3155
  364MOL0     C47927   9.783   1.094   8.168 -0.0871 -0.2850  0.3444
  364MOL0     C47928   9.932   1.087   8.123 -0.9382 -0.0263  0.1994
  364MOL0     C47929  10.015   1.207   8.189 -0.2600  0.0546 -0.4249
  364MOL0     C47930  10.165   1.206   8.170 -0.7000 -0.4132 -0.1812
  364MOL0     C47931  10.230   1.340   8.230  0.6961  0.3033 -0.2477
  364MOL0     C47932  10.204   1.462   8.144 -0.8019  0.3889  0.0788
  364MOL0     N47933  10.295   1.569   8.185 -0.1462  0.3270  0.4797
  364MOL0     C47934  10.385   1.620   8.106  0.3235 -1.1361 -0.0292
  364MOL0     C47935  10.456   1.698   8.196 -0.2343  0.1760 -0.2842
  364MOL0     C47936  10.558   1.797   8.140 -0.7081  0.0654  0.0286
  364MOL0     C47937  10.551   1.945   8.187 -0.1960  0.7505  0.4379
  364MOL0     C47938  10.459   2.024   8.102 -0.0471 -0.5092  0.6912
  364MOL0     C47939  10.470   2.173   8.136  0.5488  0.5486  0.3568
  364MOL0     O47940  10.377   2.255   8.078 -0.5157 -0.2502  0.0341
  364MOL0     C47941  10.249   2.257   8.104 -0.5709  0.0191  0.1675
  364MOL0     C47942  10.187   2.241   8.229 -0.4043  0.5258  0.7770
  364MOL0     C47943  10.051   2.231   8.232 -0.0330 -0.3475  0.2706
  364MOL0     C47944   9.971   2.232   8.123  0.5388 -0.3295  0.3490
  364MOL0     C47945   9.827   2.199   8.122  0.2144  0.8851  0.2508
  364MOL0     O47946   9.772   2.163   8.244 -0.3534  0.2485 -0.5711
  364MOL0     C47947   9.636   2.138   8.249 -0.0552  0.6367  0.9015
  364MOL0     C47948   9.552   2.221   8.322 -0.0170 -0.3087 -0.2301
  364MOL0     C47949   9.416   2.184   8.334 -0.1066  0.2135 -0.5329
  364MOL0     C47950   9.369   2.059   8.289  0.8525  0.2550  0.9909
  364MOL0     O47951   9.240   2.021   8.309  0.4183 -0.1032  0.1013
  364MOL0     C47952   9.149   2.119   8.265 -0.3812 -0.1085  0.0579
  364MOL0     C47953   9.016   2.063   8.293  0.2168  0.4929  0.6915
  364MOL0     C47954   8.961   1.965   8.185  0.0642 -0.2813  0.0576
  364MOL0     C47955   8.813   1.948   8.179  0.5945 -0.5773 -0.5513
  364MOL0     C47956   8.780   1.858   8.057  0.5530  0.9853  0.1960
  364MOL0     C47957   8.636   1.878   8.017 -0.2460 -0.3088 -0.3122
  364MOL0     C47958   8.601   1.772   7.914  0.0743 -0.4338  0.5114
  364MOL0     C47959   8.456   1.775   7.866 -0.7269 -0.0127 -0.9321
  364MOL0    Cl47960   8.346   1.775   8.019  0.3859 -0.0872  0.3078
  364MOL0     C47961   9.455   1.974   8.215  0.0890 -0.0315 -0.4019
  364MOL0     C47962   9.587   2.013   8.194  0.8259 -0.1379 -0.4422
  364MOL0     O47963   9.762   2.206   8.019  0.0053  0.1463  0.6699
  364MOL0     C47964  10.029   2.265   8.002 -0.3533 -0.3135  0.2698
  364MOL0     C47965  10.165   2.284   7.994 -0.7572 -0.6174  0.2846
  364MOL0     N47966  10.395   1.692   8.324  0.0370  0.3111  0.2316
  364MOL0     N47967  10.301   1.609   8.311  0.3105 -0.3870 -0.3366
  364MOL0     C47968   9.282   1.260   8.211 -0.1309 -0.3433 -0.3598
  364MOL0     C47969   9.145   1.260   8.228  0.2744  0.6875  0.4298
  364MOL0     C47970   8.707   1.398   8.161  0.3105  0.6187 -0.4929
  364MOL0     C47971   8.626   1.505   8.204 -0.0365 -0.2519  1.0699
  364MOL0     C47972   8.484   1.511   8.187  0.3092 -0.3396 -0.2116
  364MOL0     C47973   8.428   1.389   8.144  0.1145  0.3558  0.6705
  364MOL0     O47974   8.296   1.361   8.146  0.5788  0.3297  0.2671
  364MOL0     C47975   8.215   1.442   8.059 -0.1732  0.3211 -0.4495
  364MOL0     C47976   8.248   1.436   7.912  0.0937  0.1803 -0.1705
  364MOL0     C47977   8.238   1.288   7.860  0.1658 -0.7911 -0.1240
  364MOL0     C47978   8.198   1.288   7.711 -0.2054  0.3364  0.1320
  364MOL0     C47979   8.209   1.162   7.643  0.2823 -0.1626  0.0099
  364MOL0     C47980   8.233   1.064   7.576  1.0014 -0.3979  0.0335
  364MOL0     C47981   8.507   1.276   8.117 -0.0523 -1.2717 -0.0518
  364MOL0     C47982   8.645   1.285   8.125 -0.2976  0.4864  0.3692
  364MOL0     H47983   9.076   1.412   7.937  1.4990  1.3478  0.0241
  364MOL0     H47984   9.329   1.410   7.911  1.6989 -2.1921 -0.0867
  364MOL0     H47985   9.516   1.103   8.131  1.3967 -0.7447 -1.0559
  364MOL0     H47986   9.545   1.226   8.258  1.2432  1.9773  0.0479
  364MOL0     H47987   9.750   1.305   8.119  2.0358 -0.6681  0.3339
  364MOL0     H47988   9.691   1.188   7.997 -2.8865  2.5353  0.1184
  364MOL0     H47989   9.741   1.000   8.130  0.7767 -1.5039  2.2518
  364MOL0     H47990   9.778   1.086   8.277  0.7994 -0.7631  0.3673
  364MOL0     H47991   9.974   0.989   8.147 -0.4028 -0.0595 -0.8129
  364MOL0     H47992   9.945   1.092   8.015  0.9825 -3.0765  0.1765
  364MOL0     H47993   9.993   1.200   8.295 -6.0712 -1.2783 -1.3774
  364MOL0     H47994   9.964   1.293   8.144 -1.6982 -1.2339 -1.3890
  364MOL0     H47995  10.191   1.187   8.065 -0.3082  1.3218 -0.4263
  364MOL0     H47996  10.210   1.120   8.220 -1.8477 -0.2674  1.1772
  364MOL0     H47997  10.195   1.341   8.333  0.1029  1.3529 -0.4424
  364MOL0     H47998  10.339   1.327   8.233  0.3833 -3.4822 -0.6334
  364MOL0     H47999  10.104   1.504   8.161  0.0742  2.0324  1.3989
  364MOL0     H48000  10.218   1.439   8.038 -1.8835  0.3508 -0.0659
  364MOL0     H48001  10.400   1.619   7.998 -0.0544 -0.0784 -0.1008
  364MOL0     H48002  10.560   1.796   8.031 -0.6033  0.5609  0.0240
  364MOL0     H48003  10.658   1.762   8.168  0.2912  2.7197  0.1039
  364MOL0     H48004  10.651   1.984   8.167 -0.7724  1.6342 -0.9209
  364MOL0     H48005  10.530   1.948   8.294 -0.2719  1.0065  0.4164
  364MOL0     H48006  10.470   1.999   7.996 -1.9813  0.2554  0.2775
  364MOL0     H48007  10.359   1.995   8.136  0.0223 -0.6005  0.8212
  364MOL0     H48008  10.572   2.209   8.117 -0.3108  1.9772 -2.0800
  364MOL0     H48009  10.453   2.190   8.243  0.5454 -1.2020  0.6560
  364MOL0     H48010  10.250   2.237   8.318  1.0024  4.5507  0.1542
  364MOL0     H48011  10.009   2.206   8.329  1.4760  2.3210  1.7379
  364MOL0     H48012   9.585   2.313   8.369 -2.1175 -0.5622  1.8829
  364MOL0     H48013   9.349   2.252   8.385  1.2950  1.3739 -0.1870
  364MOL0     H48014   9.163   2.136   8.158 -3.9369  0.8575 -0.3979
  364MOL0     H48015   9.172   2.216   8.310  1.8420  0.5019 -2.1561
  364MOL0     H48016   8.960   2.158   8.296 -0.4920  0.2520 -1.9652
  364MOL0     H48017   9.031   2.017   8.391 -1.4580 -0.8157  0.3702
  364MOL0     H48018   9.017   1.872   8.199 -0.4986 -0.3096  2.7120
  364MOL0     H48019   8.995   2.006   8.090 -0.0467  2.4883  1.1190
  364MOL0     H48020   8.776   1.909   8.274  2.2562  1.3190  0.9679
  364MOL0     H48021   8.769   2.047   8.164  0.8794 -0.5943 -1.6383
  364MOL0     H48022   8.787   1.752   8.080  3.4609  0.9221 -0.5797
  364MOL0     H48023   8.857   1.874   7.981  0.9102  0.7203  0.5047
  364MOL0     H48024   8.611   1.973   7.969 -3.9262 -1.0808 -0.1923
  364MOL0     H48025   8.573   1.872   8.106 -1.1692 -0.9527 -0.9853
  364MOL0     H48026   8.669   1.779   7.828  0.2000  0.6522  0.6808
  364MOL0     H48027   8.622   1.670   7.947  0.6226 -0.3972  0.2896
  364MOL0     H48028   8.444   1.689   7.800  2.2221 -0.0892 -1.4838
  364MOL0     H48029   8.433   1.866   7.810 -0.6076 -0.9585 -2.5784
  364MOL0     H48030   9.412   1.884   8.174 -0.5578  0.2289 -0.2981
  364MOL0     H48031   9.661   1.941   8.161  2.1553  0.3413  1.3786
  364MOL0     H48032   9.973   2.275   7.910 -0.3007  2.6110  0.4559
  364MOL0     H48033  10.216   2.305   7.902 -1.1126 -1.2917 -0.0776
  364MOL0     H48034   9.334   1.220   8.297  0.9229  0.2161 -0.7216
  364MOL0     H48035   9.096   1.202   8.307  0.6654  0.3481  0.4248
  364MOL0     H48036   8.681   1.590   8.244  1.9475 -0.4774 -0.9377
  364MOL0     H48037   8.436   1.603   8.218  0.7261 -0.4498  0.8045
  364MOL0     H48038   8.222   1.546   8.092  1.9518 -0.5963  2.3986
  364MOL0     H48039   8.109   1.417   8.072  0.1819 -0.1674  1.9817
  364MOL0     H48040   8.169   1.496   7.864 -0.2363  2.4898  2.9598
  364MOL0     H48041   8.343   1.486   7.892 -0.3614  0.1530 -2.7352
  364MOL0     H48042   8.166   1.227   7.915  1.9094 -1.5706  1.4056
  364MOL0     H48043   8.331   1.233   7.872 -0.3610 -1.4129  1.3008
  364MOL0     H48044   8.091   1.310   7.708  0.0678  1.6299 -0.9255
  364MOL0     H48045   8.243   1.363   7.646  1.8270  0.0806  1.1633
  364MOL0     H48046   8.251   0.970   7.527 -0.2205 -2.0836  2.6053
  364MOL0     H48047   8.463   1.181   8.088  0.2874 -1.9645  1.5741
  364MOL0     H48048   8.718   1.213   8.089  0.1211  1.8906 -1.7991
  365MOL0     O48049   3.212   4.954   9.023 -0.2953  0.2982  0.5265
  365MOL0     C48050   3.248   5.017   9.121 -0.0658 -0.9331 -0.9066
  365MOL0     O48051   3.184   5.050   9.230 -0.1555  0.6985  0.1372
  365MOL0     C48052   3.054   5.001   9.240  0.0422  0.6752 -0.1416
  365MOL0     C48053   3.024   4.869   9.226  1.2150  0.7964  0.0236
  365MOL0     C48054   2.892   4.825   9.245 -0.6045 -0.2765 -0.8418
  365MOL0     C48055   2.783   4.921   9.278 -0.2419 -0.2408  0.6415
  365MOL0     O48056   2.653   4.880   9.309 -0.0910  0.2785 -0.7752
  365MOL0     C48057   2.607   4.796   9.208 -0.6971  0.6877 -0.1917
  365MOL0     C48058   2.454   4.788   9.208  0.4386  0.4719  0.1275
  365MOL0     C48059   2.380   4.903   9.144 -0.5787 -0.7029  0.4746
  365MOL0     C48060   2.424   5.039   9.203 -0.4388 -0.4964 -0.0708
  365MOL0     C48061   2.319   5.146   9.169  0.1127  0.5985 -0.0088
  365MOL0     C48062   2.361   5.279   9.219 -0.0338  0.1659 -0.5574
  365MOL0     C48063   2.352   5.289   9.369 -0.3795 -0.2936  0.2812
  365MOL0     C48064   2.226   5.254   9.435  0.1512  0.0962  0.1038
  365MOL0     N48065   2.111   5.342   9.391  0.6441 -0.2076  0.0300
  365MOL0     C48066   2.024   5.310   9.280  0.3488 -0.1299  0.7769
  365MOL0     C48067   1.968   5.426   9.235 -0.0577  1.2404 -0.3444
  365MOL0     C48068   1.875   5.437   9.121  0.4389 -0.8648 -0.2344
  365MOL0     C48069   1.948   5.441   8.991  0.2492 -0.4016  0.9609
  365MOL0     C48070   1.844   5.468   8.880 -1.6023  0.6203  0.0991
  365MOL0     C48071   1.777   5.343   8.829  0.6513  0.0608  0.5343
  365MOL0     O48072   1.748   5.348   8.688  0.8807 -0.6179  0.1499
  365MOL0     C48073   1.613   5.321   8.653 -0.3107  0.0003 -0.1483
  365MOL0     C48074   1.522   5.425   8.652 -0.0794  0.0539 -0.3263
  365MOL0     C48075   1.394   5.413   8.607 -0.7432  0.2834  0.7541
  365MOL0     C48076   1.350   5.286   8.566  0.5476 -0.1320  0.5781
  365MOL0     C48077   1.206   5.269   8.528  0.7170 -0.0995  0.1669
  365MOL0     O48078   1.123   5.373   8.546 -0.0626  0.3163  0.0973
  365MOL0     C48079   0.992   5.344   8.523  0.0781  0.5096  0.6278
  365MOL0     C48080   0.896   5.291   8.607  0.0482 -0.0029 -0.1612
  365MOL0     C48081   0.758   5.296   8.583 -0.1527 -0.5569 -0.4453
  365MOL0     C48082   0.709   5.319   8.457 -0.9635 -0.1824 -0.6481
  365MOL0     O48083   0.574   5.307   8.431  0.2935 -0.1230  0.1119
  365MOL0     C48084   0.483   5.296   8.537  0.3733 -0.3386  0.4911
  365MOL0     C48085   0.339   5.331   8.497 -0.6078 -0.7074  0.2078
  365MOL0     C48086   0.250   5.333   8.632 -0.6628 -0.2864  0.7441
  365MOL0     C48087   0.105   5.367   8.604  1.1818 -0.2347 -0.3034
  365MOL0     C48088   0.009   5.336   8.721 -0.4342  0.6402  0.3127
  365MOL0     C48089  -0.122   5.413   8.699  0.3600 -0.0861  0.2299
  365MOL0     C48090  -0.220   5.361   8.803  0.9159 -0.4186  0.2389
  365MOL0     C48091  -0.324   5.473   8.827  0.5376 -0.6563  0.6179
  365MOL0    Cl48092  -0.420   5.492   8.686  0.1409  0.0702  0.2221
  365MOL0     C48093   0.806   5.355   8.358 -1.0056 -0.4924  0.0244
  365MOL0     C48094   0.941   5.372   8.392  0.6385 -0.6353 -0.4967
  365MOL0     O48095   1.184   5.165   8.464 -0.2720  0.0488  0.3608
  365MOL0     C48096   1.439   5.180   8.569 -0.3885 -0.5173  0.3575
  365MOL0     C48097   1.565   5.194   8.613 -0.4296 -0.1502 -0.1551
  365MOL0     N48098   2.018   5.526   9.320 -0.2902 -0.3811  0.2187
  365MOL0     N48099   2.103   5.480   9.408 -0.5425 -0.2766 -0.0336
  365MOL0     C48100   2.815   5.055   9.303 -0.1502 -0.4217 -0.2426
  365MOL0     C48101   2.950   5.092   9.280 -0.6138  0.0529  0.5411
  365MOL0     C48102   3.395   5.030   9.144 -0.4458  0.3835 -0.1799
  365MOL0     C48103   3.453   5.082   9.265  0.1536 -0.6080 -0.6024
  365MOL0     C48104   3.591   5.112   9.276  0.5187 -0.3169  0.1868
  365MOL0     C48105   3.679   5.087   9.173 -0.1203  0.5546  0.6827
  365MOL0     O48106   3.811   5.113   9.186 -0.5812  0.5885  0.3980
  365MOL0     C48107   3.903   5.032   9.117 -0.0760 -0.1019  0.8401
  365MOL0     C48108   4.038   5.038   9.199  0.0828 -0.0741 -0.3332
  365MOL0     C48109   4.095   5.185   9.199  0.1305  0.2974 -0.6518
  365MOL0     C48110   4.118   5.261   9.063 -1.3269  0.2423 -0.1730
  365MOL0     C48111   4.190   5.164   8.974 -0.1606  0.4989  0.1868
  365MOL0     C48112   4.242   5.080   8.898  0.2463  0.3976 -0.9166
  365MOL0     C48113   3.621   5.034   9.054 -0.3772 -0.4242 -0.2542
  365MOL0     C48114   3.485   5.007   9.037  0.2212 -0.0826  1.1352
  365MOL0     H48115   3.102   4.795   9.210  0.6629 -0.1277  1.3768
  365MOL0     H48116   2.877   4.719   9.228 -1.9099 -0.2253 -0.1201
  365MOL0     H48117   2.651   4.699   9.234  3.8521  2.2947 -1.1507
  365MOL0     H48118   2.649   4.822   9.110  0.3275  2.5057  0.6961
  365MOL0     H48119   2.414   4.773   9.309 -1.4585  0.6735 -0.5420
  365MOL0     H48120   2.418   4.700   9.153 -0.3401  1.4191 -0.9325
  365MOL0     H48121   2.272   4.890   9.149 -0.4513 -1.3843  2.4399
  365MOL0     H48122   2.409   4.898   9.039  1.0502  3.1545  0.5877
  365MOL0     H48123   2.434   5.028   9.311 -3.1023  1.5100  0.4947
  365MOL0     H48124   2.526   5.058   9.171  0.8548 -5.2591  0.5354
  365MOL0     H48125   2.217   5.123   9.202  0.0772 -0.2766 -0.6945
  365MOL0     H48126   2.320   5.158   9.060  0.9108  1.4792  0.0849
  365MOL0     H48127   2.293   5.348   9.168  0.6573 -0.1028 -1.8839
  365MOL0     H48128   2.461   5.298   9.181 -0.2409 -2.0937 -2.4544
  365MOL0     H48129   2.438   5.238   9.414 -0.1217  1.2671  1.7075
  365MOL0     H48130   2.375   5.395   9.388 -1.7839  0.3837 -1.4909
  365MOL0     H48131   2.244   5.270   9.542  0.6330  1.9372 -0.2124
  365MOL0     H48132   2.203   5.149   9.422  0.9855 -0.1337  0.3937
  365MOL0     H48133   2.012   5.210   9.239  0.2748  0.3240 -0.3279
  365MOL0     H48134   1.820   5.531   9.128  0.5957 -0.7323 -0.7129
  365MOL0     H48135   1.796   5.362   9.114 -1.3593  1.0750 -2.7111
  365MOL0     H48136   2.014   5.354   8.984  0.5099 -0.1749  0.5807
  365MOL0     H48137   2.012   5.529   8.982 -0.6895  0.2329  0.2940
  365MOL0     H48138   1.763   5.538   8.905 -1.4325  2.7045 -4.1916
  365MOL0     H48139   1.901   5.507   8.795  2.9031  0.6034  2.8329
  365MOL0     H48140   1.690   5.322   8.892 -0.1139 -0.5969 -0.7101
  365MOL0     H48141   1.842   5.256   8.844  3.4873  1.7173 -1.3864
  365MOL0     H48142   1.558   5.520   8.690 -0.4912 -0.7519  2.2580
  365MOL0     H48143   1.331   5.501   8.598  1.2704  1.7875  0.3786
  365MOL0     H48144   0.931   5.269   8.707 -1.0435 -1.0567  0.0169
  365MOL0     H48145   0.694   5.264   8.665  0.9840  1.2957  1.2630
  365MOL0     H48146   0.511   5.357   8.624  1.6737  0.5583 -0.5159
  365MOL0     H48147   0.480   5.195   8.579 -0.0856 -0.1275  0.9761
  365MOL0     H48148   0.318   5.262   8.415  1.7951  1.0265 -2.0408
  365MOL0     H48149   0.344   5.428   8.447 -0.5826 -0.7056  0.2136
  365MOL0     H48150   0.289   5.415   8.694  3.2509  0.3852 -2.1814
  365MOL0     H48151   0.259   5.235   8.679 -2.9326  0.0311  1.9813
  365MOL0     H48152   0.088   5.475   8.591  0.2061  0.0180  2.4138
  365MOL0     H48153   0.065   5.325   8.512 -3.0526 -1.1734  1.7255
  365MOL0     H48154   0.053   5.365   8.817  1.2878 -3.0379  0.7695
  365MOL0     H48155  -0.008   5.228   8.729  6.0309 -1.0514 -2.7453
  365MOL0     H48156  -0.160   5.403   8.597 -1.7723 -2.7310  1.1703
  365MOL0     H48157  -0.103   5.520   8.718 -0.9106 -0.0248  1.3321
  365MOL0     H48158  -0.261   5.266   8.768 -0.2997 -0.0787  0.6917
  365MOL0     H48159  -0.168   5.351   8.899  2.0696 -1.1303 -0.4282
  365MOL0     H48160  -0.272   5.565   8.855 -1.1045  0.1557  1.1389
  365MOL0     H48161  -0.392   5.449   8.910 -1.2414  0.3524 -0.4725
  365MOL0     H48162   0.781   5.355   8.252 -0.9621  0.4007  0.0064
  365MOL0     H48163   1.010   5.417   8.322 -0.0810  2.5125  0.6836
  365MOL0     H48164   1.408   5.082   8.535  0.0352 -1.0422  1.4117
  365MOL0     H48165   1.635   5.113   8.629  0.9661  1.2337  1.0344
  365MOL0     H48166   2.737   5.126   9.326 -1.4654 -1.8438 -0.1254
  365MOL0     H48167   2.976   5.196   9.296  2.0436 -0.2659 -1.0333
  365MOL0     H48168   3.401   5.112   9.356 -0.4393 -0.4085 -1.0034
  365MOL0     H48169   3.636   5.166   9.358  3.1735  0.4535 -1.6457
  365MOL0     H48170   3.908   5.053   9.009 -0.0854  0.5659  0.9655
  365MOL0     H48171   3.882   4.926   9.134  0.2903 -0.1023  1.3068
  365MOL0     H48172   4.012   5.010   9.302 -1.2239 -0.7918 -0.8365
  365MOL0     H48173   4.109   4.963   9.164  1.1952  0.6815  0.2245
  365MOL0     H48174   4.192   5.196   9.248 -0.2027 -1.7777  0.5967
  365MOL0     H48175   4.016   5.237   9.254 -2.0034 -1.5341 -1.8469
  365MOL0     H48176   4.019   5.277   9.019 -0.3037  0.8598 -2.4178
  365MOL0     H48177   4.167   5.359   9.068 -1.8136  0.4543  0.6718
  365MOL0     H48178   4.292   5.006   8.838 -0.4546  0.1744 -1.2325
  365MOL0     H48179   3.695   5.025   8.974 -1.0062  1.5117 -1.0987
  365MOL0     H48180   3.445   4.980   8.939  1.8035 -0.4556  0.5655
  366MOL0     O48181   5.636   4.983   7.888 -0.0537  0.3378 -0.1334
  366MOL0     C48182   5.579   4.904   7.959 -0.9085 -0.2452 -0.6876
  366MOL0     O48183   5.629   4.780   7.989  0.1590  0.0874  0.9100
  366MOL0     C48184   5.760   4.755   7.970  0.2300 -0.5477  0.1392
  366MOL0     C48185   5.853   4.815   8.047 -0.4666 -0.3051  0.1918
  366MOL0     C48186   5.987   4.769   8.022  0.8695 -0.3116  0.7817
  366MOL0     C48187   6.024   4.671   7.929 -0.2344 -0.4236  1.0629
  366MOL0     O48188   6.162   4.665   7.912 -0.0498  0.4688 -0.4128
  366MOL0     C48189   6.203   4.537   7.858 -0.2389  0.0467 -0.1499
  366MOL0     C48190   6.356   4.520   7.892  0.3073  0.7552  0.2473
  366MOL0     C48191   6.413   4.390   7.825 -0.5328  0.2794  0.9871
  366MOL0     C48192   6.568   4.397   7.794 -0.2220  0.2467 -0.4719
  366MOL0     C48193   6.651   4.279   7.837  0.4719  0.8025  0.2695
  366MOL0     C48194   6.655   4.240   7.982  0.5242  0.6827  0.8836
  366MOL0     C48195   6.766   4.314   8.063  0.4512  0.6202  0.3689
  366MOL0     C48196   6.908   4.289   8.011 -0.1450  0.2865 -0.0967
  366MOL0     N48197   6.948   4.146   8.024 -0.0752 -0.0901  0.7122
  366MOL0     C48198   6.938   4.047   7.930  0.6781  0.2030  0.2246
  366MOL0     C48199   6.977   3.940   8.000 -0.8203  0.0480  0.2243
  366MOL0     C48200   6.962   3.797   7.953  0.4299 -0.4898 -0.4829
  366MOL0     C48201   6.819   3.762   7.924  0.6112  0.3640  0.2415
  366MOL0     C48202   6.808   3.606   7.903 -0.9243 -0.0965  0.2613
  366MOL0     C48203   6.679   3.567   7.838 -0.1245  0.1212  0.3226
  366MOL0     O48204   6.572   3.575   7.934  0.3731  0.2449  0.5281
  366MOL0     C48205   6.469   3.644   7.871  0.3625 -0.2402  0.9348
  366MOL0     C48206   6.387   3.579   7.775 -0.2807 -0.6871 -0.1009
  366MOL0     C48207   6.280   3.649   7.718 -0.3091  0.1804  0.1196
  366MOL0     C48208   6.259   3.782   7.756  1.6004  1.2878 -0.5266
  366MOL0     C48209   6.143   3.846   7.691  0.1790 -0.0330 -0.1955
  366MOL0     O48210   6.068   3.784   7.597 -0.5095 -0.3325  0.1820
  366MOL0     C48211   5.934   3.808   7.595  0.1128  1.4918 -0.2957
  366MOL0     C48212   5.862   3.778   7.704  0.5146  0.0309 -0.3860
  366MOL0     C48213   5.731   3.820   7.711  0.7076  0.2906  0.1035
  366MOL0     C48214   5.660   3.883   7.601  0.0111  0.6186 -0.8286
  366MOL0     O48215   5.529   3.920   7.616  0.2679  0.8378  0.2660
  366MOL0     C48216   5.444   3.809   7.632  0.5313 -0.8572 -0.6945
  366MOL0     C48217   5.309   3.864   7.670  0.4122  0.2581 -0.7316
  366MOL0     C48218   5.187   3.782   7.617  0.2585 -0.0021  0.2127
  366MOL0     C48219   5.060   3.858   7.641 -0.0279 -0.3267 -0.4375
  366MOL0     C48220   4.931   3.798   7.576  0.3500 -0.2765 -0.6917
  366MOL0     C48221   4.802   3.818   7.658 -0.1063 -0.5621  0.0581
  366MOL0     C48222   4.783   3.969   7.700  0.3456 -0.5406  0.3666
  366MOL0     C48223   4.637   4.002   7.739  1.0317 -0.8343 -0.0903
  366MOL0    Cl48224   4.524   3.999   7.604 -0.0519 -0.5341 -0.2743
  366MOL0     C48225   5.728   3.904   7.489 -0.3253  0.0330  0.4337
  366MOL0     C48226   5.872   3.870   7.485  0.2709  0.3555  0.6812
  366MOL0     O48227   6.108   3.951   7.746 -0.7790  0.6283  0.3932
  366MOL0     C48228   6.343   3.846   7.846  0.1682  0.4472 -0.5194
  366MOL0     C48229   6.456   3.780   7.899  0.0443 -0.2457  0.6015
  366MOL0     N48230   7.041   3.981   8.121 -0.2719 -0.8499 -0.5075
  366MOL0     N48231   7.020   4.108   8.131  0.1494 -0.3894 -1.0261
  366MOL0     C48232   5.921   4.606   7.854  0.1896  0.2610  0.0898
  366MOL0     C48233   5.785   4.646   7.879 -0.5388 -0.1704  0.5964
  366MOL0     C48234   5.455   4.954   8.026 -0.1612  0.2768  0.4279
  366MOL0     C48235   5.393   4.875   8.123 -0.4165  0.1738 -0.1371
  366MOL0     C48236   5.273   4.910   8.175 -0.0720 -0.3139  0.7919
  366MOL0     C48237   5.206   5.024   8.131 -0.0018 -0.3106  0.2027
  366MOL0     O48238   5.092   5.054   8.191 -0.1907 -0.1816  0.2147
  366MOL0     C48239   5.030   5.187   8.190 -0.4415  0.0454  0.1438
  366MOL0     C48240   4.911   5.205   8.278  0.2334  0.1704 -0.2348
  366MOL0     C48241   4.940   5.170   8.424 -0.3175  0.2933 -0.1906
  366MOL0     C48242   4.822   5.156   8.523  0.0548  0.6409 -0.4600
  366MOL0     C48243   4.887   5.164   8.658  0.7542 -0.1769  0.4991
  366MOL0     C48244   4.941   5.197   8.759 -0.5465  0.6205 -0.9823
  366MOL0     C48245   5.271   5.101   8.034 -1.0947 -0.2438 -0.8189
  366MOL0     C48246   5.395   5.070   7.984 -0.1850  0.4286  1.0035
  366MOL0     H48247   5.826   4.893   8.118  1.0810  1.1954 -0.8071
  366MOL0     H48248   6.062   4.818   8.083 -0.0728  2.6139 -0.2598
  366MOL0     H48249   6.205   4.546   7.749  1.7404  0.2976 -0.1217
  366MOL0     H48250   6.146   4.457   7.906 -0.2013  0.0014 -0.1817
  366MOL0     H48251   6.375   4.516   8.000 -0.8238 -3.7529  0.4595
  366MOL0     H48252   6.405   4.608   7.849 -1.6660  2.4769  1.3273
  366MOL0     H48253   6.355   4.376   7.733  0.7787 -0.7817  0.2868
  366MOL0     H48254   6.401   4.300   7.885  2.6744 -0.3561  0.8448
  366MOL0     H48255   6.568   4.390   7.685  1.7833 -0.7212 -0.4520
  366MOL0     H48256   6.619   4.490   7.820  2.1158 -1.3255  1.0361
  366MOL0     H48257   6.749   4.288   7.790 -0.3392  0.2530 -1.6225
  366MOL0     H48258   6.592   4.196   7.798  0.5147 -0.9137  3.5309
  366MOL0     H48259   6.672   4.132   7.981  2.5795  0.7571 -3.9099
  366MOL0     H48260   6.558   4.262   8.026 -0.2434 -1.5470  0.4184
  366MOL0     H48261   6.741   4.420   8.058  0.3757  0.5549 -2.0315
  366MOL0     H48262   6.768   4.282   8.168  0.4434  0.8056  0.4258
  366MOL0     H48263   6.975   4.353   8.069 -0.3735  0.5946 -0.1630
  366MOL0     H48264   6.920   4.327   7.909 -0.5918  1.2038  0.1800
  366MOL0     H48265   6.915   4.050   7.824  0.4251  0.9770  0.2950
  366MOL0     H48266   6.995   3.732   8.034  0.2615  0.7172  0.5791
  366MOL0     H48267   7.033   3.788   7.870  0.9854  0.4840 -0.1274
  366MOL0     H48268   6.790   3.818   7.835 -0.1528 -1.7673 -0.9296
  366MOL0     H48269   6.762   3.796   8.011 -2.9104  1.7688 -2.3942
  366MOL0     H48270   6.899   3.585   7.846  0.6249  3.4987  1.1015
  366MOL0     H48271   6.811   3.557   8.001 -2.0922  0.5669  0.6452
  366MOL0     H48272   6.693   3.465   7.803 -0.0248 -0.1175  1.0272
  366MOL0     H48273   6.667   3.630   7.749  1.4503 -1.3187 -0.9509
  366MOL0     H48274   6.409   3.478   7.743  1.2775 -0.1379 -0.8664
  366MOL0     H48275   6.214   3.599   7.648 -0.4327  3.1988 -2.1095
  366MOL0     H48276   5.894   3.741   7.800  4.7913  1.2744 -1.0832
  366MOL0     H48277   5.670   3.800   7.799 -2.4700  4.3470 -0.8796
  366MOL0     H48278   5.464   3.722   7.696 -0.4551 -2.4978 -2.5262
  366MOL0     H48279   5.451   3.771   7.530  0.1932 -2.6290 -0.0913
  366MOL0     H48280   5.305   3.966   7.631  1.3699 -0.4661 -2.9343
  366MOL0     H48281   5.299   3.873   7.778  0.3381 -1.2018 -0.5990
  366MOL0     H48282   5.185   3.685   7.666 -1.0655 -1.1028 -1.8550
  366MOL0     H48283   5.197   3.762   7.510  2.7638 -1.0159  0.5664
  366MOL0     H48284   5.044   3.865   7.749  0.2583  2.3976 -0.5049
  366MOL0     H48285   5.069   3.957   7.596 -1.3346  0.4984  1.0570
  366MOL0     H48286   4.946   3.690   7.567  0.0923 -0.4302  0.5630
  366MOL0     H48287   4.923   3.840   7.476  1.7845  2.5773  0.2722
  366MOL0     H48288   4.807   3.758   7.750 -0.2810  1.5344  1.5040
  366MOL0     H48289   4.714   3.787   7.601 -3.2054  4.1822  1.7041
  366MOL0     H48290   4.850   3.994   7.783  0.2933 -0.7654  0.4775
  366MOL0     H48291   4.807   4.025   7.610  0.7656 -2.3868 -0.7230
  366MOL0     H48292   4.643   4.108   7.764 -1.6348 -0.6710  0.1783
  366MOL0     H48293   4.599   3.946   7.825  0.8968 -0.3741  0.1536
  366MOL0     H48294   5.679   3.966   7.415  1.9481 -0.0980 -1.2676
  366MOL0     H48295   5.921   3.894   7.391 -3.2833  1.9162 -0.9726
  366MOL0     H48296   6.320   3.949   7.872  0.0456  0.0915  0.8814
  366MOL0     H48297   6.524   3.826   7.969  1.8940  2.0708 -2.4385
  366MOL0     H48298   5.947   4.520   7.793  1.1043  0.0514  0.7426
  366MOL0     H48299   5.698   4.596   7.837  0.6064 -3.4182  1.7411
  366MOL0     H48300   5.430   4.776   8.146 -4.1399 -2.1240 -2.8182
  366MOL0     H48301   5.239   4.855   8.262  2.2271 -1.9088  0.7608
  366MOL0     H48302   5.003   5.211   8.087 -1.5391 -0.5386  0.2771
  366MOL0     H48303   5.105   5.260   8.222  0.4243 -0.4244 -0.7709
  366MOL0     H48304   4.893   5.309   8.253 -1.2657 -0.0034  0.0487
  366MOL0     H48305   4.823   5.146   8.251 -0.0003  0.7542 -0.7612
  366MOL0     H48306   4.985   5.259   8.469 -1.2128 -1.1886  4.1281
  366MOL0     H48307   4.994   5.075   8.431 -1.8082 -0.7655 -2.1993
  366MOL0     H48308   4.752   5.239   8.514  0.1094  0.8514  0.8612
  366MOL0     H48309   4.777   5.057   8.530  0.0376  0.7026  0.4621
  366MOL0     H48310   4.987   5.231   8.850  1.5918  1.7225 -2.3741
  366MOL0     H48311   5.230   5.200   8.013 -0.6141  0.3083  0.7314
  366MOL0     H48312   5.438   5.141   7.914  0.5926  0.8134  1.8388
  367MOL0     O48313   2.097   4.295   1.326 -0.4334  0.6359  0.3176
  367MOL0     C48314   2.215   4.309   1.319 -0.2681 -0.8928 -1.1256
  367MOL0     O48315   2.314   4.212   1.334 -0.1341  0.2470 -0.0570
  367MOL0     C48316   2.271   4.090   1.385 -0.0036 -0.2110  0.3059
  367MOL0     C48317   2.248   4.060   1.522  1.0579 -0.6248 -0.2354
  367MOL0     C48318   2.205   3.943   1.561 -0.0094  0.5700  0.1502
  367MOL0     C48319   2.178   3.837   1.468 -0.1034  0.5997 -0.2976
  367MOL0     O48320   2.125   3.717   1.495  0.0760 -0.1074  0.2114
  367MOL0     C48321   2.102   3.687   1.637 -0.0698 -0.0392  0.2032
  367MOL0     C48322   2.215   3.611   1.708  0.2768  0.4629 -0.2755
  367MOL0     C48323   2.355   3.665   1.685  0.4815 -0.6849  0.2113
  367MOL0     C48324   2.457   3.586   1.746  0.1692 -0.0798 -1.0700
  367MOL0     C48325   2.475   3.623   1.886 -0.3891 -0.4615  0.0935
  367MOL0     C48326   2.565   3.744   1.910 -1.0657  0.0037 -0.0263
  367MOL0     C48327   2.641   3.740   2.044 -0.4131 -0.2535  0.7837
  367MOL0     C48328   2.754   3.634   2.044  0.4532 -0.1186 -1.2296
  367MOL0     N48329   2.838   3.643   2.160 -0.4890 -0.4757  0.1695
  367MOL0     C48330   2.935   3.736   2.187  0.4258  0.0083  0.5387
  367MOL0     C48331   2.991   3.697   2.304 -0.9231  0.1725 -0.5827
  367MOL0     C48332   3.106   3.766   2.380  0.4905 -0.1551  0.2662
  367MOL0     C48333   3.227   3.686   2.347 -0.4368  0.3848 -0.1400
  367MOL0     C48334   3.248   3.566   2.441  0.0756  0.9177  0.0376
  367MOL0     C48335   3.395   3.517   2.463 -0.0143  0.1862  0.2096
  367MOL0     O48336   3.487   3.613   2.510  0.0294  0.1479  0.3086
  367MOL0     C48337   3.618   3.586   2.505  0.0229  0.4857  0.2631
  367MOL0     C48338   3.682   3.459   2.508  0.2390  0.0469 -0.4186
  367MOL0     C48339   3.818   3.448   2.507  0.1471 -0.3394  0.6282
  367MOL0     C48340   3.897   3.570   2.523  0.0042 -0.2633 -0.4551
  367MOL0     C48341   4.039   3.564   2.553  0.0898 -0.1715  0.5936
  367MOL0     O48342   4.103   3.445   2.557  0.0837 -0.0913  0.3215
  367MOL0     C48343   4.241   3.457   2.543 -0.1165 -0.5563  0.0065
  367MOL0     C48344   4.336   3.480   2.640  1.1537 -0.2271 -0.2303
  367MOL0     C48345   4.469   3.473   2.604 -0.1439 -0.4826 -0.1131
  367MOL0     C48346   4.520   3.467   2.471 -0.2530  0.5035  0.3004
  367MOL0     O48347   4.659   3.486   2.458  0.8554  0.4893  0.2287
  367MOL0     C48348   4.709   3.440   2.330 -0.0482 -0.0734 -0.2648
  367MOL0     C48349   4.861   3.404   2.343  0.3458  0.3783 -0.0992
  367MOL0     C48350   4.900   3.346   2.211 -0.3294  0.0711 -0.1845
  367MOL0     C48351   5.010   3.235   2.240  0.3361 -0.2470  0.4994
  367MOL0     C48352   5.144   3.298   2.296 -0.7254  0.2255 -0.1511
  367MOL0     C48353   5.191   3.425   2.226  0.3644 -0.3193  0.1451
  367MOL0     C48354   5.336   3.478   2.283 -0.5173  0.0466  0.1392
  367MOL0     C48355   5.329   3.536   2.423 -0.6981  0.0324 -0.6530
  367MOL0    Cl48356   5.484   3.589   2.455 -0.0794  0.4439 -0.1047
  367MOL0     C48357   4.425   3.439   2.379  0.1476 -0.0287  0.9080
  367MOL0     C48358   4.288   3.439   2.412  0.2529  0.0254 -0.0903
  367MOL0     O48359   4.100   3.666   2.550  0.3544  0.2719  0.0300
  367MOL0     C48360   3.836   3.696   2.542  1.0755  0.3095  0.6199
  367MOL0     C48361   3.695   3.700   2.523 -0.0932 -0.6578 -0.3879
  367MOL0     N48362   2.939   3.573   2.340 -0.3896 -0.4865 -0.2605
  367MOL0     N48363   2.841   3.543   2.261 -0.6375 -0.1185 -0.4070
  367MOL0     C48364   2.192   3.868   1.330  0.7022  0.6829  0.4111
  367MOL0     C48365   2.240   3.989   1.287  0.0714 -0.5625  0.4018
  367MOL0     C48366   2.273   4.449   1.282 -0.7712  0.0750 -0.0591
  367MOL0     C48367   2.185   4.562   1.274 -0.3841 -0.2964  0.3972
  367MOL0     C48368   2.230   4.693   1.247  0.4520 -0.5222 -0.3146
  367MOL0     C48369   2.366   4.715   1.238 -0.2040 -0.4690 -0.4399
  367MOL0     O48370   2.420   4.840   1.211  0.3177 -0.0012 -0.3427
  367MOL0     C48371   2.396   4.940   1.308  0.5121 -0.4060  0.3209
  367MOL0     C48372   2.408   4.872   1.447  0.6244  0.1096 -0.0600
  367MOL0     C48373   2.417   4.988   1.537  0.6584 -0.5424  0.2118
  367MOL0     C48374   2.440   4.959   1.685 -0.8545  0.1363 -0.8970
  367MOL0     C48375   2.571   4.904   1.717  0.1835  0.3553 -0.8365
  367MOL0     C48376   2.682   4.864   1.746  0.4033 -0.7832  0.2643
  367MOL0     C48377   2.454   4.600   1.239  0.7160 -0.3250  0.3320
  367MOL0     C48378   2.412   4.472   1.268  0.4748  0.0750  0.1227
  367MOL0     H48379   2.285   4.135   1.591  0.8682  2.8038 -3.4821
  367MOL0     H48380   2.209   3.926   1.668  1.3150 -1.0452 -0.1018
  367MOL0     H48381   2.017   3.619   1.645 -0.0075 -0.2556 -0.8656
  367MOL0     H48382   2.065   3.776   1.689  0.3906  0.3862 -0.1949
  367MOL0     H48383   2.212   3.513   1.659  0.4230  0.4632 -0.2837
  367MOL0     H48384   2.208   3.592   1.816  0.1871  0.9961 -0.1861
  367MOL0     H48385   2.347   3.770   1.714 -3.0697 -1.0429  0.9869
  367MOL0     H48386   2.380   3.667   1.578  1.3190 -1.1866  0.3932
  367MOL0     H48387   2.434   3.479   1.738 -0.3367  0.0918 -2.0055
  367MOL0     H48388   2.558   3.603   1.707  0.2284  0.5087 -0.6737
  367MOL0     H48389   2.529   3.541   1.935  1.3467  0.3301 -0.4164
  367MOL0     H48390   2.385   3.629   1.949 -0.9003 -1.4631 -0.5097
  367MOL0     H48391   2.515   3.841   1.902  1.0549  1.1339 -0.2939
  367MOL0     H48392   2.639   3.760   1.831  1.1836  0.9635  2.1152
  367MOL0     H48393   2.685   3.840   2.054 -0.5550 -0.1248  0.1747
  367MOL0     H48394   2.574   3.737   2.130 -0.4452 -3.3207  0.7495
  367MOL0     H48395   2.821   3.647   1.959  2.2231  2.0257  0.3623
  367MOL0     H48396   2.704   3.537   2.044 -0.7728  0.4916 -1.5294
  367MOL0     H48397   2.970   3.812   2.118  0.9561  1.9395  2.8222
  367MOL0     H48398   3.080   3.780   2.485  3.4965  2.2509  0.8457
  367MOL0     H48399   3.119   3.863   2.331 -0.4121 -0.7629 -1.2693
  367MOL0     H48400   3.319   3.743   2.367  0.6563 -1.6705  1.0207
  367MOL0     H48401   3.227   3.654   2.242 -1.3108  0.1100 -0.0609
  367MOL0     H48402   3.213   3.601   2.539  0.5716 -0.8532  0.8860
  367MOL0     H48403   3.183   3.485   2.407 -1.7554  2.4443 -0.2899
  367MOL0     H48404   3.428   3.475   2.367  0.9313  0.9722  0.1750
  367MOL0     H48405   3.385   3.445   2.545  0.5008 -0.1329 -0.0012
  367MOL0     H48406   3.611   3.377   2.499  1.5355 -1.1347 -0.2331
  367MOL0     H48407   3.865   3.353   2.486 -1.2282 -0.6908 -1.0105
  367MOL0     H48408   4.296   3.474   2.741 -1.3286 -1.5755 -1.2205
  367MOL0     H48409   4.540   3.485   2.686  0.2922  1.6144 -0.7294
  367MOL0     H48410   4.702   3.518   2.253  0.7407  0.0535 -0.2207
  367MOL0     H48411   4.662   3.347   2.298  0.2345 -0.4910  0.5146
  367MOL0     H48412   4.885   3.338   2.427 -0.8105  0.8136  0.5931
  367MOL0     H48413   4.920   3.497   2.348  0.8295  0.1108 -0.7082
  367MOL0     H48414   4.938   3.426   2.146  0.8398 -0.5159 -0.2383
  367MOL0     H48415   4.821   3.293   2.158  0.9762 -1.8768 -0.2683
  367MOL0     H48416   4.980   3.152   2.305  2.6324 -0.1256  1.8158
  367MOL0     H48417   5.044   3.183   2.150  0.4372 -0.2792  0.5568
  367MOL0     H48418   5.230   3.230   2.295  0.4344  1.5489 -2.9611
  367MOL0     H48419   5.132   3.327   2.401  1.2194  1.5928 -0.2511
  367MOL0     H48420   5.124   3.510   2.244  2.0620  1.0273  0.4740
  367MOL0     H48421   5.199   3.413   2.118  3.2142 -1.1760  0.3809
  367MOL0     H48422   5.409   3.397   2.282  0.9521  1.3174 -1.8938
  367MOL0     H48423   5.372   3.557   2.217  0.1808  0.3990  0.9241
  367MOL0     H48424   5.294   3.462   2.496  0.8942 -0.2416 -0.1334
  367MOL0     H48425   5.260   3.621   2.429  1.5705  1.8592  3.3299
  367MOL0     H48426   4.457   3.444   2.276 -1.4511  1.9176  0.4435
  367MOL0     H48427   4.219   3.413   2.333 -2.4799  6.2566 -0.3483
  367MOL0     H48428   3.878   3.793   2.567 -2.3886  2.3293 -0.7173
  367MOL0     H48429   3.643   3.795   2.528  0.0200 -0.4810 -2.0991
  367MOL0     H48430   2.154   3.787   1.268 -1.0237  0.3947  1.7735
  367MOL0     H48431   2.247   4.010   1.181 -3.2786  3.5342  0.7127
  367MOL0     H48432   2.081   4.533   1.271  0.2560 -2.8030  0.3860
  367MOL0     H48433   2.155   4.768   1.224  1.1542  0.9492  1.8534
  367MOL0     H48434   2.295   4.980   1.307  0.1463 -1.2693  1.3014
  367MOL0     H48435   2.467   5.023   1.304  0.6263 -0.3171  2.7972
  367MOL0     H48436   2.329   4.802   1.476 -0.6761  0.9312 -1.4610
  367MOL0     H48437   2.509   4.829   1.451  0.5489 -0.1981 -0.9884
  367MOL0     H48438   2.321   5.038   1.522  1.5028  0.7003 -1.4145
  367MOL0     H48439   2.491   5.060   1.501 -1.6210  1.4444 -0.8043
  367MOL0     H48440   2.433   5.055   1.737  0.0174  0.1334 -0.7541
  367MOL0     H48441   2.369   4.885   1.722 -2.6895  2.5854  0.7793
  367MOL0     H48442   2.777   4.827   1.778  0.5757 -0.6381 -0.0703
  367MOL0     H48443   2.553   4.622   1.200 -0.8382 -0.4674 -4.2811
  367MOL0     H48444   2.486   4.393   1.255 -0.1620 -0.2557 -1.8633
  368MOL0     O48445  10.646   8.819   9.648  0.3771 -0.4855 -0.3299
  368MOL0     C48446  10.658   8.857   9.533  0.1699  0.0703 -0.3027
  368MOL0     O48447  10.585   8.818   9.426  0.3691  0.1201 -0.0974
  368MOL0     C48448  10.476   8.738   9.457 -0.0056  0.1136  0.7534
  368MOL0     C48449  10.354   8.800   9.446  0.0756  0.4764 -0.2637
  368MOL0     C48450  10.235   8.730   9.460 -0.2738  0.0753  0.3887
  368MOL0     C48451  10.247   8.590   9.483  0.0387  0.9270  0.0886
  368MOL0     O48452  10.135   8.504   9.502  0.2829 -0.9107  0.2726
  368MOL0     C48453  10.002   8.551   9.499 -0.2213 -0.1216 -0.3523
  368MOL0     C48454   9.917   8.427   9.528 -0.1815 -0.2581  0.6491
  368MOL0     C48455   9.770   8.466   9.520  0.4765  0.1444 -0.2534
  368MOL0     C48456   9.676   8.342   9.521  0.3598 -0.0022 -0.3389
  368MOL0     C48457   9.551   8.355   9.611 -0.1351 -0.1218  0.0841
  368MOL0     C48458   9.456   8.233   9.599  0.5093 -0.1586 -0.1132
  368MOL0     C48459   9.333   8.250   9.683 -0.5294 -0.2553 -0.2064
  368MOL0     C48460   9.245   8.124   9.694 -0.3366  0.3337  1.1399
  368MOL0     N48461   9.134   8.146   9.791  0.2626 -0.1516  1.1243
  368MOL0     C48462   9.029   8.238   9.780  0.8598 -0.2278 -0.4734
  368MOL0     C48463   8.947   8.200   9.876  0.4715  0.7745  0.4519
  368MOL0     C48464   8.811   8.254   9.893  0.3627 -0.3713 -0.1039
  368MOL0     C48465   8.715   8.165   9.809 -1.0968 -1.0347 -0.8588
  368MOL0     C48466   8.577   8.247   9.820  0.8415 -0.1692  0.1215
  368MOL0     C48467   8.454   8.167   9.771  0.1111 -0.0857 -0.0410
  368MOL0     O48468   8.332   8.243   9.805  0.4569  0.2024 -0.0941
  368MOL0     C48469   8.209   8.219   9.744  0.0624 -0.1987 -0.4120
  368MOL0     C48470   8.189   8.201   9.604  0.5873  0.3007 -0.0224
  368MOL0     C48471   8.064   8.186   9.547  0.3082  0.1213 -0.4016
  368MOL0     C48472   7.950   8.175   9.631  0.3937 -0.5246 -0.8735
  368MOL0     C48473   7.819   8.159   9.574  0.0807  0.5160 -0.2368
  368MOL0     O48474   7.720   8.181   9.660  0.0709 -0.1521 -0.3946
  368MOL0     C48475   7.594   8.140   9.632  0.5346 -0.7505 -0.7877
  368MOL0     C48476   7.502   8.204   9.711  0.6373  0.7399 -0.3226
  368MOL0     C48477   7.369   8.159   9.709 -0.8204 -0.3745 -0.2488
  368MOL0     C48478   7.337   8.049   9.633 -0.3363  0.7518  0.4347
  368MOL0     O48479   7.215   7.981   9.644 -0.0182 -0.1816 -0.3534
  368MOL0     C48480   7.152   7.995   9.768  0.0003  0.2764  0.3595
  368MOL0     C48481   7.041   7.890   9.769  0.0900  0.3270  0.0267
  368MOL0     C48482   6.953   7.901   9.892  0.2614  0.0994  0.5436
  368MOL0     C48483   6.846   7.802   9.907  0.1664  0.0610 -0.3114
  368MOL0     C48484   6.731   7.869   9.980 -0.5201 -0.7675 -0.7009
  368MOL0     C48485   6.620   7.766  10.016  0.8187 -0.0776  0.2003
  368MOL0     C48486   6.516   7.843  10.101  0.3797  0.3445  0.4263
  368MOL0     C48487   6.378   7.771  10.120 -0.0901  0.2778  1.3713
  368MOL0    Cl48488   6.296   7.747   9.964  0.0734 -0.2100  0.2028
  368MOL0     C48489   7.433   7.977   9.556 -0.4587  0.3063 -0.0231
  368MOL0     C48490   7.562   8.027   9.555  0.1887  0.1749  0.6833
  368MOL0     O48491   7.804   8.124   9.460 -0.1963 -1.0999 -0.5571
  368MOL0     C48492   7.966   8.188   9.772  0.1438 -0.2521 -0.7500
  368MOL0     C48493   8.092   8.222   9.822 -0.2060  0.1706 -0.7323
  368MOL0     N48494   8.996   8.094   9.944  0.4111  0.5534  0.2709
  368MOL0     N48495   9.114   8.067   9.900 -0.8064  0.1433 -0.1252
  368MOL0     C48496  10.375   8.523   9.487 -0.1731 -0.2018 -0.0537
  368MOL0     C48497  10.489   8.598   9.470  0.6278 -0.8856  0.1919
  368MOL0     C48498  10.784   8.945   9.510  0.2926  0.1290  0.4849
  368MOL0     C48499  10.892   8.958   9.606  0.2325  0.2008 -0.2703
  368MOL0     C48500  11.008   9.034   9.576 -0.2078 -0.1529 -1.5718
  368MOL0     C48501  11.027   9.095   9.454  0.0224  0.2004  0.6117
  368MOL0     O48502  11.148   9.146   9.411 -0.1857 -0.3524 -0.9962
  368MOL0     C48503  11.255   9.182   9.500  0.1921 -0.2760  0.2092
  368MOL0     C48504  11.233   9.319   9.558  0.3029 -0.8733 -0.4235
  368MOL0     C48505  11.348   9.379   9.638  0.0421  0.4286 -0.3686
  368MOL0     C48506  11.478   9.415   9.553  0.4630 -0.3741  0.0337
  368MOL0     C48507  11.453   9.492   9.425  0.6007  0.4756  0.9088
  368MOL0     C48508  11.439   9.557   9.325  0.0078  0.7589  0.6447
  368MOL0     C48509  10.929   9.075   9.366 -0.2668  0.1788 -0.5780
  368MOL0     C48510  10.810   9.006   9.388 -0.2437  0.6533 -0.4356
  368MOL0     H48511  10.352   8.906   9.421  0.0151  1.5547  3.6075
  368MOL0     H48512  10.139   8.777   9.442 -1.3161 -1.7574  0.8734
  368MOL0     H48513   9.993   8.588   9.396  2.5201 -0.6444 -0.8567
  368MOL0     H48514   9.990   8.630   9.573 -0.8414 -0.0733 -0.4959
  368MOL0     H48515   9.936   8.379   9.624 -1.6523 -0.4874  0.8603
  368MOL0     H48516   9.942   8.357   9.448 -1.2375  0.9863 -0.8313
  368MOL0     H48517   9.750   8.522   9.428  1.9696  1.7803  0.3439
  368MOL0     H48518   9.748   8.527   9.609 -0.6724  1.9268 -1.6957
  368MOL0     H48519   9.640   8.325   9.419 -1.4929  0.6327  0.1536
  368MOL0     H48520   9.727   8.251   9.553 -0.3503 -0.1377  0.4437
  368MOL0     H48521   9.493   8.442   9.580 -0.5773 -0.4353  0.0270
  368MOL0     H48522   9.571   8.368   9.718  0.0420  0.6425 -0.0351
  368MOL0     H48523   9.511   8.145   9.633  0.6976 -1.0213 -2.4712
  368MOL0     H48524   9.431   8.216   9.494 -0.9753 -1.8912  0.4773
  368MOL0     H48525   9.358   8.269   9.788 -2.8298  1.4510  0.1093
  368MOL0     H48526   9.273   8.326   9.632 -1.3179  1.0318  2.4496
  368MOL0     H48527   9.300   8.039   9.735 -2.8399 -1.0666  1.8392
  368MOL0     H48528   9.207   8.104   9.593 -3.5374 -1.1397  2.4886
  368MOL0     H48529   9.021   8.318   9.706 -1.9185 -1.8749 -2.1637
  368MOL0     H48530   8.816   8.357   9.857  2.3839 -0.6521 -0.7227
  368MOL0     H48531   8.775   8.268   9.996 -0.1491 -2.0705 -0.0195
  368MOL0     H48532   8.694   8.066   9.852  0.2381 -1.9098 -2.1530
  368MOL0     H48533   8.750   8.156   9.706  2.6073  1.4095 -0.0184
  368MOL0     H48534   8.557   8.274   9.924 -1.1822  1.2800 -0.5909
  368MOL0     H48535   8.581   8.341   9.764 -1.9346 -0.8714 -1.4579
  368MOL0     H48536   8.465   8.061   9.796  3.9272 -0.8234 -3.6996
  368MOL0     H48537   8.466   8.158   9.663  0.7486  0.4523 -0.0246
  368MOL0     H48538   8.278   8.193   9.544  2.7747 -0.6051  3.0911
  368MOL0     H48539   8.063   8.166   9.440 -0.2530  0.3335 -0.4407
  368MOL0     H48540   7.534   8.280   9.782  1.0492  1.4683 -1.2615
  368MOL0     H48541   7.294   8.201   9.775 -0.1837  1.0272 -0.3686
  368MOL0     H48542   7.113   8.097   9.775 -2.0561 -0.4789  0.7810
  368MOL0     H48543   7.235   7.970   9.835  1.2137 -1.6681 -1.7205
  368MOL0     H48544   7.087   7.791   9.763 -3.8988 -1.6512 -3.5356
  368MOL0     H48545   6.984   7.897   9.676  0.2353 -0.4678 -0.1298
  368MOL0     H48546   6.908   8.000   9.890 -1.5670 -0.6879 -0.5027
  368MOL0     H48547   7.005   7.901   9.988 -3.4231 -3.3036  2.8325
  368MOL0     H48548   6.814   7.761   9.810  1.8062 -0.3708 -0.7015
  368MOL0     H48549   6.883   7.716   9.963  0.6057 -1.5707 -2.9121
  368MOL0     H48550   6.686   7.939   9.909 -0.0585 -2.5210 -2.8530
  368MOL0     H48551   6.760   7.929  10.066 -2.3181 -0.3464 -0.3363
  368MOL0     H48552   6.661   7.685  10.078  2.2532  1.6193  1.6018
  368MOL0     H48553   6.583   7.730   9.920 -0.0251 -0.5068  0.6774
  368MOL0     H48554   6.554   7.869  10.201 -1.8423  1.0696  1.1596
  368MOL0     H48555   6.491   7.936  10.049  0.7808  1.5291  2.2324
  368MOL0     H48556   6.313   7.824  10.190 -1.9383 -0.3706  0.1982
  368MOL0     H48557   6.392   7.673  10.168 -1.3986 -0.3993  0.4393
  368MOL0     H48558   7.413   7.888   9.496  0.7070  0.0536 -0.0554
  368MOL0     H48559   7.641   7.977   9.500 -0.3639 -2.5848  2.1731
  368MOL0     H48560   7.883   8.187   9.842  1.5664  2.0690  1.1467
  368MOL0     H48561   8.102   8.237   9.929  1.4667  1.0075 -0.9698
  368MOL0     H48562  10.377   8.414   9.496 -0.5214 -0.6950 -4.2326
  368MOL0     H48563  10.591   8.562   9.456  0.8756  0.3372 -1.3588
  368MOL0     H48564  10.875   8.919   9.706  0.4257 -0.7622 -0.5988
  368MOL0     H48565  11.086   9.038   9.651  1.2054  0.8695 -3.0044
  368MOL0     H48566  11.347   9.183   9.441  2.3627  1.4559  3.3027
  368MOL0     H48567  11.292   9.110   9.573  0.6198  1.8385  2.2160
  368MOL0     H48568  11.196   9.398   9.492 -1.0887  0.3166  1.6817
  368MOL0     H48569  11.149   9.312   9.627  1.4867  1.1204  1.3279
  368MOL0     H48570  11.375   9.303   9.712  2.1328 -0.6172 -2.0821
  368MOL0     H48571  11.307   9.469   9.683  0.5573  0.5050 -0.0423
  368MOL0     H48572  11.535   9.481   9.619 -1.9356  1.8270  0.0826
  368MOL0     H48573  11.546   9.333   9.531  1.4930  0.1554  1.0866
  368MOL0     H48574  11.429   9.626   9.244  1.8165 -0.8670 -1.0576
  368MOL0     H48575  10.956   9.117   9.269 -0.7426 -0.1043 -0.8336
  368MOL0     H48576  10.727   8.997   9.318 -0.4413 -0.4551 -0.0726
  369MOL0     O48577   8.651   5.708   6.524 -0.9339 -0.2953 -0.6803
  369MOL0     C48578   8.642   5.796   6.602 -0.9354  0.0645 -0.6109
  369MOL0     O48579   8.536   5.867   6.636  0.1696 -0.4818  0.0406
  369MOL0     C48580   8.405   5.831   6.588 -0.1992 -0.9242 -0.0164
  369MOL0     C48581   8.361   5.705   6.557 -0.9635 -0.8434 -0.3007
  369MOL0     C48582   8.223   5.686   6.514 -0.2804  0.0626  0.1146
  369MOL0     C48583   8.134   5.791   6.501  0.5121 -0.7866  0.1586
  369MOL0     O48584   7.999   5.780   6.471 -0.1813 -0.6189  0.0442
  369MOL0     C48585   7.963   5.680   6.377  0.9578  0.8525  0.4648
  369MOL0     C48586   7.933   5.543   6.431  1.6974  0.0553 -0.8363
  369MOL0     C48587   7.800   5.527   6.506 -0.0684 -0.6533 -1.2527
  369MOL0     C48588   7.758   5.382   6.546 -0.3960 -0.8587  0.3532
  369MOL0     C48589   7.631   5.380   6.636  0.0468 -1.2682 -0.0060
  369MOL0     C48590   7.582   5.242   6.662 -0.2533  0.9621  0.5527
  369MOL0     C48591   7.501   5.243   6.787 -0.1803 -0.0959 -0.0381
  369MOL0     C48592   7.401   5.127   6.799 -0.0031 -0.3763  0.0961
  369MOL0     N48593   7.292   5.169   6.898 -0.5485 -0.1536 -0.7791
  369MOL0     C48594   7.317   5.215   7.031 -0.2067 -0.3115 -0.0170
  369MOL0     C48595   7.196   5.238   7.079  0.1489  1.0575  0.6425
  369MOL0     C48596   7.158   5.323   7.197 -0.8857  0.4694 -0.4353
  369MOL0     C48597   7.244   5.276   7.317  0.1841  0.0716  0.2910
  369MOL0     C48598   7.196   5.332   7.453  1.0398 -0.1601 -0.1952
  369MOL0     C48599   7.230   5.487   7.480 -0.6577 -0.3635  0.0261
  369MOL0     O48600   7.173   5.523   7.605  0.1320  0.4865  0.1247
  369MOL0     C48601   7.042   5.555   7.613  0.2766 -0.4398  0.6815
  369MOL0     C48602   6.945   5.561   7.513 -0.5464  0.5561  0.1825
  369MOL0     C48603   6.817   5.600   7.544 -0.1183  0.9129  0.2698
  369MOL0     C48604   6.769   5.612   7.671 -0.1024  0.4135 -0.8448
  369MOL0     C48605   6.625   5.632   7.703  0.2087  0.5512  0.6149
  369MOL0     O48606   6.557   5.712   7.612 -0.0416  0.3249 -0.2328
  369MOL0     C48607   6.423   5.696   7.579  0.1863 -0.2813 -0.5017
  369MOL0     C48608   6.369   5.804   7.513 -0.9559  0.7734  0.3528
  369MOL0     C48609   6.233   5.806   7.480  0.1766  0.3615 -0.3457
  369MOL0     C48610   6.146   5.701   7.506 -0.4121  0.0159 -0.1140
  369MOL0     O48611   6.017   5.684   7.476 -0.3191 -0.2458 -0.3896
  369MOL0     C48612   5.950   5.779   7.388 -0.0137  0.1664 -0.2210
  369MOL0     C48613   5.806   5.727   7.388  0.3699 -0.0667 -0.2709
  369MOL0     C48614   5.810   5.600   7.302  0.5567  0.0796  0.3906
  369MOL0     C48615   5.678   5.521   7.291 -0.1847  0.0062  0.5116
  369MOL0     C48616   5.579   5.595   7.202 -1.2078  0.0031 -0.8118
  369MOL0     C48617   5.456   5.509   7.182 -0.3823  0.6212 -0.7850
  369MOL0     C48618   5.350   5.582   7.094 -0.1461  0.5640 -0.4840
  369MOL0     C48619   5.206   5.522   7.093 -0.4456 -0.0126 -0.4019
  369MOL0    Cl48620   5.213   5.349   7.040 -0.1114  0.6558 -0.0387
  369MOL0     C48621   6.203   5.596   7.578  0.1933 -0.4472  0.1098
  369MOL0     C48622   6.338   5.591   7.611 -1.0686 -0.4365 -0.3311
  369MOL0     O48623   6.583   5.585   7.806  0.1344 -0.1660  0.5159
  369MOL0     C48624   6.863   5.596   7.774  0.6684 -0.6788 -0.0478
  369MOL0     C48625   6.998   5.574   7.744 -0.0350  0.0207  0.1010
  369MOL0     N48626   7.101   5.198   6.984  0.1992 -0.1732 -0.4298
  369MOL0     N48627   7.158   5.154   6.880 -0.2461  0.0788  0.0806
  369MOL0     C48628   8.181   5.926   6.525  0.3038  0.2688  0.7035
  369MOL0     C48629   8.312   5.939   6.576 -0.5036  0.1391  0.5713
  369MOL0     C48630   8.776   5.842   6.661 -0.2997 -0.3811  0.1908
  369MOL0     C48631   8.897   5.800   6.600 -0.1220  0.9538  0.0062
  369MOL0     C48632   9.023   5.839   6.637  0.7072 -0.0126 -0.7523
  369MOL0     C48633   9.031   5.932   6.740  0.1665  0.0849  0.6484
  369MOL0     O48634   9.139   5.995   6.781 -0.5143  0.2101  0.0578
  369MOL0     C48635   9.272   5.967   6.725  0.2507  0.2976  0.2838
  369MOL0     C48636   9.362   6.066   6.786 -0.4121 -0.3133 -0.4241
  369MOL0     C48637   9.487   6.084   6.691  0.2808  0.0129 -0.9166
  369MOL0     C48638   9.572   6.197   6.741  0.0909 -0.3408 -0.1187
  369MOL0     C48639   9.676   6.227   6.641 -0.0101  0.0187 -0.6109
  369MOL0     C48640   9.763   6.236   6.563  0.9117  0.5559  0.0087
  369MOL0     C48641   8.918   5.984   6.800  0.4235  0.2807 -0.3787
  369MOL0     C48642   8.792   5.940   6.763 -0.2820  0.4635  0.5088
  369MOL0     H48643   8.434   5.625   6.556  1.1032  0.9254  0.2579
  369MOL0     H48644   8.183   5.590   6.481 -0.5480  0.1662  0.1332
  369MOL0     H48645   8.031   5.670   6.292 -0.8147 -1.0854 -0.8166
  369MOL0     H48646   7.868   5.722   6.344 -1.0614 -3.3748  0.1432
  369MOL0     H48647   8.002   5.513   6.510 -0.6197 -1.3812  0.7736
  369MOL0     H48648   7.952   5.473   6.349 -1.2739 -1.3367 -0.4961
  369MOL0     H48649   7.732   5.568   6.432  3.7362  2.1880 -3.5392
  369MOL0     H48650   7.797   5.598   6.590  0.5494  1.2829 -2.8030
  369MOL0     H48651   7.746   5.318   6.458  1.6516 -1.1440  0.2284
  369MOL0     H48652   7.845   5.350   6.604  0.7111  1.1120 -0.1425
  369MOL0     H48653   7.551   5.444   6.597  1.3166  0.5457  0.2251
  369MOL0     H48654   7.666   5.416   6.734  1.6794 -2.7980  0.0336
  369MOL0     H48655   7.665   5.173   6.675  1.2918  2.0810 -2.3353
  369MOL0     H48656   7.531   5.205   6.573  2.3457 -2.2840  0.2046
  369MOL0     H48657   7.571   5.244   6.871 -0.5449 -1.5048  0.3059
  369MOL0     H48658   7.442   5.335   6.783  0.9523  0.7207  1.3077
  369MOL0     H48659   7.440   5.028   6.825  0.2499  0.2187  2.0979
  369MOL0     H48660   7.350   5.114   6.703 -1.4401 -2.6643  1.0862
  369MOL0     H48661   7.414   5.255   7.060  0.3397 -0.7733 -1.1630
  369MOL0     H48662   7.052   5.309   7.219 -0.5886  0.8345  1.3706
  369MOL0     H48663   7.172   5.428   7.172 -0.8576  1.1329  2.1549
  369MOL0     H48664   7.347   5.310   7.309  0.1134 -0.0566 -1.5891
  369MOL0     H48665   7.261   5.168   7.327  2.0598  0.3643  0.6561
  369MOL0     H48666   7.089   5.321   7.474  1.0884  1.4629  1.1055
  369MOL0     H48667   7.249   5.278   7.532 -2.7181 -2.4974  0.9598
  369MOL0     H48668   7.199   5.545   7.393  0.6857 -2.9626 -2.3744
  369MOL0     H48669   7.339   5.491   7.488 -0.4880 -4.0111  1.7953
  369MOL0     H48670   6.965   5.550   7.407 -2.4787  0.7382 -0.2390
  369MOL0     H48671   6.749   5.593   7.460 -3.0793 -1.7298  2.6211
  369MOL0     H48672   6.437   5.877   7.469  2.0889 -2.5897 -1.0686
  369MOL0     H48673   6.187   5.892   7.432 -0.2544 -0.0135 -0.6141
  369MOL0     H48674   5.996   5.785   7.289 -0.0391  0.6390 -0.2043
  369MOL0     H48675   5.946   5.884   7.417 -0.0949  0.5270 -1.4566
  369MOL0     H48676   5.743   5.806   7.347 -2.5676 -1.6057  0.9924
  369MOL0     H48677   5.782   5.705   7.492  0.3358 -0.6170 -0.3927
  369MOL0     H48678   5.881   5.532   7.350  1.5753  0.5701 -0.3955
  369MOL0     H48679   5.848   5.623   7.202 -1.9513  1.0879 -0.4094
  369MOL0     H48680   5.696   5.421   7.250 -0.8491 -0.4686  1.3475
  369MOL0     H48681   5.641   5.505   7.392  0.4397  0.4338  0.8127
  369MOL0     H48682   5.626   5.594   7.103 -0.9174 -2.4621 -0.7217
  369MOL0     H48683   5.564   5.698   7.234  1.8809  0.5295 -0.7624
  369MOL0     H48684   5.406   5.481   7.275  0.2412 -2.3592 -1.2450
  369MOL0     H48685   5.487   5.413   7.140  1.0612  1.1970 -1.1129
  369MOL0     H48686   5.340   5.687   7.120  0.8094  0.5456 -0.0268
  369MOL0     H48687   5.378   5.578   6.988  0.0913 -1.3085 -0.3823
  369MOL0     H48688   5.151   5.581   7.019 -0.6136  1.3177  0.7257
  369MOL0     H48689   5.149   5.531   7.186 -0.9196  2.4594 -0.8507
  369MOL0     H48690   6.137   5.520   7.622  0.6698 -2.1153 -1.9024
  369MOL0     H48691   6.379   5.506   7.665  1.7827  0.6390 -0.6417
  369MOL0     H48692   6.842   5.609   7.880  1.4176  2.4243 -0.1847
  369MOL0     H48693   7.063   5.556   7.829 -0.9700  1.1908  1.1123
  369MOL0     H48694   8.111   6.006   6.502  1.3420  0.8336 -0.6643
  369MOL0     H48695   8.346   6.041   6.592 -1.1659  0.6528 -1.0845
  369MOL0     H48696   8.877   5.729   6.520 -1.4820 -3.2680  3.7175
  369MOL0     H48697   9.108   5.806   6.577  0.0241 -2.3637 -0.5234
  369MOL0     H48698   9.273   5.978   6.616 -0.4536 -1.1738  0.1072
  369MOL0     H48699   9.289   5.861   6.747 -0.4408  0.0582 -0.3055
  369MOL0     H48700   9.311   6.162   6.773  0.1846 -0.0085 -0.5649
  369MOL0     H48701   9.383   6.041   6.890 -1.0796  0.1386 -0.1716
  369MOL0     H48702   9.462   6.086   6.585  3.3573 -2.2502 -1.8245
  369MOL0     H48703   9.551   5.995   6.696  2.9879  1.9258  1.1790
  369MOL0     H48704   9.505   6.283   6.743  0.3936 -0.0988  2.1333
  369MOL0     H48705   9.616   6.169   6.837 -0.7642  2.0508  1.0351
  369MOL0     H48706   9.847   6.245   6.496  2.0452  0.4753  1.3663
  369MOL0     H48707   8.935   6.059   6.876  1.2427  0.2362 -0.5083
  369MOL0     H48708   8.704   5.977   6.814  0.5698 -0.6873  2.9534
  370MOL0     O48709  11.095   1.024   3.061  0.3088 -0.1974  0.0503
  370MOL0     C48710  11.180   0.931   3.049 -0.2346 -0.6876 -0.5111
  370MOL0     O48711  11.154   0.798   3.017 -0.0654 -0.0948 -0.1241
  370MOL0     C48712  11.026   0.768   3.008  0.7269 -0.5460  1.1871
  370MOL0     C48713  10.970   0.746   2.885 -0.0095 -0.0797  0.4060
  370MOL0     C48714  10.833   0.723   2.862  0.0345  0.0202 -0.2240
  370MOL0     C48715  10.745   0.729   2.980  0.2799 -0.4573  0.0033
  370MOL0     O48716  10.602   0.719   2.963 -0.3271 -0.9552 -0.1673
  370MOL0     C48717  10.550   0.765   2.832  0.2733 -0.3359 -0.1641
  370MOL0     C48718  10.397   0.729   2.814 -0.6154 -0.1308  1.0445
  370MOL0     C48719  10.308   0.829   2.901 -0.0921 -0.2766 -0.4906
  370MOL0     C48720  10.166   0.784   2.914  0.0440 -0.8279  0.1662
  370MOL0     C48721  10.072   0.894   2.965  0.1166  0.1958  0.7928
  370MOL0     C48722  10.046   1.021   2.875  0.6253  0.4614 -0.2691
  370MOL0     C48723   9.984   0.974   2.745 -1.0220  0.6082  0.2926
  370MOL0     C48724  10.005   1.080   2.638  0.5073  0.4570 -0.1451
  370MOL0     N48725   9.893   1.174   2.662  0.9353  0.5095  0.7676
  370MOL0     C48726   9.766   1.165   2.611 -0.0385  0.0878 -0.1506
  370MOL0     C48727   9.702   1.284   2.623  0.2582 -0.3239 -0.0650
  370MOL0     C48728   9.565   1.308   2.566 -0.5726 -0.0988  0.1090
  370MOL0     C48729   9.551   1.434   2.484  0.6048 -0.0584 -0.1532
  370MOL0     C48730   9.406   1.484   2.475 -0.2532 -0.5932 -0.1242
  370MOL0     C48731   9.308   1.366   2.447  0.0161 -0.3768  0.3228
  370MOL0     O48732   9.225   1.312   2.557  0.0819 -0.1934  1.0469
  370MOL0     C48733   9.117   1.228   2.531 -0.0711 -0.5482 -0.1004
  370MOL0     C48734   9.029   1.198   2.630  0.3331 -0.7531  0.4554
  370MOL0     C48735   8.919   1.117   2.609 -0.7101 -0.8144  0.1733
  370MOL0     C48736   8.898   1.050   2.485  0.1471  0.3566 -0.0628
  370MOL0     C48737   8.779   0.961   2.466  0.3329  0.2460 -0.7403
  370MOL0     O48738   8.738   0.920   2.351 -0.4245 -0.3532  0.5808
  370MOL0     C48739   8.621   0.861   2.311  1.0875 -0.0150 -0.1345
  370MOL0     C48740   8.499   0.869   2.387  0.1314 -0.6739  0.2259
  370MOL0     C48741   8.384   0.812   2.336  0.3634 -0.1273  0.2258
  370MOL0     C48742   8.387   0.746   2.212 -0.2227 -0.9171 -0.5241
  370MOL0     O48743   8.271   0.693   2.149  0.1846  0.5268 -0.5922
  370MOL0     C48744   8.142   0.726   2.199 -0.0446  0.1185  0.1510
  370MOL0     C48745   8.038   0.685   2.102  0.1081  0.3909  0.2774
  370MOL0     C48746   7.896   0.732   2.132 -0.6048  0.0892  0.5234
  370MOL0     C48747   7.800   0.679   2.024 -0.1902 -0.1762 -0.4799
  370MOL0     C48748   7.656   0.702   2.061 -0.0200  0.2378 -0.8011
  370MOL0     C48749   7.560   0.641   1.960 -0.3501  0.5947  0.2084
  370MOL0     C48750   7.502   0.501   2.001  0.1551 -0.2250  0.4552
  370MOL0     C48751   7.399   0.441   1.903 -0.5826 -0.0740  1.0840
  370MOL0    Cl48752   7.248   0.534   1.897 -0.0696 -0.2662 -0.7232
  370MOL0     C48753   8.508   0.733   2.142 -0.8998  0.1438  0.6757
  370MOL0     C48754   8.627   0.788   2.194 -0.2373  0.6373 -0.6553
  370MOL0     O48755   8.722   0.926   2.573  0.1312 -0.8332 -0.7009
  370MOL0     C48756   8.985   1.077   2.387 -0.5276 -0.3520 -0.3025
  370MOL0     C48757   9.098   1.157   2.414 -0.1402  0.1512 -0.1641
  370MOL0     N48758   9.788   1.363   2.691  0.0397 -0.6369 -0.3951
  370MOL0     N48759   9.900   1.302   2.712  0.0463  0.5379 -0.3192
  370MOL0     C48760  10.792   0.737   3.108  0.2184 -0.2799  0.1378
  370MOL0     C48761  10.933   0.758   3.121 -0.0290  0.8444  0.2013
  370MOL0     C48762  11.311   0.968   3.109  0.8602 -0.1109  0.1872
  370MOL0     C48763  11.404   0.876   3.156 -0.2028  0.1642 -0.3650
  370MOL0     C48764  11.533   0.924   3.209  0.4459  0.7640  1.3078
  370MOL0     C48765  11.562   1.062   3.215  0.4614  0.6150  0.2763
  370MOL0     O48766  11.689   1.085   3.269  0.0511 -0.2520 -0.2701
  370MOL0     C48767  11.727   1.222   3.306 -0.0600  0.0287  0.4545
  370MOL0     C48768  11.856   1.231   3.386  0.8252  0.7209  0.6063
  370MOL0     C48769  11.861   1.366   3.460  0.4701  0.5790  0.3809
  370MOL0     C48770  11.987   1.388   3.534 -0.1003 -1.1168 -0.1520
  370MOL0     C48771  11.990   1.525   3.578 -0.5253 -0.1972 -0.5336
  370MOL0     C48772  12.000   1.641   3.623  0.6398 -0.1523 -0.3695
  370MOL0     C48773  11.464   1.151   3.167  0.2146 -0.4852  0.4567
  370MOL0     C48774  11.345   1.100   3.112 -1.0921 -0.3532 -0.1420
  370MOL0     H48775  11.029   0.762   2.795 -1.1656  3.3306  0.0839
  370MOL0     H48776  10.791   0.724   2.762  0.0268  1.8147 -0.2250
  370MOL0     H48777  10.605   0.697   2.766  5.7841  0.0306  3.4026
  370MOL0     H48778  10.577   0.869   2.816  1.4950 -0.3819  1.3368
  370MOL0     H48779  10.379   0.628   2.852 -1.4815 -0.8273 -1.0713
  370MOL0     H48780  10.367   0.735   2.709 -0.4287  0.8301  1.0376
  370MOL0     H48781  10.304   0.928   2.855 -0.4906  0.3947  0.9495
  370MOL0     H48782  10.357   0.841   2.998 -0.6421  0.2892 -0.2818
  370MOL0     H48783  10.121   0.736   2.826 -0.5825 -1.0498  0.6004
  370MOL0     H48784  10.174   0.706   2.990 -0.8451 -1.0020  0.0948
  370MOL0     H48785  10.113   0.933   3.058  0.2585  0.9566  0.4199
  370MOL0     H48786   9.977   0.843   2.985  0.6909 -0.9285  0.7468
  370MOL0     H48787  10.137   1.080   2.862 -0.1725  1.6873 -0.3996
  370MOL0     H48788   9.973   1.081   2.929  0.9561  1.3839 -0.8123
  370MOL0     H48789  10.031   0.885   2.703  0.0502  1.2651  0.0431
  370MOL0     H48790   9.880   0.946   2.764 -0.6158 -2.3445 -1.3395
  370MOL0     H48791   9.997   1.037   2.538  1.3451 -1.5465  0.6082
  370MOL0     H48792  10.100   1.133   2.644  0.6191  0.4471 -1.5063
  370MOL0     H48793   9.726   1.077   2.563 -0.0096 -1.3692  2.3606
  370MOL0     H48794   9.500   1.319   2.654 -0.5014 -2.5994  0.5521
  370MOL0     H48795   9.538   1.216   2.514 -1.8423 -0.2209  0.9274
  370MOL0     H48796   9.579   1.410   2.381 -1.3049 -1.4886 -0.4122
  370MOL0     H48797   9.623   1.506   2.525  2.3260  0.0934 -3.1510
  370MOL0     H48798   9.372   1.526   2.570  0.5248 -1.2816  0.4769
  370MOL0     H48799   9.392   1.557   2.395  0.9610 -0.6634 -0.4173
  370MOL0     H48800   9.356   1.278   2.403 -1.7802 -0.8388 -0.8350
  370MOL0     H48801   9.240   1.387   2.364 -0.7065  1.0702  1.2475
  370MOL0     H48802   9.022   1.245   2.728 -2.1587 -0.4313  0.2000
  370MOL0     H48803   8.847   1.105   2.689  0.0360  1.9478  1.3676
  370MOL0     H48804   8.491   0.931   2.475  0.4511  1.2121 -1.0182
  370MOL0     H48805   8.291   0.832   2.387  0.6369 -2.2778  1.6999
  370MOL0     H48806   8.145   0.834   2.214  0.3463  0.2893 -1.0746
  370MOL0     H48807   8.115   0.686   2.298 -1.7226  2.1270  0.5714
  370MOL0     H48808   8.039   0.576   2.111 -1.9612  0.4153  1.4649
  370MOL0     H48809   8.068   0.716   2.001  0.4180  1.1783  0.6012
  370MOL0     H48810   7.888   0.841   2.137 -1.3327 -0.0307  3.1540
  370MOL0     H48811   7.867   0.703   2.233  0.2877 -2.9798  0.0181
  370MOL0     H48812   7.828   0.734   1.933 -1.5232 -0.0771 -0.8540
  370MOL0     H48813   7.820   0.573   2.007  2.9286 -0.2310  2.4762
  370MOL0     H48814   7.644   0.810   2.079 -1.2847 -0.0658  0.3335
  370MOL0     H48815   7.631   0.649   2.153  1.7560  0.9749  0.1555
  370MOL0     H48816   7.601   0.634   1.859 -1.9919  0.3460 -0.4611
  370MOL0     H48817   7.476   0.709   1.943 -1.4920 -1.3564 -2.6985
  370MOL0     H48818   7.586   0.430   1.998  0.9090  0.6701 -1.6939
  370MOL0     H48819   7.453   0.497   2.098  0.7617  0.8659  0.8364
  370MOL0     H48820   7.369   0.336   1.915 -1.3016  0.0728  0.6391
  370MOL0     H48821   7.437   0.470   1.805 -0.3542 -0.1497  1.1513
  370MOL0     H48822   8.513   0.681   2.047 -0.8426 -0.0806  0.8001
  370MOL0     H48823   8.721   0.773   2.142  1.4653 -1.4548  2.6912
  370MOL0     H48824   8.960   1.026   2.295 -2.7006  2.3317 -1.3356
  370MOL0     H48825   9.174   1.170   2.337  1.8207 -3.2045  0.9698
  370MOL0     H48826  10.714   0.753   3.182 -0.6645  1.8484 -1.1723
  370MOL0     H48827  10.975   0.777   3.220  1.2991  0.2519 -0.2271
  370MOL0     H48828  11.366   0.774   3.152 -1.2728  0.5308  0.1370
  370MOL0     H48829  11.603   0.856   3.255  0.1915  1.0722  2.1864
  370MOL0     H48830  11.654   1.264   3.376 -1.1586  1.3734 -1.3927
  370MOL0     H48831  11.736   1.284   3.216 -1.7527 -2.2881 -1.4452
  370MOL0     H48832  11.860   1.147   3.455 -2.2787  0.8372  1.0527
  370MOL0     H48833  11.940   1.227   3.316  0.2869  0.3075 -0.0158
  370MOL0     H48834  11.780   1.371   3.534 -0.1342 -0.5243 -0.1742
  370MOL0     H48835  11.852   1.445   3.385  1.1207 -1.5969 -2.1572
  370MOL0     H48836  11.996   1.326   3.624 -0.9461 -2.3006 -0.8608
  370MOL0     H48837  12.077   1.375   3.474  0.8551  1.9369  0.4292
  370MOL0     H48838  11.998   1.740   3.663 -0.0616 -0.6308  0.8033
  370MOL0     H48839  11.475   1.259   3.172  0.5524 -0.3733 -1.5247
  370MOL0     H48840  11.271   1.173   3.081  0.9730  1.8314 -0.3023
  371MOL0     O48841   3.933   9.602  10.708  1.2437 -0.3063 -0.1853
  371MOL0     C48842   4.043   9.648  10.753 -0.6030 -0.2279  0.2760
  371MOL0     O48843   4.093   9.624  10.878 -0.0486  0.3032 -0.2773
  371MOL0     C48844   4.006   9.565  10.968  0.1327  0.1849  0.1432
  371MOL0     C48845   3.946   9.648  11.063 -0.6757  0.7291  0.3575
  371MOL0     C48846   3.852   9.591  11.146 -0.2870  0.1224 -0.2109
  371MOL0     C48847   3.823   9.447  11.141 -0.1872 -0.0405  0.2027
  371MOL0     O48848   3.748   9.384  11.241 -0.6168 -0.0590  0.0701
  371MOL0     C48849   3.680   9.473  11.338 -0.1850  0.3433  0.7404
  371MOL0     C48850   3.612   9.378  11.434 -0.6794 -0.6788 -0.2440
  371MOL0     C48851   3.495   9.311  11.364  0.4464 -0.3222 -0.3673
  371MOL0     C48852   3.529   9.177  11.299 -0.1961 -0.0169 -1.2070
  371MOL0     C48853   3.423   9.106  11.220 -0.1413  0.3153 -0.8399
  371MOL0     C48854   3.292   9.101  11.294 -0.6772 -0.3943 -0.5809
  371MOL0     C48855   3.181   9.023  11.227  0.5035  0.3968  0.1671
  371MOL0     C48856   3.205   8.869  11.232  0.3649 -0.2663  0.1678
  371MOL0     N48857   3.122   8.790  11.141 -0.4606 -0.2512 -0.3317
  371MOL0     C48858   2.985   8.776  11.159 -0.0640  0.7949  0.0887
  371MOL0     C48859   2.947   8.673  11.077  1.0255 -0.8997  0.2877
  371MOL0     C48860   2.806   8.619  11.060  0.4314  0.5233 -0.1000
  371MOL0     C48861   2.760   8.602  10.915 -0.7345 -0.2200 -0.1161
  371MOL0     C48862   2.780   8.738  10.842  0.3972  0.4006  0.4749
  371MOL0     C48863   2.692   8.743  10.713  0.3085  0.3080 -0.7045
  371MOL0     O48864   2.561   8.749  10.772 -0.0394 -0.5255  0.5004
  371MOL0     C48865   2.461   8.771  10.680  0.6674  0.2111  0.4145
  371MOL0     C48866   2.453   8.884  10.598  0.6566  0.1441 -0.0401
  371MOL0     C48867   2.334   8.909  10.536  0.5704 -0.8049 -0.4489
  371MOL0     C48868   2.214   8.821  10.540 -0.3922  0.5415  0.7336
  371MOL0     C48869   2.093   8.857  10.470  0.1968 -0.0113 -0.0216
  371MOL0     O48870   2.066   8.993  10.457  0.6744 -0.8407 -0.2203
  371MOL0     C48871   1.946   9.030  10.400 -0.4658  0.8137  0.2557
  371MOL0     C48872   1.818   8.987  10.451 -0.3363 -0.0274 -0.2881
  371MOL0     C48873   1.699   9.021  10.388 -0.2235  0.3335 -1.0734
  371MOL0     C48874   1.702   9.084  10.263  0.2935  0.2429 -0.8173
  371MOL0     O48875   1.582   9.110  10.202 -0.3912 -0.0225 -0.2022
  371MOL0     C48876   1.459   9.083  10.254  0.4716 -0.1008  0.1377
  371MOL0     C48877   1.357   9.120  10.153  0.7087  0.1963  0.4519
  371MOL0     C48878   1.226   9.139  10.228 -0.1760  0.6082  0.1588
  371MOL0     C48879   1.104   9.156  10.133  0.1804  0.5953  0.1107
  371MOL0     C48880   0.972   9.139  10.208 -0.0217  0.0395  0.5036
  371MOL0     C48881   0.851   9.190  10.125  0.2831  0.0248 -0.4964
  371MOL0     C48882   0.727   9.206  10.216 -0.1039  0.0689  0.5379
  371MOL0     C48883   0.659   9.079  10.251 -0.0299 -0.3889 -0.3308
  371MOL0    Cl48884   0.615   8.999  10.101 -0.1375  0.1379 -0.2709
  371MOL0     C48885   1.824   9.133  10.219  0.3277 -0.4134 -0.3964
  371MOL0     C48886   1.942   9.110  10.283 -0.7424 -0.5498 -0.4959
  371MOL0     O48887   2.014   8.765  10.449  0.8610 -0.3396  0.4036
  371MOL0     C48888   2.231   8.699  10.611 -0.4701  0.1517  0.2800
  371MOL0     C48889   2.354   8.677  10.683 -0.8137 -0.1135 -0.2163
  371MOL0     N48890   3.057   8.628  11.014  0.4153  0.5785  0.6073
  371MOL0     N48891   3.159   8.692  11.050  0.0836  0.4668 -0.0500
  371MOL0     C48892   3.880   9.366  11.041 -0.2015  0.7758 -0.6280
  371MOL0     C48893   3.975   9.426  10.957  0.4628  0.5625  0.0358
  371MOL0     C48894   4.130   9.715  10.657 -0.6064 -0.4219  0.3943
  371MOL0     C48895   4.265   9.743  10.686  0.2982 -0.6520  0.3767
  371MOL0     C48896   4.346   9.808  10.594 -0.3647  0.1419  0.0511
  371MOL0     C48897   4.298   9.841  10.462  0.6351 -1.6168 -0.3155
  371MOL0     O48898   4.385   9.899  10.370  0.1277  0.2197 -0.1365
  371MOL0     C48899   4.407   9.839  10.239  0.6421 -0.1872  0.1593
  371MOL0     C48900   4.468   9.701  10.239  0.4242  0.0347  0.8011
  371MOL0     C48901   4.583   9.684  10.343 -1.2578 -0.3962  0.2669
  371MOL0     C48902   4.654   9.551  10.310  0.6444 -0.1252 -0.2343
  371MOL0     C48903   4.771   9.521  10.385  0.0781  0.5926 -0.4406
  371MOL0     C48904   4.877   9.493  10.443  0.0891 -0.7836 -0.0325
  371MOL0     C48905   4.166   9.799  10.428 -0.7998 -0.4125 -0.3222
  371MOL0     C48906   4.087   9.732  10.523  0.3299 -0.0289 -0.5240
  371MOL0     H48907   3.976   9.752  11.056  3.0446 -0.1869  0.5147
  371MOL0     H48908   3.796   9.653  11.214 -0.0495  0.6900 -0.5283
  371MOL0     H48909   3.598   9.531  11.294 -3.1052 -2.9727  1.3287
  371MOL0     H48910   3.745   9.542  11.391 -1.7281  2.1875  0.3314
  371MOL0     H48911   3.582   9.431  11.525  3.2685  0.5329  0.5195
  371MOL0     H48912   3.678   9.300  11.471 -0.3608  0.2749  1.2480
  371MOL0     H48913   3.445   9.382  11.297 -0.8201  1.1755  2.0259
  371MOL0     H48914   3.428   9.282  11.444  0.2873  1.1373  0.0575
  371MOL0     H48915   3.605   9.193  11.221  1.2807  1.5085  0.4572
  371MOL0     H48916   3.565   9.114  11.381 -0.0835  0.6774 -0.7190
  371MOL0     H48917   3.460   9.003  11.214 -1.7898 -0.6348  2.6053
  371MOL0     H48918   3.405   9.155  11.124 -3.6077 -0.7229 -0.8643
  371MOL0     H48919   3.241   9.197  11.305  1.0545  0.7520 -1.9539
  371MOL0     H48920   3.309   9.060  11.394  0.6065  0.0215 -0.6110
  371MOL0     H48921   3.082   9.054  11.263 -0.7041 -0.2992 -2.3314
  371MOL0     H48922   3.188   9.052  11.122  1.0385  2.9242  0.8457
  371MOL0     H48923   3.192   8.840  11.337 -1.1810  0.4204  0.1956
  371MOL0     H48924   3.306   8.857  11.192  0.8745  1.7336  0.7652
  371MOL0     H48925   2.915   8.834  11.218  0.0143  1.4646 -0.4551
  371MOL0     H48926   2.743   8.688  11.116  2.6432  2.5827  0.0212
  371MOL0     H48927   2.818   8.527  11.119  1.8976  0.0228 -1.1092
  371MOL0     H48928   2.655   8.569  10.915 -1.3301  1.5310  0.8062
  371MOL0     H48929   2.812   8.529  10.852 -3.1476 -1.2088 -1.1156
  371MOL0     H48930   2.756   8.823  10.907 -0.7152 -0.5368  1.3359
  371MOL0     H48931   2.887   8.742  10.817  0.8843 -3.8391  1.1193
  371MOL0     H48932   2.706   8.655  10.649 -0.9814 -1.6522  1.5349
  371MOL0     H48933   2.704   8.835  10.654 -0.2723  2.3571  2.1528
  371MOL0     H48934   2.536   8.952  10.586 -0.0237  0.9378 -0.2923
  371MOL0     H48935   2.331   9.002  10.479  0.5180  0.4361  1.4872
  371MOL0     H48936   1.829   8.923  10.538  0.6837  1.0440  0.4041
  371MOL0     H48937   1.607   9.002  10.442  0.9717 -2.3531  0.2077
  371MOL0     H48938   1.449   9.133  10.351  2.5483 -1.8738  1.3389
  371MOL0     H48939   1.444   8.976  10.270  1.6050 -0.5685 -1.6295
  371MOL0     H48940   1.353   9.042  10.076  2.4314  0.5509 -0.0330
  371MOL0     H48941   1.382   9.220  10.115  1.7133 -0.1768  0.1084
  371MOL0     H48942   1.237   9.218  10.303  2.4438 -0.0004  0.5215
  371MOL0     H48943   1.203   9.053  10.291  0.4213  0.3134 -0.0186
  371MOL0     H48944   1.102   9.254  10.085 -4.5662 -0.8485 -3.3903
  371MOL0     H48945   1.101   9.083  10.051  4.2525  0.5608 -0.1933
  371MOL0     H48946   0.982   9.201  10.298  0.9633  0.9552 -0.2140
  371MOL0     H48947   0.960   9.033  10.233 -0.1643 -0.5134 -1.7176
  371MOL0     H48948   0.836   9.129  10.036 -0.8969 -0.4275 -0.0064
  371MOL0     H48949   0.884   9.283  10.077  0.6814  0.4532  0.5812
  371MOL0     H48950   0.758   9.262  10.304  3.7533  0.6272 -0.9998
  371MOL0     H48951   0.647   9.260  10.164 -0.9427 -2.3244 -0.8411
  371MOL0     H48952   0.570   9.086  10.314 -1.2583  0.6194 -2.0868
  371MOL0     H48953   0.740   9.017  10.292 -0.4029 -0.3852  0.4229
  371MOL0     H48954   1.828   9.201  10.135 -1.8441 -1.8448 -1.7484
  371MOL0     H48955   2.031   9.160  10.246 -1.7992  1.4437 -0.4555
  371MOL0     H48956   2.151   8.626  10.613 -0.7608  0.4009 -0.9787
  371MOL0     H48957   2.368   8.589  10.744  2.2797 -0.0660 -0.6946
  371MOL0     H48958   3.863   9.260  11.033 -1.8977  0.8926  0.8729
  371MOL0     H48959   4.021   9.354  10.891 -0.3342  0.0513  0.0325
  371MOL0     H48960   4.305   9.722  10.785  1.2562  0.2057  0.1763
  371MOL0     H48961   4.444   9.834  10.632 -0.0183  0.7459 -1.1932
  371MOL0     H48962   4.481   9.899  10.186 -0.5389 -0.8314 -2.3832
  371MOL0     H48963   4.313   9.829  10.184  0.9703 -1.7455 -0.1535
  371MOL0     H48964   4.380   9.644  10.271  0.3809  0.4008  1.3254
  371MOL0     H48965   4.494   9.664  10.139 -1.3250  1.5102 -0.2705
  371MOL0     H48966   4.549   9.677  10.446  0.6912 -1.0373  0.9140
  371MOL0     H48967   4.653   9.768  10.339 -1.6889 -0.0391  0.2157
  371MOL0     H48968   4.578   9.473  10.316  1.2307 -0.6866  0.0077
  371MOL0     H48969   4.694   9.553  10.208 -1.4176  1.0615 -1.0690
  371MOL0     H48970   4.958   9.447  10.496 -1.7705 -2.0263  1.8767
  371MOL0     H48971   4.133   9.802  10.324 -0.5128 -1.1241 -0.4385
  371MOL0     H48972   3.992   9.688  10.493  0.6388 -1.6880  0.7858
  372MOL0     O48973   7.790   6.282   9.902  0.2449  0.7510  0.8802
  372MOL0     C48974   7.860   6.199   9.971 -0.6275 -0.5640  1.0647
  372MOL0     O48975   7.820   6.136  10.082  0.6534  0.5478  0.1571
  372MOL0     C48976   7.697   6.068  10.094 -0.6166 -0.4409  0.0165
  372MOL0     C48977   7.684   5.988  10.210  0.3369  0.5820  0.6685
  372MOL0     C48978   7.564   5.921  10.242  0.9820 -0.2729 -0.2869
  372MOL0     C48979   7.463   5.913  10.152  0.5545 -0.4884 -0.1651
  372MOL0     O48980   7.341   5.851  10.193 -0.5071 -0.2743 -0.4255
  372MOL0     C48981   7.226   5.910  10.145 -0.0355  1.0775 -0.3060
  372MOL0     C48982   7.110   5.870  10.230  0.1105 -0.2993  0.2369
  372MOL0     C48983   6.973   5.930  10.183  0.2377  0.4411  0.3775
  372MOL0     C48984   6.861   5.904  10.278 -0.0704  0.1141  0.4466
  372MOL0     C48985   6.726   5.958  10.231 -0.3897 -0.1963  0.7933
  372MOL0     C48986   6.648   5.858  10.143 -0.6193 -1.0797 -0.0147
  372MOL0     C48987   6.522   5.918  10.086  0.8501 -0.5624  0.0453
  372MOL0     C48988   6.420   5.952  10.192  0.6748 -1.2193 -0.3385
  372MOL0     N48989   6.284   5.990  10.148  1.3012  0.4683  0.0608
  372MOL0     C48990   6.262   6.083  10.058 -0.4589 -0.1667  0.1738
  372MOL0     C48991   6.125   6.073  10.034 -0.5557 -0.7907  0.5247
  372MOL0     C48992   6.053   6.157   9.935 -1.1608  0.1901  0.4976
  372MOL0     C48993   6.085   6.111   9.794 -0.9770  0.6434  0.7850
  372MOL0     C48994   6.042   5.966   9.770 -0.2295  0.5624 -0.0998
  372MOL0     C48995   5.897   5.938   9.783 -0.1830 -0.2648  0.3801
  372MOL0     O48996   5.812   6.026   9.704  0.8517 -0.5878  0.2223
  372MOL0     C48997   5.684   6.002   9.679 -0.2089  0.4298  0.1053
  372MOL0     C48998   5.610   6.068   9.575 -0.1462 -0.1898  0.5406
  372MOL0     C48999   5.474   6.023   9.549  0.5071  0.3907 -0.1072
  372MOL0     C49000   5.403   5.936   9.627  0.4648 -0.2577 -0.2482
  372MOL0     C49001   5.276   5.869   9.588  0.8084 -0.0140 -0.5254
  372MOL0     O49002   5.219   5.904   9.475  0.2421  0.4027 -0.0282
  372MOL0     C49003   5.089   5.868   9.454  0.5064  0.6735 -1.0303
  372MOL0     C49004   4.988   5.971   9.436 -0.3979  0.7437 -0.4457
  372MOL0     C49005   4.850   5.935   9.428 -0.0209 -0.4369  0.1388
  372MOL0     C49006   4.821   5.801   9.416  0.8059 -0.4043 -0.2116
  372MOL0     O49007   4.691   5.754   9.418 -0.1873  0.5195 -0.1230
  372MOL0     C49008   4.592   5.821   9.343  0.8984 -0.1468 -0.4467
  372MOL0     C49009   4.459   5.753   9.373  0.1712 -0.3130  0.3962
  372MOL0     C49010   4.343   5.828   9.298  0.4662  0.0605  0.6368
  372MOL0     C49011   4.213   5.746   9.337  0.9362 -0.4863 -0.3472
  372MOL0     C49012   4.094   5.795   9.267 -0.6542 -0.8433  0.2919
  372MOL0     C49013   3.978   5.702   9.291  0.4336  0.4483 -0.2632
  372MOL0     C49014   3.864   5.743   9.194  0.0669  0.7325  0.6592
  372MOL0     C49015   3.735   5.670   9.223  0.0792  0.0859 -0.9452
  372MOL0    Cl49016   3.742   5.494   9.250 -0.0927 -0.1563  0.0062
  372MOL0     C49017   4.915   5.705   9.435  0.3210  0.7587 -0.1938
  372MOL0     C49018   5.053   5.733   9.451  0.7749 -0.1677 -0.0189
  372MOL0     O49019   5.227   5.793   9.678  0.5033 -0.0362 -0.3556
  372MOL0     C49020   5.485   5.885   9.740 -0.0995  0.3227  0.2142
  372MOL0     C49021   5.617   5.917   9.761  0.0835 -0.9888  0.2387
  372MOL0     N49022   6.071   5.985  10.122 -0.0698  0.2617 -0.0143
  372MOL0     N49023   6.166   5.930  10.193  0.2022 -0.7489  0.4825
  372MOL0     C49024   7.473   5.976  10.031  0.4592 -0.8220  0.2007
  372MOL0     C49025   7.592   6.046   9.995 -0.2154  0.2916 -1.0454
  372MOL0     C49026   8.008   6.178   9.924 -0.6937 -0.6393 -0.1314
  372MOL0     C49027   8.067   6.262   9.830  0.5886 -0.0288  0.6923
  372MOL0     C49028   8.202   6.245   9.792  0.6338 -1.0106  1.2166
  372MOL0     C49029   8.283   6.154   9.857  0.3729 -0.6620 -0.0472
  372MOL0     O49030   8.405   6.121   9.803  0.0631 -0.5981  0.1540
  372MOL0     C49031   8.476   6.235   9.754 -0.0255 -0.3971  0.6995
  372MOL0     C49032   8.627   6.202   9.763 -0.9207  0.8211  0.7156
  372MOL0     C49033   8.709   6.314   9.701  0.2868 -0.4958  0.4474
  372MOL0     C49034   8.854   6.273   9.666  0.0677  0.5526 -0.2643
  372MOL0     C49035   8.939   6.389   9.631  0.9326 -0.4615 -0.3113
  372MOL0     C49036   8.994   6.499   9.611 -0.3679  0.6550 -0.1726
  372MOL0     C49037   8.223   6.075   9.950 -0.0918 -0.2136  0.8165
  372MOL0     C49038   8.087   6.087   9.981 -0.3300  0.1637  0.3284
  372MOL0     H49039   7.773   5.995  10.272  0.6789 -3.2830  0.8194
  372MOL0     H49040   7.556   5.860  10.332 -1.2011  2.1361  1.2700
  372MOL0     H49041   7.212   5.877  10.042  3.1635 -1.1776 -0.1628
  372MOL0     H49042   7.236   6.019  10.137 -1.2229  1.4206  1.8883
  372MOL0     H49043   7.135   5.906  10.330  1.8206 -1.0589  0.1167
  372MOL0     H49044   7.109   5.762  10.241  2.5738 -0.2626  1.5437
  372MOL0     H49045   6.956   5.873  10.091 -0.3936 -0.3608  0.9796
  372MOL0     H49046   6.978   6.037  10.160 -2.7724  0.3030 -1.5054
  372MOL0     H49047   6.856   5.796  10.291 -0.9654 -0.2797 -2.5148
  372MOL0     H49048   6.888   5.947  10.375 -0.0069  0.5730  0.2309
  372MOL0     H49049   6.746   6.048  10.171  1.2230 -0.3754  1.0209
  372MOL0     H49050   6.668   5.993  10.317  2.0934  1.6408  1.8300
  372MOL0     H49051   6.619   5.777  10.211  1.2769 -1.1683  0.7440
  372MOL0     H49052   6.712   5.827  10.060  1.4019  1.7657  0.3122
  372MOL0     H49053   6.547   6.003  10.021  3.6204 -0.6865  0.8256
  372MOL0     H49054   6.472   5.851  10.016  1.1456  0.0236 -0.7494
  372MOL0     H49055   6.452   6.040  10.249 -2.6586 -0.0194 -0.1431
  372MOL0     H49056   6.412   5.865  10.257 -0.5351 -1.0292 -0.2198
  372MOL0     H49057   6.333   6.149  10.009  2.2504 -3.9360 -1.4390
  372MOL0     H49058   6.084   6.262   9.938  0.9514 -0.3649 -0.1997
  372MOL0     H49059   5.947   6.146   9.958 -0.8768 -2.2178  0.8873
  372MOL0     H49060   6.194   6.103   9.784 -1.1118 -2.2475  0.6885
  372MOL0     H49061   6.047   6.175   9.714 -0.1160 -0.2677 -0.3978
  372MOL0     H49062   6.065   5.941   9.666 -3.4557  0.2839 -0.8692
  372MOL0     H49063   6.101   5.901   9.836 -2.3215 -0.3657  0.9587
  372MOL0     H49064   5.867   5.939   9.889 -1.7908  2.1054 -0.0020
  372MOL0     H49065   5.881   5.843   9.732 -2.1105  0.8595 -1.2830
  372MOL0     H49066   5.663   6.137   9.511  0.1872  0.3709  1.3968
  372MOL0     H49067   5.417   6.063   9.466 -3.3637 -3.6377  0.2394
  372MOL0     H49068   5.023   6.074   9.431  1.6833  0.4609  3.9104
  372MOL0     H49069   4.773   6.011   9.418 -0.2041 -0.6442 -0.0132
  372MOL0     H49070   4.615   5.817   9.236  0.8298 -1.8102 -0.4105
  372MOL0     H49071   4.580   5.927   9.369  1.8447  0.1568 -1.1954
  372MOL0     H49072   4.437   5.752   9.480  0.3396 -1.0923  0.4273
  372MOL0     H49073   4.462   5.652   9.332  3.4205  0.0966 -0.7023
  372MOL0     H49074   4.371   5.827   9.192  3.1829 -0.3661  1.2810
  372MOL0     H49075   4.331   5.934   9.323  0.1364  0.3940 -0.8101
  372MOL0     H49076   4.214   5.638   9.319  2.1990 -0.9851  2.2766
  372MOL0     H49077   4.187   5.756   9.442 -0.0787 -1.6172 -0.4799
  372MOL0     H49078   4.123   5.782   9.162 -1.8420  1.5592 -0.3964
  372MOL0     H49079   4.073   5.899   9.293 -0.8309 -1.1259  1.2879
  372MOL0     H49080   3.951   5.716   9.396 -1.1983  1.4479 -0.7647
  372MOL0     H49081   3.999   5.597   9.272 -0.9121  0.4170 -1.8590
  372MOL0     H49082   3.856   5.852   9.205  2.4956  0.8823  1.5434
  372MOL0     H49083   3.903   5.718   9.095  1.1785 -0.2036  1.3182
  372MOL0     H49084   3.665   5.683   9.140 -1.5141 -0.4022  0.2731
  372MOL0     H49085   3.688   5.725   9.305  0.4152  0.4520 -0.9996
  372MOL0     H49086   4.879   5.602   9.437  1.6267  0.2525 -1.3983
  372MOL0     H49087   5.130   5.656   9.457  1.1416  0.2882  2.5991
  372MOL0     H49088   5.447   5.810   9.808  3.2336 -2.0252 -0.2858
  372MOL0     H49089   5.665   5.865   9.843  1.5118 -0.8332 -0.4673
  372MOL0     H49090   7.388   5.966   9.964 -0.8389  0.7686  1.5328
  372MOL0     H49091   7.600   6.086   9.895 -0.1636 -3.2899 -2.6108
  372MOL0     H49092   8.007   6.334   9.775  0.8072  0.2729  0.8518
  372MOL0     H49093   8.244   6.291   9.703  0.3988 -1.9765  0.5772
  372MOL0     H49094   8.462   6.331   9.805  0.5651  0.1849 -0.2186
  372MOL0     H49095   8.453   6.248   9.648  2.1702 -0.7997  0.1391
  372MOL0     H49096   8.657   6.206   9.868  0.7651  0.4669  0.2764
  372MOL0     H49097   8.650   6.104   9.722 -0.2403  0.7060  1.3561
  372MOL0     H49098   8.711   6.402   9.765 -0.5663 -0.1627  0.0449
  372MOL0     H49099   8.651   6.350   9.614 -1.0308  3.6508  2.7429
  372MOL0     H49100   8.911   6.221   9.743  0.0201  0.3289 -0.3776
  372MOL0     H49101   8.849   6.205   9.581 -0.1917 -1.8987  1.6063
  372MOL0     H49102   9.042   6.593   9.596  0.0092  0.3837 -0.6924
  372MOL0     H49103   8.283   6.001  10.003 -0.2921 -0.8353  0.2008
  372MOL0     H49104   8.038   6.011  10.041 -0.0353 -0.9807 -0.8088
  373MOL0     O49105   4.014  10.090   8.090 -0.3674 -0.6713 -0.3881
  373MOL0     C49106   4.049  10.082   7.964 -0.1528 -0.2845 -0.3153
  373MOL0     O49107   3.960  10.076   7.859 -0.0808 -0.3366  0.2210
  373MOL0     C49108   3.820  10.071   7.881 -0.4256  0.3441 -0.4514
  373MOL0     C49109   3.754  10.193   7.895 -0.0253  0.6225 -1.3505
  373MOL0     C49110   3.619  10.189   7.906  0.4834 -0.2642  0.4084
  373MOL0     C49111   3.546  10.072   7.889 -0.2437  0.3722 -0.4913
  373MOL0     O49112   3.403  10.061   7.873  0.2635 -0.1999  0.8595
  373MOL0     C49113   3.334  10.189   7.844 -0.0063  0.8996 -0.3852
  373MOL0     C49114   3.189  10.167   7.803  0.7505  0.7893  0.3043
  373MOL0     C49115   3.093  10.121   7.916  0.2018 -0.7950 -0.2179
  373MOL0     C49116   2.943  10.111   7.877  0.2442 -1.2701  0.0837
  373MOL0     C49117   2.848  10.076   7.998 -0.8708 -0.6381 -0.6844
  373MOL0     C49118   2.699  10.083   7.952  0.6601 -0.1242  1.2862
  373MOL0     C49119   2.595  10.065   8.067 -0.6881 -0.1703  0.3062
  373MOL0     C49120   2.617   9.944   8.152 -0.7402 -0.1787  0.3252
  373MOL0     N49121   2.519   9.936   8.266  0.1277 -0.2995  0.0090
  373MOL0     C49122   2.477  10.041   8.348 -0.3410  0.6633 -0.1895
  373MOL0     C49123   2.358  10.013   8.397  0.3373  0.0166  0.0743
  373MOL0     C49124   2.276  10.107   8.482 -0.2624 -0.4945  0.1161
  373MOL0     C49125   2.157  10.172   8.417  0.5177  0.0353 -0.5940
  373MOL0     C49126   2.049  10.072   8.402  0.3278 -0.2060  0.7145
  373MOL0     C49127   1.906  10.133   8.391  0.2959  0.0596 -0.2169
  373MOL0     O49128   1.873  10.171   8.258  0.0342 -0.1977  0.2270
  373MOL0     C49129   1.737  10.179   8.242 -1.1375  1.2194  0.6629
  373MOL0     C49130   1.651  10.226   8.331  0.4141 -0.6045 -0.0898
  373MOL0     C49131   1.515  10.229   8.299 -0.1319  0.0066 -0.0532
  373MOL0     C49132   1.460  10.186   8.176 -0.0682  0.7202  0.1392
  373MOL0     C49133   1.325  10.198   8.151  0.0865  1.3411  0.2071
  373MOL0     O49134   1.268  10.322   8.176 -0.0004 -0.2810  0.2518
  373MOL0     C49135   1.134  10.341   8.140 -0.2496  0.3167  0.2858
  373MOL0     C49136   1.059  10.426   8.213  0.0023 -0.0294 -0.0046
  373MOL0     C49137   0.937  10.457   8.164  0.5011 -0.1926 -0.5580
  373MOL0     C49138   0.882  10.400   8.046 -0.2612 -0.4687  0.0616
  373MOL0     O49139   0.762  10.434   8.001 -0.1426  0.6336 -0.3787
  373MOL0     C49140   0.697  10.362   7.893  0.2654  0.3735 -0.1050
  373MOL0     C49141   0.562  10.424   7.849  0.4854  0.3721  0.2440
  373MOL0     C49142   0.500  10.331   7.738 -0.4022 -0.4777 -0.2123
  373MOL0     C49143   0.371  10.400   7.706 -0.9602 -0.0587 -0.8065
  373MOL0     C49144   0.312  10.337   7.583 -0.2715  0.0018 -0.1611
  373MOL0     C49145   0.182  10.397   7.537  0.1109 -0.6235 -0.0803
  373MOL0     C49146   0.118  10.310   7.423 -0.0827  0.3074 -0.4791
  373MOL0     C49147  -0.011  10.364   7.366  0.2206  0.2842 -0.6318
  373MOL0    Cl49148   0.017  10.521   7.282  0.0209  0.2030  0.4040
  373MOL0     C49149   0.961  10.309   7.978  0.0170 -0.6071 -0.0375
  373MOL0     C49150   1.084  10.278   8.022 -0.3290  0.5508 -0.0398
  373MOL0     O49151   1.274  10.096   8.101  0.9041 -0.0843 -1.1139
  373MOL0     C49152   1.554  10.128   8.086 -0.4978  0.9428  0.5972
  373MOL0     C49153   1.694  10.122   8.119 -1.1811 -0.2531  0.5716
  373MOL0     N49154   2.327   9.885   8.349 -0.2422  1.0367 -0.0124
  373MOL0     N49155   2.427   9.833   8.280  0.3098 -0.0420  0.3063
  373MOL0     C49156   3.614   9.949   7.883  0.3022  0.0712  0.3275
  373MOL0     C49157   3.747   9.952   7.874 -0.9535  0.2823 -0.4605
  373MOL0     C49158   4.196  10.069   7.927  0.6727  0.0618  0.0703
  373MOL0     C49159   4.298  10.121   8.020  1.3015  0.0683  0.7015
  373MOL0     C49160   4.429  10.126   7.979  0.5661  0.3721 -0.3244
  373MOL0     C49161   4.471  10.070   7.855 -0.0172  0.1655  0.4094
  373MOL0     O49162   4.604  10.079   7.813  0.4573  0.9161  0.2157
  373MOL0     C49163   4.701  10.074   7.905  0.1149  0.6884 -1.0440
  373MOL0     C49164   4.834  10.051   7.837  0.5270  0.2690  0.0321
  373MOL0     C49165   4.887  10.186   7.774  0.2468 -0.0627  0.0505
  373MOL0     C49166   5.019  10.177   7.697  1.1591 -0.5609 -0.3345
  373MOL0     C49167   5.134  10.129   7.776 -1.2200 -0.0511  0.7772
  373MOL0     C49168   5.223  10.066   7.834 -0.3545 -1.3161  0.5804
  373MOL0     C49169   4.377  10.000   7.778 -0.0300 -0.3449 -0.6785
  373MOL0     C49170   4.244  10.002   7.810 -0.0092 -0.2894  0.3999
  373MOL0     H49171   3.798  10.290   7.912 -2.3694  1.3487  1.3845
  373MOL0     H49172   3.572  10.286   7.913 -0.1072 -0.5510  0.4727
  373MOL0     H49173   3.396  10.233   7.766  1.3542 -0.9687 -0.4351
  373MOL0     H49174   3.335  10.249   7.935  0.6677  0.0089  0.2093
  373MOL0     H49175   3.191  10.088   7.728 -1.8294  1.4261 -0.5263
  373MOL0     H49176   3.150  10.262   7.766  0.7822  2.7394  4.6125
  373MOL0     H49177   3.111  10.203   7.987 -1.9051 -0.1178 -0.3799
  373MOL0     H49178   3.132  10.026   7.952  1.8693  0.1690  0.6579
  373MOL0     H49179   2.906  10.210   7.848 -0.3594 -1.3164  0.6754
  373MOL0     H49180   2.943  10.031   7.802 -0.6992 -0.7226 -0.5263
  373MOL0     H49181   2.855  10.148   8.079  0.5837  0.6668 -1.8958
  373MOL0     H49182   2.876   9.979   8.041 -0.3149  1.3241  3.9090
  373MOL0     H49183   2.680  10.008   7.874 -0.4185  1.4548 -0.0224
  373MOL0     H49184   2.679  10.180   7.905  0.9810 -0.5147  0.3214
  373MOL0     H49185   2.601  10.149   8.136 -1.4154 -0.1180  0.3122
  373MOL0     H49186   2.491  10.068   8.035 -0.9377 -0.7877  1.0335
  373MOL0     H49187   2.716   9.941   8.197 -0.0416 -5.4646 -0.8658
  373MOL0     H49188   2.610   9.854   8.089 -0.9213 -0.3229  0.5484
  373MOL0     H49189   2.523  10.132   8.384  0.6576 -0.9242  2.9929
  373MOL0     H49190   2.341  10.191   8.509 -0.9846 -0.1270  0.7410
  373MOL0     H49191   2.252  10.058   8.577  0.7558  0.7529  1.0440
  373MOL0     H49192   2.174  10.216   8.318  0.8642 -1.3056 -1.1540
  373MOL0     H49193   2.119  10.257   8.474 -0.8852  0.8645 -2.6272
  373MOL0     H49194   2.073  10.009   8.316  1.4519  1.9186 -0.6024
  373MOL0     H49195   2.047   9.995   8.479 -2.1384 -2.1400 -1.0964
  373MOL0     H49196   1.908  10.220   8.458  1.4486 -0.1062 -0.0071
  373MOL0     H49197   1.837  10.064   8.440  2.6641 -0.2533  2.9763
  373MOL0     H49198   1.676  10.263   8.430 -1.0113 -2.1088  0.9139
  373MOL0     H49199   1.444  10.262   8.374  1.6391  2.2729  0.7134
  373MOL0     H49200   1.096  10.474   8.304 -0.8484 -2.7889  1.9332
  373MOL0     H49201   0.878  10.536   8.210  0.5974  0.2607 -1.1914
  373MOL0     H49202   0.678  10.259   7.925 -0.0462  1.2896  2.9591
  373MOL0     H49203   0.767  10.354   7.809  1.1766 -0.9418  0.7259
  373MOL0     H49204   0.594  10.520   7.807  4.1329 -1.7912 -2.4960
  373MOL0     H49205   0.499  10.437   7.938  3.1521  2.9086  1.9407
  373MOL0     H49206   0.482  10.230   7.775  0.1017 -0.8307 -0.9148
  373MOL0     H49207   0.558  10.314   7.647 -1.0009  2.1454 -1.1837
  373MOL0     H49208   0.295  10.397   7.784 -2.4245  0.4492 -2.1527
  373MOL0     H49209   0.385  10.502   7.670  0.9156 -1.4278 -4.4823
  373MOL0     H49210   0.298  10.230   7.598 -1.7811  0.0825 -0.7610
  373MOL0     H49211   0.386  10.341   7.502 -0.9878  1.2807 -0.7947
  373MOL0     H49212   0.197  10.494   7.490 -4.9052  0.9512  0.9389
  373MOL0     H49213   0.125  10.403   7.630  1.5190 -1.1778  0.8415
  373MOL0     H49214   0.184  10.287   7.338 -0.5415 -0.1652 -0.7134
  373MOL0     H49215   0.100  10.208   7.460  1.2154 -0.0483 -0.7482
  373MOL0     H49216  -0.087  10.372   7.444 -1.3451 -1.3156 -1.9093
  373MOL0     H49217  -0.053  10.290   7.297  0.9322 -0.7922  0.0692
  373MOL0     H49218   0.941  10.262   7.882 -0.2693 -0.6909  0.0623
  373MOL0     H49219   1.141  10.213   7.956 -0.5548  0.8269 -0.5130
  373MOL0     H49220   1.524  10.075   7.996  3.0673  2.4814 -1.7261
  373MOL0     H49221   1.766  10.084   8.047 -1.1205  1.1683 -0.1567
  373MOL0     H49222   3.558   9.856   7.877 -0.4842  0.5550  0.0335
  373MOL0     H49223   3.809   9.863   7.863 -0.4962  0.5284  0.0573
  373MOL0     H49224   4.271  10.163   8.116  1.1868  1.1342  0.2186
  373MOL0     H49225   4.496  10.185   8.040 -0.1853  3.1284 -1.9807
  373MOL0     H49226   4.690   9.992   7.976  5.6088  0.6535  0.2338
  373MOL0     H49227   4.694  10.166   7.963 -0.0612 -0.8885  1.5970
  373MOL0     H49228   4.907  10.016   7.910  0.7458 -1.8659 -1.1052
  373MOL0     H49229   4.834   9.976   7.757  1.7850  0.0906  0.1796
  373MOL0     H49230   4.913  10.252   7.858 -2.1462  0.3242  0.5689
  373MOL0     H49231   4.802  10.222   7.715 -1.3233 -2.1033  0.9310
  373MOL0     H49232   5.007  10.107   7.614 -1.2143 -0.0218 -0.5302
  373MOL0     H49233   5.031  10.278   7.656  1.9295  0.1441  1.5083
  373MOL0     H49234   5.299  10.022   7.896  0.9362  2.1249  1.6698
  373MOL0     H49235   4.406   9.942   7.691  2.5911  2.8087 -2.1220
  373MOL0     H49236   4.182   9.942   7.744  0.9009 -0.5634 -0.2354
  374MOL0     O49237   5.864   2.995   4.476 -0.1970 -0.2225  0.2811
  374MOL0     C49238   5.955   2.967   4.547  0.5357 -1.0880  0.1275
  374MOL0     O49239   5.978   2.848   4.607  0.3057 -0.0109 -0.6660
  374MOL0     C49240   5.885   2.743   4.598 -0.9453  0.2560 -0.5482
  374MOL0     C49241   5.878   2.652   4.494  0.8721  0.1803 -0.6274
  374MOL0     C49242   5.796   2.544   4.495  0.5926  0.1761  0.0158
  374MOL0     C49243   5.701   2.522   4.595  0.0910 -0.5893 -0.0853
  374MOL0     O49244   5.596   2.429   4.584 -0.3209 -0.0564  1.0718
  374MOL0     C49245   5.616   2.325   4.484 -0.2294 -0.0364  0.6779
  374MOL0     C49246   5.529   2.203   4.508  0.6236  0.5078 -0.5805
  374MOL0     C49247   5.378   2.229   4.526  0.2085 -0.3121 -0.2928
  374MOL0     C49248   5.304   2.113   4.591 -0.4076 -0.4249  0.3170
  374MOL0     C49249   5.163   2.157   4.608 -0.2790  0.2631  0.0022
  374MOL0     C49250   5.108   2.061   4.719  0.0315  1.0445  0.4855
  374MOL0     C49251   4.965   2.083   4.761 -0.8123 -0.5211  0.2569
  374MOL0     C49252   4.886   1.952   4.761 -1.1336  0.8392  0.7205
  374MOL0     N49253   4.758   1.976   4.814 -0.2456 -0.2832  0.0406
  374MOL0     C49254   4.657   2.055   4.767  0.4588  0.4151 -0.6172
  374MOL0     C49255   4.557   2.028   4.852  1.0568  1.2028 -0.4553
  374MOL0     C49256   4.413   2.077   4.817 -0.7294 -0.0613 -0.3971
  374MOL0     C49257   4.314   2.011   4.929 -0.4226  0.0824  0.4945
  374MOL0     C49258   4.170   2.077   4.924 -0.3866 -0.1780  0.9255
  374MOL0     C49259   4.050   1.982   4.945  0.1252 -0.1977 -0.0825
  374MOL0     O49260   4.021   1.981   5.078  0.4363  0.4464 -0.1917
  374MOL0     C49261   3.908   1.912   5.123 -0.3663 -0.7155 -0.1849
  374MOL0     C49262   3.838   1.818   5.045 -0.2429 -0.7220  0.8288
  374MOL0     C49263   3.729   1.746   5.098  0.0565 -0.1013  0.1436
  374MOL0     C49264   3.691   1.773   5.226  0.4012 -0.2936  0.4971
  374MOL0     C49265   3.570   1.710   5.277  0.7927  0.0874  0.1469
  374MOL0     O49266   3.492   1.646   5.188  0.7383  0.4520 -0.0589
  374MOL0     C49267   3.373   1.579   5.200 -0.3690 -0.6805 -0.6154
  374MOL0     C49268   3.347   1.474   5.114 -0.4450 -0.1547  0.1400
  374MOL0     C49269   3.220   1.417   5.121 -0.6199 -1.3770  0.2319
  374MOL0     C49270   3.126   1.468   5.208  0.8331 -0.1194 -0.4759
  374MOL0     O49271   2.998   1.418   5.209  0.4410 -0.4712 -0.4348
  374MOL0     C49272   2.980   1.283   5.164 -0.1777 -0.3236 -0.2145
  374MOL0     C49273   2.832   1.241   5.196 -0.0576  0.7923  0.5677
  374MOL0     C49274   2.711   1.303   5.110  0.3168 -0.1716 -0.3314
  374MOL0     C49275   2.583   1.223   5.135 -0.8443 -0.0526  1.1840
  374MOL0     C49276   2.448   1.295   5.111 -0.1430 -0.0200 -0.1656
  374MOL0     C49277   2.325   1.200   5.122 -0.0330 -0.3123 -0.1491
  374MOL0     C49278   2.317   1.141   5.264 -0.9553 -0.0357  0.1234
  374MOL0     C49279   2.177   1.125   5.331 -0.0161 -0.0731 -0.3520
  374MOL0    Cl49280   2.216   1.103   5.505  0.1249  0.2054 -0.3042
  374MOL0     C49281   3.154   1.569   5.294  0.5577  0.6641  0.5456
  374MOL0     C49282   3.278   1.629   5.298  0.1208  0.1441 -0.1727
  374MOL0     O49283   3.545   1.718   5.398 -0.7203  0.6841 -0.2963
  374MOL0     C49284   3.769   1.866   5.304  0.2889  0.8789  0.6433
  374MOL0     C49285   3.875   1.932   5.258  0.3115  0.3544 -0.2902
  374MOL0     N49286   4.599   1.940   4.950  0.1346 -0.1635 -0.7667
  374MOL0     N49287   4.722   1.910   4.927  0.2207  0.4578 -0.8549
  374MOL0     C49288   5.698   2.620   4.698  0.8211  0.3270 -0.1029
  374MOL0     C49289   5.790   2.722   4.696  0.0201 -0.0529 -0.1763
  374MOL0     C49290   6.063   3.068   4.562 -0.1965 -0.7015 -0.2355
  374MOL0     C49291   6.163   3.062   4.666  0.0189 -0.0144 -0.3204
  374MOL0     C49292   6.266   3.155   4.669 -0.7188 -0.6296  0.2050
  374MOL0     C49293   6.269   3.263   4.579  1.0328  0.4475 -0.8311
  374MOL0     O49294   6.368   3.357   4.601  0.5284 -0.5646  0.1966
  374MOL0     C49295   6.375   3.478   4.518 -0.6068  0.0873 -0.3719
  374MOL0     C49296   6.510   3.561   4.541 -0.3987 -0.3208  0.4648
  374MOL0     C49297   6.632   3.492   4.484 -0.4124  0.0685  0.3961
  374MOL0     C49298   6.646   3.529   4.342 -0.5035 -0.3287  0.7840
  374MOL0     C49299   6.759   3.473   4.269  0.5705 -0.4861 -0.2857
  374MOL0     C49300   6.853   3.428   4.210 -0.0910 -0.5262  0.2524
  374MOL0     C49301   6.168   3.276   4.482 -0.5686 -0.0253 -1.3998
  374MOL0     C49302   6.069   3.170   4.474 -0.7277  0.4230 -0.0769
  374MOL0     H49303   5.947   2.666   4.412 -0.6221  1.4602 -1.7254
  374MOL0     H49304   5.803   2.482   4.406  0.8566  0.1737  0.0354
  374MOL0     H49305   5.718   2.286   4.483  0.1122  0.8343 -0.1743
  374MOL0     H49306   5.597   2.374   4.388 -2.0118  1.2908  1.6555
  374MOL0     H49307   5.551   2.158   4.606 -3.7335  1.1905  0.9150
  374MOL0     H49308   5.542   2.132   4.427 -2.4293 -2.3838  1.2203
  374MOL0     H49309   5.326   2.254   4.434  1.6462  2.8856 -0.3750
  374MOL0     H49310   5.375   2.325   4.579  1.4356  2.2647 -4.4089
  374MOL0     H49311   5.306   2.019   4.535 -0.4187 -1.7842  2.4893
  374MOL0     H49312   5.351   2.080   4.684  0.8221 -0.0781 -0.1602
  374MOL0     H49313   5.118   2.148   4.509  1.4615  1.0075 -0.8916
  374MOL0     H49314   5.151   2.260   4.645 -1.1173  0.5622 -1.0579
  374MOL0     H49315   5.165   2.053   4.811  0.7979  1.5970  0.0743
  374MOL0     H49316   5.126   1.968   4.665  1.9930  1.3928  0.4909
  374MOL0     H49317   4.957   2.112   4.866 -0.8283 -3.6611  1.2328
  374MOL0     H49318   4.911   2.158   4.701  1.4553  0.9793 -0.0357
  374MOL0     H49319   4.937   1.872   4.815 -1.5746 -1.6245 -2.2276
  374MOL0     H49320   4.873   1.925   4.656 -1.9893 -4.6222  1.8944
  374MOL0     H49321   4.649   2.117   4.678 -0.3547  2.1783  0.6312
  374MOL0     H49322   4.386   2.030   4.721 -0.4516 -2.4648  0.6240
  374MOL0     H49323   4.409   2.185   4.804  1.1360 -0.1539 -2.4390
  374MOL0     H49324   4.363   2.027   5.026 -0.1126 -0.1115  0.3746
  374MOL0     H49325   4.303   1.903   4.918  1.8739 -0.3587  1.8342
  374MOL0     H49326   4.162   2.168   4.983  0.3628 -0.0788  0.8816
  374MOL0     H49327   4.161   2.105   4.818  1.9862 -1.8572  0.1909
  374MOL0     H49328   4.078   1.880   4.917 -1.3318 -0.5866 -0.2455
  374MOL0     H49329   3.959   2.013   4.892 -1.4419  0.6943  2.8790
  374MOL0     H49330   3.875   1.806   4.944  2.7282  1.3030  1.5526
  374MOL0     H49331   3.675   1.683   5.028 -0.7301  0.3496  0.3339
  374MOL0     H49332   3.407   1.434   5.032  0.2245  1.0946 -0.0151
  374MOL0     H49333   3.206   1.336   5.050  0.8181 -0.2574 -1.4314
  374MOL0     H49334   3.048   1.216   5.217 -1.2255 -0.9363  0.3921
  374MOL0     H49335   3.003   1.276   5.058  0.3725 -0.5612 -0.0839
  374MOL0     H49336   2.808   1.255   5.302 -0.3377 -1.6216  0.8782
  374MOL0     H49337   2.827   1.134   5.175 -1.6128  1.1913 -1.4398
  374MOL0     H49338   2.742   1.287   5.006  0.4331  0.8742 -0.4738
  374MOL0     H49339   2.697   1.411   5.125 -4.6914 -0.3018 -2.0961
  374MOL0     H49340   2.594   1.139   5.066 -0.2710  1.4085 -0.5629
  374MOL0     H49341   2.585   1.190   5.239 -3.0346  1.2052  1.6862
  374MOL0     H49342   2.441   1.337   5.010 -1.9569  0.4307  0.1284
  374MOL0     H49343   2.457   1.382   5.178  0.7663 -0.8678  0.8545
  374MOL0     H49344   2.337   1.124   5.044  2.5624 -0.4194  0.2728
  374MOL0     H49345   2.230   1.253   5.111  0.4978  1.6392  3.4291
  374MOL0     H49346   2.350   1.037   5.261 -1.1971 -0.0818 -1.3717
  374MOL0     H49347   2.379   1.197   5.335 -0.7305 -0.8336  0.5654
  374MOL0     H49348   2.138   1.031   5.290 -1.4555  1.7814 -3.5829
  374MOL0     H49349   2.112   1.211   5.318 -1.0274 -0.7046  0.3890
  374MOL0     H49350   3.072   1.589   5.363  1.0725  0.2888  1.2812
  374MOL0     H49351   3.292   1.721   5.352 -1.1639 -0.8645  2.0354
  374MOL0     H49352   3.740   1.877   5.408  0.8728  0.4557  0.8595
  374MOL0     H49353   3.934   1.997   5.322 -0.0680  0.5301 -0.1161
  374MOL0     H49354   5.625   2.601   4.776 -1.3387 -1.5899 -2.4078
  374MOL0     H49355   5.770   2.795   4.774  0.4901 -1.0706  0.9205
  374MOL0     H49356   6.165   2.975   4.730 -0.3414 -0.4136 -0.8439
  374MOL0     H49357   6.344   3.156   4.745  0.8627  3.3680 -1.2223
  374MOL0     H49358   6.282   3.527   4.547 -1.2818 -0.6981 -1.1486
  374MOL0     H49359   6.366   3.468   4.409  0.0288  1.6984 -0.6016
  374MOL0     H49360   6.490   3.660   4.499  0.9700  0.1990  0.9809
  374MOL0     H49361   6.536   3.570   4.647  1.3085  0.4274  0.0179
  374MOL0     H49362   6.626   3.383   4.481 -1.3477  0.0823  1.1769
  374MOL0     H49363   6.729   3.512   4.530  0.5640 -0.0707 -1.5383
  374MOL0     H49364   6.557   3.494   4.290  0.0257 -1.9729  0.9183
  374MOL0     H49365   6.651   3.637   4.325 -0.2806 -0.5051 -0.3616
  374MOL0     H49366   6.929   3.394   4.143 -1.7801 -0.4751 -1.8145
  374MOL0     H49367   6.155   3.354   4.408 -2.6685 -1.1223 -2.2850
  374MOL0     H49368   6.004   3.171   4.387  0.3219 -1.8959 -0.9680
  375MOL0     O49369   9.152   6.754   2.549  0.4915  0.5172 -0.0473
  375MOL0     C49370   9.213   6.723   2.447  0.3109  0.7631  0.1693
  375MOL0     O49371   9.175   6.765   2.330  0.4993 -0.1809 -0.5233
  375MOL0     C49372   9.061   6.831   2.313 -0.3777 -0.7342  0.4891
  375MOL0     C49373   9.065   6.967   2.277  0.4652  0.2309 -0.9097
  375MOL0     C49374   8.942   7.034   2.257 -0.1755 -0.5856 -0.4423
  375MOL0     C49375   8.819   6.978   2.274  0.1134 -0.6150 -0.0666
  375MOL0     O49376   8.711   7.057   2.249  0.6156 -0.0327  0.0660
  375MOL0     C49377   8.593   7.051   2.335 -0.0742 -0.8068 -0.1495
  375MOL0     C49378   8.485   7.143   2.281 -0.6343  0.1657 -0.6205
  375MOL0     C49379   8.523   7.287   2.323  0.0019 -0.3880  0.1532
  375MOL0     C49380   8.448   7.308   2.456 -0.5936  0.3381  0.0585
  375MOL0     C49381   8.485   7.451   2.505 -0.3233 -0.2162 -0.2439
  375MOL0     C49382   8.396   7.491   2.619 -0.1473  0.7984 -0.8585
  375MOL0     C49383   8.388   7.635   2.656  0.2602 -0.2739  0.6337
  375MOL0     C49384   8.524   7.701   2.678  0.1620  0.5017 -0.6117
  375MOL0     N49385   8.506   7.844   2.735  0.2696  0.2938 -0.3581
  375MOL0     C49386   8.410   7.926   2.681  0.1303  0.0170  0.0400
  375MOL0     C49387   8.412   8.023   2.771 -0.5426 -0.7572  0.0788
  375MOL0     C49388   8.319   8.140   2.769 -0.7305 -0.3164  0.0509
  375MOL0     C49389   8.179   8.104   2.811 -0.0499  0.0400 -0.2166
  375MOL0     C49390   8.152   8.109   2.962  0.2198  0.0591  0.3489
  375MOL0     C49391   7.998   8.103   2.981 -0.1926 -0.7393 -0.0060
  375MOL0     O49392   7.927   8.197   2.887 -0.3669  0.1491  0.0425
  375MOL0     C49393   7.792   8.200   2.882 -0.8540  0.1947  0.0428
  375MOL0     C49394   7.705   8.127   2.961  0.8913 -1.4677  0.1380
  375MOL0     C49395   7.573   8.164   2.966 -0.1197  0.5436 -0.6583
  375MOL0     C49396   7.518   8.249   2.872  0.3274  0.3581  0.6637
  375MOL0     C49397   7.375   8.289   2.868 -0.0905  0.1741  1.4432
  375MOL0     O49398   7.295   8.226   2.954 -0.2560 -0.5959 -0.1286
  375MOL0     C49399   7.157   8.239   2.972  0.2085 -0.6657  0.4354
  375MOL0     C49400   7.104   8.143   3.061  0.4973  0.5493 -0.1189
  375MOL0     C49401   6.963   8.165   3.104  0.1577 -0.2286 -0.6328
  375MOL0     C49402   6.885   8.283   3.065 -0.3431 -0.5773  0.1874
  375MOL0     O49403   6.761   8.328   3.106  0.4959  0.1930  0.1299
  375MOL0     C49404   6.671   8.228   3.153 -0.0055 -0.4689 -0.1122
  375MOL0     C49405   6.540   8.307   3.203 -0.1857 -0.2406  1.4706
  375MOL0     C49406   6.471   8.408   3.101 -0.7977  1.0849  0.3590
  375MOL0     C49407   6.341   8.460   3.164  0.1707 -0.1684  1.0238
  375MOL0     C49408   6.288   8.583   3.089 -0.3023 -0.9187  0.1207
  375MOL0     C49409   6.178   8.552   2.989  0.1847  0.0322  0.1315
  375MOL0     C49410   6.230   8.452   2.881 -0.0043  0.4789 -0.5803
  375MOL0     C49411   6.343   8.492   2.786  0.3240  0.0559  0.4293
  375MOL0    Cl49412   6.298   8.634   2.684  0.3565  0.1019  0.0491
  375MOL0     C49413   6.949   8.365   2.981  0.3992 -1.0093 -0.6801
  375MOL0     C49414   7.081   8.354   2.939 -0.2121 -0.0672  0.5457
  375MOL0     O49415   7.336   8.366   2.782 -0.0676 -0.2431  0.5176
  375MOL0     C49416   7.606   8.317   2.780  0.5795  0.4503  0.0986
  375MOL0     C49417   7.748   8.293   2.794  0.1436 -0.5353 -1.0700
  375MOL0     N49418   8.501   7.999   2.874  0.6900 -0.2678  0.6725
  375MOL0     N49419   8.544   7.883   2.859  0.2278  0.2516  0.1141
  375MOL0     C49420   8.813   6.847   2.320  0.0636 -0.1380 -0.0984
  375MOL0     C49421   8.939   6.776   2.335 -0.0015 -0.4445 -0.8822
  375MOL0     C49422   9.323   6.624   2.452 -0.9153  0.6172  0.0967
  375MOL0     C49423   9.374   6.575   2.573  0.3232 -0.0505 -0.2542
  375MOL0     C49424   9.483   6.487   2.576  0.3838  0.0217  0.4478
  375MOL0     C49425   9.546   6.442   2.455  0.0313 -0.3019  0.4695
  375MOL0     O49426   9.661   6.370   2.444  0.1236 -0.2067  0.3297
  375MOL0     C49427   9.706   6.278   2.551  0.6137 -0.1982 -0.1470
  375MOL0     C49428   9.820   6.192   2.502 -0.2872  0.0592 -1.0498
  375MOL0     C49429   9.787   6.083   2.407  0.1843  0.8240 -0.6689
  375MOL0     C49430   9.752   6.128   2.273 -0.4203  0.3886 -0.3129
  375MOL0     C49431   9.874   6.176   2.202 -0.5686 -0.4120 -0.2239
  375MOL0     C49432   9.972   6.192   2.141 -0.3032  1.2051 -0.7822
  375MOL0     C49433   9.493   6.490   2.336  0.7776  0.1561 -0.2144
  375MOL0     C49434   9.382   6.581   2.336 -0.3363  0.0833  0.0105
  375MOL0     H49435   9.158   7.018   2.250  0.8118 -0.9505 -2.0611
  375MOL0     H49436   8.938   7.139   2.233  3.1529  0.0632  1.2162
  375MOL0     H49437   8.629   7.059   2.438  2.2226 -1.2799 -0.8461
  375MOL0     H49438   8.547   6.952   2.332  0.0190 -0.8438 -0.4716
  375MOL0     H49439   8.383   7.115   2.310 -0.8489  2.1961  0.7330
  375MOL0     H49440   8.498   7.144   2.172  1.2494  2.4332 -0.4371
  375MOL0     H49441   8.486   7.372   2.265 -1.3794 -1.3204 -0.3990
  375MOL0     H49442   8.631   7.305   2.327  0.4728 -0.1649 -5.5265
  375MOL0     H49443   8.341   7.300   2.437 -0.6260  1.1479 -0.1308
  375MOL0     H49444   8.478   7.233   2.530 -1.0211 -0.9348 -1.0173
  375MOL0     H49445   8.471   7.522   2.423  0.6476 -0.1733 -0.3819
  375MOL0     H49446   8.589   7.458   2.539 -0.7102  1.5620  0.6824
  375MOL0     H49447   8.421   7.437   2.711  0.3385  1.6749 -0.4594
  375MOL0     H49448   8.298   7.454   2.586 -0.8838 -1.3182  3.0487
  375MOL0     H49449   8.327   7.686   2.581  0.1801 -3.8936 -2.0694
  375MOL0     H49450   8.327   7.644   2.746 -0.5228  2.8182 -0.1116
  375MOL0     H49451   8.568   7.713   2.579 -0.5657  0.8734 -0.8916
  375MOL0     H49452   8.588   7.650   2.751  1.4936  2.4734 -0.3075
  375MOL0     H49453   8.338   7.915   2.601  0.0082  2.2974 -0.2241
  375MOL0     H49454   8.319   8.185   2.669  0.1209 -2.5208 -1.0129
  375MOL0     H49455   8.362   8.214   2.838 -2.8675 -0.0316  1.1702
  375MOL0     H49456   8.147   8.008   2.770  0.1073 -0.5811  1.0476
  375MOL0     H49457   8.122   8.188   2.770 -1.9023 -0.2437  1.5982
  375MOL0     H49458   8.197   8.028   3.019  2.1479  1.4865  0.9454
  375MOL0     H49459   8.201   8.201   2.995 -0.2495 -0.3808  2.3744
  375MOL0     H49460   7.989   8.137   3.084  1.2852 -0.2205 -0.0338
  375MOL0     H49461   7.954   8.005   2.961  0.5249 -0.4806 -3.6376
  375MOL0     H49462   7.735   8.051   3.033 -0.4552 -2.2972 -0.1273
  375MOL0     H49463   7.508   8.114   3.038  1.3901 -0.7607 -0.1444
  375MOL0     H49464   7.161   8.054   3.087 -2.4564 -1.0945  1.1967
  375MOL0     H49465   6.920   8.104   3.183  0.6859  2.3729  1.8120
  375MOL0     H49466   6.717   8.169   3.232 -0.6728 -1.5055 -0.4713
  375MOL0     H49467   6.640   8.159   3.074 -0.0583 -0.2300 -0.3058
  375MOL0     H49468   6.566   8.368   3.291  1.5837  0.6858  0.3506
  375MOL0     H49469   6.472   8.227   3.235  0.2781 -0.3727  2.1451
  375MOL0     H49470   6.449   8.356   3.008  2.1632 -1.7368  1.0553
  375MOL0     H49471   6.545   8.482   3.070  0.5876 -1.5423 -3.1867
  375MOL0     H49472   6.264   8.383   3.163  0.1217 -0.1429  2.0751
  375MOL0     H49473   6.363   8.486   3.268  0.9892  3.4964  0.0779
  375MOL0     H49474   6.372   8.636   3.044  0.5536 -0.3609  2.2287
  375MOL0     H49475   6.244   8.656   3.158  1.2967  2.5289 -2.2442
  375MOL0     H49476   6.137   8.642   2.941 -1.1409 -0.0125  1.1440
  375MOL0     H49477   6.084   8.522   3.036 -0.6235  1.5116 -0.4670
  375MOL0     H49478   6.273   8.363   2.928  3.0278  0.5207 -2.9613
  375MOL0     H49479   6.144   8.419   2.823 -0.1352  2.3909 -1.5870
  375MOL0     H49480   6.378   8.407   2.727 -0.4574  1.1168 -1.6707
  375MOL0     H49481   6.425   8.511   2.856  0.8387  1.4115 -0.5000
  375MOL0     H49482   6.891   8.455   2.962  1.2869 -0.0187  1.0677
  375MOL0     H49483   7.114   8.436   2.876 -0.5489  0.8663  1.5491
  375MOL0     H49484   7.572   8.381   2.700  0.5260 -0.3013 -0.4853
  375MOL0     H49485   7.813   8.341   2.721  0.4267  0.9297  0.0902
  375MOL0     H49486   8.719   6.795   2.338  0.4287  0.1925  3.7804
  375MOL0     H49487   8.936   6.673   2.368  2.1819 -1.0492 -2.3078
  375MOL0     H49488   9.323   6.614   2.660  0.1703  0.2803 -0.4890
  375MOL0     H49489   9.523   6.453   2.671 -0.2758 -0.8390  0.4294
  375MOL0     H49490   9.625   6.215   2.588 -1.2904  1.9151 -0.5093
  375MOL0     H49491   9.741   6.330   2.641  1.3553 -2.2238  0.8061
  375MOL0     H49492   9.896   6.259   2.460  0.7443 -1.2041 -1.2281
  375MOL0     H49493   9.866   6.149   2.591 -0.9089  2.2361  0.4038
  375MOL0     H49494   9.700   6.030   2.447 -0.1311  0.9139 -1.2172
  375MOL0     H49495   9.876   6.019   2.406 -0.9836 -1.0252  2.0757
  375MOL0     H49496   9.711   6.051   2.207 -1.8323  1.5744 -0.8686
  375MOL0     H49497   9.681   6.211   2.269 -0.1196  0.6141 -1.3081
  375MOL0     H49498  10.060   6.202   2.080  0.4415  1.5251  0.3111
  375MOL0     H49499   9.527   6.451   2.241 -2.8643 -0.6195 -1.3214
  375MOL0     H49500   9.334   6.609   2.243 -1.9059 -0.8875  0.4973
  376MOL0     O49501   4.324  10.187  10.902  0.0157 -0.4439  0.5817
  376MOL0     C49502   4.369  10.294  10.881  0.2682 -0.6316 -1.0013
  376MOL0     O49503   4.301  10.413  10.873  0.7366 -0.0459  0.4475
  376MOL0     C49504   4.175  10.430  10.932 -0.4177  0.2194  0.1636
  376MOL0     C49505   4.081  10.504  10.870  0.6968 -0.1474 -0.2575
  376MOL0     C49506   3.955  10.520  10.923  0.0831 -0.3479  0.5051
  376MOL0     C49507   3.910  10.450  11.040 -0.1847  0.2743  0.0520
  376MOL0     O49508   3.799  10.470  11.119 -1.0502  0.4373  0.2591
  376MOL0     C49509   3.691  10.528  11.044  0.1294  0.1095  0.5767
  376MOL0     C49510   3.587  10.549  11.151  0.5343  0.4226  0.0953
  376MOL0     C49511   3.450  10.597  11.120 -0.3467 -0.1190  0.4504
  376MOL0     C49512   3.448  10.717  11.022  0.9080  0.2232 -0.1226
  376MOL0     C49513   3.312  10.782  11.010  0.9390 -0.2091 -0.1224
  376MOL0     C49514   3.209  10.691  10.924  0.3229  0.4105 -0.2078
  376MOL0     C49515   3.079  10.761  10.881 -0.9631 -0.1691  0.8411
  376MOL0     C49516   2.973  10.668  10.817  0.1362 -0.4136 -0.2246
  376MOL0     N49517   2.841  10.715  10.840  0.6761  0.1569  0.8046
  376MOL0     C49518   2.791  10.836  10.803 -0.8390  0.1220 -0.1279
  376MOL0     C49519   2.673  10.837  10.861  1.2765 -0.1131  0.8287
  376MOL0     C49520   2.582  10.952  10.828 -0.8050  0.5363 -0.2980
  376MOL0     C49521   2.431  10.922  10.847  0.5486 -0.9483 -0.5632
  376MOL0     C49522   2.353  11.054  10.810  0.3600 -0.1256 -0.1716
  376MOL0     C49523   2.209  11.012  10.773  1.0206 -0.2412 -0.1381
  376MOL0     O49524   2.135  11.021  10.898 -0.0957 -0.2364 -0.3343
  376MOL0     C49525   2.016  10.948  10.908  0.0991 -0.3837  0.4505
  376MOL0     C49526   1.949  10.945  11.028 -0.0804  0.0899 -0.0391
  376MOL0     C49527   1.824  10.886  11.031 -0.0696  0.2971 -0.5315
  376MOL0     C49528   1.778  10.805  10.923  0.2981  0.1603  0.4192
  376MOL0     C49529   1.658  10.723  10.935  0.3994  0.3896 -0.5191
  376MOL0     O49530   1.633  10.630  10.835  0.9512  0.0150  0.1605
  376MOL0     C49531   1.527  10.544  10.853  0.5380 -0.8522 -0.8689
  376MOL0     C49532   1.450  10.522  10.744 -0.2761  0.2964  0.4242
  376MOL0     C49533   1.331  10.434  10.745 -0.3766  0.6662  0.2281
  376MOL0     C49534   1.289  10.370  10.853  0.0368 -0.9202  0.3614
  376MOL0     O49535   1.188  10.283  10.836  0.3693  0.6753  0.2610
  376MOL0     C49536   1.144  10.219  10.961  1.0727 -0.3072 -0.5666
  376MOL0     C49537   1.023  10.138  10.934  0.4913 -0.6894  0.4481
  376MOL0     C49538   0.943  10.101  11.062 -1.0690  0.0808  1.0536
  376MOL0     C49539   0.882  10.219  11.142 -0.8046 -0.3797  0.3128
  376MOL0     C49540   0.766  10.150  11.215 -0.5086 -0.1036 -0.6628
  376MOL0     C49541   0.811  10.052  11.336 -0.2162 -0.4943  0.4137
  376MOL0     C49542   0.696   9.960  11.365  0.1085 -0.6535 -0.3913
  376MOL0     C49543   0.563  10.026  11.421 -0.3318 -0.5460  0.1772
  376MOL0    Cl49544   0.411   9.924  11.405  0.2702 -0.0753 -0.2751
  376MOL0     C49545   1.350  10.412  10.971 -0.2846  0.9017  0.6012
  376MOL0     C49546   1.468  10.488  10.977 -0.1404  0.2504  0.3447
  376MOL0     O49547   1.596  10.735  11.048 -0.1332  0.0815  0.2249
  376MOL0     C49548   1.847  10.811  10.805  0.2727  0.2094  0.2120
  376MOL0     C49549   1.962  10.880  10.795 -0.8601  0.6979  0.3365
  376MOL0     N49550   2.653  10.726  10.937 -0.8526 -0.2676 -0.0765
  376MOL0     N49551   2.758  10.647  10.920  0.7238  1.0223  0.3700
  376MOL0     C49552   4.009  10.368  11.102  0.3348 -0.9729  0.2777
  376MOL0     C49553   4.139  10.365  11.048 -0.9281  0.5271  0.3042
  376MOL0     C49554   4.510  10.292  10.839  0.0198 -0.7285  0.1385
  376MOL0     C49555   4.584  10.177  10.820 -0.7214  0.1323  0.7890
  376MOL0     C49556   4.717  10.181  10.792  0.0841 -0.0950 -0.5071
  376MOL0     C49557   4.783  10.301  10.782 -1.0841 -0.4096  0.0110
  376MOL0     O49558   4.913  10.327  10.738 -0.4203  0.0039 -1.1569
  376MOL0     C49559   5.002  10.220  10.723  0.2606  0.9958 -0.5985
  376MOL0     C49560   5.134  10.265  10.674  0.6312 -0.5840  0.2201
  376MOL0     C49561   5.232  10.149  10.668  0.0649  0.0554 -0.2791
  376MOL0     C49562   5.379  10.193  10.636 -0.3208 -0.4402 -0.2878
  376MOL0     C49563   5.441  10.270  10.755  0.0569 -0.5379 -0.1752
  376MOL0     C49564   5.516  10.311  10.843  0.4691  0.3734  0.5992
  376MOL0     C49565   4.706  10.419  10.792  0.0355 -0.1801 -0.9284
  376MOL0     C49566   4.577  10.414  10.823 -0.2887 -0.3749 -1.0661
  376MOL0     H49567   4.105  10.571  10.788  0.1494  2.0527  1.2873
  376MOL0     H49568   3.882  10.585  10.876  1.2149  0.6320  0.0854
  376MOL0     H49569   3.668  10.454  10.967 -0.8518  1.6532 -0.6919
  376MOL0     H49570   3.711  10.627  11.001  0.1176  0.2218  0.8277
  376MOL0     H49571   3.622  10.631  11.213 -2.8832  1.1449  1.2918
  376MOL0     H49572   3.577  10.457  11.210 -2.4139  1.2775  1.1222
  376MOL0     H49573   3.399  10.624  11.213  0.0759 -2.3010  1.3948
  376MOL0     H49574   3.387  10.517  11.080 -1.2585 -1.1862  3.6670
  376MOL0     H49575   3.528  10.783  11.058  0.8735 -0.8274  1.9874
  376MOL0     H49576   3.478  10.685  10.921  3.1499  0.5272  0.4025
  376MOL0     H49577   3.330  10.877  10.958 -1.7403 -0.7051 -2.1511
  376MOL0     H49578   3.269  10.808  11.108  1.1498  0.9523 -0.3250
  376MOL0     H49579   3.182  10.599  10.975  0.9629 -0.8296 -2.0019
  376MOL0     H49580   3.260  10.664  10.831  1.6072  2.5158 -0.1901
  376MOL0     H49581   3.037  10.803  10.973 -3.0434  0.9802 -0.5492
  376MOL0     H49582   3.103  10.848  10.819  1.5187 -0.3696  1.4278
  376MOL0     H49583   2.986  10.570  10.863  0.8900  0.2038  0.9251
  376MOL0     H49584   2.990  10.658  10.709  0.4981 -0.3527 -0.1764
  376MOL0     H49585   2.841  10.918  10.753  3.2241 -3.2443 -2.2233
  376MOL0     H49586   2.615  10.998  10.734  1.1788 -1.4981 -0.6885
  376MOL0     H49587   2.605  11.019  10.911  0.5984 -1.2491  0.8314
  376MOL0     H49588   2.406  10.898  10.951 -1.2315  1.1954 -0.4279
  376MOL0     H49589   2.394  10.846  10.777  1.0379  1.2346 -3.3560
  376MOL0     H49590   2.346  11.125  10.893 -4.1116 -1.7972  1.1795
  376MOL0     H49591   2.406  11.093  10.723  2.2219  1.4775  1.5649
  376MOL0     H49592   2.203  10.918  10.717 -0.5626  1.2176 -2.6089
  376MOL0     H49593   2.162  11.086  10.708 -2.1807 -0.7431  1.3811
  376MOL0     H49594   1.977  11.009  11.111 -1.8224 -1.3379  1.7392
  376MOL0     H49595   1.762  10.883  11.120  0.2592 -1.1672 -0.3367
  376MOL0     H49596   1.493  10.546  10.648 -3.9048  0.3581 -1.3172
  376MOL0     H49597   1.273  10.413  10.655 -0.8206  1.1323  0.4035
  376MOL0     H49598   1.114  10.290  11.038 -0.7698  0.6875 -2.1164
  376MOL0     H49599   1.233  10.164  10.994  0.3133 -2.1994 -1.5427
  376MOL0     H49600   1.050  10.050  10.874  1.8934  1.3903 -2.2159
  376MOL0     H49601   0.961  10.195  10.864 -0.1436  0.4095  1.8614
  376MOL0     H49602   1.018  10.042  11.116 -1.2850 -1.3379 -0.1187
  376MOL0     H49603   0.866  10.034  11.022  0.7519 -0.0695 -2.6193
  376MOL0     H49604   0.948  10.284  11.199 -0.6205 -1.8268  1.8254
  376MOL0     H49605   0.829  10.281  11.068 -0.4932 -0.3537  0.1073
  376MOL0     H49606   0.704  10.098  11.142 -0.9617 -1.1381  0.4260
  376MOL0     H49607   0.704  10.229  11.259 -0.5444  0.0718 -1.0255
  376MOL0     H49608   0.839  10.114  11.422 -0.3162  0.8812 -0.5082
  376MOL0     H49609   0.902   9.999  11.307 -1.3710 -1.2301 -2.0740
  376MOL0     H49610   0.672   9.894  11.281 -1.7817 -1.2804  0.5921
  376MOL0     H49611   0.735   9.886  11.435  2.0587  1.5650  0.9918
  376MOL0     H49612   0.541  10.119  11.367  0.2435  2.6755  4.8621
  376MOL0     H49613   0.578  10.048  11.528 -2.2711 -1.3768  0.6611
  376MOL0     H49614   1.309  10.380  11.066 -1.0610 -1.0565 -0.3594
  376MOL0     H49615   1.516  10.510  11.071  1.3812  0.2954 -0.4197
  376MOL0     H49616   1.827  10.754  10.714  0.5937  0.7759 -0.2206
  376MOL0     H49617   2.003  10.870  10.695  0.7872 -1.3831  1.1384
  376MOL0     H49618   3.983  10.306  11.187 -0.9866  0.8515  1.2745
  376MOL0     H49619   4.216  10.308  11.098 -1.3380 -0.3131 -0.0068
  376MOL0     H49620   4.534  10.081  10.830 -0.3564 -0.3599 -1.5591
  376MOL0     H49621   4.761  10.086  10.761 -2.3391 -0.9443 -1.5934
  376MOL0     H49622   4.957  10.144  10.659  0.8689 -1.4905  1.7421
  376MOL0     H49623   5.024  10.165  10.815 -3.4290 -1.1674 -0.8265
  376MOL0     H49624   5.120  10.297  10.571  0.8832 -2.4530 -0.4348
  376MOL0     H49625   5.176  10.345  10.736  2.7256 -1.2019 -0.3172
  376MOL0     H49626   5.207  10.086  10.582 -2.2852  3.5972 -2.4373
  376MOL0     H49627   5.236  10.098  10.765 -2.6791  1.7232  0.8235
  376MOL0     H49628   5.445  10.107  10.620 -0.0436  0.2494 -3.4469
  376MOL0     H49629   5.385  10.259  10.549  0.3072 -0.1441 -0.0248
  376MOL0     H49630   5.583  10.348  10.918  1.2275 -1.3220  0.8237
  376MOL0     H49631   4.745  10.516  10.764  2.8375 -1.1771 -0.8575
  376MOL0     H49632   4.529  10.511  10.820 -0.5628 -0.4432  0.3609
  377MOL0     O49633   2.129   4.041   4.561  0.5164 -0.3668  0.2440
  377MOL0     C49634   2.100   4.100   4.455  0.1873 -0.1404 -0.4799
  377MOL0     O49635   2.192   4.159   4.369 -0.5948  0.2531  0.6140
  377MOL0     C49636   2.321   4.151   4.418 -0.8346  0.5701 -0.0302
  377MOL0     C49637   2.400   4.044   4.381 -0.1117  0.1227  0.0226
  377MOL0     C49638   2.542   4.040   4.402  0.5771 -0.3590 -0.2286
  377MOL0     C49639   2.599   4.149   4.469 -0.6423  0.0003  0.0898
  377MOL0     O49640   2.742   4.152   4.485  0.5469  0.2608 -0.4763
  377MOL0     C49641   2.798   4.160   4.618  0.0275  1.4855 -0.0647
  377MOL0     C49642   2.941   4.186   4.598 -0.1978 -0.3803  0.0046
  377MOL0     C49643   3.020   4.072   4.523 -0.1064  0.2693  0.2509
  377MOL0     C49644   2.978   3.927   4.547  0.7819  0.0832  0.1730
  377MOL0     C49645   3.085   3.836   4.491  0.8401  0.3528  0.6472
  377MOL0     C49646   3.074   3.697   4.552  0.4002 -0.6747  0.3542
  377MOL0     C49647   2.934   3.635   4.531  0.2054 -0.2817  0.7575
  377MOL0     C49648   2.907   3.608   4.374 -0.5735  0.1851 -0.7802
  377MOL0     N49649   2.791   3.513   4.371 -0.0506  0.2078 -0.1156
  377MOL0     C49650   2.671   3.522   4.434 -0.5014 -0.5030  0.5828
  377MOL0     C49651   2.597   3.433   4.371  0.4067 -0.0579 -0.1333
  377MOL0     C49652   2.448   3.412   4.397 -0.1697 -0.3552  0.0986
  377MOL0     C49653   2.372   3.428   4.264 -0.3327 -0.2421 -0.2679
  377MOL0     C49654   2.249   3.346   4.277  0.5533 -0.2433  0.8374
  377MOL0     C49655   2.146   3.350   4.161 -0.3885  1.1013  0.2506
  377MOL0     O49656   2.073   3.221   4.159 -0.0376  0.1889  0.0799
  377MOL0     C49657   1.976   3.207   4.060 -0.5798  0.9286  0.4172
  377MOL0     C49658   1.958   3.283   3.948 -0.0530  0.0670 -0.2645
  377MOL0     C49659   1.851   3.265   3.854 -0.4109  0.5976 -0.9414
  377MOL0     C49660   1.763   3.159   3.885  0.7691  0.4645 -0.6386
  377MOL0     C49661   1.655   3.123   3.793 -1.0867  0.1740  1.0774
  377MOL0     O49662   1.555   3.033   3.831  0.4173  0.4242 -0.3557
  377MOL0     C49663   1.445   3.014   3.752 -1.3089  1.0192 -0.0050
  377MOL0     C49664   1.323   3.039   3.801  0.4382 -0.5950 -0.8149
  377MOL0     C49665   1.217   3.012   3.714 -0.0650 -0.9306  0.0639
  377MOL0     C49666   1.234   2.964   3.583 -0.2735 -0.1142 -1.2039
  377MOL0     O49667   1.116   2.945   3.498 -0.8982  0.5731 -0.4971
  377MOL0     C49668   1.120   2.825   3.415 -0.0881  0.5147  0.1371
  377MOL0     C49669   0.979   2.778   3.387  0.1439 -0.8848 -0.5820
  377MOL0     C49670   0.994   2.648   3.303  0.0615 -0.9649 -0.5873
  377MOL0     C49671   1.009   2.516   3.379 -0.1261  0.7188  0.1901
  377MOL0     C49672   1.094   2.412   3.307  1.1197  0.7549 -0.2577
  377MOL0     C49673   1.000   2.303   3.250  1.0065 -0.2677 -0.2947
  377MOL0     C49674   0.910   2.358   3.136 -0.1692  0.3203  0.6323
  377MOL0     C49675   0.865   2.229   3.054 -0.0735 -0.3838 -0.5709
  377MOL0    Cl49676   0.998   2.204   2.939  0.4396 -0.5570  0.0593
  377MOL0     C49677   1.364   2.943   3.541  0.2111  0.5273  0.1836
  377MOL0     C49678   1.467   2.953   3.634  0.1075 -0.1757  0.0764
  377MOL0     O49679   1.647   3.201   3.696  0.0130 -0.6348 -1.4711
  377MOL0     C49680   1.789   3.071   3.997 -0.0936  0.6941 -0.0498
  377MOL0     C49681   1.888   3.102   4.079 -0.4623 -0.5135  0.2260
  377MOL0     N49682   2.674   3.351   4.294 -0.6410 -0.3474  0.1424
  377MOL0     N49683   2.791   3.406   4.288 -0.1671 -0.0113  0.1004
  377MOL0     C49684   2.514   4.250   4.518  0.0540 -0.1011  0.5830
  377MOL0     C49685   2.377   4.246   4.494 -0.4864  0.6634 -0.0537
  377MOL0     C49686   1.962   4.113   4.421 -0.3097 -0.1426  0.2674
  377MOL0     C49687   1.934   4.185   4.299  0.3849  0.5359 -0.3518
  377MOL0     C49688   1.806   4.213   4.252  0.3816  0.0349 -0.6560
  377MOL0     C49689   1.695   4.170   4.328 -0.3281  1.1417  0.1772
  377MOL0     O49690   1.563   4.177   4.286 -0.4129  0.1274  0.0425
  377MOL0     C49691   1.525   4.258   4.170 -1.2976 -0.2062  0.2492
  377MOL0     C49692   1.376   4.274   4.172 -0.6757 -0.4708 -0.2787
  377MOL0     C49693   1.319   4.365   4.279 -0.0396  0.7769 -0.5774
  377MOL0     C49694   1.166   4.347   4.271  0.4495  0.3487  0.4079
  377MOL0     C49695   1.110   4.443   4.363  0.7401  0.3560  0.5773
  377MOL0     C49696   1.057   4.534   4.436  0.7681 -0.5798  0.0585
  377MOL0     C49697   1.725   4.111   4.453 -0.5220 -0.3162 -0.2224
  377MOL0     C49698   1.851   4.073   4.490 -1.5286  0.6174 -0.1282
  377MOL0     H49699   2.355   3.960   4.329 -1.6125  1.5248 -1.0626
  377MOL0     H49700   2.605   3.963   4.360  0.7257  0.6558 -1.9438
  377MOL0     H49701   2.785   4.068   4.676  0.0308  1.0831 -0.6974
  377MOL0     H49702   2.754   4.228   4.691 -3.6171 -0.1118 -0.5779
  377MOL0     H49703   2.988   4.217   4.692 -0.2297  3.1775 -1.0066
  377MOL0     H49704   2.945   4.270   4.527 -0.9535 -2.2105 -2.2971
  377MOL0     H49705   3.129   4.082   4.529 -0.0862  3.3065 -2.6088
  377MOL0     H49706   3.020   4.093   4.416  1.5966  3.1421  0.7004
  377MOL0     H49707   2.976   3.915   4.656 -2.4826  3.3963  0.6750
  377MOL0     H49708   2.885   3.914   4.491  2.3101  0.3946 -2.6585
  377MOL0     H49709   3.182   3.876   4.523  0.5681 -0.4683  2.7069
  377MOL0     H49710   3.071   3.830   4.383  0.6706  0.5664  0.6573
  377MOL0     H49711   3.082   3.702   4.661  0.0246  1.3518  0.3142
  377MOL0     H49712   3.152   3.635   4.506 -0.2548 -1.5081  0.3373
  377MOL0     H49713   2.933   3.541   4.588  2.7751 -1.5350 -1.0759
  377MOL0     H49714   2.855   3.700   4.568  0.8000  2.0694 -1.8040
  377MOL0     H49715   2.996   3.566   4.327 -0.2552 -1.9494  1.4853
  377MOL0     H49716   2.897   3.700   4.316 -0.1462  0.2174 -0.8063
  377MOL0     H49717   2.637   3.590   4.512  1.4921  1.1880  0.0636
  377MOL0     H49718   2.405   3.484   4.467  0.0093 -0.9938  0.8710
  377MOL0     H49719   2.422   3.314   4.437 -1.3051 -0.7198 -1.4236
  377MOL0     H49720   2.434   3.376   4.190 -1.4162 -2.0074 -0.0088
  377MOL0     H49721   2.347   3.533   4.248  3.0202  0.9221  1.1309
  377MOL0     H49722   2.290   3.245   4.275 -0.7680 -0.7902 -1.1323
  377MOL0     H49723   2.184   3.366   4.363  0.2328 -0.0542  0.5548
  377MOL0     H49724   2.196   3.369   4.066 -2.9470 -1.5240 -1.8199
  377MOL0     H49725   2.078   3.434   4.181  2.5621  3.6332  0.3769
  377MOL0     H49726   2.026   3.367   3.932  0.4192 -0.1720  0.4318
  377MOL0     H49727   1.837   3.331   3.769 -0.0570  1.6479 -0.2162
  377MOL0     H49728   1.301   3.089   3.894 -0.0025  2.5982 -2.4880
  377MOL0     H49729   1.115   3.029   3.747  0.5462  0.6123  1.2793
  377MOL0     H49730   1.161   2.737   3.467 -1.9262 -1.0693 -0.9562
  377MOL0     H49731   1.168   2.840   3.318 -0.7525 -0.1766 -0.3086
  377MOL0     H49732   0.914   2.852   3.340 -0.5440 -0.0370  1.5714
  377MOL0     H49733   0.927   2.747   3.478 -2.4001  0.9119 -1.3188
  377MOL0     H49734   1.080   2.655   3.235 -0.7571  0.7032 -1.5309
  377MOL0     H49735   0.904   2.643   3.241 -2.0452 -1.7230  2.3438
  377MOL0     H49736   1.074   2.543   3.463  2.1411 -2.4564 -0.3496
  377MOL0     H49737   0.914   2.481   3.420 -0.7572  2.3802  0.2136
  377MOL0     H49738   1.150   2.354   3.381 -1.1648  0.1906  1.1315
  377MOL0     H49739   1.168   2.453   3.238  1.3743 -1.7524 -1.5575
  377MOL0     H49740   0.931   2.264   3.325  0.0473  2.0947  0.1431
  377MOL0     H49741   1.064   2.220   3.221 -1.9078 -2.9744  0.4707
  377MOL0     H49742   0.822   2.414   3.171 -1.2724 -0.9264 -0.0482
  377MOL0     H49743   0.965   2.426   3.071 -1.8019 -1.6016 -3.0263
  377MOL0     H49744   0.772   2.274   3.019 -0.8199 -1.0524  0.5084
  377MOL0     H49745   0.845   2.135   3.106 -0.2079 -1.8996 -3.2099
  377MOL0     H49746   1.388   2.900   3.444  1.8301 -1.2639  1.3186
  377MOL0     H49747   1.573   2.951   3.607 -0.4877  0.4477 -2.6602
  377MOL0     H49748   1.732   2.982   4.020  0.0121  1.0626  1.8445
  377MOL0     H49749   1.906   3.043   4.168  0.1617  1.2378  1.3099
  377MOL0     H49750   2.552   4.344   4.558  0.7945 -0.0817 -0.1529
  377MOL0     H49751   2.311   4.325   4.531 -0.4542  0.0955  1.2815
  377MOL0     H49752   2.016   4.221   4.236  2.1422 -0.0952  1.4782
  377MOL0     H49753   1.791   4.270   4.161  0.3007 -0.9488 -1.2717
  377MOL0     H49754   1.550   4.199   4.081 -1.0681 -1.3942  1.0811
  377MOL0     H49755   1.579   4.353   4.171 -1.8901  0.1352  0.3954
  377MOL0     H49756   1.336   4.313   4.077 -2.9845 -0.4621  0.6358
  377MOL0     H49757   1.329   4.178   4.195  1.0146 -0.9032  1.6415
  377MOL0     H49758   1.351   4.468   4.261 -0.8987  1.1027 -0.2862
  377MOL0     H49759   1.351   4.343   4.381 -0.8373  0.1517 -0.4564
  377MOL0     H49760   1.122   4.351   4.171  0.3918 -0.1939  0.4129
  377MOL0     H49761   1.136   4.250   4.310 -0.3225  1.2948  2.3180
  377MOL0     H49762   1.023   4.621   4.487 -2.2062 -0.0345 -2.5498
  377MOL0     H49763   1.639   4.083   4.514  0.8206 -1.8909  1.0477
  377MOL0     H49764   1.868   4.016   4.580  2.5230  4.4270  1.8445
  378MOL0     O49765   3.427  10.429   3.870  0.3816 -0.5770 -0.4783
  378MOL0     C49766   3.453  10.552   3.868 -0.6708  0.2825 -0.3610
  378MOL0     O49767   3.369  10.651   3.916 -0.4127 -0.1754  0.2473
  378MOL0     C49768   3.265  10.622   3.996  0.0982  0.1382 -0.6574
  378MOL0     C49769   3.127  10.636   3.970 -0.7336 -0.4112  0.9279
  378MOL0     C49770   3.026  10.603   4.055 -0.6022  0.3154 -0.4546
  378MOL0     C49771   3.053  10.558   4.188 -0.1946 -0.2771 -0.1801
  378MOL0     O49772   2.947  10.524   4.270  0.0982 -0.3167 -0.0548
  378MOL0     C49773   2.934  10.565   4.399 -0.0540  0.1606 -0.4860
  378MOL0     C49774   2.789  10.608   4.406 -0.0416  0.3701  0.4764
  378MOL0     C49775   2.742  10.635   4.548 -0.9376 -0.3752 -0.5327
  378MOL0     C49776   2.633  10.742   4.563  0.2864 -0.2256  0.1157
  378MOL0     C49777   2.599  10.762   4.715  0.6234 -0.7049  0.1251
  378MOL0     C49778   2.502  10.876   4.731  0.1908 -0.3480 -0.2420
  378MOL0     C49779   2.460  10.862   4.881  0.4892  0.5466  0.5741
  378MOL0     C49780   2.374  10.986   4.920  0.5444  0.2051 -0.7468
  378MOL0     N49781   2.247  11.000   4.846  0.1020 -0.1845  0.4750
  378MOL0     C49782   2.122  10.941   4.875  0.2057  0.0893 -0.5392
  378MOL0     C49783   2.040  10.980   4.773 -0.1902 -0.3452 -1.1792
  378MOL0     C49784   1.894  10.937   4.767 -0.4524 -0.3482  0.8800
  378MOL0     C49785   1.786  11.019   4.841 -0.0680  0.5575 -0.4496
  378MOL0     C49786   1.656  10.953   4.811 -0.1169  0.2305 -0.6911
  378MOL0     C49787   1.534  10.999   4.906 -0.1740  0.3821  0.7513
  378MOL0     O49788   1.420  10.971   4.824 -0.2872  0.2360 -0.0870
  378MOL0     C49789   1.303  11.023   4.879 -0.5012 -0.3709 -0.0272
  378MOL0     C49790   1.238  10.982   4.997  0.1351 -0.6531  0.2973
  378MOL0     C49791   1.113  11.017   5.031  0.6269  0.2050 -0.0454
  378MOL0     C49792   1.038  11.102   4.947  0.3366  0.6226 -0.0642
  378MOL0     C49793   0.896  11.130   4.971 -0.4849 -0.3639  0.6552
  378MOL0     O49794   0.837  11.046   5.063  0.4405  0.7988  0.1055
  378MOL0     C49795   0.702  11.044   5.097  0.8670 -0.1787 -0.0041
  378MOL0     C49796   0.596  11.070   5.004  0.3823  0.1491 -0.0278
  378MOL0     C49797   0.460  11.061   5.028  0.6711  0.3351 -0.3835
  378MOL0     C49798   0.424  11.004   5.152 -0.1953  0.7687  0.2660
  378MOL0     O49799   0.285  10.981   5.180 -0.0703  0.7323  0.0253
  378MOL0     C49800   0.265  11.003   5.321  0.3908  0.5014 -0.2900
  378MOL0     C49801   0.120  11.044   5.329  0.4004 -0.0371 -0.4336
  378MOL0     C49802   0.033  10.924   5.295  0.2559  0.4724 -0.0304
  378MOL0     C49803  -0.114  10.965   5.327 -0.1069 -0.8272 -0.0933
  378MOL0     C49804  -0.207  10.847   5.296 -0.6424  0.2845  0.2878
  378MOL0     C49805  -0.330  10.849   5.395 -0.1953  0.2388  0.5441
  378MOL0     C49806  -0.433  10.744   5.372  0.0082 -0.0391 -0.2736
  378MOL0     C49807  -0.534  10.742   5.486 -0.0596 -0.0529 -0.3332
  378MOL0    Cl49808  -0.644  10.889   5.470  0.0206  0.4304  0.1864
  378MOL0     C49809   0.531  10.959   5.237  0.1479  1.0233  0.5899
  378MOL0     C49810   0.663  10.980   5.208  0.4797  0.3773 -0.5137
  378MOL0     O49811   0.835  11.223   4.917 -0.2520 -0.5619  0.2064
  378MOL0     C49812   1.105  11.147   4.825 -0.2749  1.0461 -0.6217
  378MOL0     C49813   1.233  11.110   4.793 -0.2083 -0.2532  0.8417
  378MOL0     N49814   2.111  11.069   4.692  0.2000  0.2787 -0.3730
  378MOL0     N49815   2.232  11.081   4.735 -0.2379  1.0773 -0.0406
  378MOL0     C49816   3.190  10.556   4.220  0.5870 -0.4134 -0.1404
  378MOL0     C49817   3.290  10.591   4.131 -0.0342  1.1688 -0.2669
  378MOL0     C49818   3.585  10.583   3.811 -0.5925 -0.1421  0.9961
  378MOL0     C49819   3.602  10.720   3.778  0.0363  0.8801  0.4163
  378MOL0     C49820   3.727  10.760   3.721 -0.1722  0.6807  0.1482
  378MOL0     C49821   3.828  10.656   3.709 -1.0994 -0.4057 -0.3194
  378MOL0     O49822   3.966  10.669   3.682  0.3390  0.0570 -0.0227
  378MOL0     C49823   4.007  10.801   3.638  0.6202 -0.2607 -0.4666
  378MOL0     C49824   4.167  10.805   3.615  0.4854 -0.6633  0.0194
  378MOL0     C49825   4.196  10.747   3.477  0.6208 -0.4380  0.0526
  378MOL0     C49826   4.341  10.691   3.452 -1.0146  0.0820 -0.8644
  378MOL0     C49827   4.441  10.789   3.478 -0.3797 -0.4730  0.3123
  378MOL0     C49828   4.537  10.864   3.474 -0.1650  0.4079 -0.2871
  378MOL0     C49829   3.800  10.526   3.741  0.1726  0.3329  0.1207
  378MOL0     C49830   3.681  10.490   3.784 -0.7453  0.3008  0.1046
  378MOL0     H49831   3.106  10.679   3.873 -1.8795  1.1887  1.8290
  378MOL0     H49832   2.919  10.614   4.040 -0.6156  0.2384 -0.4175
  378MOL0     H49833   3.003  10.644   4.429  0.8063 -0.8571  0.3181
  378MOL0     H49834   2.943  10.486   4.474  1.5321  1.4898  0.7848
  378MOL0     H49835   2.722  10.535   4.360  2.1493 -2.8766  2.0835
  378MOL0     H49836   2.785  10.702   4.350  0.3175 -0.2767 -0.6661
  378MOL0     H49837   2.820  10.675   4.613 -0.9462 -2.3226  0.7401
  378MOL0     H49838   2.704  10.550   4.605 -0.0814 -0.0966  0.4969
  378MOL0     H49839   2.681  10.831   4.522  3.3363 -2.7306 -2.2633
  378MOL0     H49840   2.547  10.719   4.498  2.6915 -1.4648 -2.9083
  378MOL0     H49841   2.691  10.790   4.768  0.5754 -2.2845  1.0744
  378MOL0     H49842   2.556  10.671   4.757 -1.6925  0.0130 -0.5578
  378MOL0     H49843   2.418  10.862   4.663  0.1784 -1.5819 -0.0011
  378MOL0     H49844   2.563  10.964   4.710  0.3304  0.1393  1.9289
  378MOL0     H49845   2.396  10.774   4.888  1.0014  0.2172  1.2613
  378MOL0     H49846   2.546  10.843   4.947  0.9788 -0.8571 -0.4185
  378MOL0     H49847   2.436  11.074   4.899  1.7229 -0.4292 -0.0366
  378MOL0     H49848   2.353  10.972   5.026 -0.2713  1.7259 -0.6720
  378MOL0     H49849   2.091  10.889   4.965  0.1611  1.4571  0.2770
  378MOL0     H49850   1.886  10.832   4.797 -1.9663 -1.3481 -2.4814
  378MOL0     H49851   1.858  10.954   4.665  1.3757  2.0442  0.5243
  378MOL0     H49852   1.790  11.121   4.802  0.4268  0.6107 -0.2675
  378MOL0     H49853   1.793  11.027   4.950 -1.2402  2.2987 -0.4660
  378MOL0     H49854   1.639  10.955   4.703 -0.6506 -2.7896 -0.7619
  378MOL0     H49855   1.657  10.845   4.831 -0.9927  0.1993 -0.7692
  378MOL0     H49856   1.540  11.107   4.919  2.4473  0.0502  3.3871
  378MOL0     H49857   1.542  10.938   4.997  2.2253 -1.0034 -0.2812
  378MOL0     H49858   1.286  10.908   5.061 -2.0063 -2.0510  0.3910
  378MOL0     H49859   1.080  10.970   5.123  1.5769 -1.1562 -0.3841
  378MOL0     H49860   0.627  11.098   4.903  0.7776 -0.1266  0.0152
  378MOL0     H49861   0.381  11.089   4.958  1.5291 -1.2866 -2.0933
  378MOL0     H49862   0.329  11.084   5.357 -1.3618  1.5251  0.6748
  378MOL0     H49863   0.289  10.924   5.393  0.4838  2.0140  1.3989
  378MOL0     H49864   0.101  11.128   5.262  0.6584  1.2225  1.0159
  378MOL0     H49865   0.098  11.086   5.428  1.1232  2.1783 -1.1405
  378MOL0     H49866   0.066  10.841   5.357  0.9778  0.3527 -0.5564
  378MOL0     H49867   0.038  10.889   5.191 -3.0286  0.8271 -0.4179
  378MOL0     H49868  -0.117  10.982   5.435 -0.1329 -3.5100  0.3938
  378MOL0     H49869  -0.136  11.059   5.276  2.3502 -0.4491 -0.5448
  378MOL0     H49870  -0.151  10.756   5.318 -1.9327 -0.8301 -0.7957
  378MOL0     H49871  -0.241  10.843   5.192  0.5890  0.7806 -0.1472
  378MOL0     H49872  -0.384  10.944   5.387 -2.0670 -0.8609 -0.5485
  378MOL0     H49873  -0.285  10.841   5.495 -2.3579 -0.3913  1.5271
  378MOL0     H49874  -0.478  10.745   5.272  0.8117  0.6275 -0.6376
  378MOL0     H49875  -0.380  10.648   5.374 -0.4367 -0.2721  1.6262
  378MOL0     H49876  -0.485  10.732   5.583  1.7176 -1.2483 -1.3011
  378MOL0     H49877  -0.587  10.648   5.471  1.5346 -1.0021 -0.2568
  378MOL0     H49878   0.497  10.909   5.327 -3.1219  0.7312 -0.6763
  378MOL0     H49879   0.736  10.942   5.278 -0.8063 -2.8393 -0.7319
  378MOL0     H49880   1.050  11.203   4.751  0.6029  0.8688 -1.4205
  378MOL0     H49881   1.281  11.141   4.701  0.2739  0.4551  1.3190
  378MOL0     H49882   3.212  10.529   4.322 -1.6542 -0.8895  0.2656
  378MOL0     H49883   3.391  10.588   4.170 -0.3931  0.6804  0.6577
  378MOL0     H49884   3.525  10.795   3.789 -0.3711  0.4338  0.6420
  378MOL0     H49885   3.750  10.865   3.704  2.1590 -0.0621 -1.7932
  378MOL0     H49886   3.966  10.874   3.708  0.9321 -1.5432  1.1482
  378MOL0     H49887   3.960  10.826   3.543  1.5100 -0.3233 -0.9356
  378MOL0     H49888   4.199  10.909   3.618  0.1833 -0.5436  3.8598
  378MOL0     H49889   4.220  10.756   3.697 -1.9343 -1.1216  1.3853
  378MOL0     H49890   4.180  10.820   3.397 -0.8089 -0.6140  0.1466
  378MOL0     H49891   4.129  10.665   3.448  0.5492 -0.9967  1.7173
  378MOL0     H49892   4.359  10.606   3.519  2.4335  0.9873 -0.4783
  378MOL0     H49893   4.360  10.653   3.352 -0.6982 -2.2927  0.0247
  378MOL0     H49894   4.630  10.918   3.470 -0.3673  0.8436  0.6710
  378MOL0     H49895   3.884  10.457   3.749  0.0032  0.2416  1.2460
  378MOL0     H49896   3.654  10.391   3.818 -2.3181  0.8831  0.6271
  379MOL0     O49897   7.078   8.878   4.080 -0.1408 -0.7928 -0.3772
  379MOL0     C49898   7.105   8.764   4.087 -0.4544  0.4950 -0.1148
  379MOL0     O49899   7.029   8.668   4.147 -0.2665  0.0707  0.3719
  379MOL0     C49900   6.917   8.714   4.209 -0.5428  0.9832  0.5722
  379MOL0     C49901   6.789   8.715   4.143  0.7522 -0.3602  0.1013
  379MOL0     C49902   6.671   8.749   4.205 -0.0731  0.7140 -0.1795
  379MOL0     C49903   6.680   8.793   4.334  1.2917 -0.4035  0.1909
  379MOL0     O49904   6.562   8.840   4.401 -0.4829 -0.3356  0.2901
  379MOL0     C49905   6.576   8.960   4.475  0.2643  0.2580  0.3529
  379MOL0     C49906   6.628   9.076   4.382 -0.5775 -0.0687 -1.0315
  379MOL0     C49907   6.537   9.201   4.360  0.0331 -0.0449 -0.0355
  379MOL0     C49908   6.540   9.292   4.480 -0.3370  0.6935 -0.2638
  379MOL0     C49909   6.658   9.383   4.478  0.0975 -0.0724  0.3726
  379MOL0     C49910   6.647   9.507   4.564  0.3448  0.6153  0.0345
  379MOL0     C49911   6.785   9.574   4.597  0.8282  1.3912  0.7990
  379MOL0     C49912   6.843   9.495   4.707 -0.2370 -0.0271 -0.5605
  379MOL0     N49913   6.970   9.568   4.737  0.3118 -0.4605 -0.7004
  379MOL0     C49914   7.037   9.658   4.656  0.3263  0.2675 -0.0306
  379MOL0     C49915   7.141   9.695   4.729 -0.5209  0.7461 -0.1363
  379MOL0     C49916   7.254   9.788   4.689 -0.5317  0.2532 -0.1692
  379MOL0     C49917   7.249   9.926   4.772 -0.3294 -0.1191  0.2429
  379MOL0     C49918   7.126  10.019   4.753  0.1815 -0.4361  0.7393
  379MOL0     C49919   7.013  10.006   4.858  0.3961  0.4426 -0.0482
  379MOL0     O49920   6.915  10.111   4.845 -0.8432 -0.4414 -0.1104
  379MOL0     C49921   6.801  10.089   4.766  1.0169 -0.2154 -0.0949
  379MOL0     C49922   6.787  10.000   4.655 -0.1076 -0.5335 -0.4909
  379MOL0     C49923   6.665   9.986   4.587 -0.4824  0.5542  0.0932
  379MOL0     C49924   6.549  10.063   4.622  0.3630 -0.0593 -0.0507
  379MOL0     C49925   6.419  10.048   4.553  1.1909 -0.3756 -0.1616
  379MOL0     O49926   6.403   9.935   4.488 -0.6374 -0.0894  0.4675
  379MOL0     C49927   6.285   9.912   4.419 -0.3247 -0.5817 -0.6168
  379MOL0     C49928   6.280   9.933   4.276 -0.3430  0.2620  0.1053
  379MOL0     C49929   6.153   9.914   4.215 -0.4248  0.2508 -0.2089
  379MOL0     C49930   6.035   9.877   4.278 -0.2833  0.7203 -0.9070
  379MOL0     O49931   5.917   9.865   4.200 -0.8779 -0.0548 -0.1259
  379MOL0     C49932   5.817   9.762   4.239 -0.2688  0.1763 -0.6984
  379MOL0     C49933   5.705   9.741   4.139  0.0428 -0.2246  1.0039
  379MOL0     C49934   5.616   9.867   4.121 -0.1808 -0.3321  0.2388
  379MOL0     C49935   5.467   9.827   4.110 -0.5850 -0.5372 -0.2954
  379MOL0     C49936   5.433   9.723   4.003 -0.9498  0.4943 -0.7592
  379MOL0     C49937   5.298   9.727   3.943  0.4699 -0.1202 -0.3654
  379MOL0     C49938   5.296   9.841   3.840  0.0667  0.4184  0.1086
  379MOL0     C49939   5.160   9.849   3.761  0.1014  0.8406  1.0228
  379MOL0    Cl49940   5.143   9.698   3.648 -0.0351  0.1011  0.3505
  379MOL0     C49941   6.039   9.860   4.418 -0.4687 -0.3453  1.0861
  379MOL0     C49942   6.168   9.878   4.487 -0.3319 -0.3993  0.0501
  379MOL0     O49943   6.338  10.139   4.562  0.1757  0.3582 -0.1181
  379MOL0     C49944   6.566  10.159   4.728  0.2758  0.8298 -0.5733
  379MOL0     C49945   6.685  10.161   4.802 -0.7807 -0.4819 -0.2494
  379MOL0     N49946   7.144   9.635   4.856  0.6754 -0.0613 -0.4597
  379MOL0     N49947   7.032   9.569   4.863 -0.9676  0.3704 -0.7259
  379MOL0     C49948   6.804   8.791   4.406  0.9419  0.3906  0.4676
  379MOL0     C49949   6.918   8.750   4.347 -0.1016  0.6006 -0.5510
  379MOL0     C49950   7.242   8.727   4.032  0.3277 -0.1016  0.6224
  379MOL0     C49951   7.316   8.822   3.961 -0.8229  0.2581  0.7799
  379MOL0     C49952   7.446   8.791   3.909 -0.3200 -0.0463  0.0774
  379MOL0     C49953   7.495   8.661   3.926 -0.8846  0.7535  0.4911
  379MOL0     O49954   7.618   8.610   3.893 -0.0837  0.2745 -0.5135
  379MOL0     C49955   7.708   8.707   3.837 -0.1202  0.0000 -0.3797
  379MOL0     C49956   7.841   8.642   3.810  0.7356  0.2211  0.9782
  379MOL0     C49957   7.946   8.738   3.747 -0.0815  0.5256 -0.7782
  379MOL0     C49958   8.086   8.671   3.736 -0.1357  0.1329 -0.6614
  379MOL0     C49959   8.179   8.775   3.688  0.8884 -0.5780 -0.5235
  379MOL0     C49960   8.259   8.860   3.649  0.2077  0.1015 -0.2930
  379MOL0     C49961   7.414   8.571   3.992  0.5045  0.1236  0.3379
  379MOL0     C49962   7.289   8.603   4.048 -0.0477  0.3678  0.6451
  379MOL0     H49963   6.790   8.678   4.041 -1.0027 -0.8464  0.2394
  379MOL0     H49964   6.578   8.738   4.150  0.8413  0.7708 -1.7805
  379MOL0     H49965   6.646   8.949   4.559  1.8701  3.0284 -0.4989
  379MOL0     H49966   6.477   8.989   4.513 -1.8622 -1.8564 -3.0682
  379MOL0     H49967   6.647   9.029   4.285 -2.8339  0.9661 -2.0232
  379MOL0     H49968   6.725   9.113   4.416 -0.8166 -0.1088 -0.2957
  379MOL0     H49969   6.432   9.175   4.343  0.3277 -1.0224 -0.4442
  379MOL0     H49970   6.561   9.247   4.264 -2.4800  1.8293  0.1405
  379MOL0     H49971   6.446   9.347   4.488  0.1694  1.6151 -0.5156
  379MOL0     H49972   6.541   9.225   4.566  0.0061 -1.8970 -2.1564
  379MOL0     H49973   6.682   9.426   4.380 -0.3075 -0.6182  0.0337
  379MOL0     H49974   6.742   9.322   4.512  0.8244 -0.7473 -2.4227
  379MOL0     H49975   6.595   9.481   4.657  0.6081 -2.2595 -0.5309
  379MOL0     H49976   6.576   9.579   4.524 -2.1064 -1.0524  1.1562
  379MOL0     H49977   6.850   9.581   4.509 -0.5285  0.4023 -0.3226
  379MOL0     H49978   6.760   9.675   4.632  0.8966  0.9468  2.2128
  379MOL0     H49979   6.867   9.393   4.674  2.0294 -0.3268  1.7564
  379MOL0     H49980   6.776   9.484   4.793  0.0892 -2.5903 -0.5648
  379MOL0     H49981   7.018   9.691   4.554 -1.9502 -2.2067 -0.5200
  379MOL0     H49982   7.260   9.813   4.583  2.3525  2.2510  0.3424
  379MOL0     H49983   7.349   9.734   4.697  1.3315  3.2095 -0.6024
  379MOL0     H49984   7.341   9.977   4.743 -1.8923  1.4227 -2.3983
  379MOL0     H49985   7.253   9.900   4.878  1.0956 -1.4865 -0.0942
  379MOL0     H49986   7.165  10.120   4.737 -3.6172  0.9645 -0.8959
  379MOL0     H49987   7.092  10.007   4.649 -1.0434 -2.1018  1.2816
  379MOL0     H49988   7.054  10.020   4.959 -1.4397  3.0825  0.4574
  379MOL0     H49989   6.978   9.903   4.860  0.8008  0.3014 -0.2873
  379MOL0     H49990   6.873   9.942   4.622  0.6724 -0.1625  0.8396
  379MOL0     H49991   6.676   9.921   4.500  1.7481 -0.3964  1.0059
  379MOL0     H49992   6.365   9.969   4.219 -0.9248  0.1075 -0.8738
  379MOL0     H49993   6.157   9.929   4.107  2.8402 -1.2925 -0.4202
  379MOL0     H49994   5.770   9.800   4.330 -0.2244 -0.3160 -0.4655
  379MOL0     H49995   5.857   9.663   4.262 -2.3911 -0.1933  1.9150
  379MOL0     H49996   5.644   9.656   4.171 -0.8735  0.6843  1.6953
  379MOL0     H49997   5.758   9.719   4.045  0.5895  0.5934  1.1139
  379MOL0     H49998   5.660   9.927   4.041 -0.5237  0.7697  0.8470
  379MOL0     H49999   5.630   9.926   4.212  2.1846 -0.1636 -0.1891
  379MOL0     H50000   5.438   9.799   4.211 -1.4484  1.4249  0.0621
  379MOL0     H50001   5.410   9.918   4.087  1.2295  0.7852  0.1640
  379MOL0     H50002   5.444   9.626   4.052 -0.8262 -1.1929 -3.9022
  379MOL0     H50003   5.512   9.722   3.927  0.2100 -2.3717  0.3640
  379MOL0     H50004   5.226   9.736   4.024  2.8291  1.8691  1.6842
  379MOL0     H50005   5.278   9.638   3.883 -0.4572  0.7985 -1.4617
  379MOL0     H50006   5.315   9.934   3.894  2.5906 -0.4341  0.8222
  379MOL0     H50007   5.377   9.826   3.768  0.1934  0.1958  0.2981
  379MOL0     H50008   5.167   9.935   3.694 -1.3372  2.2687  2.6167
  379MOL0     H50009   5.079   9.859   3.834 -0.0925 -0.4163  1.0137
  379MOL0     H50010   5.953   9.831   4.477 -0.6644 -1.1028  0.4498
  379MOL0     H50011   6.179   9.864   4.594  1.0561 -4.6381 -0.4392
  379MOL0     H50012   6.484  10.224   4.758 -0.6734  0.1162 -1.5017
  379MOL0     H50013   6.699  10.229   4.885  0.7308  1.3896 -1.9176
  379MOL0     H50014   6.813   8.828   4.507  1.9954 -0.0842  0.5573
  379MOL0     H50015   7.001   8.758   4.416 -3.1884  1.6137  3.4138
  379MOL0     H50016   7.286   8.926   3.955  0.1312  0.5326  0.5415
  379MOL0     H50017   7.514   8.865   3.867  0.0935 -1.3943 -1.7409
  379MOL0     H50018   7.728   8.785   3.911  4.8728 -0.9994 -0.3244
  379MOL0     H50019   7.660   8.757   3.752 -2.2280 -0.2305  0.5961
  379MOL0     H50020   7.889   8.614   3.904 -2.1610 -1.3187  2.1210
  379MOL0     H50021   7.835   8.558   3.741  1.8833  1.9083 -1.2839
  379MOL0     H50022   7.956   8.823   3.815 -0.4999 -0.2012  0.2204
  379MOL0     H50023   7.917   8.784   3.652 -0.8563 -0.4434 -1.0190
  379MOL0     H50024   8.117   8.643   3.837 -0.9410 -1.1908 -0.7677
  379MOL0     H50025   8.082   8.582   3.673  0.4777  0.5568 -1.3267
  379MOL0     H50026   8.331   8.936   3.624  0.5874 -0.2573 -0.2887
  379MOL0     H50027   7.445   8.467   3.992 -0.3913 -0.1571  0.8502
  379MOL0     H50028   7.238   8.525   4.104 -2.0132  1.8561  1.0333
  380MOL0     O50029   7.113   5.853   7.853  0.8069  0.5783  0.4149
  380MOL0     C50030   7.156   5.936   7.787  0.5481 -0.6612  0.5155
  380MOL0     O50031   7.090   6.049   7.750  0.0088 -1.0019 -0.1220
  380MOL0     C50032   6.959   6.053   7.781  0.9057  0.2828 -0.2704
  380MOL0     C50033   6.864   5.967   7.719 -0.4164 -0.0531 -0.4234
  380MOL0     C50034   6.735   5.982   7.742  0.1928 -1.2385 -0.1555
  380MOL0     C50035   6.688   6.067   7.848  0.4422  0.2328  0.0793
  380MOL0     O50036   6.553   6.088   7.861 -0.2755  0.1679 -0.2345
  380MOL0     C50037   6.471   5.980   7.865  0.0678 -0.0330 -0.8799
  380MOL0     C50038   6.476   5.886   7.992 -0.1651  0.7381 -0.2576
  380MOL0     C50039   6.442   5.962   8.120 -0.0394  0.1250 -0.3991
  380MOL0     C50040   6.438   5.885   8.249  0.3149  0.0310  0.2686
  380MOL0     C50041   6.399   5.980   8.366  0.4670 -0.4626  0.2795
  380MOL0     C50042   6.373   5.906   8.497  0.4104 -0.6139  0.2624
  380MOL0     C50043   6.499   5.895   8.574 -0.1059  0.7210  0.2462
  380MOL0     C50044   6.476   5.857   8.726 -1.0416  0.1911  0.6339
  380MOL0     N50045   6.602   5.867   8.789 -0.2330 -0.1085 -0.4792
  380MOL0     C50046   6.704   5.779   8.779 -0.1633 -0.6358  1.2421
  380MOL0     C50047   6.802   5.829   8.857 -0.7101  0.0102 -0.7284
  380MOL0     C50048   6.938   5.755   8.871  0.1438 -0.3802  0.3467
  380MOL0     C50049   7.066   5.820   8.810  0.5323 -0.3771 -0.2307
  380MOL0     C50050   7.100   5.962   8.866  0.3220  0.9386  0.4239
  380MOL0     C50051   7.238   6.006   8.815  0.3839  0.7510  0.3264
  380MOL0     O50052   7.333   5.935   8.898 -0.3261 -0.3421 -0.2798
  380MOL0     C50053   7.455   5.972   8.861  0.1827 -0.2706  0.4509
  380MOL0     C50054   7.547   5.866   8.854 -0.0394 -0.5948 -0.6404
  380MOL0     C50055   7.677   5.891   8.819  0.0979  0.0469  0.5583
  380MOL0     C50056   7.722   6.016   8.790 -0.3856 -0.0059  0.1931
  380MOL0     C50057   7.863   6.032   8.751 -0.4061  0.8508  0.5663
  380MOL0     O50058   7.894   6.141   8.681  0.4487  0.0841  0.4486
  380MOL0     C50059   8.019   6.160   8.630 -0.0200 -0.4655  0.3640
  380MOL0     C50060   8.036   6.110   8.497  0.0361 -0.8809 -0.0926
  380MOL0     C50061   8.165   6.098   8.441 -0.4444 -0.6201 -0.1862
  380MOL0     C50062   8.286   6.133   8.511 -0.3139 -0.7710 -0.6530
  380MOL0     O50063   8.420   6.119   8.467 -0.0751  0.4578 -0.3612
  380MOL0     C50064   8.433   6.132   8.331  0.0070 -0.0525 -0.4946
  380MOL0     C50065   8.575   6.177   8.306  0.0416  0.5369 -0.0237
  380MOL0     C50066   8.587   6.325   8.339  0.3288  0.1207 -0.5098
  380MOL0     C50067   8.741   6.354   8.365 -1.0295 -0.0984 -0.1854
  380MOL0     C50068   8.750   6.494   8.431  0.8142 -0.3921 -0.2865
  380MOL0     C50069   8.702   6.488   8.572  0.2798  0.5112 -1.4930
  380MOL0     C50070   8.755   6.370   8.662 -0.0860  1.2253  0.4349
  380MOL0     C50071   8.735   6.384   8.810 -0.3542  0.0781  0.0386
  380MOL0    Cl50072   8.574   6.441   8.852  0.2702 -0.1361  0.2420
  380MOL0     C50073   8.263   6.184   8.639  0.1173  0.6796 -0.5682
  380MOL0     C50074   8.136   6.191   8.697 -1.3954  0.6870  0.1543
  380MOL0     O50075   7.947   5.945   8.788  0.2155 -0.3130 -0.3479
  380MOL0     C50076   7.635   6.120   8.805 -0.0401 -0.1554  0.8409
  380MOL0     C50077   7.498   6.104   8.837  0.8424  0.3674 -0.3632
  380MOL0     N50078   6.755   5.939   8.929  0.1562  0.6497 -0.1176
  380MOL0     N50079   6.633   5.959   8.882 -0.0656  0.1587 -0.1828
  380MOL0     C50080   6.781   6.150   7.914  0.0453  0.1062  0.4615
  380MOL0     C50081   6.917   6.151   7.876 -0.0654  0.0264  0.2804
  380MOL0     C50082   7.303   5.921   7.751 -0.2497  0.0829  0.8066
  380MOL0     C50083   7.372   6.039   7.713 -0.0485 -0.7162 -0.2463
  380MOL0     C50084   7.500   6.036   7.663  0.1818  0.5547 -0.5822
  380MOL0     C50085   7.561   5.906   7.640 -0.3209  0.0395  0.0890
  380MOL0     O50086   7.689   5.906   7.591  0.4846  0.2720 -0.0486
  380MOL0     C50087   7.736   5.797   7.523  0.2167  0.2849 -0.8048
  380MOL0     C50088   7.863   5.826   7.451  1.2019 -0.0570  0.7491
  380MOL0     C50089   7.853   5.956   7.369 -0.0356 -0.0632  0.2073
  380MOL0     C50090   7.977   5.986   7.284  0.5614  0.3178  0.1686
  380MOL0     C50091   7.944   6.015   7.144  0.6218  0.6178  0.0921
  380MOL0     C50092   7.915   6.012   7.024 -1.1259  0.4477  0.8278
  380MOL0     C50093   7.493   5.789   7.678  0.0081  0.0159 -0.2217
  380MOL0     C50094   7.366   5.800   7.727 -0.4682 -0.5085 -0.7835
  380MOL0     H50095   6.897   5.889   7.651  1.6394  0.8755 -0.5411
  380MOL0     H50096   6.674   5.926   7.672 -0.1823 -0.3109 -0.6021
  380MOL0     H50097   6.484   5.923   7.773 -1.9986 -0.4426 -0.9483
  380MOL0     H50098   6.368   6.016   7.859  0.1273  0.5574  0.9503
  380MOL0     H50099   6.579   5.852   8.003 -0.3907 -1.1731 -3.0046
  380MOL0     H50100   6.418   5.795   7.980 -1.4140  1.2533  1.4578
  380MOL0     H50101   6.340   5.999   8.113 -0.1945  0.1038  1.3275
  380MOL0     H50102   6.513   6.044   8.131 -1.8745  1.8338 -0.6879
  380MOL0     H50103   6.360   5.809   8.240 -0.7819 -0.0192  6.3908
  380MOL0     H50104   6.535   5.841   8.275 -0.7535 -0.6630  3.5559
  380MOL0     H50105   6.307   6.034   8.343  0.2879 -0.4232  1.0568
  380MOL0     H50106   6.474   6.059   8.379 -3.5346  3.5041  2.2691
  380MOL0     H50107   6.329   5.809   8.470 -1.3526  0.5655 -1.4033
  380MOL0     H50108   6.302   5.963   8.557  2.7487  0.6597  1.9657
  380MOL0     H50109   6.565   5.821   8.527  1.3741  1.1369  1.5926
  380MOL0     H50110   6.557   5.987   8.564 -1.5644  1.8255  1.4904
  380MOL0     H50111   6.438   5.756   8.743  0.5769 -0.9571 -1.9894
  380MOL0     H50112   6.422   5.930   8.787  2.3535  1.8855  1.8268
  380MOL0     H50113   6.714   5.696   8.710  1.9995  0.0300  0.6691
  380MOL0     H50114   6.932   5.659   8.819  1.8297 -2.1364  3.1042
  380MOL0     H50115   6.957   5.734   8.976  2.2799  1.6621  0.4497
  380MOL0     H50116   7.056   5.838   8.703 -3.6170  0.1931  0.0953
  380MOL0     H50117   7.154   5.759   8.834  3.3472  2.8092 -1.6354
  380MOL0     H50118   7.027   6.033   8.826  0.4288  1.2138  0.7134
  380MOL0     H50119   7.106   5.959   8.975 -2.1593 -1.8733  0.6238
  380MOL0     H50120   7.253   6.109   8.850  3.7827  0.0078  1.4201
  380MOL0     H50121   7.241   5.996   8.706  0.4037  3.0160  0.0531
  380MOL0     H50122   7.509   5.764   8.860  1.2022 -0.9794  2.5243
  380MOL0     H50123   7.749   5.811   8.801  1.0846  0.8721  0.7519
  380MOL0     H50124   7.954   6.061   8.446  0.1001 -1.3261  0.2298
  380MOL0     H50125   8.166   6.052   8.343  0.9291 -1.1343  0.0598
  380MOL0     H50126   8.360   6.201   8.288 -1.7862 -1.9548 -0.6838
  380MOL0     H50127   8.411   6.032   8.293  0.4800 -0.1177 -0.6091
  380MOL0     H50128   8.593   6.179   8.198 -3.5643  0.7016 -0.7708
  380MOL0     H50129   8.644   6.107   8.353  2.2514 -0.1856 -3.9531
  380MOL0     H50130   8.520   6.350   8.421 -0.0586  2.9747 -1.5694
  380MOL0     H50131   8.539   6.386   8.263  1.9066 -0.1011 -1.7486
  380MOL0     H50132   8.793   6.274   8.419  0.3891  0.0851 -1.2201
  380MOL0     H50133   8.793   6.355   8.269  0.2231 -2.0713  0.4106
  380MOL0     H50134   8.694   6.562   8.366  2.1648 -0.9155 -2.1140
  380MOL0     H50135   8.851   6.535   8.422  0.0033  1.8008 -0.0067
  380MOL0     H50136   8.593   6.485   8.563  0.4045  2.0801 -4.6239
  380MOL0     H50137   8.728   6.581   8.623  0.1789  0.0399 -0.5469
  380MOL0     H50138   8.694   6.283   8.636 -0.1049 -0.2411  4.5714
  380MOL0     H50139   8.859   6.341   8.643  0.1399  1.6232  1.0169
  380MOL0     H50140   8.799   6.469   8.838 -1.9358  1.5992 -0.7279
  380MOL0     H50141   8.753   6.291   8.863 -2.6636 -0.2092  0.4292
  380MOL0     H50142   8.347   6.205   8.704  0.6908  1.7429 -1.6054
  380MOL0     H50143   8.138   6.212   8.803  1.2261  0.9281  0.1287
  380MOL0     H50144   7.663   6.225   8.804 -3.3563  0.8213  1.3582
  380MOL0     H50145   7.443   6.196   8.855  1.6157  0.7651  0.0446
  380MOL0     H50146   6.745   6.206   7.999  2.4106  0.7577  1.1001
  380MOL0     H50147   6.990   6.213   7.927  0.6747  1.1806 -2.0343
  380MOL0     H50148   7.327   6.135   7.736  1.2320 -0.4729  1.5113
  380MOL0     H50149   7.553   6.125   7.631  0.8443 -0.2320 -1.7915
  380MOL0     H50150   7.662   5.758   7.453  1.1157 -1.4202 -0.8543
  380MOL0     H50151   7.759   5.715   7.592  0.1174  0.0418 -1.0610
  380MOL0     H50152   7.947   5.852   7.515  1.3050 -0.0175  0.5985
  380MOL0     H50153   7.889   5.739   7.389  2.7178 -0.9729  2.5409
  380MOL0     H50154   7.834   6.032   7.445 -0.2887  0.1327 -0.0491
  380MOL0     H50155   7.769   5.944   7.299  1.0772 -0.6978 -1.0670
  380MOL0     H50156   8.023   6.074   7.330 -2.0158  1.2421  1.1679
  380MOL0     H50157   8.044   5.900   7.283 -0.7592 -0.7335 -0.3521
  380MOL0     H50158   7.890   6.025   6.921  0.3475 -1.4165  0.1688
  380MOL0     H50159   7.543   5.693   7.669  2.5009  1.3881 -2.8051
  380MOL0     H50160   7.307   5.711   7.743  0.2502 -0.6358  1.6778
  381MOL0     O50161   8.562   0.361   6.960  0.5019 -0.2974 -0.3846
  381MOL0     C50162   8.663   0.334   7.024  0.8463  0.2447  1.0096
  381MOL0     O50163   8.681   0.219   7.090  0.2727  0.1592 -0.1173
  381MOL0     C50164   8.577   0.133   7.108  0.4029  0.4522  0.7892
  381MOL0     C50165   8.573   0.004   7.043 -0.3795 -0.8465  0.0390
  381MOL0     C50166   8.470  -0.088   7.060 -0.0721  0.2484 -0.7485
  381MOL0     C50167   8.351  -0.044   7.129 -0.3032 -0.3786  0.8320
  381MOL0     O50168   8.240  -0.116   7.139 -0.3341  0.7140  0.1850
  381MOL0     C50169   8.243  -0.258   7.128 -0.8253 -0.6678  0.2672
  381MOL0     C50170   8.118  -0.308   7.191  1.1505  0.0956  0.6709
  381MOL0     C50171   7.983  -0.263   7.130 -0.0459  0.1777  0.2467
  381MOL0     C50172   7.976  -0.269   6.978  0.3549  0.3540 -0.7196
  381MOL0     C50173   7.826  -0.264   6.928 -0.5166  0.4380  0.9580
  381MOL0     C50174   7.813  -0.239   6.778  0.1540  0.0729  0.0538
  381MOL0     C50175   7.886  -0.123   6.712 -0.2815 -0.3827  0.0792
  381MOL0     C50176   7.869   0.019   6.767 -0.6466 -0.2727 -1.1906
  381MOL0     N50177   7.727   0.064   6.760 -0.6250  0.6049 -0.0442
  381MOL0     C50178   7.684   0.170   6.686 -0.1986  0.4245  0.6322
  381MOL0     C50179   7.562   0.215   6.741 -0.6806  0.3075 -0.0575
  381MOL0     C50180   7.482   0.336   6.719  0.2244  0.4288 -0.3402
  381MOL0     C50181   7.354   0.308   6.630 -0.0155  0.6850  0.3857
  381MOL0     C50182   7.257   0.205   6.690  0.2366 -0.9192  0.1726
  381MOL0     C50183   7.222   0.229   6.839  1.0751 -0.3089  0.1355
  381MOL0     O50184   7.168   0.357   6.853 -0.6391 -1.6601 -0.5403
  381MOL0     C50185   7.037   0.384   6.859 -0.5301 -0.8068 -0.0161
  381MOL0     C50186   6.933   0.299   6.814 -0.1903  0.3222 -0.0769
  381MOL0     C50187   6.801   0.351   6.807  0.7411  0.1755  0.1036
  381MOL0     C50188   6.776   0.479   6.860 -0.1439  0.0817  0.2721
  381MOL0     C50189   6.633   0.534   6.870 -0.0806  0.3416 -0.2091
  381MOL0     O50190   6.526   0.444   6.861  0.3045 -0.0737 -0.1663
  381MOL0     C50191   6.393   0.478   6.837 -0.1980 -0.9956  0.1900
  381MOL0     C50192   6.322   0.378   6.778 -0.0942  0.5565 -0.4642
  381MOL0     C50193   6.185   0.391   6.743 -0.0809  0.3641  0.2056
  381MOL0     C50194   6.122   0.516   6.768  0.6087 -0.5536  0.7041
  381MOL0     O50195   5.984   0.544   6.756  0.2880 -1.1575  0.2213
  381MOL0     C50196   5.880   0.450   6.725  0.0543 -0.1775  0.0122
  381MOL0     C50197   5.762   0.547   6.716 -0.5469 -0.6847  0.0453
  381MOL0     C50198   5.633   0.469   6.696 -0.5008 -0.3282  0.3973
  381MOL0     C50199   5.518   0.568   6.705  1.0615  0.0440 -0.3962
  381MOL0     C50200   5.498   0.615   6.850  0.9501  0.1649  0.3109
  381MOL0     C50201   5.361   0.673   6.865  1.1087  0.0557  0.0860
  381MOL0     C50202   5.334   0.717   7.010 -0.0839 -0.0816  0.3670
  381MOL0     C50203   5.188   0.760   7.030  0.7794  0.9462 -0.0877
  381MOL0    Cl50204   5.075   0.618   6.998  0.3296 -0.1506 -0.1557
  381MOL0     C50205   6.196   0.616   6.824  0.5751  0.3454  0.4154
  381MOL0     C50206   6.336   0.606   6.856  0.5998 -0.0471  0.2553
  381MOL0     O50207   6.626   0.655   6.898  0.5753 -0.0899 -0.2208
  381MOL0     C50208   6.881   0.558   6.902  0.0782 -0.1548  0.4375
  381MOL0     C50209   7.018   0.513   6.898  0.3752 -0.4324  0.4557
  381MOL0     N50210   7.539   0.125   6.839 -0.4180  0.1935 -0.8395
  381MOL0     N50211   7.629   0.032   6.851  0.0286 -0.5976 -0.3243
  381MOL0     C50212   8.349   0.092   7.181 -0.2132 -0.9548 -0.2182
  381MOL0     C50213   8.459   0.182   7.175 -0.1829 -0.0149 -0.1234
  381MOL0     C50214   8.781   0.424   7.013  0.4283 -0.1755 -0.4357
  381MOL0     C50215   8.884   0.409   7.110  0.2767 -0.3258  0.2633
  381MOL0     C50216   9.005   0.484   7.110  0.1897 -0.4613  0.0491
  381MOL0     C50217   9.026   0.580   7.012  0.6888  0.3433 -0.5234
  381MOL0     O50218   9.138   0.653   6.999  0.0434  0.8637 -0.1713
  381MOL0     C50219   9.234   0.653   7.109  0.1788 -0.2556 -0.2194
  381MOL0     C50220   9.182   0.742   7.223 -0.4810  0.4882 -0.7764
  381MOL0     C50221   9.263   0.736   7.358 -0.3683 -0.2272  0.0123
  381MOL0     C50222   9.235   0.854   7.447 -0.6457  1.1099 -0.0104
  381MOL0     C50223   9.116   0.840   7.532 -0.7580  0.6200 -0.5019
  381MOL0     C50224   9.016   0.810   7.592  0.0991 -0.2923 -0.1160
  381MOL0     C50225   8.922   0.594   6.921  0.0129  0.2453 -0.5646
  381MOL0     C50226   8.807   0.515   6.912  0.1036 -0.6025  0.7204
  381MOL0     H50227   8.658  -0.034   6.987 -0.7474  1.3202 -2.1896
  381MOL0     H50228   8.481  -0.191   7.028 -0.1332  0.4043 -1.2745
  381MOL0     H50229   8.331  -0.296   7.182  0.4549 -0.5813 -1.6657
  381MOL0     H50230   8.244  -0.276   7.020  0.5606  2.0334 -0.2542
  381MOL0     H50231   8.111  -0.276   7.295 -2.4144 -0.2869  0.6540
  381MOL0     H50232   8.113  -0.417   7.191 -0.5474  0.0726 -1.9226
  381MOL0     H50233   7.961  -0.159   7.155 -0.0742  0.5009 -1.0313
  381MOL0     H50234   7.914  -0.337   7.172  0.4231  0.1460  0.9726
  381MOL0     H50235   8.028  -0.184   6.933  1.7192  0.6777  1.3473
  381MOL0     H50236   8.021  -0.363   6.943 -1.2505 -0.8139  0.2217
  381MOL0     H50237   7.778  -0.182   6.982 -0.2887  0.5157  1.0415
  381MOL0     H50238   7.755  -0.344   6.953  1.4270 -0.5201  3.8829
  381MOL0     H50239   7.707  -0.220   6.759 -0.0279 -1.9307 -1.2299
  381MOL0     H50240   7.842  -0.330   6.726 -0.5582 -0.8902  1.2756
  381MOL0     H50241   7.992  -0.151   6.713 -0.9442 -3.3087  2.0957
  381MOL0     H50242   7.854  -0.117   6.607  2.1269  1.1567 -0.6598
  381MOL0     H50243   7.937   0.089   6.717  1.2388 -1.3898 -0.2817
  381MOL0     H50244   7.910   0.025   6.868  3.2740 -1.3314 -2.5702
  381MOL0     H50245   7.750   0.225   6.619  1.7266  0.0257  2.0872
  381MOL0     H50246   7.542   0.401   6.654  2.3142 -1.0298  0.0424
  381MOL0     H50247   7.458   0.387   6.813 -1.1793 -0.0592 -0.4128
  381MOL0     H50248   7.383   0.271   6.531  1.5884  1.4457  0.5507
  381MOL0     H50249   7.293   0.398   6.620 -1.6818 -0.4884 -0.5582
  381MOL0     H50250   7.175   0.203   6.618  0.6633 -1.9945 -0.2979
  381MOL0     H50251   7.294   0.102   6.685  1.3456 -0.4732 -1.5040
  381MOL0     H50252   7.301   0.213   6.912 -0.5438  2.7036  2.7727
  381MOL0     H50253   7.150   0.149   6.857 -0.2621  0.5116 -1.2662
  381MOL0     H50254   6.951   0.199   6.777 -1.5226  0.5761 -1.5329
  381MOL0     H50255   6.725   0.278   6.778  0.6284 -0.0749  1.0049
  381MOL0     H50256   6.354   0.279   6.747 -2.8143  0.1361 -2.3499
  381MOL0     H50257   6.115   0.322   6.698  1.4433  0.5156 -2.6020
  381MOL0     H50258   5.856   0.367   6.792 -0.9786  0.3676  0.3367
  381MOL0     H50259   5.903   0.406   6.627  2.1905  2.1255 -0.6229
  381MOL0     H50260   5.785   0.612   6.632 -0.4900  1.4262  1.6011
  381MOL0     H50261   5.754   0.596   6.814  1.9040 -1.8731  0.9411
  381MOL0     H50262   5.626   0.382   6.762  2.9700 -0.6633  0.5108
  381MOL0     H50263   5.636   0.423   6.597 -0.9636  0.5992 -0.0589
  381MOL0     H50264   5.542   0.654   6.642  0.9141  1.1240  0.9821
  381MOL0     H50265   5.425   0.521   6.671  0.3509  1.0015  0.1729
  381MOL0     H50266   5.578   0.683   6.878  0.9299  0.2200  0.2348
  381MOL0     H50267   5.494   0.525   6.912  0.8253  0.4253  0.6808
  381MOL0     H50268   5.280   0.608   6.829  0.3829  0.5949  0.7131
  381MOL0     H50269   5.365   0.767   6.809 -1.3942  1.6588  2.3574
  381MOL0     H50270   5.347   0.627   7.070 -0.0382 -0.1972  0.1829
  381MOL0     H50271   5.398   0.800   7.041  0.5092 -0.3011 -0.2566
  381MOL0     H50272   5.164   0.836   6.956 -0.8026 -0.8649 -1.5099
  381MOL0     H50273   5.171   0.799   7.131  1.7408  0.7748  0.1526
  381MOL0     H50274   6.146   0.707   6.855 -1.3057 -0.4897 -0.0147
  381MOL0     H50275   6.388   0.677   6.919 -1.1712  0.0831  1.6495
  381MOL0     H50276   6.874   0.654   6.950 -1.3352 -0.3749  0.6973
  381MOL0     H50277   7.101   0.573   6.933  0.5530 -1.3637  1.6910
  381MOL0     H50278   8.259   0.129   7.228  1.1364  0.2711  1.5444
  381MOL0     H50279   8.453   0.281   7.217 -2.8246  0.0540 -0.5245
  381MOL0     H50280   8.875   0.320   7.171  2.6899  0.4777  1.9378
  381MOL0     H50281   9.086   0.461   7.178  0.0553 -1.0851  0.0079
  381MOL0     H50282   9.328   0.690   7.066 -0.8025  2.0385 -0.5434
  381MOL0     H50283   9.270   0.557   7.148  2.4150  1.6680  2.8885
  381MOL0     H50284   9.191   0.845   7.189 -0.7790  1.5282  2.0714
  381MOL0     H50285   9.079   0.708   7.237 -0.5599  0.9442 -0.2189
  381MOL0     H50286   9.367   0.748   7.326  0.6905 -1.8130  2.6329
  381MOL0     H50287   9.246   0.637   7.400  0.5734 -0.4690 -0.1560
  381MOL0     H50288   9.318   0.855   7.519 -1.2076 -1.6003  0.7884
  381MOL0     H50289   9.235   0.955   7.403  2.1776  1.8501  1.4054
  381MOL0     H50290   8.933   0.783   7.654 -1.6911  6.0681  0.9982
  381MOL0     H50291   8.927   0.674   6.848 -1.3319 -0.6204 -1.6531
  381MOL0     H50292   8.725   0.529   6.843  0.5313 -0.3321  0.2641
  382MOL0     O50293  10.824   0.259  11.208 -0.3851 -0.5111  0.3859
  382MOL0     C50294  10.846   0.202  11.316  0.9764  0.5202 -0.0264
  382MOL0     O50295  10.755   0.179  11.413 -0.7160 -1.0023 -0.4073
  382MOL0     C50296  10.641   0.259  11.396 -0.6343 -0.6692 -0.3654
  382MOL0     C50297  10.537   0.220  11.309 -0.7608 -0.6603 -0.3258
  382MOL0     C50298  10.420   0.293  11.304 -0.3142  0.2324  0.0227
  382MOL0     C50299  10.415   0.413  11.387  0.1446 -0.5474 -0.1343
  382MOL0     O50300  10.298   0.492  11.392  0.1166  0.4376  0.0778
  382MOL0     C50301  10.206   0.485  11.285 -0.0803 -0.2029 -0.2548
  382MOL0     C50302  10.119   0.617  11.292 -0.5963 -0.3692 -0.0572
  382MOL0     C50303   9.993   0.612  11.208  0.5951  0.6428  0.5074
  382MOL0     C50304  10.017   0.574  11.061 -0.4522 -0.7482  0.0173
  382MOL0     C50305   9.888   0.569  10.980 -0.0533  0.1984 -0.5080
  382MOL0     C50306   9.913   0.544  10.839  0.0852 -0.7100  0.7538
  382MOL0     C50307   9.779   0.540  10.766  0.0815  0.1538  0.1321
  382MOL0     C50308   9.731   0.393  10.755 -0.3799  0.0383 -0.2946
  382MOL0     N50309   9.786   0.323  10.635 -0.1579  0.1919  0.0961
  382MOL0     C50310   9.749   0.341  10.505  0.5472 -0.3127 -0.3702
  382MOL0     C50311   9.840   0.268  10.434  0.0629 -0.0570  0.5332
  382MOL0     C50312   9.837   0.260  10.291  0.9266  0.2073  0.7688
  382MOL0     C50313   9.721   0.165  10.260 -0.3024  0.2930 -0.2551
  382MOL0     C50314   9.705   0.166  10.101 -0.1810 -0.3569 -0.2053
  382MOL0     C50315   9.593   0.066  10.047  0.3160  0.1181 -0.0955
  382MOL0     O50316   9.477   0.065  10.129 -0.2355  0.8426  0.3082
  382MOL0     C50317   9.381  -0.017  10.083  0.6083 -0.1406 -0.3710
  382MOL0     C50318   9.265  -0.009  10.162 -0.0976  0.0177  0.3320
  382MOL0     C50319   9.156  -0.077  10.127  0.4138 -0.1040 -0.1989
  382MOL0     C50320   9.148  -0.176  10.020  0.9198 -0.7322 -0.0777
  382MOL0     C50321   9.011  -0.222   9.980 -0.2052 -0.6260 -1.0148
  382MOL0     O50322   8.898  -0.187  10.055 -0.1920 -0.1438 -0.0772
  382MOL0     C50323   8.771  -0.212  10.017  0.8773 -0.2735  0.1766
  382MOL0     C50324   8.674  -0.117  10.034  0.0474 -0.2207  0.1617
  382MOL0     C50325   8.542  -0.147   9.997 -0.4477  0.5024 -0.2952
  382MOL0     C50326   8.512  -0.273   9.944  0.2942 -0.0035  0.6825
  382MOL0     O50327   8.384  -0.309   9.907  1.1220  0.3196 -0.1208
  382MOL0     C50328   8.276  -0.217   9.941  0.5453  0.1147 -0.1360
  382MOL0     C50329   8.146  -0.296   9.947  0.1787 -0.0878  0.2550
  382MOL0     C50330   8.022  -0.229  10.005 -0.3275 -0.1508 -0.4424
  382MOL0     C50331   7.908  -0.322  10.021  0.2826 -0.9268 -0.3412
  382MOL0     C50332   7.793  -0.236  10.081  0.4169 -0.2640 -0.5018
  382MOL0     C50333   7.669  -0.326  10.100 -0.9183 -0.5552 -0.0820
  382MOL0     C50334   7.600  -0.383   9.977 -0.2775  0.5429  0.2908
  382MOL0     C50335   7.454  -0.370   9.981  0.2076 -0.1321 -0.1367
  382MOL0    Cl50336   7.383  -0.491   9.869  0.1656 -0.2994 -0.1241
  382MOL0     C50337   8.609  -0.373   9.926 -1.0797  0.8790  0.0159
  382MOL0     C50338   8.740  -0.350   9.969 -0.6030 -0.5248  0.0126
  382MOL0     O50339   9.010  -0.300   9.885 -0.4341  0.4593 -0.1755
  382MOL0     C50340   9.269  -0.187   9.940 -0.1148  0.0433  0.1319
  382MOL0     C50341   9.380  -0.111   9.977 -0.2181 -0.1553  0.0385
  382MOL0     N50342   9.930   0.210  10.522 -0.4797  0.9489 -0.6045
  382MOL0     N50343   9.896   0.241  10.634  1.1497 -0.7422  0.8527
  382MOL0     C50344  10.508   0.455  11.474 -0.0174 -0.0419  0.7298
  382MOL0     C50345  10.626   0.373  11.475  0.4880 -0.7394  0.1619
  382MOL0     C50346  10.969   0.118  11.315 -0.8148  0.0420 -0.2886
  382MOL0     C50347  10.999   0.015  11.407 -0.6330 -0.0939 -0.4534
  382MOL0     C50348  11.105  -0.072  11.381 -0.7712  0.6262 -0.6098
  382MOL0     C50349  11.199  -0.053  11.283 -0.3772 -0.5572 -0.4607
  382MOL0     O50350  11.296  -0.140  11.255  0.3930  0.9411  0.6331
  382MOL0     C50351  11.370  -0.200  11.363  0.0243 -0.6496  0.0850
  382MOL0     C50352  11.516  -0.232  11.333  0.0326 -0.4063 -0.5123
  382MOL0     C50353  11.557  -0.331  11.229  0.6227 -0.2113 -0.4274
  382MOL0     C50354  11.479  -0.317  11.099  0.0513 -0.1198  0.0195
  382MOL0     C50355  11.531  -0.400  10.987 -0.2722  0.2262 -0.5673
  382MOL0     C50356  11.570  -0.459  10.896  1.4267  0.2714  0.3832
  382MOL0     C50357  11.174   0.050  11.193 -0.1313  0.4241  0.6944
  382MOL0     C50358  11.062   0.125  11.209  0.2381 -0.6319  0.0223
  382MOL0     H50359  10.539   0.130  11.250 -1.0152  0.6937 -2.5112
  382MOL0     H50360  10.336   0.244  11.256  3.1774 -2.5597 -3.9005
  382MOL0     H50361  10.142   0.399  11.311 -0.5831  0.2089 -0.1140
  382MOL0     H50362  10.257   0.473  11.189  0.1738  1.9656 -0.4289
  382MOL0     H50363  10.178   0.701  11.252 -3.1717  0.8232 -1.5873
  382MOL0     H50364  10.095   0.643  11.396  1.1270  3.1523 -0.3770
  382MOL0     H50365   9.935   0.705  11.216  2.2047  1.8480 -1.0032
  382MOL0     H50366   9.928   0.530  11.239 -0.5559 -0.3049 -3.7472
  382MOL0     H50367  10.098   0.638  11.024 -1.1215 -0.2985 -0.7062
  382MOL0     H50368  10.057   0.473  11.050 -1.7653 -1.2883  0.0957
  382MOL0     H50369   9.835   0.664  10.993 -0.3340  0.2190 -1.7091
  382MOL0     H50370   9.823   0.492  11.021  1.0149 -0.2106  0.4806
  382MOL0     H50371   9.984   0.464  10.816  1.6844  0.9948 -0.5995
  382MOL0     H50372   9.971   0.633  10.810  1.2601 -0.8246  2.5808
  382MOL0     H50373   9.707   0.604  10.818  0.0945 -0.3224  0.7369
  382MOL0     H50374   9.792   0.584  10.666 -0.4375 -0.6102 -0.2752
  382MOL0     H50375   9.623   0.374  10.750 -0.5359  1.1722 -2.6316
  382MOL0     H50376   9.758   0.333  10.843 -2.5150  0.2851  0.6058
  382MOL0     H50377   9.670   0.401  10.463 -1.2509 -2.3369 -0.0457
  382MOL0     H50378   9.933   0.226  10.251  0.1633  0.0321 -0.9863
  382MOL0     H50379   9.821   0.361  10.252 -4.0830  0.2424  2.2131
  382MOL0     H50380   9.625   0.193  10.305 -0.1221 -1.7724  1.6285
  382MOL0     H50381   9.748   0.060  10.280 -0.8503  0.3820  1.0364
  382MOL0     H50382   9.682   0.269  10.072 -1.0133 -0.5711 -0.3385
  382MOL0     H50383   9.796   0.135  10.049 -1.5399 -2.1961 -1.6261
  382MOL0     H50384   9.634  -0.035  10.055 -1.2396 -0.4647  1.0031
  382MOL0     H50385   9.575   0.081   9.940 -0.6451 -0.9585 -0.1159
  382MOL0     H50386   9.265   0.073  10.233  2.1285 -0.1582  0.6118
  382MOL0     H50387   9.065  -0.059  10.183 -0.8219 -2.0156 -1.4555
  382MOL0     H50388   8.696  -0.016  10.066 -1.4713  0.5435 -1.0733
  382MOL0     H50389   8.466  -0.071  10.010 -1.6894 -0.6793 -0.3427
  382MOL0     H50390   8.273  -0.131   9.873  0.1378  0.3608  0.1897
  382MOL0     H50391   8.290  -0.188  10.046  0.2561  2.0157 -0.5812
  382MOL0     H50392   8.156  -0.386  10.009 -1.5820 -1.5588 -1.4600
  382MOL0     H50393   8.120  -0.331   9.847  2.1279 -2.1051  0.3696
  382MOL0     H50394   7.987  -0.146   9.943 -1.4436  0.4220  0.9175
  382MOL0     H50395   8.052  -0.195  10.104 -1.9084  0.9684 -0.3110
  382MOL0     H50396   7.878  -0.362   9.924  0.0587  0.1033 -0.7090
  382MOL0     H50397   7.929  -0.398  10.097 -3.0725 -0.6327  1.0532
  382MOL0     H50398   7.768  -0.148  10.022 -0.2416  2.8947  3.9251
  382MOL0     H50399   7.814  -0.205  10.184 -3.3464 -2.2371  1.0826
  382MOL0     H50400   7.593  -0.277  10.162 -1.3214 -0.6643 -0.4830
  382MOL0     H50401   7.707  -0.407  10.162  0.3093 -0.9328 -1.2845
  382MOL0     H50402   7.639  -0.344   9.882 -0.1964  1.0937  0.5448
  382MOL0     H50403   7.631  -0.487   9.986  3.4411  1.1602 -2.5031
  382MOL0     H50404   7.427  -0.271   9.943  1.6616  0.4626  0.3275
  382MOL0     H50405   7.411  -0.373  10.081 -1.8241 -1.0888 -0.9753
  382MOL0     H50406   8.582  -0.458   9.864 -0.9164  1.3091 -0.6658
  382MOL0     H50407   8.813  -0.429   9.958 -0.8020 -0.8364  0.8427
  382MOL0     H50408   9.265  -0.230   9.840  1.6489 -0.8491  0.3998
  382MOL0     H50409   9.464  -0.108   9.908  1.4001 -0.3278  1.9037
  382MOL0     H50410  10.494   0.547  11.529 -3.6390  0.6414 -1.0597
  382MOL0     H50411  10.708   0.404  11.539  1.7617  0.3363 -1.9025
  382MOL0     H50412  10.932   0.008  11.491  1.5176 -0.5746  1.3129
  382MOL0     H50413  11.126  -0.149  11.455  1.1290  3.5836  2.1920
  382MOL0     H50414  11.320  -0.291  11.397  0.5090 -0.6833  0.7365
  382MOL0     H50415  11.369  -0.131  11.447 -0.9885 -1.8047  1.0654
  382MOL0     H50416  11.554  -0.132  11.308  0.7101  0.0583  2.0253
  382MOL0     H50417  11.564  -0.259  11.428  1.0129 -0.1855 -0.9316
  382MOL0     H50418  11.545  -0.432  11.270 -1.6927  0.3554  0.4139
  382MOL0     H50419  11.665  -0.322  11.215  0.6366 -0.0600 -0.2267
  382MOL0     H50420  11.374  -0.339  11.124 -0.3493 -1.2164 -2.3496
  382MOL0     H50421  11.488  -0.213  11.069 -1.9205  0.7193  1.9823
  382MOL0     H50422  11.595  -0.519  10.810 -3.7367 -0.4355 -0.9400
  382MOL0     H50423  11.230   0.065  11.101  2.4013  1.1643  2.2379
  382MOL0     H50424  11.044   0.209  11.143  0.2611 -1.0990 -0.5908
  383MOL0     O50425   3.417   3.888   9.200 -0.1712 -1.2403  0.4009
  383MOL0     C50426   3.481   3.873   9.100  0.0445  0.3459  0.1994
  383MOL0     O50427   3.590   3.942   9.060 -0.8593  0.4225  0.4325
  383MOL0     C50428   3.661   4.015   9.153  0.7971  0.1482  1.2547
  383MOL0     C50429   3.626   4.150   9.160  0.4255 -0.0564  0.2223
  383MOL0     C50430   3.695   4.226   9.257  0.1770 -0.3910 -0.1019
  383MOL0     C50431   3.800   4.176   9.336 -0.2988 -1.0363 -1.1220
  383MOL0     O50432   3.845   4.260   9.435 -0.3484 -0.0358 -0.4609
  383MOL0     C50433   3.917   4.217   9.552 -0.5665 -0.7378 -0.0270
  383MOL0     C50434   3.912   4.323   9.651 -0.7833 -0.4723 -1.1516
  383MOL0     C50435   4.035   4.416   9.628  0.0533 -0.0756  0.0001
  383MOL0     C50436   4.052   4.535   9.723  0.1251 -0.3066 -0.2998
  383MOL0     C50437   4.145   4.640   9.666  0.9245 -0.2508 -0.3779
  383MOL0     C50438   4.158   4.761   9.762  0.7104  0.4729 -0.4503
  383MOL0     C50439   4.128   4.902   9.699 -0.6198  0.1556 -0.2222
  383MOL0     C50440   4.162   5.022   9.793  0.3640  0.5176  0.8082
  383MOL0     N50441   4.074   5.006   9.911  0.0601 -0.6287  0.5753
  383MOL0     C50442   3.952   5.076   9.922 -0.2119  1.0152 -0.8785
  383MOL0     C50443   3.934   5.096  10.057 -0.7369 -1.2129 -0.2629
  383MOL0     C50444   3.834   5.183  10.125 -0.2064 -0.0076  0.3359
  383MOL0     C50445   3.688   5.149  10.081  0.3117 -0.4563 -0.9000
  383MOL0     C50446   3.608   5.122  10.214  0.7746  0.4606  0.0755
  383MOL0     C50447   3.469   5.083  10.171 -0.8659  0.5991  0.3480
  383MOL0     O50448   3.397   5.208  10.143 -0.1008  0.2271 -0.3940
  383MOL0     C50449   3.269   5.193  10.110 -0.1575  0.3555  0.0573
  383MOL0     C50450   3.206   5.080  10.060  0.0517 -0.0164 -1.1039
  383MOL0     C50451   3.069   5.085  10.028 -0.5874 -0.6593  0.5463
  383MOL0     C50452   2.991   5.201  10.038 -0.3268  0.4915  0.2073
  383MOL0     C50453   2.859   5.207   9.985 -0.5847  0.1586 -0.0788
  383MOL0     O50454   2.806   5.091   9.926  0.2573 -0.3917 -0.3949
  383MOL0     C50455   2.671   5.091   9.904  0.5240 -0.5050 -0.4280
  383MOL0     C50456   2.568   5.169   9.963  0.1239 -0.1326 -0.2644
  383MOL0     C50457   2.431   5.170   9.910  0.0714  0.7799 -0.7769
  383MOL0     C50458   2.399   5.079   9.799 -0.6680  0.4493  0.1100
  383MOL0     O50459   2.266   5.068   9.749  0.4524  0.4897 -0.1483
  383MOL0     C50460   2.223   4.956   9.675  0.2043  0.3392  0.4226
  383MOL0     C50461   2.074   4.984   9.648 -0.5719  0.6007 -0.2286
  383MOL0     C50462   2.008   4.902   9.533 -0.5831  0.1177  0.2097
  383MOL0     C50463   1.882   4.979   9.487  0.0701 -0.1531  0.2627
  383MOL0     C50464   1.822   4.901   9.373 -0.1585 -0.6218  0.4385
  383MOL0     C50465   1.905   4.906   9.247  0.0653  0.4279  0.0890
  383MOL0     C50466   1.813   4.883   9.121  0.4116  0.0391  0.1721
  383MOL0     C50467   1.910   4.885   8.999  0.7448  0.4517  0.6744
  383MOL0    Cl50468   1.983   5.054   8.966  0.2247  0.1864  0.0578
  383MOL0     C50469   2.502   4.989   9.756 -0.0392 -0.8919 -1.0348
  383MOL0     C50470   2.625   4.999   9.816 -0.3852 -0.1962  0.7010
  383MOL0     O50471   2.801   5.313   9.990  0.1287 -0.1282  0.0514
  383MOL0     C50472   3.061   5.318  10.088 -0.0093  0.2374 -0.0345
  383MOL0     C50473   3.190   5.311  10.125  0.1729  0.5639  0.7235
  383MOL0     N50474   4.040   5.033  10.113  0.1836 -0.0826  0.1897
  383MOL0     N50475   4.115   4.979  10.034 -0.5585 -0.0890  0.2356
  383MOL0     C50476   3.833   4.038   9.317  0.3755 -0.4075 -0.7067
  383MOL0     C50477   3.764   3.953   9.225  0.0044  0.2002 -0.0850
  383MOL0     C50478   3.420   3.788   9.002  0.4285 -0.1969  0.1274
  383MOL0     C50479   3.487   3.771   8.878  0.4654 -0.4516 -0.3248
  383MOL0     C50480   3.443   3.683   8.781  0.0692  0.2470  0.1424
  383MOL0     C50481   3.325   3.611   8.800 -0.2122  0.4200 -0.0886
  383MOL0     O50482   3.295   3.532   8.699  0.4290 -0.4079 -0.1403
  383MOL0     C50483   3.158   3.481   8.684  0.5690 -0.2848 -0.2541
  383MOL0     C50484   3.120   3.462   8.531 -0.4102 -0.2596 -0.0526
  383MOL0     C50485   2.977   3.435   8.527 -0.1726  0.6325 -0.5643
  383MOL0     C50486   2.917   3.439   8.384  0.3012 -0.2306  0.7914
  383MOL0     C50487   2.773   3.465   8.391  0.1215 -0.0524 -0.0518
  383MOL0     C50488   2.653   3.497   8.380 -0.0481  1.0096 -0.7979
  383MOL0     C50489   3.256   3.624   8.927 -0.2445 -0.1426  0.0129
  383MOL0     C50490   3.301   3.713   9.020 -0.6424  0.5677  0.2310
  383MOL0     H50491   3.553   4.200   9.097  0.7775  0.7240  0.4231
  383MOL0     H50492   3.679   4.333   9.253 -1.4265 -0.6339 -2.1444
  383MOL0     H50493   4.017   4.181   9.527 -0.9141 -0.2562 -2.4120
  383MOL0     H50494   3.862   4.140   9.608 -0.7461 -0.6648 -0.1001
  383MOL0     H50495   3.925   4.279   9.751 -1.5590  2.3101  0.2815
  383MOL0     H50496   3.815   4.373   9.658 -0.8432 -0.5169 -1.6642
  383MOL0     H50497   4.027   4.444   9.523 -6.8452  0.7010  0.2771
  383MOL0     H50498   4.121   4.353   9.652 -0.7001 -1.1487 -0.0246
  383MOL0     H50499   3.954   4.583   9.718 -0.3457 -0.9346  1.7790
  383MOL0     H50500   4.071   4.497   9.824 -0.5593 -1.1882 -0.4932
  383MOL0     H50501   4.105   4.681   9.572  1.1365 -1.6955 -1.1253
  383MOL0     H50502   4.246   4.599   9.655  1.4497  0.1802  2.2470
  383MOL0     H50503   4.265   4.767   9.787  1.4911  0.9296 -3.5046
  383MOL0     H50504   4.087   4.741   9.842 -1.0856 -1.1970 -2.3661
  383MOL0     H50505   4.172   4.917   9.600 -0.1020  0.0612 -0.0098
  383MOL0     H50506   4.019   4.896   9.693 -0.5508 -0.6272 -0.9030
  383MOL0     H50507   4.149   5.119   9.745  0.2735  0.5325  0.8628
  383MOL0     H50508   4.268   5.022   9.818  0.6871  2.2870 -0.4148
  383MOL0     H50509   3.889   5.100   9.837  0.7236 -0.8963 -2.1798
  383MOL0     H50510   3.856   5.284  10.088 -0.1784 -1.5293 -4.3976
  383MOL0     H50511   3.841   5.180  10.235 -0.7985 -0.3139  0.3678
  383MOL0     H50512   3.696   5.064  10.012  0.7864 -0.9791 -0.2183
  383MOL0     H50513   3.648   5.238  10.032 -0.0633 -0.9747 -1.5562
  383MOL0     H50514   3.657   5.045  10.274  3.7398  0.4394 -2.1645
  383MOL0     H50515   3.612   5.214  10.273  0.6546  0.0629  0.7147
  383MOL0     H50516   3.409   5.027  10.243  0.1962 -1.0758 -0.0054
  383MOL0     H50517   3.475   5.022  10.080  0.9318  0.8205  0.2903
  383MOL0     H50518   3.259   4.985  10.054  2.3796  1.2460 -1.6997
  383MOL0     H50519   3.035   4.987   9.997 -1.4034 -0.7689  1.7327
  383MOL0     H50520   2.592   5.229  10.050 -0.9975  0.3841 -0.2914
  383MOL0     H50521   2.349   5.219   9.962  0.4341  0.3530  0.2214
  383MOL0     H50522   2.242   4.869   9.738 -1.2767  0.3704  0.9713
  383MOL0     H50523   2.279   4.939   9.583  0.4326 -2.4361  1.0013
  383MOL0     H50524   2.052   5.090   9.628 -1.1583 -0.0771 -3.9061
  383MOL0     H50525   2.025   4.964   9.744  0.0581 -0.2385 -0.0799
  383MOL0     H50526   1.980   4.800   9.563  0.9973 -0.8230 -1.2925
  383MOL0     H50527   2.079   4.906   9.450 -0.3138 -1.0352  0.3609
  383MOL0     H50528   1.813   4.977   9.572 -0.2216 -0.5380  0.0199
  383MOL0     H50529   1.907   5.083   9.463  3.0818 -0.8101  0.1181
  383MOL0     H50530   1.717   4.922   9.352  0.5707  1.6731 -1.3297
  383MOL0     H50531   1.808   4.797   9.404 -1.2210 -0.9683 -1.0926
  383MOL0     H50532   1.988   4.836   9.251  0.0931  0.4952  2.9501
  383MOL0     H50533   1.952   5.004   9.236  2.7967 -0.8435 -0.1492
  383MOL0     H50534   1.757   4.790   9.130  0.8523 -0.0213  3.3574
  383MOL0     H50535   1.736   4.958   9.100  0.7217  0.5410  0.7858
  383MOL0     H50536   1.859   4.847   8.909  1.9456  0.1096  0.1160
  383MOL0     H50537   1.981   4.803   9.011 -0.8159 -0.9169  0.9450
  383MOL0     H50538   2.491   4.914   9.678  2.3521 -3.3609  0.8153
  383MOL0     H50539   2.696   4.924   9.781 -1.1851  0.0344 -1.6323
  383MOL0     H50540   3.004   5.410  10.102 -0.2862  0.4309 -2.1176
  383MOL0     H50541   3.245   5.391  10.174  2.4794  1.4226 -2.8565
  383MOL0     H50542   3.906   3.992   9.382  1.9185  0.4786 -1.7585
  383MOL0     H50543   3.779   3.846   9.217 -4.7301 -0.8617  1.5726
  383MOL0     H50544   3.565   3.840   8.851 -2.3675  3.2064  0.0336
  383MOL0     H50545   3.487   3.677   8.682 -2.0303 -0.0943 -0.8397
  383MOL0     H50546   3.076   3.545   8.719  0.1620 -1.9418  2.0641
  383MOL0     H50547   3.141   3.390   8.742  2.1318 -1.0209 -0.9206
  383MOL0     H50548   3.145   3.553   8.475 -0.8288 -2.0365 -3.3312
  383MOL0     H50549   3.176   3.381   8.484  1.9673  0.3915  1.4436
  383MOL0     H50550   2.920   3.505   8.589 -2.9182 -0.7433 -1.4034
  383MOL0     H50551   2.964   3.337   8.573  0.3684  1.5841  1.7545
  383MOL0     H50552   2.968   3.520   8.331 -0.1307 -0.0545  0.6503
  383MOL0     H50553   2.937   3.342   8.336 -1.3634 -0.5692  0.7413
  383MOL0     H50554   2.549   3.522   8.384 -0.6545 -1.0267 -2.0792
  383MOL0     H50555   3.165   3.571   8.955  1.0972 -1.8828  1.3559
  383MOL0     H50556   3.250   3.723   9.115  3.0253 -1.6182  2.7095
  384MOL0     O50557   2.844   8.295  10.105 -0.3363 -0.4570  0.2868
  384MOL0     C50558   2.859   8.178  10.072 -0.1202 -0.4423 -0.6529
  384MOL0     O50559   2.761   8.093  10.026  1.0028 -0.8880 -0.2234
  384MOL0     C50560   2.619   8.115  10.032 -0.4007  0.2847  0.1075
  384MOL0     C50561   2.537   8.016   9.982 -0.3350  0.4805  0.2565
  384MOL0     C50562   2.396   8.023   9.974  0.3862 -0.7064 -0.6733
  384MOL0     C50563   2.329   8.149  10.000 -0.7783 -0.4146 -0.1580
  384MOL0     O50564   2.199   8.177  10.004 -0.8165 -0.4895  0.0984
  384MOL0     C50565   2.103   8.071  10.011  0.8164  0.3881  0.4157
  384MOL0     C50566   2.069   8.026   9.871 -0.1510  0.3280  0.9815
  384MOL0     C50567   1.926   7.988   9.846  0.1832  0.9358 -0.1509
  384MOL0     C50568   1.914   7.960   9.701 -0.8246  0.2325  0.5646
  384MOL0     C50569   1.780   7.913   9.648  0.8690 -0.4001  0.2296
  384MOL0     C50570   1.669   8.018   9.659  0.4594 -1.0089 -0.4467
  384MOL0     C50571   1.529   7.963   9.618  0.3872  0.0126  0.1482
  384MOL0     C50572   1.514   7.902   9.482 -0.4585 -0.7518 -0.1403
  384MOL0     N50573   1.378   7.847   9.468  0.6661  0.2560 -0.1193
  384MOL0     C50574   1.274   7.921   9.426 -0.8083  0.0166  0.6055
  384MOL0     C50575   1.176   7.830   9.425  0.6697  0.3819 -0.1303
  384MOL0     C50576   1.034   7.856   9.369 -0.3399 -0.6905  0.1804
  384MOL0     C50577   0.928   7.766   9.438  0.4417  0.5172  0.2932
  384MOL0     C50578   0.786   7.832   9.425  0.4811  0.3126  0.0399
  384MOL0     C50579   0.672   7.751   9.499 -0.0437  0.2441 -0.0267
  384MOL0     O50580   0.675   7.794   9.637  0.0185 -0.2593  1.4538
  384MOL0     C50581   0.564   7.778   9.712  0.3762 -0.0697 -0.1171
  384MOL0     C50582   0.439   7.723   9.677  0.4811 -0.6649 -0.3153
  384MOL0     C50583   0.334   7.709   9.766  0.3354  0.3761 -0.9474
  384MOL0     C50584   0.348   7.749   9.901 -1.2864  0.1921 -0.2226
  384MOL0     C50585   0.244   7.766   9.997 -0.3698 -0.1819  0.2288
  384MOL0     O50586   0.115   7.755   9.939 -0.2268 -0.3481  0.4797
  384MOL0     C50587   0.017   7.736  10.029  0.3744 -0.3405  0.0555
  384MOL0     C50588   0.025   7.660  10.143  0.2311  0.2550  0.3752
  384MOL0     C50589  -0.085   7.638  10.222  0.0051  0.0470  0.8447
  384MOL0     C50590  -0.214   7.684  10.183  0.6249  0.0730 -0.5137
  384MOL0     O50591  -0.324   7.652  10.263  0.0642 -0.5433 -0.8305
  384MOL0     C50592  -0.425   7.574  10.197 -0.2261 -0.1290 -0.6084
  384MOL0     C50593  -0.512   7.504  10.298 -0.1556  0.0650 -0.3514
  384MOL0     C50594  -0.641   7.463  10.243  1.2206 -0.0256 -0.1825
  384MOL0     C50595  -0.727   7.377  10.345 -1.3128 -0.2106 -0.6460
  384MOL0     C50596  -0.860   7.338  10.275  0.0274 -0.2557 -0.6198
  384MOL0     C50597  -0.946   7.248  10.364  0.3774 -0.1428  0.3659
  384MOL0     C50598  -1.080   7.219  10.296 -0.0473 -0.2533  0.0160
  384MOL0     C50599  -1.151   7.101  10.350 -0.3410 -1.0393 -0.8200
  384MOL0    Cl50600  -1.286   7.053  10.240 -0.2789  0.2490 -0.3022
  384MOL0     C50601  -0.232   7.751  10.063 -0.2575 -0.7018 -0.0721
  384MOL0     C50602  -0.113   7.785   9.991  0.5884  0.5012  0.4806
  384MOL0     O50603   0.271   7.815  10.106  0.2040 -0.2644  0.7011
  384MOL0     C50604   0.478   7.801   9.936  0.8186  0.1257  0.0987
  384MOL0     C50605   0.581   7.816   9.841  0.4436  0.3146 -0.0280
  384MOL0     N50606   1.218   7.707   9.467  0.6055  0.7942  0.2809
  384MOL0     N50607   1.340   7.716   9.499 -1.1295 -0.9821 -0.3388
  384MOL0     C50608   2.416   8.255  10.039 -0.3633  0.2920  0.3455
  384MOL0     C50609   2.550   8.233  10.057  0.5210 -0.4007  0.6324
  384MOL0     C50610   3.001   8.146  10.061  0.2350 -0.6575  0.4165
  384MOL0     C50611   3.105   8.225  10.119  0.8468  0.2574 -0.3235
  384MOL0     C50612   3.238   8.204  10.086  0.2996  0.1507 -0.3404
  384MOL0     C50613   3.272   8.095  10.002 -0.5799  0.0536 -0.0574
  384MOL0     O50614   3.408   8.074   9.965 -0.5895 -0.3825  0.8516
  384MOL0     C50615   3.504   8.169  10.019  0.0378  0.1089  0.4186
  384MOL0     C50616   3.641   8.132   9.965  0.4184 -0.7014  0.4070
  384MOL0     C50617   3.743   8.230  10.034 -0.2252  0.6681 -0.2223
  384MOL0     C50618   3.888   8.189   9.998 -0.1094  1.1450  0.1421
  384MOL0     C50619   3.937   8.067  10.064 -0.3089 -0.1708  0.7164
  384MOL0     C50620   3.968   7.965  10.125 -0.0711  0.2537 -0.3392
  384MOL0     C50621   3.170   8.006   9.954  0.2377  0.0583  0.3364
  384MOL0     C50622   3.036   8.037   9.982 -0.1299 -0.3873  0.3843
  384MOL0     H50623   2.585   7.921   9.958 -6.0716 -2.7103 -0.4166
  384MOL0     H50624   2.330   7.944   9.939  0.5302 -0.4994 -1.4382
  384MOL0     H50625   2.004   8.098  10.051  0.1246  0.7057 -1.4233
  384MOL0     H50626   2.135   7.983  10.067  0.4414 -0.9289 -1.3581
  384MOL0     H50627   2.135   7.948   9.832  0.0895  2.0429 -2.4253
  384MOL0     H50628   2.093   8.103   9.797 -0.1261 -0.1307  0.5034
  384MOL0     H50629   1.856   8.066   9.877  0.1776  0.1723  1.8556
  384MOL0     H50630   1.901   7.895   9.897  1.6367 -0.5526 -1.9998
  384MOL0     H50631   1.943   8.046   9.641 -0.5767 -0.8615 -0.9415
  384MOL0     H50632   1.982   7.879   9.672 -1.3791 -0.5742  1.4348
  384MOL0     H50633   1.756   7.822   9.703  1.0644 -0.5390  0.0867
  384MOL0     H50634   1.783   7.879   9.544  1.2106 -0.6954  0.3361
  384MOL0     H50635   1.695   8.107   9.602  1.9848  0.0660  1.7979
  384MOL0     H50636   1.661   8.060   9.760  0.1580 -1.7021 -0.1717
  384MOL0     H50637   1.499   7.884   9.688  0.4347 -0.1749 -0.0441
  384MOL0     H50638   1.455   8.044   9.619 -2.0878 -2.1169 -0.7926
  384MOL0     H50639   1.591   7.825   9.472  2.3910  1.7355  0.9492
  384MOL0     H50640   1.538   7.978   9.407  0.3020 -2.1345 -1.3490
  384MOL0     H50641   1.251   8.025   9.405 -1.7116 -0.5723 -1.6629
  384MOL0     H50642   1.056   7.835   9.264  0.9190 -0.6643  0.4253
  384MOL0     H50643   0.998   7.959   9.371  0.0904 -0.5381  0.1644
  384MOL0     H50644   0.950   7.751   9.544  1.2328  1.8487  0.3348
  384MOL0     H50645   0.923   7.667   9.391 -0.4851  1.1200 -0.9318
  384MOL0     H50646   0.799   7.934   9.463  2.8395 -0.6400  2.0826
  384MOL0     H50647   0.758   7.846   9.321 -0.0832 -1.2364 -0.0440
  384MOL0     H50648   0.690   7.643   9.487 -2.4144  0.0813 -3.4164
  384MOL0     H50649   0.577   7.766   9.449 -0.1499 -0.5195 -0.0782
  384MOL0     H50650   0.408   7.683   9.581 -0.3718 -2.0112  0.4804
  384MOL0     H50651   0.243   7.663   9.729 -0.2507 -0.5131  1.3952
  384MOL0     H50652   0.113   7.609  10.184 -2.1551 -3.2538  1.6345
  384MOL0     H50653  -0.085   7.579  10.314 -0.6733  2.0460  2.2021
  384MOL0     H50654  -0.377   7.504  10.128  1.7262  2.6581 -2.3292
  384MOL0     H50655  -0.487   7.642  10.137  0.0956  0.6701 -0.0581
  384MOL0     H50656  -0.537   7.577  10.375 -0.5388 -1.2045  0.7760
  384MOL0     H50657  -0.459   7.419  10.343 -0.3510  0.3399  0.4125
  384MOL0     H50658  -0.617   7.406  10.153 -0.8822 -0.2307 -0.6589
  384MOL0     H50659  -0.704   7.547  10.213  0.3453 -0.1853  1.1062
  384MOL0     H50660  -0.676   7.286  10.378 -1.3301  0.7031  2.1798
  384MOL0     H50661  -0.751   7.442  10.430 -0.4101 -1.0811  0.3022
  384MOL0     H50662  -0.850   7.293  10.176  0.4405 -1.0759 -0.2149
  384MOL0     H50663  -0.914   7.430  10.252  0.2434  0.3372  1.1294
  384MOL0     H50664  -0.953   7.294  10.462  0.9504  2.4247 -0.7174
  384MOL0     H50665  -0.888   7.155  10.372  3.7286  1.7502  0.1219
  384MOL0     H50666  -1.143   7.309  10.302  1.0619  0.5384  0.1892
  384MOL0     H50667  -1.057   7.199  10.191  3.8946  0.9726  0.5081
  384MOL0     H50668  -1.206   7.143  10.435 -2.2925  1.0219 -2.9317
  384MOL0     H50669  -1.087   7.016  10.375 -0.0139 -1.4059 -2.7397
  384MOL0     H50670  -0.330   7.780  10.026  0.3289  0.1528 -1.0264
  384MOL0     H50671  -0.139   7.835   9.898  0.8630 -0.8132 -0.3318
  384MOL0     H50672   0.495   7.837  10.037 -0.4381 -1.6469  1.0124
  384MOL0     H50673   0.685   7.841   9.860  1.7318 -0.7778 -4.4764
  384MOL0     H50674   2.369   8.352  10.052 -0.7825  0.4303 -1.7485
  384MOL0     H50675   2.604   8.323  10.084 -1.9845  0.9655  1.5109
  384MOL0     H50676   3.084   8.316  10.174 -0.9611 -0.4779  0.2754
  384MOL0     H50677   3.315   8.255  10.144  2.1377 -1.6278 -1.0940
  384MOL0     H50678   3.513   8.136  10.123  2.0970 -3.7260 -0.7908
  384MOL0     H50679   3.470   8.272  10.002  1.7091  0.2360 -3.1229
  384MOL0     H50680   3.661   8.029   9.995 -0.7946 -0.5062  2.0472
  384MOL0     H50681   3.647   8.139   9.856  0.9319 -4.6626  0.0509
  384MOL0     H50682   3.736   8.222  10.143  1.4806 -3.5971 -0.2554
  384MOL0     H50683   3.730   8.328   9.987  0.3666  0.6010 -0.5197
  384MOL0     H50684   3.892   8.188   9.889 -0.6925  2.5378  0.0930
  384MOL0     H50685   3.953   8.264  10.043 -0.2108 -0.6107  3.5808
  384MOL0     H50686   3.987   7.885  10.194 -2.6518  1.3835  1.8530
  384MOL0     H50687   3.194   7.923   9.887 -1.3589 -0.8357  0.8125
  384MOL0     H50688   2.951   7.989   9.935 -0.9661  2.1020 -0.8057
  385MOL0     O50689   9.129   7.555   9.275 -0.3079 -0.3044 -0.4384
  385MOL0     C50690   9.153   7.600   9.165 -0.0322  0.0195  0.6115
  385MOL0     O50691   9.060   7.661   9.084 -0.6525 -0.0218  0.1440
  385MOL0     C50692   8.933   7.610   9.086 -0.0658  0.5666 -0.5452
  385MOL0     C50693   8.818   7.685   9.077  0.5666 -0.3793 -1.1008
  385MOL0     C50694   8.689   7.647   9.083  0.9113 -0.0650 -0.2901
  385MOL0     C50695   8.662   7.506   9.085  0.9321  0.2032 -0.3233
  385MOL0     O50696   8.536   7.442   9.090 -0.1371 -1.1697 -0.0670
  385MOL0     C50697   8.429   7.532   9.120 -0.0438  0.1147  0.1788
  385MOL0     C50698   8.316   7.436   9.157 -0.1674  0.2945  0.7535
  385MOL0     C50699   8.184   7.507   9.205 -0.2243  0.2436 -0.6469
  385MOL0     C50700   8.065   7.404   9.214 -0.5337 -0.8241 -0.4771
  385MOL0     C50701   7.947   7.460   9.296  0.5792 -0.2499  0.4060
  385MOL0     C50702   7.877   7.336   9.352  0.6423 -0.4580 -0.0352
  385MOL0     C50703   7.724   7.379   9.369 -0.4471  1.3670 -0.1832
  385MOL0     C50704   7.641   7.288   9.467 -0.1611 -0.6991 -0.4725
  385MOL0     N50705   7.604   7.160   9.401 -0.1818  0.0139  0.1636
  385MOL0     C50706   7.483   7.126   9.344 -0.2157  0.1086 -0.3823
  385MOL0     C50707   7.500   7.009   9.279  0.9231  0.1115 -0.7205
  385MOL0     C50708   7.402   6.916   9.204 -0.2686 -0.4847 -0.2276
  385MOL0     C50709   7.365   6.799   9.297 -0.0573  0.1659  0.0017
  385MOL0     C50710   7.277   6.849   9.414  0.3966 -0.0125  0.4069
  385MOL0     C50711   7.141   6.900   9.375 -0.0332 -0.3295  0.0912
  385MOL0     O50712   7.066   6.812   9.297  0.2900 -0.8086  0.6339
  385MOL0     C50713   6.936   6.852   9.267 -1.0369 -1.2523 -0.5316
  385MOL0     C50714   6.857   6.767   9.186 -1.5085 -0.4299 -0.5976
  385MOL0     C50715   6.731   6.801   9.135 -0.2226 -0.0523 -0.1922
  385MOL0     C50716   6.666   6.917   9.178  0.3923  0.0097  1.1966
  385MOL0     C50717   6.530   6.954   9.133 -1.2607 -1.0440 -0.2564
  385MOL0     O50718   6.481   7.079   9.163 -0.6544  0.3791  0.3168
  385MOL0     C50719   6.354   7.124   9.117 -1.2583 -0.1074  0.0669
  385MOL0     C50720   6.311   7.224   9.201 -0.2300  0.3098 -0.1781
  385MOL0     C50721   6.198   7.300   9.167  0.8207 -0.2099  0.3709
  385MOL0     C50722   6.124   7.255   9.053 -0.8043 -0.4475  0.1816
  385MOL0     O50723   5.990   7.293   9.024 -0.4748  0.2190 -0.2666
  385MOL0     C50724   5.950   7.417   9.076 -0.1728 -0.4099  0.3047
  385MOL0     C50725   5.897   7.420   9.218  0.8833  0.7498 -0.5654
  385MOL0     C50726   5.744   7.379   9.232 -1.8693  0.1723  0.2542
  385MOL0     C50727   5.722   7.367   9.392  0.4799  0.5027  0.2597
  385MOL0     C50728   5.592   7.307   9.429  0.1749 -0.3123 -0.5717
  385MOL0     C50729   5.475   7.382   9.374 -0.2625 -0.9504 -0.5826
  385MOL0     C50730   5.346   7.314   9.410  0.9380 -0.1803  0.6436
  385MOL0     C50731   5.332   7.180   9.350  0.2219  0.2773  0.2684
  385MOL0    Cl50732   5.161   7.126   9.349 -0.2067 -0.0287 -0.5284
  385MOL0     C50733   6.182   7.172   8.959 -0.4468 -0.2537  0.2232
  385MOL0     C50734   6.293   7.101   8.992 -0.6631  0.1130 -0.5701
  385MOL0     O50735   6.472   6.877   9.062  0.2693  0.7687 -0.2494
  385MOL0     C50736   6.738   7.000   9.260 -0.8025 -0.1410  0.1912
  385MOL0     C50737   6.869   6.971   9.309 -0.5501  1.2339 -0.6354
  385MOL0     N50738   7.630   6.981   9.300 -0.6349  0.3055  0.3780
  385MOL0     N50739   7.695   7.062   9.380 -0.4372  0.0399  0.9720
  385MOL0     C50740   8.769   7.422   9.100  0.2573  0.1206  0.1211
  385MOL0     C50741   8.904   7.471   9.095 -0.3365 -0.0102  0.9799
  385MOL0     C50742   9.296   7.606   9.121  0.8638 -0.6290 -0.3639
  385MOL0     C50743   9.325   7.688   9.011 -0.3297  0.4433 -0.6884
  385MOL0     C50744   9.452   7.703   8.971  0.7906 -0.8204 -0.5632
  385MOL0     C50745   9.559   7.634   9.033  0.1907 -0.6421  0.3450
  385MOL0     O50746   9.683   7.640   8.986 -0.6741 -0.3345  0.7221
  385MOL0     C50747   9.725   7.744   8.882 -0.5151  0.2610  0.3423
  385MOL0     C50748   9.878   7.722   8.876  0.9130 -0.1554  0.2595
  385MOL0     C50749   9.950   7.842   8.810 -0.3803 -0.9289 -0.1497
  385MOL0     C50750  10.092   7.807   8.773  0.1814 -0.7115 -0.0265
  385MOL0     C50751  10.165   7.924   8.726  0.2706  0.6676  1.9353
  385MOL0     C50752  10.221   8.027   8.701  0.0014 -0.8878  0.5248
  385MOL0     C50753   9.533   7.555   9.143 -0.2007  0.0455  0.1359
  385MOL0     C50754   9.401   7.538   9.184  0.3388  0.2940 -0.2039
  385MOL0     H50755   8.837   7.790   9.055 -1.1368  0.4275  0.8965
  385MOL0     H50756   8.618   7.725   9.058 -0.3623 -0.5285  1.6851
  385MOL0     H50757   8.395   7.588   9.032  0.6477  0.4083  0.0848
  385MOL0     H50758   8.447   7.599   9.204  2.1101 -1.5943  1.2195
  385MOL0     H50759   8.357   7.379   9.241  1.3922  1.2531  0.6758
  385MOL0     H50760   8.298   7.371   9.071  2.3719  1.2512 -0.5761
  385MOL0     H50761   8.157   7.586   9.134  0.1510 -0.5907 -1.7580
  385MOL0     H50762   8.209   7.558   9.298 -1.0059 -0.1192 -0.2284
  385MOL0     H50763   8.036   7.372   9.113 -2.4729  1.9495 -0.9165
  385MOL0     H50764   8.115   7.318   9.259 -1.7222 -2.2070 -1.6894
  385MOL0     H50765   7.879   7.510   9.227  1.0962 -1.6513 -1.1916
  385MOL0     H50766   7.966   7.538   9.370 -0.1819  1.4961 -1.1630
  385MOL0     H50767   7.924   7.302   9.445 -2.1168 -1.4096  1.0962
  385MOL0     H50768   7.878   7.250   9.286 -0.4828 -0.9910  0.6150
  385MOL0     H50769   7.726   7.470   9.429 -0.7586  1.4042 -0.2268
  385MOL0     H50770   7.666   7.394   9.277 -2.4022  0.3462  0.8099
  385MOL0     H50771   7.549   7.343   9.488 -0.0535 -1.0218  0.9402
  385MOL0     H50772   7.687   7.262   9.563 -1.8300 -4.2179 -0.4491
  385MOL0     H50773   7.392   7.182   9.357  1.5297  3.1159 -0.3176
  385MOL0     H50774   7.447   6.888   9.109 -3.1040  1.3072 -2.2620
  385MOL0     H50775   7.317   6.977   9.173 -0.4736 -1.0699 -0.8491
  385MOL0     H50776   7.459   6.765   9.342  0.6805 -0.7630 -2.0887
  385MOL0     H50777   7.332   6.712   9.240 -1.2843  0.2861  0.5003
  385MOL0     H50778   7.271   6.768   9.487  0.7945 -0.4359 -0.0145
  385MOL0     H50779   7.328   6.931   9.465 -2.0968  0.6206  2.0660
  385MOL0     H50780   7.146   6.992   9.317 -0.9712 -0.6595 -0.5381
  385MOL0     H50781   7.094   6.926   9.471  1.8118  0.5099  0.8241
  385MOL0     H50782   6.911   6.682   9.146  1.3777  1.0331 -0.0515
  385MOL0     H50783   6.686   6.730   9.066  0.5498 -2.0478  1.2464
  385MOL0     H50784   6.368   7.229   9.293 -1.1243 -0.1391  0.4173
  385MOL0     H50785   6.161   7.365   9.246 -2.2537 -0.0576 -1.0812
  385MOL0     H50786   5.873   7.462   9.012 -0.4160 -0.1733  0.7514
  385MOL0     H50787   6.035   7.484   9.064 -0.1795 -0.6130 -0.9690
  385MOL0     H50788   5.919   7.517   9.263  2.0255  0.0793  0.3881
  385MOL0     H50789   5.963   7.345   9.263  0.3464 -1.4630 -3.1869
  385MOL0     H50790   5.723   7.286   9.179  1.9114 -0.0909 -1.0965
  385MOL0     H50791   5.701   7.471   9.191  1.4660  2.2123  0.9421
  385MOL0     H50792   5.797   7.305   9.442 -2.8089 -2.3352  2.1086
  385MOL0     H50793   5.725   7.471   9.425  2.1749  1.3038 -2.1721
  385MOL0     H50794   5.586   7.299   9.538  1.6458 -1.9567 -0.5516
  385MOL0     H50795   5.588   7.207   9.385 -0.2530 -0.9032  0.7506
  385MOL0     H50796   5.487   7.396   9.266  2.0917 -0.5788 -0.3323
  385MOL0     H50797   5.472   7.482   9.419 -2.5323 -1.7262  1.1735
  385MOL0     H50798   5.321   7.303   9.516 -0.5563  1.5331  0.5012
  385MOL0     H50799   5.263   7.375   9.373 -2.1869 -3.5615  1.4805
  385MOL0     H50800   5.391   7.107   9.405 -0.2307 -1.8819 -1.9874
  385MOL0     H50801   5.369   7.169   9.248 -0.0254 -1.3986  0.3336
  385MOL0     H50802   6.126   7.154   8.867 -2.3298 -2.9150  1.7463
  385MOL0     H50803   6.323   7.028   8.918 -0.5922  0.7026 -1.1325
  385MOL0     H50804   6.688   7.088   9.299 -2.2309 -0.6056 -0.5070
  385MOL0     H50805   6.909   7.046   9.377 -1.0634  0.5998  0.3843
  385MOL0     H50806   8.772   7.315   9.113 -0.2378 -0.4412 -3.5323
  385MOL0     H50807   8.980   7.394   9.104 -0.1102  0.2685  1.4919
  385MOL0     H50808   9.242   7.748   8.975 -1.4335  0.4511  1.7080
  385MOL0     H50809   9.473   7.787   8.906  1.7868  1.9088  2.9726
  385MOL0     H50810   9.706   7.848   8.911  1.6899  0.3828  1.5826
  385MOL0     H50811   9.695   7.717   8.780 -2.6535 -1.1327  1.2687
  385MOL0     H50812   9.927   7.720   8.974 -0.3927 -1.8817  0.9432
  385MOL0     H50813   9.893   7.624   8.829  0.1572 -1.1603  1.9998
  385MOL0     H50814   9.949   7.927   8.878 -0.2992 -2.3776  1.7579
  385MOL0     H50815   9.893   7.867   8.720  1.5224 -0.1788 -1.1990
  385MOL0     H50816  10.136   7.765   8.865 -0.8670 -2.0178 -0.0925
  385MOL0     H50817  10.094   7.728   8.697  0.9185 -2.0050  1.2824
  385MOL0     H50818  10.279   8.116   8.691 -0.1318 -0.3941  3.2412
  385MOL0     H50819   9.613   7.499   9.190  0.9438  0.5110 -1.2062
  385MOL0     H50820   9.383   7.470   9.266 -0.4568 -1.0321 -1.4370
  386MOL0     O50821   9.956   3.452   3.822 -0.0267 -0.5419 -0.4323
  386MOL0     C50822   9.949   3.445   3.946 -0.2509  0.6524  0.6769
  386MOL0     O50823  10.042   3.492   4.038  0.1172  0.6281  0.0625
  386MOL0     C50824  10.157   3.555   4.011  0.3043  0.1244 -0.3380
  386MOL0     C50825  10.233   3.542   3.889 -0.1354  0.3774  1.0614
  386MOL0     C50826  10.358   3.607   3.889  0.3767 -0.2570  0.5278
  386MOL0     C50827  10.410   3.689   3.984  0.1719 -0.1281  0.1944
  386MOL0     O50828  10.537   3.745   3.954  0.1816 -0.1820  0.0240
  386MOL0     C50829  10.586   3.846   4.052  0.4959 -0.3055 -0.0780
  386MOL0     C50830  10.730   3.806   4.098 -0.3529 -0.8210  0.1489
  386MOL0     C50831  10.729   3.688   4.186 -0.5816 -0.4150 -0.6723
  386MOL0     C50832  10.868   3.653   4.224  0.1522 -0.0098 -0.2878
  386MOL0     C50833  10.874   3.515   4.293 -0.3693 -0.2048  0.0716
  386MOL0     C50834  10.813   3.518   4.434  0.1483  0.4441 -0.5342
  386MOL0     C50835  10.868   3.402   4.517  0.6853  0.7773  0.4122
  386MOL0     C50836  10.851   3.405   4.671 -1.2379 -0.1539 -0.0937
  386MOL0     N50837  10.712   3.430   4.725  0.5000  0.9381  0.1559
  386MOL0     C50838  10.600   3.352   4.710  0.3958 -0.2214 -1.4131
  386MOL0     C50839  10.500   3.432   4.755 -0.4090  0.1703  0.6330
  386MOL0     C50840  10.352   3.402   4.752 -0.3954 -0.8114  0.1574
  386MOL0     C50841  10.276   3.428   4.880  0.3596  0.3587 -0.0384
  386MOL0     C50842  10.284   3.305   4.960  0.2319  0.1960  0.3760
  386MOL0     C50843  10.205   3.302   5.089 -0.6811  0.1523 -0.2732
  386MOL0     O50844  10.066   3.336   5.068 -0.0150  0.6988  0.2819
  386MOL0     C50845   9.967   3.285   5.147  0.1282 -0.0847  0.3705
  386MOL0     C50846   9.847   3.357   5.150  0.0924 -1.7002  0.1777
  386MOL0     C50847   9.737   3.323   5.226 -0.1841  0.2427  0.1073
  386MOL0     C50848   9.756   3.220   5.317  0.1845  1.2243 -0.5220
  386MOL0     C50849   9.639   3.177   5.401  0.1210  0.1486  0.2982
  386MOL0     O50850   9.659   3.070   5.480  1.0542 -0.6944 -0.1429
  386MOL0     C50851   9.560   3.031   5.577  0.4901 -0.9306 -0.7901
  386MOL0     C50852   9.603   2.919   5.654  0.0040 -0.4714 -0.0644
  386MOL0     C50853   9.532   2.873   5.767  0.6876 -0.5186 -0.4989
  386MOL0     C50854   9.411   2.939   5.806 -0.6913 -0.4103 -0.0005
  386MOL0     O50855   9.339   2.901   5.922  0.2802  0.2037  0.2992
  386MOL0     C50856   9.204   2.864   5.890  0.3126 -0.6941 -0.1827
  386MOL0     C50857   9.110   2.880   6.015  0.1158 -0.4836  0.0624
  386MOL0     C50858   8.965   2.826   5.993 -0.3130 -0.5172 -0.1633
  386MOL0     C50859   8.893   2.865   6.123  0.9026  0.8219  0.0515
  386MOL0     C50860   8.745   2.842   6.110  0.0376  0.3484  0.2614
  386MOL0     C50861   8.675   2.900   6.234 -0.1328  0.0259  0.5871
  386MOL0     C50862   8.529   2.890   6.205  0.9316 -0.3472 -0.8407
  386MOL0     C50863   8.473   2.746   6.199 -0.5983 -0.1300  0.0893
  386MOL0    Cl50864   8.296   2.725   6.179 -0.0316 -0.1924  0.3411
  386MOL0     C50865   9.371   3.057   5.727 -0.2196 -0.1083 -0.8583
  386MOL0     C50866   9.442   3.097   5.614  0.3011  0.4782 -1.0269
  386MOL0     O50867   9.530   3.227   5.367 -0.2549 -0.2491 -0.3659
  386MOL0     C50868   9.873   3.150   5.323  0.4819 -0.3616  0.8863
  386MOL0     C50869   9.981   3.180   5.240 -0.0811  0.0885 -0.1863
  386MOL0     N50870  10.552   3.554   4.796 -0.4994 -0.1899 -0.4580
  386MOL0     N50871  10.682   3.547   4.787 -0.8097  0.3495  0.0612
  386MOL0     C50872  10.335   3.695   4.104 -0.0433 -0.0199 -0.4597
  386MOL0     C50873  10.211   3.626   4.120  0.0233 -0.0027  0.4792
  386MOL0     C50874   9.814   3.401   4.004 -0.1246  0.0989 -0.1627
  386MOL0     C50875   9.786   3.434   4.137  0.3347  0.7927  1.2302
  386MOL0     C50876   9.652   3.403   4.187 -0.2620  0.3542 -0.8458
  386MOL0     C50877   9.552   3.362   4.098 -0.0164  0.1719 -0.0527
  386MOL0     O50878   9.429   3.359   4.157 -0.3804  0.4623 -0.0772
  386MOL0     C50879   9.316   3.305   4.085 -1.0644 -0.3135  0.3823
  386MOL0     C50880   9.316   3.151   4.100 -0.7252  0.5572 -0.4340
  386MOL0     C50881   9.298   3.090   4.251  0.3799  0.0232  0.3904
  386MOL0     C50882   9.307   2.932   4.254  1.0985 -0.3979 -1.3469
  386MOL0     C50883   9.449   2.890   4.237  0.7820 -0.0229  0.3798
  386MOL0     C50884   9.559   2.866   4.200 -0.0501  0.3211 -0.3543
  386MOL0     C50885   9.582   3.315   3.967 -0.0141 -1.0671  0.2379
  386MOL0     C50886   9.717   3.341   3.926  0.1274 -0.5185 -0.1841
  386MOL0     H50887  10.199   3.479   3.809  0.1986  0.8972  0.5017
  386MOL0     H50888  10.422   3.588   3.803  1.0879 -2.4848  1.4797
  386MOL0     H50889  10.521   3.877   4.134 -0.8724  0.6743 -1.4788
  386MOL0     H50890  10.596   3.937   3.992 -2.9684  1.0244  1.1555
  386MOL0     H50891  10.769   3.884   4.164  0.7707 -1.4583  0.2619
  386MOL0     H50892  10.800   3.794   4.015  0.6500 -1.4496  1.0604
  386MOL0     H50893  10.688   3.607   4.126  1.6509 -1.9501 -0.2617
  386MOL0     H50894  10.671   3.709   4.276  0.9233  0.2387  0.1911
  386MOL0     H50895  10.924   3.642   4.131 -1.9110 -1.9817 -1.4033
  386MOL0     H50896  10.922   3.724   4.287  2.0425  1.3778 -3.2545
  386MOL0     H50897  10.980   3.487   4.298 -0.8014 -1.6158  2.0280
  386MOL0     H50898  10.821   3.439   4.235  0.9208 -1.8294  0.9348
  386MOL0     H50899  10.704   3.511   4.437  0.2670 -3.5412  0.0485
  386MOL0     H50900  10.826   3.615   4.483 -3.3863  0.2841  1.0288
  386MOL0     H50901  10.821   3.311   4.480  0.7400 -0.1845  2.5966
  386MOL0     H50902  10.977   3.398   4.506  0.7421  1.6143  0.5680
  386MOL0     H50903  10.917   3.482   4.712  0.4357 -0.2397 -2.4478
  386MOL0     H50904  10.881   3.310   4.717 -2.0991  0.6743  2.3286
  386MOL0     H50905  10.579   3.261   4.654 -1.8983  1.5737 -3.7777
  386MOL0     H50906  10.335   3.301   4.713 -1.0510 -1.1964  1.4034
  386MOL0     H50907  10.316   3.466   4.671  1.4776 -0.4009 -0.4150
  386MOL0     H50908  10.174   3.457   4.850  0.2915 -1.8097 -2.2010
  386MOL0     H50909  10.321   3.506   4.942  0.3036 -2.3093  3.7327
  386MOL0     H50910  10.250   3.222   4.896  1.0048  1.3928 -1.7012
  386MOL0     H50911  10.389   3.288   4.982  0.3972  2.1484  1.2078
  386MOL0     H50912  10.239   3.370   5.167  0.2515  1.0197 -1.4042
  386MOL0     H50913  10.222   3.198   5.117 -1.5894  0.1533  0.3209
  386MOL0     H50914   9.837   3.440   5.081 -0.1006 -2.3719 -0.6326
  386MOL0     H50915   9.641   3.373   5.218 -0.1242  0.2523 -0.6777
  386MOL0     H50916   9.698   2.877   5.623  0.7219 -0.5336  2.0671
  386MOL0     H50917   9.566   2.786   5.822  4.4181  2.0274  1.7338
  386MOL0     H50918   9.204   2.758   5.864  2.6685 -1.2821  1.8703
  386MOL0     H50919   9.164   2.922   5.807  0.1119  0.0932  0.4526
  386MOL0     H50920   9.107   2.987   6.039 -1.1787 -0.3121 -0.7717
  386MOL0     H50921   9.148   2.823   6.100 -3.0376  0.5370  2.3270
  386MOL0     H50922   8.967   2.718   5.977 -0.1702 -0.5525  0.0893
  386MOL0     H50923   8.913   2.885   5.918  1.3101  0.9858 -0.1769
  386MOL0     H50924   8.935   2.816   6.212  0.4616  3.4440  1.8280
  386MOL0     H50925   8.907   2.973   6.121  1.2327  0.7795 -2.8196
  386MOL0     H50926   8.737   2.733   6.103 -0.6003  0.3950  0.2539
  386MOL0     H50927   8.702   2.893   6.024 -0.4079 -1.0515 -0.3740
  386MOL0     H50928   8.699   3.007   6.241 -0.8051  0.1791  0.5721
  386MOL0     H50929   8.703   2.848   6.325  1.3822  2.2372  1.4841
  386MOL0     H50930   8.475   2.936   6.289 -1.0321  1.1936 -2.8262
  386MOL0     H50931   8.486   2.944   6.120 -4.5341 -2.3321  0.2193
  386MOL0     H50932   8.503   2.692   6.290 -0.4086  1.1863  0.8244
  386MOL0     H50933   8.522   2.698   6.114 -0.8514 -1.3581  0.6103
  386MOL0     H50934   9.279   3.110   5.750  0.4663  0.7246  0.0803
  386MOL0     H50935   9.400   3.179   5.556 -2.4906 -0.2856 -0.2501
  386MOL0     H50936   9.887   3.082   5.407 -0.9434 -1.5954  0.1692
  386MOL0     H50937  10.071   3.122   5.254 -0.7417 -1.1210 -0.7577
  386MOL0     H50938  10.382   3.745   4.188 -0.8170 -3.3803  2.1935
  386MOL0     H50939  10.155   3.635   4.212 -2.0089  2.9070 -0.8862
  386MOL0     H50940   9.865   3.472   4.202  0.4072  0.6340  1.2366
  386MOL0     H50941   9.635   3.416   4.294  1.4091 -1.9826 -0.2162
  386MOL0     H50942   9.329   3.318   3.977 -5.9965  0.0646 -0.4199
  386MOL0     H50943   9.224   3.355   4.117 -0.1868 -0.0405  2.7112
  386MOL0     H50944   9.235   3.102   4.046 -1.8177  0.7054  1.0031
  386MOL0     H50945   9.418   3.118   4.077 -0.7199 -1.1103  1.7188
  386MOL0     H50946   9.202   3.117   4.294 -0.1863 -2.3046  0.7529
  386MOL0     H50947   9.383   3.130   4.308  1.0071 -0.0039 -0.5055
  386MOL0     H50948   9.270   2.901   4.352  2.9440  0.6441 -0.2636
  386MOL0     H50949   9.235   2.907   4.175 -0.5854  4.4651 -1.6948
  386MOL0     H50950   9.659   2.833   4.179  1.5984  3.0379  2.4457
  386MOL0     H50951   9.510   3.280   3.893  0.5988 -1.0380 -0.3885
  386MOL0     H50952   9.742   3.318   3.823 -1.0307 -0.3850 -0.5030
  387MOL0     O50953   4.241   6.285   1.594 -0.7021 -0.7394  0.8518
  387MOL0     C50954   4.299   6.339   1.503  0.5224  0.7817  0.6663
  387MOL0     O50955   4.264   6.445   1.429 -0.6331  0.3382 -0.3942
  387MOL0     C50956   4.149   6.517   1.455  0.4669  0.2198  0.0703
  387MOL0     C50957   4.081   6.565   1.343 -0.6252 -0.3615 -0.0833
  387MOL0     C50958   3.954   6.634   1.357  0.2319  1.0510  0.4470
  387MOL0     C50959   3.913   6.663   1.488  0.6752 -0.7371  0.2120
  387MOL0     O50960   3.789   6.731   1.493  0.1013  0.4552 -0.0628
  387MOL0     C50961   3.723   6.764   1.616  0.0441 -0.2009 -0.2953
  387MOL0     C50962   3.590   6.828   1.589 -0.4731 -0.2669 -0.8555
  387MOL0     C50963   3.521   6.872   1.722 -0.5483 -0.3210 -0.2827
  387MOL0     C50964   3.379   6.924   1.689  0.3617 -0.1448  0.4188
  387MOL0     C50965   3.300   6.982   1.814 -0.1529 -0.2426 -0.1346
  387MOL0     C50966   3.174   7.058   1.781  1.5096  0.1573  0.0467
  387MOL0     C50967   3.082   6.973   1.698 -0.2077  0.6282  0.9022
  387MOL0     C50968   3.019   6.859   1.776 -0.2871 -0.2001  0.2529
  387MOL0     N50969   2.934   6.916   1.887 -0.3445  0.0709 -0.4291
  387MOL0     C50970   2.803   6.950   1.872  0.4649  0.2030  0.1970
  387MOL0     C50971   2.753   7.009   1.987 -0.5339  1.0822  0.0181
  387MOL0     C50972   2.621   7.073   2.025 -0.3293 -0.0472  0.3890
  387MOL0     C50973   2.591   7.192   1.940  0.6349  0.5563 -0.8740
  387MOL0     C50974   2.679   7.308   1.968 -0.0878 -0.4947  0.0310
  387MOL0     C50975   2.632   7.438   1.907  0.7151  0.9349 -0.2086
  387MOL0     O50976   2.614   7.418   1.766 -0.0501  0.1210  0.1721
  387MOL0     C50977   2.719   7.389   1.686  0.1171  0.0091  0.3509
  387MOL0     C50978   2.677   7.322   1.576 -0.9761  0.5956  0.1522
  387MOL0     C50979   2.777   7.286   1.482 -0.0439  0.6941 -0.0061
  387MOL0     C50980   2.912   7.306   1.497 -0.6415 -0.1794  0.1813
  387MOL0     C50981   3.012   7.252   1.392 -0.0150 -0.2924  0.0032
  387MOL0     O50982   3.144   7.264   1.415  0.1464  0.4222 -0.4682
  387MOL0     C50983   3.235   7.196   1.339 -0.1674  0.9499 -0.0630
  387MOL0     C50984   3.358   7.185   1.409  1.1156  0.1304 -0.0108
  387MOL0     C50985   3.463   7.115   1.346 -0.4361 -0.7277  0.7828
  387MOL0     C50986   3.462   7.075   1.214 -0.0276 -0.6234 -0.0939
  387MOL0     O50987   3.581   7.024   1.170 -0.1620 -0.3569 -0.1564
  387MOL0     C50988   3.596   7.010   1.027  0.4628  0.1144 -0.3484
  387MOL0     C50989   3.749   7.012   0.993  1.5767 -0.1595 -0.4695
  387MOL0     C50990   3.836   6.949   1.098  0.9690 -0.6147  0.3519
  387MOL0     C50991   3.979   6.947   1.034  0.4052 -0.0058 -0.6335
  387MOL0     C50992   4.082   6.896   1.139 -0.7692 -0.8268  0.2052
  387MOL0     C50993   4.225   6.891   1.085 -0.7410 -0.4364 -0.1672
  387MOL0     C50994   4.295   6.771   1.143  0.3559 -0.7725  1.2748
  387MOL0     C50995   4.447   6.794   1.089  0.2074 -0.4804  0.1569
  387MOL0    Cl50996   4.537   6.650   1.141 -0.2199  0.6977 -0.1069
  387MOL0     C50997   3.336   7.076   1.150 -0.1324  0.3220 -0.4854
  387MOL0     C50998   3.228   7.135   1.209 -0.5082  0.2791  0.3806
  387MOL0     O50999   2.960   7.191   1.304 -0.7132  0.2630  0.4477
  387MOL0     C51000   2.954   7.380   1.610 -0.3754 -0.0171 -0.5834
  387MOL0     C51001   2.859   7.423   1.704  0.9394 -1.0681  0.7252
  387MOL0     N51002   2.867   7.015   2.070  0.9614  0.5824  0.1859
  387MOL0     N51003   2.969   6.959   2.012 -0.2406 -0.1180 -0.2222
  387MOL0     C51004   3.987   6.623   1.603  0.1233  0.1618 -0.5993
  387MOL0     C51005   4.100   6.547   1.584 -0.1970 -0.3973  0.0983
  387MOL0     C51006   4.424   6.283   1.468 -0.3958  0.4973 -0.6135
  387MOL0     C51007   4.504   6.343   1.362  0.2032  0.5565  0.2664
  387MOL0     C51008   4.633   6.284   1.339  0.0110 -0.1269  0.9698
  387MOL0     C51009   4.686   6.170   1.406  0.8297  1.1747  0.1956
  387MOL0     O51010   4.802   6.108   1.363 -0.4523  0.0030  0.0017
  387MOL0     C51011   4.887   6.172   1.267 -0.6253 -0.1532  0.1132
  387MOL0     C51012   4.964   6.290   1.329 -0.4228 -0.2509  0.3317
  387MOL0     C51013   5.044   6.384   1.230 -0.6496  0.5079  0.1908
  387MOL0     C51014   5.168   6.319   1.171 -0.3820 -0.5163  0.4126
  387MOL0     C51015   5.115   6.240   1.055  0.1914 -0.5600 -0.1310
  387MOL0     C51016   5.070   6.191   0.962 -0.0890  0.7711 -0.2946
  387MOL0     C51017   4.611   6.117   1.509 -0.3742 -0.1275  0.9976
  387MOL0     C51018   4.488   6.177   1.549 -0.0757  0.3910  0.0870
  387MOL0     H51019   4.135   6.560   1.249  0.9375  2.7581  0.5120
  387MOL0     H51020   3.890   6.674   1.279  0.4016 -1.0352 -0.8353
  387MOL0     H51021   3.785   6.820   1.686 -1.4256 -0.7771  1.5550
  387MOL0     H51022   3.693   6.676   1.675 -3.7453  2.0804  1.5501
  387MOL0     H51023   3.526   6.756   1.537  0.8533 -1.6124 -0.6804
  387MOL0     H51024   3.611   6.917   1.529 -1.9418  0.8299  0.1924
  387MOL0     H51025   3.566   6.955   1.777 -1.8773 -0.0308  0.3932
  387MOL0     H51026   3.523   6.783   1.784  0.0801 -1.7192 -2.2077
  387MOL0     H51027   3.374   7.008   1.620 -0.0107 -1.6037 -1.4254
  387MOL0     H51028   3.317   6.836   1.664 -1.3937  0.1974  3.1355
  387MOL0     H51029   3.369   7.056   1.856 -1.1474  0.4699  0.2869
  387MOL0     H51030   3.280   6.907   1.891  2.7222 -0.3408  0.6336
  387MOL0     H51031   3.201   7.147   1.723 -0.0059  0.0788 -0.8471
  387MOL0     H51032   3.127   7.094   1.873  3.1428 -0.7080  1.2741
  387MOL0     H51033   2.987   7.023   1.675 -1.5328 -1.3121  1.7839
  387MOL0     H51034   3.134   6.928   1.614 -0.2145  0.7399  0.8395
  387MOL0     H51035   3.095   6.799   1.826  1.6885  1.1121 -0.9940
  387MOL0     H51036   2.961   6.788   1.716 -0.4279 -1.5081  1.8631
  387MOL0     H51037   2.746   6.943   1.780  1.0605 -0.7201 -0.1164
  387MOL0     H51038   2.618   7.097   2.131  0.1953 -0.7687  0.5774
  387MOL0     H51039   2.544   6.997   2.006  1.1702 -1.2964 -0.9074
  387MOL0     H51040   2.489   7.230   1.953  0.1836  0.4554 -3.4242
  387MOL0     H51041   2.594   7.162   1.834  2.6656  0.9452 -0.9586
  387MOL0     H51042   2.676   7.340   2.072 -1.3278  0.2027 -0.1900
  387MOL0     H51043   2.782   7.297   1.935 -0.2461 -0.7003 -0.4066
  387MOL0     H51044   2.719   7.502   1.925  2.1303 -1.1790  0.7889
  387MOL0     H51045   2.546   7.485   1.955 -0.3378 -1.0923 -0.0490
  387MOL0     H51046   2.574   7.294   1.553 -0.5137 -0.0745 -1.2151
  387MOL0     H51047   2.744   7.234   1.393 -1.3191  1.0665  0.2267
  387MOL0     H51048   3.380   7.230   1.505 -1.4411 -2.1226  1.7763
  387MOL0     H51049   3.554   7.103   1.404  0.6059 -1.1024 -0.8570
  387MOL0     H51050   3.536   7.088   0.979  0.1370 -0.1068 -0.3084
  387MOL0     H51051   3.564   6.909   0.998  1.1094 -0.2672  0.2384
  387MOL0     H51052   3.776   7.116   0.970 -0.9538 -0.1152 -4.1052
  387MOL0     H51053   3.771   6.949   0.906  1.5668 -1.8020  0.6657
  387MOL0     H51054   3.785   6.854   1.116 -2.2001  0.7124 -0.8238
  387MOL0     H51055   3.832   7.000   1.194 -1.5537 -1.0427  0.5509
  387MOL0     H51056   3.992   6.888   0.943 -1.5313 -0.9752 -0.3211
  387MOL0     H51057   4.013   7.049   1.014  3.0160 -0.7991 -0.6274
  387MOL0     H51058   4.040   6.796   1.152  0.1916 -1.6238 -2.2848
  387MOL0     H51059   4.074   6.960   1.228  1.4171  4.6085 -3.0133
  387MOL0     H51060   4.274   6.986   1.109 -1.3736 -0.0974 -0.2099
  387MOL0     H51061   4.228   6.880   0.976  0.9900  0.6346 -0.2830
  387MOL0     H51062   4.296   6.773   1.253 -0.5586 -0.1222  1.2824
  387MOL0     H51063   4.250   6.676   1.114 -0.7648  0.5178 -1.6183
  387MOL0     H51064   4.483   6.884   1.139 -4.3329  1.9523 -0.3677
  387MOL0     H51065   4.453   6.801   0.980  2.2375 -1.7938  0.1326
  387MOL0     H51066   3.322   7.025   1.055  1.8292  0.6706 -1.0143
  387MOL0     H51067   3.138   7.154   1.151  0.4212  2.2967 -0.5158
  387MOL0     H51068   3.060   7.404   1.623 -0.7664  0.9794  1.1672
  387MOL0     H51069   2.898   7.481   1.787 -2.5847  0.0125  1.7863
  387MOL0     H51070   3.937   6.654   1.695 -3.9464 -1.8069 -1.8837
  387MOL0     H51071   4.155   6.531   1.676  0.7353  2.0012  0.0337
  387MOL0     H51072   4.469   6.421   1.296 -1.0779 -1.9025 -2.1630
  387MOL0     H51073   4.688   6.341   1.265  2.2302 -1.3528  1.5782
  387MOL0     H51074   4.829   6.194   1.177 -0.9311 -0.5029  0.2201
  387MOL0     H51075   4.964   6.107   1.224 -1.0611 -0.9179  0.4695
  387MOL0     H51076   4.896   6.362   1.376 -0.7722  1.4103 -2.4858
  387MOL0     H51077   5.029   6.245   1.404  1.3264 -0.3307 -1.1702
  387MOL0     H51078   5.077   6.465   1.296  2.0638 -0.0400 -0.3527
  387MOL0     H51079   4.989   6.430   1.148  2.3937  1.0905 -1.7013
  387MOL0     H51080   5.238   6.398   1.143 -0.0242  0.3475  3.4183
  387MOL0     H51081   5.219   6.254   1.243  0.9403  0.1411  0.0979
  387MOL0     H51082   5.013   6.137   0.889  1.2909 -0.3552 -0.5703
  387MOL0     H51083   4.667   6.032   1.547  1.1719 -1.0048 -2.8077
  387MOL0     H51084   4.442   6.140   1.640  0.8591  1.7339  1.1479
  388MOL0     O51085   9.104  10.680   3.275 -0.1983  0.6445 -0.6968
  388MOL0     C51086   9.136  10.668   3.396 -0.3453 -0.4172  0.6499
  388MOL0     O51087   9.257  10.628   3.439 -0.4700  0.2664 -0.1045
  388MOL0     C51088   9.340  10.580   3.341 -0.3196  0.3650 -0.2104
  388MOL0     C51089   9.474  10.605   3.365 -0.2419 -0.1739  0.1530
  388MOL0     C51090   9.576  10.555   3.275  0.3015 -0.1043 -0.2655
  388MOL0     C51091   9.539  10.471   3.174 -0.6164  0.1420 -0.4665
  388MOL0     O51092   9.632  10.450   3.079  0.1638 -0.1274 -0.7703
  388MOL0     C51093   9.588  10.424   2.944 -0.4721  0.2250 -0.8093
  388MOL0     C51094   9.517  10.543   2.877 -0.2950  0.7079 -0.6944
  388MOL0     C51095   9.606  10.672   2.876 -0.4393 -0.1442  0.7437
  388MOL0     C51096   9.521  10.793   2.813 -0.1748  0.1529  0.3698
  388MOL0     C51097   9.611  10.920   2.799 -0.9883 -0.0209  0.2375
  388MOL0     C51098   9.565  11.002   2.676  0.6282 -0.3691  0.4240
  388MOL0     C51099   9.637  11.136   2.659 -0.2613  1.2046 -0.8114
  388MOL0     C51100   9.569  11.263   2.720 -0.8705 -0.5459 -0.7534
  388MOL0     N51101   9.444  11.302   2.656 -0.2419  0.4863  0.9809
  388MOL0     C51102   9.426  11.344   2.523 -0.1163  1.1549  0.3363
  388MOL0     C51103   9.301  11.350   2.495  0.5484 -0.0651 -0.6404
  388MOL0     C51104   9.246  11.394   2.359  0.2792 -0.5503 -0.4926
  388MOL0     C51105   9.093  11.363   2.342 -0.4940  0.1990 -0.3575
  388MOL0     C51106   9.077  11.207   2.307 -0.8113  0.0382  0.7755
  388MOL0     C51107   8.951  11.172   2.221 -0.8044  0.0870 -0.3844
  388MOL0     O51108   8.837  11.232   2.280 -0.6478  0.8465 -0.0598
  388MOL0     C51109   8.740  11.288   2.208  0.0461 -0.1568  0.5023
  388MOL0     C51110   8.607  11.262   2.226 -0.2526  0.9826  0.2676
  388MOL0     C51111   8.499  11.330   2.158 -1.3788 -0.1703 -0.0189
  388MOL0     C51112   8.533  11.430   2.062 -0.6331  0.0286 -0.5210
  388MOL0     C51113   8.427  11.501   1.991 -0.0745  0.0596  0.2982
  388MOL0     O51114   8.461  11.625   1.943 -0.2192  0.2711 -0.6285
  388MOL0     C51115   8.370  11.701   1.870 -0.1682 -0.5209  0.3816
  388MOL0     C51116   8.416  11.768   1.753  0.2360 -0.4060  0.5324
  388MOL0     C51117   8.329  11.832   1.672  0.1949  0.2099 -0.5199
  388MOL0     C51118   8.189  11.841   1.703 -0.1932 -1.0766  0.6079
  388MOL0     O51119   8.110  11.900   1.610  0.9674 -1.0042  0.0765
  388MOL0     C51120   7.997  11.976   1.667 -0.5957  1.0014 -0.0127
  388MOL0     C51121   7.972  12.092   1.571 -0.2541  0.1081 -0.1281
  388MOL0     C51122   7.867  12.191   1.621 -0.5777  0.6465  0.0393
  388MOL0     C51123   7.727  12.126   1.634  0.0742 -0.7895 -0.7690
  388MOL0     C51124   7.625  12.237   1.638  0.4542 -0.1455  0.0702
  388MOL0     C51125   7.485  12.196   1.687  0.2084  1.2147  0.8427
  388MOL0     C51126   7.435  12.075   1.611  1.0621 -0.0241  0.9959
  388MOL0     C51127   7.410  12.089   1.454 -0.3547 -0.2556 -0.1093
  388MOL0    Cl51128   7.261  12.187   1.436  0.0461 -0.2329  0.0864
  388MOL0     C51129   8.146  11.785   1.827  0.2206 -0.0356 -0.2172
  388MOL0     C51130   8.236  11.720   1.908 -0.0224  0.6482  0.2649
  388MOL0     O51131   8.316  11.446   1.982  0.4287  0.1342  0.5281
  388MOL0     C51132   8.666  11.453   2.034 -0.2713 -1.1421  0.1982
  388MOL0     C51133   8.771  11.385   2.106 -0.3106 -0.4245 -0.7954
  388MOL0     N51134   9.236  11.315   2.607  0.1593 -0.7900 -0.1961
  388MOL0     N51135   9.315  11.288   2.705 -0.4649 -0.3347 -0.5960
  388MOL0     C51136   9.404  10.443   3.159  0.3592  0.2639 -0.1021
  388MOL0     C51137   9.307  10.494   3.238 -0.1726  0.4619 -0.2682
  388MOL0     C51138   9.049  10.704   3.508  0.4910 -0.2654  0.4373
  388MOL0     C51139   8.924  10.773   3.494 -0.2109 -0.4203  0.2674
  388MOL0     C51140   8.844  10.800   3.603  0.1000  0.1748 -0.1619
  388MOL0     C51141   8.878  10.767   3.734 -0.4678 -0.0099  0.2074
  388MOL0     O51142   8.794  10.769   3.843 -0.0053 -1.2063 -0.4235
  388MOL0     C51143   8.667  10.837   3.831  0.0272  0.2300  0.6016
  388MOL0     C51144   8.567  10.734   3.781 -0.1781 -0.1750 -0.0842
  388MOL0     C51145   8.423  10.771   3.838  0.0497 -0.4042  0.0582
  388MOL0     C51146   8.345  10.892   3.786 -0.0128 -0.1420  0.2334
  388MOL0     C51147   8.216  10.887   3.846 -0.0569 -0.6398 -0.4642
  388MOL0     C51148   8.108  10.882   3.899 -0.1984 -0.9597  0.2090
  388MOL0     C51149   9.012  10.724   3.752  1.1321 -0.3560  0.1664
  388MOL0     C51150   9.092  10.699   3.640 -0.6632 -0.3438 -0.8823
  388MOL0     H51151   9.494  10.665   3.453  2.4575 -2.5904  1.3501
  388MOL0     H51152   9.680  10.581   3.288  0.8010 -2.3023  0.4313
  388MOL0     H51153   9.521  10.337   2.942  0.2717 -0.4238  0.8158
  388MOL0     H51154   9.676  10.397   2.886  2.0172 -0.2735  2.8569
  388MOL0     H51155   9.427  10.576   2.929  1.4645  3.4330  0.9009
  388MOL0     H51156   9.515  10.525   2.769  1.9710  0.9956 -0.8407
  388MOL0     H51157   9.693  10.662   2.811  0.1032 -4.7817  1.8266
  388MOL0     H51158   9.643  10.707   2.973  0.2399  0.7052  0.1965
  388MOL0     H51159   9.483  10.765   2.715  1.8399 -0.4463 -0.2969
  388MOL0     H51160   9.433  10.813   2.875 -0.4680  0.5054 -0.1563
  388MOL0     H51161   9.718  10.898   2.792  0.3185  2.9277  5.5267
  388MOL0     H51162   9.614  10.981   2.889  0.6377 -1.5491  1.2799
  388MOL0     H51163   9.458  11.025   2.676  0.6669 -0.1713 -0.2765
  388MOL0     H51164   9.586  10.944   2.586 -3.5078 -0.1698 -0.8923
  388MOL0     H51165   9.727  11.123   2.719  0.8497  3.6336 -1.8181
  388MOL0     H51166   9.668  11.138   2.554  1.3621  0.0542 -0.3882
  388MOL0     H51167   9.635  11.350   2.715  0.5588 -1.6538 -2.1507
  388MOL0     H51168   9.559  11.240   2.826  1.5777  0.6089 -0.1966
  388MOL0     H51169   9.496  11.381   2.449  0.2544 -0.0139  0.0751
  388MOL0     H51170   9.294  11.344   2.275 -0.8202 -2.3666 -0.0877
  388MOL0     H51171   9.266  11.502   2.358 -1.3163 -0.2292 -1.2068
  388MOL0     H51172   9.046  11.412   2.256 -2.7517 -0.1966  0.5704
  388MOL0     H51173   9.047  11.397   2.436  1.2859 -0.5503  0.8371
  388MOL0     H51174   9.167  11.162   2.264  0.0496  0.0117  2.5109
  388MOL0     H51175   9.056  11.161   2.404 -3.0444 -0.5582  0.0514
  388MOL0     H51176   8.941  11.063   2.220 -1.1584  0.0605  2.0311
  388MOL0     H51177   8.962  11.211   2.119 -1.6607  0.3952 -0.3619
  388MOL0     H51178   8.580  11.193   2.306  2.1177  0.0950  0.3592
  388MOL0     H51179   8.398  11.292   2.168 -3.1249  3.3835 -2.0175
  388MOL0     H51180   8.521  11.758   1.726 -0.4251 -0.1774 -2.4645
  388MOL0     H51181   8.339  11.886   1.578 -0.3254  1.6992  0.2397
  388MOL0     H51182   8.014  12.023   1.765 -2.0557  1.1357  0.2085
  388MOL0     H51183   7.905  11.918   1.678  0.4260 -0.2799  2.9797
  388MOL0     H51184   7.948  12.051   1.473  0.7051 -1.3104  0.2019
  388MOL0     H51185   8.065  12.147   1.553  0.1194 -1.3370 -3.1260
  388MOL0     H51186   7.868  12.272   1.547  1.2667  0.8501  0.2198
  388MOL0     H51187   7.900  12.235   1.716  1.2237  0.9155 -0.6577
  388MOL0     H51188   7.713  12.056   1.551  3.2994  0.3834 -2.4966
  388MOL0     H51189   7.723  12.067   1.726 -1.6741  2.4337  1.4028
  388MOL0     H51190   7.612  12.294   1.545 -0.6034  0.5123  0.5907
  388MOL0     H51191   7.649  12.308   1.718 -0.8386 -0.3954  0.7107
  388MOL0     H51192   7.417  12.279   1.665 -0.0087  0.5970 -0.9201
  388MOL0     H51193   7.491  12.177   1.795 -1.1332 -0.6920  0.6358
  388MOL0     H51194   7.504  11.993   1.631 -0.7675 -1.5196  1.4003
  388MOL0     H51195   7.338  12.049   1.654  0.1072  1.4147 -0.1553
  388MOL0     H51196   7.406  11.990   1.409 -0.5265  0.7951 -2.5957
  388MOL0     H51197   7.502  12.134   1.414  1.6069 -0.4859  3.6881
  388MOL0     H51198   8.040  11.789   1.849  0.3735  0.4232  0.4852
  388MOL0     H51199   8.204  11.683   2.005 -1.0006  1.3730  0.2352
  388MOL0     H51200   8.697  11.535   1.971 -1.1196  0.6458  1.9886
  388MOL0     H51201   8.872  11.425   2.109 -1.6689  3.3144  0.1201
  388MOL0     H51202   9.364  10.372   3.088  0.7564 -1.2275  1.1147
  388MOL0     H51203   9.207  10.452   3.238 -0.3241  0.7076 -2.5689
  388MOL0     H51204   8.909  10.807   3.392  2.9435  4.7444  1.1481
  388MOL0     H51205   8.746  10.846   3.600  0.3437  0.9628  2.3981
  388MOL0     H51206   8.666  10.923   3.763 -1.5125 -0.0534  0.2368
  388MOL0     H51207   8.633  10.864   3.932 -4.8319  1.4896 -1.1241
  388MOL0     H51208   8.562  10.733   3.671  0.6174  2.2936 -0.2097
  388MOL0     H51209   8.609  10.642   3.821  2.0565  1.5859  1.8457
  388MOL0     H51210   8.424  10.768   3.948  0.9399 -1.7261  0.0340
  388MOL0     H51211   8.361  10.685   3.813 -0.5126 -0.9597  2.9708
  388MOL0     H51212   8.398  10.985   3.805  0.4359  0.4485 -3.1672
  388MOL0     H51213   8.334  10.885   3.677  1.5429 -0.0062  0.0417
  388MOL0     H51214   8.012  10.869   3.945  0.3911 -1.6655  1.3060
  388MOL0     H51215   9.041  10.705   3.855 -1.0506  1.0934  1.1019
  388MOL0     H51216   9.190  10.656   3.658 -0.8174  0.6226  2.9455
  389MOL0     O51217   7.336   5.619   4.960 -0.2022 -0.2927 -0.2191
  389MOL0     C51218   7.368   5.738   4.971  0.5494 -0.3248  0.0445
  389MOL0     O51219   7.279   5.836   5.008 -0.2952 -0.2814  1.1919
  389MOL0     C51220   7.158   5.795   5.055 -0.2323 -0.4227 -0.2035
  389MOL0     C51221   7.054   5.824   4.975 -0.1289  0.5135  0.3624
  389MOL0     C51222   6.923   5.807   5.027 -0.0241  0.1917  0.8085
  389MOL0     C51223   6.898   5.771   5.157  0.3500 -0.9807  0.5438
  389MOL0     O51224   6.768   5.797   5.193  0.1567 -0.0809 -0.3384
  389MOL0     C51225   6.708   5.741   5.316 -0.1251 -0.5916  0.1952
  389MOL0     C51226   6.726   5.590   5.324 -0.0751 -0.0938 -0.8349
  389MOL0     C51227   6.656   5.528   5.439  0.1189 -0.4224  0.4806
  389MOL0     C51228   6.669   5.379   5.441 -0.5717  0.3500  0.2626
  389MOL0     C51229   6.629   5.325   5.572  0.8269  0.6543  0.4309
  389MOL0     C51230   6.480   5.353   5.595 -0.1249  0.1592 -0.5352
  389MOL0     C51231   6.428   5.285   5.723 -0.2385  0.2258  0.3543
  389MOL0     C51232   6.412   5.134   5.710  0.9040  0.0100  0.1075
  389MOL0     N51233   6.315   5.098   5.606  0.0781  0.1355  0.1227
  389MOL0     C51234   6.333   5.092   5.465  0.1134 -0.3954  0.1190
  389MOL0     C51235   6.207   5.082   5.410 -0.3559  0.6804  0.2183
  389MOL0     C51236   6.169   5.065   5.267 -0.2282 -0.8172  0.5986
  389MOL0     C51237   6.047   4.968   5.250 -0.1754  0.4360  0.2005
  389MOL0     C51238   5.910   5.024   5.294 -0.0177  0.3028 -0.0374
  389MOL0     C51239   5.782   4.933   5.275 -0.5050  0.0609 -0.3697
  389MOL0     O51240   5.771   4.889   5.136  0.0044 -0.0350  0.4107
  389MOL0     C51241   5.662   4.817   5.105 -0.0643 -0.2455 -0.9544
  389MOL0     C51242   5.547   4.799   5.187 -0.1164 -0.6720  1.4204
  389MOL0     C51243   5.429   4.732   5.140 -0.7192  0.5000 -0.1424
  389MOL0     C51244   5.420   4.693   5.006  0.6572 -0.3504  0.1306
  389MOL0     C51245   5.295   4.642   4.949  0.5304  0.5550 -0.7800
  389MOL0     O51246   5.175   4.673   5.010 -0.8207 -0.3119  0.3580
  389MOL0     C51247   5.061   4.654   4.939 -0.4267 -0.6654  0.2312
  389MOL0     C51248   5.029   4.734   4.830 -0.3404 -0.2995 -0.0414
  389MOL0     C51249   4.911   4.699   4.757  0.1104 -0.2760 -0.1476
  389MOL0     C51250   4.820   4.600   4.802 -1.0360  0.0448  0.3083
  389MOL0     O51251   4.699   4.579   4.736 -0.0059  0.4815  0.3871
  389MOL0     C51252   4.670   4.676   4.633 -0.0486 -0.2207  0.2738
  389MOL0     C51253   4.529   4.652   4.582  0.9026 -0.3117 -0.6426
  389MOL0     C51254   4.414   4.680   4.687  0.8293 -0.5026  0.1589
  389MOL0     C51255   4.276   4.610   4.647  0.8340 -0.8143  0.3464
  389MOL0     C51256   4.169   4.665   4.733  0.5108  0.1686  0.7176
  389MOL0     C51257   4.038   4.608   4.704 -0.3668 -0.3892  0.2359
  389MOL0     C51258   3.934   4.672   4.795  0.2999 -0.3186 -0.4912
  389MOL0     C51259   3.789   4.635   4.748  0.3980  0.3605 -0.2891
  389MOL0    Cl51260   3.761   4.698   4.583 -0.2215 -0.0509  0.0502
  389MOL0     C51261   4.840   4.542   4.922 -0.1869 -0.5776  0.3558
  389MOL0     C51262   4.970   4.559   4.989  0.1410  0.8549  0.5073
  389MOL0     O51263   5.309   4.583   4.848 -0.2316 -0.4967 -0.0322
  389MOL0     C51264   5.535   4.704   4.934  0.2274  0.3005 -0.0006
  389MOL0     C51265   5.655   4.763   4.977  0.3456  0.3854 -0.6149
  389MOL0     N51266   6.118   5.112   5.519  0.0852 -0.0219  0.2360
  389MOL0     N51267   6.183   5.114   5.628 -0.1226  0.4980 -0.3029
  389MOL0     C51268   7.003   5.735   5.236 -0.3799 -0.1420 -0.3786
  389MOL0     C51269   7.135   5.755   5.185  0.1442  0.6378 -0.2924
  389MOL0     C51270   7.504   5.775   4.930  0.4705  0.4307 -1.7767
  389MOL0     C51271   7.594   5.676   4.909 -0.4538  0.3463  0.6405
  389MOL0     C51272   7.726   5.717   4.877  0.3419  0.1268  0.4400
  389MOL0     C51273   7.766   5.852   4.862 -0.8967  0.8010  0.5465
  389MOL0     O51274   7.893   5.871   4.827  0.1087  0.4207  0.0480
  389MOL0     C51275   7.930   6.003   4.800 -0.9897  0.2532  0.6372
  389MOL0     C51276   8.074   6.015   4.761  0.1547  0.5398  0.2335
  389MOL0     C51277   8.176   5.969   4.863 -0.1620 -0.0364 -0.0231
  389MOL0     C51278   8.319   5.968   4.822 -0.6762 -0.5269 -0.1125
  389MOL0     C51279   8.379   6.106   4.820 -0.2486  0.5981  0.1502
  389MOL0     C51280   8.405   6.224   4.813 -0.3648 -0.1981  0.4756
  389MOL0     C51281   7.667   5.948   4.883 -0.8394  0.5916  0.2430
  389MOL0     C51282   7.540   5.909   4.919 -0.4691  0.8977 -0.0517
  389MOL0     H51283   7.075   5.872   4.880 -1.5768  2.6517  1.0292
  389MOL0     H51284   6.839   5.842   4.967  0.9591  1.2246 -0.0157
  389MOL0     H51285   6.604   5.774   5.315  0.1744  0.3709 -1.0295
  389MOL0     H51286   6.759   5.794   5.397  1.9883  0.4725 -1.7227
  389MOL0     H51287   6.831   5.564   5.335  0.2269  1.3534 -0.1646
  389MOL0     H51288   6.697   5.559   5.223  0.5439  0.3492 -1.1494
  389MOL0     H51289   6.552   5.562   5.439  0.8354  2.0516 -1.4249
  389MOL0     H51290   6.711   5.570   5.524  2.5236 -0.7364 -0.8154
  389MOL0     H51291   6.603   5.340   5.364  0.4744 -0.5739 -0.1908
  389MOL0     H51292   6.768   5.343   5.413 -1.1195  1.1607 -3.1974
  389MOL0     H51293   6.689   5.365   5.655  0.4986 -1.1306  1.5612
  389MOL0     H51294   6.642   5.217   5.565 -0.6517  0.5827 -3.6501
  389MOL0     H51295   6.418   5.339   5.506 -0.1067 -2.3003 -0.2257
  389MOL0     H51296   6.461   5.458   5.620 -0.4787 -0.0954  0.2975
  389MOL0     H51297   6.483   5.309   5.815 -0.3124 -0.6235  0.6254
  389MOL0     H51298   6.329   5.322   5.752 -0.9975 -1.3999 -0.0549
  389MOL0     H51299   6.378   5.082   5.800 -0.1216  0.5198  0.0176
  389MOL0     H51300   6.503   5.083   5.676 -0.5913 -0.8600 -3.0301
  389MOL0     H51301   6.427   5.090   5.412  0.0698  3.1046 -0.2900
  389MOL0     H51302   6.260   5.026   5.220  0.5783 -1.0362  2.2958
  389MOL0     H51303   6.151   5.165   5.227  2.4874 -1.5313 -2.9998
  389MOL0     H51304   6.061   4.879   5.312 -1.4394  1.1385  1.5575
  389MOL0     H51305   6.044   4.934   5.146 -0.7383  1.4276 -0.1249
  389MOL0     H51306   5.903   5.060   5.397 -2.1218 -1.8060  0.6516
  389MOL0     H51307   5.897   5.112   5.230  0.0720  1.6131  1.6884
  389MOL0     H51308   5.694   4.994   5.297 -1.1989 -0.4295 -1.6827
  389MOL0     H51309   5.779   4.853   5.350  0.3902  0.0327 -0.3478
  389MOL0     H51310   5.545   4.842   5.286 -0.7019  0.6045  0.8805
  389MOL0     H51311   5.351   4.722   5.214  1.4327  0.7830  2.2931
  389MOL0     H51312   5.102   4.800   4.783 -1.7873 -0.2080 -2.3299
  389MOL0     H51313   4.904   4.753   4.664  2.5711 -1.8042 -1.3327
  389MOL0     H51314   4.746   4.651   4.558  2.4439 -0.5599  2.7535
  389MOL0     H51315   4.683   4.781   4.659  0.2595 -0.5047  1.2990
  389MOL0     H51316   4.522   4.551   4.539  1.9382  0.3984 -2.5858
  389MOL0     H51317   4.512   4.727   4.504 -0.2163 -1.5116 -1.5939
  389MOL0     H51318   4.397   4.788   4.691  3.6933  0.2224 -2.8874
  389MOL0     H51319   4.428   4.654   4.792 -1.7111  0.4921  0.8211
  389MOL0     H51320   4.250   4.647   4.548  1.2832 -0.5463  0.3302
  389MOL0     H51321   4.273   4.501   4.662 -0.3847 -0.4932  2.9367
  389MOL0     H51322   4.156   4.773   4.723  0.9412  0.0865 -1.0965
  389MOL0     H51323   4.192   4.645   4.838 -0.6716 -2.0601  0.6173
  389MOL0     H51324   4.047   4.501   4.724 -0.9847  0.1823  4.5677
  389MOL0     H51325   4.023   4.629   4.598 -2.5285  0.5918  0.6683
  389MOL0     H51326   3.933   4.633   4.897  0.2505 -3.1160 -1.4735
  389MOL0     H51327   3.944   4.781   4.782  0.7156 -0.5212 -2.1390
  389MOL0     H51328   3.712   4.678   4.813 -0.8405 -1.7052 -0.2997
  389MOL0     H51329   3.778   4.527   4.741 -0.9201  0.4124  0.7247
  389MOL0     H51330   4.767   4.477   4.970  0.5410 -2.4769 -0.9865
  389MOL0     H51331   5.003   4.510   5.080  1.6533 -1.9462 -1.4008
  389MOL0     H51332   5.532   4.658   4.836 -1.5987  2.9115 -1.3081
  389MOL0     H51333   5.741   4.761   4.912  0.4777  2.3819 -0.5553
  389MOL0     H51334   6.983   5.707   5.339 -1.0755 -3.3678 -1.3067
  389MOL0     H51335   7.218   5.740   5.254  0.2630 -0.2037 -0.6026
  389MOL0     H51336   7.577   5.570   4.922 -1.8971  0.4106 -0.4167
  389MOL0     H51337   7.796   5.635   4.862  0.5826  0.6954 -1.8684
  389MOL0     H51338   7.906   6.074   4.880  1.5684 -0.5101  2.1832
  389MOL0     H51339   7.874   6.032   4.710  1.0171 -2.3466 -1.6032
  389MOL0     H51340   8.090   5.959   4.668  1.0954 -0.5249  1.0017
  389MOL0     H51341   8.094   6.121   4.746  1.0624  0.1996 -1.2090
  389MOL0     H51342   8.152   5.863   4.874  1.2536 -0.3184  0.5267
  389MOL0     H51343   8.170   6.019   4.960  2.6513  0.1232  0.1652
  389MOL0     H51344   8.373   5.909   4.897  1.6844 -0.0811 -1.3655
  389MOL0     H51345   8.333   5.911   4.730 -1.0158 -0.7469 -0.0316
  389MOL0     H51346   8.425   6.329   4.819 -2.0802  0.1932 -0.2290
  389MOL0     H51347   7.689   6.054   4.891 -1.0117  0.4931  3.5431
  389MOL0     H51348   7.475   5.992   4.944  0.5690  2.4333 -2.1071
  390MOL0     O51349  10.235  10.014   2.323 -0.3517 -0.1210 -0.8549
  390MOL0     C51350  10.246   9.892   2.334 -0.3833  0.7649 -0.7679
  390MOL0     O51351  10.343   9.834   2.409 -0.1597 -0.5949  0.2586
  390MOL0     C51352  10.417   9.928   2.483 -0.3282 -0.8469  0.6127
  390MOL0     C51353  10.380   9.961   2.613  0.0715 -0.0393  0.3259
  390MOL0     C51354  10.442  10.053   2.686 -0.3426 -0.7254  0.6873
  390MOL0     C51355  10.569  10.107   2.642  1.0349  0.3883  0.2191
  390MOL0     O51356  10.622  10.198   2.728 -0.3185  0.1680 -0.1567
  390MOL0     C51357  10.767  10.226   2.719 -0.4625 -0.4464 -0.8306
  390MOL0     C51358  10.796  10.296   2.845 -0.7930 -0.0587 -0.3743
  390MOL0     C51359  10.715  10.422   2.881  0.2028  0.3643  0.3006
  390MOL0     C51360  10.581  10.383   2.949 -1.0070  0.1266 -0.1044
  390MOL0     C51361  10.473  10.480   2.914 -0.2510  0.6777 -0.7921
  390MOL0     C51362  10.393  10.436   2.791 -0.1313 -0.2077  0.6016
  390MOL0     C51363  10.266  10.522   2.796 -0.2083 -0.2436  0.1918
  390MOL0     C51364  10.181  10.527   2.667 -1.0405 -0.3481  0.5897
  390MOL0     N51365  10.102  10.409   2.656  0.6084 -0.3515  0.0304
  390MOL0     C51366  10.135  10.297   2.599  0.8467 -0.5924 -0.2448
  390MOL0     C51367  10.023  10.225   2.624  0.2273  0.6343  0.0327
  390MOL0     C51368  10.002  10.078   2.599 -0.3027 -0.1220  0.9944
  390MOL0     C51369   9.887  10.024   2.690  1.0432 -0.3599 -0.3825
  390MOL0     C51370   9.841   9.883   2.647 -0.3027 -0.2171 -0.1105
  390MOL0     C51371   9.762   9.886   2.516 -0.0656  0.4767 -0.1407
  390MOL0     O51372   9.634   9.951   2.538 -0.0981 -0.3150 -0.2618
  390MOL0     C51373   9.538   9.944   2.444  0.4916  0.5799  0.7500
  390MOL0     C51374   9.414  10.009   2.456 -0.0272 -0.8367  0.2485
  390MOL0     C51375   9.324  10.018   2.340 -0.0889 -0.2321 -0.6355
  390MOL0     C51376   9.353   9.957   2.223 -0.6167  0.1019  0.8388
  390MOL0     C51377   9.266   9.977   2.103 -0.9464 -0.0977 -0.1749
  390MOL0     O51378   9.162  10.051   2.119  0.4350  0.1852 -0.8489
  390MOL0     C51379   9.084  10.100   2.017 -0.3397  0.0169  0.4726
  390MOL0     C51380   8.961  10.048   1.981  0.9668 -0.3780 -0.8253
  390MOL0     C51381   8.889  10.101   1.873 -0.2227  0.7236 -0.3785
  390MOL0     C51382   8.937  10.214   1.804  0.1523  0.8548 -0.4486
  390MOL0     O51383   8.883  10.266   1.690 -0.7725  0.1455  0.6447
  390MOL0     C51384   8.772  10.194   1.630  0.0161  0.5562  0.5548
  390MOL0     C51385   8.746  10.263   1.488  1.2211 -0.8677 -0.0954
  390MOL0     C51386   8.669  10.182   1.388  0.4238 -0.0286  0.2418
  390MOL0     C51387   8.613  10.279   1.283 -0.6404 -0.5115  0.0868
  390MOL0     C51388   8.493  10.364   1.316 -0.0870 -0.0687 -0.3767
  390MOL0     C51389   8.369  10.279   1.366  0.9340 -0.0285  0.3045
  390MOL0     C51390   8.241  10.366   1.356  0.9477  0.7246 -0.4652
  390MOL0     C51391   8.173  10.378   1.495 -0.5919 -0.1729 -0.8316
  390MOL0    Cl51392   8.283  10.437   1.626  0.1194 -0.5608 -0.1950
  390MOL0     C51393   9.062  10.264   1.841  0.7208  0.6242 -0.5582
  390MOL0     C51394   9.136  10.208   1.942 -0.6472  0.0885  0.1786
  390MOL0     O51395   9.305   9.932   1.992  0.8920 -0.2631 -0.8505
  390MOL0     C51396   9.466   9.876   2.216 -1.0249  0.1354 -0.2979
  390MOL0     C51397   9.555   9.872   2.323  0.1757 -0.4744 -0.2446
  390MOL0     N51398   9.921  10.304   2.662 -0.2236  0.3396  0.5511
  390MOL0     N51399   9.977  10.417   2.687 -0.1313 -0.3769  0.4691
  390MOL0     C51400  10.611  10.068   2.513 -0.0810 -0.0222  0.1906
  390MOL0     C51401  10.537   9.983   2.434  0.4585  1.5764 -0.0427
  390MOL0     C51402  10.133   9.805   2.297 -0.3521  0.3491  0.6953
  390MOL0     C51403  10.096   9.696   2.378  0.6210  0.2526 -0.2887
  390MOL0     C51404   9.983   9.626   2.347  0.6305  0.6064 -0.7642
  390MOL0     C51405   9.893   9.661   2.249  0.2658 -0.4045  0.6250
  390MOL0     O51406   9.771   9.597   2.236  0.1133  0.0126 -0.0958
  390MOL0     C51407   9.783   9.456   2.251  0.0299 -0.4936 -0.4353
  390MOL0     C51408   9.668   9.388   2.168 -0.3825  0.2993 -0.2947
  390MOL0     C51409   9.684   9.239   2.153  0.3967  0.4347 -0.4926
  390MOL0     C51410   9.576   9.163   2.071 -0.3202  0.3724 -0.6021
  390MOL0     C51411   9.571   9.188   1.931  0.1684 -0.2215 -0.5186
  390MOL0     C51412   9.587   9.186   1.816 -1.1648 -0.3822  0.1028
  390MOL0     C51413   9.922   9.778   2.179 -0.3135 -0.1187  0.3146
  390MOL0     C51414  10.041   9.845   2.201 -0.3635 -0.2548 -0.3572
  390MOL0     H51415  10.300   9.896   2.648 -0.2833  0.2833  0.1183
  390MOL0     H51416  10.412  10.095   2.781 -0.2966  2.7331 -0.6699
  390MOL0     H51417  10.784  10.293   2.634  2.7741  0.2585  0.2321
  390MOL0     H51418  10.818  10.130   2.708 -2.1117 -1.6830  1.5626
  390MOL0     H51419  10.902  10.324   2.845 -0.1988 -2.0588 -1.7054
  390MOL0     H51420  10.772  10.230   2.928 -2.7356  2.0805  0.8670
  390MOL0     H51421  10.699  10.460   2.780 -1.4150 -0.7048  0.1146
  390MOL0     H51422  10.768  10.502   2.933  0.1024 -0.0417  1.0358
  390MOL0     H51423  10.557  10.277   2.940  1.1767 -0.4325  0.0575
  390MOL0     H51424  10.613  10.400   3.053  1.3037  1.6317 -0.9839
  390MOL0     H51425  10.517  10.576   2.885  2.0951 -0.5427 -1.5512
  390MOL0     H51426  10.420  10.490   3.009 -0.0244 -0.4891 -0.5285
  390MOL0     H51427  10.361  10.332   2.777 -4.1615  0.6991  1.6474
  390MOL0     H51428  10.455  10.464   2.705  1.4831 -1.2553  1.3799
  390MOL0     H51429  10.198  10.493   2.877  0.5934  2.1791  1.8591
  390MOL0     H51430  10.297  10.625   2.817 -3.6367  1.0347 -0.2103
  390MOL0     H51431  10.233  10.535   2.571 -4.2039  0.3452 -1.1880
  390MOL0     H51432  10.117  10.616   2.670  0.1476  1.1520 -5.5188
  390MOL0     H51433  10.229  10.261   2.559  0.6467 -0.8393 -0.4977
  390MOL0     H51434  10.092  10.020   2.621  0.4338 -0.2310 -1.8733
  390MOL0     H51435   9.975  10.069   2.493  1.4250  2.7152  0.1789
  390MOL0     H51436   9.798  10.087   2.695 -0.7864 -2.8825  1.2533
  390MOL0     H51437   9.915  10.026   2.796  1.1529 -1.9080 -0.3609
  390MOL0     H51438   9.931   9.823   2.633  0.4263  1.2665 -2.4437
  390MOL0     H51439   9.779   9.841   2.726 -1.6266 -1.6046 -1.8177
  390MOL0     H51440   9.741   9.782   2.488  3.8355 -1.4139  3.0266
  390MOL0     H51441   9.811   9.935   2.432  0.1007  4.0162  1.8088
  390MOL0     H51442   9.389  10.066   2.545 -0.8647 -2.4654  1.0914
  390MOL0     H51443   9.234  10.078   2.346  0.1472  0.1402 -0.7882
  390MOL0     H51444   8.928   9.949   2.008  0.4650 -0.1958 -0.7606
  390MOL0     H51445   8.806  10.038   1.841  0.5242 -0.5999  0.2213
  390MOL0     H51446   8.674  10.201   1.679 -0.5761  1.2773 -0.6939
  390MOL0     H51447   8.800  10.089   1.620 -0.1837  0.3944  1.6022
  390MOL0     H51448   8.841  10.300   1.447  1.2081  0.4534  0.9898
  390MOL0     H51449   8.685  10.350   1.515  0.4015 -1.5663  0.3453
  390MOL0     H51450   8.593  10.123   1.441  1.1788 -2.2444 -1.0155
  390MOL0     H51451   8.741  10.109   1.350  0.3374 -2.0760  3.6205
  390MOL0     H51452   8.698  10.343   1.258 -0.6386 -0.7816 -0.6300
  390MOL0     H51453   8.591  10.225   1.190  2.5502 -0.1119 -1.0444
  390MOL0     H51454   8.469  10.421   1.226  1.2660  0.3541 -0.4884
  390MOL0     H51455   8.514  10.440   1.392  2.4259  1.0433 -2.0696
  390MOL0     H51456   8.377  10.239   1.468 -3.5848  0.7469  1.1437
  390MOL0     H51457   8.350  10.194   1.300  1.2175 -0.8612  1.2575
  390MOL0     H51458   8.263  10.469   1.326 -0.6609  1.0246 -0.7141
  390MOL0     H51459   8.174  10.335   1.275  0.1179  0.8486  0.1661
  390MOL0     H51460   8.139  10.278   1.525 -1.1990  0.9778  2.6981
  390MOL0     H51461   8.084  10.440   1.483 -1.9708 -2.1523 -1.3735
  390MOL0     H51462   9.100  10.353   1.791 -1.4435  1.1632 -1.3411
  390MOL0     H51463   9.240  10.236   1.960 -0.5228 -0.2580  0.0103
  390MOL0     H51464   9.479   9.801   2.139 -1.5990 -1.0666  0.7348
  390MOL0     H51465   9.645   9.814   2.306 -0.2379 -1.0846 -0.3770
  390MOL0     H51466  10.694  10.117   2.465 -0.8212 -0.8884 -2.1125
  390MOL0     H51467  10.552   9.963   2.328 -2.1176  2.3819 -0.6427
  390MOL0     H51468  10.152   9.668   2.466  0.1635 -0.0673 -0.0909
  390MOL0     H51469   9.956   9.552   2.423  2.8706  0.2047 -0.2621
  390MOL0     H51470   9.793   9.425   2.355 -1.5949 -0.0073 -0.1112
  390MOL0     H51471   9.873   9.422   2.199  0.0456  1.1200 -1.5444
  390MOL0     H51472   9.573   9.418   2.213  1.3165  2.2506  2.3098
  390MOL0     H51473   9.666   9.427   2.066 -6.1745 -1.8357 -1.3572
  390MOL0     H51474   9.678   9.203   2.256  0.1939  2.3355  0.2018
  390MOL0     H51475   9.782   9.212   2.113 -0.1008 -1.8096 -0.3240
  390MOL0     H51476   9.596   9.055   2.077  0.6706  0.5940  0.4694
  390MOL0     H51477   9.486   9.181   2.130  1.9806 -2.9461  4.7433
  390MOL0     H51478   9.595   9.191   1.709 -1.9203 -0.8881  0.0096
  390MOL0     H51479   9.860   9.809   2.095  0.9528  0.0413 -0.5823
  390MOL0     H51480  10.071   9.933   2.145  0.7248  1.6479  2.9705
  391MOL0     O51481   3.370   3.186   2.688  0.8466  0.0911  0.2124
  391MOL0     C51482   3.341   3.250   2.797  0.0768  0.0259  0.7189
  391MOL0     O51483   3.229   3.263   2.859 -0.4051  0.0054 -0.0883
  391MOL0     C51484   3.120   3.247   2.781  0.3844  0.0911  0.2386
  391MOL0     C51485   3.014   3.180   2.831  0.4305  0.5930  0.0754
  391MOL0     C51486   2.895   3.167   2.761 -0.0700 -0.1891  0.1225
  391MOL0     C51487   2.878   3.236   2.635 -0.3881  0.6111 -0.9367
  391MOL0     O51488   2.755   3.227   2.577 -0.1864  0.1116  0.0098
  391MOL0     C51489   2.720   3.299   2.458  0.5001 -0.1370  0.0226
  391MOL0     C51490   2.570   3.277   2.442  0.8859 -0.4104  0.3557
  391MOL0     C51491   2.521   3.349   2.311  0.3772 -0.2184  0.4413
  391MOL0     C51492   2.544   3.267   2.182 -0.3854 -0.2462 -0.1789
  391MOL0     C51493   2.451   3.147   2.186  0.8857 -0.5757  0.5421
  391MOL0     C51494   2.423   3.096   2.043  0.7138 -0.4005 -0.2802
  391MOL0     C51495   2.372   2.948   2.042 -0.1288  0.2042 -0.8254
  391MOL0     C51496   2.324   2.905   1.901 -0.1311 -0.5116  0.7229
  391MOL0     N51497   2.219   2.993   1.854  0.7549 -0.1099  0.6633
  391MOL0     C51498   2.079   3.001   1.884  0.6664  0.1841 -0.7103
  391MOL0     C51499   2.038   3.120   1.831 -0.5634  0.2255  0.1129
  391MOL0     C51500   1.903   3.190   1.854  0.5914 -0.1554  0.4113
  391MOL0     C51501   1.812   3.152   1.743  0.1719  0.2066  0.7344
  391MOL0     C51502   1.667   3.210   1.748  0.9034 -0.3406 -0.3976
  391MOL0     C51503   1.574   3.114   1.669 -0.7538 -0.5738  0.0776
  391MOL0     O51504   1.533   3.000   1.755 -0.2956  0.1330  0.0807
  391MOL0     C51505   1.407   2.945   1.728 -0.1065 -0.6184  0.2459
  391MOL0     C51506   1.344   2.942   1.601  0.5111  0.2886 -0.6586
  391MOL0     C51507   1.228   2.872   1.577  0.0448  0.1009 -0.3223
  391MOL0     C51508   1.160   2.817   1.686  0.7585  0.5424  0.2468
  391MOL0     C51509   1.025   2.755   1.669 -0.2526 -0.6147  0.3749
  391MOL0     O51510   0.982   2.726   1.533 -0.9752 -0.8225 -0.1142
  391MOL0     C51511   0.864   2.654   1.519 -0.6069 -0.6388 -1.1320
  391MOL0     C51512   0.745   2.709   1.578  0.8275  0.0427  0.4808
  391MOL0     C51513   0.629   2.645   1.550  1.0210 -0.1225  0.8222
  391MOL0     C51514   0.624   2.531   1.466  0.3100  0.3286 -0.4535
  391MOL0     O51515   0.509   2.468   1.421 -0.0312  0.2305  0.8697
  391MOL0     C51516   0.376   2.490   1.491  0.6743 -0.1950  0.2954
  391MOL0     C51517   0.276   2.386   1.440  0.4707 -0.4567  0.9644
  391MOL0     C51518   0.146   2.391   1.512  0.0705 -0.8064  0.1924
  391MOL0     C51519   0.044   2.291   1.472  0.4010 -0.4172  0.0085
  391MOL0     C51520  -0.092   2.300   1.540  0.5716  1.6575  0.0586
  391MOL0     C51521  -0.179   2.171   1.514 -0.0813  0.2706 -0.9137
  391MOL0     C51522  -0.318   2.189   1.572  0.3844 -0.6624  0.4253
  391MOL0     C51523  -0.383   2.049   1.580  0.4335  0.0865 -0.5073
  391MOL0    Cl51524  -0.540   2.066   1.666 -0.2812  0.0399 -0.0159
  391MOL0     C51525   0.740   2.471   1.420 -0.0396  0.3264  0.9457
  391MOL0     C51526   0.863   2.539   1.438  0.4995 -0.4495  0.5056
  391MOL0     O51527   0.954   2.744   1.764  0.1442 -0.1735 -0.4236
  391MOL0     C51528   1.215   2.822   1.811 -0.6976  0.3813  0.4488
  391MOL0     C51529   1.334   2.885   1.832 -0.2988  0.2769 -0.3616
  391MOL0     N51530   2.143   3.177   1.760 -0.7255  0.0551 -0.5029
  391MOL0     N51531   2.239   3.095   1.758  0.3865 -0.1725 -0.7786
  391MOL0     C51532   2.989   3.311   2.584  0.9812 -0.1361 -0.2598
  391MOL0     C51533   3.108   3.318   2.661  0.4702  0.1484 -0.3624
  391MOL0     C51534   3.453   3.302   2.871  0.0336 -0.5664  0.1624
  391MOL0     C51535   3.439   3.382   2.993 -0.0637  0.9736  0.4130
  391MOL0     C51536   3.546   3.438   3.054  0.0512 -0.1403  0.2678
  391MOL0     C51537   3.670   3.416   3.000 -0.6513  0.5490  0.9902
  391MOL0     O51538   3.770   3.471   3.066 -0.1416 -0.7359  0.8253
  391MOL0     C51539   3.910   3.450   3.019 -0.4905  0.3413 -1.1662
  391MOL0     C51540   4.005   3.529   3.106 -0.1613 -0.2459 -0.7356
  391MOL0     C51541   4.147   3.502   3.060 -0.3036  0.5221 -0.1169
  391MOL0     C51542   4.203   3.364   3.093  0.4599  1.0256 -0.2537
  391MOL0     C51543   4.338   3.359   3.055  0.1736 -0.2875 -0.0237
  391MOL0     C51544   4.451   3.371   3.016  0.0432  1.0162  0.5363
  391MOL0     C51545   3.680   3.358   2.869 -1.0816  0.7413 -0.6689
  391MOL0     C51546   3.577   3.300   2.802 -0.7602 -0.0559  0.4123
  391MOL0     H51547   3.036   3.142   2.930  2.7008  3.1632  0.6897
  391MOL0     H51548   2.812   3.106   2.794  1.7507 -2.9478 -0.0968
  391MOL0     H51549   2.775   3.262   2.371 -1.3732  0.1711 -1.3389
  391MOL0     H51550   2.734   3.406   2.473 -2.6324  0.3702 -0.0592
  391MOL0     H51551   2.507   3.313   2.523  1.0745 -3.2912  1.9152
  391MOL0     H51552   2.550   3.169   2.432  1.1493 -0.3187 -1.5795
  391MOL0     H51553   2.578   3.442   2.296 -0.0439  0.1851  1.2772
  391MOL0     H51554   2.417   3.372   2.337  0.5281 -0.0550  0.9209
  391MOL0     H51555   2.513   3.325   2.094 -1.8694  0.7995  0.9861
  391MOL0     H51556   2.642   3.219   2.177  0.0428  0.7015 -1.5063
  391MOL0     H51557   2.355   3.168   2.234  0.3989 -0.9168 -0.2571
  391MOL0     H51558   2.493   3.072   2.253 -0.0735  1.1359  3.1991
  391MOL0     H51559   2.514   3.096   1.983  0.2875  1.3702 -0.9933
  391MOL0     H51560   2.362   3.165   1.984  1.8057 -0.2143 -1.2327
  391MOL0     H51561   2.454   2.883   2.075 -0.1547  0.7145  0.2942
  391MOL0     H51562   2.289   2.935   2.112  0.0176  0.8745 -0.5154
  391MOL0     H51563   2.282   2.806   1.920  2.3906 -1.1704  3.8074
  391MOL0     H51564   2.407   2.912   1.829 -0.3928  0.6686  0.5156
  391MOL0     H51565   2.032   2.955   1.969  3.7555  1.8164  2.1313
  391MOL0     H51566   1.917   3.299   1.857 -3.6976  0.5345  1.7484
  391MOL0     H51567   1.852   3.158   1.945 -1.1752 -0.3534 -0.6097
  391MOL0     H51568   1.802   3.043   1.734  0.9263  0.2205 -0.5516
  391MOL0     H51569   1.864   3.188   1.654 -1.4236 -0.6066 -0.5910
  391MOL0     H51570   1.634   3.228   1.851 -1.0292  1.1468 -1.2168
  391MOL0     H51571   1.662   3.308   1.701 -2.9891  0.6045  1.6130
  391MOL0     H51572   1.634   3.069   1.589 -0.6279  0.2318 -0.2887
  391MOL0     H51573   1.492   3.180   1.640 -0.9253 -0.2675  1.2057
  391MOL0     H51574   1.379   3.003   1.518 -1.4442  1.3278 -0.7769
  391MOL0     H51575   1.211   2.854   1.472  1.3464  0.4968 -0.6186
  391MOL0     H51576   0.737   2.797   1.640 -1.8192  0.5426 -0.4560
  391MOL0     H51577   0.537   2.692   1.584  0.3611 -0.9800  0.2848
  391MOL0     H51578   0.344   2.594   1.479 -1.5966 -0.9684 -0.8480
  391MOL0     H51579   0.386   2.472   1.598 -0.9415  0.1545  0.5256
  391MOL0     H51580   0.319   2.289   1.466  0.0310 -0.8812  0.1636
  391MOL0     H51581   0.268   2.393   1.331  2.1264  1.5410  0.9123
  391MOL0     H51582   0.104   2.489   1.489 -1.4859 -2.0963 -3.0444
  391MOL0     H51583   0.172   2.381   1.618 -1.8792  2.2438  1.0555
  391MOL0     H51584   0.032   2.296   1.363 -3.5338  2.5477  0.3630
  391MOL0     H51585   0.086   2.197   1.509  0.3654 -0.4458 -0.0248
  391MOL0     H51586  -0.146   2.391   1.513 -0.1142  1.1957 -0.1607
  391MOL0     H51587  -0.077   2.312   1.648  0.6775 -1.1675  0.4487
  391MOL0     H51588  -0.136   2.082   1.561  1.0081  1.4760  0.5190
  391MOL0     H51589  -0.192   2.142   1.410 -0.6712 -0.2584 -0.6979
  391MOL0     H51590  -0.317   2.231   1.673  2.0694  2.4879 -0.7785
  391MOL0     H51591  -0.374   2.263   1.515 -0.1527 -1.6988 -0.4453
  391MOL0     H51592  -0.323   1.975   1.634 -0.0936  0.5316  0.7289
  391MOL0     H51593  -0.409   2.014   1.480  1.2190  0.6940 -0.9271
  391MOL0     H51594   0.734   2.379   1.362 -0.9149  0.5112  0.7285
  391MOL0     H51595   0.954   2.500   1.394  0.5390  0.7538 -0.5435
  391MOL0     H51596   1.165   2.778   1.897  0.7744 -0.3783  0.9529
  391MOL0     H51597   1.367   2.882   1.936 -1.7033 -0.3670  0.0817
  391MOL0     H51598   2.980   3.375   2.498 -0.5355  3.4897  2.3378
  391MOL0     H51599   3.184   3.389   2.630 -0.3449  0.5572 -1.5210
  391MOL0     H51600   3.343   3.389   3.044  1.6956 -0.2025  4.2026
  391MOL0     H51601   3.532   3.496   3.144  1.1026  0.9880 -0.2641
  391MOL0     H51602   3.911   3.491   2.918  0.3353  0.7942 -0.9867
  391MOL0     H51603   3.945   3.346   3.020 -2.3049 -0.3075 -1.3849
  391MOL0     H51604   3.983   3.636   3.104 -1.2843 -0.4082  1.1729
  391MOL0     H51605   3.992   3.497   3.210  0.4915  0.3594 -0.4582
  391MOL0     H51606   4.212   3.578   3.106  1.3376 -0.3697 -0.8512
  391MOL0     H51607   4.159   3.519   2.952 -0.1036 -0.0304 -0.1844
  391MOL0     H51608   4.204   3.345   3.201 -1.8518  1.0515 -0.1816
  391MOL0     H51609   4.138   3.288   3.049  1.3625  0.0120  0.1149
  391MOL0     H51610   4.553   3.373   2.985  0.1573 -1.5953  0.5192
  391MOL0     H51611   3.781   3.358   2.829 -0.6518  4.7750 -0.0940
  391MOL0     H51612   3.602   3.254   2.707  0.8325  0.1846  0.6775
  392MOL0     O51613   7.417   4.543   2.962  0.3432 -0.1175 -0.0024
  392MOL0     C51614   7.454   4.428   2.982  0.4433  0.5263  0.6526
  392MOL0     O51615   7.373   4.319   2.995  1.1367  0.8209 -0.5269
  392MOL0     C51616   7.236   4.342   2.992  0.3043 -0.4614  0.3631
  392MOL0     C51617   7.168   4.391   3.109  0.0657 -0.1329 -0.1132
  392MOL0     C51618   7.039   4.421   3.109  0.4526 -0.5383  1.3777
  392MOL0     C51619   6.964   4.405   2.990 -0.1133 -0.9429  0.8773
  392MOL0     O51620   6.832   4.456   2.983  0.3754 -0.7363 -0.2026
  392MOL0     C51621   6.720   4.362   2.965  0.2826  0.3305 -0.1115
  392MOL0     C51622   6.591   4.451   2.923  0.2034 -0.3796  0.1222
  392MOL0     C51623   6.573   4.590   2.977  0.4236 -0.8632 -0.0048
  392MOL0     C51624   6.470   4.673   2.887  0.0678  0.5681  0.0526
  392MOL0     C51625   6.328   4.656   2.914  0.6542 -0.0811  0.4341
  392MOL0     C51626   6.262   4.755   2.822  0.2740  0.3213 -0.3333
  392MOL0     C51627   6.112   4.727   2.817 -0.3754  0.4092 -1.4241
  392MOL0     C51628   6.028   4.821   2.734  0.0863 -0.8691 -0.3258
  392MOL0     N51629   5.881   4.794   2.747  0.3629  0.7381 -0.0724
  392MOL0     C51630   5.804   4.800   2.865 -0.0448  1.1011  0.9425
  392MOL0     C51631   5.676   4.808   2.830  0.1919 -0.5395 -0.2170
  392MOL0     C51632   5.567   4.821   2.927 -0.0812  0.5875 -0.7192
  392MOL0     C51633   5.438   4.774   2.866  0.1901  0.8542 -0.2246
  392MOL0     C51634   5.366   4.891   2.809 -0.3748  0.3238  1.0912
  392MOL0     C51635   5.255   4.864   2.704  1.0719  0.7110  0.0487
  392MOL0     O51636   5.133   4.917   2.751  0.6825  0.4325 -0.5321
  392MOL0     C51637   5.015   4.855   2.710 -1.4171  0.6704 -0.0804
  392MOL0     C51638   4.987   4.856   2.576 -0.0804  1.0012  0.5740
  392MOL0     C51639   4.867   4.811   2.532 -0.0518 -0.3666 -0.0413
  392MOL0     C51640   4.784   4.741   2.617 -0.3265  1.2068 -0.3709
  392MOL0     C51641   4.662   4.670   2.559  0.2623 -0.7785 -0.9053
  392MOL0     O51642   4.655   4.650   2.423  0.2342 -0.0545  0.6233
  392MOL0     C51643   4.537   4.619   2.359  0.2617  0.1118 -0.3178
  392MOL0     C51644   4.438   4.537   2.413 -0.1012  0.0978  0.4087
  392MOL0     C51645   4.314   4.501   2.352 -0.0396 -0.3292 -0.3537
  392MOL0     C51646   4.285   4.566   2.225 -1.3541  0.6057  0.0956
  392MOL0     O51647   4.173   4.543   2.158  0.3845  0.4680 -0.0575
  392MOL0     C51648   4.073   4.465   2.222  0.1444  0.8243  0.4308
  392MOL0     C51649   3.960   4.436   2.122  1.0850 -0.0131  1.4001
  392MOL0     C51650   3.860   4.345   2.193 -0.0308  0.4115  1.3825
  392MOL0     C51651   3.765   4.422   2.285 -0.1892  0.6059 -0.3736
  392MOL0     C51652   3.610   4.390   2.272 -0.0594  0.3007  0.4357
  392MOL0     C51653   3.533   4.453   2.388 -0.2751 -0.3310 -0.1092
  392MOL0     C51654   3.383   4.415   2.374  0.1838  0.3043  0.3244
  392MOL0     C51655   3.294   4.506   2.455  0.0763  0.0365 -0.1874
  392MOL0    Cl51656   3.133   4.437   2.454 -0.1540  0.0455  0.2668
  392MOL0     C51657   4.378   4.655   2.177  0.2269 -0.5409 -0.3826
  392MOL0     C51658   4.508   4.679   2.233 -0.0924 -0.9094  0.6251
  392MOL0     O51659   4.571   4.647   2.642  0.0586 -0.4591 -0.5187
  392MOL0     C51660   4.819   4.728   2.762  0.2959 -0.9469  0.1002
  392MOL0     C51661   4.939   4.793   2.806  1.1541  0.3837  0.8674
  392MOL0     N51662   5.673   4.801   2.688 -0.8928 -0.0852 -0.1759
  392MOL0     N51663   5.791   4.788   2.645  0.0841 -0.3575 -0.1055
  392MOL0     C51664   7.027   4.359   2.875  0.9245  0.1870 -0.4283
  392MOL0     C51665   7.163   4.321   2.869  0.3193 -0.1083  0.0364
  392MOL0     C51666   7.594   4.390   2.978 -0.4586 -0.5773 -0.2269
  392MOL0     C51667   7.697   4.463   2.909  0.2647 -0.4024  0.2190
  392MOL0     C51668   7.833   4.438   2.909  0.2344  0.5934 -0.2214
  392MOL0     C51669   7.869   4.330   2.991  0.1453  0.4831 -0.2727
  392MOL0     O51670   7.998   4.283   3.001 -0.3319  0.5757  0.4623
  392MOL0     C51671   8.105   4.378   3.003  0.2328 -0.1127 -0.3283
  392MOL0     C51672   8.231   4.313   3.053 -0.0789 -0.1579  0.6957
  392MOL0     C51673   8.230   4.271   3.204 -0.5443  0.2070 -0.7143
  392MOL0     C51674   8.350   4.331   3.276 -0.1522  0.5999 -0.9390
  392MOL0     C51675   8.475   4.264   3.248 -0.9015 -0.1732 -0.7848
  392MOL0     C51676   8.577   4.209   3.235  0.1537 -0.0314 -0.6942
  392MOL0     C51677   7.772   4.252   3.060 -0.5444 -0.9815 -0.2878
  392MOL0     C51678   7.632   4.283   3.056 -0.3089 -0.4004  0.2182
  392MOL0     H51679   7.224   4.403   3.201  0.6778 -1.1546 -0.3323
  392MOL0     H51680   6.990   4.447   3.202 -2.5889  0.3716 -0.3349
  392MOL0     H51681   6.695   4.315   3.061  0.2914 -0.1489 -0.3414
  392MOL0     H51682   6.740   4.282   2.892  1.9328  1.1225 -0.5862
  392MOL0     H51683   6.496   4.406   2.952 -0.3561 -0.5360 -1.8123
  392MOL0     H51684   6.590   4.448   2.813  0.1455 -0.5182  0.1264
  392MOL0     H51685   6.667   4.646   2.980  1.0296 -1.9011  1.0640
  392MOL0     H51686   6.546   4.588   3.084  0.1847  0.2319 -0.0319
  392MOL0     H51687   6.508   4.775   2.901  2.3127 -0.1020 -0.7696
  392MOL0     H51688   6.485   4.652   2.781 -0.4195  1.0721 -0.1261
  392MOL0     H51689   6.299   4.679   3.017  1.5382 -2.7946  1.3843
  392MOL0     H51690   6.296   4.551   2.904  1.3970 -0.4510  1.6617
  392MOL0     H51691   6.299   4.739   2.721  1.8712 -1.9859  0.5319
  392MOL0     H51692   6.283   4.860   2.848 -1.4450  0.6808 -0.2744
  392MOL0     H51693   6.091   4.626   2.780 -0.6441 -0.7280  1.5347
  392MOL0     H51694   6.070   4.729   2.918 -0.5699 -1.5978 -1.4225
  392MOL0     H51695   6.048   4.806   2.628 -3.0673 -0.6314 -1.0666
  392MOL0     H51696   6.043   4.923   2.770  1.6168 -1.8291  2.0439
  392MOL0     H51697   5.846   4.800   2.965  1.1641  0.0544  0.4492
  392MOL0     H51698   5.562   4.926   2.958 -2.1998  0.5423 -0.7875
  392MOL0     H51699   5.593   4.762   3.015 -0.7406  0.9296 -0.2900
  392MOL0     H51700   5.371   4.734   2.943  1.1328 -2.9867 -1.1921
  392MOL0     H51701   5.458   4.694   2.794  0.9520  0.6893  0.1536
  392MOL0     H51702   5.319   4.953   2.886 -1.2342  0.6628  0.3151
  392MOL0     H51703   5.445   4.954   2.768  0.6211 -0.8830  1.0950
  392MOL0     H51704   5.235   4.757   2.695 -2.7097  1.3839 -1.8063
  392MOL0     H51705   5.283   4.897   2.604 -1.0962  1.1489 -0.4624
  392MOL0     H51706   5.057   4.892   2.502 -0.2851  1.1719  0.4625
  392MOL0     H51707   4.826   4.811   2.431 -1.8474  1.0556  0.6238
  392MOL0     H51708   4.465   4.490   2.507  2.4451 -0.7198 -0.6409
  392MOL0     H51709   4.253   4.430   2.406 -1.4739  0.2333 -1.1782
  392MOL0     H51710   4.037   4.528   2.305  2.0162  0.5267  1.5457
  392MOL0     H51711   4.118   4.371   2.254  2.2049  1.0426 -1.5960
  392MOL0     H51712   3.988   4.383   2.031  3.0103 -1.2466  2.6415
  392MOL0     H51713   3.911   4.526   2.083  2.3162 -0.5782 -1.7339
  392MOL0     H51714   3.900   4.249   2.227 -1.2754  0.0881  1.9798
  392MOL0     H51715   3.797   4.305   2.114  1.3967  1.0225 -0.1270
  392MOL0     H51716   3.797   4.404   2.388  0.8541 -1.6576 -1.0262
  392MOL0     H51717   3.760   4.531   2.272 -2.2015  0.6964  0.7737
  392MOL0     H51718   3.602   4.281   2.271 -1.2990  0.3462 -1.8098
  392MOL0     H51719   3.577   4.421   2.172  1.0926  0.8051  0.2002
  392MOL0     H51720   3.539   4.562   2.382  1.3888 -0.3289  0.9004
  392MOL0     H51721   3.569   4.430   2.489 -0.4029 -0.3604 -0.0701
  392MOL0     H51722   3.352   4.407   2.269  0.4340 -1.4140  0.3480
  392MOL0     H51723   3.364   4.317   2.420 -1.0847 -1.4185 -3.4381
  392MOL0     H51724   3.283   4.608   2.417 -0.0039 -0.6326 -2.0903
  392MOL0     H51725   3.345   4.510   2.552  0.9036 -2.1946 -0.4720
  392MOL0     H51726   4.348   4.683   2.077 -2.0259 -1.9618 -0.1916
  392MOL0     H51727   4.575   4.738   2.172 -1.9862  0.6830 -0.0169
  392MOL0     H51728   4.760   4.671   2.832 -2.1344 -0.7587 -1.6812
  392MOL0     H51729   4.971   4.781   2.909  0.7963 -1.3797  0.8045
  392MOL0     H51730   6.977   4.328   2.784  2.2097  0.3232 -1.1950
  392MOL0     H51731   7.196   4.285   2.772 -0.2029 -3.1513  0.8924
  392MOL0     H51732   7.660   4.554   2.864 -1.0684  0.7667  3.3771
  392MOL0     H51733   7.907   4.489   2.850 -0.7113  0.1531 -1.8465
  392MOL0     H51734   8.072   4.467   3.057  1.1895 -0.7888  1.4146
  392MOL0     H51735   8.119   4.405   2.897  0.0678 -0.0608 -0.3392
  392MOL0     H51736   8.252   4.227   2.989 -1.7574 -1.4144  1.7477
  392MOL0     H51737   8.314   4.384   3.045 -1.3587  1.5868  1.9965
  392MOL0     H51738   8.235   4.161   3.208 -1.5659  0.1816  0.9764
  392MOL0     H51739   8.135   4.292   3.255 -0.9997 -2.6704 -0.1544
  392MOL0     H51740   8.352   4.440   3.268 -1.1436  1.1475  3.5760
  392MOL0     H51741   8.331   4.318   3.383 -0.9858  0.5416 -1.0869
  392MOL0     H51742   8.673   4.165   3.215 -0.3492 -2.6058  1.9251
  392MOL0     H51743   7.822   4.166   3.103  2.3759  1.2764  1.1967
  392MOL0     H51744   7.555   4.235   3.115 -0.2168  0.5567  1.1461
  393MOL0     O51745   7.444   9.805   7.039  0.2480 -0.1061  0.0903
  393MOL0     C51746   7.464   9.712   7.114 -0.3165  0.0906 -0.6624
  393MOL0     O51747   7.388   9.604   7.121 -0.6187 -0.2696 -0.1642
  393MOL0     C51748   7.274   9.604   7.045  0.7656  0.1496 -0.0855
  393MOL0     C51749   7.272   9.547   6.916 -0.1339 -0.1932 -0.2882
  393MOL0     C51750   7.139   9.536   6.856  0.4522  0.3597 -0.7245
  393MOL0     C51751   7.021   9.587   6.918 -0.2018  0.2158 -0.1091
  393MOL0     O51752   6.904   9.567   6.845 -0.3787 -0.2748 -0.7279
  393MOL0     C51753   6.798   9.659   6.865  0.5893 -0.4006 -0.8443
  393MOL0     C51754   6.682   9.600   6.799  0.2074 -0.1751  0.2386
  393MOL0     C51755   6.543   9.676   6.813  0.9528 -0.4165 -0.8496
  393MOL0     C51756   6.449   9.626   6.698  0.4785  0.4457 -0.2399
  393MOL0     C51757   6.314   9.709   6.709  0.2219 -0.0427 -0.1750
  393MOL0     C51758   6.215   9.660   6.601  0.0900 -0.7562 -0.8391
  393MOL0     C51759   6.091   9.747   6.600 -0.4742 -0.1275  0.5639
  393MOL0     C51760   5.993   9.708   6.492 -0.0384  0.5196  0.4463
  393MOL0     N51761   5.854   9.767   6.504  0.0684 -0.9195 -0.9278
  393MOL0     C51762   5.728   9.711   6.532 -0.3104  0.0445 -0.7268
  393MOL0     C51763   5.629   9.801   6.496  0.5848  0.0315 -0.1075
  393MOL0     C51764   5.490   9.785   6.531  0.8083  0.2474  0.8667
  393MOL0     C51765   5.393   9.827   6.414  0.6042  0.2629  0.3661
  393MOL0     C51766   5.258   9.858   6.465  0.4915 -0.3535  0.0644
  393MOL0     C51767   5.168   9.740   6.489 -0.5119  0.0018 -0.1168
  393MOL0     O51768   5.097   9.689   6.373  0.6311 -0.3214 -0.0195
  393MOL0     C51769   4.967   9.737   6.346 -0.3826 -0.7251  0.5930
  393MOL0     C51770   4.887   9.837   6.407 -0.4625  1.2991 -0.2377
  393MOL0     C51771   4.754   9.853   6.375  0.2107  0.0999  0.1751
  393MOL0     C51772   4.705   9.799   6.255  0.0922  0.1097 -0.7816
  393MOL0     C51773   4.567   9.817   6.211 -0.5134  0.5066 -0.3589
  393MOL0     O51774   4.542   9.776   6.086  0.6049  0.3821 -0.9540
  393MOL0     C51775   4.414   9.773   6.041  0.1591 -0.3317  0.1959
  393MOL0     C51776   4.377   9.856   5.934  0.5147 -1.2510 -0.3045
  393MOL0     C51777   4.251   9.842   5.883  0.4697  0.2723  0.1568
  393MOL0     C51778   4.153   9.758   5.936  1.1338  0.6926 -0.2771
  393MOL0     O51779   4.020   9.749   5.897 -0.2049 -0.1095  0.1824
  393MOL0     C51780   3.985   9.806   5.769 -0.2115 -0.2456 -0.0900
  393MOL0     C51781   3.833   9.767   5.756 -0.1993  0.2498  1.1384
  393MOL0     C51782   3.811   9.616   5.735 -0.3436 -0.1865 -0.1030
  393MOL0     C51783   3.664   9.578   5.692 -0.4067  0.9176 -0.6752
  393MOL0     C51784   3.632   9.435   5.725 -0.9929 -0.1731  0.0022
  393MOL0     C51785   3.482   9.413   5.708  0.9271  0.1915  0.1552
  393MOL0     C51786   3.459   9.263   5.702 -0.7473  0.1699  0.4210
  393MOL0     C51787   3.308   9.224   5.687 -0.2989  0.2088  0.2866
  393MOL0    Cl51788   3.209   9.323   5.815 -0.0562 -0.2322  0.5073
  393MOL0     C51789   4.191   9.681   6.040  0.5061  0.0276 -0.3377
  393MOL0     C51790   4.316   9.680   6.090  0.0707  0.5124 -0.0629
  393MOL0     O51791   4.488   9.870   6.289  0.0280  0.3805  0.4649
  393MOL0     C51792   4.791   9.711   6.182  0.5674  0.0036  0.1737
  393MOL0     C51793   4.910   9.675   6.237 -0.5438  0.7680  0.2813
  393MOL0     N51794   5.693   9.902   6.431  0.4351  0.1082 -0.1150
  393MOL0     N51795   5.822   9.879   6.437 -0.3977 -0.1841 -0.0852
  393MOL0     C51796   7.034   9.636   7.046 -0.1127  0.0744  0.2975
  393MOL0     C51797   7.156   9.644   7.109  0.2856  0.6820 -0.2358
  393MOL0     C51798   7.583   9.708   7.215  1.4508 -0.6482  0.7738
  393MOL0     C51799   7.568   9.637   7.336 -0.1824  0.6770 -0.4615
  393MOL0     C51800   7.684   9.632   7.425  0.3046 -1.3011 -1.3617
  393MOL0     C51801   7.788   9.724   7.404 -0.3011 -0.5048  0.8383
  393MOL0     O51802   7.893   9.749   7.485 -0.8789  0.1295  0.1281
  393MOL0     C51803   7.882   9.675   7.610  0.3312 -0.5467  0.0731
  393MOL0     C51804   8.008   9.722   7.694  0.7170 -0.2313  0.0855
  393MOL0     C51805   8.145   9.708   7.624 -0.3173  0.0656  0.3133
  393MOL0     C51806   8.245   9.772   7.717  0.1236  0.4141  0.7274
  393MOL0     C51807   8.239   9.722   7.850 -1.1537 -0.3689  0.1771
  393MOL0     C51808   8.236   9.696   7.967  0.2034 -0.0900  0.3990
  393MOL0     C51809   7.790   9.811   7.290 -0.0532  0.3247  0.8247
  393MOL0     C51810   7.693   9.788   7.190  0.4320  0.1327 -0.1990
  393MOL0     H51811   7.365   9.515   6.870  1.9049  0.2155  3.1968
  393MOL0     H51812   7.127   9.486   6.761 -1.8853 -0.8951  0.1449
  393MOL0     H51813   6.815   9.761   6.829  0.8247 -0.4044 -0.7517
  393MOL0     H51814   6.772   9.686   6.968  2.6399  3.1519 -1.0798
  393MOL0     H51815   6.660   9.500   6.836  2.2058 -1.3609 -1.5716
  393MOL0     H51816   6.688   9.591   6.690 -2.0801  0.7084 -0.0241
  393MOL0     H51817   6.559   9.783   6.820  0.9776 -0.5457  1.7428
  393MOL0     H51818   6.493   9.656   6.908  0.8366 -0.6071 -0.9494
  393MOL0     H51819   6.488   9.640   6.597 -2.2211 -0.3556 -1.4767
  393MOL0     H51820   6.431   9.519   6.706  2.7775 -0.0475 -0.9901
  393MOL0     H51821   6.332   9.817   6.697 -1.0265 -0.0954 -4.0662
  393MOL0     H51822   6.269   9.703   6.808  0.8963  2.1430  0.3187
  393MOL0     H51823   6.176   9.561   6.628  0.9045 -0.7423  0.4648
  393MOL0     H51824   6.256   9.653   6.500 -0.4605  0.2330 -1.1403
  393MOL0     H51825   6.032   9.750   6.692 -0.7467  2.4871  0.4025
  393MOL0     H51826   6.128   9.845   6.568 -1.4657 -0.7541 -3.0037
  393MOL0     H51827   5.980   9.600   6.494 -0.4614  0.5385 -0.4004
  393MOL0     H51828   6.029   9.740   6.394 -4.1173  0.7844 -1.1944
  393MOL0     H51829   5.709   9.616   6.582  1.5949  0.7208  1.4465
  393MOL0     H51830   5.470   9.847   6.619  0.2135  0.4374  0.6014
  393MOL0     H51831   5.477   9.682   6.564 -0.0417  1.0973  3.3504
  393MOL0     H51832   5.375   9.758   6.331  0.0370 -0.0905  0.7781
  393MOL0     H51833   5.439   9.909   6.358  1.3116 -1.4006 -1.5860
  393MOL0     H51834   5.274   9.914   6.557  3.0597 -2.5828  1.0805
  393MOL0     H51835   5.222   9.928   6.388  0.4446 -1.4476 -0.9408
  393MOL0     H51836   5.101   9.755   6.574  2.2299 -2.3268  2.6378
  393MOL0     H51837   5.241   9.665   6.518  1.2832  1.3701 -0.9031
  393MOL0     H51838   4.932   9.882   6.495  1.7999 -0.2894 -0.5163
  393MOL0     H51839   4.690   9.913   6.439  0.0107  0.9170 -0.7593
  393MOL0     H51840   4.450   9.917   5.882 -1.1621  0.3587 -0.8601
  393MOL0     H51841   4.230   9.897   5.791 -1.4432  0.7789  0.8556
  393MOL0     H51842   4.055   9.773   5.692  0.8889  0.8258  0.4140
  393MOL0     H51843   3.986   9.915   5.766  1.7296 -0.0396  2.7803
  393MOL0     H51844   3.795   9.820   5.668  0.6454 -0.1173  0.5369
  393MOL0     H51845   3.783   9.804   5.846  0.0135 -0.3966  1.5301
  393MOL0     H51846   3.835   9.556   5.823 -0.3100 -1.3104 -0.8639
  393MOL0     H51847   3.881   9.588   5.656 -0.6612  0.3249 -0.5754
  393MOL0     H51848   3.592   9.643   5.743  0.7263  1.2707  0.5355
  393MOL0     H51849   3.660   9.602   5.586  1.5468 -1.6653 -1.4359
  393MOL0     H51850   3.668   9.409   5.825  2.5644 -1.0335 -1.3404
  393MOL0     H51851   3.681   9.373   5.650 -2.3545 -0.5422 -0.6143
  393MOL0     H51852   3.450   9.469   5.619  3.9141  2.2474  0.2310
  393MOL0     H51853   3.425   9.449   5.794 -2.1003 -1.8819 -0.7920
  393MOL0     H51854   3.521   9.218   5.624 -0.5256 -0.4746  0.9612
  393MOL0     H51855   3.510   9.210   5.783  1.6756 -0.8873 -1.6730
  393MOL0     H51856   3.293   9.117   5.674  4.2502 -0.4494 -1.4013
  393MOL0     H51857   3.275   9.274   5.595  2.1134 -1.1853 -1.4284
  393MOL0     H51858   4.116   9.625   6.094 -0.5411  0.1414 -1.6052
  393MOL0     H51859   4.355   9.612   6.165 -1.7150 -0.4652  0.0428
  393MOL0     H51860   4.762   9.646   6.100  2.9486 -1.7147  0.5867
  393MOL0     H51861   4.962   9.586   6.204  0.3873  1.3864  0.0364
  393MOL0     H51862   6.956   9.677   7.110 -0.5082  1.6165 -1.1172
  393MOL0     H51863   7.157   9.706   7.198  0.1979  0.3112  0.0254
  393MOL0     H51864   7.476   9.585   7.358 -0.3416 -0.1262 -2.7363
  393MOL0     H51865   7.668   9.571   7.514  1.0613  0.4499  0.0361
  393MOL0     H51866   7.883   9.566   7.601  0.6011 -0.7682  2.2942
  393MOL0     H51867   7.792   9.708   7.663  1.3256  0.2990  1.2820
  393MOL0     H51868   7.992   9.828   7.719 -0.6017 -0.1070 -1.1533
  393MOL0     H51869   7.994   9.672   7.790  0.2720  1.1468  0.7711
  393MOL0     H51870   8.150   9.757   7.527  0.4622  1.6710  1.1275
  393MOL0     H51871   8.170   9.601   7.616 -0.5794  0.0883 -0.8566
  393MOL0     H51872   8.340   9.750   7.668 -2.7307 -2.7736 -4.2126
  393MOL0     H51873   8.223   9.879   7.718  2.4181  0.9530  0.4936
  393MOL0     H51874   8.230   9.660   8.067  0.7880 -1.1403  0.0726
  393MOL0     H51875   7.874   9.875   7.269  1.1511 -0.6398  2.4480
  393MOL0     H51876   7.705   9.844   7.098 -0.9333  0.5556 -0.1467
  394MOL0     O51877   2.003   9.071   1.850 -0.0223 -1.1182  0.2299
  394MOL0     C51878   1.987   9.008   1.744 -0.5990  0.0734  1.0622
  394MOL0     O51879   1.875   8.924   1.718 -1.1644  0.0978 -0.5429
  394MOL0     C51880   1.779   8.919   1.804  0.2225  0.2058  0.3399
  394MOL0     C51881   1.749   8.797   1.867  0.5198 -0.3677  0.0715
  394MOL0     C51882   1.668   8.797   1.978  0.0210 -0.4053  0.1801
  394MOL0     C51883   1.584   8.906   2.022 -0.4705  0.0177 -0.7033
  394MOL0     O51884   1.499   8.891   2.127  0.2244  0.8044 -0.2287
  394MOL0     C51885   1.482   8.774   2.210  0.2269 -0.0423  0.6018
  394MOL0     C51886   1.357   8.787   2.304 -0.0781 -0.3180 -0.2374
  394MOL0     C51887   1.341   8.664   2.383  0.5352 -0.5370 -0.7879
  394MOL0     C51888   1.220   8.665   2.468 -0.4775  0.0759  0.4691
  394MOL0     C51889   1.208   8.569   2.577 -0.0843 -0.0376  0.1904
  394MOL0     C51890   1.087   8.599   2.680 -0.5000  0.5802 -0.2849
  394MOL0     C51891   0.951   8.626   2.598 -0.2478 -0.4775  0.2099
  394MOL0     C51892   0.888   8.503   2.536  0.8878 -0.2076 -0.1745
  394MOL0     N51893   0.803   8.427   2.632 -0.3186 -0.3021  0.4367
  394MOL0     C51894   0.842   8.320   2.700  0.1065 -0.2520  0.1012
  394MOL0     C51895   0.739   8.291   2.781 -0.7783  0.2889  0.5267
  394MOL0     C51896   0.750   8.195   2.891  1.2722  0.4711  0.5173
  394MOL0     C51897   0.788   8.041   2.856  0.0717 -0.9940 -0.0118
  394MOL0     C51898   0.720   7.989   2.734 -1.0903 -0.4316  0.0390
  394MOL0     C51899   0.570   8.000   2.733  0.2900  0.3830  0.4962
  394MOL0     O51900   0.507   7.906   2.830 -0.1890 -0.6621 -0.0984
  394MOL0     C51901   0.371   7.892   2.821  0.5151 -0.0881 -0.5517
  394MOL0     C51902   0.331   7.770   2.872  0.1558 -1.3901 -0.9224
  394MOL0     C51903   0.198   7.734   2.856 -0.1677  0.4882 -1.4963
  394MOL0     C51904   0.097   7.819   2.792  0.3199  0.1620 -1.1208
  394MOL0     C51905  -0.048   7.788   2.779 -0.7245 -0.1604 -0.4047
  394MOL0     O51906  -0.135   7.875   2.716 -0.6771 -0.6969  0.0345
  394MOL0     C51907  -0.259   7.832   2.701  0.7776  0.1002 -0.3191
  394MOL0     C51908  -0.324   7.871   2.585  0.7632  0.5016 -0.3950
  394MOL0     C51909  -0.467   7.859   2.575  0.1340 -0.0219  0.1718
  394MOL0     C51910  -0.545   7.800   2.684  0.1595 -0.1983 -0.3934
  394MOL0     O51911  -0.681   7.774   2.667 -0.0253 -0.0362 -0.0464
  394MOL0     C51912  -0.733   7.654   2.729  0.9400  0.0285  0.4344
  394MOL0     C51913  -0.873   7.623   2.669 -0.2372  0.0662 -0.0471
  394MOL0     C51914  -0.865   7.588   2.528 -0.5240 -0.6889  0.6285
  394MOL0     C51915  -0.891   7.436   2.511  0.2408  0.6035 -0.2731
  394MOL0     C51916  -0.833   7.399   2.374 -0.5526  0.5932 -0.2094
  394MOL0     C51917  -0.874   7.252   2.325 -0.8049  0.3784 -0.8250
  394MOL0     C51918  -1.020   7.218   2.361 -0.2987 -0.4905  0.2073
  394MOL0     C51919  -1.071   7.100   2.281 -0.7029 -1.2428 -1.2273
  394MOL0    Cl51920  -1.248   7.103   2.315  0.0449  0.2811  0.5993
  394MOL0     C51921  -0.477   7.772   2.802 -0.5237  0.2202 -0.0304
  394MOL0     C51922  -0.341   7.783   2.808  0.0300 -0.3098  0.0975
  394MOL0     O51923  -0.075   7.677   2.817 -0.2620  0.0167 -0.5175
  394MOL0     C51924   0.148   7.936   2.733 -0.0137  0.6146  0.2977
  394MOL0     C51925   0.280   7.973   2.758  0.5856  0.3009 -0.0145
  394MOL0     N51926   0.632   8.370   2.749  0.9432 -0.1245  0.3929
  394MOL0     N51927   0.667   8.448   2.651 -0.1601  0.5404  0.4554
  394MOL0     C51928   1.599   9.023   1.948 -0.4182 -0.3870  0.3291
  394MOL0     C51929   1.700   9.029   1.839  1.0780 -0.3117 -0.5547
  394MOL0     C51930   2.079   9.031   1.640 -0.1604 -0.4870 -0.0142
  394MOL0     C51931   2.217   9.029   1.663 -0.7970 -0.1854  0.7419
  394MOL0     C51932   2.307   9.054   1.560  0.6503  0.1579  0.1051
  394MOL0     C51933   2.269   9.048   1.431  0.3982  0.4551  0.3991
  394MOL0     O51934   2.374   9.044   1.337 -0.1999  1.0041  0.4722
  394MOL0     C51935   2.337   9.036   1.196 -0.4521  0.2904  0.5302
  394MOL0     C51936   2.448   9.068   1.096 -0.2047 -0.4773 -0.1054
  394MOL0     C51937   2.504   9.211   1.104  0.7723 -0.0248  0.1194
  394MOL0     C51938   2.417   9.310   1.027  0.3141  0.2750  0.0566
  394MOL0     C51939   2.471   9.439   1.071 -0.2367  0.0383  0.9212
  394MOL0     C51940   2.497   9.552   1.105 -0.5375 -0.2763  0.9914
  394MOL0     C51941   2.125   9.045   1.406 -0.2685  0.0195  0.2759
  394MOL0     C51942   2.035   9.041   1.504  0.2898 -0.3833 -0.2831
  394MOL0     H51943   1.775   8.695   1.840 -1.2325 -0.8068 -0.0908
  394MOL0     H51944   1.649   8.705   2.033 -1.5596  0.7050  1.5741
  394MOL0     H51945   1.581   8.762   2.256 -0.0729  0.9544  1.5662
  394MOL0     H51946   1.467   8.692   2.139  2.6616 -2.6050  2.8381
  394MOL0     H51947   1.264   8.800   2.247 -0.5165 -0.3360  0.4601
  394MOL0     H51948   1.368   8.876   2.367  0.8430 -1.1401  0.8196
  394MOL0     H51949   1.426   8.651   2.450 -0.9122 -2.2375  0.8107
  394MOL0     H51950   1.344   8.576   2.317  0.5598 -2.2956  1.4316
  394MOL0     H51951   1.224   8.761   2.521  1.5390  2.1455 -3.0350
  394MOL0     H51952   1.129   8.663   2.406 -0.5133 -0.7360  0.5402
  394MOL0     H51953   1.306   8.574   2.625  1.6377 -0.3451 -3.0482
  394MOL0     H51954   1.193   8.470   2.534  1.2456  0.1206 -0.6949
  394MOL0     H51955   1.116   8.688   2.737  0.4950 -0.6262  1.1593
  394MOL0     H51956   1.076   8.520   2.754  0.8248  0.3462 -0.3250
  394MOL0     H51957   0.883   8.678   2.666  1.4589  2.6304 -0.2598
  394MOL0     H51958   0.978   8.701   2.524  1.6477 -1.5500 -0.2600
  394MOL0     H51959   0.967   8.443   2.487 -3.4131 -2.3859 -5.5323
  394MOL0     H51960   0.823   8.540   2.457 -2.5024 -1.1223  1.9631
  394MOL0     H51961   0.943   8.281   2.691  0.2714  0.6417 -5.0896
  394MOL0     H51962   0.652   8.187   2.940  1.0702  0.5268  0.1213
  394MOL0     H51963   0.807   8.239   2.973 -0.9620  0.2242  2.3225
  394MOL0     H51964   0.775   7.981   2.946  3.9901 -0.7929  0.8627
  394MOL0     H51965   0.895   8.034   2.837 -0.3943 -2.0927 -2.6959
  394MOL0     H51966   0.749   8.050   2.648 -0.3139 -0.4460  0.2745
  394MOL0     H51967   0.767   7.893   2.709  0.8209  0.1644  1.1452
  394MOL0     H51968   0.524   7.989   2.635  2.2589 -2.5036 -0.2414
  394MOL0     H51969   0.540   8.101   2.763  0.6097  0.7096 -0.2469
  394MOL0     H51970   0.408   7.718   2.928  0.5412  0.1927  0.0987
  394MOL0     H51971   0.150   7.647   2.899 -1.5730  1.0341 -1.8982
  394MOL0     H51972  -0.265   7.914   2.506 -0.1904  0.0029 -1.4139
  394MOL0     H51973  -0.518   7.896   2.487 -0.4251  4.2899  2.0927
  394MOL0     H51974  -0.731   7.677   2.835  0.4816 -0.8744  0.6487
  394MOL0     H51975  -0.667   7.567   2.721 -0.6960 -1.2904  0.8416
  394MOL0     H51976  -0.936   7.713   2.676 -0.6223 -0.1492 -0.7210
  394MOL0     H51977  -0.918   7.548   2.735  0.1153  0.4340  0.6303
  394MOL0     H51978  -0.763   7.607   2.494 -1.1310  1.8732  0.1048
  394MOL0     H51979  -0.935   7.653   2.475  2.6367  1.0869 -1.6760
  394MOL0     H51980  -0.852   7.374   2.591 -0.9596  0.7513  0.4526
  394MOL0     H51981  -0.998   7.414   2.514  0.2332  0.3069 -1.8415
  394MOL0     H51982  -0.724   7.404   2.372 -0.5311  0.0190 -0.7311
  394MOL0     H51983  -0.878   7.470   2.304 -0.4258 -2.1199 -3.3149
  394MOL0     H51984  -0.813   7.183   2.384 -1.5967  0.0655 -0.3551
  394MOL0     H51985  -0.845   7.230   2.222 -0.6900 -2.0820 -0.3298
  394MOL0     H51986  -1.034   7.215   2.470  1.6292  2.1304  0.6421
  394MOL0     H51987  -1.077   7.307   2.332 -1.9926 -1.3387  0.7860
  394MOL0     H51988  -1.030   7.002   2.308  1.1783 -0.8802 -2.6086
  394MOL0     H51989  -1.059   7.123   2.174 -2.9294 -1.7360 -1.6320
  394MOL0     H51990  -0.522   7.739   2.895  3.2080 -1.6570  1.3041
  394MOL0     H51991  -0.305   7.770   2.909 -2.7112 -0.0848  1.1765
  394MOL0     H51992   0.079   8.007   2.691 -0.8271  0.8823  1.9709
  394MOL0     H51993   0.309   8.069   2.717  1.6581  0.5907  1.3455
  394MOL0     H51994   1.529   9.097   1.984 -0.5489  0.6667 -1.9316
  394MOL0     H51995   1.724   9.121   1.788 -0.8076  0.9958  0.7919
  394MOL0     H51996   2.254   9.024   1.765 -0.5568  1.1178  0.7322
  394MOL0     H51997   2.413   9.072   1.577  0.7633  1.2811 -1.5338
  394MOL0     H51998   2.255   9.107   1.180 -2.2892 -2.0459 -1.1247
  394MOL0     H51999   2.298   8.937   1.171  0.4811 -0.2896  1.2947
  394MOL0     H52000   2.534   9.005   1.120  1.8359  2.4062  0.6877
  394MOL0     H52001   2.413   9.045   0.995  0.8314 -1.6587 -0.2239
  394MOL0     H52002   2.596   9.213   1.044  0.9809 -2.0200  0.3094
  394MOL0     H52003   2.521   9.230   1.210 -2.5201  2.2092  0.3756
  394MOL0     H52004   2.425   9.306   0.918  2.0788  1.5771  0.1093
  394MOL0     H52005   2.310   9.303   1.048 -0.1909 -0.6091 -2.4387
  394MOL0     H52006   2.532   9.648   1.139  0.1084 -0.6897  1.5013
  394MOL0     H52007   2.098   9.056   1.302  2.2823  0.5810 -0.3933
  394MOL0     H52008   1.932   9.050   1.471  0.2701  0.2995 -0.0471
  395MOL0     O52009   4.069   5.989   3.380 -0.0379 -0.0333 -0.4578
  395MOL0     C52010   4.041   5.986   3.257  0.1433  0.5984 -0.0812
  395MOL0     O52011   4.125   6.026   3.155  0.4807  0.6231 -0.6589
  395MOL0     C52012   4.240   6.086   3.202 -0.1317  0.4251 -0.2006
  395MOL0     C52013   4.235   6.219   3.227 -0.8967 -0.3402 -0.4579
  395MOL0     C52014   4.350   6.285   3.277 -0.7512  0.1635  0.0596
  395MOL0     C52015   4.481   6.227   3.275 -0.4580 -0.3841  0.9573
  395MOL0     O52016   4.597   6.299   3.286  0.3010  0.4434 -0.3584
  395MOL0     C52017   4.578   6.427   3.356 -0.8550 -0.5460  0.2060
  395MOL0     C52018   4.723   6.458   3.405  0.6318  0.1323  0.0921
  395MOL0     C52019   4.811   6.526   3.301  0.1434  0.0634 -0.7898
  395MOL0     C52020   4.958   6.542   3.357 -0.1438 -0.0429 -0.0961
  395MOL0     C52021   5.032   6.637   3.271  0.6793 -1.0623 -0.7613
  395MOL0     C52022   5.168   6.707   3.311  0.2629 -0.0432 -0.1871
  395MOL0     C52023   5.257   6.624   3.416 -0.2616  0.7036 -0.3615
  395MOL0     C52024   5.394   6.694   3.436 -0.3853 -0.7220 -0.1253
  395MOL0     N52025   5.393   6.831   3.502 -0.5994  0.3892 -0.2475
  395MOL0     C52026   5.417   6.865   3.634 -0.5100  0.3261 -0.5915
  395MOL0     C52027   5.373   6.989   3.648 -0.4831 -0.3233 -0.3425
  395MOL0     C52028   5.350   7.057   3.784 -0.4396  0.8138 -0.1979
  395MOL0     C52029   5.202   7.050   3.817  0.3935  0.4274 -0.4270
  395MOL0     C52030   5.140   6.912   3.828 -0.4212 -0.7118 -0.1119
  395MOL0     C52031   5.020   6.912   3.929 -0.4324  0.0436  0.7132
  395MOL0     O52032   4.964   6.785   3.920  0.5932  0.2975  0.2171
  395MOL0     C52033   4.834   6.770   3.886  0.0565  0.2080 -0.2758
  395MOL0     C52034   4.727   6.856   3.925 -0.4699 -0.4891  0.0759
  395MOL0     C52035   4.592   6.824   3.898 -0.8325 -0.5069 -0.4338
  395MOL0     C52036   4.554   6.708   3.828  0.2993  0.8415 -1.3351
  395MOL0     C52037   4.415   6.682   3.799 -0.2386  0.1162 -0.1514
  395MOL0     O52038   4.328   6.784   3.805 -0.1680  0.2029  0.0812
  395MOL0     C52039   4.187   6.754   3.793 -0.5749 -0.3143 -0.2951
  395MOL0     C52040   4.115   6.723   3.911  0.2569  0.0568 -0.3784
  395MOL0     C52041   3.983   6.688   3.914  0.0602 -0.1829 -0.6578
  395MOL0     C52042   3.913   6.705   3.793 -0.0356  0.3249  0.4216
  395MOL0     O52043   3.777   6.685   3.784  0.3017  0.0770 -0.2723
  395MOL0     C52044   3.697   6.685   3.903 -0.4562  0.0757  0.0042
  395MOL0     C52045   3.551   6.681   3.878  0.7924  0.0005  0.6523
  395MOL0     C52046   3.456   6.710   3.996 -0.4039 -0.1249 -0.1607
  395MOL0     C52047   3.307   6.666   3.987 -0.2692 -0.0245  0.9019
  395MOL0     C52048   3.243   6.663   4.118 -0.0151  0.1067 -0.5357
  395MOL0     C52049   3.262   6.524   4.187 -0.1242 -0.0658 -0.2759
  395MOL0     C52050   3.189   6.516   4.323  0.3085  0.6020  0.0349
  395MOL0     C52051   3.031   6.545   4.329 -0.3650 -0.5938 -0.6777
  395MOL0    Cl52052   3.003   6.719   4.349  0.0942 -0.0568  0.4491
  395MOL0     C52053   3.972   6.732   3.672 -0.3820 -0.1778  0.4161
  395MOL0     C52054   4.111   6.760   3.673 -0.6665  0.7577 -0.1994
  395MOL0     O52055   4.380   6.564   3.780  0.2185  0.0582  0.5456
  395MOL0     C52056   4.659   6.615   3.805 -0.9195 -0.2453  0.4362
  395MOL0     C52057   4.802   6.647   3.825  1.4997 -0.0583  0.6186
  395MOL0     N52058   5.362   7.046   3.525 -0.4450 -0.4562 -0.3022
  395MOL0     N52059   5.375   6.949   3.440  0.0252  0.6378 -0.4755
  395MOL0     C52060   4.473   6.092   3.237  0.0711 -0.1703  0.6492
  395MOL0     C52061   4.358   6.022   3.213  0.1578 -0.2767  0.1871
  395MOL0     C52062   3.902   5.935   3.216 -0.3616 -1.2285 -1.1292
  395MOL0     C52063   3.818   5.893   3.322 -0.0708 -0.2389  0.3105
  395MOL0     C52064   3.702   5.822   3.287  0.6375 -0.0275 -0.2825
  395MOL0     C52065   3.663   5.797   3.156 -0.3453  0.0106  0.2436
  395MOL0     O52066   3.556   5.712   3.139 -0.1084 -0.6960  0.3000
  395MOL0     C52067   3.516   5.662   3.011  1.1099  0.0591 -1.1544
  395MOL0     C52068   3.374   5.597   3.027 -0.1174  0.7554 -0.1332
  395MOL0     C52069   3.258   5.706   3.042 -0.7038 -0.6985  0.1235
  395MOL0     C52070   3.141   5.648   3.113  0.6088 -0.7818  0.4105
  395MOL0     C52071   3.050   5.758   3.136 -0.0937 -1.1796 -0.0354
  395MOL0     C52072   2.974   5.842   3.172 -0.7730 -0.3151 -0.8136
  395MOL0     C52073   3.747   5.853   3.054 -0.2400  0.8470  0.2627
  395MOL0     C52074   3.867   5.921   3.081 -0.0139  0.0033  0.2821
  395MOL0     H52075   4.145   6.279   3.222  0.2597  1.6141  0.9152
  395MOL0     H52076   4.333   6.391   3.292 -2.7284 -0.3255  1.5771
  395MOL0     H52077   4.509   6.420   3.441 -0.6304  3.0018  0.8234
  395MOL0     H52078   4.536   6.497   3.283  0.2115  2.5053  2.3439
  395MOL0     H52079   4.767   6.364   3.441 -0.0248  0.3273  1.4612
  395MOL0     H52080   4.719   6.520   3.495  1.8941 -1.3350  1.2296
  395MOL0     H52081   4.759   6.619   3.277  0.7169  0.4236 -0.6529
  395MOL0     H52082   4.793   6.471   3.208 -5.1461  2.1595 -1.3682
  395MOL0     H52083   4.949   6.571   3.462 -1.2032  0.5281 -0.3248
  395MOL0     H52084   5.013   6.448   3.347  2.4591  1.6245 -3.9822
  395MOL0     H52085   4.969   6.724   3.249  1.0858 -0.9623 -1.5665
  395MOL0     H52086   5.039   6.589   3.173 -4.6246  0.8480 -2.4041
  395MOL0     H52087   5.146   6.804   3.358 -0.1939 -2.6112  5.7970
  395MOL0     H52088   5.230   6.725   3.223  0.9555  1.8810  0.6286
  395MOL0     H52089   5.203   6.608   3.509  0.4153 -0.3182 -0.1292
  395MOL0     H52090   5.286   6.524   3.382  4.2652  1.7812 -0.4317
  395MOL0     H52091   5.439   6.721   3.340  0.1932  1.0689  0.6291
  395MOL0     H52092   5.459   6.629   3.496  1.6257  0.2347 -1.1835
  395MOL0     H52093   5.443   6.801   3.718 -1.4389 -0.6609 -1.0360
  395MOL0     H52094   5.376   7.163   3.775  1.3011  0.7176  2.3953
  395MOL0     H52095   5.401   7.004   3.866 -2.4313  3.1836  2.8106
  395MOL0     H52096   5.154   7.105   3.736  1.3735 -0.8227 -1.9298
  395MOL0     H52097   5.184   7.104   3.910  1.2914 -1.4276  0.9032
  395MOL0     H52098   5.096   6.889   3.731 -1.0560  0.9007 -0.2525
  395MOL0     H52099   5.214   6.837   3.855  3.0252  2.2348 -0.6716
  395MOL0     H52100   4.955   6.992   3.893 -0.0740 -0.0080 -0.0571
  395MOL0     H52101   5.063   6.933   4.027 -0.4507  1.7342  0.3874
  395MOL0     H52102   4.744   6.951   3.974 -0.4302  0.1091 -1.0565
  395MOL0     H52103   4.511   6.887   3.934 -1.1852 -0.5948 -1.0490
  395MOL0     H52104   4.168   6.721   4.006 -1.8581 -1.0451  0.8385
  395MOL0     H52105   3.943   6.662   4.012 -1.1647  4.8119  0.4376
  395MOL0     H52106   3.708   6.783   3.952  0.2606 -1.0936  2.3292
  395MOL0     H52107   3.725   6.595   3.958  0.7886  0.3106 -0.2106
  395MOL0     H52108   3.520   6.587   3.833 -2.4488  2.0732 -1.9889
  395MOL0     H52109   3.526   6.762   3.808  0.6764  0.1179  0.8310
  395MOL0     H52110   3.461   6.817   4.017 -0.6448 -0.7396  3.8932
  395MOL0     H52111   3.499   6.655   4.081  0.5449 -0.2184 -0.6883
  395MOL0     H52112   3.259   6.739   3.921 -0.2525 -1.0509 -0.3018
  395MOL0     H52113   3.296   6.567   3.941  0.7245  0.2800 -0.0424
  395MOL0     H52114   3.135   6.680   4.116 -0.4925 -2.6180 -1.6157
  395MOL0     H52115   3.287   6.742   4.181 -1.2223  1.1702 -0.9737
  395MOL0     H52116   3.364   6.488   4.203 -0.5967 -0.6960  1.4698
  395MOL0     H52117   3.208   6.456   4.121 -4.5031  0.3363  2.5189
  395MOL0     H52118   3.186   6.409   4.344  0.9242  0.7890  1.1252
  395MOL0     H52119   3.243   6.564   4.405  0.2279  0.1920  0.3287
  395MOL0     H52120   2.987   6.494   4.416 -0.6556  0.3751 -0.2489
  395MOL0     H52121   2.982   6.508   4.239 -2.5617 -2.0066  0.9789
  395MOL0     H52122   3.921   6.736   3.576 -0.6465  0.8661  0.5937
  395MOL0     H52123   4.177   6.783   3.589 -1.4183  0.1114 -0.9959
  395MOL0     H52124   4.637   6.522   3.754  3.4164 -1.2837  0.0899
  395MOL0     H52125   4.882   6.588   3.783  1.1812 -0.2643  0.2922
  395MOL0     H52126   4.564   6.036   3.218  0.8916  1.6335 -1.0709
  395MOL0     H52127   4.372   5.916   3.198  1.7406 -0.5430  2.9087
  395MOL0     H52128   3.852   5.909   3.424  1.8289  1.2237 -0.4928
  395MOL0     H52129   3.642   5.775   3.364 -0.7992 -0.5229 -1.6690
  395MOL0     H52130   3.589   5.589   2.975  0.8013 -0.4204 -0.8237
  395MOL0     H52131   3.515   5.740   2.934 -1.4253  1.5153  0.2347
  395MOL0     H52132   3.350   5.539   2.937  0.7986 -1.4935  1.0051
  395MOL0     H52133   3.384   5.535   3.116  2.6278  1.9346  0.4590
  395MOL0     H52134   3.225   5.738   2.943 -3.0206 -1.1220  0.6963
  395MOL0     H52135   3.286   5.801   3.087 -4.1932  0.2516  0.6203
  395MOL0     H52136   3.086   5.592   3.036  0.1466 -1.5274  1.2587
  395MOL0     H52137   3.166   5.595   3.206 -0.3857  2.9551  3.0736
  395MOL0     H52138   2.891   5.904   3.199 -1.4381 -1.5361  0.0392
  395MOL0     H52139   3.732   5.858   2.946 -0.1128  2.7569  0.2895
  395MOL0     H52140   3.937   5.960   3.008 -0.9526 -0.1598 -0.7429
  396MOL0     O52141  10.765   5.004   0.547 -0.2885  0.3609  0.5080
  396MOL0     C52142  10.763   5.035   0.666 -0.7821 -0.9461  0.2347
  396MOL0     O52143  10.658   5.044   0.753  0.4057  0.3756  0.1934
  396MOL0     C52144  10.532   4.993   0.721 -0.6412 -0.2957 -0.3085
  396MOL0     C52145  10.464   4.929   0.825 -0.0013  1.2199 -0.2839
  396MOL0     C52146  10.341   4.882   0.806  0.8532  0.9018 -0.0939
  396MOL0     C52147  10.275   4.894   0.682 -0.0448 -0.5306 -0.2080
  396MOL0     O52148  10.144   4.867   0.656  0.4073 -0.2807 -0.4314
  396MOL0     C52149  10.061   4.840   0.770  1.2650  0.2378  0.1117
  396MOL0     C52150   9.947   4.738   0.726  0.9448 -1.2903 -0.2455
  396MOL0     C52151   9.845   4.785   0.620 -0.5124 -0.1240 -0.3202
  396MOL0     C52152   9.745   4.672   0.606  0.6148 -0.5750  0.2222
  396MOL0     C52153   9.619   4.729   0.532 -0.7494 -0.7217  0.0953
  396MOL0     C52154   9.655   4.773   0.393  1.1233 -0.3026  0.8052
  396MOL0     C52155   9.531   4.783   0.302  0.3130 -0.3047 -0.5840
  396MOL0     C52156   9.563   4.828   0.166 -0.5228 -1.1480 -0.1736
  396MOL0     N52157   9.452   4.841   0.076 -0.1859 -0.3130  0.3433
  396MOL0     C52158   9.460   4.855  -0.066  0.8380 -1.5729 -0.5030
  396MOL0     C52159   9.333   4.880  -0.105  0.6103 -0.5327  0.8527
  396MOL0     C52160   9.290   4.893  -0.253  0.7924  0.0805 -0.6398
  396MOL0     C52161   9.148   4.955  -0.275  0.6402  0.1156 -0.6345
  396MOL0     C52162   9.124   4.988  -0.426 -0.2096 -1.3543  0.9982
  396MOL0     C52163   9.102   4.868  -0.512  0.2950 -0.0218  0.2268
  396MOL0     O52164   9.061   4.916  -0.642  0.1603 -0.4803  0.3190
  396MOL0     C52165   8.981   4.832  -0.725  0.4705 -0.4031 -0.4557
  396MOL0     C52166   8.912   4.896  -0.834 -0.2088 -0.3537 -0.5186
  396MOL0     C52167   8.844   4.825  -0.929  0.0349 -0.4116 -0.2311
  396MOL0     C52168   8.834   4.689  -0.928 -0.5795  0.0157 -0.3017
  396MOL0     C52169   8.775   4.609  -1.030  1.0294 -0.2583 -0.2616
  396MOL0     O52170   8.797   4.475  -1.017  0.2445  0.0952  0.5461
  396MOL0     C52171   8.754   4.392  -1.115 -0.4558 -0.7155  0.4312
  396MOL0     C52172   8.790   4.411  -1.245  0.3785  0.1745 -0.1269
  396MOL0     C52173   8.757   4.329  -1.350 -0.1091  0.3176 -0.9953
  396MOL0     C52174   8.683   4.213  -1.310  0.2813 -0.2337  0.0675
  396MOL0     O52175   8.637   4.120  -1.400  1.2000 -0.2028  0.0173
  396MOL0     C52176   8.607   4.181  -1.528 -0.0188  0.4590 -0.5647
  396MOL0     C52177   8.518   4.087  -1.605  0.1694  0.0388 -0.0874
  396MOL0     C52178   8.595   3.966  -1.663  0.4090 -0.5107 -0.1578
  396MOL0     C52179   8.511   3.862  -1.741 -1.0555 -0.2255  0.1028
  396MOL0     C52180   8.431   3.919  -1.853 -0.0337 -0.4203  0.1210
  396MOL0     C52181   8.355   3.811  -1.917 -0.0532  0.4967  0.3770
  396MOL0     C52182   8.272   3.867  -2.038  1.5655 -0.1601  0.1617
  396MOL0     C52183   8.196   3.749  -2.107 -0.3115 -0.6292  0.3050
  396MOL0    Cl52184   8.091   3.672  -1.974 -0.0988 -0.1577  0.1700
  396MOL0     C52185   8.633   4.198  -1.181  0.6050  0.5835 -0.4427
  396MOL0     C52186   8.669   4.289  -1.080 -0.0494  0.2188 -0.6056
  396MOL0     O52187   8.712   4.669  -1.116 -0.8216  0.4553 -0.2043
  396MOL0     C52188   8.904   4.627  -0.823  0.9294 -0.6764 -1.1318
  396MOL0     C52189   8.985   4.692  -0.729 -0.7891  0.2830 -1.1515
  396MOL0     N52190   9.257   4.886  -0.001 -0.1450 -0.0458 -0.8627
  396MOL0     N52191   9.321   4.865   0.113 -0.0482  0.9289 -0.8510
  396MOL0     C52192  10.345   4.934   0.570 -0.3426 -0.4451 -0.5124
  396MOL0     C52193  10.475   4.989   0.586  0.7640 -0.6494  0.6906
  396MOL0     C52194  10.901   5.064   0.725 -0.5622 -0.5214  0.2737
  396MOL0     C52195  11.011   5.063   0.644  0.4694  0.3755  0.3134
  396MOL0     C52196  11.140   5.076   0.696 -0.5070  0.2119 -0.3190
  396MOL0     C52197  11.153   5.100   0.836  0.0603 -0.1773 -0.2267
  396MOL0     O52198  11.275   5.140   0.892  0.2369 -0.0408 -0.6481
  396MOL0     C52199  11.359   5.225   0.818 -0.6222 -0.3910 -1.4076
  396MOL0     C52200  11.502   5.176   0.828 -0.1717 -0.4911  0.0751
  396MOL0     C52201  11.559   5.193   0.970  0.3256  0.4274  0.4128
  396MOL0     C52202  11.672   5.086   0.989 -0.0541 -0.0802  0.2996
  396MOL0     C52203  11.802   5.120   0.924  0.6497 -0.3991 -0.2521
  396MOL0     C52204  11.897   5.144   0.858 -0.0222  0.4250  0.1043
  396MOL0     C52205  11.040   5.091   0.924  0.1341 -0.0902  0.2540
  396MOL0     C52206  10.913   5.067   0.866  0.6949  0.0112 -0.2556
  396MOL0     H52207  10.514   4.916   0.920  0.5159 -0.2844 -0.7473
  396MOL0     H52208  10.293   4.846   0.896  0.1552  0.4532 -0.6399
  396MOL0     H52209  10.030   4.932   0.821  1.3674 -0.6886  1.9575
  396MOL0     H52210  10.113   4.782   0.847  1.2131  1.5366  1.1710
  396MOL0     H52211   9.898   4.703   0.817 -0.7525  2.6666  0.5520
  396MOL0     H52212   9.988   4.648   0.679  1.1445 -1.6009  0.5097
  396MOL0     H52213   9.907   4.815   0.536  2.3143  0.0299  1.6693
  396MOL0     H52214   9.794   4.872   0.663 -0.4900 -1.3210  2.3823
  396MOL0     H52215   9.775   4.583   0.548 -2.2597 -3.1442  2.3396
  396MOL0     H52216   9.722   4.629   0.704 -0.3685  1.0834  0.7566
  396MOL0     H52217   9.573   4.815   0.580  0.0880 -0.1831 -0.0607
  396MOL0     H52218   9.539   4.658   0.510 -0.6306 -0.5612 -0.9398
  396MOL0     H52219   9.710   4.693   0.343 -0.8293  0.3264 -2.6562
  396MOL0     H52220   9.713   4.865   0.404  2.9120 -1.2547 -0.2313
  396MOL0     H52221   9.476   4.688   0.298  1.6850 -1.1726  0.3259
  396MOL0     H52222   9.468   4.862   0.344  0.3082  0.2874 -1.6697
  396MOL0     H52223   9.638   4.758   0.127 -0.3140 -1.2588  0.4228
  396MOL0     H52224   9.605   4.928   0.183 -2.3604 -1.0955  6.8266
  396MOL0     H52225   9.544   4.849  -0.134  0.4279  0.2057 -1.2184
  396MOL0     H52226   9.291   4.791  -0.293  0.6926 -0.2928  0.2955
  396MOL0     H52227   9.365   4.949  -0.309 -0.8076 -0.1849 -3.2643
  396MOL0     H52228   9.133   5.046  -0.217  0.6107  0.0233 -0.4962
  396MOL0     H52229   9.078   4.874  -0.253 -3.3927  3.4050 -0.0207
  396MOL0     H52230   9.039   5.056  -0.433 -0.3698 -1.6566 -0.1641
  396MOL0     H52231   9.210   5.042  -0.466 -1.8216  1.9634  1.7374
  396MOL0     H52232   9.013   4.821  -0.469  0.8903  0.0574  1.6089
  396MOL0     H52233   9.179   4.790  -0.514 -0.9655 -1.2821  0.0952
  396MOL0     H52234   8.928   5.003  -0.832 -0.6566 -0.2735  2.3825
  396MOL0     H52235   8.806   4.888  -1.009  1.8677  0.2176 -0.6764
  396MOL0     H52236   8.849   4.499  -1.270  0.0294  0.2921 -0.5533
  396MOL0     H52237   8.779   4.369  -1.449 -0.9055  6.0395  0.7678
  396MOL0     H52238   8.699   4.192  -1.586 -0.1887 -0.7205 -1.0926
  396MOL0     H52239   8.566   4.282  -1.532 -1.6254 -0.1414 -0.2035
  396MOL0     H52240   8.475   4.149  -1.684  3.1737  1.5786 -0.6255
  396MOL0     H52241   8.441   4.058  -1.531 -1.9029  0.2459 -2.0507
  396MOL0     H52242   8.642   3.912  -1.580 -1.4481  0.8734  1.9082
  396MOL0     H52243   8.666   4.013  -1.731  0.5637 -0.7391 -0.1538
  396MOL0     H52244   8.584   3.794  -1.785  1.1595  1.8831  0.3437
  396MOL0     H52245   8.461   3.811  -1.658  1.4864  0.7446  2.3869
  396MOL0     H52246   8.502   3.964  -1.922 -1.0268  1.2504  0.1390
  396MOL0     H52247   8.365   3.998  -1.817  1.4732  0.4171  1.1132
  396MOL0     H52248   8.284   3.761  -1.849  0.5448  0.7544  1.2108
  396MOL0     H52249   8.409   3.728  -1.964 -2.4057 -0.6572 -0.4458
  396MOL0     H52250   8.189   3.931  -2.008  0.6014 -1.4460  0.3151
  396MOL0     H52251   8.328   3.913  -2.120 -0.3431  1.2708 -0.4113
  396MOL0     H52252   8.263   3.684  -2.163  0.3564 -0.7486  1.2164
  396MOL0     H52253   8.123   3.781  -2.182 -1.2198 -1.5446  0.7736
  396MOL0     H52254   8.564   4.120  -1.151 -1.5079  2.5070 -0.0324
  396MOL0     H52255   8.633   4.270  -0.980  0.9287  1.5900  0.0408
  396MOL0     H52256   8.915   4.519  -0.821  0.0469 -0.7723 -1.3379
  396MOL0     H52257   9.040   4.632  -0.657 -2.8018  1.3273  1.4050
  396MOL0     H52258  10.293   4.944   0.476 -0.9793  2.7085  0.0623
  396MOL0     H52259  10.520   5.029   0.496 -2.3710 -1.7212 -1.5303
  396MOL0     H52260  11.007   5.058   0.535  1.7553 -0.6348  0.2830
  396MOL0     H52261  11.222   5.067   0.625  0.9991 -2.0058  1.5527
  396MOL0     H52262  11.345   5.323   0.865 -0.6020 -1.3518  0.7226
  396MOL0     H52263  11.333   5.242   0.713  1.1309  4.0898 -1.3511
  396MOL0     H52264  11.505   5.070   0.798 -0.6428  0.0503 -2.0360
  396MOL0     H52265  11.567   5.236   0.764 -1.4557 -1.4309 -2.2167
  396MOL0     H52266  11.477   5.158   1.034  0.7915 -1.1744  0.1900
  396MOL0     H52267  11.603   5.289   0.997  0.8212  0.3829 -0.2351
  396MOL0     H52268  11.697   5.070   1.095 -0.1781 -2.1171  0.0517
  396MOL0     H52269  11.643   4.984   0.963  2.2440 -1.1091  1.4168
  396MOL0     H52270  11.987   5.148   0.799  0.4145 -0.8607  0.6240
  396MOL0     H52271  11.051   5.116   1.028 -3.4739  0.6115  0.6146
  396MOL0     H52272  10.829   5.040   0.930 -0.6834 -0.1279 -2.0398
  397MOL0     O52273   9.907   5.799   2.665 -0.7953 -0.5267  0.6716
  397MOL0     C52274   9.902   5.690   2.717  0.7863  0.3170  0.0873
  397MOL0     O52275   9.805   5.595   2.702 -0.8518  0.3809 -0.3908
  397MOL0     C52276   9.704   5.601   2.603  0.7399  0.5551 -1.0902
  397MOL0     C52277   9.645   5.717   2.559  0.8760 -0.3110  0.0634
  397MOL0     C52278   9.538   5.714   2.473  0.4673 -0.1323 -0.4465
  397MOL0     C52279   9.490   5.597   2.413 -0.3264 -0.6821 -0.4949
  397MOL0     O52280   9.389   5.583   2.329  0.1298 -0.1351 -0.4713
  397MOL0     C52281   9.337   5.706   2.273  0.7500  0.7690 -0.4282
  397MOL0     C52282   9.250   5.682   2.147  0.9004  0.2027 -0.8190
  397MOL0     C52283   9.197   5.814   2.082 -0.4133  0.2736  0.0665
  397MOL0     C52284   9.299   5.853   1.982 -0.2695 -0.0600  0.3161
  397MOL0     C52285   9.261   5.974   1.900  0.7007  0.1046  0.4608
  397MOL0     C52286   9.368   6.006   1.790 -0.1308 -0.6427  0.9413
  397MOL0     C52287   9.352   6.147   1.740  0.2654 -0.5310  0.6986
  397MOL0     C52288   9.220   6.173   1.660 -0.4176 -0.1860 -0.1973
  397MOL0     N52289   9.241   6.295   1.589  0.4570  0.0935  0.0024
  397MOL0     C52290   9.233   6.422   1.647 -0.4004  0.0329  0.5995
  397MOL0     C52291   9.254   6.514   1.550 -0.0960  0.0485 -0.3033
  397MOL0     C52292   9.265   6.662   1.566 -1.1989 -0.3042  0.1075
  397MOL0     C52293   9.142   6.730   1.634  0.1897 -0.0061 -0.3633
  397MOL0     C52294   9.013   6.701   1.567  0.3607 -0.3197  0.0083
  397MOL0     C52295   8.895   6.756   1.643  0.1370 -0.3526 -1.4298
  397MOL0     O52296   8.788   6.733   1.550  0.0472  0.5186  0.0120
  397MOL0     C52297   8.654   6.762   1.579  0.6751 -0.5116  0.9346
  397MOL0     C52298   8.552   6.739   1.487 -0.4792 -0.1474  0.0354
  397MOL0     C52299   8.420   6.756   1.508  0.5085  0.2958 -0.0908
  397MOL0     C52300   8.377   6.807   1.631 -0.1330 -0.2632  0.4170
  397MOL0     C52301   8.232   6.821   1.658 -0.3218  1.3606 -0.7344
  397MOL0     O52302   8.145   6.806   1.556 -0.2451  0.4373  0.3485
  397MOL0     C52303   8.016   6.852   1.582 -0.0938 -0.2592 -0.6156
  397MOL0     C52304   7.918   6.765   1.632  0.5605 -1.1217  0.0216
  397MOL0     C52305   7.789   6.805   1.641  0.9274  0.7788  0.3524
  397MOL0     C52306   7.757   6.936   1.613 -0.6750 -0.0489  0.6628
  397MOL0     O52307   7.627   6.970   1.643  0.4463  0.2814 -0.3876
  397MOL0     C52308   7.577   7.094   1.596  0.0924  0.3819  0.1549
  397MOL0     C52309   7.441   7.116   1.645 -0.1750 -0.1860  0.1881
  397MOL0     C52310   7.345   7.016   1.579  0.5993  0.1868 -0.4357
  397MOL0     C52311   7.195   7.037   1.612 -0.6980  0.0231  0.1815
  397MOL0     C52312   7.103   6.939   1.543 -0.8348  0.2879 -0.7861
  397MOL0     C52313   6.959   6.935   1.616 -1.0776 -0.3466 -0.1575
  397MOL0     C52314   6.857   6.840   1.554 -0.3451  0.1925  0.3292
  397MOL0     C52315   6.717   6.847   1.622 -0.2306  0.7866 -0.5861
  397MOL0    Cl52316   6.627   7.001   1.601  0.2297  0.0354  0.0596
  397MOL0     C52317   7.849   7.027   1.565 -0.4863  0.9973  0.0124
  397MOL0     C52318   7.978   6.980   1.542  0.0839  0.3879 -0.3245
  397MOL0     O52319   8.208   6.854   1.776  0.1410  0.9783  0.1629
  397MOL0     C52320   8.481   6.834   1.727  0.0939  0.0684  0.1457
  397MOL0     C52321   8.612   6.811   1.704 -0.2202 -0.0029  0.4106
  397MOL0     N52322   9.251   6.442   1.433  0.1706 -0.2637  0.2177
  397MOL0     N52323   9.253   6.318   1.455 -0.0999 -0.3353  0.3091
  397MOL0     C52324   9.554   5.484   2.458 -0.6206 -0.1895  0.4368
  397MOL0     C52325   9.656   5.485   2.555  0.0480  0.3293 -0.5529
  397MOL0     C52326  10.007   5.660   2.815 -0.1451 -0.0868 -0.2370
  397MOL0     C52327  10.101   5.755   2.841  0.4938  0.1639  0.0440
  397MOL0     C52328  10.194   5.741   2.946  0.0056  1.0131  0.3347
  397MOL0     C52329  10.207   5.618   3.008 -0.0795 -0.6984 -0.4214
  397MOL0     O52330  10.299   5.584   3.111 -0.3206  0.2921 -0.4584
  397MOL0     C52331  10.403   5.663   3.159 -0.7499 -0.0115  0.8556
  397MOL0     C52332  10.510   5.576   3.215 -0.4068  0.0819 -0.7909
  397MOL0     C52333  10.605   5.516   3.111 -0.0660  0.2880 -0.2389
  397MOL0     C52334  10.726   5.602   3.066  0.2486  0.7224 -0.5253
  397MOL0     C52335  10.840   5.607   3.165  0.4448  0.1841 -0.5074
  397MOL0     C52336  10.929   5.598   3.245 -0.0868 -0.7005 -0.9699
  397MOL0     C52337  10.122   5.515   2.966 -0.2054  0.5810 -0.3832
  397MOL0     C52338  10.028   5.537   2.875  0.2837  0.7514 -0.6121
  397MOL0     H52339   9.675   5.816   2.593 -0.9968  0.0293  0.8442
  397MOL0     H52340   9.497   5.806   2.433  0.8014  0.7847  1.2470
  397MOL0     H52341   9.418   5.772   2.242 -0.5411  1.1983 -3.2260
  397MOL0     H52342   9.267   5.753   2.342 -0.0397 -1.5496  0.4455
  397MOL0     H52343   9.153   5.638   2.174  2.2908 -1.8099  1.2754
  397MOL0     H52344   9.292   5.610   2.076 -0.6637 -1.5353 -0.0630
  397MOL0     H52345   9.197   5.901   2.148  0.4018  0.8103 -0.6186
  397MOL0     H52346   9.096   5.796   2.045 -1.3663  0.2045  2.4936
  397MOL0     H52347   9.389   5.880   2.039 -1.2010  1.9505  0.9203
  397MOL0     H52348   9.345   5.778   1.917  1.7812  2.2783 -1.1087
  397MOL0     H52349   9.245   6.060   1.964 -1.1114  1.8606 -2.1428
  397MOL0     H52350   9.169   5.960   1.843  1.9633  1.1847 -2.0060
  397MOL0     H52351   9.353   5.938   1.705 -2.1832  3.5009 -2.4002
  397MOL0     H52352   9.472   6.005   1.822  0.4037  3.6962 -0.0984
  397MOL0     H52353   9.368   6.222   1.818 -0.8394  0.2476  0.2010
  397MOL0     H52354   9.434   6.172   1.672 -2.5962  2.5905 -1.9872
  397MOL0     H52355   9.139   6.185   1.732  3.1645 -0.0099  4.2264
  397MOL0     H52356   9.209   6.096   1.583 -0.5779  0.8211 -1.2085
  397MOL0     H52357   9.242   6.428   1.755 -1.8669 -1.1364  0.8263
  397MOL0     H52358   9.271   6.713   1.469 -0.7589 -0.4636  0.0504
  397MOL0     H52359   9.362   6.679   1.613  0.6562 -2.9074 -2.3904
  397MOL0     H52360   9.171   6.835   1.641  1.1177 -0.1892 -1.2580
  397MOL0     H52361   9.143   6.684   1.733 -1.1110  1.5750  0.4266
  397MOL0     H52362   9.029   6.743   1.467 -0.5711  0.6268  0.2324
  397MOL0     H52363   8.992   6.594   1.560  1.0059 -0.5187  0.9227
  397MOL0     H52364   8.895   6.865   1.660  1.3363 -0.7225  1.5001
  397MOL0     H52365   8.875   6.706   1.738 -1.0189  1.6610 -0.5342
  397MOL0     H52366   8.578   6.714   1.385  0.9007  1.5714 -0.0989
  397MOL0     H52367   8.350   6.725   1.432 -2.0383  2.5099  1.1729
  397MOL0     H52368   7.954   6.664   1.649 -0.0044 -1.3959 -0.3869
  397MOL0     H52369   7.705   6.738   1.658  0.3919  0.4188 -3.1103
  397MOL0     H52370   7.584   7.089   1.486 -1.2077 -1.4095  0.1082
  397MOL0     H52371   7.626   7.185   1.631 -2.4281  0.0106  5.7549
  397MOL0     H52372   7.411   7.220   1.625 -1.5826 -0.9268 -1.8885
  397MOL0     H52373   7.441   7.096   1.752 -3.7727 -0.6664  0.2303
  397MOL0     H52374   7.373   6.924   1.631 -0.6678 -0.0410 -0.1323
  397MOL0     H52375   7.357   7.005   1.471 -2.1515  0.6960 -0.8626
  397MOL0     H52376   7.177   7.040   1.720 -2.5384 -1.3225 -0.0529
  397MOL0     H52377   7.163   7.140   1.595  2.2589  1.2529  1.2460
  397MOL0     H52378   7.141   6.839   1.521 -2.5131 -0.2101 -1.5980
  397MOL0     H52379   7.093   6.983   1.443  2.0584  1.4858 -0.6400
  397MOL0     H52380   6.920   7.036   1.634 -0.6944 -0.3915  1.0436
  397MOL0     H52381   6.974   6.896   1.717 -2.1462  0.3157  0.2648
  397MOL0     H52382   6.845   6.866   1.448  0.2218  1.5491  0.5742
  397MOL0     H52383   6.902   6.740   1.561  0.6406  0.6776  1.2695
  397MOL0     H52384   6.721   6.822   1.728  0.3248  0.9384 -0.5668
  397MOL0     H52385   6.664   6.771   1.565  1.7956  1.3087 -3.4368
  397MOL0     H52386   7.827   7.133   1.551  4.1005  2.1418 -0.1280
  397MOL0     H52387   8.052   7.054   1.512  0.5460  0.6557  1.3364
  397MOL0     H52388   8.451   6.866   1.826  0.4161  1.2136 -0.1043
  397MOL0     H52389   8.691   6.830   1.776 -1.1840 -0.2573  1.5644
  397MOL0     H52390   9.504   5.394   2.423 -0.7095 -0.4075  1.1120
  397MOL0     H52391   9.706   5.399   2.599  5.5249  2.0390 -2.6635
  397MOL0     H52392  10.110   5.842   2.777 -0.2121 -1.4740 -2.3884
  397MOL0     H52393  10.260   5.823   2.973  1.5284  0.3346 -1.1073
  397MOL0     H52394  10.360   5.734   3.231 -2.0336  0.4630 -0.3368
  397MOL0     H52395  10.449   5.732   3.088 -0.4555 -0.2157  0.8461
  397MOL0     H52396  10.569   5.628   3.292 -1.1465  1.4100 -1.0880
  397MOL0     H52397  10.471   5.492   3.274  0.2514 -1.5783 -2.6093
  397MOL0     H52398  10.543   5.494   3.024 -0.5562 -0.4772  0.2949
  397MOL0     H52399  10.650   5.426   3.153 -2.9223 -1.2509 -0.3044
  397MOL0     H52400  10.763   5.555   2.974  3.3412  0.8087  0.5614
  397MOL0     H52401  10.689   5.701   3.040 -1.4996  0.0429 -0.7153
  397MOL0     H52402  11.015   5.619   3.306 -0.9434  2.0181 -0.5484
  397MOL0     H52403  10.142   5.420   3.013  2.0916  2.0822  1.9408
  397MOL0     H52404   9.967   5.450   2.851  0.1489  0.5205  0.5441
  398MOL0     O52405   6.179   3.182   4.967  0.7974  0.7242 -0.2660
  398MOL0     C52406   6.165   3.307   4.970 -0.1278  0.1078 -0.5894
  398MOL0     O52407   6.052   3.375   4.961 -0.1313 -0.2335  0.6717
  398MOL0     C52408   5.941   3.299   4.926 -0.3497 -0.3592 -1.0169
  398MOL0     C52409   5.885   3.322   4.802 -0.0082  0.3346 -0.3347
  398MOL0     C52410   5.771   3.241   4.760  0.1799 -0.2439 -1.2530
  398MOL0     C52411   5.710   3.144   4.846  0.4878  0.4198 -0.4718
  398MOL0     O52412   5.608   3.075   4.800 -0.1307 -0.4481 -0.3054
  398MOL0     C52413   5.523   2.999   4.891  0.4663 -0.8348  0.8348
  398MOL0     C52414   5.400   2.959   4.809 -0.6020  0.8925  1.1352
  398MOL0     C52415   5.283   2.904   4.892  0.7756  0.4079  0.3694
  398MOL0     C52416   5.300   2.756   4.937 -0.6534  0.1769  0.0593
  398MOL0     C52417   5.171   2.692   4.997 -0.3486 -0.8458 -0.6682
  398MOL0     C52418   5.061   2.678   4.885 -0.0729  0.2394  0.0548
  398MOL0     C52419   4.951   2.592   4.942  0.3684 -0.5430  0.7017
  398MOL0     C52420   4.815   2.615   4.872  0.5745 -0.3443  0.2730
  398MOL0     N52421   4.704   2.521   4.894  0.2987 -0.1249 -0.4488
  398MOL0     C52422   4.622   2.506   5.004 -0.5293 -0.6982  0.1352
  398MOL0     C52423   4.531   2.412   4.972 -0.0039 -0.1379  0.1993
  398MOL0     C52424   4.407   2.384   5.051  0.5314  0.0178 -0.2190
  398MOL0     C52425   4.279   2.444   4.978 -0.0093  0.6796 -0.6332
  398MOL0     C52426   4.153   2.444   5.074 -0.7677  0.8699 -0.6371
  398MOL0     C52427   4.022   2.492   5.006  0.4379  0.3057  0.2978
  398MOL0     O52428   3.932   2.391   4.964  0.5958 -0.0823  0.1663
  398MOL0     C52429   3.796   2.426   4.966  0.0021  0.1239 -0.3093
  398MOL0     C52430   3.741   2.527   4.883 -0.2585  0.0631 -1.0490
  398MOL0     C52431   3.598   2.546   4.880 -0.2233 -0.2842 -0.4814
  398MOL0     C52432   3.522   2.482   4.976  0.3682  2.0094 -0.9779
  398MOL0     C52433   3.379   2.506   4.992  0.3649  0.4422  0.2226
  398MOL0     O52434   3.304   2.398   5.033 -0.0311 -0.4931 -0.5007
  398MOL0     C52435   3.171   2.415   5.063  0.2070  0.0978 -0.0620
  398MOL0     C52436   3.075   2.401   4.954  0.3341 -0.7519 -0.2538
  398MOL0     C52437   2.942   2.398   4.987  0.4317 -0.2626  0.2912
  398MOL0     C52438   2.893   2.416   5.116  0.6144 -0.1422  0.0817
  398MOL0     O52439   2.756   2.413   5.148  0.4277  0.6007 -0.2076
  398MOL0     C52440   2.683   2.290   5.114  0.2671  0.5170 -0.1063
  398MOL0     C52441   2.525   2.297   5.105  0.1919 -0.1348  0.5847
  398MOL0     C52442   2.476   2.401   4.991 -0.6757  0.8271 -0.0639
  398MOL0     C52443   2.319   2.396   4.961 -0.4435  0.1132  0.7354
  398MOL0     C52444   2.242   2.422   5.086 -0.1465 -1.2320 -0.7382
  398MOL0     C52445   2.100   2.375   5.083  0.0145  0.7982  0.1870
  398MOL0     C52446   2.032   2.452   4.961  0.6518 -0.1558  0.3042
  398MOL0     C52447   1.880   2.481   4.988 -0.7156  0.7442  1.1819
  398MOL0    Cl52448   1.765   2.345   4.928 -0.0129  0.3108 -0.4102
  398MOL0     C52449   2.986   2.449   5.216 -0.4077 -0.3413  0.3509
  398MOL0     C52450   3.121   2.439   5.197 -1.2855  0.1668  1.1928
  398MOL0     O52451   3.337   2.616   4.955  0.4706  0.3003  0.1702
  398MOL0     C52452   3.585   2.385   5.058 -0.8078 -0.0656  0.4025
  398MOL0     C52453   3.720   2.350   5.057  0.0621 -0.1971  0.4760
  398MOL0     N52454   4.578   2.349   4.862 -0.0027 -0.1056  0.1412
  398MOL0     N52455   4.675   2.424   4.810  0.3780  0.7584 -0.5385
  398MOL0     C52456   5.763   3.131   4.974  0.2597  0.2496  0.2316
  398MOL0     C52457   5.876   3.209   5.011  0.7079  0.2481 -0.2746
  398MOL0     C52458   6.286   3.389   4.965  0.1763 -0.3831 -0.3341
  398MOL0     C52459   6.282   3.528   4.930 -0.0265 -0.9570 -0.4316
  398MOL0     C52460   6.397   3.607   4.916  0.8233  0.1758  0.5452
  398MOL0     C52461   6.517   3.551   4.950  0.8262  0.3891 -0.1260
  398MOL0     O52462   6.617   3.646   4.966  0.5669 -0.8725 -0.2126
  398MOL0     C52463   6.747   3.596   5.020  0.1895  0.5054  0.2987
  398MOL0     C52464   6.859   3.686   4.974  0.0692 -0.4607 -0.5161
  398MOL0     C52465   6.999   3.653   5.020  0.6997 -0.0864  0.1586
  398MOL0     C52466   7.097   3.770   5.013 -0.1855 -0.8250  0.1202
  398MOL0     C52467   7.092   3.848   4.892  0.2319 -0.9391  0.9144
  398MOL0     C52468   7.079   3.925   4.795 -0.2602  0.8287 -0.1676
  398MOL0     C52469   6.524   3.418   4.996 -0.5896  0.1052  0.2716
  398MOL0     C52470   6.413   3.337   5.000  0.2730 -0.9430  0.9197
  398MOL0     H52471   5.944   3.391   4.742  1.3039 -0.7483 -0.3268
  398MOL0     H52472   5.737   3.263   4.659 -0.5377 -1.1466 -1.2244
  398MOL0     H52473   5.490   3.055   4.978  4.9097  1.5927  1.2137
  398MOL0     H52474   5.575   2.909   4.925  0.8478 -0.1470  2.0944
  398MOL0     H52475   5.440   2.883   4.742 -1.1943  1.4309  0.1605
  398MOL0     H52476   5.349   3.045   4.766 -1.9755 -0.0822  0.7684
  398MOL0     H52477   5.185   2.915   4.846  0.5011 -2.5269  0.0624
  398MOL0     H52478   5.282   2.959   4.987  0.0138 -1.1118  1.2811
  398MOL0     H52479   5.331   2.692   4.854 -1.9338 -0.9120  0.3988
  398MOL0     H52480   5.375   2.750   5.017 -3.3056 -1.5173  2.6222
  398MOL0     H52481   5.130   2.756   5.076  3.6259  0.4614  0.6117
  398MOL0     H52482   5.196   2.600   5.050 -0.0937  0.3841  1.4558
  398MOL0     H52483   5.098   2.624   4.797  1.1471  0.8875  0.1331
  398MOL0     H52484   5.018   2.773   4.852  0.8551  0.0856 -1.7458
  398MOL0     H52485   4.982   2.488   4.931  0.9768 -0.5371  2.0538
  398MOL0     H52486   4.928   2.620   5.046  0.1865  0.1743  0.4769
  398MOL0     H52487   4.850   2.603   4.769  0.6520  0.9754  0.1306
  398MOL0     H52488   4.776   2.717   4.872 -0.6526 -0.7578 -2.1015
  398MOL0     H52489   4.622   2.582   5.081  2.1741 -0.7247  0.2652
  398MOL0     H52490   4.414   2.438   5.145 -3.5117 -0.0497  0.3135
  398MOL0     H52491   4.384   2.279   5.074  2.3261 -0.8873 -2.1694
  398MOL0     H52492   4.251   2.392   4.886  2.5112  0.2947 -1.2622
  398MOL0     H52493   4.317   2.543   4.953 -0.5342  1.2714  0.7822
  398MOL0     H52494   4.139   2.345   5.119 -2.6919 -0.6163 -4.1648
  398MOL0     H52495   4.177   2.523   5.146 -1.6912  0.7041 -0.1297
  398MOL0     H52496   4.027   2.562   4.922 -1.0981  1.9992  1.5294
  398MOL0     H52497   3.965   2.549   5.081 -0.3388  1.7160 -1.3135
  398MOL0     H52498   3.799   2.582   4.811  0.6641 -0.4934 -0.7489
  398MOL0     H52499   3.556   2.614   4.808  2.6068  1.5148 -0.6107
  398MOL0     H52500   3.107   2.395   4.850  1.3035 -0.2947  0.0030
  398MOL0     H52501   2.878   2.380   4.902 -0.6264 -1.6498  1.3382
  398MOL0     H52502   2.695   2.215   5.194 -3.2893 -0.0195  0.0885
  398MOL0     H52503   2.724   2.247   5.022  1.9570  0.9653  0.3918
  398MOL0     H52504   2.485   2.320   5.204 -1.5535 -1.9727  0.3833
  398MOL0     H52505   2.484   2.198   5.083  1.4119 -0.2881 -1.2760
  398MOL0     H52506   2.543   2.381   4.907 -0.3999 -2.0328  0.7382
  398MOL0     H52507   2.495   2.506   5.015  1.5659  0.3649  0.4147
  398MOL0     H52508   2.290   2.464   4.880 -1.9041 -0.9255  0.3377
  398MOL0     H52509   2.298   2.298   4.917  1.0795  0.3581 -0.6213
  398MOL0     H52510   2.250   2.529   5.107  5.0898 -1.6717  0.9841
  398MOL0     H52511   2.281   2.371   5.175 -0.3098  0.0292  0.0963
  398MOL0     H52512   2.049   2.387   5.179  2.3051 -1.5139  1.8415
  398MOL0     H52513   2.099   2.266   5.073 -0.3679  0.7830  0.4047
  398MOL0     H52514   2.086   2.545   4.936 -1.6131  1.1939  0.1343
  398MOL0     H52515   2.037   2.395   4.868 -2.3360 -1.2438  0.7207
  398MOL0     H52516   1.855   2.576   4.940 -1.8724  0.9141  2.0593
  398MOL0     H52517   1.868   2.495   5.096 -1.4853 -1.9033  1.5215
  398MOL0     H52518   2.953   2.450   5.319 -1.4305 -2.3806  0.0840
  398MOL0     H52519   3.192   2.438   5.279 -1.2016  0.7795  1.1332
  398MOL0     H52520   3.533   2.335   5.139 -1.4443  1.4879  0.9914
  398MOL0     H52521   3.762   2.268   5.114 -5.8816 -2.5553  2.2446
  398MOL0     H52522   5.725   3.065   5.051 -1.6891  1.0830  0.0492
  398MOL0     H52523   5.912   3.190   5.111 -1.4429 -2.1440  0.1252
  398MOL0     H52524   6.188   3.581   4.916  0.2411  0.3187  2.1317
  398MOL0     H52525   6.388   3.710   4.882  0.3287  0.1514  0.5923
  398MOL0     H52526   6.774   3.501   4.972 -2.7903  0.1821 -0.9731
  398MOL0     H52527   6.742   3.594   5.129 -3.5468  0.8742  0.2654
  398MOL0     H52528   6.867   3.683   4.865 -1.2486  0.3958 -0.6711
  398MOL0     H52529   6.828   3.785   5.009 -0.0746  0.1279 -2.2312
  398MOL0     H52530   7.045   3.569   4.967 -0.1039  0.1179 -0.9206
  398MOL0     H52531   6.997   3.620   5.124  0.7663  0.5450  0.3688
  398MOL0     H52532   7.065   3.830   5.099 -3.4818  0.5513 -1.8541
  398MOL0     H52533   7.200   3.736   5.023 -0.3131 -0.7806  1.7494
  398MOL0     H52534   7.061   3.988   4.710  1.7145  5.0750  2.2071
  398MOL0     H52535   6.608   3.376   5.049 -2.4925 -1.1987  2.4631
  398MOL0     H52536   6.421   3.230   5.020  0.5925 -0.8331  1.4023
  399MOL0     O52537   6.485   4.637   8.746  0.1960 -0.9742 -0.0639
  399MOL0     C52538   6.535   4.645   8.858 -0.5543  0.2911 -0.5905
  399MOL0     O52539   6.467   4.643   8.973 -0.5022  0.9594 -0.4106
  399MOL0     C52540   6.331   4.646   8.981 -0.8104 -0.6978 -0.4561
  399MOL0     C52541   6.242   4.715   8.888  0.0459 -0.0127 -0.0636
  399MOL0     C52542   6.103   4.692   8.891  0.1723 -0.6950 -0.2245
  399MOL0     C52543   6.049   4.609   8.989  0.8057  0.0574  0.1739
  399MOL0     O52544   5.915   4.555   8.978  0.1452 -0.1555  0.2328
  399MOL0     C52545   5.873   4.420   9.021 -0.6235 -0.0464 -0.0566
  399MOL0     C52546   5.733   4.399   8.956 -0.6286  0.6145 -1.1280
  399MOL0     C52547   5.697   4.253   8.973 -0.2314  0.2983 -0.5194
  399MOL0     C52548   5.701   4.194   8.829  1.1250 -1.1349 -1.0273
  399MOL0     C52549   5.625   4.056   8.840 -0.6757 -0.5652 -0.0245
  399MOL0     C52550   5.573   4.020   8.703 -0.2513  0.1859 -0.0983
  399MOL0     C52551   5.533   3.871   8.685  0.7451 -1.6826 -0.2395
  399MOL0     C52552   5.619   3.801   8.584  0.5146  0.6737  0.2309
  399MOL0     N52553   5.762   3.800   8.631  0.1534 -0.1948  0.2578
  399MOL0     C52554   5.822   3.749   8.745 -0.2049 -0.4763  1.0778
  399MOL0     C52555   5.955   3.782   8.747  0.3354  0.0393 -0.3807
  399MOL0     C52556   6.073   3.740   8.825 -0.1328  0.9336  0.6829
  399MOL0     C52557   6.079   3.588   8.818 -1.1087 -0.7517  1.0587
  399MOL0     C52558   6.214   3.524   8.851  0.1082  0.4723  0.1266
  399MOL0     C52559   6.245   3.545   9.000  0.2520 -0.7153 -0.6444
  399MOL0     O52560   6.339   3.454   9.053 -0.2658  0.5698  0.6679
  399MOL0     C52561   6.471   3.451   9.018 -0.5162  0.0544  0.2721
  399MOL0     C52562   6.517   3.328   8.971 -0.4097  0.6543 -0.5121
  399MOL0     C52563   6.652   3.300   8.957  0.1437 -0.5451 -0.2232
  399MOL0     C52564   6.748   3.407   8.961 -0.8436  0.0848 -0.0601
  399MOL0     C52565   6.898   3.375   8.944  0.7074 -0.1180  0.3071
  399MOL0     O52566   6.936   3.245   8.956 -0.2932  0.0304  0.5703
  399MOL0     C52567   7.061   3.197   8.951  1.2228  0.2450 -0.1070
  399MOL0     C52568   7.085   3.084   9.026  0.6219 -0.2032  0.5661
  399MOL0     C52569   7.209   3.026   9.039 -0.3844  0.1781  0.5817
  399MOL0     C52570   7.316   3.069   8.962  0.4308 -0.7196  0.8846
  399MOL0     O52571   7.429   2.998   8.971 -0.1252  0.6784 -0.0201
  399MOL0     C52572   7.525   3.006   8.869  0.4368  0.0507 -0.5653
  399MOL0     C52573   7.643   2.912   8.887 -0.4958 -0.0060  0.4276
  399MOL0     C52574   7.751   2.945   8.775  0.2456  0.2996 -0.0832
  399MOL0     C52575   7.874   2.860   8.803  0.3367  0.5119 -0.1752
  399MOL0     C52576   7.999   2.896   8.717 -0.2177  0.0198  1.0003
  399MOL0     C52577   7.966   2.907   8.561 -0.5331 -0.1856 -0.1451
  399MOL0     C52578   8.100   2.911   8.489 -0.1087  0.7169 -0.8186
  399MOL0     C52579   8.149   2.769   8.480 -0.4662  0.3654  0.0761
  399MOL0    Cl52580   8.277   2.768   8.352  0.1922  0.4943  0.0867
  399MOL0     C52581   7.286   3.177   8.878  0.5022 -0.0869  0.4680
  399MOL0     C52582   7.169   3.246   8.880  0.7538  0.1922 -0.7537
  399MOL0     O52583   6.969   3.469   8.921  0.0455 -0.4122  0.4626
  399MOL0     C52584   6.702   3.533   9.000 -0.7359  0.0354  0.0373
  399MOL0     C52585   6.563   3.554   9.030  0.0790 -0.3167 -0.1770
  399MOL0     N52586   5.985   3.842   8.624 -0.4530  0.2416  0.2739
  399MOL0     N52587   5.867   3.862   8.570  0.2698  0.0281  0.3890
  399MOL0     C52588   6.129   4.552   9.086  0.0253  0.0219  0.3276
  399MOL0     C52589   6.269   4.563   9.084  0.1895 -0.0671  0.2973
  399MOL0     C52590   6.681   4.649   8.870  0.1227 -0.0523 -0.4593
  399MOL0     C52591   6.739   4.671   8.991  0.1675  0.0958  0.0457
  399MOL0     C52592   6.876   4.675   9.003 -0.5676 -0.9152 -0.1312
  399MOL0     C52593   6.968   4.657   8.897  0.2636 -0.5399 -0.2288
  399MOL0     O52594   7.101   4.655   8.930 -0.2820 -0.7105  0.4416
  399MOL0     C52595   7.187   4.639   8.815 -0.4179  0.0026  0.4843
  399MOL0     C52596   7.212   4.488   8.780  0.3698  0.0526  0.3446
  399MOL0     C52597   7.249   4.403   8.905 -0.1084  0.5009  0.1035
  399MOL0     C52598   7.272   4.256   8.880  0.4429 -0.6978  0.1645
  399MOL0     C52599   7.411   4.228   8.840 -0.2821  0.2686 -0.2119
  399MOL0     C52600   7.522   4.201   8.814 -1.0675 -0.4578 -0.4928
  399MOL0     C52601   6.905   4.634   8.775  0.2222  0.2702  0.0863
  399MOL0     C52602   6.769   4.630   8.764  0.2798 -0.3874  0.1431
  399MOL0     H52603   6.279   4.771   8.803 -1.5423 -0.0303 -0.7995
  399MOL0     H52604   6.029   4.721   8.817  1.0075 -1.8976 -1.5743
  399MOL0     H52605   5.864   4.402   9.128 -3.1602 -2.8085 -0.5976
  399MOL0     H52606   5.945   4.351   8.978 -0.7475 -0.5578  0.5475
  399MOL0     H52607   5.718   4.443   8.858 -2.4838  2.2868 -0.1613
  399MOL0     H52608   5.665   4.455   9.022 -0.8054  1.4376 -1.9980
  399MOL0     H52609   5.597   4.250   9.016 -0.5516 -0.0136 -1.2819
  399MOL0     H52610   5.775   4.210   9.037  2.9156  2.6084 -2.4701
  399MOL0     H52611   5.643   4.256   8.761 -2.5549 -2.9713  0.1489
  399MOL0     H52612   5.804   4.187   8.793  2.2716  3.4131  0.6384
  399MOL0     H52613   5.544   4.056   8.913  0.8462 -0.0885  1.7390
  399MOL0     H52614   5.700   3.984   8.876  0.4907  1.6361  2.2107
  399MOL0     H52615   5.646   4.041   8.624 -1.4624 -0.3972 -1.3939
  399MOL0     H52616   5.491   4.091   8.691 -1.1058 -0.4281  1.7017
  399MOL0     H52617   5.540   3.814   8.779 -1.5787 -2.7423 -0.6495
  399MOL0     H52618   5.428   3.871   8.656  0.8823  0.6621 -0.9301
  399MOL0     H52619   5.606   3.858   8.492  0.7201  1.8929  0.9226
  399MOL0     H52620   5.584   3.699   8.570 -0.6928  1.2874 -1.6056
  399MOL0     H52621   5.767   3.683   8.811 -2.1785 -2.3643 -2.1998
  399MOL0     H52622   6.062   3.778   8.927 -0.6342  0.8063  0.6768
  399MOL0     H52623   6.170   3.779   8.793  1.0122  0.5244  3.4250
  399MOL0     H52624   6.058   3.563   8.714 -0.3147  3.0241 -0.1573
  399MOL0     H52625   5.997   3.557   8.883 -2.6246  1.2750  0.2072
  399MOL0     H52626   6.205   3.418   8.824 -0.9334  0.6444 -0.2555
  399MOL0     H52627   6.292   3.571   8.791 -1.5608  2.2325 -0.7763
  399MOL0     H52628   6.151   3.521   9.050  0.4226 -0.0364  0.0243
  399MOL0     H52629   6.258   3.653   9.013 -0.3273 -0.3996 -2.3706
  399MOL0     H52630   6.444   3.250   8.950 -1.0211  1.7294 -2.6428
  399MOL0     H52631   6.674   3.197   8.934  0.4311 -0.7394  0.8928
  399MOL0     H52632   7.008   3.048   9.094 -0.5301  2.9922  1.1525
  399MOL0     H52633   7.221   2.941   9.105  0.8300 -0.4758 -0.4455
  399MOL0     H52634   7.565   3.107   8.856 -1.3874  1.5353  3.6260
  399MOL0     H52635   7.476   2.972   8.778  0.3747 -3.9673  0.7754
  399MOL0     H52636   7.620   2.805   8.882  1.8533 -0.5191 -2.0726
  399MOL0     H52637   7.693   2.921   8.984  1.3942 -1.8893 -0.2845
  399MOL0     H52638   7.776   3.052   8.773  0.4022  0.2783  0.6042
  399MOL0     H52639   7.707   2.932   8.675  0.9972 -1.6736 -0.1958
  399MOL0     H52640   7.894   2.861   8.911  0.7990  0.0762 -0.2562
  399MOL0     H52641   7.855   2.755   8.777  1.1292  0.2638  0.2342
  399MOL0     H52642   8.085   2.831   8.731  1.0532  1.2858 -0.5281
  399MOL0     H52643   8.038   2.993   8.748 -0.3077  0.6706 -0.8090
  399MOL0     H52644   7.917   3.002   8.538 -1.3235 -0.3460  0.7938
  399MOL0     H52645   7.898   2.828   8.531 -0.1270 -0.3943 -0.5306
  399MOL0     H52646   8.079   2.949   8.389  0.3081 -1.4453 -1.7765
  399MOL0     H52647   8.178   2.980   8.523  3.0131 -1.2581 -3.4320
  399MOL0     H52648   8.067   2.703   8.449  0.4814 -1.4743  1.3108
  399MOL0     H52649   8.186   2.733   8.576  3.1793  2.3905 -0.3743
  399MOL0     H52650   7.371   3.208   8.817  0.7652  0.6040  1.1727
  399MOL0     H52651   7.164   3.344   8.834 -0.6715  1.4465  1.8496
  399MOL0     H52652   6.782   3.605   9.012 -0.5762 -0.1223 -0.0717
  399MOL0     H52653   6.524   3.644   9.075  1.0702 -0.0577  0.1901
  399MOL0     H52654   6.090   4.489   9.165  2.6131 -1.0185  0.8611
  399MOL0     H52655   6.333   4.511   9.154  0.5671  1.7977  1.3785
  399MOL0     H52656   6.674   4.677   9.077  0.3531  2.8760  0.0695
  399MOL0     H52657   6.911   4.693   9.105 -0.4583  1.4325 -0.5199
  399MOL0     H52658   7.282   4.684   8.847  0.4623 -0.7521 -0.9530
  399MOL0     H52659   7.149   4.700   8.732 -2.6699 -0.2770  1.2517
  399MOL0     H52660   7.125   4.440   8.734  1.5837 -3.3061  1.3020
  399MOL0     H52661   7.293   4.478   8.708  0.7051 -1.5712  0.9167
  399MOL0     H52662   7.163   4.412   8.972 -1.1516 -1.8535 -0.8194
  399MOL0     H52663   7.337   4.445   8.954 -0.1119  0.8238 -0.1670
  399MOL0     H52664   7.255   4.212   8.978 -1.6644  1.1645  0.6937
  399MOL0     H52665   7.214   4.225   8.792  2.0084  3.1301 -2.4741
  399MOL0     H52666   7.623   4.178   8.786 -1.2497  0.5035 -2.0342
  399MOL0     H52667   6.955   4.617   8.680 -0.8138 -0.4936 -0.3412
  399MOL0     H52668   6.729   4.615   8.664  0.6389 -0.8642  0.0674
  400MOL0     O52669   7.574   6.983   2.556 -0.8968 -1.2847  0.2517
  400MOL0     C52670   7.588   6.894   2.475  0.1896 -0.4038  0.3430
  400MOL0     O52671   7.499   6.850   2.391  0.0415 -0.5071 -0.1377
  400MOL0     C52672   7.374   6.897   2.416 -0.1093  0.1189  0.4993
  400MOL0     C52673   7.269   6.804   2.454 -0.2873  0.3883  0.0926
  400MOL0     C52674   7.133   6.849   2.470  0.3715 -0.3991 -1.0266
  400MOL0     C52675   7.101   6.982   2.446 -0.5790 -0.0100  0.2505
  400MOL0     O52676   6.970   7.022   2.459 -0.2757 -0.9512  0.5327
  400MOL0     C52677   6.948   7.159   2.500 -0.4962  0.4103  0.7974
  400MOL0     C52678   6.810   7.184   2.532  0.5005  0.3928  0.2010
  400MOL0     C52679   6.750   7.091   2.643 -0.6506 -0.0078  0.7952
  400MOL0     C52680   6.592   7.109   2.650  0.2191 -0.4907 -0.0611
  400MOL0     C52681   6.523   7.041   2.763 -0.1817 -0.8278  0.1123
  400MOL0     C52682   6.382   7.079   2.786 -0.0777 -0.4476 -0.5581
  400MOL0     C52683   6.286   7.020   2.684 -0.0290  0.3806  1.0786
  400MOL0     C52684   6.288   6.867   2.655  0.1739 -0.3564 -0.9263
  400MOL0     N52685   6.175   6.823   2.579  0.6153 -0.1799 -0.4141
  400MOL0     C52686   6.184   6.808   2.446 -0.8281 -0.4909  1.2859
  400MOL0     C52687   6.068   6.762   2.409  1.2033  0.3913 -0.3106
  400MOL0     C52688   6.015   6.742   2.267  0.0692 -1.3379 -0.1518
  400MOL0     C52689   5.904   6.834   2.232  0.4687  0.8913  0.7581
  400MOL0     C52690   5.932   6.982   2.191  0.4862  0.0313  0.8578
  400MOL0     C52691   6.015   7.049   2.300 -0.1886  0.6915  0.3540
  400MOL0     O52692   6.013   7.192   2.294 -0.8222 -0.8169 -0.2707
  400MOL0     C52693   6.136   7.250   2.325 -0.3577 -0.4225  0.3057
  400MOL0     C52694   6.163   7.295   2.456  0.5992 -0.0940  0.5378
  400MOL0     C52695   6.283   7.351   2.486 -0.0473 -0.2446 -0.0120
  400MOL0     C52696   6.383   7.370   2.387  0.7066 -1.1865 -0.5201
  400MOL0     C52697   6.506   7.445   2.424 -0.4299  0.9669  0.7920
  400MOL0     O52698   6.520   7.493   2.550 -0.5620 -0.3816  0.3066
  400MOL0     C52699   6.636   7.562   2.578  0.6528  0.1019  0.4641
  400MOL0     C52700   6.675   7.678   2.509 -0.2215 -0.0138 -1.0437
  400MOL0     C52701   6.788   7.748   2.545  0.0217  0.2563  0.3880
  400MOL0     C52702   6.862   7.712   2.661 -0.3812  0.2017 -0.4141
  400MOL0     O52703   6.976   7.772   2.706 -0.3160 -0.3312  0.2441
  400MOL0     C52704   7.025   7.883   2.636  0.1792 -0.7428 -0.3446
  400MOL0     C52705   7.168   7.928   2.687  0.4323  0.5476  0.3584
  400MOL0     C52706   7.287   7.835   2.646 -0.2070  0.2727  0.1645
  400MOL0     C52707   7.421   7.907   2.682 -0.3997 -0.1083 -0.4712
  400MOL0     C52708   7.530   7.810   2.717 -0.1721  0.4528 -0.1922
  400MOL0     C52709   7.661   7.862   2.759  0.0728  0.0524 -0.2316
  400MOL0     C52710   7.771   7.831   2.650  0.3305 -0.5282 -0.9558
  400MOL0     C52711   7.914   7.855   2.707 -0.5746 -0.0817  0.3236
  400MOL0    Cl52712   8.042   7.797   2.597  0.2808 -0.2724  0.3377
  400MOL0     C52713   6.823   7.602   2.731 -0.5382 -0.1351  0.2561
  400MOL0     C52714   6.709   7.532   2.698  0.3099  0.7270 -0.3219
  400MOL0     O52715   6.591   7.439   2.337 -0.4698 -0.3442 -0.1580
  400MOL0     C52716   6.362   7.319   2.258 -0.3041  1.3383 -0.1306
  400MOL0     C52717   6.244   7.248   2.232  0.3624  1.1294 -0.4985
  400MOL0     N52718   5.998   6.742   2.525 -0.0008 -0.3596 -0.7308
  400MOL0     N52719   6.056   6.786   2.624 -0.6254 -0.1076  0.3874
  400MOL0     C52720   7.206   7.071   2.406 -1.0888  0.2296  0.1133
  400MOL0     C52721   7.338   7.030   2.386 -0.4088  0.3658  0.2184
  400MOL0     C52722   7.722   6.825   2.465 -0.2158  0.2978  0.2335
  400MOL0     C52723   7.824   6.873   2.542 -0.3843 -0.0581 -0.8312
  400MOL0     C52724   7.951   6.816   2.540  0.5857 -0.0157  0.0737
  400MOL0     C52725   7.980   6.697   2.461 -0.1339 -0.5321 -0.9920
  400MOL0     O52726   8.096   6.620   2.452 -0.0051 -0.3183 -0.3276
  400MOL0     C52727   8.214   6.677   2.518  0.1665  0.5490 -0.8716
  400MOL0     C52728   8.331   6.575   2.518  0.4024 -0.2379  0.3739
  400MOL0     C52729   8.381   6.542   2.379 -0.7295 -0.7634  0.5454
  400MOL0     C52730   8.484   6.437   2.370  0.8163  0.4615 -0.7226
  400MOL0     C52731   8.620   6.487   2.419  1.1135  0.4008 -0.0060
  400MOL0     C52732   8.730   6.515   2.463  0.2201 -0.2715 -1.3094
  400MOL0     C52733   7.876   6.656   2.380  0.7063  0.6097  0.5921
  400MOL0     C52734   7.748   6.709   2.390 -0.2947  0.7540  0.4235
  400MOL0     H52735   7.299   6.703   2.478  2.0550  1.4962  2.4488
  400MOL0     H52736   7.056   6.786   2.513  2.5211 -1.7410  1.1036
  400MOL0     H52737   6.954   7.229   2.416 -1.8316 -0.2946  0.0779
  400MOL0     H52738   7.013   7.188   2.583  0.9185  0.8853 -0.4419
  400MOL0     H52739   6.745   7.176   2.445 -0.4885 -1.8139  1.0739
  400MOL0     H52740   6.806   7.289   2.564 -0.7538  0.0924  1.1143
  400MOL0     H52741   6.788   7.126   2.739  0.3332 -0.0376  0.4222
  400MOL0     H52742   6.774   6.985   2.632  0.6551  0.0762  2.4074
  400MOL0     H52743   6.580   7.218   2.655 -1.9211 -0.6379 -0.9176
  400MOL0     H52744   6.554   7.071   2.555  0.2238  2.9979 -1.6070
  400MOL0     H52745   6.564   7.077   2.858  0.6296 -1.3453 -0.0388
  400MOL0     H52746   6.524   6.932   2.753 -0.8215 -0.8293  0.0011
  400MOL0     H52747   6.378   7.188   2.786  1.4431 -0.3623  0.3508
  400MOL0     H52748   6.345   7.037   2.881 -1.4631 -4.6052 -2.7003
  400MOL0     H52749   6.185   7.044   2.719  0.8878  1.4278  3.1992
  400MOL0     H52750   6.319   7.068   2.592 -0.7150  0.9705  1.1315
  400MOL0     H52751   6.281   6.814   2.751  0.0574  3.1782  1.1855
  400MOL0     H52752   6.388   6.842   2.617  1.0021 -0.4595  1.1340
  400MOL0     H52753   6.268   6.832   2.381 -1.6288 -1.7877 -0.2997
  400MOL0     H52754   5.995   6.636   2.244  0.1224 -1.6359  1.1349
  400MOL0     H52755   6.094   6.768   2.196 -0.2283  0.4065  0.1223
  400MOL0     H52756   5.826   6.818   2.308 -1.4515 -2.0770 -1.5699
  400MOL0     H52757   5.857   6.794   2.142  1.6723  0.7428  0.1771
  400MOL0     H52758   5.988   6.972   2.098 -0.4795 -0.8318  0.3492
  400MOL0     H52759   5.838   7.037   2.187  2.6076  3.9404 -1.1088
  400MOL0     H52760   6.114   7.004   2.294  0.6366  2.4011  0.5816
  400MOL0     H52761   5.964   7.023   2.393 -1.7405  1.5769 -0.2097
  400MOL0     H52762   6.078   7.297   2.524 -0.9288 -0.5997 -1.2698
  400MOL0     H52763   6.295   7.406   2.578  0.4912  0.6477 -0.5933
  400MOL0     H52764   6.618   7.717   2.426  0.6558  0.5194 -1.4076
  400MOL0     H52765   6.825   7.822   2.475  0.1683 -0.4801 -0.3259
  400MOL0     H52766   6.952   7.963   2.646  0.6197 -0.3609 -0.1872
  400MOL0     H52767   7.032   7.852   2.531  0.1860  2.8495 -1.5187
  400MOL0     H52768   7.175   7.930   2.796 -2.5825  0.8374  0.6358
  400MOL0     H52769   7.188   8.028   2.646 -1.2943 -0.5821 -3.7626
  400MOL0     H52770   7.281   7.814   2.539 -0.1752 -2.9543  0.7072
  400MOL0     H52771   7.265   7.744   2.702  1.2542 -0.3340 -0.2180
  400MOL0     H52772   7.460   7.973   2.605  2.3586 -2.2256 -1.0320
  400MOL0     H52773   7.407   7.970   2.770 -1.2048 -2.5491  1.2628
  400MOL0     H52774   7.541   7.728   2.645  0.4461 -0.2652  0.7033
  400MOL0     H52775   7.494   7.757   2.805 -0.7966 -0.8062 -1.1851
  400MOL0     H52776   7.693   7.806   2.848  2.9575 -0.4741 -1.5144
  400MOL0     H52777   7.650   7.965   2.793  1.1416 -0.4017  1.6565
  400MOL0     H52778   7.765   7.732   2.605  0.3707 -0.4755 -1.0755
  400MOL0     H52779   7.756   7.905   2.571  2.7653 -1.8383 -2.7677
  400MOL0     H52780   7.925   7.797   2.799 -2.7449 -0.4395  0.3916
  400MOL0     H52781   7.924   7.962   2.727  0.7780  0.3231 -2.0738
  400MOL0     H52782   6.883   7.565   2.813  2.1996 -0.5597 -1.7930
  400MOL0     H52783   6.688   7.444   2.757 -1.3059  0.6362 -0.9722
  400MOL0     H52784   6.447   7.324   2.191 -0.4776  2.0560 -0.3020
  400MOL0     H52785   6.216   7.207   2.136 -1.2633  1.2165 -0.0970
  400MOL0     H52786   7.176   7.175   2.390 -0.6390  0.6417  1.7887
  400MOL0     H52787   7.422   7.095   2.364  1.7399 -0.6825  4.3661
  400MOL0     H52788   7.814   6.961   2.605  0.1860 -1.1812  0.8901
  400MOL0     H52789   8.025   6.855   2.609  1.4783  1.4332 -1.6404
  400MOL0     H52790   8.196   6.705   2.623 -0.6233  0.6891 -1.0382
  400MOL0     H52791   8.237   6.764   2.457 -0.6869 -0.3604 -2.5446
  400MOL0     H52792   8.412   6.615   2.580 -0.7870 -0.2088  1.9892
  400MOL0     H52793   8.306   6.484   2.574 -0.8150 -0.5213 -0.5948
  400MOL0     H52794   8.415   6.635   2.332 -2.2007 -1.0256 -1.1583
  400MOL0     H52795   8.300   6.522   2.308 -1.3085 -0.9968  1.2583
  400MOL0     H52796   8.463   6.347   2.429 -0.1098 -1.0487 -3.2227
  400MOL0     H52797   8.499   6.409   2.265 -1.7776 -1.9023 -0.5776
  400MOL0     H52798   8.826   6.547   2.500 -1.5657  3.4076  0.6745
  400MOL0     H52799   7.897   6.575   2.311 -0.1382 -0.8395  1.9732
  400MOL0     H52800   7.667   6.671   2.329  1.2659  1.7753 -2.4560
  401MOL0     O52801   6.211  11.232   9.701  0.0165  1.0917  0.4753
  401MOL0     C52802   6.292  11.156   9.757 -0.0372  0.7190 -0.1655
  401MOL0     O52803   6.269  11.030   9.806  0.3381  0.5192  0.4603
  401MOL0     C52804   6.143  11.004   9.835 -0.2791  0.1068 -0.7957
  401MOL0     C52805   6.047  11.098   9.881  0.5231 -0.2982  0.2646
  401MOL0     C52806   5.920  11.057   9.913  0.1625 -0.7402  0.7036
  401MOL0     C52807   5.889  10.922   9.933  0.6717  0.1760  0.0973
  401MOL0     O52808   5.764  10.896   9.985 -0.0786  0.6414  0.8817
  401MOL0     C52809   5.744  10.764  10.027 -0.1548  0.5116 -0.5175
  401MOL0     C52810   5.619  10.726  10.104 -0.1565  0.3152  0.6227
  401MOL0     C52811   5.497  10.730  10.014 -0.0706  0.3389  0.9460
  401MOL0     C52812   5.368  10.658  10.076  1.0512 -0.1960 -0.1521
  401MOL0     C52813   5.232  10.681  10.009  0.0562  0.7884  0.3846
  401MOL0     C52814   5.121  10.631  10.089  0.8098 -0.0747 -0.3072
  401MOL0     C52815   4.984  10.662  10.026 -0.5046  0.7195  0.5173
  401MOL0     C52816   4.878  10.587  10.106  1.2701 -0.4940 -0.1316
  401MOL0     N52817   4.743  10.631  10.074 -0.5613 -0.4859 -0.3668
  401MOL0     C52818   4.691  10.750  10.113  0.7998  0.2685  0.3024
  401MOL0     C52819   4.568  10.740  10.052  0.1919 -0.7430 -0.4731
  401MOL0     C52820   4.444  10.833  10.064 -0.0756 -0.3979  0.1167
  401MOL0     C52821   4.326  10.772  10.145  0.7098  0.8651  0.2645
  401MOL0     C52822   4.235  10.688  10.052  0.6551  0.4611 -0.6589
  401MOL0     C52823   4.139  10.761   9.951 -0.5538 -0.8087  0.1293
  401MOL0     O52824   4.046  10.857  10.011  0.0780  0.1514 -0.2942
  401MOL0     C52825   3.929  10.893   9.951  0.3063 -1.2162 -0.5384
  401MOL0     C52826   3.846  10.980  10.023 -0.7696 -0.2933  0.0420
  401MOL0     C52827   3.725  11.028   9.969 -1.2123 -0.1227  0.3978
  401MOL0     C52828   3.694  10.993   9.837  0.0019 -0.1011 -0.9670
  401MOL0     C52829   3.557  11.032   9.789 -0.7489  0.1471 -0.2821
  401MOL0     O52830   3.471  11.114   9.868  0.1976 -0.5143 -0.2276
  401MOL0     C52831   3.362  11.163   9.803  1.0766 -0.2846  0.6548
  401MOL0     C52832   3.262  11.084   9.736 -0.1804 -0.1420 -0.3032
  401MOL0     C52833   3.150  11.140   9.675  0.0257  0.4258 -0.6898
  401MOL0     C52834   3.131  11.280   9.671 -0.1507  1.5182  0.2488
  401MOL0     O52835   3.024  11.343   9.609 -0.5166  0.0903  0.2208
  401MOL0     C52836   2.916  11.273   9.563  0.7393  0.3438  0.0510
  401MOL0     C52837   2.800  11.376   9.525 -0.2519  1.0168  0.2648
  401MOL0     C52838   2.679  11.301   9.462 -0.1094  0.0104  0.3293
  401MOL0     C52839   2.576  11.403   9.425 -0.5508  0.4147  0.3157
  401MOL0     C52840   2.446  11.340   9.365  0.3235 -0.0330 -0.7405
  401MOL0     C52841   2.328  11.439   9.360 -0.0536 -0.1257 -0.5674
  401MOL0     C52842   2.203  11.361   9.331  0.9887 -1.0123  0.1389
  401MOL0     C52843   2.099  11.461   9.292  0.1180  0.3240 -0.2090
  401MOL0    Cl52844   2.108  11.533   9.127 -0.5120 -0.1506 -0.2201
  401MOL0     C52845   3.237  11.355   9.727  0.6315 -0.7458  0.1319
  401MOL0     C52846   3.345  11.304   9.792 -0.6742 -0.0645 -0.1066
  401MOL0     O52847   3.534  10.996   9.676  0.8214 -0.3300 -0.1314
  401MOL0     C52848   3.783  10.912   9.753 -0.4532 -0.9034 -0.2889
  401MOL0     C52849   3.901  10.861   9.813  0.0291  0.4061  0.2903
  401MOL0     N52850   4.553  10.626   9.980 -0.3497  0.1954  0.7821
  401MOL0     N52851   4.659  10.566   9.993  0.4026  0.5497  0.1810
  401MOL0     C52852   5.985  10.828   9.894 -0.2532  0.0533 -0.0199
  401MOL0     C52853   6.111  10.866   9.841  0.6673  0.1383  0.9660
  401MOL0     C52854   6.434  11.199   9.766  0.1386  0.2595 -0.4990
  401MOL0     C52855   6.545  11.111   9.791  0.2861 -0.5479  0.4506
  401MOL0     C52856   6.672  11.161   9.779  0.3447 -0.2771 -0.9087
  401MOL0     C52857   6.702  11.296   9.769  0.2318 -0.4315 -0.5843
  401MOL0     O52858   6.828  11.366   9.773 -0.8234  0.2174 -0.3196
  401MOL0     C52859   6.955  11.298   9.802  0.2477 -1.3310  0.2523
  401MOL0     C52860   7.070  11.396   9.775  0.0039 -0.9153  0.3714
  401MOL0     C52861   7.194  11.358   9.856 -0.4469 -1.0640 -0.1773
  401MOL0     C52862   7.180  11.416  10.003 -0.2751  0.6392  0.2403
  401MOL0     C52863   7.158  11.564  10.009 -0.1493 -0.0933  0.9342
  401MOL0     C52864   7.147  11.686  10.013  0.1083 -0.2056 -0.3605
  401MOL0     C52865   6.595  11.382   9.738  0.1590  0.5740  0.0724
  401MOL0     C52866   6.463  11.330   9.733 -0.3946 -0.3277  0.3104
  401MOL0     H52867   6.069  11.204   9.890  0.8406 -0.1521 -1.7657
  401MOL0     H52868   5.843  11.131   9.932  1.5583  0.5802  1.5476
  401MOL0     H52869   5.830  10.739  10.090 -1.2414 -2.7723 -0.1778
  401MOL0     H52870   5.744  10.702   9.937 -1.1478  0.6070 -0.5863
  401MOL0     H52871   5.597  10.788  10.191 -1.1803 -0.7706  1.1722
  401MOL0     H52872   5.639  10.625  10.140  2.3324  0.7338  0.5616
  401MOL0     H52873   5.514  10.684   9.916 -3.2285  0.9563 -0.0126
  401MOL0     H52874   5.473  10.836   9.997  1.3914  0.7181  1.0863
  401MOL0     H52875   5.386  10.551  10.086 -2.1132 -0.8317 -0.3011
  401MOL0     H52876   5.369  10.714  10.170  1.6567  3.4007 -2.1268
  401MOL0     H52877   5.220  10.615   9.923  1.9902 -0.0359  0.7000
  401MOL0     H52878   5.223  10.787   9.985  1.4736  1.6624  3.2421
  401MOL0     H52879   5.129  10.667  10.192 -2.8027  3.4988 -1.0542
  401MOL0     H52880   5.122  10.521  10.089  2.1959 -0.0813 -1.5178
  401MOL0     H52881   4.962  10.769  10.037 -2.9127  0.5297 -1.6325
  401MOL0     H52882   4.987  10.628   9.922 -3.5059  2.4080 -0.2265
  401MOL0     H52883   4.901  10.603  10.212 -1.1499  1.5792  0.1837
  401MOL0     H52884   4.878  10.484  10.070  0.2574 -0.7765  0.6320
  401MOL0     H52885   4.708  10.821  10.194 -1.9054  1.5884 -0.1538
  401MOL0     H52886   4.409  10.859   9.964  0.4962  1.3339  0.3231
  401MOL0     H52887   4.479  10.931  10.098 -3.3797  1.2503 -0.7995
  401MOL0     H52888   4.276  10.862  10.182 -2.0315  0.5120 -2.1642
  401MOL0     H52889   4.360  10.715  10.231  2.4059  1.5271  0.0671
  401MOL0     H52890   4.301  10.613  10.008 -0.5352  0.5365 -2.6924
  401MOL0     H52891   4.163  10.638  10.117  0.5849  0.9402 -0.3624
  401MOL0     H52892   4.092  10.679   9.897 -0.6078  0.7272 -2.3306
  401MOL0     H52893   4.193  10.804   9.865  0.1523 -3.1571 -0.6766
  401MOL0     H52894   3.884  11.001  10.122 -0.4603 -0.0858 -0.1181
  401MOL0     H52895   3.657  11.089  10.027 -0.4744  1.4241 -0.2898
  401MOL0     H52896   3.279  10.976   9.735  0.6071 -0.1011  1.7561
  401MOL0     H52897   3.072  11.071   9.646  1.8156 -1.4486 -1.2811
  401MOL0     H52898   2.869  11.209   9.639 -3.0895  2.5283 -0.2112
  401MOL0     H52899   2.941  11.212   9.475 -4.1227 -1.4923 -0.3638
  401MOL0     H52900   2.851  11.445   9.457  1.0751 -0.8321 -0.7075
  401MOL0     H52901   2.758  11.436   9.606  2.0915  1.7086  1.0450
  401MOL0     H52902   2.645  11.223   9.530 -0.3605  0.1813  0.4025
  401MOL0     H52903   2.729  11.269   9.370 -0.9961  0.9219 -0.5008
  401MOL0     H52904   2.553  11.444   9.524  0.8586 -1.2613  1.4093
  401MOL0     H52905   2.619  11.482   9.364  0.8769 -1.1820 -0.8443
  401MOL0     H52906   2.412  11.257   9.427 -1.2301  1.7328  0.8998
  401MOL0     H52907   2.461  11.304   9.263  1.3963 -3.8011  0.5946
  401MOL0     H52908   2.357  11.508   9.279  0.7830  1.4117  0.9805
  401MOL0     H52909   2.334  11.489   9.457  2.2378 -1.8492  0.2457
  401MOL0     H52910   2.213  11.298   9.242  1.0627 -2.3733  1.0842
  401MOL0     H52911   2.163  11.299   9.412 -2.5185  0.2781 -0.3959
  401MOL0     H52912   2.099  11.540   9.367 -0.4084 -0.1400  0.3018
  401MOL0     H52913   1.996  11.426   9.309 -0.5211  2.0356 -0.3506
  401MOL0     H52914   3.230  11.464   9.735 -2.2375 -0.9763  2.9321
  401MOL0     H52915   3.421  11.360   9.845 -0.7292 -1.1248  1.1316
  401MOL0     H52916   3.778  10.902   9.645  0.6225  3.3836 -0.9214
  401MOL0     H52917   3.970  10.796   9.759  0.0440 -0.6621  1.5565
  401MOL0     H52918   5.961  10.723   9.900  0.4912 -0.1192  0.0248
  401MOL0     H52919   6.183  10.801   9.792 -1.7092 -1.3479 -0.8164
  401MOL0     H52920   6.517  11.007   9.799 -2.1032 -0.0511 -0.4607
  401MOL0     H52921   6.747  11.084   9.796 -0.4714 -0.8014  0.5654
  401MOL0     H52922   6.952  11.216   9.730 -1.9450 -0.4076 -0.8077
  401MOL0     H52923   6.954  11.257   9.903 -0.7818 -1.2490  0.2825
  401MOL0     H52924   7.113  11.382   9.675  1.2436  2.3775  0.3331
  401MOL0     H52925   7.036  11.499   9.786  1.2371 -0.5442  0.8289
  401MOL0     H52926   7.287  11.398   9.814 -1.4313  1.3019 -0.2242
  401MOL0     H52927   7.215  11.251   9.866  0.9185 -0.6907  1.3939
  401MOL0     H52928   7.096  11.358  10.042 -0.8461  0.9228 -0.5267
  401MOL0     H52929   7.270  11.386  10.057 -0.5973 -1.9661 -0.5292
  401MOL0     H52930   7.156  11.791   9.991 -1.3135 -0.7373 -4.1620
  401MOL0     H52931   6.616  11.488   9.736  1.8029  0.2934  0.6604
  401MOL0     H52932   6.382  11.398   9.712 -0.5385 -0.7170 -0.4331
  402MOL0     O52933   4.100   0.341   3.226  0.1415  1.1640 -0.1594
  402MOL0     C52934   4.109   0.254   3.316  0.1113  0.2405 -0.4639
  402MOL0     O52935   4.004   0.201   3.392  0.3345  0.4071 -0.9643
  402MOL0     C52936   3.882   0.261   3.378  0.0500  0.3297 -0.3382
  402MOL0     C52937   3.780   0.183   3.311 -0.2731  0.8045 -0.1075
  402MOL0     C52938   3.652   0.226   3.309 -0.7378  0.1794  0.8331
  402MOL0     C52939   3.623   0.355   3.365  0.3851 -0.7377 -0.3931
  402MOL0     O52940   3.497   0.403   3.367 -0.1948 -0.2086 -0.3991
  402MOL0     C52941   3.391   0.335   3.294  0.1670  0.1027 -0.7335
  402MOL0     C52942   3.261   0.405   3.303  0.3159  0.0554 -0.7396
  402MOL0     C52943   3.251   0.524   3.212  0.4337 -0.0390  0.5431
  402MOL0     C52944   3.114   0.600   3.205 -0.1161 -0.1687  0.0228
  402MOL0     C52945   2.996   0.502   3.198  0.4776  0.2109 -0.6273
  402MOL0     C52946   2.862   0.568   3.177 -0.0666  0.1508  0.2674
  402MOL0     C52947   2.736   0.479   3.160  0.3299 -0.9513  0.8062
  402MOL0     C52948   2.661   0.431   3.287  0.3222  0.5039  0.0949
  402MOL0     N52949   2.542   0.365   3.248  0.4981  0.6004 -0.8267
  402MOL0     C52950   2.422   0.425   3.214  0.1786 -0.2195 -0.2512
  402MOL0     C52951   2.350   0.321   3.187  0.8794 -0.1453  0.1995
  402MOL0     C52952   2.212   0.315   3.127 -1.4605 -0.2093 -0.3649
  402MOL0     C52953   2.093   0.309   3.224  0.9557 -0.3498 -0.3770
  402MOL0     C52954   1.969   0.303   3.131  0.4930  0.0914  0.2936
  402MOL0     C52955   1.834   0.312   3.202  0.6989 -0.4575 -0.6682
  402MOL0     O52956   1.809   0.198   3.288 -0.4047 -0.3409  0.7132
  402MOL0     C52957   1.694   0.138   3.310  0.2805  0.7511 -0.3140
  402MOL0     C52958   1.567   0.159   3.241 -0.1883  0.9747 -0.1815
  402MOL0     C52959   1.449   0.102   3.290  0.0448  0.3941 -0.1622
  402MOL0     C52960   1.457   0.006   3.392  0.5977 -1.0924 -0.1458
  402MOL0     C52961   1.332  -0.068   3.419 -0.0893 -0.7541  0.4476
  402MOL0     O52962   1.217  -0.002   3.405 -0.2696  0.4525  0.1670
  402MOL0     C52963   1.098  -0.067   3.390 -0.9101 -0.6155 -0.4345
  402MOL0     C52964   1.073  -0.195   3.336 -0.2518  0.1650 -0.9098
  402MOL0     C52965   0.947  -0.258   3.352 -0.8005 -0.5133 -0.4750
  402MOL0     C52966   0.842  -0.200   3.412 -0.5000 -0.0537 -0.5710
  402MOL0     O52967   0.711  -0.247   3.411 -0.4493 -0.2776  0.1648
  402MOL0     C52968   0.678  -0.372   3.356 -0.8914  0.6914 -0.2925
  402MOL0     C52969   0.533  -0.405   3.398  0.0674 -0.3000 -0.0836
  402MOL0     C52970   0.438  -0.291   3.343  0.0316  0.2387  0.7865
  402MOL0     C52971   0.293  -0.328   3.356  0.6227  0.2634 -0.5123
  402MOL0     C52972   0.243  -0.448   3.279  0.3602 -0.1848 -0.1959
  402MOL0     C52973   0.258  -0.418   3.122 -0.5566  0.2138 -0.0450
  402MOL0     C52974   0.205  -0.530   3.035 -1.1266 -0.6002 -0.7794
  402MOL0     C52975   0.247  -0.526   2.889  0.9413  1.1331  0.3103
  402MOL0    Cl52976   0.156  -0.660   2.806 -0.3629 -0.4183  0.0142
  402MOL0     C52977   0.859  -0.069   3.457 -0.5580  0.2324  0.5754
  402MOL0     C52978   0.983  -0.010   3.444 -0.4747 -0.4202  0.0152
  402MOL0     O52979   1.345  -0.186   3.440 -0.0973  0.3015  0.0519
  402MOL0     C52980   1.578  -0.004   3.463  0.0222  0.8535 -0.6161
  402MOL0     C52981   1.694   0.062   3.419 -0.0291  0.1731  0.5228
  402MOL0     N52982   2.418   0.201   3.211  0.3937 -0.2418  0.3298
  402MOL0     N52983   2.537   0.228   3.243 -0.4515 -0.3277  0.5329
  402MOL0     C52984   3.722   0.421   3.434 -0.1252 -0.0568 -0.3128
  402MOL0     C52985   3.855   0.381   3.439 -1.1537 -0.3557 -0.6137
  402MOL0     C52986   4.240   0.203   3.359 -0.5196 -0.5153 -0.1821
  402MOL0     C52987   4.256   0.064   3.349 -0.2203  0.2376 -0.2761
  402MOL0     C52988   4.384   0.020   3.368  0.0535  0.2118 -0.5045
  402MOL0     C52989   4.486   0.098   3.426 -0.0915 -0.5056 -1.0121
  402MOL0     O52990   4.605   0.042   3.449  0.1068  0.1513  0.0838
  402MOL0     C52991   4.734   0.112   3.433 -0.0843  0.3122  0.1033
  402MOL0     C52992   4.798   0.142   3.567 -0.0478 -0.2419 -0.4277
  402MOL0     C52993   4.940   0.209   3.550 -0.2831  0.1522 -0.1629
  402MOL0     C52994   4.940   0.355   3.506 -0.4658 -0.7193 -0.0592
  402MOL0     C52995   5.069   0.405   3.467 -0.6263  0.0681 -0.2236
  402MOL0     C52996   5.175   0.450   3.435 -0.1046  0.3494 -0.5712
  402MOL0     C52997   4.462   0.240   3.448  0.1596 -0.3016 -0.2950
  402MOL0     C52998   4.345   0.291   3.397  0.3722 -0.5681 -0.2084
  402MOL0     H52999   3.813   0.089   3.269  2.2930  0.1786  2.8655
  402MOL0     H53000   3.574   0.157   3.277  1.4061 -2.2840  0.5952
  402MOL0     H53001   3.386   0.237   3.343 -4.5718 -1.1822 -3.2177
  402MOL0     H53002   3.424   0.314   3.192  0.7005 -0.9850 -0.3634
  402MOL0     H53003   3.258   0.431   3.409 -1.5632 -1.7104 -0.2855
  402MOL0     H53004   3.172   0.348   3.273 -0.5428  1.3130 -0.6471
  402MOL0     H53005   3.276   0.488   3.111  1.8732 -0.1860  0.9387
  402MOL0     H53006   3.327   0.594   3.245 -0.2517 -0.2047  2.5970
  402MOL0     H53007   3.100   0.669   3.289 -0.3906 -0.3864  0.1594
  402MOL0     H53008   3.112   0.668   3.120 -1.0384  1.6436  1.4331
  402MOL0     H53009   2.987   0.443   3.291  1.0784  0.4507 -0.4131
  402MOL0     H53010   3.027   0.433   3.119  1.3293 -1.1960  0.8646
  402MOL0     H53011   2.879   0.618   3.081  0.2905 -0.9145 -0.2358
  402MOL0     H53012   2.841   0.650   3.247  0.8042  1.5494 -1.0461
  402MOL0     H53013   2.665   0.544   3.107  1.0385 -0.7075  0.1491
  402MOL0     H53014   2.766   0.392   3.101 -1.3577 -3.7069  3.6540
  402MOL0     H53015   2.631   0.515   3.349 -0.1057  0.8300 -0.5453
  402MOL0     H53016   2.735   0.362   3.330 -1.6424 -0.9730  1.3119
  402MOL0     H53017   2.395   0.529   3.206 -0.5875 -0.2397  1.6278
  402MOL0     H53018   2.196   0.224   3.068 -4.8702 -1.3542  2.0086
  402MOL0     H53019   2.210   0.393   3.050  2.8157  0.4270 -0.1181
  402MOL0     H53020   2.096   0.400   3.285  2.0588 -0.9241  0.4632
  402MOL0     H53021   2.097   0.226   3.295 -3.0343 -0.1882  0.2620
  402MOL0     H53022   1.980   0.382   3.056  2.8873  2.3267  2.7616
  402MOL0     H53023   1.964   0.215   3.067 -0.9960  2.0510 -2.4891
  402MOL0     H53024   1.761   0.331   3.123  1.0638  1.4042 -0.5914
  402MOL0     H53025   1.833   0.397   3.270 -0.7384  0.9684 -2.3747
  402MOL0     H53026   1.562   0.229   3.158  0.7319  0.9423 -0.2789
  402MOL0     H53027   1.365   0.117   3.224 -2.3579 -1.1442  2.3156
  402MOL0     H53028   1.147  -0.253   3.281 -2.0108 -2.3734 -0.7698
  402MOL0     H53029   0.941  -0.351   3.297 -0.1888  1.1274 -3.5552
  402MOL0     H53030   0.743  -0.453   3.392 -1.3926 -0.1101 -1.1617
  402MOL0     H53031   0.678  -0.351   3.249 -2.0002  0.4549 -0.3504
  402MOL0     H53032   0.516  -0.411   3.506 -2.3431 -2.5387 -0.4794
  402MOL0     H53033   0.504  -0.501   3.354  0.3961  0.1096 -1.2293
  402MOL0     H53034   0.456  -0.267   3.237 -2.3591 -1.5161 -0.1055
  402MOL0     H53035   0.452  -0.195   3.393  1.6447  2.3137 -3.1600
  402MOL0     H53036   0.271  -0.339   3.463  1.4111  1.9891 -0.1377
  402MOL0     H53037   0.236  -0.246   3.310 -0.6048 -1.3556 -2.0069
  402MOL0     H53038   0.136  -0.460   3.297 -0.6079  1.4223 -3.8497
  402MOL0     H53039   0.288  -0.546   3.294  0.4964 -0.1176 -0.1696
  402MOL0     H53040   0.363  -0.404   3.097 -0.5517 -1.2383 -0.9302
  402MOL0     H53041   0.203  -0.327   3.093  0.7276 -0.0450 -3.8340
  402MOL0     H53042   0.225  -0.629   3.077 -0.4606  0.1304  0.7025
  402MOL0     H53043   0.097  -0.511   3.030 -0.9874  0.3776 -0.1671
  402MOL0     H53044   0.353  -0.549   2.877  0.3805 -0.8672 -1.3588
  402MOL0     H53045   0.228  -0.424   2.854 -5.3833  0.4779  0.6649
  402MOL0     H53046   0.780  -0.016   3.508  0.3427  2.1911  0.0290
  402MOL0     H53047   0.989   0.086   3.495 -1.4025 -0.9650  1.1941
  402MOL0     H53048   1.595  -0.083   3.536  1.1651  0.0734 -1.6794
  402MOL0     H53049   1.783   0.045   3.478  0.9668  3.9647  0.3531
  402MOL0     H53050   3.692   0.521   3.466 -0.0432 -0.6414  1.7790
  402MOL0     H53051   3.930   0.432   3.498 -0.5156 -2.1214  0.1719
  402MOL0     H53052   4.167   0.008   3.324 -1.5642  1.1065  2.1617
  402MOL0     H53053   4.402  -0.087   3.366  1.5540  0.3234  2.2212
  402MOL0     H53054   4.724   0.208   3.381  1.3074  0.1759 -0.4678
  402MOL0     H53055   4.795   0.052   3.364  0.8678  1.8323 -0.4302
  402MOL0     H53056   4.727   0.193   3.633  0.4940 -0.2731  0.1850
  402MOL0     H53057   4.817   0.045   3.614  0.1148  0.3456  0.7397
  402MOL0     H53058   4.995   0.143   3.482 -3.3921 -0.4126 -2.3610
  402MOL0     H53059   4.994   0.208   3.645  1.9960  1.0027 -1.3958
  402MOL0     H53060   4.868   0.362   3.424 -0.7563  0.0775  0.2542
  402MOL0     H53061   4.906   0.415   3.591  0.4419  1.3177 -1.0663
  402MOL0     H53062   5.271   0.483   3.399 -0.4715  1.3131 -0.6897
  402MOL0     H53063   4.541   0.304   3.486 -0.1894  0.3349 -0.6176
  402MOL0     H53064   4.320   0.397   3.396  0.3564 -0.5545  0.6529
  403MOL0     O53065   5.838   2.190   2.369  0.0580 -0.0079 -0.6345
  403MOL0     C53066   5.899   2.141   2.275 -0.5635 -0.4301 -0.3421
  403MOL0     O53067   5.853   2.079   2.163  0.4091  0.4641  0.5564
  403MOL0     C53068   5.714   2.061   2.145 -0.8418 -0.0652  0.2758
  403MOL0     C53069   5.620   2.162   2.158  0.1575 -0.5424  0.4042
  403MOL0     C53070   5.480   2.125   2.136  0.1846  0.7745  0.7759
  403MOL0     C53071   5.442   1.996   2.096  1.3524  0.6615 -0.7641
  403MOL0     O53072   5.316   1.954   2.063  0.3278 -0.6543  0.4523
  403MOL0     C53073   5.206   2.046   2.083  0.2985  0.0448 -0.0989
  403MOL0     C53074   5.077   1.966   2.047  0.6017 -0.5292  0.0430
  403MOL0     C53075   4.952   2.057   2.053  0.5377  0.4437  0.2796
  403MOL0     C53076   4.824   1.968   2.040  0.6129  0.6984 -0.0867
  403MOL0     C53077   4.688   2.034   2.078 -0.3584 -0.3527 -0.3627
  403MOL0     C53078   4.672   2.162   1.988 -0.7452  0.4877 -0.3471
  403MOL0     C53079   4.559   2.249   2.025  0.1156 -0.1158 -0.5373
  403MOL0     C53080   4.429   2.167   1.998 -0.1996  0.2204 -0.3594
  403MOL0     N53081   4.307   2.244   2.026 -0.3097  0.8642 -0.1609
  403MOL0     C53082   4.305   2.344   2.122  0.4439 -0.7096  0.6309
  403MOL0     C53083   4.173   2.372   2.139  0.6111  0.7278  0.5218
  403MOL0     C53084   4.119   2.472   2.228  0.3526 -0.2956  0.0358
  403MOL0     C53085   3.982   2.448   2.276 -0.4922 -0.6754 -1.1039
  403MOL0     C53086   3.885   2.496   2.173  0.0450 -0.2437  0.1182
  403MOL0     C53087   3.747   2.432   2.190  0.3047 -0.2319 -0.8329
  403MOL0     O53088   3.705   2.435   2.326 -0.2991 -0.2866 -0.0288
  403MOL0     C53089   3.581   2.377   2.351 -0.3479  0.0750 -0.3748
  403MOL0     C53090   3.498   2.314   2.254  0.4093  0.2747 -0.8127
  403MOL0     C53091   3.365   2.266   2.279  0.1435  0.2092 -0.3297
  403MOL0     C53092   3.308   2.303   2.403 -0.1245 -1.0671 -0.2993
  403MOL0     C53093   3.173   2.280   2.431  0.6820 -0.9874 -0.0284
  403MOL0     O53094   3.111   2.369   2.516  0.7457 -1.0078  0.2723
  403MOL0     C53095   2.986   2.343   2.547 -0.5455  0.0551 -0.5263
  403MOL0     C53096   2.957   2.257   2.658 -0.1764 -0.3073 -0.2568
  403MOL0     C53097   2.823   2.202   2.678 -0.0044  0.1904  0.2174
  403MOL0     C53098   2.723   2.233   2.580  0.1823  0.1932 -0.7049
  403MOL0     O53099   2.596   2.172   2.594  0.2463 -0.8334 -0.0729
  403MOL0     C53100   2.532   2.133   2.473 -0.3333  0.5857  0.0251
  403MOL0     C53101   2.392   2.097   2.518  0.5228 -0.0448 -0.2212
  403MOL0     C53102   2.301   2.221   2.550  0.0246 -0.5608  0.5885
  403MOL0     C53103   2.199   2.213   2.657 -0.6359  0.3125  0.0819
  403MOL0     C53104   2.083   2.124   2.610 -0.1783  0.4684  0.2190
  403MOL0     C53105   2.022   2.079   2.743 -1.0249 -0.5344 -0.6520
  403MOL0     C53106   1.888   2.019   2.714  0.0267  0.5170 -0.3739
  403MOL0     C53107   1.806   1.963   2.826  0.2392  0.8026  0.0507
  403MOL0    Cl53108   1.746   2.079   2.946 -0.1165  0.1627  0.2901
  403MOL0     C53109   2.754   2.331   2.485  0.4540  0.2600  0.8632
  403MOL0     C53110   2.885   2.387   2.466 -0.0523  0.4472  0.3629
  403MOL0     O53111   3.130   2.178   2.387 -0.1836  0.4350  0.6276
  403MOL0     C53112   3.383   2.379   2.496  0.0328 -0.3042 -0.2149
  403MOL0     C53113   3.518   2.402   2.479 -0.8364 -0.1079 -0.4309
  403MOL0     N53114   4.090   2.282   2.057 -0.1557 -0.2182  0.2315
  403MOL0     N53115   4.180   2.212   1.986  1.1411 -0.0858 -0.1165
  403MOL0     C53116   5.541   1.898   2.073  0.4644 -0.3588 -0.2525
  403MOL0     C53117   5.675   1.936   2.100  0.4464  0.5885 -0.8652
  403MOL0     C53118   6.042   2.153   2.294 -0.6210 -0.2156  0.6927
  403MOL0     C53119   6.109   2.239   2.380 -0.1774 -0.3856  0.5232
  403MOL0     C53120   6.247   2.223   2.421 -0.2408 -0.7274  0.3720
  403MOL0     C53121   6.329   2.137   2.349 -0.2439  0.1005 -0.3553
  403MOL0     O53122   6.458   2.132   2.385  0.4277  0.6660  0.2784
  403MOL0     C53123   6.553   2.058   2.307  0.2979  0.7143  0.1145
  403MOL0     C53124   6.685   2.067   2.390 -0.4868  0.1031 -0.1287
  403MOL0     C53125   6.806   2.005   2.317  0.5866 -0.6960 -0.3846
  403MOL0     C53126   6.936   1.992   2.393  0.8120 -0.0406  0.4718
  403MOL0     C53127   7.023   2.116   2.390 -0.4640 -0.2530  0.0021
  403MOL0     C53128   7.093   2.218   2.402  0.0494  0.4482 -0.3799
  403MOL0     C53129   6.262   2.049   2.258  0.0505 -0.1664 -0.4655
  403MOL0     C53130   6.125   2.061   2.224 -0.6942  0.1196 -0.5999
  403MOL0     H53131   5.653   2.262   2.186 -1.1295  0.1930 -0.6129
  403MOL0     H53132   5.398   2.195   2.151 -0.1429  1.5465 -3.4500
  403MOL0     H53133   5.214   2.131   2.015 -2.6763  1.7372  1.4213
  403MOL0     H53134   5.217   2.078   2.187 -0.2350  0.3360 -0.1273
  403MOL0     H53135   5.064   1.892   2.126 -3.8760  1.3730  1.4111
  403MOL0     H53136   5.075   1.918   1.949  0.8546  0.9848 -0.7321
  403MOL0     H53137   4.963   2.124   1.967  1.7511 -0.9829 -0.7096
  403MOL0     H53138   4.950   2.117   2.145 -1.0372 -0.9041  1.1823
  403MOL0     H53139   4.825   1.932   1.937 -1.8922  1.6089 -0.4895
  403MOL0     H53140   4.832   1.892   2.119  0.4216  3.5609  2.9198
  403MOL0     H53141   4.684   2.054   2.185  0.0225  0.9781 -0.5848
  403MOL0     H53142   4.612   1.960   2.051 -1.6868  0.0432  1.9800
  403MOL0     H53143   4.656   2.127   1.886  0.1682 -1.0626  0.0145
  403MOL0     H53144   4.767   2.217   1.982  1.0421 -2.1983  1.2463
  403MOL0     H53145   4.567   2.273   2.131  0.1832  0.2195 -0.6185
  403MOL0     H53146   4.551   2.336   1.960 -2.6589 -0.9341 -1.4167
  403MOL0     H53147   4.421   2.075   2.058  0.5015  0.2441 -0.2134
  403MOL0     H53148   4.439   2.133   1.895 -4.1538 -2.5300 -0.0434
  403MOL0     H53149   4.391   2.388   2.171  0.3183  0.3950 -0.0944
  403MOL0     H53150   4.129   2.574   2.191 -1.4304  0.4144  1.3816
  403MOL0     H53151   4.189   2.463   2.312 -0.4993 -1.8342  0.6230
  403MOL0     H53152   3.970   2.511   2.365  1.3229 -2.6003  0.6156
  403MOL0     H53153   3.963   2.345   2.307 -2.0946 -1.0128 -3.0214
  403MOL0     H53154   3.869   2.605   2.176 -1.0261 -0.3835  0.1027
  403MOL0     H53155   3.924   2.475   2.073 -0.4565 -2.2223  0.3023
  403MOL0     H53156   3.750   2.328   2.157  1.4819 -0.9610  1.3880
  403MOL0     H53157   3.686   2.489   2.118  0.5111  1.4068  0.2181
  403MOL0     H53158   3.544   2.285   2.160  3.1026  2.9797 -0.5037
  403MOL0     H53159   3.320   2.199   2.206  0.6479 -1.0929  0.5332
  403MOL0     H53160   3.043   2.229   2.718  0.2014  1.6753  0.2081
  403MOL0     H53161   2.803   2.129   2.756  3.6766 -0.1358  1.0271
  403MOL0     H53162   2.581   2.047   2.428  0.3793  0.6231  0.7095
  403MOL0     H53163   2.529   2.210   2.395  0.6394  1.5567  0.9173
  403MOL0     H53164   2.392   2.031   2.605 -0.6128  0.3297  0.0864
  403MOL0     H53165   2.333   2.053   2.437 -2.5782  2.7626  0.2948
  403MOL0     H53166   2.250   2.251   2.458  2.7712  1.9973 -0.2626
  403MOL0     H53167   2.365   2.303   2.585  1.0634 -1.9235  2.0339
  403MOL0     H53168   2.257   2.174   2.741 -0.6815  2.1233  1.0103
  403MOL0     H53169   2.153   2.306   2.690  1.0323  0.3737  2.4848
  403MOL0     H53170   2.098   2.037   2.545 -0.9590  1.8384 -1.8774
  403MOL0     H53171   2.021   2.194   2.553  1.5341  3.2305  1.5565
  403MOL0     H53172   2.018   2.168   2.807  2.0008  0.0708 -1.1521
  403MOL0     H53173   2.074   1.997   2.793  1.5208  1.8579  0.8889
  403MOL0     H53174   1.821   2.092   2.667 -2.7524 -1.3750  0.4094
  403MOL0     H53175   1.910   1.935   2.647  0.2568  0.7273 -0.5603
  403MOL0     H53176   1.862   1.888   2.883  0.1070  0.8993  0.3060
  403MOL0     H53177   1.713   1.915   2.794  0.6604  0.7025 -1.0703
  403MOL0     H53178   2.676   2.363   2.417  1.0756  0.9822  0.4769
  403MOL0     H53179   2.914   2.446   2.380  1.0268  0.6117  0.8301
  403MOL0     H53180   3.324   2.406   2.583  0.5518 -1.3575  0.4744
  403MOL0     H53181   3.564   2.467   2.552 -0.7708 -0.2361 -0.3570
  403MOL0     H53182   5.520   1.804   2.024  2.6849  0.2961 -2.6750
  403MOL0     H53183   5.754   1.864   2.078  0.0609  0.3231 -1.3830
  403MOL0     H53184   6.047   2.296   2.449 -1.4635  0.0359 -0.9197
  403MOL0     H53185   6.287   2.284   2.502  1.0041 -0.6207 -0.2993
  403MOL0     H53186   6.560   2.102   2.207 -0.3969 -1.4253 -0.9317
  403MOL0     H53187   6.528   1.952   2.298 -0.2716  0.7327  1.2072
  403MOL0     H53188   6.711   2.172   2.404  1.1242 -0.4489  1.3778
  403MOL0     H53189   6.664   2.012   2.482 -1.0802  2.7411  1.3993
  403MOL0     H53190   6.815   2.058   2.222  1.2992  2.6551  1.3968
  403MOL0     H53191   6.770   1.906   2.289 -2.9317  0.3250 -0.0422
  403MOL0     H53192   6.914   1.955   2.494  0.1554 -2.3098 -0.4590
  403MOL0     H53193   6.992   1.911   2.345  0.2262  0.5024 -1.1814
  403MOL0     H53194   7.156   2.303   2.420  2.6306 -1.3258 -0.6207
  403MOL0     H53195   6.308   1.967   2.204 -1.5661 -1.8390  0.5564
  403MOL0     H53196   6.076   1.990   2.157 -0.2200 -1.9104  1.1127
  404MOL0     O53197   8.001  10.708   3.074  0.3260  0.1570 -0.3236
  404MOL0     C53198   8.106  10.723   3.141  0.4684  0.7138 -0.7170
  404MOL0     O53199   8.118  10.771   3.268  0.9554  0.3242 -0.1347
  404MOL0     C53200   8.006  10.800   3.339  0.4145 -0.1623 -0.4145
  404MOL0     C53201   7.876  10.839   3.293 -0.0843 -0.5904 -0.1243
  404MOL0     C53202   7.773  10.843   3.388  0.1759 -0.2528  0.0336
  404MOL0     C53203   7.792  10.805   3.523  0.4307 -0.2666 -0.0481
  404MOL0     O53204   7.706  10.785   3.624  0.2560 -0.7920 -0.0784
  404MOL0     C53205   7.567  10.810   3.609 -0.1219 -0.2192 -0.0814
  404MOL0     C53206   7.492  10.717   3.704  0.3505  0.0468 -0.3569
  404MOL0     C53207   7.341  10.691   3.677  0.6406  0.4377 -0.5624
  404MOL0     C53208   7.266  10.823   3.661  0.4423 -0.1906 -0.5613
  404MOL0     C53209   7.121  10.801   3.692 -0.4161  0.6125  0.4005
  404MOL0     C53210   7.030  10.913   3.638 -0.3609  0.3953  0.9110
  404MOL0     C53211   6.885  10.896   3.699 -0.0964 -0.1160  0.3814
  404MOL0     C53212   6.764  10.955   3.612  0.0580 -0.2205 -0.2841
  404MOL0     N53213   6.636  10.987   3.687  0.4998  0.7164 -0.0872
  404MOL0     C53214   6.544  10.892   3.735 -0.5037 -0.6636  0.3179
  404MOL0     C53215   6.445  10.962   3.795  0.1081  0.1113 -0.7510
  404MOL0     C53216   6.356  10.886   3.889 -0.2085 -0.0543  0.3529
  404MOL0     C53217   6.288  10.751   3.828 -0.1755 -1.0195  0.0860
  404MOL0     C53218   6.220  10.775   3.691 -0.5206 -0.4374  0.0953
  404MOL0     C53219   6.167  10.641   3.630  0.4511 -1.0550  0.4196
  404MOL0     O53220   6.054  10.581   3.704  0.0208 -0.5735  0.0524
  404MOL0     C53221   5.927  10.569   3.652  0.5800 -0.4208  0.4623
  404MOL0     C53222   5.900  10.560   3.514 -0.0396  0.1512 -0.7038
  404MOL0     C53223   5.767  10.550   3.460 -0.0836  0.4744 -0.0968
  404MOL0     C53224   5.661  10.537   3.544  0.4011 -0.7411  0.1876
  404MOL0     C53225   5.525  10.532   3.494  0.7539  0.0006  0.1712
  404MOL0     O53226   5.424  10.530   3.584 -0.0772  0.0047  0.1448
  404MOL0     C53227   5.298  10.512   3.536 -0.8694 -0.0808  1.5452
  404MOL0     C53228   5.220  10.413   3.585 -0.6246 -0.5362  0.5516
  404MOL0     C53229   5.076  10.403   3.550  0.0824  0.5227 -0.2785
  404MOL0     C53230   5.028  10.481   3.442  0.1967  0.7426  0.0965
  404MOL0     O53231   4.902  10.483   3.384 -0.3569  0.3199  0.1074
  404MOL0     C53232   4.798  10.398   3.423 -1.2965  0.4842  0.1445
  404MOL0     C53233   4.730  10.471   3.537  1.0539  0.2742  0.1874
  404MOL0     C53234   4.609  10.394   3.595  0.1199  0.0153 -0.0306
  404MOL0     C53235   4.559  10.468   3.712 -0.3765 -0.1206  0.6726
  404MOL0     C53236   4.424  10.404   3.758 -0.4734  0.0703 -0.0317
  404MOL0     C53237   4.371  10.502   3.865  0.1658  0.0492 -0.0560
  404MOL0     C53238   4.215  10.482   3.890 -0.6181 -0.0385  0.2986
  404MOL0     C53239   4.135  10.594   3.965  0.0292  0.2930 -1.1072
  404MOL0    Cl53240   4.203  10.610   4.130 -0.0258 -0.1470 -0.2965
  404MOL0     C53241   5.120  10.571   3.394  0.0185 -0.4104 -0.2081
  404MOL0     C53242   5.254  10.594   3.439  0.0099 -0.4332  0.0290
  404MOL0     O53243   5.518  10.492   3.369  0.3041  0.0290 -1.5112
  404MOL0     C53244   5.689  10.552   3.679 -0.1999 -0.3233  0.2886
  404MOL0     C53245   5.808  10.580   3.733  0.5473 -0.4641 -0.3601
  404MOL0     N53246   6.475  11.098   3.787  0.0059  0.6080  0.7028
  404MOL0     N53247   6.589  11.105   3.728 -0.0439 -0.2725 -0.2295
  404MOL0     C53248   7.926  10.768   3.564  0.2524  0.4589  0.2733
  404MOL0     C53249   8.034  10.770   3.475 -0.2693  0.2213 -0.1159
  404MOL0     C53250   8.231  10.709   3.074  0.0683 -0.2438  0.2276
  404MOL0     C53251   8.254  10.609   2.976  0.5660 -0.5325 -0.4405
  404MOL0     C53252   8.377  10.593   2.912 -0.0307  0.5916  0.1304
  404MOL0     C53253   8.489  10.675   2.947 -0.2560 -0.0282  0.2173
  404MOL0     O53254   8.615  10.647   2.900  0.4586 -0.4072  0.1560
  404MOL0     C53255   8.736  10.681   2.971  0.6022 -0.2568  0.3840
  404MOL0     C53256   8.846  10.592   2.921 -0.1961 -0.2597  0.1083
  404MOL0     C53257   8.974  10.615   2.995  0.2560  0.7301  0.2894
  404MOL0     C53258   9.097  10.537   2.944 -0.1131 -0.3373 -0.2747
  404MOL0     C53259   9.156  10.583   2.807  0.2084 -0.3098 -0.3730
  404MOL0     C53260   9.196  10.633   2.703 -0.0050  0.0287 -0.3636
  404MOL0     C53261   8.467  10.774   3.043  0.8945 -0.1380 -0.1214
  404MOL0     C53262   8.348  10.791   3.108  0.9156 -0.0361  1.1215
  404MOL0     H53263   7.864  10.862   3.188  1.4968 -2.1881 -0.7207
  404MOL0     H53264   7.676  10.876   3.353  0.4609 -1.5131 -2.1107
  404MOL0     H53265   7.530  10.782   3.510 -0.0593 -0.5323 -0.0184
  404MOL0     H53266   7.553  10.916   3.633 -1.0710 -0.4266  0.3200
  404MOL0     H53267   7.503  10.765   3.802  3.1865  0.5825 -0.8519
  404MOL0     H53268   7.542  10.619   3.705  0.0287 -0.1204  0.3176
  404MOL0     H53269   7.305  10.627   3.758  0.0418  2.8483  1.1835
  404MOL0     H53270   7.323  10.631   3.587  0.0173  0.8503 -0.7120
  404MOL0     H53271   7.310  10.899   3.726 -1.4111  1.0143 -0.6230
  404MOL0     H53272   7.281  10.853   3.557 -0.0271 -0.6119 -0.7543
  404MOL0     H53273   7.109  10.785   3.800 -0.0843 -0.3830  0.3054
  404MOL0     H53274   7.078  10.713   3.643  0.1489  1.7374 -2.2775
  404MOL0     H53275   7.032  10.902   3.529  1.8211 -3.1885  1.1500
  404MOL0     H53276   7.074  11.010   3.663  0.3548  0.6307 -1.0538
  404MOL0     H53277   6.860  10.790   3.715  1.7721 -0.4506  1.3873
  404MOL0     H53278   6.887  10.948   3.795  0.1737 -0.0229  0.3263
  404MOL0     H53279   6.735  10.894   3.526 -4.6069  1.3015 -0.0556
  404MOL0     H53280   6.813  11.044   3.570  0.2302  0.0355  0.4401
  404MOL0     H53281   6.547  10.784   3.725 -1.0218 -0.5159 -1.8165
  404MOL0     H53282   6.273  10.945   3.929 -0.1461 -0.1559  0.6353
  404MOL0     H53283   6.427  10.864   3.969  0.8980 -1.3814 -0.9250
  404MOL0     H53284   6.221  10.705   3.901 -1.3035  1.4527  0.7134
  404MOL0     H53285   6.372  10.684   3.805 -0.0814 -0.9406  0.1961
  404MOL0     H53286   6.130  10.836   3.704 -0.3022  0.0256 -0.5065
  404MOL0     H53287   6.298  10.820   3.629 -1.3526  2.0544  0.7184
  404MOL0     H53288   6.248  10.568   3.621 -0.1530 -1.6073 -0.6766
  404MOL0     H53289   6.138  10.663   3.527 -0.8315  2.7377  1.4148
  404MOL0     H53290   5.989  10.559   3.451  0.3066 -0.4757 -0.2283
  404MOL0     H53291   5.759  10.548   3.351 -1.2818  0.4023 -0.0181
  404MOL0     H53292   5.260  10.351   3.664 -0.5740 -0.6357  0.4486
  404MOL0     H53293   5.006  10.341   3.606 -0.9099  0.4174 -1.6031
  404MOL0     H53294   4.841  10.304   3.460 -0.3970  1.5229  1.9101
  404MOL0     H53295   4.731  10.379   3.340 -2.4580  1.5518  0.8007
  404MOL0     H53296   4.700  10.574   3.518 -1.3804  0.1200  2.5555
  404MOL0     H53297   4.807  10.474   3.615  1.4466 -0.4072 -0.1628
  404MOL0     H53298   4.644  10.297   3.630  2.4239  0.9938  0.5704
  404MOL0     H53299   4.535  10.382   3.515  1.4493  1.3521 -1.5426
  404MOL0     H53300   4.631  10.460   3.794  0.7344 -0.8993 -0.3445
  404MOL0     H53301   4.555  10.574   3.686  3.3014  0.3254  1.3647
  404MOL0     H53302   4.429  10.304   3.802 -0.5658 -0.8533 -2.0356
  404MOL0     H53303   4.359  10.400   3.671 -0.0284 -1.5275 -0.3169
  404MOL0     H53304   4.382  10.601   3.820 -0.7493 -0.3639 -1.2562
  404MOL0     H53305   4.418  10.495   3.963 -1.6485 -0.5770  0.8256
  404MOL0     H53306   4.170  10.460   3.793  1.4007 -3.7305 -0.0255
  404MOL0     H53307   4.193  10.391   3.947 -0.8882  1.4054  2.6409
  404MOL0     H53308   4.032  10.560   3.963 -0.1635  0.8792 -2.4019
  404MOL0     H53309   4.129  10.689   3.911 -2.2518  0.1428 -1.2119
  404MOL0     H53310   5.084  10.648   3.327  1.4226  0.3632 -0.1196
  404MOL0     H53311   5.312  10.680   3.407  0.5158 -1.5910 -2.3718
  404MOL0     H53312   5.603  10.541   3.745 -1.1730 -4.4498 -1.3424
  404MOL0     H53313   5.827  10.594   3.839  2.9285  4.2889 -1.1102
  404MOL0     H53314   7.940  10.752   3.670  3.3641  0.7566  0.0219
  404MOL0     H53315   8.134  10.751   3.513 -0.7465 -0.0225  1.0825
  404MOL0     H53316   8.174  10.542   2.950 -1.1668  1.1433  0.3077
  404MOL0     H53317   8.388  10.511   2.841  2.0937  0.0727  0.9822
  404MOL0     H53318   8.719  10.672   3.079  1.8987  2.2026  0.8558
  404MOL0     H53319   8.755  10.788   2.963  0.0147 -0.1191  0.7276
  404MOL0     H53320   8.802  10.493   2.934 -3.0651  1.1253  2.2310
  404MOL0     H53321   8.853  10.616   2.814 -0.1549  1.7201  0.5111
  404MOL0     H53322   8.948  10.597   3.100 -1.1737  1.0702  0.0049
  404MOL0     H53323   8.994  10.722   2.993  1.9516  0.4484 -1.9045
  404MOL0     H53324   9.171  10.562   3.021 -0.3684 -0.4626  0.0144
  404MOL0     H53325   9.081  10.430   2.957  0.2647 -0.3340  0.2469
  404MOL0     H53326   9.235  10.690   2.621  0.9890  0.9282  0.6858
  404MOL0     H53327   8.539  10.854   3.056  0.0026  0.7100 -0.2584
  404MOL0     H53328   8.346  10.878   3.172  1.8209 -1.0771  2.6360
  405MOL0     O53329   6.842  10.856   9.062 -0.5487  0.4464  0.2989
  405MOL0     C53330   6.861  10.734   9.071  0.2109 -0.3221 -1.0025
  405MOL0     O53331   6.795  10.633   9.011 -0.4963 -0.1577  0.3477
  405MOL0     C53332   6.685  10.670   8.944  0.3405 -0.0629 -0.2498
  405MOL0     C53333   6.570  10.703   9.017 -0.3750 -0.1491  0.1081
  405MOL0     C53334   6.457  10.762   8.943  0.2402  0.2414 -0.1696
  405MOL0     C53335   6.462  10.757   8.800  0.6398 -0.4919 -0.0899
  405MOL0     O53336   6.366  10.816   8.715  0.0295 -0.0677  0.3986
  405MOL0     C53337   6.226  10.780   8.749  0.0166  0.7017  0.5159
  405MOL0     C53338   6.135  10.821   8.635  0.7287  0.1321  0.2327
  405MOL0     C53339   5.987  10.784   8.668  0.3896 -0.8866 -0.1016
  405MOL0     C53340   5.900  10.895   8.731  0.6196 -0.3356 -0.9641
  405MOL0     C53341   5.854  11.010   8.642 -0.0972 -0.2808 -0.6649
  405MOL0     C53342   5.797  11.131   8.722 -0.1211 -0.3745 -0.5374
  405MOL0     C53343   5.661  11.092   8.760 -0.3021  0.3118 -0.7135
  405MOL0     C53344   5.589  11.212   8.834 -0.3842  0.2287  0.6233
  405MOL0     N53345   5.602  11.351   8.773  0.1141 -0.2586  0.8954
  405MOL0     C53346   5.528  11.373   8.655 -0.5389 -0.1000 -0.7896
  405MOL0     C53347   5.531  11.508   8.627  0.1006 -0.2389  0.2765
  405MOL0     C53348   5.473  11.568   8.503 -0.1299 -0.2246  0.7991
  405MOL0     C53349   5.327  11.543   8.471 -0.0213 -0.5956  0.4892
  405MOL0     C53350   5.276  11.572   8.331  0.5871  0.3216  1.1939
  405MOL0     C53351   5.188  11.464   8.259 -0.4651  0.5620 -0.9049
  405MOL0     O53352   5.068  11.435   8.337  0.0703 -0.9704  0.1883
  405MOL0     C53353   4.959  11.516   8.345  0.5644  0.0986 -0.3647
  405MOL0     C53354   4.888  11.546   8.231 -0.8845  0.5526  0.7209
  405MOL0     C53355   4.774  11.622   8.248  0.0626  0.3366 -0.1179
  405MOL0     C53356   4.719  11.654   8.371 -0.4260  0.4943 -0.0545
  405MOL0     C53357   4.594  11.732   8.379 -0.8460  0.5777 -0.2427
  405MOL0     O53358   4.531  11.739   8.499 -0.6364  0.0499  0.3262
  405MOL0     C53359   4.443  11.839   8.517  0.2154 -0.1295 -0.0091
  405MOL0     C53360   4.472  11.953   8.583 -0.5636  0.2522 -0.0870
  405MOL0     C53361   4.382  12.051   8.612  0.2454  0.9629 -0.3939
  405MOL0     C53362   4.251  12.034   8.581  0.0597 -0.4160  0.2651
  405MOL0     O53363   4.162  12.140   8.602 -0.2151 -0.5910 -0.6607
  405MOL0     C53364   4.099  12.188   8.484 -0.2117  0.7727 -0.6506
  405MOL0     C53365   4.034  12.328   8.505 -0.8120 -1.1296  0.1357
  405MOL0     C53366   3.893  12.301   8.546 -0.1976 -0.0939  0.0524
  405MOL0     C53367   3.807  12.433   8.567  0.0048 -0.3460  0.1006
  405MOL0     C53368   3.689  12.403   8.666 -0.6698  0.3698  0.1915
  405MOL0     C53369   3.597  12.284   8.630  0.0631 -0.6126  0.3491
  405MOL0     C53370   3.502  12.331   8.519 -0.2137  0.5086 -0.4099
  405MOL0     C53371   3.407  12.223   8.469  0.0652 -0.1590 -0.0740
  405MOL0    Cl53372   3.355  12.128   8.600  0.3849  0.1703  0.0488
  405MOL0     C53373   4.208  11.914   8.520  0.5866  0.1886  0.4487
  405MOL0     C53374   4.309  11.818   8.481  0.4309 -0.4954  0.7683
  405MOL0     O53375   4.553  11.790   8.280 -0.6252 -0.3665 -0.3237
  405MOL0     C53376   4.791  11.615   8.486 -0.2365  0.1355  0.2809
  405MOL0     C53377   4.907  11.547   8.470  1.3142 -0.2735 -0.0751
  405MOL0     N53378   5.618  11.564   8.724 -0.2487  0.5582 -0.8124
  405MOL0     N53379   5.662  11.470   8.814  0.2977 -0.0050  0.4337
  405MOL0     C53380   6.577  10.699   8.733  0.5693 -0.1555  0.4970
  405MOL0     C53381   6.689  10.658   8.808  0.0207  0.6966 -0.0090
  405MOL0     C53382   6.971  10.700   9.158  0.9617 -0.1909  0.0461
  405MOL0     C53383   7.044  10.576   9.130  0.1129 -0.4193  0.5062
  405MOL0     C53384   7.157  10.559   9.203  0.3593  0.8055  0.4806
  405MOL0     C53385   7.212  10.655   9.285  0.2405  0.2391 -1.3992
  405MOL0     O53386   7.340  10.621   9.334 -0.0418 -0.4160  0.0503
  405MOL0     C53387   7.430  10.713   9.403 -0.0607 -0.1309 -0.8391
  405MOL0     C53388   7.551  10.632   9.459  0.1312 -0.2563  0.2757
  405MOL0     C53389   7.674  10.713   9.484  1.0598  0.1913 -1.1879
  405MOL0     C53390   7.643  10.825   9.590 -0.0525 -1.2566 -0.7732
  405MOL0     C53391   7.762  10.906   9.617  0.1829  0.3028  0.9507
  405MOL0     C53392   7.874  10.959   9.620 -0.2267  0.1116  0.3803
  405MOL0     C53393   7.142  10.769   9.316 -0.0299 -0.1899  0.4729
  405MOL0     C53394   7.016  10.795   9.248 -0.1997 -0.1467 -0.9851
  405MOL0     H53395   6.566  10.703   9.126  0.5267  0.7133  0.1576
  405MOL0     H53396   6.368  10.805   8.987 -0.0556 -2.0104  1.6309
  405MOL0     H53397   6.188  10.837   8.834  1.2239  4.6651 -1.3469
  405MOL0     H53398   6.202  10.676   8.774  0.5047  0.1332 -1.2039
  405MOL0     H53399   6.164  10.776   8.540  0.7992  1.2155 -0.2727
  405MOL0     H53400   6.142  10.929   8.617 -1.3469  0.0512 -1.4804
  405MOL0     H53401   5.988  10.699   8.736 -0.2516  1.4561  3.0856
  405MOL0     H53402   5.938  10.746   8.578  0.1677 -4.3493  1.3493
  405MOL0     H53403   5.821  10.851   8.793  0.4823  2.7988  1.3767
  405MOL0     H53404   5.963  10.948   8.803 -0.5677 -0.7522  0.4356
  405MOL0     H53405   5.785  10.976   8.564  1.6814  0.4987 -2.6837
  405MOL0     H53406   5.948  11.042   8.596  0.0434  0.7735  0.3346
  405MOL0     H53407   5.784  11.215   8.653 -2.5076  0.5170  0.8516
  405MOL0     H53408   5.846  11.156   8.816 -2.6238 -2.2442  1.4239
  405MOL0     H53409   5.600  11.073   8.671  1.9827 -0.9745 -2.0890
  405MOL0     H53410   5.659  11.007   8.829 -1.4338 -0.2219 -1.3731
  405MOL0     H53411   5.618  11.219   8.939  2.5478 -1.0751 -0.0201
  405MOL0     H53412   5.481  11.193   8.839 -0.1647 -0.7252  2.2661
  405MOL0     H53413   5.485  11.288   8.602  1.3638 -0.8736 -1.1766
  405MOL0     H53414   5.543  11.556   8.420  2.9133 -0.6568  3.2304
  405MOL0     H53415   5.492  11.674   8.522  0.4613 -0.0263 -0.7441
  405MOL0     H53416   5.276  11.603   8.547 -0.2979  0.5523 -0.5562
  405MOL0     H53417   5.310  11.442   8.508  0.2940 -0.7508  0.2155
  405MOL0     H53418   5.215  11.662   8.320  0.6325  0.0197 -2.8777
  405MOL0     H53419   5.360  11.579   8.261 -0.6351  0.0139 -0.3572
  405MOL0     H53420   5.233  11.367   8.234 -1.4095  0.0445 -0.6371
  405MOL0     H53421   5.151  11.505   8.165  0.3559  1.7757 -0.7231
  405MOL0     H53422   4.925  11.517   8.133  0.3633 -0.0639  1.3544
  405MOL0     H53423   4.714  11.644   8.161  3.1400  2.2481 -1.9595
  405MOL0     H53424   4.574  11.953   8.619 -0.1949  0.7308 -1.0707
  405MOL0     H53425   4.406  12.144   8.664 -0.0427  0.8034  0.0286
  405MOL0     H53426   4.027  12.119   8.438 -2.8219  2.3314  0.8540
  405MOL0     H53427   4.177  12.201   8.408  1.0526 -0.7735  0.3187
  405MOL0     H53428   4.029  12.383   8.411  1.9347  1.3563  1.3027
  405MOL0     H53429   4.093  12.385   8.577  1.6666 -2.1537 -0.9580
  405MOL0     H53430   3.891  12.227   8.627 -4.6034 -0.1839  0.0861
  405MOL0     H53431   3.832  12.252   8.469 -1.1454 -0.5157  1.0359
  405MOL0     H53432   3.870  12.505   8.621  2.0028  0.1673 -2.6735
  405MOL0     H53433   3.772  12.470   8.470 -0.2949 -1.9384 -0.4253
  405MOL0     H53434   3.640  12.500   8.678  2.1068  2.2239 -2.2277
  405MOL0     H53435   3.728  12.392   8.768  4.0138  0.2673 -1.3953
  405MOL0     H53436   3.540  12.257   8.719  1.2936 -1.5893  0.8673
  405MOL0     H53437   3.659  12.198   8.601  0.2904  0.7369 -3.9050
  405MOL0     H53438   3.449  12.416   8.562  0.8015  1.3436 -0.7614
  405MOL0     H53439   3.564  12.357   8.432 -0.9361  0.2394 -1.0204
  405MOL0     H53440   3.467  12.167   8.397  0.3612 -0.3392  0.3094
  405MOL0     H53441   3.320  12.270   8.421 -0.1157  0.3181  0.6996
  405MOL0     H53442   4.108  11.907   8.479  0.2785  0.2929  1.1811
  405MOL0     H53443   4.277  11.737   8.417  4.3109 -0.7784 -1.0647
  405MOL0     H53444   4.751  11.626   8.586 -0.4661 -3.5450  0.7141
  405MOL0     H53445   4.963  11.505   8.554  1.5231 -0.5731 -0.3613
  405MOL0     H53446   6.574  10.696   8.625 -0.0168 -0.5725  0.5204
  405MOL0     H53447   6.777  10.635   8.748 -0.3392  1.1545 -0.7246
  405MOL0     H53448   7.021  10.502   9.054 -2.1747 -1.0700  1.7271
  405MOL0     H53449   7.217  10.475   9.169 -2.1321  0.0635 -2.4833
  405MOL0     H53450   7.376  10.770   9.479 -2.0761 -2.2330 -0.5750
  405MOL0     H53451   7.463  10.783   9.325  0.6520  1.3990  0.7708
  405MOL0     H53452   7.514  10.569   9.541 -2.4735 -1.8787 -1.9429
  405MOL0     H53453   7.572  10.567   9.374  0.9372  0.5165 -0.1185
  405MOL0     H53454   7.708  10.756   9.389  2.2747 -1.5336 -1.5784
  405MOL0     H53455   7.752  10.649   9.526  0.4878 -0.7472 -1.5203
  405MOL0     H53456   7.559  10.891   9.566  1.8368  0.9945 -1.5605
  405MOL0     H53457   7.623  10.773   9.684  1.6568 -0.1999  0.2184
  405MOL0     H53458   7.974  10.997   9.626 -1.0395  2.1969  2.3753
  405MOL0     H53459   7.170  10.850   9.383 -3.8171  0.6021  1.2901
  405MOL0     H53460   6.962  10.888   9.258  1.0204  0.3852  1.3456
  406MOL0     O53461   8.357   9.890   5.658 -1.5311  0.5614 -0.4702
  406MOL0     C53462   8.417   9.890   5.763  0.8535 -0.1760  0.5121
  406MOL0     O53463   8.367   9.918   5.897  0.3339  0.1748  0.3725
  406MOL0     C53464   8.230   9.948   5.906 -0.1682 -0.5886  0.0370
  406MOL0     C53465   8.199  10.047   6.004 -0.5926  0.0562  0.1148
  406MOL0     C53466   8.063  10.076   6.025 -0.1355  0.2013 -0.7431
  406MOL0     C53467   7.959  10.000   5.969  0.1886 -0.4960 -0.2259
  406MOL0     O53468   7.829  10.042   5.997 -0.4226  0.4032  0.1202
  406MOL0     C53469   7.729   9.980   5.909 -0.0898 -0.7951 -0.5435
  406MOL0     C53470   7.593  10.043   5.950  0.6295 -0.1281 -0.7582
  406MOL0     C53471   7.490  10.004   5.841  0.6280 -0.1541  0.0765
  406MOL0     C53472   7.354  10.069   5.871 -0.4079 -0.0811  0.1056
  406MOL0     C53473   7.255  10.024   5.764 -0.2465  0.1132  0.6040
  406MOL0     C53474   7.117  10.067   5.798 -0.2155 -0.4031 -0.0690
  406MOL0     C53475   7.020  10.001   5.697  0.6610  0.5597  0.6995
  406MOL0     C53476   6.887  10.085   5.708 -1.0502  0.5109  0.1745
  406MOL0     N53477   6.808  10.048   5.596 -0.1614  0.1432 -0.1363
  406MOL0     C53478   6.771  10.130   5.486 -0.3453  0.4070 -0.7613
  406MOL0     C53479   6.697  10.046   5.407  0.1171 -1.2002  0.5929
  406MOL0     C53480   6.635  10.101   5.278  0.1641 -0.3509 -1.0450
  406MOL0     C53481   6.520  10.008   5.232 -0.4321  0.0348 -0.1657
  406MOL0     C53482   6.445  10.080   5.119  0.2852 -0.5065 -0.3234
  406MOL0     C53483   6.334   9.984   5.068 -0.5669  0.8874  0.5809
  406MOL0     O53484   6.281  10.034   4.948  0.3543 -0.1913 -0.1744
  406MOL0     C53485   6.161   9.993   4.889 -0.1235  0.9443 -0.4243
  406MOL0     C53486   6.102  10.069   4.780 -0.5546 -0.1327  0.3981
  406MOL0     C53487   5.986  10.027   4.711  0.3281 -0.1397 -0.4716
  406MOL0     C53488   5.915   9.918   4.764  0.3120  0.2749 -0.0585
  406MOL0     C53489   5.778   9.891   4.725  0.1215 -0.0781  0.6121
  406MOL0     O53490   5.710   9.806   4.818 -0.3944 -0.0090 -0.1842
  406MOL0     C53491   5.588   9.756   4.776  0.1551 -0.5642  0.8193
  406MOL0     C53492   5.484   9.845   4.718 -0.2667 -0.1558 -0.5757
  406MOL0     C53493   5.359   9.789   4.689  0.7130 -0.7302  0.3066
  406MOL0     C53494   5.341   9.650   4.697  0.3225  0.8977  0.5550
  406MOL0     O53495   5.223   9.579   4.662  0.6519 -0.9583 -0.1649
  406MOL0     C53496   5.108   9.663   4.653  0.1936 -0.0725  0.4302
  406MOL0     C53497   4.985   9.578   4.666  0.1426  0.2681 -0.2514
  406MOL0     C53498   4.850   9.656   4.672  0.0389  0.0193  0.0164
  406MOL0     C53499   4.743   9.556   4.692 -0.8101  0.0186  0.4486
  406MOL0     C53500   4.616   9.627   4.678  1.0648 -0.2968  0.5433
  406MOL0     C53501   4.500   9.542   4.653 -0.4172  0.5564  0.3010
  406MOL0     C53502   4.380   9.618   4.714 -0.3844  0.3230  0.6620
  406MOL0     C53503   4.255   9.533   4.689 -0.3544  0.1097  0.1463
  406MOL0    Cl53504   4.201   9.567   4.519  0.0276  0.3302 -0.4437
  406MOL0     C53505   5.441   9.574   4.741  0.0194 -0.8220 -0.6726
  406MOL0     C53506   5.562   9.626   4.774 -0.9092 -0.1138  0.4958
  406MOL0     O53507   5.730   9.936   4.617  0.1730 -0.1394 -1.0273
  406MOL0     C53508   5.971   9.846   4.871  0.0025  0.4447 -0.1672
  406MOL0     C53509   6.095   9.877   4.933 -0.4317 -0.8397  0.2129
  406MOL0     N53510   6.678   9.917   5.463 -0.3820 -0.2544  1.1925
  406MOL0     N53511   6.743   9.922   5.580 -0.1326 -0.2012 -0.5377
  406MOL0     C53512   7.991   9.902   5.871  0.4730 -0.1481 -0.6678
  406MOL0     C53513   8.125   9.881   5.839  0.0128  0.3483 -0.0758
  406MOL0     C53514   8.561   9.852   5.755  0.0231  0.0024 -0.3588
  406MOL0     C53515   8.636   9.842   5.631  0.1803  1.0274 -0.5828
  406MOL0     C53516   8.769   9.798   5.636  0.0201  0.1026  0.2062
  406MOL0     C53517   8.843   9.774   5.746  0.4326  0.4806  0.7049
  406MOL0     O53518   8.978   9.758   5.722  0.1742  0.2731 -0.0557
  406MOL0     C53519   9.068   9.805   5.825  0.1691 -0.1693  0.3831
  406MOL0     C53520   9.204   9.813   5.767  0.7178 -0.2425  0.2942
  406MOL0     C53521   9.320   9.853   5.858 -0.2143  0.1878  0.5507
  406MOL0     C53522   9.457   9.798   5.801 -0.2873  0.3767 -0.1672
  406MOL0     C53523   9.477   9.835   5.658 -0.2418 -0.5150  0.0304
  406MOL0     C53524   9.486   9.867   5.546  0.5893 -0.3423 -0.0427
  406MOL0     C53525   8.772   9.794   5.861  0.3204  0.0696 -0.2775
  406MOL0     C53526   8.640   9.823   5.867 -0.2373 -0.5842 -0.4512
  406MOL0     H53527   8.289  10.090   6.047  1.4468 -1.5681 -2.2200
  406MOL0     H53528   8.038  10.151   6.099 -2.1575 -0.7540 -0.3805
  406MOL0     H53529   7.722   9.877   5.945 -0.7495 -0.3357  0.6895
  406MOL0     H53530   7.749   9.985   5.802 -1.2869 -1.9853 -0.8604
  406MOL0     H53531   7.587  10.151   5.965 -1.5221 -0.2817 -0.2548
  406MOL0     H53532   7.560  10.008   6.048  0.4577 -1.1453 -1.1654
  406MOL0     H53533   7.488   9.895   5.835  2.2373 -0.2424  0.6893
  406MOL0     H53534   7.527  10.024   5.740  0.2550 -1.2800 -0.2908
  406MOL0     H53535   7.327  10.049   5.975  1.8067 -1.4865  0.4822
  406MOL0     H53536   7.353  10.179   5.870  1.3426 -0.0336 -0.7702
  406MOL0     H53537   7.257   9.916   5.743 -1.1363  0.0716  0.7320
  406MOL0     H53538   7.284  10.061   5.665 -2.4483  0.8502  0.1991
  406MOL0     H53539   7.117  10.177   5.790 -2.3670 -0.3830 -0.2607
  406MOL0     H53540   7.090  10.031   5.897 -0.5303  2.4396  0.9842
  406MOL0     H53541   7.055   9.978   5.596  1.3092 -4.4682  1.7882
  406MOL0     H53542   6.991   9.903   5.738 -3.3293  1.4960  0.5181
  406MOL0     H53543   6.905  10.192   5.702  1.7058  0.0384 -2.5068
  406MOL0     H53544   6.840  10.051   5.801  2.1017 -0.9216  1.3824
  406MOL0     H53545   6.796  10.236   5.484  2.7964  0.0042  3.5531
  406MOL0     H53546   6.717  10.115   5.207  1.7593 -1.5283  0.4920
  406MOL0     H53547   6.597  10.199   5.309  0.1304 -0.9055  0.7871
  406MOL0     H53548   6.453   9.981   5.315  1.9048 -1.0818  1.4749
  406MOL0     H53549   6.574   9.919   5.200  0.2181  0.6340 -0.7577
  406MOL0     H53550   6.398  10.176   5.144 -0.4042  0.7049 -5.2330
  406MOL0     H53551   6.518  10.107   5.042  1.6259 -1.0769  0.7048
  406MOL0     H53552   6.246   9.976   5.131 -1.0016  1.5534  0.0789
  406MOL0     H53553   6.375   9.884   5.048 -1.0961  0.6391  0.7375
  406MOL0     H53554   6.154  10.155   4.740 -0.0319 -0.4506  0.3704
  406MOL0     H53555   5.949  10.085   4.627  1.2614  1.2704  0.0587
  406MOL0     H53556   5.504   9.952   4.723  2.9070 -0.6708  3.9623
  406MOL0     H53557   5.288   9.860   4.647  1.5633  0.5183  0.9533
  406MOL0     H53558   5.107   9.717   4.558  0.9134  1.7035  1.3719
  406MOL0     H53559   5.107   9.736   4.735 -0.8412  0.5765 -0.1244
  406MOL0     H53560   5.000   9.526   4.761  1.0992 -0.1403 -0.6158
  406MOL0     H53561   4.982   9.501   4.589  0.0817 -1.3970  1.3646
  406MOL0     H53562   4.845   9.709   4.577  1.7724  1.5112  0.6841
  406MOL0     H53563   4.854   9.731   4.752  0.8200 -1.5942  1.5703
  406MOL0     H53564   4.747   9.483   4.611 -0.9878  0.8410 -0.3092
  406MOL0     H53565   4.753   9.490   4.779  0.7687  0.6513  0.7818
  406MOL0     H53566   4.621   9.702   4.598 -0.2362  0.7686  1.4165
  406MOL0     H53567   4.602   9.688   4.767 -1.4685  1.7894 -1.1270
  406MOL0     H53568   4.512   9.446   4.705 -0.1888 -1.0591 -2.5019
  406MOL0     H53569   4.498   9.517   4.546 -0.7250 -0.8492  0.6175
  406MOL0     H53570   4.386   9.628   4.823 -3.7285 -0.8650  1.0725
  406MOL0     H53571   4.378   9.717   4.669 -0.6345 -0.8066 -1.9820
  406MOL0     H53572   4.172   9.566   4.753 -1.1133 -0.9277 -0.2755
  406MOL0     H53573   4.278   9.427   4.704  3.7621  0.5255 -1.8245
  406MOL0     H53574   5.417   9.468   4.753 -2.3890 -0.5328 -2.3099
  406MOL0     H53575   5.641   9.567   4.820 -0.9418  0.6670  1.5938
  406MOL0     H53576   5.912   9.765   4.912 -2.4283  0.7962 -2.6629
  406MOL0     H53577   6.132   9.817   5.016 -2.3094 -2.3335  0.0447
  406MOL0     H53578   7.915   9.838   5.828 -1.1596  2.2344 -1.5820
  406MOL0     H53579   8.153   9.800   5.772  3.4858  1.4678 -0.1587
  406MOL0     H53580   8.590   9.855   5.533 -1.6464 -1.2272 -0.1157
  406MOL0     H53581   8.824   9.779   5.544  1.4545  0.3516  0.9827
  406MOL0     H53582   9.057   9.744   5.915  0.6173 -3.1335 -1.4640
  406MOL0     H53583   9.042   9.910   5.844 -1.8993  0.0292 -2.7757
  406MOL0     H53584   9.225   9.719   5.713 -2.4278 -2.0023  1.8561
  406MOL0     H53585   9.197   9.888   5.688  1.7228 -0.9235 -0.4795
  406MOL0     H53586   9.306   9.824   5.962  0.5904 -0.7216  0.4223
  406MOL0     H53587   9.336   9.961   5.853  1.7423 -0.1059 -0.8745
  406MOL0     H53588   9.543   9.840   5.854  2.3475 -2.6666 -1.7250
  406MOL0     H53589   9.475   9.694   5.828  3.9414  1.1388  0.6071
  406MOL0     H53590   9.509   9.907   5.449 -0.5723  1.7834  0.4983
  406MOL0     H53591   8.817   9.783   5.959 -1.2287  0.0110  0.4505
  406MOL0     H53592   8.591   9.829   5.963 -1.6401 -0.7589 -1.1226
  407MOL0     O53593   3.665  10.625   2.043 -0.4210 -0.2393 -0.1773
  407MOL0     C53594   3.700  10.705   1.952 -0.1263 -0.6087  0.5876
  407MOL0     O53595   3.619  10.793   1.885  0.2479 -0.2746  0.0408
  407MOL0     C53596   3.487  10.785   1.909 -0.2208 -0.6303  0.3068
  407MOL0     C53597   3.421  10.902   1.944  0.2661  0.2668 -0.3242
  407MOL0     C53598   3.286  10.899   1.981  0.1584  0.0910 -0.3890
  407MOL0     C53599   3.209  10.782   1.984 -0.3979  0.6102  1.2537
  407MOL0     O53600   3.087  10.784   2.036  0.1166  0.3715 -0.2069
  407MOL0     C53601   3.080  10.725   2.172 -1.1317  0.0431  0.3999
  407MOL0     C53602   2.952  10.748   2.247 -0.0887 -0.8839 -0.7133
  407MOL0     C53603   2.820  10.718   2.177  0.1640  1.1037  0.2192
  407MOL0     C53604   2.801  10.571   2.123 -0.6646  0.0254  0.5980
  407MOL0     C53605   2.653  10.534   2.101 -0.0007 -0.2810 -0.4969
  407MOL0     C53606   2.647  10.394   2.036 -0.0506  1.2034 -0.2674
  407MOL0     C53607   2.499  10.345   2.040 -0.2410 -0.3614  0.1855
  407MOL0     C53608   2.484  10.201   2.068  0.7607  0.2934  0.0380
  407MOL0     N53609   2.347  10.156   2.057 -0.3139 -0.1572  0.5126
  407MOL0     C53610   2.285  10.169   1.941  0.4316 -0.1533 -0.1265
  407MOL0     C53611   2.163  10.112   1.958  0.0658 -1.4013 -0.7616
  407MOL0     C53612   2.058  10.109   1.848  0.5250 -0.1921 -0.2255
  407MOL0     C53613   1.912  10.084   1.890 -0.3069 -0.5216 -0.2496
  407MOL0     C53614   1.857  10.176   1.997  0.4963 -0.3629 -0.8836
  407MOL0     C53615   1.700  10.180   2.013 -0.2292  0.4413  0.2858
  407MOL0     O53616   1.646  10.051   1.973 -0.0406  0.0538  0.2569
  407MOL0     C53617   1.509  10.038   1.958  0.2234 -0.8611 -0.2283
  407MOL0     C53618   1.464   9.924   1.887 -1.0349 -0.4720 -0.0359
  407MOL0     C53619   1.333   9.899   1.860  0.1499 -0.5260  0.6822
  407MOL0     C53620   1.239   9.996   1.900  0.9937  0.2166  0.1760
  407MOL0     C53621   1.098   9.960   1.885  0.1345 -0.2220 -0.9239
  407MOL0     O53622   1.059   9.844   1.829 -0.4741 -0.7484  0.3186
  407MOL0     C53623   0.926   9.823   1.801  0.4918  0.7598 -0.2299
  407MOL0     C53624   0.857   9.901   1.708  0.1553 -0.7148 -0.4756
  407MOL0     C53625   0.725   9.863   1.671 -0.2090 -0.3276 -0.7785
  407MOL0     C53626   0.665   9.745   1.713 -0.2606 -1.0474 -1.0201
  407MOL0     O53627   0.538   9.708   1.666 -0.6833 -0.1755  0.0798
  407MOL0     C53628   0.480   9.593   1.721  0.1061  0.9567 -0.0276
  407MOL0     C53629   0.342   9.570   1.654 -0.0152  0.0021  0.3437
  407MOL0     C53630   0.358   9.542   1.506 -0.0085  0.0196  0.3530
  407MOL0     C53631   0.224   9.503   1.438  0.1639  0.4925  0.0219
  407MOL0     C53632   0.234   9.461   1.295  0.7956 -0.7821  0.5611
  407MOL0     C53633   0.091   9.446   1.239 -1.6710 -0.0327  0.3252
  407MOL0     C53634   0.085   9.423   1.080 -0.3473 -0.1942  0.6575
  407MOL0     C53635  -0.061   9.398   1.040 -0.2109 -0.4097  0.9576
  407MOL0    Cl53636  -0.069   9.383   0.860  0.1664  0.1904  0.1326
  407MOL0     C53637   0.739   9.673   1.807  0.4230 -0.7587 -0.3957
  407MOL0     C53638   0.868   9.702   1.846  0.9223  0.8869  0.8888
  407MOL0     O53639   1.017  10.042   1.939 -1.0888 -0.1156  0.6866
  407MOL0     C53640   1.275  10.112   1.969 -0.5502  1.0379 -0.3812
  407MOL0     C53641   1.414  10.134   1.990  0.1383 -0.0695 -0.3716
  407MOL0     N53642   2.157  10.043   2.074 -0.7046  0.9943  0.3158
  407MOL0     N53643   2.263  10.077   2.138 -0.1953 -0.4904  0.4694
  407MOL0     C53644   3.272  10.665   1.942 -0.3285  0.5289 -0.8105
  407MOL0     C53645   3.402  10.668   1.896  0.3000  0.6448  0.4597
  407MOL0     C53646   3.850  10.731   1.924  0.1196 -0.1502  0.1843
  407MOL0     C53647   3.944  10.623   1.956 -1.3376 -0.2875 -0.6753
  407MOL0     C53648   4.081  10.641   1.930  0.5993  0.3829  0.6130
  407MOL0     C53649   4.123  10.755   1.864 -0.0296 -0.1710  0.3619
  407MOL0     O53650   4.258  10.767   1.829  1.1012 -0.0851  0.4534
  407MOL0     C53651   4.357  10.723   1.922  0.4897 -0.0834 -0.1071
  407MOL0     C53652   4.497  10.784   1.897  0.7112  0.1895  0.4657
  407MOL0     C53653   4.598  10.707   1.814  0.0912  0.6020  0.4945
  407MOL0     C53654   4.733  10.785   1.795  0.6702 -0.5173 -0.7612
  407MOL0     C53655   4.828  10.715   1.716 -0.4675  0.0849 -0.1553
  407MOL0     C53656   4.913  10.666   1.646 -0.6898  0.5118 -0.3307
  407MOL0     C53657   4.029  10.856   1.815  0.5116  0.2488  0.2394
  407MOL0     C53658   3.892  10.849   1.860  0.1860 -0.0317 -0.1695
  407MOL0     H53659   3.477  10.995   1.947  0.8373 -0.0223  3.4482
  407MOL0     H53660   3.250  10.995   2.016  1.3722  0.0295  1.1104
  407MOL0     H53661   3.156  10.770   2.237  0.8312  0.3238 -1.9546
  407MOL0     H53662   3.102  10.618   2.170  1.9351  0.5954  0.2952
  407MOL0     H53663   2.944  10.846   2.294 -0.0010 -0.8047 -0.8601
  407MOL0     H53664   2.972  10.671   2.322  2.3589  0.1566 -0.1804
  407MOL0     H53665   2.804  10.790   2.097  1.2146 -0.2554 -1.3034
  407MOL0     H53666   2.743  10.731   2.253 -0.5714 -0.8312 -0.1204
  407MOL0     H53667   2.865  10.553   2.037 -2.2963  2.7412 -1.3428
  407MOL0     H53668   2.848  10.505   2.197 -2.5088 -0.9268  0.9716
  407MOL0     H53669   2.612  10.603   2.027 -1.2743 -3.1560 -2.7122
  407MOL0     H53670   2.599  10.541   2.196  1.1378  1.9527  0.0247
  407MOL0     H53671   2.708  10.316   2.083 -2.6241  0.3424  1.8440
  407MOL0     H53672   2.691  10.396   1.935  0.5511 -0.1843 -0.0553
  407MOL0     H53673   2.436  10.389   2.118  0.0821  2.0413 -0.8328
  407MOL0     H53674   2.458  10.354   1.939  2.4567 -1.0486 -1.0741
  407MOL0     H53675   2.509  10.176   2.171  0.6867  1.1968  0.2830
  407MOL0     H53676   2.537  10.146   1.989 -4.0963 -1.6335 -2.2807
  407MOL0     H53677   2.321  10.220   1.852 -1.6187 -1.0360 -1.5404
  407MOL0     H53678   2.092  10.026   1.785  1.8925 -1.1676  1.6917
  407MOL0     H53679   2.060  10.198   1.785 -0.7317 -0.7320 -1.0668
  407MOL0     H53680   1.910   9.983   1.932  0.3071 -0.0230  1.0436
  407MOL0     H53681   1.851  10.085   1.800  0.8124 -0.1012 -1.0237
  407MOL0     H53682   1.893  10.155   2.098 -2.0177  1.9483  0.6333
  407MOL0     H53683   1.889  10.281   1.990 -1.3990  0.2433 -0.9702
  407MOL0     H53684   1.675  10.255   1.937  0.4528  1.2055  0.7931
  407MOL0     H53685   1.665  10.203   2.114  1.5090  2.4471  0.5010
  407MOL0     H53686   1.546   9.860   1.856  2.0743  2.1509  2.0862
  407MOL0     H53687   1.307   9.812   1.800  0.2111 -1.6138  2.1863
  407MOL0     H53688   0.906   9.984   1.659 -0.0813 -1.6121 -2.3058
  407MOL0     H53689   0.665   9.927   1.608  0.3386  2.7590  1.6043
  407MOL0     H53690   0.460   9.606   1.828 -1.7721 -0.3161 -0.1702
  407MOL0     H53691   0.549   9.513   1.693 -2.5323 -2.1079  1.5327
  407MOL0     H53692   0.292   9.667   1.651  1.7280  0.9350 -2.4503
  407MOL0     H53693   0.284   9.493   1.706 -0.0855  0.7653  1.4472
  407MOL0     H53694   0.427   9.458   1.496  1.4416  1.1720  0.3932
  407MOL0     H53695   0.403   9.630   1.461  0.3719  0.2581  1.1835
  407MOL0     H53696   0.191   9.417   1.497  2.7680  0.3796  1.4667
  407MOL0     H53697   0.148   9.578   1.462 -2.0907 -1.7315  0.2400
  407MOL0     H53698   0.288   9.366   1.290  2.6635  0.0982  2.4353
  407MOL0     H53699   0.293   9.532   1.235 -0.9473  3.4934  3.3663
  407MOL0     H53700   0.056   9.549   1.246  0.9516  1.0932 -1.5570
  407MOL0     H53701   0.030   9.370   1.289 -0.8999 -0.1125  1.1643
  407MOL0     H53702   0.125   9.514   1.035  0.8796 -0.2034  1.6664
  407MOL0     H53703   0.131   9.328   1.050 -2.0912 -1.7648  2.5993
  407MOL0     H53704  -0.131   9.469   1.084 -0.5323 -2.2069  3.5952
  407MOL0     H53705  -0.090   9.297   1.070 -1.2330 -0.6165 -0.6002
  407MOL0     H53706   0.710   9.581   1.856  2.0230 -0.3171  1.4969
  407MOL0     H53707   0.931   9.636   1.904  0.6446 -1.7041 -1.5780
  407MOL0     H53708   1.201  10.186   1.995 -2.6716 -1.3235  0.7111
  407MOL0     H53709   1.451  10.224   2.038 -0.7156 -0.7295  1.6420
  407MOL0     H53710   3.227  10.567   1.947  1.2463 -0.1694  3.1021
  407MOL0     H53711   3.453  10.573   1.886  0.8668  1.0793 -1.0881
  407MOL0     H53712   3.901  10.535   2.003 -2.0414  1.7584  2.8588
  407MOL0     H53713   4.149  10.559   1.949  0.6661  0.6590  1.5830
  407MOL0     H53714   4.362  10.614   1.924 -3.8166 -0.4480  2.2927
  407MOL0     H53715   4.320  10.759   2.018  1.1790 -0.3287  0.2606
  407MOL0     H53716   4.485  10.878   1.843 -0.3138 -0.1261  0.1135
  407MOL0     H53717   4.540  10.803   1.996  2.3119  0.5252 -0.2691
  407MOL0     H53718   4.556  10.690   1.715 -2.4024 -0.0290  1.5872
  407MOL0     H53719   4.623  10.610   1.858 -0.2865  0.5464  0.5888
  407MOL0     H53720   4.703  10.878   1.745  1.7311 -0.2314 -0.8935
  407MOL0     H53721   4.768  10.809   1.896 -3.0564  1.5392  0.2692
  407MOL0     H53722   4.994  10.624   1.591  0.5508  0.8495  1.1721
  407MOL0     H53723   4.063  10.946   1.764  0.6881  0.7925  1.2926
  407MOL0     H53724   3.826  10.929   1.828  1.5139  0.8551 -0.7462
  408MOL0     O53725   6.639  10.273   5.840 -0.0092  1.0142  0.6005
  408MOL0     C53726   6.623  10.356   5.932  0.2934  0.1278  0.0855
  408MOL0     O53727   6.513  10.437   5.953  0.8889  0.3244  0.0439
  408MOL0     C53728   6.395  10.409   5.884  0.3230  0.1359  0.5191
  408MOL0     C53729   6.314  10.532   5.872  0.3021 -0.0927  0.5182
  408MOL0     C53730   6.185  10.528   5.803 -0.1799 -0.1042 -0.0121
  408MOL0     C53731   6.131  10.407   5.769 -0.1909  0.7839 -0.7284
  408MOL0     O53732   6.023  10.407   5.688  0.7553 -0.2930 -0.5352
  408MOL0     C53733   5.913  10.313   5.727  0.4602  0.1304 -0.9261
  408MOL0     C53734   5.784  10.373   5.787 -0.1146 -0.1320 -0.7845
  408MOL0     C53735   5.814  10.447   5.912 -0.4742 -0.0219  0.1922
  408MOL0     C53736   5.688  10.510   5.977 -0.3962 -0.1648  0.6224
  408MOL0     C53737   5.734  10.593   6.096 -0.5745 -0.2638  0.2904
  408MOL0     C53738   5.631  10.623   6.189  0.6622  0.0185  0.1911
  408MOL0     C53739   5.684  10.684   6.318 -0.6310  0.4216 -0.3969
  408MOL0     C53740   5.568  10.722   6.408  0.6039  0.3392  0.7992
  408MOL0     N53741   5.527  10.856   6.386  0.2748  0.0821  0.8154
  408MOL0     C53742   5.461  10.905   6.271  0.7854  0.9528  0.1346
  408MOL0     C53743   5.417  11.031   6.299  0.1795  0.3679  0.2456
  408MOL0     C53744   5.343  11.119   6.206  0.2403 -0.0278  0.5900
  408MOL0     C53745   5.205  11.067   6.179 -0.2596 -0.0919 -0.6653
  408MOL0     C53746   5.133  11.154   6.078 -0.9115 -0.0418 -0.0643
  408MOL0     C53747   4.993  11.097   6.057 -0.4651 -0.8016 -0.3927
  408MOL0     O53748   4.911  11.137   6.165  0.0649 -0.1629  0.5492
  408MOL0     C53749   4.774  11.106   6.171 -0.1112 -0.0700 -1.0317
  408MOL0     C53750   4.715  11.015   6.095  0.0999 -0.0049  1.2186
  408MOL0     C53751   4.572  10.992   6.103 -0.4851  0.0351 -1.4213
  408MOL0     C53752   4.493  11.062   6.200  0.4238 -0.4629  0.3012
  408MOL0     C53753   4.342  11.058   6.211 -0.1392  0.0008  0.7967
  408MOL0     O53754   4.290  11.143   6.297  0.2656 -0.1900  0.1385
  408MOL0     C53755   4.154  11.135   6.335  0.0112  0.0939  0.0930
  408MOL0     C53756   4.125  11.036   6.436 -0.1009 -0.3329 -0.2412
  408MOL0     C53757   3.994  11.033   6.489  0.4204 -0.5296 -0.8293
  408MOL0     C53758   3.889  11.117   6.441 -0.9690  0.2265  0.6740
  408MOL0     O53759   3.764  11.102   6.493 -0.4497  0.2224 -0.4020
  408MOL0     C53760   3.744  11.055   6.625 -0.6187 -0.0611 -0.2937
  408MOL0     C53761   3.726  10.901   6.635  0.0030 -0.7628 -0.3503
  408MOL0     C53762   3.587  10.865   6.571  0.5435 -0.0225 -0.2474
  408MOL0     C53763   3.472  10.902   6.669  1.1755  0.5184 -0.0979
  408MOL0     C53764   3.339  10.812   6.653 -0.1089 -0.1152  0.5870
  408MOL0     C53765   3.214  10.887   6.706  0.7517 -0.7957  0.1021
  408MOL0     C53766   3.082  10.801   6.683 -0.2325  0.6808 -0.7875
  408MOL0     C53767   2.957  10.889   6.674 -0.1581 -0.3500  0.3434
  408MOL0    Cl53768   2.800  10.800   6.667  0.0827 -0.3613 -0.2062
  408MOL0     C53769   3.916  11.210   6.338 -0.2912 -0.0080 -0.0963
  408MOL0     C53770   4.048  11.221   6.293  0.1144 -0.2794  0.4592
  408MOL0     O53771   4.283  10.966   6.150  0.4832  0.1343  0.0815
  408MOL0     C53772   4.563  11.156   6.277 -0.1160  0.4389 -0.7601
  408MOL0     C53773   4.702  11.176   6.263 -0.4766  0.0442  0.3372
  408MOL0     N53774   5.449  11.064   6.427  0.4351 -0.2718  0.6880
  408MOL0     N53775   5.527  10.964   6.477 -0.6982  0.9445  0.1838
  408MOL0     C53776   6.202  10.286   5.797 -0.3300  0.0208 -0.0605
  408MOL0     C53777   6.332  10.290   5.859 -0.4989  1.0543  0.1952
  408MOL0     C53778   6.728  10.355   6.029 -0.2860 -0.9496  0.3244
  408MOL0     C53779   6.712  10.428   6.152  0.5718  0.7374  0.5773
  408MOL0     C53780   6.820  10.447   6.235  0.7950  0.6397 -0.4792
  408MOL0     C53781   6.945  10.381   6.213  0.0462 -0.8435 -1.1761
  408MOL0     O53782   7.043  10.420   6.296  0.5734 -0.2855 -0.1782
  408MOL0     C53783   7.175  10.424   6.245  0.2769  0.2668 -0.0556
  408MOL0     C53784   7.242  10.294   6.279  1.0445  1.1029 -0.2580
  408MOL0     C53785   7.379  10.251   6.218  1.1563  0.0533  0.0707
  408MOL0     C53786   7.482  10.354   6.260 -0.0976 -0.2403  0.2040
  408MOL0     C53787   7.609  10.310   6.214 -0.8043  0.5116  0.4257
  408MOL0     C53788   7.713  10.266   6.182 -0.6433 -0.0277  0.9584
  408MOL0     C53789   6.955  10.295   6.099  0.6550 -1.2158  0.2072
  408MOL0     C53790   6.854  10.299   6.003 -0.5944  0.0328 -1.0970
  408MOL0     H53791   6.341  10.626   5.918 -0.4178  0.3552  0.0506
  408MOL0     H53792   6.130  10.621   5.786  0.9828  1.1121  2.3605
  408MOL0     H53793   5.954  10.245   5.802  1.0977  1.6770  0.1845
  408MOL0     H53794   5.876  10.260   5.639 -3.2073  0.3284  0.3533
  408MOL0     H53795   5.712  10.292   5.804  0.5305 -0.5582 -0.0650
  408MOL0     H53796   5.742  10.442   5.712  0.6066  1.0224 -0.1565
  408MOL0     H53797   5.884  10.530   5.895 -0.8108  0.7846  2.4107
  408MOL0     H53798   5.860  10.378   5.983  2.9703  0.7522 -1.0730
  408MOL0     H53799   5.633  10.575   5.909  1.0529 -1.1612 -1.6197
  408MOL0     H53800   5.617  10.433   6.007 -1.6871  1.5767  2.2838
  408MOL0     H53801   5.780  10.688   6.064 -1.4120 -0.3182 -1.1837
  408MOL0     H53802   5.826  10.551   6.138  1.0333 -0.1027 -2.7129
  408MOL0     H53803   5.574  10.534   6.218  1.0807 -0.4482 -0.4002
  408MOL0     H53804   5.561  10.689   6.136  0.4730 -0.9937 -0.8380
  408MOL0     H53805   5.747  10.612   6.372 -2.0666 -1.0961 -0.6700
  408MOL0     H53806   5.748  10.765   6.283  0.0221  0.8415  1.5851
  408MOL0     H53807   5.615  10.715   6.507  0.7346 -2.4332  0.6163
  408MOL0     H53808   5.479  10.658   6.406 -1.5241  2.9775  2.6734
  408MOL0     H53809   5.429  10.856   6.179  1.3648  2.1975 -0.7519
  408MOL0     H53810   5.391  11.127   6.108 -3.5055 -0.3892 -1.4452
  408MOL0     H53811   5.321  11.218   6.245 -0.4346 -0.2507  0.7814
  408MOL0     H53812   5.143  11.066   6.269 -1.0975 -2.0893 -1.2225
  408MOL0     H53813   5.222  10.966   6.141 -0.5498 -1.5426  2.7399
  408MOL0     H53814   5.131  11.261   6.101  1.8969  0.2955 -1.0407
  408MOL0     H53815   5.183  11.146   5.981 -1.5870  0.5020 -0.4715
  408MOL0     H53816   5.000  10.988   6.059 -0.4135 -0.7913  0.7421
  408MOL0     H53817   4.957  11.144   5.964  1.5839  1.1009 -0.3086
  408MOL0     H53818   4.763  10.964   6.011 -3.0193 -0.7162 -0.2959
  408MOL0     H53819   4.524  10.913   6.046 -1.7582 -2.1041  2.2889
  408MOL0     H53820   4.202  10.968   6.469  1.0248 -0.0368 -2.1338
  408MOL0     H53821   3.978  10.978   6.581 -3.4575  0.3893 -0.7864
  408MOL0     H53822   3.648  11.097   6.656 -1.5489 -3.0463  1.2025
  408MOL0     H53823   3.821  11.091   6.693  0.4804  1.5834 -2.3029
  408MOL0     H53824   3.721  10.885   6.743 -1.8982 -0.9865 -0.4314
  408MOL0     H53825   3.818  10.856   6.597  1.3226  0.3898  1.3295
  408MOL0     H53826   3.584  10.757   6.552  2.1656 -0.0610 -0.3625
  408MOL0     H53827   3.566  10.927   6.484  1.4567 -2.3989 -2.2875
  408MOL0     H53828   3.496  10.895   6.776  1.5887 -1.1982 -0.2690
  408MOL0     H53829   3.437  11.005   6.657  0.5230  0.4033  0.7540
  408MOL0     H53830   3.351  10.715   6.702  1.0159  0.0736  0.7023
  408MOL0     H53831   3.325  10.796   6.546  0.5502 -1.1241  0.6378
  408MOL0     H53832   3.212  10.979   6.647 -1.4325 -0.5128  0.5414
  408MOL0     H53833   3.223  10.933   6.804 -0.6490  3.1594 -1.4194
  408MOL0     H53834   3.091  10.737   6.595  1.0124 -1.0178  0.5306
  408MOL0     H53835   3.051  10.727   6.757 -1.0067 -0.5909 -2.3217
  408MOL0     H53836   2.965  10.961   6.592 -3.0138 -0.8694 -0.4804
  408MOL0     H53837   2.959  10.943   6.770  1.1248 -0.8452  0.6138
  408MOL0     H53838   3.829  11.272   6.319 -1.8446 -1.6528  1.2511
  408MOL0     H53839   4.072  11.303   6.226  1.8540 -2.0534 -1.2124
  408MOL0     H53840   4.524  11.222   6.354  2.8301  0.4130  0.9489
  408MOL0     H53841   4.749  11.252   6.325  0.0504  0.0804 -0.1005
  408MOL0     H53842   6.149  10.193   5.775 -0.0047 -0.3649  0.7378
  408MOL0     H53843   6.380  10.196   5.880 -1.3771  0.7957  1.1275
  408MOL0     H53844   6.615  10.472   6.174 -0.6520 -1.7675  0.5252
  408MOL0     H53845   6.802  10.504   6.326 -3.1362 -0.6002 -0.2739
  408MOL0     H53846   7.231  10.513   6.274 -0.6271  0.0828  2.5076
  408MOL0     H53847   7.168  10.436   6.137 -1.9497 -1.7965 -0.2207
  408MOL0     H53848   7.249  10.303   6.388  0.6482  1.3445 -0.2468
  408MOL0     H53849   7.175  10.211   6.255  2.0279  0.6383 -1.4633
  408MOL0     H53850   7.377  10.255   6.109  2.3243  1.9447  0.0649
  408MOL0     H53851   7.394  10.148   6.252 -0.0290 -0.3614 -0.5936
  408MOL0     H53852   7.453  10.441   6.202  1.5923 -0.5340 -1.1649
  408MOL0     H53853   7.484  10.373   6.368 -3.0347  0.8427  0.1568
  408MOL0     H53854   7.810  10.220   6.169 -0.7780 -0.0174 -0.2671
  408MOL0     H53855   7.050  10.265   6.056  1.1349 -2.2438  1.9218
  408MOL0     H53856   6.865  10.248   5.908  1.3603  1.3507 -1.6184
  409MOL0     O53857   5.054  10.338   8.140 -0.1910  0.0018 -0.4668
  409MOL0     C53858   4.971  10.246   8.157 -0.2444  0.0810  0.3301
  409MOL0     O53859   4.837  10.257   8.144  0.4503 -0.2160 -0.1859
  409MOL0     C53860   4.783  10.381   8.129  0.1107 -0.0779 -0.2835
  409MOL0     C53861   4.833  10.477   8.038  0.5426  0.0844 -0.8787
  409MOL0     C53862   4.765  10.598   8.032  0.3388 -0.8433  0.0585
  409MOL0     C53863   4.661  10.632   8.126 -0.7321 -0.2396 -0.2932
  409MOL0     O53864   4.611  10.763   8.118 -1.0020 -0.0446 -0.2019
  409MOL0     C53865   4.599  10.826   7.987 -0.1625  0.2231 -0.0341
  409MOL0     C53866   4.510  10.948   8.000  0.2468  0.7409 -0.2417
  409MOL0     C53867   4.356  10.931   8.006  0.4165 -0.3976  0.1066
  409MOL0     C53868   4.309  10.862   8.133  0.0052 -0.5416 -0.6535
  409MOL0     C53869   4.162  10.890   8.154  0.2866  0.3397  0.1137
  409MOL0     C53870   4.134  11.018   8.240 -0.7728 -0.2757  0.5522
  409MOL0     C53871   3.983  11.049   8.241  0.3819 -0.2089 -0.1568
  409MOL0     C53872   3.950  11.117   8.377  0.4829  0.2697  0.1182
  409MOL0     N53873   3.814  11.180   8.386 -0.5001 -0.0323  0.0470
  409MOL0     C53874   3.696  11.125   8.350  0.4710  0.3335  0.0238
  409MOL0     C53875   3.609  11.227   8.355  0.4065 -0.2893  0.3548
  409MOL0     C53876   3.473  11.211   8.314 -0.3716  1.0075  0.6291
  409MOL0     C53877   3.368  11.193   8.423 -0.8316  0.1609 -0.1039
  409MOL0     C53878   3.293  11.321   8.455 -0.1542  0.0076  0.4342
  409MOL0     C53879   3.158  11.287   8.515 -0.6565 -0.0003 -0.3685
  409MOL0     O53880   3.063  11.250   8.410 -0.3778  0.5071 -0.0110
  409MOL0     C53881   2.928  11.229   8.444 -0.5807  0.2539  0.5877
  409MOL0     C53882   2.878  11.216   8.579  0.5000  0.2703  0.3750
  409MOL0     C53883   2.743  11.189   8.613  0.5417  0.5156  0.7500
  409MOL0     C53884   2.647  11.183   8.518 -0.0469 -0.0139 -0.6824
  409MOL0     C53885   2.502  11.166   8.550 -0.4386 -0.6544  0.8166
  409MOL0     O53886   2.427  11.140   8.432  0.1309 -0.5087 -0.2892
  409MOL0     C53887   2.297  11.111   8.424 -0.5727 -0.2283 -0.1028
  409MOL0     C53888   2.211  11.060   8.526 -0.4070 -0.0773 -0.2841
  409MOL0     C53889   2.075  11.028   8.496  0.0158 -0.9621 -0.8610
  409MOL0     C53890   2.017  11.055   8.372  0.2216  0.7212 -0.4063
  409MOL0     O53891   1.887  11.024   8.354  0.0920  0.5683 -0.4545
  409MOL0     C53892   1.853  10.982   8.216  0.4585  0.3116  0.1476
  409MOL0     C53893   1.700  10.936   8.208  0.1121  0.3514 -0.5124
  409MOL0     C53894   1.657  10.825   8.308  0.1967  0.4221  0.1376
  409MOL0     C53895   1.504  10.814   8.298 -0.8637 -0.1920 -0.7718
  409MOL0     C53896   1.459  10.687   8.374 -0.8412 -0.1698  0.1307
  409MOL0     C53897   1.468  10.695   8.530  0.6462  0.0161 -0.2757
  409MOL0     C53898   1.369  10.797   8.576 -0.3544  0.2550 -0.2511
  409MOL0     C53899   1.382  10.830   8.724 -0.4544  0.3632  0.4578
  409MOL0    Cl53900   1.239  10.918   8.785 -0.0745  0.0214  0.2715
  409MOL0     C53901   2.100  11.113   8.280 -0.3236  0.1143 -0.3053
  409MOL0     C53902   2.241  11.131   8.302 -0.3807  0.6621 -0.1489
  409MOL0     O53903   2.453  11.193   8.662 -0.5724 -0.4596  0.0315
  409MOL0     C53904   2.692  11.193   8.384 -0.8648 -0.2270 -0.4221
  409MOL0     C53905   2.827  11.212   8.342 -0.8390  0.0238 -0.5586
  409MOL0     N53906   3.674  11.334   8.402 -0.2623  0.4234 -0.0696
  409MOL0     N53907   3.802  11.306   8.424  0.3612  0.5600 -0.2001
  409MOL0     C53908   4.604  10.542   8.212 -0.3898 -0.0992 -0.2290
  409MOL0     C53909   4.665  10.412   8.201  0.2663 -0.0844  0.3181
  409MOL0     C53910   5.018  10.115   8.186 -0.1121 -0.3133  0.2051
  409MOL0     C53911   5.160  10.087   8.183  0.4551 -0.3988  0.6630
  409MOL0     C53912   5.204   9.956   8.195 -0.4403  0.8845 -0.0681
  409MOL0     C53913   5.117   9.846   8.229  0.0899 -0.6260 -0.4244
  409MOL0     O53914   5.165   9.722   8.275 -1.2186  0.2787  0.2336
  409MOL0     C53915   5.308   9.693   8.268  0.1720 -0.6222 -0.6074
  409MOL0     C53916   5.361   9.676   8.126  0.2242  0.1167 -0.6018
  409MOL0     C53917   5.491   9.590   8.130  1.1598 -0.6508  0.1710
  409MOL0     C53918   5.589   9.639   8.025 -0.7567  0.0535  0.9366
  409MOL0     C53919   5.633   9.520   7.940  0.6011 -0.1191 -0.4823
  409MOL0     C53920   5.669   9.423   7.875 -0.2574  0.1689  0.1430
  409MOL0     C53921   4.981   9.872   8.232  0.6377  0.7942 -0.3335
  409MOL0     C53922   4.937  10.001   8.214 -0.2087 -0.1248 -0.5412
  409MOL0     H53923   4.925  10.462   7.984  2.7049  1.5823  2.0549
  409MOL0     H53924   4.808  10.678   7.973 -0.7722  0.1053  0.5110
  409MOL0     H53925   4.550  10.749   7.927 -1.5826 -0.2061  1.5744
  409MOL0     H53926   4.695  10.851   7.942 -0.0201 -0.1612  0.0501
  409MOL0     H53927   4.522  11.023   7.921 -1.6042  0.4199 -0.8772
  409MOL0     H53928   4.535  10.998   8.095  0.2208 -0.1928  0.2626
  409MOL0     H53929   4.309  10.889   7.917 -0.5483 -0.2400  0.5291
  409MOL0     H53930   4.334  11.037   8.023  0.2588 -0.0763 -1.8456
  409MOL0     H53931   4.315  10.753   8.121 -0.3061 -0.6233 -0.1337
  409MOL0     H53932   4.367  10.887   8.222 -2.3907 -0.6503  1.0482
  409MOL0     H53933   4.122  10.802   8.205 -1.3626  1.4956  0.9240
  409MOL0     H53934   4.111  10.895   8.057 -1.3523 -1.3725  0.8210
  409MOL0     H53935   4.180  11.108   8.197 -1.6171 -0.6593 -1.2502
  409MOL0     H53936   4.164  11.003   8.344 -1.2143  2.7012  1.1979
  409MOL0     H53937   3.960  11.106   8.150 -2.2396 -0.2171  0.4251
  409MOL0     H53938   3.917  10.962   8.253 -0.0636  0.3681  1.9196
  409MOL0     H53939   4.022  11.196   8.401  0.0595  0.2306  1.6254
  409MOL0     H53940   3.965  11.043   8.456  0.0624 -1.2675 -1.1910
  409MOL0     H53941   3.670  11.022   8.332  4.3270 -0.6648 -0.8639
  409MOL0     H53942   3.469  11.125   8.247 -1.1824 -0.5449  2.5501
  409MOL0     H53943   3.444  11.293   8.248  0.3681 -0.5142 -1.7089
  409MOL0     H53944   3.425  11.162   8.511 -0.7695 -0.8614 -0.4823
  409MOL0     H53945   3.292  11.116   8.406 -0.0551 -0.6214 -0.1235
  409MOL0     H53946   3.354  11.363   8.536  1.0505 -0.5929 -0.1242
  409MOL0     H53947   3.290  11.392   8.372 -0.9083  1.2170  1.4531
  409MOL0     H53948   3.124  11.378   8.566 -0.7211  1.2031 -2.4547
  409MOL0     H53949   3.170  11.209   8.591  2.9678  1.3067  0.6455
  409MOL0     H53950   2.954  11.216   8.656 -0.3508 -1.2279  1.2633
  409MOL0     H53951   2.704  11.182   8.714 -0.4955  2.1936  0.4945
  409MOL0     H53952   2.247  11.044   8.627 -0.5472 -0.4861 -0.2940
  409MOL0     H53953   2.006  10.989   8.570 -0.1299  0.5714 -0.1353
  409MOL0     H53954   1.916  10.897   8.187 -0.5499 -0.5576  0.4522
  409MOL0     H53955   1.872  11.066   8.149  2.8808  0.3290  0.7576
  409MOL0     H53956   1.691  10.898   8.105  3.4296 -3.7357  0.4079
  409MOL0     H53957   1.625  11.016   8.208  0.3148  0.6077  2.0837
  409MOL0     H53958   1.684  10.847   8.411 -1.1199  1.4378  0.2927
  409MOL0     H53959   1.701  10.728   8.284 -1.4573 -0.7356  1.5476
  409MOL0     H53960   1.467  10.901   8.352 -0.3061 -0.7826  0.6000
  409MOL0     H53961   1.462  10.815   8.197  2.4495  3.9272 -2.4391
  409MOL0     H53962   1.524  10.605   8.339  1.0216  1.2446  0.1451
  409MOL0     H53963   1.359  10.652   8.348  0.1857 -2.5889 -0.9914
  409MOL0     H53964   1.571  10.718   8.558  1.1831 -2.8167  0.4154
  409MOL0     H53965   1.450  10.592   8.564 -0.5397  0.9306  2.1080
  409MOL0     H53966   1.357  10.889   8.518  0.2479  1.2113  1.0925
  409MOL0     H53967   1.265  10.765   8.560 -0.8269  1.1369  0.9123
  409MOL0     H53968   1.482  10.870   8.743  1.0203 -3.3715  1.5049
  409MOL0     H53969   1.379  10.733   8.774  0.0753 -3.3674 -5.6530
  409MOL0     H53970   2.062  11.133   8.181 -0.1162 -1.3029 -0.6947
  409MOL0     H53971   2.306  11.176   8.228 -0.2136 -0.4390 -0.6835
  409MOL0     H53972   2.630  11.185   8.295  0.8762  2.8738 -2.0805
  409MOL0     H53973   2.862  11.211   8.239 -0.4423 -1.1745 -0.4318
  409MOL0     H53974   4.509  10.568   8.258  0.1254  0.8326  0.3554
  409MOL0     H53975   4.617  10.339   8.266 -0.4108  0.4205  0.4054
  409MOL0     H53976   5.228  10.166   8.153  1.3656 -1.6360 -0.6925
  409MOL0     H53977   5.311   9.941   8.207 -0.1780  1.6703 -1.2425
  409MOL0     H53978   5.324   9.599   8.321 -1.0616 -1.8025 -2.2092
  409MOL0     H53979   5.365   9.773   8.316 -0.2582 -0.8311  0.2754
  409MOL0     H53980   5.275   9.641   8.069 -0.1731 -2.6962  1.5193
  409MOL0     H53981   5.390   9.776   8.090 -0.7648  0.5177 -0.3059
  409MOL0     H53982   5.456   9.486   8.125  2.4331 -1.0715 -0.5824
  409MOL0     H53983   5.545   9.604   8.224  3.8813  1.9333 -1.5722
  409MOL0     H53984   5.560   9.717   7.954 -1.6239 -0.4947  0.6755
  409MOL0     H53985   5.671   9.682   8.083 -2.0377  1.3953  1.8205
  409MOL0     H53986   5.687   9.352   7.796 -0.4830 -1.1568  1.2567
  409MOL0     H53987   4.912   9.794   8.260  3.4350 -1.0900  1.9405
  409MOL0     H53988   4.831  10.016   8.232 -0.3534  1.5962 -2.3586
  410MOL0     O53989   6.861   9.957   2.944 -0.2888  0.1353 -0.0527
  410MOL0     C53990   6.904  10.067   2.965  0.2892 -0.8967 -0.6780
  410MOL0     O53991   6.824  10.181   2.968  0.3795  0.0034  0.5051
  410MOL0     C53992   6.684  10.171   2.949 -0.1066  0.0156 -0.3901
  410MOL0     C53993   6.601  10.209   3.051 -0.1770 -0.3212 -0.3197
  410MOL0     C53994   6.464  10.204   3.025 -0.4481  0.5139  0.1119
  410MOL0     C53995   6.419  10.174   2.901  0.7169  0.7379 -0.1196
  410MOL0     O53996   6.284  10.168   2.889  0.2138 -0.0274 -0.3203
  410MOL0     C53997   6.233  10.179   2.755 -0.0116 -0.6469  0.8449
  410MOL0     C53998   6.078  10.223   2.757  0.2526 -0.5771 -0.1293
  410MOL0     C53999   6.006  10.132   2.864 -0.1457  0.4763  0.0276
  410MOL0     C54000   6.000   9.974   2.834 -0.0986 -0.3282  0.5119
  410MOL0     C54001   5.967   9.896   2.953  0.1857 -0.0496  0.2066
  410MOL0     C54002   5.949   9.751   2.918 -0.2688  0.5272 -0.3641
  410MOL0     C54003   5.910   9.667   3.039  0.6756  0.1113 -0.2317
  410MOL0     C54004   5.779   9.703   3.112 -0.5594 -0.1509 -0.3924
  410MOL0     N54005   5.664   9.689   3.025 -0.3011  0.5338  0.1966
  410MOL0     C54006   5.572   9.582   3.024  0.3424  0.3974 -0.5502
  410MOL0     C54007   5.502   9.592   2.912 -0.1368  0.0523 -1.1409
  410MOL0     C54008   5.390   9.506   2.867  0.0745  0.0298 -0.4618
  410MOL0     C54009   5.278   9.489   2.970 -0.5303 -0.0249 -0.0847
  410MOL0     C54010   5.150   9.432   2.897  1.3169  0.7188  0.0145
  410MOL0     C54011   5.026   9.444   2.989 -0.1293 -0.0503  0.7125
  410MOL0     O54012   4.914   9.508   2.920  0.4759  0.3839  0.2346
  410MOL0     C54013   4.788   9.456   2.915  0.4694 -0.5928  0.4125
  410MOL0     C54014   4.733   9.377   3.014  0.3802 -0.8121  0.2369
  410MOL0     C54015   4.597   9.346   3.005  0.2653 -0.4923 -0.0652
  410MOL0     C54016   4.517   9.385   2.894  0.1764  0.6306 -0.6204
  410MOL0     C54017   4.378   9.350   2.875  0.5854  1.3895  0.5640
  410MOL0     O54018   4.331   9.241   2.949  0.3708 -0.4857 -0.0870
  410MOL0     C54019   4.191   9.222   2.961  0.1840  0.5817  0.4806
  410MOL0     C54020   4.110   9.324   3.009 -0.2709 -0.8119  0.4943
  410MOL0     C54021   3.972   9.302   3.028 -0.5780 -0.3981  0.7845
  410MOL0     C54022   3.920   9.176   3.013  0.1676 -0.0392 -0.7078
  410MOL0     O54023   3.783   9.162   3.039  0.0332  0.3977 -0.2714
  410MOL0     C54024   3.749   9.066   3.148  0.1676  0.2560 -0.3458
  410MOL0     C54025   3.598   9.086   3.183  0.0765  1.1453  0.0830
  410MOL0     C54026   3.497   9.034   3.071  0.7872 -0.5106 -0.1913
  410MOL0     C54027   3.350   9.063   3.114  0.3065 -0.0154 -0.2524
  410MOL0     C54028   3.258   8.982   3.017 -0.6361 -0.3577  1.0298
  410MOL0     C54029   3.111   8.995   3.060  0.6014  0.2837 -0.1040
  410MOL0     C54030   3.018   8.906   2.972 -0.8294 -0.4624 -0.5758
  410MOL0     C54031   2.881   8.954   2.995 -0.6014  0.1354 -1.0866
  410MOL0    Cl54032   2.773   8.831   2.924 -0.1324 -0.0628 -0.1224
  410MOL0     C54033   4.000   9.076   2.975 -0.7423 -0.3658 -0.0992
  410MOL0     C54034   4.136   9.097   2.954  1.8901  0.1691  0.4197
  410MOL0     O54035   4.308   9.438   2.813  0.2578 -0.1782 -0.6760
  410MOL0     C54036   4.579   9.458   2.800 -0.0222 -0.1452 -0.2506
  410MOL0     C54037   4.709   9.494   2.805  0.4393 -0.3972 -0.0663
  410MOL0     N54038   5.559   9.702   2.842  0.7164 -0.3340  0.9802
  410MOL0     N54039   5.649   9.760   2.905  0.3260  0.7338  0.6374
  410MOL0     C54040   6.504  10.128   2.805 -0.0355 -0.0244  0.5934
  410MOL0     C54041   6.638  10.119   2.830  0.6439 -0.0576  0.3798
  410MOL0     C54042   7.047  10.074   2.984  0.0912 -0.1826 -0.9186
  410MOL0     C54043   7.108  10.189   2.940  0.0578  0.2675 -0.4022
  410MOL0     C54044   7.240  10.222   2.979  0.7706  0.1023 -0.7696
  410MOL0     C54045   7.319  10.125   3.046 -0.7456  0.3249  0.4992
  410MOL0     O54046   7.452  10.158   3.064  0.4578  0.3951 -0.4290
  410MOL0     C54047   7.533  10.151   2.941 -0.0224 -1.2759 -0.3158
  410MOL0     C54048   7.637  10.037   2.959 -0.7146  0.3202 -0.2140
  410MOL0     C54049   7.729  10.048   3.090 -0.3898 -0.0734  0.2722
  410MOL0     C54050   7.818   9.929   3.114 -0.9717  0.7571  0.8748
  410MOL0     C54051   7.740   9.802   3.140 -0.2824 -0.4165  0.2252
  410MOL0     C54052   7.674   9.708   3.165 -0.3600  0.2593 -1.0820
  410MOL0     C54053   7.261  10.000   3.071 -0.1446 -0.2118  0.1011
  410MOL0     C54054   7.123   9.970   3.039  0.0126 -0.6289  0.3984
  410MOL0     H54055   6.632  10.258   3.143 -2.7765  1.9429 -0.5001
  410MOL0     H54056   6.381  10.230   3.089  0.4286  1.3447  0.9486
  410MOL0     H54057   6.232  10.082   2.704 -0.5305 -0.9873  1.4848
  410MOL0     H54058   6.297  10.247   2.698 -1.8384 -0.3451 -0.9784
  410MOL0     H54059   6.026  10.206   2.662  0.1002 -1.2003  0.0593
  410MOL0     H54060   6.072  10.328   2.786 -1.5109 -1.4863  3.3794
  410MOL0     H54061   5.902  10.164   2.863 -0.0641  0.8306 -1.7822
  410MOL0     H54062   6.061  10.142   2.958  2.0000 -2.2944 -0.7864
  410MOL0     H54063   5.925   9.960   2.755  0.5339  0.5017 -0.2708
  410MOL0     H54064   6.100   9.946   2.800  1.7460  3.3815  2.2023
  410MOL0     H54065   5.880   9.946   2.997 -0.1453  0.3431 -0.8524
  410MOL0     H54066   6.039   9.898   3.036  1.0505 -2.7398 -0.4053
  410MOL0     H54067   6.043   9.703   2.892 -1.2341 -2.1311  0.6172
  410MOL0     H54068   5.878   9.736   2.836  0.2365  0.0804 -0.7241
  410MOL0     H54069   5.922   9.562   3.009  1.7148  0.5374 -1.3971
  410MOL0     H54070   5.984   9.682   3.117 -0.0906  2.0152  0.1911
  410MOL0     H54071   5.783   9.803   3.155  0.8130 -0.4793  0.3287
  410MOL0     H54072   5.772   9.645   3.205 -1.0069 -0.6271 -0.7167
  410MOL0     H54073   5.555   9.503   3.096 -1.3228 -2.2979 -3.6305
  410MOL0     H54074   5.428   9.409   2.833  0.8740  0.3717 -0.5769
  410MOL0     H54075   5.339   9.552   2.782 -3.6970 -1.7105  0.6343
  410MOL0     H54076   5.258   9.584   3.022  2.5952 -0.7609  2.8045
  410MOL0     H54077   5.322   9.415   3.037 -0.9127 -1.7439 -1.6731
  410MOL0     H54078   5.125   9.482   2.803  2.2628 -0.4545 -0.9050
  410MOL0     H54079   5.158   9.323   2.890 -0.6380  0.4508  1.2728
  410MOL0     H54080   5.049   9.483   3.089  0.1361  0.2111  0.5512
  410MOL0     H54081   4.990   9.342   3.008 -1.2451  0.4503  1.3446
  410MOL0     H54082   4.784   9.353   3.107 -1.9484 -0.5086  1.6777
  410MOL0     H54083   4.542   9.299   3.086  0.5280  1.2136  1.1496
  410MOL0     H54084   4.131   9.428   3.030 -1.8859 -0.2120 -0.7238
  410MOL0     H54085   3.915   9.392   3.050  1.9801  1.3921  0.5769
  410MOL0     H54086   3.807   9.097   3.236 -1.9764 -0.6087  1.4852
  410MOL0     H54087   3.771   8.961   3.127 -0.5811  0.1055 -0.3971
  410MOL0     H54088   3.576   9.193   3.192 -0.1840  1.1093 -0.1063
  410MOL0     H54089   3.586   9.033   3.277  0.8281  2.6255  1.0514
  410MOL0     H54090   3.522   8.928   3.061  0.8308 -0.6796  1.5074
  410MOL0     H54091   3.507   9.076   2.970  0.5019  1.3308  0.5021
  410MOL0     H54092   3.335   9.030   3.217  0.9944 -1.1654 -0.4969
  410MOL0     H54093   3.327   9.169   3.104 -6.1843 -1.0679 -0.4443
  410MOL0     H54094   3.288   8.877   3.011 -0.3251 -0.1991 -3.2369
  410MOL0     H54095   3.272   9.030   2.920  0.5304  0.1657  1.4335
  410MOL0     H54096   3.085   9.100   3.047 -0.1278 -0.1370 -2.6326
  410MOL0     H54097   3.090   8.968   3.164 -1.7494 -2.9220 -1.2322
  410MOL0     H54098   3.067   8.922   2.875  1.4678  0.3945  0.6557
  410MOL0     H54099   3.029   8.800   2.993  3.0150  0.3084  2.4602
  410MOL0     H54100   2.870   9.048   2.941 -1.6652 -0.5693 -2.1411
  410MOL0     H54101   2.856   8.973   3.100 -1.5771 -1.7793 -0.9392
  410MOL0     H54102   3.964   8.974   2.964 -0.8301 -0.1393 -2.4225
  410MOL0     H54103   4.206   9.016   2.937  0.1922 -0.9577 -1.7923
  410MOL0     H54104   4.535   9.490   2.707  1.5583  4.3609  0.3000
  410MOL0     H54105   4.755   9.569   2.741 -0.5715 -0.7472 -1.2202
  410MOL0     H54106   6.468  10.074   2.718  0.3938  1.2815 -0.4201
  410MOL0     H54107   6.705  10.083   2.753 -1.7531 -0.8903 -1.4335
  410MOL0     H54108   7.056  10.273   2.897  1.2055  2.2538  1.8736
  410MOL0     H54109   7.275  10.320   2.948 -1.5032  0.6696 -1.7657
  410MOL0     H54110   7.585  10.246   2.930 -0.9490 -0.8171 -0.9230
  410MOL0     H54111   7.476  10.144   2.848  0.9453  0.8812 -1.1303
  410MOL0     H54112   7.586   9.941   2.971 -3.5356  1.1749 -3.6080
  410MOL0     H54113   7.705  10.033   2.873 -1.6458 -3.6158 -0.9675
  410MOL0     H54114   7.671  10.066   3.181  1.2493  3.2145  0.8008
  410MOL0     H54115   7.789  10.138   3.081  0.5636 -0.7021  0.1929
  410MOL0     H54116   7.891   9.916   3.033  1.0910  1.4223  2.5096
  410MOL0     H54117   7.876   9.947   3.205  1.1282 -2.1759  0.2817
  410MOL0     H54118   7.625   9.622   3.206  0.9144 -1.1275 -2.3402
  410MOL0     H54119   7.317   9.924   3.123  2.1941  1.8440  0.7630
  410MOL0     H54120   7.082   9.871   3.052  3.2358 -1.9837  1.2565
  411MOL0     O54121   0.191   3.393   6.087 -0.7862  0.7884 -0.3898
  411MOL0     C54122   0.288   3.399   6.013 -0.8379  0.4486 -0.1833
  411MOL0     O54123   0.286   3.377   5.883 -0.0139 -0.4504 -0.0881
  411MOL0     C54124   0.161   3.388   5.828  0.1392 -0.5511 -0.0956
  411MOL0     C54125   0.086   3.510   5.828 -0.7804  0.7248 -0.3209
  411MOL0     C54126  -0.034   3.527   5.776 -0.7265  0.2360  0.2556
  411MOL0     C54127  -0.098   3.421   5.718 -0.2495 -0.4447  0.1161
  411MOL0     O54128  -0.213   3.419   5.650  0.1962 -0.0236 -0.3183
  411MOL0     C54129  -0.317   3.516   5.671  0.4635  0.0025  1.1500
  411MOL0     C54130  -0.439   3.454   5.596 -0.6683 -0.5275 -0.5441
  411MOL0     C54131  -0.505   3.337   5.666  0.0361  0.5237  0.2868
  411MOL0     C54132  -0.633   3.300   5.598  0.6977 -0.3043 -0.0601
  411MOL0     C54133  -0.715   3.207   5.686 -0.2612 -0.3676 -0.5910
  411MOL0     C54134  -0.840   3.153   5.609  0.0390  0.2301 -0.2754
  411MOL0     C54135  -0.923   3.055   5.691  0.3737 -0.1438  0.0921
  411MOL0     C54136  -1.054   3.031   5.616 -0.4061  0.1763  0.4679
  411MOL0     N54137  -1.139   2.923   5.678 -0.3353  0.6924 -0.5943
  411MOL0     C54138  -1.104   2.831   5.780  0.2353  0.1546 -0.5628
  411MOL0     C54139  -1.209   2.733   5.772 -0.8107 -0.2542 -0.3709
  411MOL0     C54140  -1.221   2.616   5.866  0.3171  0.2318 -0.1412
  411MOL0     C54141  -1.346   2.521   5.850 -0.2958 -0.5395  0.8229
  411MOL0     C54142  -1.367   2.402   5.954 -1.0367  0.0825 -0.2738
  411MOL0     C54143  -1.381   2.456   6.098 -0.7003 -0.2319  0.0965
  411MOL0     O54144  -1.482   2.550   6.115  0.1615  0.5097  0.1367
  411MOL0     C54145  -1.612   2.506   6.104  1.0194 -0.9713  0.1161
  411MOL0     C54146  -1.713   2.600   6.126 -0.4918 -0.7072 -0.0639
  411MOL0     C54147  -1.844   2.573   6.102  0.0791  0.7060 -0.2214
  411MOL0     C54148  -1.881   2.442   6.094  0.3238  0.1622 -0.3402
  411MOL0     C54149  -2.031   2.407   6.107 -1.0250 -0.5809  0.9035
  411MOL0     O54150  -2.104   2.499   6.166  0.4008 -0.3402 -0.2922
  411MOL0     C54151  -2.233   2.485   6.212  0.3601  0.9666  0.3664
  411MOL0     C54152  -2.266   2.583   6.299 -0.2385 -0.5014  0.0193
  411MOL0     C54153  -2.390   2.574   6.373  0.9245 -0.8679 -0.2681
  411MOL0     C54154  -2.482   2.474   6.342  0.5093 -0.7982 -0.0171
  411MOL0     O54155  -2.617   2.454   6.391  0.2045  0.5787 -0.0429
  411MOL0     C54156  -2.637   2.527   6.510 -0.8409 -0.6454  0.0078
  411MOL0     C54157  -2.779   2.492   6.558 -1.2372 -0.2782  0.0715
  411MOL0     C54158  -2.805   2.340   6.598 -0.4677  0.0059 -0.0949
  411MOL0     C54159  -2.943   2.322   6.657  0.4244 -0.1982  0.0480
  411MOL0     C54160  -2.970   2.415   6.773  0.3461  0.4137 -1.0957
  411MOL0     C54161  -2.870   2.402   6.902  0.4041 -0.8199 -0.6054
  411MOL0     C54162  -2.848   2.264   6.968  0.2122  0.1508  0.1072
  411MOL0     C54163  -2.739   2.285   7.072 -0.6081 -0.5969 -0.1637
  411MOL0    Cl54164  -2.791   2.388   7.212 -0.0835 -0.2551  0.3593
  411MOL0     C54165  -2.451   2.381   6.240 -0.0533  0.2688 -0.1270
  411MOL0     C54166  -2.325   2.384   6.181 -0.2235 -0.2700  0.4905
  411MOL0     O54167  -2.061   2.289   6.081  0.3439  0.0647 -0.6403
  411MOL0     C54168  -1.792   2.341   6.097 -0.2262  0.6061  0.1052
  411MOL0     C54169  -1.659   2.372   6.102 -0.4970 -0.2390 -0.5045
  411MOL0     N54170  -1.296   2.765   5.675 -0.4146 -0.1595 -0.2732
  411MOL0     N54171  -1.251   2.872   5.622 -0.6502 -0.0184  0.2290
  411MOL0     C54172  -0.034   3.297   5.722  1.0125 -0.4348  1.0892
  411MOL0     C54173   0.097   3.285   5.767 -0.2574  0.0204 -0.8369
  411MOL0     C54174   0.423   3.411   6.069  0.2782 -0.6271  0.1299
  411MOL0     C54175   0.527   3.475   6.004  0.6486  0.0181  1.1092
  411MOL0     C54176   0.638   3.511   6.083 -0.2355 -0.3976  0.3034
  411MOL0     C54177   0.661   3.465   6.206 -0.1867  0.3242  0.3148
  411MOL0     O54178   0.781   3.464   6.283 -0.1436 -0.7518  0.4342
  411MOL0     C54179   0.876   3.566   6.247 -0.4506  0.8266  0.4156
  411MOL0     C54180   0.998   3.583   6.339  0.0104  0.1618 -0.2603
  411MOL0     C54181   1.071   3.708   6.305 -0.5129 -0.0537 -0.0995
  411MOL0     C54182   1.179   3.728   6.405 -0.3922 -0.5281 -0.3604
  411MOL0     C54183   1.270   3.849   6.400  0.0387  0.5559 -0.3761
  411MOL0     C54184   1.340   3.955   6.403 -0.1242  0.6989 -0.3156
  411MOL0     C54185   0.551   3.388   6.264 -0.3783  0.1026  1.0821
  411MOL0     C54186   0.435   3.370   6.196 -0.5017 -0.4617 -0.4829
  411MOL0     H54187   0.121   3.606   5.866 -1.5070  0.9101 -0.1015
  411MOL0     H54188  -0.081   3.625   5.784 -0.2022  0.3378  2.7264
  411MOL0     H54189  -0.304   3.609   5.615 -0.7492 -1.3105 -1.4692
  411MOL0     H54190  -0.343   3.529   5.777  0.7335 -1.6118  1.4502
  411MOL0     H54191  -0.416   3.416   5.496 -0.4492 -1.3016 -0.2104
  411MOL0     H54192  -0.520   3.527   5.586  0.5461  0.7186 -1.6940
  411MOL0     H54193  -0.519   3.366   5.770  1.6172  0.2702  0.6007
  411MOL0     H54194  -0.434   3.254   5.670  1.9468  2.1254  2.2496
  411MOL0     H54195  -0.684   3.393   5.570  0.9704 -0.9573 -2.9896
  411MOL0     H54196  -0.611   3.248   5.504  1.9243  1.6078 -0.8874
  411MOL0     H54197  -0.745   3.257   5.778  3.1950  0.2533  0.3532
  411MOL0     H54198  -0.650   3.121   5.703 -0.8524 -0.5925  0.6578
  411MOL0     H54199  -0.804   3.111   5.515  3.5487 -0.1435  1.0719
  411MOL0     H54200  -0.906   3.235   5.577 -2.1306 -1.5973 -0.7436
  411MOL0     H54201  -0.867   2.964   5.713 -0.1191 -0.9743 -1.8166
  411MOL0     H54202  -0.952   3.103   5.784 -1.3595 -0.6447 -0.1559
  411MOL0     H54203  -1.031   3.013   5.510  2.3536  1.1067  0.8198
  411MOL0     H54204  -1.111   3.124   5.614 -2.4098 -1.0083 -0.9878
  411MOL0     H54205  -1.026   2.831   5.855 -0.7157 -1.2880  0.4843
  411MOL0     H54206  -1.233   2.661   5.965 -2.1900  0.5860 -0.5332
  411MOL0     H54207  -1.125   2.563   5.867  1.2342  1.8088 -0.5303
  411MOL0     H54208  -1.338   2.471   5.754 -1.4023 -1.5032  1.2123
  411MOL0     H54209  -1.436   2.583   5.843 -0.7585 -1.2290  0.6692
  411MOL0     H54210  -1.442   2.335   5.913 -2.4717  1.6817 -0.3628
  411MOL0     H54211  -1.274   2.344   5.950  0.9689  2.9812  0.4181
  411MOL0     H54212  -1.282   2.500   6.116  0.4460 -3.2378  1.9270
  411MOL0     H54213  -1.388   2.366   6.160 -1.3368  0.1434  0.5820
  411MOL0     H54214  -1.670   2.699   6.138  3.3394 -2.2514  0.6066
  411MOL0     H54215  -1.922   2.649   6.104 -2.7940 -2.0027 -1.1723
  411MOL0     H54216  -2.185   2.653   6.320 -1.8548  1.3422  0.3845
  411MOL0     H54217  -2.415   2.645   6.451  2.7450 -3.0738  2.5224
  411MOL0     H54218  -2.626   2.632   6.485  0.9329 -0.9483 -0.6496
  411MOL0     H54219  -2.558   2.508   6.584 -1.2049 -0.2026  0.5121
  411MOL0     H54220  -2.836   2.517   6.468  1.6955 -0.5694 -2.0033
  411MOL0     H54221  -2.801   2.560   6.641 -1.4504 -1.4993  1.0456
  411MOL0     H54222  -2.727   2.307   6.666 -1.2388  0.3046  0.9585
  411MOL0     H54223  -2.797   2.283   6.505  0.9969 -0.8277  0.5163
  411MOL0     H54224  -3.026   2.347   6.590 -1.8543 -1.5426  2.1824
  411MOL0     H54225  -2.965   2.217   6.677  0.8685 -0.5782 -1.3876
  411MOL0     H54226  -3.072   2.392   6.807  0.7020  2.6287  1.8755
  411MOL0     H54227  -2.975   2.518   6.738  0.5037  0.3397 -1.3359
  411MOL0     H54228  -2.921   2.469   6.972 -2.7706  1.3474 -4.5317
  411MOL0     H54229  -2.770   2.446   6.891  0.4770 -1.2947 -1.9899
  411MOL0     H54230  -2.938   2.234   7.023  0.9594 -0.3765  1.0801
  411MOL0     H54231  -2.817   2.188   6.896  2.5003  1.6804 -0.6090
  411MOL0     H54232  -2.644   2.332   7.044  0.3911  0.0161  3.6876
  411MOL0     H54233  -2.711   2.185   7.107  2.9112  0.3159  0.0357
  411MOL0     H54234  -2.531   2.314   6.213 -0.5422 -0.2641  2.3429
  411MOL0     H54235  -2.305   2.325   6.092  3.7628  0.8771  0.4213
  411MOL0     H54236  -1.820   2.238   6.081 -0.0981  0.7920 -1.4386
  411MOL0     H54237  -1.590   2.289   6.111  1.2704  0.7984 -3.1881
  411MOL0     H54238  -0.076   3.215   5.664  0.8915  0.7511 -0.5599
  411MOL0     H54239   0.142   3.186   5.761 -0.2592 -0.0256 -0.0991
  411MOL0     H54240   0.509   3.511   5.904 -0.0245  2.3563  2.0223
  411MOL0     H54241   0.697   3.587   6.034  0.9535 -1.3471  0.2151
  411MOL0     H54242   0.826   3.663   6.256 -0.1402  1.2615 -1.9311
  411MOL0     H54243   0.911   3.568   6.144 -1.0377 -2.1015  0.0816
  411MOL0     H54244   0.965   3.587   6.443  0.9294 -0.1119  0.0521
  411MOL0     H54245   1.065   3.498   6.317  1.0119  1.3480 -2.0623
  411MOL0     H54246   1.004   3.794   6.313 -2.1039 -1.3181  0.7588
  411MOL0     H54247   1.115   3.696   6.205  1.1573  1.7730  0.3539
  411MOL0     H54248   1.135   3.736   6.505  0.2116 -2.8312  0.1645
  411MOL0     H54249   1.251   3.645   6.405  0.1824 -0.0479  0.3778
  411MOL0     H54250   1.396   4.046   6.393 -0.2790  0.9485  0.8634
  411MOL0     H54251   0.557   3.367   6.370 -0.2456 -0.0963  1.0360
  411MOL0     H54252   0.344   3.330   6.241 -1.2773  1.7360  0.0425
  412MOL0     O54253   6.939   0.725   7.288  0.2392 -0.2933 -0.3898
  412MOL0     C54254   6.977   0.611   7.318  0.0582  0.1806  0.4908
  412MOL0     O54255   6.895   0.498   7.333  0.1146 -0.8105 -0.8717
  412MOL0     C54256   6.755   0.516   7.329  0.6029 -0.2098 -0.3298
  412MOL0     C54257   6.674   0.480   7.221  0.1611  0.4984  0.4688
  412MOL0     C54258   6.539   0.497   7.216  0.5160  0.3599 -0.5167
  412MOL0     C54259   6.480   0.569   7.320  0.6382  0.4417 -0.1290
  412MOL0     O54260   6.351   0.609   7.304  0.0560  0.4297  0.5486
  412MOL0     C54261   6.255   0.511   7.235 -0.5773 -0.8190  1.0365
  412MOL0     C54262   6.106   0.565   7.262 -0.4135  0.8733 -0.0794
  412MOL0     C54263   6.086   0.709   7.207  0.0109  0.0437  0.4256
  412MOL0     C54264   5.951   0.773   7.229  0.1232 -0.5492 -0.0559
  412MOL0     C54265   5.955   0.914   7.170 -0.2424  0.0086  0.1834
  412MOL0     C54266   5.847   1.006   7.229  0.5109  0.3525  0.5960
  412MOL0     C54267   5.704   0.970   7.179  0.7452 -0.0765  0.5012
  412MOL0     C54268   5.621   1.101   7.189 -0.2501  1.5250  0.3778
  412MOL0     N54269   5.480   1.071   7.168 -0.5031  0.3545  0.2471
  412MOL0     C54270   5.417   1.157   7.083 -0.0009 -1.4042 -0.1523
  412MOL0     C54271   5.290   1.120   7.086 -0.8253  0.8506 -0.3087
  412MOL0     C54272   5.182   1.189   7.012 -0.5580 -0.3119  0.3937
  412MOL0     C54273   5.038   1.138   7.034 -0.3102  0.1515 -0.1366
  412MOL0     C54274   4.955   1.221   6.953  0.2198  0.3997  0.4243
  412MOL0     C54275   4.810   1.172   6.967 -0.3942  0.5135 -0.9356
  412MOL0     O54276   4.728   1.250   6.882 -0.1680  0.6015 -0.2242
  412MOL0     C54277   4.597   1.222   6.859 -0.4618 -0.3074 -0.0217
  412MOL0     C54278   4.531   1.310   6.778  0.7241 -0.2041  0.5470
  412MOL0     C54279   4.397   1.285   6.762  0.0126 -0.2480 -0.5730
  412MOL0     C54280   4.326   1.178   6.820  0.1158  0.7345  0.0065
  412MOL0     C54281   4.181   1.157   6.800  0.7844 -1.0636  0.4851
  412MOL0     O54282   4.124   1.246   6.716  0.2435  0.2337  0.4524
  412MOL0     C54283   3.988   1.241   6.699  0.3030 -0.6821 -0.8464
  412MOL0     C54284   3.924   1.143   6.624  0.0324  0.6434 -0.6554
  412MOL0     C54285   3.790   1.156   6.590  0.2981 -1.1205 -0.3238
  412MOL0     C54286   3.716   1.269   6.638  0.0066 -0.7511 -0.4185
  412MOL0     O54287   3.586   1.288   6.608  0.7218 -0.2405  0.3700
  412MOL0     C54288   3.501   1.175   6.594 -0.2011  0.1932  0.2255
  412MOL0     C54289   3.352   1.200   6.633 -0.0661  0.0422 -0.0130
  412MOL0     C54290   3.342   1.265   6.771 -1.1312 -0.2519 -0.2637
  412MOL0     C54291   3.211   1.317   6.810 -0.6145  0.0041  1.3993
  412MOL0     C54292   3.134   1.414   6.715 -2.1746  0.5725 -0.2086
  412MOL0     C54293   3.013   1.478   6.760 -0.0482  0.1983 -0.1965
  412MOL0     C54294   2.912   1.383   6.836 -0.3605  0.7987  1.0931
  412MOL0     C54295   2.794   1.453   6.894 -0.6284 -0.2311 -0.1451
  412MOL0    Cl54296   2.851   1.544   7.025 -0.1309 -0.1822 -0.3196
  412MOL0     C54297   3.780   1.367   6.716  0.2403 -0.0160 -0.5738
  412MOL0     C54298   3.919   1.356   6.743 -0.1343 -0.0739  0.4969
  412MOL0     O54299   4.124   1.068   6.856 -0.4844  0.4587  0.0404
  412MOL0     C54300   4.403   1.095   6.903  0.6013  0.2511 -0.0954
  412MOL0     C54301   4.534   1.114   6.923  0.1176  0.2034  0.1642
  412MOL0     N54302   5.284   1.013   7.178 -1.4992 -0.0703  0.1468
  412MOL0     N54303   5.398   0.987   7.232  0.1094  0.7256  0.1261
  412MOL0     C54304   6.550   0.613   7.440 -0.5669 -0.4173  0.4226
  412MOL0     C54305   6.692   0.585   7.438 -0.3702 -0.5095  0.0335
  412MOL0     C54306   7.127   0.592   7.314 -0.7904 -1.0193  0.2505
  412MOL0     C54307   7.177   0.465   7.353  0.2591  0.3726 -0.4567
  412MOL0     C54308   7.319   0.448   7.360 -0.1906  0.5553  0.1190
  412MOL0     C54309   7.411   0.556   7.324 -0.0416  0.4758  0.2274
  412MOL0     O54310   7.550   0.561   7.313 -0.3038 -0.3719 -0.1518
  412MOL0     C54311   7.643   0.463   7.371  0.0278  0.5333 -0.6889
  412MOL0     C54312   7.683   0.370   7.270  0.0967  0.2459  0.0440
  412MOL0     C54313   7.724   0.437   7.142  0.6624  0.0645 -0.1794
  412MOL0     C54314   7.759   0.337   7.038  0.3075  0.1348  0.3014
  412MOL0     C54315   7.888   0.278   7.060 -0.0396  1.3408 -0.6142
  412MOL0     C54316   7.991   0.225   7.088 -0.5153 -0.6383 -0.1506
  412MOL0     C54317   7.351   0.676   7.283 -0.6520 -0.4434 -0.4431
  412MOL0     C54318   7.218   0.688   7.274  0.7743 -0.0632  0.9166
  412MOL0     H54319   6.723   0.426   7.140  0.7753 -0.3660  1.3831
  412MOL0     H54320   6.489   0.480   7.122 -1.5817  0.2848  0.5549
  412MOL0     H54321   6.257   0.416   7.290 -0.8800 -1.0192  0.7085
  412MOL0     H54322   6.268   0.484   7.130 -0.2267 -0.4910  0.9977
  412MOL0     H54323   6.087   0.559   7.370 -0.8290 -2.2162 -0.2397
  412MOL0     H54324   6.046   0.486   7.217  1.7535 -0.5601 -0.5933
  412MOL0     H54325   6.124   0.709   7.105  0.0836 -2.0311  0.4147
  412MOL0     H54326   6.145   0.777   7.270  0.0878  0.1886  0.1963
  412MOL0     H54327   5.868   0.725   7.176 -0.5174  0.6911 -0.2292
  412MOL0     H54328   5.913   0.770   7.332 -1.4874  0.7846 -0.5703
  412MOL0     H54329   5.953   0.901   7.061  2.9618 -1.0100  0.1317
  412MOL0     H54330   6.055   0.955   7.188 -0.6192  1.2049 -0.3358
  412MOL0     H54331   5.871   1.107   7.194 -2.2193  0.5066 -1.1510
  412MOL0     H54332   5.844   0.999   7.338  0.4041 -0.5197  0.5468
  412MOL0     H54333   5.702   0.926   7.079  0.1011 -1.7988  1.2357
  412MOL0     H54334   5.665   0.895   7.248  0.0207 -2.2040 -2.0803
  412MOL0     H54335   5.666   1.176   7.123 -1.2650  0.3948 -1.7124
  412MOL0     H54336   5.624   1.141   7.290  2.9819  0.3249  0.8863
  412MOL0     H54337   5.455   1.244   7.031  0.8184 -1.8642 -0.3427
  412MOL0     H54338   5.193   1.177   6.904 -3.3651  2.9760 -0.4244
  412MOL0     H54339   5.195   1.297   7.022  0.7830 -0.4294  0.1062
  412MOL0     H54340   5.004   1.152   7.137 -0.7027 -3.2053  0.3012
  412MOL0     H54341   5.021   1.032   7.013  0.4498 -0.3931  1.7434
  412MOL0     H54342   4.954   1.325   6.989  1.2319  0.9543 -1.0289
  412MOL0     H54343   4.977   1.222   6.845  0.1919  0.5969  0.4192
  412MOL0     H54344   4.770   1.175   7.069 -2.1582  0.3701 -1.5928
  412MOL0     H54345   4.807   1.069   6.930  0.0325 -0.2824  1.0619
  412MOL0     H54346   4.585   1.399   6.748 -0.4498 -0.0182 -1.1585
  412MOL0     H54347   4.330   1.344   6.699 -1.1596 -0.3994  0.4782
  412MOL0     H54348   3.994   1.067   6.588  0.8471  0.2660  1.5842
  412MOL0     H54349   3.751   1.090   6.514 -2.0053  0.6667 -0.8029
  412MOL0     H54350   3.532   1.085   6.647 -1.1738 -0.4766 -0.3096
  412MOL0     H54351   3.498   1.154   6.486 -1.8770 -2.5765  0.7125
  412MOL0     H54352   3.284   1.114   6.626  1.5339 -1.4512  1.9087
  412MOL0     H54353   3.316   1.277   6.563 -5.1821 -1.5584  0.4289
  412MOL0     H54354   3.412   1.346   6.789  0.5681 -1.1249 -2.4720
  412MOL0     H54355   3.382   1.192   6.843  0.3545  2.5465  1.9530
  412MOL0     H54356   3.152   1.225   6.809 -0.6056 -0.0121  1.9515
  412MOL0     H54357   3.216   1.370   6.906  0.4261  2.2309  0.1870
  412MOL0     H54358   3.122   1.365   6.618  0.1681 -1.4171  0.4063
  412MOL0     H54359   3.208   1.493   6.703 -0.0618 -0.8611  2.3814
  412MOL0     H54360   2.961   1.534   6.681 -0.6011  0.7213  0.5240
  412MOL0     H54361   3.052   1.558   6.824 -0.0676  1.0752 -1.2397
  412MOL0     H54362   2.882   1.320   6.752  4.1100  0.0337 -0.2349
  412MOL0     H54363   2.966   1.326   6.913  0.8742 -1.8612 -1.5074
  412MOL0     H54364   2.731   1.376   6.938 -0.3550  0.7831  2.1979
  412MOL0     H54365   2.736   1.512   6.822  2.4574  3.3668  0.0261
  412MOL0     H54366   3.724   1.453   6.751  2.2473  1.6903 -1.3356
  412MOL0     H54367   3.971   1.434   6.798  1.1873 -0.2391 -0.4617
  412MOL0     H54368   4.357   1.003   6.939 -1.0593  0.1666 -2.2666
  412MOL0     H54369   4.577   1.023   6.962 -0.3003 -1.5646 -3.1347
  412MOL0     H54370   6.508   0.671   7.521  1.8927  0.3786  1.2033
  412MOL0     H54371   6.748   0.613   7.527 -1.0199  4.2897 -0.8093
  412MOL0     H54372   7.100   0.396   7.384 -0.7512  1.3545 -0.7085
  412MOL0     H54373   7.365   0.357   7.398  2.6350  2.8229  2.7993
  412MOL0     H54374   7.606   0.409   7.458  2.8997  1.7791  1.4488
  412MOL0     H54375   7.735   0.509   7.407  0.7330 -1.5689  0.3105
  412MOL0     H54376   7.767   0.312   7.310 -1.2826 -1.9145 -0.0286
  412MOL0     H54377   7.601   0.297   7.263 -0.2549  0.5404  0.9713
  412MOL0     H54378   7.805   0.510   7.152  0.0132  1.0707 -1.7674
  412MOL0     H54379   7.634   0.486   7.102 -0.5112 -0.6068  1.5262
  412MOL0     H54380   7.672   0.273   7.024 -0.1956  0.9619 -0.4902
  412MOL0     H54381   7.761   0.390   6.943  1.0282 -2.0221 -0.9432
  412MOL0     H54382   8.073   0.162   7.117 -2.2475 -1.9446  2.3047
  412MOL0     H54383   7.424   0.746   7.245  0.8274 -0.2658  2.4337
  412MOL0     H54384   7.186   0.789   7.249 -1.2312 -0.6837  0.8419
  413MOL0     O54385   7.411   1.437   4.399 -0.8414  0.8028 -0.2753
  413MOL0     C54386   7.478   1.439   4.296  0.0220 -0.4235 -0.1266
  413MOL0     O54387   7.446   1.381   4.177 -0.2281 -0.1422 -0.0257
  413MOL0     C54388   7.326   1.317   4.162  0.4177 -0.3289  0.0489
  413MOL0     C54389   7.269   1.223   4.259  0.3578 -0.5697 -0.0225
  413MOL0     C54390   7.153   1.151   4.238  0.4593  0.5307  0.1208
  413MOL0     C54391   7.077   1.168   4.118 -0.6429  0.0871  0.4431
  413MOL0     O54392   6.962   1.098   4.090 -0.0748  0.3825  1.0697
  413MOL0     C54393   6.880   1.035   4.187  0.7476 -0.4327 -0.3328
  413MOL0     C54394   6.797   1.139   4.273  0.6164 -0.5792  0.6661
  413MOL0     C54395   6.704   1.061   4.361  0.5937 -0.1414 -0.9484
  413MOL0     C54396   6.598   1.137   4.442  0.7682 -1.1046 -0.4589
  413MOL0     C54397   6.497   1.054   4.531 -0.4172 -0.7937 -0.1144
  413MOL0     C54398   6.411   0.965   4.446 -0.6148 -0.3586  1.1177
  413MOL0     C54399   6.304   0.895   4.524  0.1258 -0.3483  0.1297
  413MOL0     C54400   6.252   0.765   4.457 -0.7365 -0.5115  0.5858
  413MOL0     N54401   6.124   0.728   4.523  0.0666 -0.3952 -0.2701
  413MOL0     C54402   6.035   0.633   4.473 -0.0181 -0.0285  0.1925
  413MOL0     C54403   5.925   0.659   4.549  0.3408 -0.3220  0.0713
  413MOL0     C54404   5.805   0.571   4.553 -0.5458 -0.2589 -0.5983
  413MOL0     C54405   5.830   0.424   4.611  0.1859 -0.0506  0.0479
  413MOL0     C54406   5.696   0.355   4.632  0.2227 -0.1655  0.5774
  413MOL0     C54407   5.697   0.212   4.684 -0.2110  0.0002 -0.5827
  413MOL0     O54408   5.574   0.193   4.741 -0.0162  0.2638 -0.4899
  413MOL0     C54409   5.469   0.143   4.677  0.7388 -0.1588  0.7587
  413MOL0     C54410   5.344   0.157   4.741  0.1030  0.1537  0.2909
  413MOL0     C54411   5.222   0.106   4.700 -0.4715 -0.1106  0.1714
  413MOL0     C54412   5.218   0.034   4.578  0.1593  0.1113 -0.0519
  413MOL0     C54413   5.102  -0.047   4.547  1.0332  0.2347 -0.4081
  413MOL0     O54414   5.084  -0.075   4.413 -0.2933 -0.0052 -0.3045
  413MOL0     C54415   4.988  -0.166   4.389 -0.6435 -0.1257 -0.4711
  413MOL0     C54416   5.001  -0.306   4.418 -0.1358  0.3995 -0.6651
  413MOL0     C54417   4.908  -0.397   4.374 -0.2819 -0.3843 -0.1604
  413MOL0     C54418   4.792  -0.351   4.300  0.6146  0.0599 -0.9324
  413MOL0     O54419   4.702  -0.434   4.239  0.0630  0.4874  0.5333
  413MOL0     C54420   4.742  -0.572   4.231 -0.9230 -0.0775 -0.1345
  413MOL0     C54421   4.619  -0.651   4.212  0.2099  0.0659  0.2715
  413MOL0     C54422   4.621  -0.799   4.222  0.0664  0.4419 -0.1728
  413MOL0     C54423   4.730  -0.859   4.122 -0.4276  0.8474  1.4013
  413MOL0     C54424   4.723  -1.015   4.104 -0.9977 -0.5851 -0.5053
  413MOL0     C54425   4.733  -1.065   3.962  0.4365  0.0357 -0.1707
  413MOL0     C54426   4.787  -1.214   3.954 -0.4833 -0.1945 -0.2445
  413MOL0     C54427   4.807  -1.271   3.808 -0.1949 -0.5171 -0.7486
  413MOL0    Cl54428   4.904  -1.149   3.705  0.2618  0.4602 -0.5142
  413MOL0     C54429   4.777  -0.216   4.282 -0.8816 -0.2472 -0.1901
  413MOL0     C54430   4.876  -0.124   4.320 -0.0131  0.1100  0.0980
  413MOL0     O54431   5.025  -0.088   4.640 -0.4214 -0.3858  0.1979
  413MOL0     C54432   5.342   0.025   4.507 -0.6382 -0.1611  0.9021
  413MOL0     C54433   5.465   0.068   4.559  0.3017  0.1892  0.5522
  413MOL0     N54434   5.956   0.757   4.648 -0.6754  0.0616 -0.0625
  413MOL0     N54435   6.082   0.789   4.633  0.7335 -0.4121 -0.8488
  413MOL0     C54436   7.138   1.240   4.017 -0.2354 -0.7868 -0.2759
  413MOL0     C54437   7.254   1.314   4.041 -0.4696  0.2829  1.1889
  413MOL0     C54438   7.614   1.510   4.306  0.5017 -0.6376  0.1461
  413MOL0     C54439   7.636   1.598   4.401 -0.0165 -0.1869 -0.0245
  413MOL0     C54440   7.742   1.680   4.407  0.3154 -0.7157 -0.3690
  413MOL0     C54441   7.843   1.679   4.307 -1.0519 -0.1610 -0.8508
  413MOL0     O54442   7.958   1.758   4.306  0.3878 -0.0185  0.3285
  413MOL0     C54443   7.972   1.856   4.412 -0.7365 -0.0901 -0.0519
  413MOL0     C54444   8.030   1.798   4.540 -0.3569 -0.1129 -0.2014
  413MOL0     C54445   8.183   1.815   4.542  0.7307 -0.5055  0.4881
  413MOL0     C54446   8.238   1.803   4.689 -0.2870  0.1010 -0.2228
  413MOL0     C54447   8.381   1.837   4.684  0.4988  0.5784 -0.6206
  413MOL0     C54448   8.490   1.884   4.664  0.4406  0.5205  0.7128
  413MOL0     C54449   7.832   1.589   4.205  0.0844 -0.3209 -1.0547
  413MOL0     C54450   7.713   1.504   4.203  0.1181 -0.0661  0.3550
  413MOL0     H54451   7.308   1.219   4.360  0.4144 -0.8281 -0.0542
  413MOL0     H54452   7.110   1.102   4.325 -3.0789  4.1530  0.6445
  413MOL0     H54453   6.942   0.973   4.252  1.7453  1.0184  0.1462
  413MOL0     H54454   6.817   0.968   4.128  1.7972 -0.1877 -1.7906
  413MOL0     H54455   6.748   1.210   4.206 -0.2154 -2.4088 -0.7514
  413MOL0     H54456   6.865   1.199   4.334  1.8495 -2.9275  1.7470
  413MOL0     H54457   6.769   1.021   4.439  2.3826  1.4159 -1.5611
  413MOL0     H54458   6.661   0.971   4.317 -0.7537 -1.0788  2.0264
  413MOL0     H54459   6.645   1.214   4.503 -0.5126 -1.4021  0.9785
  413MOL0     H54460   6.541   1.194   4.368 -0.6586 -0.0946  1.3546
  413MOL0     H54461   6.436   1.132   4.579  0.4392  0.9959 -1.7617
  413MOL0     H54462   6.552   1.001   4.609 -1.7421  0.2904  1.6429
  413MOL0     H54463   6.478   0.898   4.391  0.2220  0.4783  1.1111
  413MOL0     H54464   6.368   1.021   4.364  0.5379 -2.6435 -1.1993
  413MOL0     H54465   6.334   0.868   4.625  0.4913 -1.9423 -0.3814
  413MOL0     H54466   6.216   0.960   4.535 -0.4274 -1.0603 -0.0011
  413MOL0     H54467   6.319   0.682   4.482  1.4007  0.7907 -0.5549
  413MOL0     H54468   6.254   0.774   4.348 -1.8889  0.1779  0.6129
  413MOL0     H54469   6.054   0.554   4.400 -1.3191 -0.6898  0.5333
  413MOL0     H54470   5.767   0.555   4.452  1.1150 -0.9769 -1.1346
  413MOL0     H54471   5.727   0.621   4.611 -2.0631 -3.7882  0.6996
  413MOL0     H54472   5.882   0.431   4.706  0.0002 -2.0346  0.3341
  413MOL0     H54473   5.882   0.379   4.526  0.0800  1.2227 -0.7329
  413MOL0     H54474   5.644   0.410   4.710 -1.7156 -0.2334 -0.5958
  413MOL0     H54475   5.642   0.359   4.537 -1.2531 -4.8948  0.9203
  413MOL0     H54476   5.780   0.201   4.754  2.1931 -0.1159 -3.3098
  413MOL0     H54477   5.713   0.142   4.602 -0.0413 -0.0134 -0.5372
  413MOL0     H54478   5.355   0.210   4.835  1.7428 -0.8563  0.6994
  413MOL0     H54479   5.133   0.108   4.762 -0.3218 -2.5561  0.5755
  413MOL0     H54480   5.095  -0.344   4.456 -1.2543 -0.8863  0.9623
  413MOL0     H54481   4.933  -0.501   4.391 -1.9049 -0.5286  1.7143
  413MOL0     H54482   4.786  -0.602   4.326 -0.8974 -0.4432 -0.2604
  413MOL0     H54483   4.819  -0.601   4.159 -0.8966 -4.2082  1.3450
  413MOL0     H54484   4.571  -0.630   4.116  1.1354 -0.3826 -0.2996
  413MOL0     H54485   4.545  -0.621   4.287 -0.1418 -0.0204 -0.0396
  413MOL0     H54486   4.524  -0.843   4.196  0.5734 -2.2459  2.0099
  413MOL0     H54487   4.647  -0.845   4.317 -1.0311 -2.2772 -1.0798
  413MOL0     H54488   4.716  -0.814   4.024  0.8231 -2.9385 -0.7204
  413MOL0     H54489   4.828  -0.834   4.165  0.5375 -1.2942  0.5342
  413MOL0     H54490   4.644  -1.066   4.159 -0.9851 -0.8407 -0.7231
  413MOL0     H54491   4.821  -1.040   4.146  0.9895 -0.9857 -4.7589
  413MOL0     H54492   4.798  -0.997   3.907  1.3351 -1.5378 -1.1441
  413MOL0     H54493   4.631  -1.059   3.924 -0.4632 -0.2692  2.0667
  413MOL0     H54494   4.880  -1.223   4.011 -1.1499  0.0885  0.9203
  413MOL0     H54495   4.720  -1.277   4.014  1.2532  0.5859  2.7187
  413MOL0     H54496   4.710  -1.291   3.761 -0.0458  1.9225 -2.2590
  413MOL0     H54497   4.858  -1.368   3.809 -0.6513 -0.7639 -1.0270
  413MOL0     H54498   4.688  -0.175   4.235 -1.4137  1.5766  2.2407
  413MOL0     H54499   4.884  -0.020   4.292  2.2752  0.8565  2.9756
  413MOL0     H54500   5.346  -0.047   4.426 -0.4753  1.2629 -0.3994
  413MOL0     H54501   5.557   0.041   4.508  0.1457 -1.4562  1.0838
  413MOL0     H54502   7.083   1.253   3.924 -4.3917 -0.1771  1.9928
  413MOL0     H54503   7.296   1.373   3.960 -1.4973  1.2433  1.3305
  413MOL0     H54504   7.560   1.615   4.478  0.9107 -2.6903  1.5699
  413MOL0     H54505   7.744   1.757   4.483  1.8495 -1.7533  0.6901
  413MOL0     H54506   7.879   1.909   4.433  0.6425  3.6507 -2.3330
  413MOL0     H54507   8.032   1.943   4.383 -1.1845  0.2028 -0.1136
  413MOL0     H54508   7.985   1.849   4.627  1.5332  2.0180 -0.3924
  413MOL0     H54509   8.004   1.692   4.541 -1.0292 -0.0941 -3.4914
  413MOL0     H54510   8.216   1.906   4.491 -0.1879 -0.9787 -0.9989
  413MOL0     H54511   8.233   1.731   4.492  0.0814 -2.5248  3.0570
  413MOL0     H54512   8.187   1.875   4.753  0.1894  0.2719 -0.0314
  413MOL0     H54513   8.221   1.702   4.726 -2.0913  0.4838  0.0743
  413MOL0     H54514   8.595   1.903   4.654 -0.1396  3.2697 -1.6079
  413MOL0     H54515   7.908   1.594   4.128 -0.6927 -0.4498 -1.8511
  413MOL0     H54516   7.685   1.454   4.111 -2.4293  0.8794  0.5250
  414MOL0     O54517   9.708   8.916   1.615  0.2278 -0.0769  0.2855
  414MOL0     C54518   9.783   8.897   1.523 -1.0552  0.0727 -0.3437
  414MOL0     O54519   9.745   8.864   1.397 -0.0740 -0.3959  0.2955
  414MOL0     C54520   9.607   8.859   1.379 -0.1185  0.4116  0.9414
  414MOL0     C54521   9.538   8.980   1.367  1.0439 -1.1446  0.7310
  414MOL0     C54522   9.407   8.991   1.335 -0.5059 -1.1081  0.4095
  414MOL0     C54523   9.338   8.875   1.302  0.0002 -0.0991  0.3623
  414MOL0     O54524   9.203   8.899   1.262 -0.6528 -0.0886  0.3220
  414MOL0     C54525   9.109   8.791   1.278 -0.1917 -0.2076 -0.6642
  414MOL0     C54526   8.973   8.858   1.283 -0.4047 -0.3486 -0.5562
  414MOL0     C54527   8.916   8.907   1.148 -0.7311 -0.0236 -0.6599
  414MOL0     C54528   8.775   8.951   1.170 -0.0814 -0.1543  0.3444
  414MOL0     C54529   8.737   9.049   1.287 -0.5717 -0.1349  0.4294
  414MOL0     C54530   8.587   9.054   1.286  0.3974  0.1562 -0.0302
  414MOL0     C54531   8.522   9.140   1.393  0.5582 -0.2402 -0.2233
  414MOL0     C54532   8.362   9.111   1.399  0.2182  0.0854 -0.0014
  414MOL0     N54533   8.281   9.217   1.472 -0.5456  0.8703 -0.0426
  414MOL0     C54534   8.268   9.352   1.444  0.0454 -0.2241  0.6880
  414MOL0     C54535   8.210   9.402   1.553 -0.0795 -0.2996 -0.3445
  414MOL0     C54536   8.151   9.535   1.587 -0.1450  0.6990 -0.0182
  414MOL0     C54537   8.011   9.543   1.638  0.3984 -0.1213  0.4646
  414MOL0     C54538   7.974   9.689   1.665 -0.1048  0.0567 -1.1849
  414MOL0     C54539   7.829   9.696   1.719 -0.0874  0.5698  0.2074
  414MOL0     O54540   7.737   9.649   1.619 -0.2183  0.5421 -0.2141
  414MOL0     C54541   7.600   9.672   1.630 -0.0705 -0.1853  0.7246
  414MOL0     C54542   7.529   9.735   1.731 -0.9469  0.5815  0.3797
  414MOL0     C54543   7.385   9.740   1.732  0.4054 -0.3554  0.2629
  414MOL0     C54544   7.313   9.672   1.637  0.2259 -0.7303  0.9506
  414MOL0     C54545   7.166   9.670   1.643 -0.4400 -0.6569  0.0825
  414MOL0     O54546   7.101   9.768   1.698 -0.4188 -0.4703 -0.1980
  414MOL0     C54547   6.981   9.742   1.753  0.2424  0.3041 -0.0803
  414MOL0     C54548   6.963   9.790   1.886  0.2049 -0.8415 -0.0435
  414MOL0     C54549   6.840   9.776   1.943  0.0333 -0.9518  0.2367
  414MOL0     C54550   6.731   9.719   1.884 -0.1154  0.3856  0.8761
  414MOL0     O54551   6.624   9.696   1.966  0.2558 -0.3438  1.4544
  414MOL0     C54552   6.495   9.691   1.910 -0.2232 -0.7291  0.2595
  414MOL0     C54553   6.401   9.735   2.020 -0.4669  0.2675  0.1065
  414MOL0     C54554   6.261   9.715   1.969  0.2125 -0.1272  0.1432
  414MOL0     C54555   6.176   9.759   2.088  0.5260  0.1425  0.0722
  414MOL0     C54556   6.024   9.753   2.053  0.3825  0.6493 -0.1394
  414MOL0     C54557   5.988   9.859   1.944 -0.5617 -0.2081 -0.0028
  414MOL0     C54558   5.840   9.853   1.904  0.2138 -0.3731  0.0033
  414MOL0     C54559   5.733   9.836   2.012  0.4297 -0.1465 -0.6664
  414MOL0    Cl54560   5.584   9.878   1.928  0.0196 -0.0780  0.3054
  414MOL0     C54561   6.744   9.673   1.757  0.2300 -0.1422 -0.0482
  414MOL0     C54562   6.867   9.691   1.683  0.5463 -0.2918  0.1471
  414MOL0     O54563   7.121   9.570   1.594  0.1501  1.0808  0.0090
  414MOL0     C54564   7.379   9.615   1.526 -0.1797  0.1884  0.5111
  414MOL0     C54565   7.521   9.606   1.538  0.2476 -0.6082 -0.8272
  414MOL0     N54566   8.195   9.306   1.656  0.1638  0.3254 -0.8983
  414MOL0     N54567   8.228   9.197   1.603 -0.4316 -0.1650  0.6696
  414MOL0     C54568   9.406   8.750   1.309 -0.7041  0.3474  0.6741
  414MOL0     C54569   9.542   8.739   1.343 -0.1445  0.1427 -0.6589
  414MOL0     C54570   9.928   8.905   1.531  0.8366 -0.1879 -0.3264
  414MOL0     C54571   9.987   8.897   1.666 -0.4202 -0.2186  0.2927
  414MOL0     C54572  10.135   8.910   1.672 -0.1813 -0.1131  0.7198
  414MOL0     C54573  10.215   8.936   1.567 -0.4908  0.1894  0.1710
  414MOL0     O54574  10.349   8.962   1.591 -0.0872 -0.5815 -0.7275
  414MOL0     C54575  10.437   9.016   1.490  0.9868 -0.8275  0.2708
  414MOL0     C54576  10.569   9.067   1.547 -0.3231 -0.0533  0.8508
  414MOL0     C54577  10.682   8.962   1.561 -1.0187 -0.4440 -0.2146
  414MOL0     C54578  10.823   9.020   1.557  0.3403 -0.3696  0.6361
  414MOL0     C54579  10.902   8.926   1.632  0.6932  0.6089 -0.1572
  414MOL0     C54580  10.972   8.848   1.695 -0.2579 -0.1096  0.2408
  414MOL0     C54581  10.150   8.932   1.437 -0.0376 -0.3275 -1.3135
  414MOL0     C54582  10.012   8.922   1.422 -0.9822 -0.5479  0.3176
  414MOL0     H54583   9.595   9.072   1.372 -0.5297 -0.1607  1.0344
  414MOL0     H54584   9.351   9.083   1.340 -0.9885 -1.4707  2.5131
  414MOL0     H54585   9.139   8.728   1.363  1.1642  0.0394 -0.9284
  414MOL0     H54586   9.113   8.725   1.191  1.4824 -1.3422  0.2087
  414MOL0     H54587   8.984   8.943   1.352 -2.3297  0.2437 -0.8985
  414MOL0     H54588   8.900   8.790   1.328  0.2389 -0.0269  1.0458
  414MOL0     H54589   8.923   8.826   1.075 -1.7755  1.3323 -2.3646
  414MOL0     H54590   8.979   8.983   1.100  0.9466 -1.3724 -0.6864
  414MOL0     H54591   8.751   8.998   1.075  3.1656 -3.4018 -2.3719
  414MOL0     H54592   8.715   8.860   1.178 -1.0425  0.6055  2.6004
  414MOL0     H54593   8.779   9.148   1.266 -0.6810 -0.1802 -0.0233
  414MOL0     H54594   8.771   9.000   1.378 -0.0189 -3.5252 -1.4256
  414MOL0     H54595   8.553   8.952   1.307  1.8580 -0.0966  1.3304
  414MOL0     H54596   8.559   9.092   1.187 -1.9397  0.6776  0.7903
  414MOL0     H54597   8.564   9.122   1.492 -0.8911  1.2448  0.7043
  414MOL0     H54598   8.545   9.244   1.366 -1.9326  0.2467 -0.7058
  414MOL0     H54599   8.343   9.007   1.429 -0.8686 -0.2417 -1.7032
  414MOL0     H54600   8.324   9.122   1.297  1.8335  2.7231 -0.4062
  414MOL0     H54601   8.306   9.412   1.362  0.9325 -0.9852  0.5341
  414MOL0     H54602   8.155   9.597   1.497  0.8484 -2.0028 -1.9536
  414MOL0     H54603   8.214   9.581   1.664  1.4109 -0.3158 -0.6523
  414MOL0     H54604   8.000   9.478   1.725 -2.2404  0.1577  0.4179
  414MOL0     H54605   7.950   9.510   1.553 -2.8245  2.0363  1.7564
  414MOL0     H54606   8.039   9.733   1.741 -0.4232  0.5529 -1.1993
  414MOL0     H54607   7.979   9.741   1.569  0.4744  0.4244 -0.9545
  414MOL0     H54608   7.798   9.796   1.751 -0.5165  1.4263 -2.6323
  414MOL0     H54609   7.813   9.631   1.806  0.3189  1.6175  1.0854
  414MOL0     H54610   7.583   9.768   1.819  2.1414 -1.1414 -0.7285
  414MOL0     H54611   7.334   9.796   1.811 -1.2136  2.6376 -2.6609
  414MOL0     H54612   7.043   9.834   1.946  2.3526 -3.2225 -0.9733
  414MOL0     H54613   6.833   9.804   2.048  0.5546 -0.5359  0.1641
  414MOL0     H54614   6.458   9.592   1.880 -0.6134 -0.5809  0.2445
  414MOL0     H54615   6.481   9.761   1.827 -0.2806 -0.6532  0.3329
  414MOL0     H54616   6.431   9.838   2.041 -2.7004  0.5942  2.1973
  414MOL0     H54617   6.423   9.686   2.115 -0.9204  0.5435  0.3649
  414MOL0     H54618   6.245   9.609   1.947  0.6524  0.2189 -2.0559
  414MOL0     H54619   6.243   9.767   1.875 -1.0953  0.3488  0.6261
  414MOL0     H54620   6.196   9.690   2.171  1.7896 -1.0200 -1.1516
  414MOL0     H54621   6.194   9.862   2.121 -3.2829  1.7969 -2.2221
  414MOL0     H54622   5.974   9.776   2.148  1.7923  1.3974  0.4501
  414MOL0     H54623   5.981   9.655   2.029  1.2007  0.2110  0.1228
  414MOL0     H54624   6.050   9.856   1.854  2.2754  3.6826  1.5519
  414MOL0     H54625   6.011   9.959   1.982  1.5834 -1.1914  1.5376
  414MOL0     H54626   5.821   9.956   1.870  2.6770  0.0252 -0.4323
  414MOL0     H54627   5.820   9.780   1.825  0.0501 -0.5047  0.1662
  414MOL0     H54628   5.742   9.904   2.097 -1.1181 -1.0569  0.2680
  414MOL0     H54629   5.732   9.730   2.037  2.1688 -0.2073 -0.6973
  414MOL0     H54630   6.664   9.637   1.693  0.0056  1.5250 -0.7687
  414MOL0     H54631   6.863   9.664   1.578 -0.0392  1.1491 -0.2205
  414MOL0     H54632   7.323   9.559   1.452  1.5022  0.8482 -1.3562
  414MOL0     H54633   7.574   9.547   1.464  0.0489  0.3849 -1.7752
  414MOL0     H54634   9.342   8.663   1.296 -2.5353  1.8329 -0.6871
  414MOL0     H54635   9.586   8.640   1.351 -1.8610 -0.6912 -1.0441
  414MOL0     H54636   9.924   8.897   1.754 -2.9935 -0.1615 -1.4478
  414MOL0     H54637  10.184   8.909   1.769  5.4945  0.0396 -1.7380
  414MOL0     H54638  10.393   9.109   1.451  1.8906 -0.2865  0.4993
  414MOL0     H54639  10.445   8.955   1.400 -1.2043  1.4701 -1.6470
  414MOL0     H54640  10.614   9.123   1.464 -1.5946 -0.3842 -0.0858
  414MOL0     H54641  10.546   9.134   1.630 -2.0685 -0.7404  0.9536
  414MOL0     H54642  10.671   8.892   1.477 -4.1501 -3.3669  2.3609
  414MOL0     H54643  10.669   8.898   1.648  1.0843 -0.2055  0.3470
  414MOL0     H54644  10.866   9.022   1.456  0.2465  0.4618  0.6079
  414MOL0     H54645  10.845   9.115   1.606  3.4965 -1.5973  1.8542
  414MOL0     H54646  11.020   8.765   1.743  1.3319  0.8621  0.4075
  414MOL0     H54647  10.217   8.949   1.354  0.1560 -0.2744 -1.1461
  414MOL0     H54648   9.967   8.923   1.324 -0.4336 -0.4326  0.0635
  415MOL0     O54649   3.280   7.689   2.969  1.2330  0.1815 -0.1668
  415MOL0     C54650   3.248   7.601   2.892  1.0821 -0.0905  0.2572
  415MOL0     O54651   3.119   7.544   2.899  0.4449  0.2953  0.5053
  415MOL0     C54652   3.024   7.565   2.994 -0.2683 -0.0348  0.3457
  415MOL0     C54653   2.925   7.471   3.003  1.1356 -0.5080 -0.3853
  415MOL0     C54654   2.821   7.480   3.095 -0.2145  0.0804  0.5995
  415MOL0     C54655   2.819   7.582   3.193 -0.0983  0.8591  0.2685
  415MOL0     O54656   2.726   7.596   3.292  0.1316  0.2403  0.3775
  415MOL0     C54657   2.614   7.504   3.303 -0.6701  0.3549  0.6181
  415MOL0     C54658   2.511   7.575   3.400  0.1459 -0.0061 -1.0495
  415MOL0     C54659   2.386   7.500   3.397 -1.0451 -0.1776 -0.7755
  415MOL0     C54660   2.401   7.343   3.401  0.8227 -0.2244  0.5195
  415MOL0     C54661   2.271   7.274   3.436  0.0600 -0.0835 -0.3224
  415MOL0     C54662   2.197   7.249   3.307 -0.3468 -0.5509  0.6436
  415MOL0     C54663   2.055   7.188   3.327 -0.5362 -0.7630  0.3175
  415MOL0     C54664   2.058   7.042   3.368 -0.5269 -0.0570 -0.2418
  415MOL0     N54665   1.934   6.968   3.357 -0.3268  0.6990  0.7176
  415MOL0     C54666   1.819   7.002   3.429  0.6833 -0.4706  0.6106
  415MOL0     C54667   1.734   6.914   3.377 -0.7658 -0.0752  0.2422
  415MOL0     C54668   1.598   6.891   3.433  0.0189 -0.2372  0.4266
  415MOL0     C54669   1.607   6.834   3.570 -0.1892  0.4988  0.6165
  415MOL0     C54670   1.640   6.681   3.577 -0.1940  0.3163 -0.1367
  415MOL0     C54671   1.794   6.640   3.556  0.5519  0.2618 -0.2753
  415MOL0     O54672   1.879   6.736   3.628  0.0103  0.4765  0.6261
  415MOL0     C54673   2.012   6.751   3.602  0.6434  1.1512 -0.8317
  415MOL0     C54674   2.076   6.848   3.664  0.0861 -0.1343  0.3324
  415MOL0     C54675   2.206   6.879   3.640  0.3561  0.0408  0.0796
  415MOL0     C54676   2.276   6.813   3.534  0.0851 -0.5849  0.5381
  415MOL0     C54677   2.410   6.853   3.505 -1.0187 -0.0169  0.0123
  415MOL0     O54678   2.473   6.914   3.598  0.0328 -0.0640 -0.7838
  415MOL0     C54679   2.589   6.985   3.575 -0.8804 -0.4137 -0.0338
  415MOL0     C54680   2.696   6.968   3.662 -0.3372 -0.6910 -0.6047
  415MOL0     C54681   2.821   7.028   3.650  0.1454 -0.4537  0.2956
  415MOL0     C54682   2.832   7.128   3.555  0.1535 -1.5654 -0.8014
  415MOL0     O54683   2.948   7.194   3.548 -0.5634 -0.7474  0.0341
  415MOL0     C54684   2.965   7.325   3.481  0.0501 -0.9328  0.1712
  415MOL0     C54685   3.112   7.377   3.486 -0.0440  0.0625  0.2666
  415MOL0     C54686   3.157   7.383   3.627  0.2585 -0.3426 -0.0837
  415MOL0     C54687   3.294   7.450   3.620  0.0396  0.3989  0.1943
  415MOL0     C54688   3.332   7.488   3.765  0.1501 -0.0418  0.3526
  415MOL0     C54689   3.471   7.547   3.790 -0.0789 -0.7281  0.7808
  415MOL0     C54690   3.499   7.562   3.939 -0.7812  0.4281  0.3988
  415MOL0     C54691   3.657   7.576   3.959  0.5102 -0.3639  0.0284
  415MOL0    Cl54692   3.686   7.564   4.128  0.2998  0.1734  0.1413
  415MOL0     C54693   2.725   7.158   3.471  0.4861  0.8229  0.2162
  415MOL0     C54694   2.607   7.076   3.468  0.7004 -0.0581 -0.9255
  415MOL0     O54695   2.458   6.823   3.392  0.0563  0.3838 -0.1450
  415MOL0     C54696   2.213   6.707   3.466 -0.9494  0.6171  0.1643
  415MOL0     C54697   2.084   6.668   3.509  0.4778  0.7198  0.1811
  415MOL0     N54698   1.791   6.824   3.280 -0.0197 -0.2795 -0.6908
  415MOL0     N54699   1.917   6.863   3.274  0.9995  0.5095  0.0962
  415MOL0     C54700   2.917   7.683   3.185  0.2566  0.3805  0.4321
  415MOL0     C54701   3.019   7.670   3.089  0.7081 -0.6803 -0.8733
  415MOL0     C54702   3.350   7.546   2.797  0.7869 -0.0458  0.0438
  415MOL0     C54703   3.323   7.413   2.759 -0.3429  0.3669  1.3399
  415MOL0     C54704   3.397   7.354   2.655 -0.3260  0.6480  0.2911
  415MOL0     C54705   3.497   7.434   2.599 -0.0408 -0.2021  0.1332
  415MOL0     O54706   3.557   7.399   2.482 -0.3336 -0.1695 -0.0894
  415MOL0     C54707   3.683   7.333   2.499  0.1503  0.2435 -0.5305
  415MOL0     C54708   3.736   7.323   2.363 -0.3731 -0.1500 -0.8764
  415MOL0     C54709   3.878   7.281   2.355  0.1869  0.6254 -0.1472
  415MOL0     C54710   3.929   7.271   2.206  0.0050  0.1047  0.0506
  415MOL0     C54711   4.071   7.232   2.192 -0.3120  0.5394 -0.0177
  415MOL0     C54712   4.194   7.209   2.194 -0.4191 -0.3339 -0.0698
  415MOL0     C54713   3.523   7.563   2.639 -0.7123  1.1677 -0.2815
  415MOL0     C54714   3.462   7.614   2.748  0.1216 -1.5517 -1.1073
  415MOL0     H54715   2.919   7.381   2.942 -1.5272 -0.6020 -0.1165
  415MOL0     H54716   2.754   7.395   3.093  2.0077 -1.8729  2.5790
  415MOL0     H54717   2.652   7.411   3.346 -0.3418  0.9597  1.6990
  415MOL0     H54718   2.574   7.494   3.202 -1.4669 -0.6844  1.0217
  415MOL0     H54719   2.490   7.676   3.362  2.0998  0.9570  0.2337
  415MOL0     H54720   2.552   7.574   3.501 -0.7184  2.4712 -0.5867
  415MOL0     H54721   2.343   7.518   3.298 -1.6886  4.5789  0.1217
  415MOL0     H54722   2.322   7.529   3.481 -0.7192 -0.9948 -0.2243
  415MOL0     H54723   2.458   7.292   3.323  1.0933  0.6645  0.1131
  415MOL0     H54724   2.466   7.325   3.488 -0.0611  1.0968  1.4935
  415MOL0     H54725   2.216   7.334   3.509  0.4137  0.5070 -0.5335
  415MOL0     H54726   2.309   7.185   3.487  0.5155  0.2116 -0.1371
  415MOL0     H54727   2.246   7.171   3.248  0.0836  1.3305 -1.6208
  415MOL0     H54728   2.188   7.340   3.247 -1.0514  0.1277  1.7478
  415MOL0     H54729   1.993   7.249   3.394 -0.1408  0.5712 -0.4979
  415MOL0     H54730   2.020   7.204   3.224  3.2698  0.5013 -0.9587
  415MOL0     H54731   2.073   7.046   3.476 -3.7047 -0.6779  0.3134
  415MOL0     H54732   2.140   6.996   3.312  0.2645 -0.7239  1.3849
  415MOL0     H54733   1.799   7.075   3.507 -4.3173  1.2186 -1.8349
  415MOL0     H54734   1.550   6.824   3.360  0.5960 -1.7843  1.4190
  415MOL0     H54735   1.542   6.985   3.429  1.7927  0.8312 -0.2502
  415MOL0     H54736   1.504   6.828   3.605 -0.3960 -3.0867 -0.1969
  415MOL0     H54737   1.674   6.889   3.637  0.4392 -0.0418  0.4396
  415MOL0     H54738   1.603   6.655   3.676 -0.2454 -0.7785 -0.4233
  415MOL0     H54739   1.572   6.628   3.508 -0.4344  0.0971  0.2658
  415MOL0     H54740   1.822   6.649   3.451  3.4142 -1.1032  0.2615
  415MOL0     H54741   1.813   6.533   3.572 -0.4314 -0.3112 -2.5264
  415MOL0     H54742   2.030   6.908   3.743  0.0006 -1.9527  1.7342
  415MOL0     H54743   2.249   6.968   3.686 -0.5807 -0.2250  1.5464
  415MOL0     H54744   2.694   6.894   3.741 -0.5738  2.2505  2.4035
  415MOL0     H54745   2.905   6.997   3.712  0.4405  0.9610  0.6276
  415MOL0     H54746   2.908   7.409   3.523  2.6958  1.1444 -0.1287
  415MOL0     H54747   2.960   7.309   3.373  1.8038  1.6120 -0.3846
  415MOL0     H54748   3.111   7.464   3.420 -2.1785 -0.7641 -0.8926
  415MOL0     H54749   3.180   7.304   3.443 -1.7412 -3.1448  2.5638
  415MOL0     H54750   3.155   7.284   3.675 -0.2832  0.0499  0.7263
  415MOL0     H54751   3.088   7.440   3.689 -1.1938 -1.9159 -0.1708
  415MOL0     H54752   3.367   7.384   3.572  0.0032  3.2752 -4.3946
  415MOL0     H54753   3.279   7.543   3.565 -0.9694 -0.0426 -0.3083
  415MOL0     H54754   3.345   7.395   3.822  3.9870 -0.9472 -1.6408
  415MOL0     H54755   3.251   7.553   3.799  1.2652  2.1619 -1.0012
  415MOL0     H54756   3.479   7.644   3.740 -1.7664 -0.6081  0.6853
  415MOL0     H54757   3.547   7.483   3.746  0.0033  0.4751 -0.9202
  415MOL0     H54758   3.458   7.659   3.968  0.0798  0.8445  0.2495
  415MOL0     H54759   3.456   7.486   4.005  2.4379  0.1344  2.4062
  415MOL0     H54760   3.696   7.669   3.915  1.3521  1.2282  3.7595
  415MOL0     H54761   3.708   7.497   3.904 -1.3100 -1.0514 -0.7530
  415MOL0     H54762   2.727   7.214   3.377  0.4210  0.0302 -0.2676
  415MOL0     H54763   2.531   7.083   3.391 -1.7870  3.1386  1.5131
  415MOL0     H54764   2.259   6.653   3.384 -0.9857 -0.0949  0.6008
  415MOL0     H54765   2.033   6.581   3.468 -0.5431  0.7094  1.4185
  415MOL0     H54766   2.894   7.774   3.240  0.0435  0.9583 -0.5783
  415MOL0     H54767   3.089   7.752   3.076  1.9322 -0.9016  3.0385
  415MOL0     H54768   3.244   7.353   2.804 -0.7229 -0.3543 -0.2238
  415MOL0     H54769   3.373   7.256   2.615 -2.5914  0.8198  1.1252
  415MOL0     H54770   3.675   7.236   2.548  1.1889  1.2474  1.7769
  415MOL0     H54771   3.751   7.392   2.561 -3.7901  2.0012  2.5558
  415MOL0     H54772   3.667   7.265   2.301 -1.7967 -0.4304  0.8859
  415MOL0     H54773   3.740   7.428   2.333  1.5776  1.3037  3.5669
  415MOL0     H54774   3.885   7.181   2.400 -0.7896 -0.3734 -2.0861
  415MOL0     H54775   3.940   7.347   2.417  2.2280  0.7851 -2.2124
  415MOL0     H54776   3.856   7.210   2.151 -3.2200  0.4122  3.5934
  415MOL0     H54777   3.927   7.371   2.161 -3.1240  0.4641  0.7632
  415MOL0     H54778   4.301   7.208   2.198 -0.4383  0.6869  1.5446
  415MOL0     H54779   3.603   7.611   2.583  1.0282 -0.3530  0.7610
  415MOL0     H54780   3.496   7.710   2.785  0.8388 -2.3647  0.4557
  416MOL0     O54781   6.099  10.838   4.129  0.4869 -0.0442  0.3317
  416MOL0     C54782   6.047  10.744   4.186  0.7575 -1.4899 -0.7167
  416MOL0     O54783   6.107  10.659   4.281 -0.5806 -0.7176  0.3865
  416MOL0     C54784   6.235  10.685   4.314 -0.3029  0.0872  0.2797
  416MOL0     C54785   6.337  10.718   4.222 -0.0894 -0.4775 -0.3592
  416MOL0     C54786   6.470  10.754   4.268 -0.6962 -0.1198 -0.1251
  416MOL0     C54787   6.505  10.759   4.407  0.9751 -0.5607  0.6360
  416MOL0     O54788   6.629  10.792   4.448  0.2655  0.2361  1.0296
  416MOL0     C54789   6.664  10.846   4.577  0.1196  1.0011  0.0391
  416MOL0     C54790   6.664  10.996   4.576 -0.7173 -0.6785  0.1471
  416MOL0     C54791   6.735  11.072   4.688  0.8431  0.1252  0.7825
  416MOL0     C54792   6.886  11.041   4.693 -0.5631  0.4172  0.0420
  416MOL0     C54793   6.943  11.134   4.797  0.2933  0.9642 -0.0917
  416MOL0     C54794   7.088  11.090   4.819  0.0321 -0.6733 -0.3225
  416MOL0     C54795   7.137  11.161   4.946 -0.4396 -0.5305 -0.0512
  416MOL0     C54796   7.090  11.121   5.079 -0.1473  0.1768 -0.5291
  416MOL0     N54797   7.158  11.002   5.139 -0.1265  0.9646 -0.2115
  416MOL0     C54798   7.274  11.008   5.210  0.3737 -0.6733 -0.2369
  416MOL0     C54799   7.288  10.895   5.272 -0.3630 -0.2683  0.3542
  416MOL0     C54800   7.394  10.853   5.369 -0.1820  0.0874  0.2364
  416MOL0     C54801   7.350  10.889   5.512 -0.6346  0.2663  0.4680
  416MOL0     C54802   7.455  10.828   5.619  1.2195  0.4407  0.5121
  416MOL0     C54803   7.598  10.885   5.599 -1.2035 -0.1220  0.2174
  416MOL0     O54804   7.677  10.847   5.713  0.3915  0.5613 -0.0970
  416MOL0     C54805   7.810  10.865   5.709 -0.5593  0.1344  0.0751
  416MOL0     C54806   7.882  10.805   5.806 -0.7418  0.4190  0.0149
  416MOL0     C54807   8.018  10.796   5.799 -0.0567  0.0424 -1.3655
  416MOL0     C54808   8.089  10.858   5.698  0.0912 -0.7950  0.2693
  416MOL0     C54809   8.240  10.853   5.708 -0.3352  0.7577 -0.8375
  416MOL0     O54810   8.296  10.818   5.830  0.7159 -0.3727  0.6713
  416MOL0     C54811   8.422  10.848   5.863 -0.5828  0.5335 -0.0975
  416MOL0     C54812   8.461  10.882   5.996  0.1324  0.1186  0.4399
  416MOL0     C54813   8.593  10.905   6.033 -0.1699  1.0810  0.2727
  416MOL0     C54814   8.689  10.886   5.942  0.2472  0.2463  0.3772
  416MOL0     O54815   8.812  10.897   5.986  0.4978 -0.2840 -0.1757
  416MOL0     C54816   8.899  10.973   5.904 -0.5173 -0.0092 -0.0476
  416MOL0     C54817   9.042  10.983   5.970  0.0063 -0.2824  0.6584
  416MOL0     C54818   9.150  11.020   5.866 -0.1444  0.3977 -0.7468
  416MOL0     C54819   9.288  11.008   5.933  0.0675  0.4230  0.4525
  416MOL0     C54820   9.392  11.053   5.832  0.5007  0.2085  1.4824
  416MOL0     C54821   9.538  11.039   5.866  0.3712  0.0628  0.8583
  416MOL0     C54822   9.621  11.067   5.745  0.5645 -0.5955 -0.0445
  416MOL0     C54823   9.769  11.024   5.758 -0.4347 -0.7363 -0.3193
  416MOL0    Cl54824   9.857  11.039   5.610  0.0729 -0.1961  0.5707
  416MOL0     C54825   8.654  10.836   5.814  0.0037 -0.3816 -0.1140
  416MOL0     C54826   8.523  10.812   5.780 -0.5657 -0.1466  0.2427
  416MOL0     O54827   8.303  10.903   5.617  0.1876 -0.5778  0.1626
  416MOL0     C54828   8.014  10.922   5.594  0.5786  0.0385  0.1216
  416MOL0     C54829   7.873  10.914   5.597  0.5595  0.1984  0.4578
  416MOL0     N54830   7.179  10.814   5.241  0.1683 -0.2106 -0.9547
  416MOL0     N54831   7.104  10.876   5.161  0.3475  0.3531  0.7104
  416MOL0     C54832   6.399  10.726   4.493  0.5442  0.2568  0.3370
  416MOL0     C54833   6.269  10.687   4.448  0.7333  1.0291  0.1300
  416MOL0     C54834   5.915  10.703   4.145  0.0601  0.2115 -0.1938
  416MOL0     C54835   5.843  10.781   4.055 -0.8934 -0.0118  0.9189
  416MOL0     C54836   5.710  10.746   4.022 -0.0162  0.3282  0.9258
  416MOL0     C54837   5.653  10.637   4.082  0.7954  0.6194  0.0236
  416MOL0     O54838   5.520  10.600   4.053  0.1663 -0.7697  0.7090
  416MOL0     C54839   5.440  10.696   3.979  0.1128  0.5617 -0.1891
  416MOL0     C54840   5.305  10.632   3.982  0.9949  0.5122  0.2186
  416MOL0     C54841   5.232  10.634   4.113 -0.3090  0.3032  0.4698
  416MOL0     C54842   5.082  10.628   4.085  0.5228 -0.0211  0.4502
  416MOL0     C54843   5.052  10.509   4.006 -0.2471  0.3954 -0.1635
  416MOL0     C54844   5.031  10.410   3.938 -0.2420 -0.2054 -0.2451
  416MOL0     C54845   5.732  10.561   4.167 -0.0092  0.3546  0.3575
  416MOL0     C54846   5.857  10.590   4.205  0.7134 -0.4643 -0.3962
  416MOL0     H54847   6.321  10.710   4.115 -0.0464 -0.9752 -0.3314
  416MOL0     H54848   6.541  10.784   4.192  0.9306 -1.8753  0.6167
  416MOL0     H54849   6.767  10.818   4.602  0.6137  3.7402  1.4530
  416MOL0     H54850   6.605  10.818   4.665  2.4874 -0.3726  1.2953
  416MOL0     H54851   6.562  11.033   4.559  0.3437  1.1590 -3.4416
  416MOL0     H54852   6.716  11.035   4.488 -2.7927  0.0014 -0.8380
  416MOL0     H54853   6.691  11.039   4.783 -0.9315 -0.7455 -0.2888
  416MOL0     H54854   6.712  11.179   4.690 -1.3462 -0.2909  1.1866
  416MOL0     H54855   6.900  10.939   4.731 -0.2356  0.8375  1.0900
  416MOL0     H54856   6.937  11.056   4.598  0.3023 -2.5757 -0.0574
  416MOL0     H54857   6.882  11.129   4.888  0.1985  0.8990 -0.1586
  416MOL0     H54858   6.933  11.237   4.763  0.4385  0.7170 -0.9051
  416MOL0     H54859   7.151  11.111   4.731  1.8722 -1.2314  0.8042
  416MOL0     H54860   7.099  10.986   4.849 -1.1172 -0.6528  0.2132
  416MOL0     H54861   7.245  11.141   4.949  0.2838  2.2528 -2.4805
  416MOL0     H54862   7.121  11.269   4.935 -0.7315 -0.5621  0.0761
  416MOL0     H54863   6.983  11.100   5.085 -0.1692  0.3126 -0.4423
  416MOL0     H54864   7.098  11.205   5.149 -1.0968  0.1238 -0.3436
  416MOL0     H54865   7.338  11.094   5.226 -1.3192  0.9000 -1.5194
  416MOL0     H54866   7.491  10.894   5.342  1.1446 -3.4801 -1.1237
  416MOL0     H54867   7.419  10.746   5.366 -0.4719  0.0166  0.2471
  416MOL0     H54868   7.254  10.837   5.525  0.1771 -1.2477  0.6373
  416MOL0     H54869   7.347  10.996   5.533 -1.2442  0.4604 -0.5269
  416MOL0     H54870   7.415  10.865   5.714 -0.7065  1.2370 -0.5514
  416MOL0     H54871   7.451  10.719   5.608 -0.2805  0.6240 -1.2772
  416MOL0     H54872   7.587  10.993   5.587  0.7430  0.1188  0.2778
  416MOL0     H54873   7.641  10.835   5.512 -0.5202  0.8810 -0.0388
  416MOL0     H54874   7.836  10.743   5.882  0.1702 -0.5173 -0.1823
  416MOL0     H54875   8.061  10.747   5.887  1.0448  0.8784 -1.4233
  416MOL0     H54876   8.382  10.907   6.067  0.9183  0.5258  1.2045
  416MOL0     H54877   8.622  10.937   6.133 -0.2651  2.9725 -0.2729
  416MOL0     H54878   8.857  11.074   5.895 -0.8775 -0.2988 -1.9251
  416MOL0     H54879   8.907  10.928   5.805  0.5953 -0.2451  0.1399
  416MOL0     H54880   9.066  10.884   6.011  2.4704 -0.2880 -0.5678
  416MOL0     H54881   9.044  11.060   6.047  3.7322  0.7778 -0.2979
  416MOL0     H54882   9.139  11.124   5.833  0.6680  1.8604  3.0790
  416MOL0     H54883   9.146  10.962   5.774  0.4670 -0.9505  0.0597
  416MOL0     H54884   9.285  11.079   6.017 -0.9401  2.3951 -1.1614
  416MOL0     H54885   9.300  10.909   5.979 -1.8006  0.0797  0.2718
  416MOL0     H54886   9.373  11.160   5.819 -1.6900 -0.1845  0.9788
  416MOL0     H54887   9.374  11.005   5.735  0.2999 -1.2192  2.1958
  416MOL0     H54888   9.563  10.939   5.904  0.7049  0.5799  2.0429
  416MOL0     H54889   9.576  11.109   5.941 -1.6583  1.4444  0.6553
  416MOL0     H54890   9.589  11.001   5.663 -1.7168 -0.5657  0.7409
  416MOL0     H54891   9.612  11.175   5.730 -3.0300 -0.8464 -0.5857
  416MOL0     H54892   9.778  10.927   5.808  3.5146  0.5840  1.9248
  416MOL0     H54893   9.819  11.096   5.824 -0.9839  0.8725 -1.5851
  416MOL0     H54894   8.735  10.830   5.741  1.7467  1.6364  1.5272
  416MOL0     H54895   8.502  10.770   5.683 -3.0589  0.4194  0.4423
  416MOL0     H54896   8.074  10.972   5.519  0.2389 -1.4686 -1.2331
  416MOL0     H54897   7.821  10.954   5.511  1.4203 -1.3225 -0.8174
  416MOL0     H54898   6.416  10.745   4.598  0.1382  2.2756  0.0832
  416MOL0     H54899   6.196  10.679   4.528 -1.2541  0.8474 -1.6244
  416MOL0     H54900   5.895  10.867   4.014 -0.5498 -0.8501 -0.4610
  416MOL0     H54901   5.663  10.818   3.956  2.6041 -0.0920 -1.5752
  416MOL0     H54902   5.477  10.728   3.881  2.0309 -0.6095  0.1098
  416MOL0     H54903   5.431  10.785   4.040  1.2001  0.6373 -0.1180
  416MOL0     H54904   5.245  10.670   3.899 -1.2366  0.6451  1.7981
  416MOL0     H54905   5.319  10.524   3.967  1.3654  0.8185 -2.0144
  416MOL0     H54906   5.255  10.727   4.166 -0.6219  1.3948 -1.2369
  416MOL0     H54907   5.259  10.552   4.180  1.0802  0.3245 -0.0263
  416MOL0     H54908   5.025  10.634   4.178 -0.4853  1.5760 -0.2224
  416MOL0     H54909   5.053  10.719   4.032 -1.2125  0.3610  1.9629
  416MOL0     H54910   5.001  10.325   3.879  0.4191  0.8766 -2.2431
  416MOL0     H54911   5.681  10.471   4.202  0.4001 -0.4635 -1.0639
  416MOL0     H54912   5.893  10.522   4.281 -2.2784  0.0823  1.6748
  417MOL0     O54913   4.574   2.010   3.346  0.2867  0.1488 -0.1064
  417MOL0     C54914   4.483   1.991   3.273 -0.1558  0.6076  0.9737
  417MOL0     O54915   4.475   2.010   3.139 -0.7456  0.0675  0.0170
  417MOL0     C54916   4.584   2.045   3.059 -0.6349 -0.0904 -1.5131
  417MOL0     C54917   4.715   2.031   3.098  0.4608  0.7614 -0.5609
  417MOL0     C54918   4.821   2.081   3.013  0.0697 -0.3939 -0.1405
  417MOL0     C54919   4.796   2.145   2.889 -0.2493  0.6080  0.5138
  417MOL0     O54920   4.897   2.188   2.792  0.6463  0.0938 -0.7432
  417MOL0     C54921   5.032   2.148   2.803  0.6249 -0.4166  0.3066
  417MOL0     C54922   5.109   2.181   2.677  0.3844  0.2338 -0.1300
  417MOL0     C54923   5.213   2.290   2.694 -0.1837  0.0420  0.5557
  417MOL0     C54924   5.276   2.342   2.559 -0.6411 -0.3573 -0.2720
  417MOL0     C54925   5.380   2.457   2.596  0.5856 -0.3195  0.7403
  417MOL0     C54926   5.464   2.477   2.466 -0.0904  0.2130 -0.6232
  417MOL0     C54927   5.582   2.571   2.479 -0.1706 -0.4535  1.0579
  417MOL0     C54928   5.655   2.586   2.346 -0.7480 -0.1295  0.2014
  417MOL0     N54929   5.802   2.620   2.380  0.4802  0.2444  0.2155
  417MOL0     C54930   5.857   2.739   2.368  0.2461  0.1623  0.5465
  417MOL0     C54931   5.987   2.715   2.396 -0.4827  0.3148 -0.3719
  417MOL0     C54932   6.094   2.826   2.397  0.1087 -0.6822 -0.0901
  417MOL0     C54933   6.204   2.800   2.298 -0.4974  0.1837  0.1713
  417MOL0     C54934   6.194   2.849   2.152  0.0014 -0.7161 -0.8531
  417MOL0     C54935   6.063   2.815   2.088  0.1162  0.6645  0.4042
  417MOL0     O54936   5.948   2.884   2.124  0.4045  0.2810  0.2421
  417MOL0     C54937   5.834   2.883   2.049  0.0887  0.4972  0.3597
  417MOL0     C54938   5.779   2.760   2.020  0.2966  0.4381  1.1673
  417MOL0     C54939   5.677   2.752   1.926 -0.4047  0.7610 -0.2125
  417MOL0     C54940   5.614   2.873   1.877  0.2968 -0.2791 -0.2201
  417MOL0     C54941   5.489   2.862   1.787  0.1768 -0.7315  0.4173
  417MOL0     O54942   5.442   2.736   1.761  0.4853 -0.2642  0.0598
  417MOL0     C54943   5.338   2.729   1.669  0.2317  0.2302  0.0138
  417MOL0     C54944   5.365   2.737   1.533 -0.7089 -0.5965  0.3991
  417MOL0     C54945   5.266   2.738   1.440 -0.5633 -0.2618  0.0981
  417MOL0     C54946   5.135   2.714   1.474 -0.6604  0.4724 -0.4797
  417MOL0     O54947   5.029   2.687   1.391  0.3940 -0.2510  0.3224
  417MOL0     C54948   5.020   2.770   1.275  0.4827 -0.5278 -0.3270
  417MOL0     C54949   4.892   2.735   1.203  0.8419 -0.2030 -0.2592
  417MOL0     C54950   4.763   2.769   1.288  0.1529 -0.3766 -0.7197
  417MOL0     C54951   4.650   2.681   1.238 -0.2990  0.1514 -0.6000
  417MOL0     C54952   4.517   2.718   1.310 -0.1610  0.1050 -0.0564
  417MOL0     C54953   4.398   2.650   1.252  0.2716 -0.1079 -0.5137
  417MOL0     C54954   4.266   2.676   1.344  0.1438  1.0273  0.5239
  417MOL0     C54955   4.229   2.829   1.370  0.3446  0.4033  0.7038
  417MOL0    Cl54956   4.189   2.906   1.217  0.0465  0.2856  0.7657
  417MOL0     C54957   5.101   2.712   1.610 -0.3376 -0.2286 -0.7487
  417MOL0     C54958   5.201   2.726   1.706 -0.7497  0.8989  0.3963
  417MOL0     O54959   5.454   2.971   1.730  0.8750  0.6359 -0.1882
  417MOL0     C54960   5.663   2.998   1.914  0.1667  0.3785  0.0782
  417MOL0     C54961   5.778   2.998   1.992 -0.0809  0.3306  0.0913
  417MOL0     N54962   6.019   2.581   2.430  0.6535 -0.3514 -0.1831
  417MOL0     N54963   5.892   2.530   2.431 -1.6280 -0.1629  0.6652
  417MOL0     C54964   4.664   2.154   2.854 -0.8172  0.3170  0.5909
  417MOL0     C54965   4.557   2.109   2.933  0.1601 -0.7555  0.7764
  417MOL0     C54966   4.364   1.941   3.352 -0.1482  0.5222 -0.2914
  417MOL0     C54967   4.250   1.907   3.282  0.1543 -0.1134  0.1818
  417MOL0     C54968   4.129   1.862   3.343 -0.2630 -1.0208  0.8618
  417MOL0     C54969   4.126   1.846   3.477 -0.9545 -0.3115 -0.6032
  417MOL0     O54970   4.011   1.801   3.544  0.3151 -0.0638  0.1459
  417MOL0     C54971   3.999   1.839   3.686  0.2237  0.6113  0.0186
  417MOL0     C54972   3.874   1.776   3.741  0.6228 -0.1298 -0.1795
  417MOL0     C54973   3.739   1.800   3.673  0.2413 -0.4872  0.6047
  417MOL0     C54974   3.623   1.712   3.721  0.0595 -0.5596 -0.0057
  417MOL0     C54975   3.497   1.761   3.680  0.9540 -0.1446  1.0737
  417MOL0     C54976   3.404   1.825   3.631  0.2397 -0.2947  0.1685
  417MOL0     C54977   4.244   1.870   3.554 -1.0798 -0.3019 -0.9802
  417MOL0     C54978   4.356   1.928   3.492  0.7965 -0.0590 -0.7917
  417MOL0     H54979   4.756   1.976   3.182  3.1029  2.0988 -0.8710
  417MOL0     H54980   4.925   2.068   3.040 -0.5849 -0.7062  2.5092
  417MOL0     H54981   5.040   2.041   2.821  0.7312 -0.2616  1.2312
  417MOL0     H54982   5.075   2.214   2.879 -1.1037 -0.5320  1.4522
  417MOL0     H54983   5.053   2.215   2.589  0.7784  4.1209  0.9458
  417MOL0     H54984   5.146   2.080   2.654  1.5927  0.1852  1.8472
  417MOL0     H54985   5.293   2.249   2.757 -0.1711  1.2380  1.3688
  417MOL0     H54986   5.181   2.380   2.747  1.1297  1.2749 -0.6295
  417MOL0     H54987   5.335   2.275   2.498  1.5764  1.6737 -0.5049
  417MOL0     H54988   5.193   2.379   2.498 -0.6032 -2.6184 -1.7974
  417MOL0     H54989   5.431   2.428   2.688 -2.4676  0.9754  3.0268
  417MOL0     H54990   5.334   2.552   2.624 -0.9383  1.1978 -5.4071
  417MOL0     H54991   5.399   2.524   2.391 -0.0333 -0.1271 -0.8928
  417MOL0     H54992   5.510   2.386   2.426  2.3119  0.6631  0.9122
  417MOL0     H54993   5.547   2.667   2.517  1.1127  0.5845 -0.2576
  417MOL0     H54994   5.655   2.527   2.547 -0.7776 -0.4208  1.7470
  417MOL0     H54995   5.598   2.646   2.275 -0.6091 -0.2107  0.0193
  417MOL0     H54996   5.665   2.490   2.294 -0.0609  1.1083 -2.0772
  417MOL0     H54997   5.805   2.826   2.329 -0.5223 -1.9682 -3.7759
  417MOL0     H54998   6.121   2.835   2.503 -0.3292 -0.4203  0.0031
  417MOL0     H54999   6.050   2.922   2.368  2.1543  0.0011 -1.1443
  417MOL0     H55000   6.224   2.693   2.297 -1.3724  0.0121 -1.0968
  417MOL0     H55001   6.295   2.848   2.338 -1.6273  0.9310  1.9480
  417MOL0     H55002   6.212   2.956   2.141 -0.0361 -0.8998 -3.0743
  417MOL0     H55003   6.275   2.795   2.102  0.0477 -1.7171  0.2465
  417MOL0     H55004   6.040   2.709   2.099  0.7219  0.7664  3.4241
  417MOL0     H55005   6.082   2.831   1.981  0.7089  1.6150  0.6350
  417MOL0     H55006   5.835   2.678   2.063 -0.1039 -1.9102 -2.3103
  417MOL0     H55007   5.649   2.649   1.909  1.3677 -0.1281  1.7291
  417MOL0     H55008   5.468   2.743   1.499 -0.7636 -0.8204  0.1940
  417MOL0     H55009   5.295   2.737   1.336  1.6686  0.8370  0.6672
  417MOL0     H55010   5.099   2.750   1.202 -1.7399 -0.8540 -2.8022
  417MOL0     H55011   5.020   2.875   1.306  3.1487 -1.0999  1.9923
  417MOL0     H55012   4.894   2.631   1.167  0.7080  0.2162 -1.5586
  417MOL0     H55013   4.876   2.792   1.110 -1.0104 -0.6886 -0.2833
  417MOL0     H55014   4.739   2.875   1.278  1.4045  0.2052  1.7834
  417MOL0     H55015   4.778   2.741   1.392  1.7977 -2.2945 -1.3971
  417MOL0     H55016   4.631   2.692   1.131 -1.8570 -0.6363 -0.4318
  417MOL0     H55017   4.661   2.574   1.257 -3.4509 -0.3006 -0.8278
  417MOL0     H55018   4.505   2.827   1.307 -1.0343  0.0015 -1.1755
  417MOL0     H55019   4.519   2.696   1.417 -0.7776  0.7572  0.0939
  417MOL0     H55020   4.418   2.543   1.250 -1.0526 -0.3660 -1.8402
  417MOL0     H55021   4.393   2.678   1.146  1.5868  0.7089 -0.3884
  417MOL0     H55022   4.179   2.620   1.307  1.4393 -1.9384  1.5942
  417MOL0     H55023   4.282   2.628   1.441 -2.8446  0.7021  0.9335
  417MOL0     H55024   4.320   2.880   1.404  1.4985 -1.0972 -0.0260
  417MOL0     H55025   4.142   2.845   1.434 -0.6965  0.6884 -0.7387
  417MOL0     H55026   4.996   2.707   1.640  0.5635 -1.6534  2.6614
  417MOL0     H55027   5.183   2.729   1.813 -2.5238  0.5829  0.1438
  417MOL0     H55028   5.623   3.083   1.861  1.9258  0.6617 -0.8798
  417MOL0     H55029   5.830   3.093   1.992  1.4088 -0.4243 -2.0106
  417MOL0     H55030   4.654   2.202   2.757 -4.2141  1.8579  1.5477
  417MOL0     H55031   4.459   2.140   2.899  0.9168 -0.3537 -1.1843
  417MOL0     H55032   4.244   1.908   3.174 -3.1770 -3.4832  0.1318
  417MOL0     H55033   4.046   1.836   3.278  0.5190  0.8810 -1.0138
  417MOL0     H55034   3.995   1.948   3.696  0.4594  0.4313  2.6080
  417MOL0     H55035   4.083   1.810   3.748 -0.2723  1.7881  1.2850
  417MOL0     H55036   3.887   1.667   3.737 -0.9613 -0.3643  0.3637
  417MOL0     H55037   3.862   1.789   3.848 -0.3511 -2.8203  0.1374
  417MOL0     H55038   3.755   1.789   3.565 -0.3821 -1.8698  0.6298
  417MOL0     H55039   3.714   1.905   3.691 -0.8117 -0.6436  0.1435
  417MOL0     H55040   3.647   1.613   3.682 -1.0948 -0.5258 -0.8416
  417MOL0     H55041   3.613   1.693   3.829  2.4634  0.7630  0.5186
  417MOL0     H55042   3.322   1.886   3.597  0.0283  0.2885  1.6592
  417MOL0     H55043   4.257   1.871   3.662 -2.5121  1.5020 -0.7660
  417MOL0     H55044   4.437   1.964   3.554 -0.1365 -1.4838  1.3728
  418MOL0     O55045   0.415   3.752   1.360  0.6678  0.1900  0.2135
  418MOL0     C55046   0.412   3.875   1.357 -0.5625  1.1165 -0.0179
  418MOL0     O55047   0.317   3.957   1.396 -0.3175  1.0368  0.0998
  418MOL0     C55048   0.187   3.916   1.414  0.2800  0.0506  0.3875
  418MOL0     C55049   0.129   3.794   1.392 -0.2500 -0.0668  0.3303
  418MOL0     C55050  -0.006   3.770   1.413  0.6335 -0.1107 -0.2318
  418MOL0     C55051  -0.088   3.880   1.451 -1.0267  0.2276 -0.0525
  418MOL0     O55052  -0.224   3.875   1.467  0.4906  0.7877  0.2656
  418MOL0     C55053  -0.291   3.748   1.460  0.3501 -0.1499  0.2522
  418MOL0     C55054  -0.440   3.761   1.498  0.7668 -0.4984 -0.0316
  418MOL0     C55055  -0.478   3.819   1.634 -0.4404 -0.1843 -0.0101
  418MOL0     C55056  -0.614   3.886   1.648 -0.1096  0.1293  0.5385
  418MOL0     C55057  -0.657   3.894   1.794  0.9645 -1.0356 -0.0633
  418MOL0     C55058  -0.800   3.948   1.814  0.0442  0.5698 -0.1163
  418MOL0     C55059  -0.825   4.091   1.757  0.5815 -0.4021  0.0305
  418MOL0     C55060  -0.963   4.151   1.817 -0.0765 -0.1158 -0.0369
  418MOL0     N55061  -1.068   4.093   1.741 -0.4115 -0.2890  0.7940
  418MOL0     C55062  -1.154   3.998   1.778  0.2022  0.6752  0.7722
  418MOL0     C55063  -1.227   3.986   1.661 -0.6679 -0.7620  1.0031
  418MOL0     C55064  -1.337   3.889   1.624 -0.1145  0.3647  0.3152
  418MOL0     C55065  -1.397   3.820   1.754  0.1408  0.1817  0.3360
  418MOL0     C55066  -1.494   3.703   1.730  1.5108 -0.1717 -0.1595
  418MOL0     C55067  -1.616   3.735   1.652 -0.1676 -0.4685  0.0450
  418MOL0     O55068  -1.686   3.822   1.739  0.0930  0.4721 -0.2066
  418MOL0     C55069  -1.818   3.858   1.706  0.1991 -0.7460  1.2567
  418MOL0     C55070  -1.857   3.900   1.573  0.1397  0.0578  0.1990
  418MOL0     C55071  -1.996   3.930   1.552 -0.7621  0.0344  0.5078
  418MOL0     C55072  -2.091   3.935   1.660  0.3042  0.0511  0.0797
  418MOL0     C55073  -2.226   3.977   1.629 -0.1548 -0.0039 -0.7600
  418MOL0     O55074  -2.310   3.996   1.745  0.0050 -0.6514  0.4621
  418MOL0     C55075  -2.433   4.055   1.727 -0.0735 -0.1351 -0.4690
  418MOL0     C55076  -2.454   4.171   1.807 -0.4941  0.3390 -0.6982
  418MOL0     C55077  -2.570   4.247   1.797  0.1229 -0.0573  0.1478
  418MOL0     C55078  -2.664   4.216   1.692  0.2378  0.3437 -0.4137
  418MOL0     O55079  -2.780   4.284   1.663  0.1815  0.0267 -0.7003
  418MOL0     C55080  -2.840   4.378   1.753 -0.2309  0.2365 -0.2784
  418MOL0     C55081  -2.943   4.450   1.669  0.1227  0.6501 -0.0980
  418MOL0     C55082  -2.992   4.578   1.729  0.5546  0.3180 -1.0139
  418MOL0     C55083  -3.113   4.643   1.661  0.0817 -0.9185  0.2255
  418MOL0     C55084  -3.141   4.791   1.721  0.4244  0.3240  0.2785
  418MOL0     C55085  -3.270   4.861   1.662  0.5635 -0.4101  0.1089
  418MOL0     C55086  -3.241   4.903   1.519  0.2157  0.5571  0.0219
  418MOL0     C55087  -3.326   5.023   1.479 -1.1087  0.0981 -0.0564
  418MOL0    Cl55088  -3.285   5.036   1.304  0.2879  0.1807  0.3073
  418MOL0     C55089  -2.638   4.107   1.614  0.0619  1.0295  0.0462
  418MOL0     C55090  -2.526   4.029   1.627 -1.8595 -1.0432 -1.2076
  418MOL0     O55091  -2.256   4.001   1.512 -0.7070  0.2080  0.1171
  418MOL0     C55092  -2.051   3.895   1.784  0.6949 -0.2020  0.5196
  418MOL0     C55093  -1.915   3.852   1.810 -0.3786 -0.2920  0.6047
  418MOL0     N55094  -1.192   4.086   1.568  0.5338 -0.0652 -0.0765
  418MOL0     N55095  -1.111   4.158   1.635 -0.9479 -0.2131  1.1118
  418MOL0     C55096  -0.031   4.003   1.480 -0.0496 -0.1412  0.0455
  418MOL0     C55097   0.106   4.017   1.468  0.1447 -0.0252 -0.0627
  418MOL0     C55098   0.546   3.932   1.314  0.0822 -0.9755  0.8843
  418MOL0     C55099   0.647   3.844   1.266 -0.0110 -0.0254 -1.3341
  418MOL0     C55100   0.771   3.888   1.235 -1.1957  0.3638  0.2259
  418MOL0     C55101   0.806   4.021   1.240 -0.0391  0.7192  0.4239
  418MOL0     O55102   0.928   4.069   1.202  0.2874  0.4354  0.0123
  418MOL0     C55103   0.978   4.005   1.087 -0.9090  0.6120 -0.4865
  418MOL0     C55104   1.100   4.086   1.038 -0.0870  0.0837  0.1419
  418MOL0     C55105   1.184   4.137   1.158 -0.3699  0.4894  0.3250
  418MOL0     C55106   1.321   4.208   1.126  0.0271 -0.3985 -0.5864
  418MOL0     C55107   1.431   4.115   1.124  0.0030 -0.7703  0.1085
  418MOL0     C55108   1.534   4.042   1.137 -0.2603 -0.2993 -0.8521
  418MOL0     C55109   0.707   4.113   1.276  0.0791 -0.2786 -0.7287
  418MOL0     C55110   0.580   4.070   1.309  1.1173  0.0503 -0.8473
  418MOL0     H55111   0.184   3.710   1.353  1.5066  1.1734  0.0167
  418MOL0     H55112  -0.055   3.675   1.395  0.3180 -0.3154  1.5404
  418MOL0     H55113  -0.248   3.670   1.524  0.8838  1.2933  1.7166
  418MOL0     H55114  -0.287   3.709   1.357 -0.3226 -2.1655  0.9355
  418MOL0     H55115  -0.479   3.659   1.495 -0.1917 -0.1286 -0.3285
  418MOL0     H55116  -0.492   3.812   1.417 -1.4492 -0.1677  1.5016
  418MOL0     H55117  -0.401   3.888   1.669 -0.4842  1.0000 -2.0949
  418MOL0     H55118  -0.458   3.731   1.695  2.1370 -0.2655 -0.8590
  418MOL0     H55119  -0.611   3.990   1.613 -0.7137  0.8459  2.4768
  418MOL0     H55120  -0.693   3.835   1.592 -0.4511  3.8131 -2.7750
  418MOL0     H55121  -0.581   3.960   1.839 -1.1276  0.5182  1.3704
  418MOL0     H55122  -0.639   3.796   1.839  0.3530 -2.6646 -3.1165
  418MOL0     H55123  -0.812   3.955   1.922  0.5751 -1.2618  0.0964
  418MOL0     H55124  -0.870   3.877   1.769  0.8470 -0.1923 -0.1994
  418MOL0     H55125  -0.736   4.153   1.775  0.6843 -0.2555 -0.9485
  418MOL0     H55126  -0.829   4.086   1.648  1.7808  2.2900 -0.2150
  418MOL0     H55127  -0.952   4.259   1.808  1.6608 -0.3753 -1.5962
  418MOL0     H55128  -0.969   4.118   1.921  0.0839  1.3499  0.4527
  418MOL0     H55129  -1.160   3.930   1.863  0.5772  1.0843  1.1290
  418MOL0     H55130  -1.293   3.815   1.557  1.7436 -0.7261  2.6082
  418MOL0     H55131  -1.417   3.947   1.576 -1.1029  0.4042  1.9186
  418MOL0     H55132  -1.450   3.893   1.816 -0.4033 -0.2535  0.3978
  418MOL0     H55133  -1.314   3.784   1.816  1.4075  1.5115 -0.5420
  418MOL0     H55134  -1.436   3.637   1.664  1.1873 -0.8859  0.2598
  418MOL0     H55135  -1.515   3.653   1.825  1.5134  0.8559  0.4018
  418MOL0     H55136  -1.681   3.648   1.635 -3.4315  2.1647 -2.3471
  418MOL0     H55137  -1.597   3.779   1.555 -2.6911 -1.6865 -1.1015
  418MOL0     H55138  -1.777   3.912   1.501 -0.8589  0.0911 -0.9176
  418MOL0     H55139  -2.032   3.956   1.454 -0.1203 -0.6059  0.0896
  418MOL0     H55140  -2.375   4.213   1.868 -2.1580  2.8821 -0.1489
  418MOL0     H55141  -2.583   4.334   1.861  2.2945 -0.8553  1.7867
  418MOL0     H55142  -2.766   4.459   1.762 -1.1409  1.3756 -2.4223
  418MOL0     H55143  -2.882   4.350   1.850  2.2305  2.5571  1.6312
  418MOL0     H55144  -3.028   4.382   1.656  0.2148  1.0602 -4.0704
  418MOL0     H55145  -2.905   4.472   1.569  0.7413  1.8374  0.3784
  418MOL0     H55146  -2.909   4.647   1.751 -0.3118  0.9648  0.4394
  418MOL0     H55147  -3.030   4.557   1.830 -1.8349  0.7181 -1.7853
  418MOL0     H55148  -3.087   4.653   1.555 -1.1564 -1.5162 -0.1614
  418MOL0     H55149  -3.199   4.575   1.663 -0.7262  0.1007  0.9017
  418MOL0     H55150  -3.052   4.853   1.704  2.6020 -2.0548  2.2611
  418MOL0     H55151  -3.158   4.778   1.829 -0.3399  0.7523  0.2177
  418MOL0     H55152  -3.279   4.949   1.726 -0.1942 -0.9874  0.8050
  418MOL0     H55153  -3.361   4.801   1.670 -0.5145  0.9561 -1.1186
  418MOL0     H55154  -3.134   4.915   1.500 -0.0042  1.4887 -0.6985
  418MOL0     H55155  -3.265   4.818   1.455 -3.0317  1.3110  0.0401
  418MOL0     H55156  -3.308   5.109   1.544 -0.1622 -0.6322  0.6643
  418MOL0     H55157  -3.433   5.001   1.490 -1.3757  2.2155  2.5914
  418MOL0     H55158  -2.697   4.079   1.528  1.4700 -3.7108  0.3716
  418MOL0     H55159  -2.511   3.948   1.555 -1.6641 -1.8004 -0.3320
  418MOL0     H55160  -2.128   3.893   1.860 -1.1410 -0.0079 -1.2475
  418MOL0     H55161  -1.885   3.814   1.907 -0.4966 -0.0580  0.7359
  418MOL0     H55162  -0.095   4.087   1.508  0.2226 -0.6995  2.5357
  418MOL0     H55163   0.149   4.112   1.498  0.5556 -1.0594  2.9159
  418MOL0     H55164   0.621   3.739   1.261  0.4214 -0.3115  0.9765
  418MOL0     H55165   0.839   3.810   1.202 -0.4813  1.5415 -1.1985
  418MOL0     H55166   0.891   3.996   1.021 -1.5490  1.4987  0.2170
  418MOL0     H55167   1.007   3.901   1.105  0.6547  0.8016 -1.6833
  418MOL0     H55168   1.166   4.037   0.965  0.2580  0.7969 -0.0375
  418MOL0     H55169   1.063   4.172   0.981 -1.6946 -0.6466  0.0506
  418MOL0     H55170   1.194   4.054   1.228  2.1099  0.2214 -0.2716
  418MOL0     H55171   1.123   4.202   1.222 -0.8308  1.1865 -0.7866
  418MOL0     H55172   1.325   4.267   1.034  0.3854 -1.4580 -1.2736
  418MOL0     H55173   1.334   4.269   1.215 -1.8268 -0.9965  0.1560
  418MOL0     H55174   1.618   3.975   1.134  0.6791  0.7121  1.0444
  418MOL0     H55175   0.741   4.216   1.281  2.1661 -0.9623  0.7171
  418MOL0     H55176   0.506   4.139   1.349  2.0177  0.9016 -0.6057
  419MOL0     O55177  10.119   4.733   3.759 -0.7398 -0.0596  0.7564
  419MOL0     C55178  10.056   4.712   3.652  0.2031 -0.0436 -0.0425
  419MOL0     O55179  10.066   4.779   3.538  0.3717  0.2163 -0.2231
  419MOL0     C55180  10.113   4.906   3.535 -0.2046  0.3823  0.7884
  419MOL0     C55181  10.063   5.013   3.603 -0.2610  0.3500 -0.1384
  419MOL0     C55182  10.105   5.144   3.588 -0.0298  0.0436  0.5779
  419MOL0     C55183  10.203   5.172   3.487 -0.7740  0.2197 -0.5132
  419MOL0     O55184  10.234   5.296   3.450 -0.2639 -0.4887 -0.0704
  419MOL0     C55185  10.195   5.413   3.534  0.6245  0.7020 -0.3159
  419MOL0     C55186  10.107   5.501   3.447 -0.6958  0.0675 -0.2700
  419MOL0     C55187   9.981   5.436   3.409  0.5033 -0.5682 -0.6835
  419MOL0     C55188   9.923   5.514   3.299  0.2151 -1.1201  0.0715
  419MOL0     C55189   9.780   5.466   3.258  0.1677 -0.4902  0.3129
  419MOL0     C55190   9.720   5.556   3.146 -0.6321  0.4243  0.1737
  419MOL0     C55191   9.577   5.505   3.094 -0.7698 -0.0456 -0.0230
  419MOL0     C55192   9.526   5.592   2.981 -0.1482 -0.1480  0.0350
  419MOL0     N55193   9.388   5.561   2.943 -0.4686  0.5705  0.2263
  419MOL0     C55194   9.340   5.599   2.813 -0.2780  0.3760 -0.2876
  419MOL0     C55195   9.216   5.553   2.805  1.3953 -0.1998 -0.3232
  419MOL0     C55196   9.116   5.540   2.688 -0.3307 -0.3186  0.4421
  419MOL0     C55197   9.165   5.431   2.590 -0.1388 -0.6168 -0.0960
  419MOL0     C55198   9.118   5.434   2.443  0.1347 -0.3890 -0.1522
  419MOL0     C55199   8.974   5.391   2.423  0.0845  0.7646  0.8855
  419MOL0     O55200   8.931   5.443   2.298  0.4626  0.2821 -0.5647
  419MOL0     C55201   8.799   5.446   2.275  0.4915  0.1831 -0.6128
  419MOL0     C55202   8.756   5.524   2.169  0.4481  0.0808  0.0283
  419MOL0     C55203   8.626   5.524   2.121 -0.0277  0.1755  0.4603
  419MOL0     C55204   8.531   5.442   2.183  0.2853  0.4330 -0.2194
  419MOL0     C55205   8.391   5.459   2.150 -0.6356 -0.3077  0.6304
  419MOL0     O55206   8.351   5.588   2.123  0.2818 -0.0552  0.1706
  419MOL0     C55207   8.217   5.628   2.093 -0.0014 -0.2195  0.1986
  419MOL0     C55208   8.185   5.719   1.987 -0.4308  0.8130 -0.7622
  419MOL0     C55209   8.050   5.752   1.961  1.4467  0.0890 -0.3862
  419MOL0     C55210   7.938   5.700   2.038 -0.5801  0.2068  0.1183
  419MOL0     O55211   7.807   5.724   2.032 -0.0657  0.1613  0.5795
  419MOL0     C55212   7.751   5.816   1.939 -0.4980 -0.0216  1.2107
  419MOL0     C55213   7.598   5.847   1.959 -0.3948  0.1593 -0.0375
  419MOL0     C55214   7.584   5.974   2.041  0.3409  0.3199  1.0456
  419MOL0     C55215   7.434   6.025   2.019 -0.3275  0.5206  0.4655
  419MOL0     C55216   7.433   6.173   2.085 -0.1795  0.3724  0.0383
  419MOL0     C55217   7.294   6.209   2.128  0.1312  0.9320 -0.6600
  419MOL0     C55218   7.195   6.203   2.007 -0.0219 -0.0798  1.3280
  419MOL0     C55219   7.062   6.262   2.058 -0.4365 -0.4988 -0.2259
  419MOL0    Cl55220   6.992   6.182   2.207 -0.3056 -0.1156 -0.3122
  419MOL0     C55221   7.973   5.608   2.140  0.5030 -0.1315  0.5082
  419MOL0     C55222   8.109   5.571   2.165  0.8331  0.1932  0.1058
  419MOL0     O55223   8.327   5.359   2.164 -0.3268  0.3709  0.1783
  419MOL0     C55224   8.569   5.360   2.288  0.0325  0.0913  0.0151
  419MOL0     C55225   8.703   5.363   2.339 -0.3980 -0.8169 -1.2829
  419MOL0     N55226   9.183   5.499   2.927  0.0115  0.1466 -0.1971
  419MOL0     N55227   9.285   5.497   3.009 -0.4867  1.0969  0.0386
  419MOL0     C55228  10.264   5.067   3.425  0.6452  0.6574 -0.9235
  419MOL0     C55229  10.220   4.936   3.446  0.7765  0.3593  0.1393
  419MOL0     C55230   9.947   4.608   3.649  0.4349 -0.6829 -1.4043
  419MOL0     C55231   9.840   4.633   3.568  0.3954 -0.3310  0.6457
  419MOL0     C55232   9.739   4.536   3.561  0.1175 -1.2111  0.4669
  419MOL0     C55233   9.743   4.425   3.643  0.0017 -0.7507 -0.6415
  419MOL0     O55234   9.632   4.340   3.645 -0.5463 -0.2704 -0.6925
  419MOL0     C55235   9.614   4.262   3.764  0.1775 -0.6372 -0.2311
  419MOL0     C55236   9.591   4.359   3.884 -0.3881  0.9666 -0.2002
  419MOL0     C55237   9.536   4.288   4.004  0.2525  0.1205  0.6184
  419MOL0     C55238   9.550   4.367   4.132  0.4893  0.3446  0.2600
  419MOL0     C55239   9.492   4.298   4.243  0.4306  0.0831 -0.1981
  419MOL0     C55240   9.453   4.237   4.332  0.0100  0.1249 -0.5498
  419MOL0     C55241   9.850   4.409   3.735 -0.8778  0.9703 -0.0705
  419MOL0     C55242   9.951   4.496   3.741  0.6824 -0.3510 -0.3393
  419MOL0     H55243   9.992   4.989   3.681 -0.0576 -1.8856 -0.5636
  419MOL0     H55244  10.059   5.223   3.647 -0.6931 -0.4393  0.7094
  419MOL0     H55245  10.296   5.449   3.557  0.4892 -0.4429  2.4742
  419MOL0     H55246  10.153   5.398   3.634 -0.0914  0.5547 -0.6330
  419MOL0     H55247  10.147   5.529   3.350  0.3558  3.5696  1.0161
  419MOL0     H55248  10.097   5.602   3.489 -1.8759  0.5708 -1.6943
  419MOL0     H55249   9.914   5.432   3.495 -0.4900  2.0138 -1.2596
  419MOL0     H55250   9.994   5.334   3.370 -0.0581  0.0333 -2.5254
  419MOL0     H55251   9.902   5.617   3.327 -1.0511 -1.0464 -1.0129
  419MOL0     H55252   9.997   5.515   3.218  0.2098 -1.5551  0.0603
  419MOL0     H55253   9.724   5.479   3.352 -0.5620 -1.5060  0.0341
  419MOL0     H55254   9.779   5.359   3.236 -1.0594 -1.4404  4.1645
  419MOL0     H55255   9.787   5.545   3.060 -1.9543 -0.6460 -0.7762
  419MOL0     H55256   9.723   5.661   3.176 -1.5045  0.9602 -1.4524
  419MOL0     H55257   9.581   5.399   3.069 -2.0604 -0.2304  0.5242
  419MOL0     H55258   9.500   5.512   3.171 -0.7722 -0.4213  0.0093
  419MOL0     H55259   9.589   5.590   2.892 -1.5738 -1.8634 -1.0003
  419MOL0     H55260   9.522   5.698   3.008 -1.6825 -0.1926  0.0808
  419MOL0     H55261   9.404   5.646   2.738  2.8278 -2.9163  0.0223
  419MOL0     H55262   9.112   5.636   2.636  0.6369 -0.6950 -0.3703
  419MOL0     H55263   9.013   5.516   2.717 -1.0066  1.8807  0.0502
  419MOL0     H55264   9.137   5.333   2.632 -0.5377 -1.0850 -1.4110
  419MOL0     H55265   9.274   5.422   2.588 -0.2623 -2.6196 -0.5884
  419MOL0     H55266   9.129   5.539   2.413 -0.1380 -0.3846 -0.2397
  419MOL0     H55267   9.190   5.381   2.380 -1.5441 -0.8015 -1.8333
  419MOL0     H55268   8.914   5.425   2.508 -1.5948 -1.3592  0.6385
  419MOL0     H55269   8.967   5.282   2.412 -0.8589  1.0458 -2.0076
  419MOL0     H55270   8.828   5.591   2.123  1.6965 -2.0593 -1.2586
  419MOL0     H55271   8.591   5.586   2.039 -0.0256  0.4901  0.6956
  419MOL0     H55272   8.259   5.759   1.918  1.2390  1.6736  1.4024
  419MOL0     H55273   8.015   5.820   1.885 -0.3203  1.7083  1.7383
  419MOL0     H55274   7.755   5.768   1.840  1.4554  2.1656  0.1129
  419MOL0     H55275   7.798   5.915   1.931 -0.7783 -0.0071 -1.5244
  419MOL0     H55276   7.572   5.755   2.013  0.8415 -1.0316 -1.3599
  419MOL0     H55277   7.557   5.873   1.860 -1.0672  0.2499  0.2584
  419MOL0     H55278   7.635   6.054   1.988 -3.6182  1.9316 -0.7602
  419MOL0     H55279   7.618   5.968   2.145  3.2213 -1.6002  0.1138
  419MOL0     H55280   7.407   6.023   1.913  0.7032  0.3798  0.1900
  419MOL0     H55281   7.367   5.955   2.070  0.2162 -1.1553 -0.9864
  419MOL0     H55282   7.461   6.258   2.022  1.4014  2.3898  3.1528
  419MOL0     H55283   7.500   6.180   2.172  0.2020  1.0565 -0.3008
  419MOL0     H55284   7.298   6.308   2.173 -0.3217  0.3814  0.6596
  419MOL0     H55285   7.259   6.136   2.202  1.0466 -0.5172 -1.5882
  419MOL0     H55286   7.216   6.264   1.919 -0.1339 -0.0412  1.3264
  419MOL0     H55287   7.173   6.102   1.972 -1.4634 -0.1181  2.2335
  419MOL0     H55288   6.995   6.252   1.972  0.6509 -0.3662 -1.1173
  419MOL0     H55289   7.075   6.368   2.078  0.0851 -0.6038  0.0144
  419MOL0     H55290   7.889   5.566   2.194  0.3411  1.1098  1.2714
  419MOL0     H55291   8.132   5.513   2.253  0.0480  0.4578  0.4859
  419MOL0     H55292   8.494   5.295   2.330  0.4579  0.0481  0.7217
  419MOL0     H55293   8.726   5.283   2.410 -2.8921  0.1840  0.8051
  419MOL0     H55294  10.347   5.093   3.361  2.3301 -0.9246  0.4923
  419MOL0     H55295  10.271   4.863   3.384  2.4594 -0.6261  2.5332
  419MOL0     H55296   9.823   4.717   3.500  1.6545 -1.0895 -0.6501
  419MOL0     H55297   9.660   4.554   3.489  0.3967  2.0788  0.8419
  419MOL0     H55298   9.683   4.178   3.782 -2.0330 -1.8871  3.5013
  419MOL0     H55299   9.525   4.207   3.733  1.9528 -3.1782 -1.1817
  419MOL0     H55300   9.690   4.398   3.909  0.6689  1.2242 -4.1127
  419MOL0     H55301   9.532   4.449   3.862  2.2552  2.3718 -2.2012
  419MOL0     H55302   9.595   4.197   4.015  1.0202  0.8811  3.4909
  419MOL0     H55303   9.440   4.247   3.970  1.8560 -2.3704 -1.2722
  419MOL0     H55304   9.656   4.383   4.154  1.1648 -1.3780 -1.4683
  419MOL0     H55305   9.504   4.466   4.127  1.8728  1.0497  0.9584
  419MOL0     H55306   9.418   4.184   4.419 -2.4288  1.3592 -0.6847
  419MOL0     H55307   9.863   4.319   3.794 -0.4646  1.7291  1.0420
  419MOL0     H55308  10.020   4.492   3.825 -1.2071 -0.5730  1.2760
  420MOL0     O55309   1.686   7.176   0.046  0.3140 -0.0754  0.2215
  420MOL0     C55310   1.641   7.076  -0.008  0.0819 -0.1880 -0.7611
  420MOL0     O55311   1.521   7.016   0.024 -0.2991  0.0089 -0.4140
  420MOL0     C55312   1.434   7.074   0.117 -0.3268 -1.0897  0.6093
  420MOL0     C55313   1.294   7.046   0.099 -0.4497  0.0623  0.3124
  420MOL0     C55314   1.202   7.085   0.196  0.1286 -0.3420  0.8756
  420MOL0     C55315   1.246   7.160   0.308  0.0713  0.3545 -0.2252
  420MOL0     O55316   1.154   7.193   0.404  0.1281 -0.2332 -0.5736
  420MOL0     C55317   1.080   7.313   0.374 -0.4009 -0.0611 -0.2370
  420MOL0     C55318   0.932   7.285   0.323 -0.9338 -0.8697  0.5897
  420MOL0     C55319   0.850   7.189   0.409 -1.0897 -0.8891  0.7331
  420MOL0     C55320   0.699   7.185   0.365 -0.5748 -0.8521  0.1970
  420MOL0     C55321   0.619   7.091   0.452  0.5030  0.5116  0.5469
  420MOL0     C55322   0.472   7.133   0.461 -0.1563  0.1002 -0.0871
  420MOL0     C55323   0.403   7.058   0.564  0.2463 -0.1777 -0.3308
  420MOL0     C55324   0.254   7.026   0.540  0.1136 -0.4591  0.4316
  420MOL0     N55325   0.155   7.127   0.604 -0.7747 -0.0996  0.0786
  420MOL0     C55326   0.151   7.181   0.733 -0.3568 -0.9750 -0.0796
  420MOL0     C55327   0.042   7.265   0.743  0.2331 -0.3840 -0.1004
  420MOL0     C55328  -0.023   7.344   0.857  0.1260 -0.0825  0.4853
  420MOL0     C55329  -0.172   7.329   0.860  0.0224  0.2200  0.4283
  420MOL0     C55330  -0.256   7.392   0.749 -0.5791 -0.1826  0.4758
  420MOL0     C55331  -0.404   7.389   0.777  0.0091  0.5684  0.1583
  420MOL0     O55332  -0.452   7.510   0.839  0.0795 -0.0073  0.1713
  420MOL0     C55333  -0.590   7.542   0.842 -0.6423  0.7059 -0.5258
  420MOL0     C55334  -0.690   7.446   0.814  0.1481 -0.1929 -1.0388
  420MOL0     C55335  -0.822   7.480   0.830 -0.2359 -0.3698  0.3031
  420MOL0     C55336  -0.867   7.611   0.866  0.5883 -0.3523 -0.2028
  420MOL0     C55337  -1.011   7.645   0.869 -0.2532 -0.5105  0.2178
  420MOL0     O55338  -1.049   7.767   0.902 -0.4003 -0.8496  0.4146
  420MOL0     C55339  -1.180   7.797   0.909 -0.0912 -0.1478  0.2610
  420MOL0     C55340  -1.285   7.714   0.962 -0.8372  0.7503 -0.0656
  420MOL0     C55341  -1.416   7.755   0.966  0.8170  0.0878 -0.7651
  420MOL0     C55342  -1.450   7.888   0.919 -0.6182  0.1235 -0.9407
  420MOL0     O55343  -1.577   7.930   0.911  0.0065  0.0769  0.3612
  420MOL0     C55344  -1.688   7.847   0.952 -0.9043  0.0773  0.4941
  420MOL0     C55345  -1.818   7.906   0.909 -0.1567  0.5568  0.4284
  420MOL0     C55346  -1.911   7.788   0.936 -0.5501 -0.0711 -0.8359
  420MOL0     C55347  -2.057   7.813   0.894  0.7899  0.4540 -0.5009
  420MOL0     C55348  -2.145   7.690   0.924  1.0588  0.6099  0.2931
  420MOL0     C55349  -2.288   7.696   0.853  0.4441  0.1754 -0.1752
  420MOL0     C55350  -2.379   7.804   0.923  0.7904 -0.4509  0.1947
  420MOL0     C55351  -2.526   7.791   0.877 -1.0450 -0.2086 -0.4298
  420MOL0    Cl55352  -2.610   7.937   0.929 -0.2283  0.0453 -0.3806
  420MOL0     C55353  -1.350   7.969   0.867  0.2949  0.3066  0.4475
  420MOL0     C55354  -1.217   7.921   0.863  0.1283  0.0691 -0.1655
  420MOL0     O55355  -1.087   7.558   0.825  0.0617  0.2582  0.3505
  420MOL0     C55356  -0.767   7.701   0.901 -0.7931 -0.6471 -0.0194
  420MOL0     C55357  -0.630   7.666   0.893 -0.4073  0.6557 -1.0952
  420MOL0     N55358  -0.000   7.269   0.613  0.4936 -0.9601  0.0278
  420MOL0     N55359   0.064   7.197   0.529  0.1020  0.8150  0.2415
  420MOL0     C55360   1.380   7.190   0.322  0.2039 -0.3101 -0.5526
  420MOL0     C55361   1.470   7.154   0.228  0.0049  0.0917  0.6226
  420MOL0     C55362   1.725   7.015  -0.107  0.0658 -0.3547 -0.4093
  420MOL0     C55363   1.670   6.917  -0.188 -1.0499 -0.1087  0.3692
  420MOL0     C55364   1.754   6.865  -0.289  1.3889  1.3193  1.3995
  420MOL0     C55365   1.878   6.919  -0.330 -0.7008 -0.3144  0.4731
  420MOL0     O55366   1.944   6.878  -0.448  0.2345  0.0975  0.7683
  420MOL0     C55367   2.086   6.884  -0.476  0.1787  0.2242 -0.5119
  420MOL0     C55368   2.111   6.783  -0.582 -0.0251 -0.7402  0.3610
  420MOL0     C55369   2.254   6.804  -0.631 -0.1373  0.5016 -0.0678
  420MOL0     C55370   2.348   6.681  -0.615  0.7812 -0.4266  0.0257
  420MOL0     C55371   2.393   6.653  -0.476  1.3386 -0.2643  0.7245
  420MOL0     C55372   2.423   6.628  -0.365 -0.3029  0.2950  0.1905
  420MOL0     C55373   1.935   7.012  -0.241 -0.3681 -0.3692  0.3244
  420MOL0     C55374   1.863   7.058  -0.132 -0.3540  0.4121 -0.0530
  420MOL0     H55375   1.274   6.973   0.022  4.2079  1.4607 -2.5985
  420MOL0     H55376   1.098   7.056   0.187 -0.3312  1.3650  0.3739
  420MOL0     H55377   1.132   7.377   0.302 -0.4882 -0.3162 -0.5292
  420MOL0     H55378   1.080   7.371   0.467  0.4263  3.0237 -2.0273
  420MOL0     H55379   0.935   7.247   0.221  1.6402 -1.4153  0.8149
  420MOL0     H55380   0.886   7.384   0.330  0.0576 -0.5328  3.6759
  420MOL0     H55381   0.853   7.212   0.516  1.1383 -1.8114  0.9283
  420MOL0     H55382   0.874   7.083   0.393  2.5182 -0.1615  0.5109
  420MOL0     H55383   0.652   7.283   0.379  1.4136 -0.0732  1.8424
  420MOL0     H55384   0.688   7.168   0.257 -0.3588 -2.1461  0.3732
  420MOL0     H55385   0.666   7.093   0.551  4.4029 -2.1086 -0.9876
  420MOL0     H55386   0.638   6.994   0.404  2.5406  1.0023  0.2778
  420MOL0     H55387   0.433   7.116   0.360  1.6786  2.4096 -1.2789
  420MOL0     H55388   0.467   7.239   0.485  3.3008  0.0174  1.7157
  420MOL0     H55389   0.454   6.961   0.566  0.5123 -0.0645  2.3348
  420MOL0     H55390   0.433   7.091   0.665  1.9941  1.1664 -1.2272
  420MOL0     H55391   0.236   6.932   0.594  1.3271 -1.0634 -0.1670
  420MOL0     H55392   0.235   7.009   0.434  1.1882 -2.9017  0.5564
  420MOL0     H55393   0.224   7.159   0.810  0.2401  2.2913  0.4343
  420MOL0     H55394   0.001   7.451   0.858 -0.8456  0.1541 -0.0932
  420MOL0     H55395   0.017   7.304   0.951  2.4179  1.3182  0.1889
  420MOL0     H55396  -0.204   7.371   0.956  0.2397  2.2503 -0.3570
  420MOL0     H55397  -0.198   7.222   0.865  0.6964 -0.0130 -0.7454
  420MOL0     H55398  -0.222   7.491   0.716  0.5897 -1.0554 -1.0353
  420MOL0     H55399  -0.253   7.326   0.663 -2.4015  0.0450  0.2009
  420MOL0     H55400  -0.432   7.301   0.836 -3.5772  1.3801 -0.1258
  420MOL0     H55401  -0.446   7.386   0.676 -1.0385  1.0886  0.5627
  420MOL0     H55402  -0.665   7.343   0.789  0.5357  0.3028 -2.7838
  420MOL0     H55403  -0.891   7.402   0.801  0.0685 -0.6414  0.3064
  420MOL0     H55404  -1.262   7.620   1.011  0.0259 -0.4395 -2.5614
  420MOL0     H55405  -1.481   7.680   1.009  2.1394 -1.2335 -0.9787
  420MOL0     H55406  -1.685   7.820   1.058  3.6799  2.2575  1.1605
  420MOL0     H55407  -1.688   7.755   0.893 -1.7192  0.6515 -0.4473
  420MOL0     H55408  -1.820   7.934   0.803  0.7125  0.7426  0.4567
  420MOL0     H55409  -1.843   7.997   0.965 -1.8405 -0.3544  1.2285
  420MOL0     H55410  -1.920   7.782   1.045  1.5746  0.7180 -0.5736
  420MOL0     H55411  -1.886   7.691   0.892 -2.9101 -0.7461 -0.8058
  420MOL0     H55412  -2.109   7.896   0.941  0.8565 -1.6384  3.7453
  420MOL0     H55413  -2.045   7.831   0.787 -0.7566  0.4302 -0.6894
  420MOL0     H55414  -2.168   7.682   1.030 -1.9193 -0.0852 -0.3260
  420MOL0     H55415  -2.097   7.599   0.885  1.2882  1.8576 -2.6387
  420MOL0     H55416  -2.325   7.594   0.865  0.7833  0.3009  2.6542
  420MOL0     H55417  -2.279   7.709   0.745 -1.2004  1.1565 -0.2462
  420MOL0     H55418  -2.368   7.797   1.031 -1.1347 -0.0420  0.4448
  420MOL0     H55419  -2.333   7.898   0.889  2.1782 -1.7012 -1.5458
  420MOL0     H55420  -2.566   7.696   0.913  1.9161 -1.2258  0.4132
  420MOL0     H55421  -2.536   7.796   0.769 -0.3134  0.4533 -0.4801
  420MOL0     H55422  -1.374   8.070   0.833 -1.1657 -0.5267 -1.1757
  420MOL0     H55423  -1.138   7.983   0.822 -0.5058  1.6600  0.9220
  420MOL0     H55424  -0.797   7.803   0.925 -0.1940 -0.7263  1.1455
  420MOL0     H55425  -0.553   7.740   0.915  0.0951  0.4375 -2.0782
  420MOL0     H55426   1.414   7.240   0.412  1.4138 -2.1284  0.0532
  420MOL0     H55427   1.575   7.172   0.243  0.6884 -0.3849 -2.6878
  420MOL0     H55428   1.578   6.862  -0.168 -0.4838 -0.9958  0.5636
  420MOL0     H55429   1.705   6.802  -0.363  0.7186  5.1710 -1.7234
  420MOL0     H55430   2.151   6.865  -0.390  0.6370  2.6046 -0.2638
  420MOL0     H55431   2.100   6.988  -0.510  1.2689  0.2835  0.0638
  420MOL0     H55432   2.090   6.683  -0.544  1.8656 -0.7385  1.5089
  420MOL0     H55433   2.045   6.797  -0.669  1.2948 -0.3657 -0.6064
  420MOL0     H55434   2.309   6.893  -0.596  0.0678  0.6219 -0.6925
  420MOL0     H55435   2.245   6.815  -0.739  2.3960  1.6270 -0.2537
  420MOL0     H55436   2.294   6.596  -0.656 -0.5685  0.3057  0.2041
  420MOL0     H55437   2.441   6.688  -0.673  1.3673 -2.0777  0.7076
  420MOL0     H55438   2.451   6.613  -0.262  0.9579  1.4062  0.0426
  420MOL0     H55439   2.027   7.066  -0.263  1.9818 -3.2461  2.3008
  420MOL0     H55440   1.910   7.133  -0.070  0.0242  0.4066 -0.3348
  421MOL0     O55441   6.313   9.378   7.763 -0.3125  0.4093  0.9153
  421MOL0     C55442   6.395   9.449   7.707 -0.0194  0.1554 -0.1569
  421MOL0     O55443   6.361   9.550   7.623  0.6260 -0.0248 -0.0205
  421MOL0     C55444   6.232   9.584   7.585  0.0902 -0.0947  0.0088
  421MOL0     C55445   6.124   9.579   7.671  0.0427 -0.7190 -0.0619
  421MOL0     C55446   6.005   9.627   7.634  0.3701  0.5666 -0.9498
  421MOL0     C55447   5.974   9.671   7.500 -0.1364  0.2582  0.1710
  421MOL0     O55448   5.849   9.700   7.455 -0.0470 -0.4044 -0.3690
  421MOL0     C55449   5.735   9.682   7.544  0.1294 -0.9495 -0.6944
  421MOL0     C55450   5.605   9.718   7.463  0.6987 -0.6232  0.3817
  421MOL0     C55451   5.465   9.686   7.525 -1.1893  0.2720  0.0268
  421MOL0     C55452   5.441   9.545   7.587 -0.1920 -0.6899 -0.6326
  421MOL0     C55453   5.297   9.538   7.634  0.3488  0.6511  0.0603
  421MOL0     C55454   5.282   9.578   7.777 -0.2927 -0.0542 -0.1616
  421MOL0     C55455   5.130   9.564   7.820 -0.8659  0.5036 -0.1201
  421MOL0     C55456   5.049   9.688   7.788 -0.6055 -0.0538 -0.1693
  421MOL0     N55457   4.914   9.678   7.848 -0.7512 -0.4489  0.2598
  421MOL0     C55458   4.806   9.624   7.778  0.2408 -1.0889 -0.7045
  421MOL0     C55459   4.701   9.632   7.864  0.3283 -0.0297 -0.4393
  421MOL0     C55460   4.571   9.566   7.842  0.1711  0.6683 -0.0733
  421MOL0     C55461   4.455   9.623   7.924 -0.0924 -0.3636  0.3495
  421MOL0     C55462   4.322   9.560   7.877  0.3588 -0.5130 -0.2792
  421MOL0     C55463   4.210   9.638   7.943  0.2272  0.2011 -0.8614
  421MOL0     O55464   4.086   9.573   7.911 -0.2727  0.5457 -0.6546
  421MOL0     C55465   3.974   9.616   7.976 -0.0662 -0.8452 -0.3944
  421MOL0     C55466   3.972   9.727   8.063  0.2227  0.0905  0.1803
  421MOL0     C55467   3.862   9.767   8.134  0.1416 -0.0303  0.2795
  421MOL0     C55468   3.747   9.689   8.125 -0.4837  1.1139 -0.0890
  421MOL0     C55469   3.620   9.716   8.191 -0.2746  0.0766  0.4650
  421MOL0     O55470   3.502   9.655   8.160  0.1441  0.2748 -0.2796
  421MOL0     C55471   3.391   9.701   8.225 -0.4238  0.5249 -0.5264
  421MOL0     C55472   3.304   9.782   8.158 -0.4044  0.0808 -0.0628
  421MOL0     C55473   3.186   9.817   8.208 -0.1967  0.7571 -1.1391
  421MOL0     C55474   3.137   9.760   8.330 -0.3262 -1.0322 -0.8957
  421MOL0     O55475   3.010   9.797   8.370 -0.0127  0.0867 -0.1623
  421MOL0     C55476   2.970   9.753   8.501 -0.1231  0.0221 -0.1441
  421MOL0     C55477   2.824   9.800   8.512 -0.0870 -0.0776 -0.1257
  421MOL0     C55478   2.745   9.771   8.642 -0.6894 -0.8771 -1.1772
  421MOL0     C55479   2.607   9.840   8.653  0.3216  0.6331 -0.0001
  421MOL0     C55480   2.556   9.866   8.802 -0.5795  0.3019 -0.3698
  421MOL0     C55481   2.411   9.916   8.814  0.6679 -0.3796  0.6166
  421MOL0     C55482   2.341   9.897   8.954 -0.5148 -0.0338  0.1263
  421MOL0     C55483   2.220   9.995   8.955  0.9055  0.4666 -0.1138
  421MOL0    Cl55484   2.089   9.940   8.840 -0.3211  0.2173  0.2057
  421MOL0     C55485   3.234   9.688   8.407  0.8757 -0.1808 -0.1106
  421MOL0     C55486   3.357   9.655   8.356  0.0419  0.4708  1.0598
  421MOL0     O55487   3.635   9.799   8.284  0.3369  0.6065 -0.3827
  421MOL0     C55488   3.756   9.571   8.047  0.2443  0.3660 -0.1608
  421MOL0     C55489   3.861   9.540   7.964 -0.5065  0.6803 -0.4747
  421MOL0     N55490   4.745   9.680   7.985  0.1729  0.6431  0.5125
  421MOL0     N55491   4.869   9.716   7.972 -0.6432 -0.9739 -0.4487
  421MOL0     C55492   6.088   9.666   7.408 -0.3602 -0.4701 -0.0379
  421MOL0     C55493   6.212   9.631   7.452  0.4609  0.4784 -0.3461
  421MOL0     C55494   6.536   9.420   7.745  0.1921  0.4896 -0.1152
  421MOL0     C55495   6.565   9.307   7.819 -0.3405 -0.2270  0.8108
  421MOL0     C55496   6.701   9.281   7.856 -1.0067  0.8049  0.6169
  421MOL0     C55497   6.806   9.364   7.814  0.0573  0.5555 -0.8996
  421MOL0     O55498   6.933   9.330   7.852 -0.2232 -0.5222  0.0732
  421MOL0     C55499   7.025   9.439   7.864  0.5917  0.3163 -0.5208
  421MOL0     C55500   7.157   9.382   7.917 -0.2393  0.6642  1.0442
  421MOL0     C55501   7.152   9.301   8.052  0.8022 -0.0204  0.5585
  421MOL0     C55502   7.251   9.336   8.164  0.1307  0.9045  0.1607
  421MOL0     C55503   7.379   9.263   8.141 -0.6492 -0.3639  0.7970
  421MOL0     C55504   7.470   9.190   8.109  0.0364  0.2187 -0.2921
  421MOL0     C55505   6.769   9.476   7.744  0.1753 -0.6135  0.6500
  421MOL0     C55506   6.637   9.503   7.706  0.7141  0.1098 -0.5408
  421MOL0     H55507   6.149   9.554   7.774  0.6367  0.3133  0.0681
  421MOL0     H55508   5.925   9.632   7.706 -0.2730 -3.5457 -1.1575
  421MOL0     H55509   5.741   9.754   7.626 -3.5191 -1.1090 -0.1501
  421MOL0     H55510   5.730   9.580   7.582 -1.8489 -0.5536  0.2041
  421MOL0     H55511   5.600   9.669   7.365 -1.3732  0.3474 -0.0345
  421MOL0     H55512   5.597   9.825   7.443  0.2269 -0.4471  1.4668
  421MOL0     H55513   5.392   9.708   7.447 -0.7012  2.6706  0.1837
  421MOL0     H55514   5.434   9.755   7.604 -2.6972  2.7143 -2.5157
  421MOL0     H55515   5.456   9.463   7.516 -1.3621 -0.6406 -0.9513
  421MOL0     H55516   5.507   9.531   7.674 -2.5104  0.3015  1.3996
  421MOL0     H55517   5.263   9.435   7.633 -2.5164  1.4907  1.1374
  421MOL0     H55518   5.238   9.600   7.567 -0.0672 -0.8213 -0.9752
  421MOL0     H55519   5.313   9.682   7.784 -2.3917  0.5519  0.8932
  421MOL0     H55520   5.343   9.520   7.847 -2.6286 -0.5826  1.5419
  421MOL0     H55521   5.091   9.469   7.784  1.3510 -0.2609 -0.6416
  421MOL0     H55522   5.122   9.552   7.929 -1.8840  1.3725 -0.0821
  421MOL0     H55523   5.043   9.697   7.679  0.4194  1.2716 -0.1382
  421MOL0     H55524   5.104   9.776   7.822  0.9989 -0.8361 -0.6487
  421MOL0     H55525   4.811   9.584   7.677 -0.2210 -0.2889 -1.0531
  421MOL0     H55526   4.577   9.458   7.859  1.8955  0.9055  1.0814
  421MOL0     H55527   4.554   9.587   7.735  2.3851 -0.4254 -0.6972
  421MOL0     H55528   4.445   9.731   7.913 -0.4918 -0.3350  0.9195
  421MOL0     H55529   4.473   9.603   8.030  0.1328 -3.1543 -0.1489
  421MOL0     H55530   4.315   9.562   7.768  1.6165 -0.0494 -0.3609
  421MOL0     H55531   4.310   9.454   7.903  0.8091 -0.2776  0.9318
  421MOL0     H55532   4.211   9.739   7.901  2.5561  0.4219 -0.4110
  421MOL0     H55533   4.229   9.647   8.050 -3.7117  3.2888 -0.1714
  421MOL0     H55534   4.057   9.794   8.065  0.9582 -0.8507  1.0321
  421MOL0     H55535   3.854   9.861   8.189  1.5985 -0.6021  1.5433
  421MOL0     H55536   3.333   9.817   8.060  1.9709  0.0154  0.5544
  421MOL0     H55537   3.128   9.886   8.147  2.2662  2.0364 -2.1818
  421MOL0     H55538   3.028   9.794   8.584 -0.2069 -2.0134  0.9898
  421MOL0     H55539   2.978   9.644   8.507 -0.7205  0.0588  1.8065
  421MOL0     H55540   2.772   9.755   8.427  0.1000 -0.5986  0.0305
  421MOL0     H55541   2.820   9.907   8.491 -1.7745 -0.6110 -3.0950
  421MOL0     H55542   2.809   9.802   8.725  0.7283 -0.6365 -2.3172
  421MOL0     H55543   2.728   9.663   8.651 -1.4265 -0.6657  0.1210
  421MOL0     H55544   2.608   9.936   8.600  0.0407  1.2923  1.1622
  421MOL0     H55545   2.534   9.776   8.602  0.0327  0.1692  0.9703
  421MOL0     H55546   2.620   9.942   8.845 -0.3172  1.5282 -2.7599
  421MOL0     H55547   2.565   9.767   8.848  2.2519  0.0737 -1.2341
  421MOL0     H55548   2.355   9.846   8.752  2.0405 -1.4554  0.5370
  421MOL0     H55549   2.406  10.018   8.776  2.5200 -0.7748 -0.8314
  421MOL0     H55550   2.305   9.794   8.963  3.6102 -1.7593 -0.6787
  421MOL0     H55551   2.400   9.925   9.042 -2.7297 -1.7602  2.3168
  421MOL0     H55552   2.257  10.096   8.937  0.0981  0.9483  0.8087
  421MOL0     H55553   2.168  10.000   9.051  0.2799 -3.0169 -0.1354
  421MOL0     H55554   3.207   9.640   8.501 -0.9701 -0.2366 -0.6120
  421MOL0     H55555   3.437   9.597   8.401  0.4065 -0.5135 -0.7735
  421MOL0     H55556   3.678   9.496   8.043  1.3371 -0.7426 -2.2159
  421MOL0     H55557   3.862   9.451   7.902  0.6544  0.3590 -0.0295
  421MOL0     H55558   6.074   9.702   7.306 -1.4961 -0.3229  0.1462
  421MOL0     H55559   6.297   9.636   7.385 -0.4020 -1.6029 -1.7023
  421MOL0     H55560   6.478   9.246   7.840 -0.6540 -1.4708 -3.2837
  421MOL0     H55561   6.724   9.201   7.926 -1.2879  1.9689  2.0850
  421MOL0     H55562   6.985   9.513   7.935 -0.3897  2.1128 -2.7843
  421MOL0     H55563   7.049   9.482   7.766  0.5785  0.5824 -0.4101
  421MOL0     H55564   7.205   9.321   7.841 -0.7897  0.7699  0.6092
  421MOL0     H55565   7.221   9.469   7.937 -0.0273  0.1026  3.0383
  421MOL0     H55566   7.146   9.194   8.028  0.3417  0.2735 -0.7178
  421MOL0     H55567   7.052   9.322   8.091  0.6199  1.2451 -0.5496
  421MOL0     H55568   7.269   9.444   8.159 -0.0920  0.8858 -2.1090
  421MOL0     H55569   7.214   9.309   8.263 -2.8058  1.8255 -0.5986
  421MOL0     H55570   7.558   9.134   8.086  0.0843  0.7777 -1.5595
  421MOL0     H55571   6.850   9.541   7.712  0.0145 -0.0387  1.3726
  421MOL0     H55572   6.618   9.580   7.632  2.4026  0.5461 -0.5582
  422MOL0     O55573   8.377  11.232   7.896 -0.2484  0.5022 -0.8076
  422MOL0     C55574   8.360  11.113   7.913  0.5496 -0.5725 -0.0376
  422MOL0     O55575   8.242  11.052   7.927 -0.3214  0.5088 -0.5117
  422MOL0     C55576   8.134  11.127   7.951 -0.0936 -0.9474  0.4900
  422MOL0     C55577   8.024  11.151   7.859 -0.3260 -0.5234  0.0900
  422MOL0     C55578   7.915  11.241   7.890  0.4953 -0.5872  0.3481
  422MOL0     C55579   7.909  11.295   8.017  0.2647  0.1098 -0.5273
  422MOL0     O55580   7.796  11.367   8.035  0.4248 -0.0956 -0.3516
  422MOL0     C55581   7.750  11.371   8.173 -0.2170  0.2573  0.1384
  422MOL0     C55582   7.611  11.435   8.174 -0.7034  0.4781 -1.3562
  422MOL0     C55583   7.507  11.390   8.067 -0.1059 -0.3498 -0.1263
  422MOL0     C55584   7.373  11.480   8.074 -0.1039 -0.6185  0.8717
  422MOL0     C55585   7.272  11.457   7.959 -0.1434 -0.3991  0.7433
  422MOL0     C55586   7.284  11.555   7.844 -0.2923  0.3826 -0.5850
  422MOL0     C55587   7.180  11.667   7.856  0.4036 -0.8497  0.7231
  422MOL0     C55588   7.201  11.787   7.766  0.0250 -0.0439  0.1231
  422MOL0     N55589   7.103  11.890   7.794  0.2745 -0.4493  0.5793
  422MOL0     C55590   6.987  11.912   7.721 -0.0524  0.1357 -0.0970
  422MOL0     C55591   6.951  12.035   7.755 -0.7236 -0.0335  0.3408
  422MOL0     C55592   6.850  12.121   7.685  0.0255 -1.3189  0.1187
  422MOL0     C55593   6.704  12.093   7.723 -0.7707 -0.3716 -0.6562
  422MOL0     C55594   6.619  12.226   7.696 -0.2802 -0.7427  0.2038
  422MOL0     C55595   6.484  12.215   7.762 -0.8387 -0.7905  0.2180
  422MOL0     O55596   6.437  12.350   7.742 -0.0496 -0.0134  0.4086
  422MOL0     C55597   6.336  12.405   7.821  0.0619  0.0273  0.6784
  422MOL0     C55598   6.261  12.333   7.918  0.4531 -0.0373  0.2058
  422MOL0     C55599   6.149  12.398   7.973 -0.2244 -0.2572 -0.6306
  422MOL0     C55600   6.123  12.535   7.958 -0.0919 -0.2865  0.4662
  422MOL0     C55601   6.012  12.604   8.034 -0.9773  0.4207  0.9077
  422MOL0     O55602   5.930  12.529   8.103 -0.4560  0.6129  0.5686
  422MOL0     C55603   5.813  12.583   8.162  0.3970  0.6737 -0.0101
  422MOL0     C55604   5.796  12.564   8.300 -0.2474  0.0277  0.4482
  422MOL0     C55605   5.684  12.609   8.372  0.4620 -0.5663 -0.2896
  422MOL0     C55606   5.585  12.679   8.300 -0.0348 -0.8554  0.4818
  422MOL0     O55607   5.469  12.721   8.366 -0.1486 -0.2872  0.6995
  422MOL0     C55608   5.346  12.667   8.318  0.3909 -0.8248 -0.1205
  422MOL0     C55609   5.297  12.572   8.434  0.0577 -0.3340  0.4544
  422MOL0     C55610   5.142  12.543   8.443 -1.0152 -0.3348 -0.1716
  422MOL0     C55611   5.090  12.508   8.302  0.1494 -0.3770  0.3924
  422MOL0     C55612   4.937  12.494   8.284 -0.0187 -0.4528 -0.0137
  422MOL0     C55613   4.896  12.351   8.312  0.1361  0.5792 -0.7672
  422MOL0     C55614   4.749  12.332   8.311  0.5514  0.6667 -0.1184
  422MOL0     C55615   4.660  12.428   8.386 -0.5834 -0.2614 -0.5998
  422MOL0    Cl55616   4.497  12.362   8.392 -0.0917  0.1492 -0.3565
  422MOL0     C55617   5.599  12.705   8.162 -0.2613  0.0686  0.4461
  422MOL0     C55618   5.711  12.649   8.093 -0.2428 -0.2510 -0.0163
  422MOL0     O55619   6.006  12.730   8.027 -0.2328 -0.4780  0.0580
  422MOL0     C55620   6.216  12.612   7.891 -0.4156 -0.3494  0.8157
  422MOL0     C55621   6.310  12.545   7.809 -1.3011  0.0150  0.3550
  422MOL0     N55622   7.051  12.085   7.839  0.1383 -0.1005 -0.0464
  422MOL0     N55623   7.132  11.996   7.869 -0.0816 -0.6179  0.1897
  422MOL0     C55624   8.010  11.266   8.115 -0.6534 -0.1227  0.8473
  422MOL0     C55625   8.119  11.190   8.076  0.1303 -0.0791  0.3917
  422MOL0     C55626   8.476  11.023   7.883  0.3283 -0.4503  0.4198
  422MOL0     C55627   8.456  10.888   7.871  0.8974  0.0761  0.2352
  422MOL0     C55628   8.564  10.807   7.845 -0.8766  0.3582  1.1199
  422MOL0     C55629   8.696  10.857   7.826  0.2697  0.2329  0.2969
  422MOL0     O55630   8.800  10.773   7.806 -0.1329  0.2909 -1.0876
  422MOL0     C55631   8.803  10.647   7.884 -0.8786 -0.4419  0.3075
  422MOL0     C55632   8.942  10.603   7.915  0.3219  0.4156 -0.2379
  422MOL0     C55633   9.026  10.585   7.788  0.1728  0.1879 -0.1957
  422MOL0     C55634   9.176  10.588   7.816  0.0605  0.1217 -0.3846
  422MOL0     C55635   9.213  10.488   7.917 -0.7760 -0.7413 -0.2958
  422MOL0     C55636   9.220  10.408   7.999 -0.6758  0.5014  0.4027
  422MOL0     C55637   8.712  10.999   7.835 -0.7233  0.3668  0.0128
  422MOL0     C55638   8.604  11.083   7.863  0.3333  0.7838 -0.5227
  422MOL0     H55639   8.026  11.111   7.758 -4.4553  1.0664 -0.8261
  422MOL0     H55640   7.845  11.272   7.812  3.3655 -2.7207 -3.4307
  422MOL0     H55641   7.816  11.435   8.232  1.0310 -1.7502  1.0175
  422MOL0     H55642   7.754  11.269   8.211  0.1488  0.6509  1.1939
  422MOL0     H55643   7.617  11.544   8.166  0.1271  0.5015 -0.5887
  422MOL0     H55644   7.563  11.405   8.268  3.1149  0.4099  0.7868
  422MOL0     H55645   7.493  11.282   8.079 -0.8566 -0.3745 -1.0908
  422MOL0     H55646   7.556  11.397   7.969 -0.9202  1.4521 -0.4345
  422MOL0     H55647   7.327  11.460   8.171 -0.4494 -0.9337  0.6493
  422MOL0     H55648   7.393  11.586   8.088 -0.7553 -0.7411  3.0486
  422MOL0     H55649   7.167  11.459   7.990  0.1039  2.2089  1.6176
  422MOL0     H55650   7.281  11.353   7.925 -0.7461 -0.5470  1.0162
  422MOL0     H55651   7.292  11.501   7.749 -1.7989 -1.8370  0.4598
  422MOL0     H55652   7.384  11.597   7.861  0.5141 -1.5676 -0.1529
  422MOL0     H55653   7.076  11.634   7.844 -0.0752 -0.2355  2.7107
  422MOL0     H55654   7.182  11.715   7.955 -3.9299  2.7346 -0.6023
  422MOL0     H55655   7.196  11.752   7.663 -0.7970  0.0182  0.1360
  422MOL0     H55656   7.303  11.825   7.783  0.3006 -0.5291 -0.4240
  422MOL0     H55657   6.948  11.839   7.650  0.6772  1.1064 -1.5494
  422MOL0     H55658   6.857  12.117   7.576 -1.2696  3.1060 -0.3043
  422MOL0     H55659   6.882  12.225   7.695 -0.6366 -1.0047 -0.9273
  422MOL0     H55660   6.716  12.054   7.825  2.7800  2.0401  0.0226
  422MOL0     H55661   6.662  12.014   7.661  1.9374 -1.8611 -0.7660
  422MOL0     H55662   6.668  12.312   7.742 -2.2698  1.6796 -1.9511
  422MOL0     H55663   6.614  12.241   7.588  1.8786 -1.8323 -0.1122
  422MOL0     H55664   6.494  12.211   7.871 -1.6584  0.8078  0.3838
  422MOL0     H55665   6.425  12.135   7.716 -1.9358  0.0714  0.0757
  422MOL0     H55666   6.275  12.229   7.947  1.6846 -0.5146 -1.9304
  422MOL0     H55667   6.081  12.340   8.035  2.1051 -1.0636  1.3490
  422MOL0     H55668   5.868  12.499   8.348 -0.8024 -3.6695 -3.2298
  422MOL0     H55669   5.673  12.579   8.475 -3.7141  0.3106 -0.2884
  422MOL0     H55670   5.346  12.611   8.224 -1.4764 -0.3420 -0.4542
  422MOL0     H55671   5.278  12.753   8.317  1.0229 -0.3128 -0.3717
  422MOL0     H55672   5.335  12.606   8.530 -1.2319  0.6894  0.6406
  422MOL0     H55673   5.349  12.476   8.428 -0.2452 -0.4248 -2.5969
  422MOL0     H55674   5.100  12.635   8.483  1.2699  1.1112 -0.9037
  422MOL0     H55675   5.113  12.462   8.511 -3.9236  1.8109  1.3117
  422MOL0     H55676   5.119  12.586   8.230  0.7165 -2.5240 -1.8662
  422MOL0     H55677   5.133  12.412   8.272  3.0937  0.4021  1.7078
  422MOL0     H55678   4.905  12.522   8.184 -0.7880  0.7664  0.5584
  422MOL0     H55679   4.895  12.560   8.360 -2.6460  0.3405 -1.9966
  422MOL0     H55680   4.927  12.320   8.413 -1.6863  0.5102 -0.1880
  422MOL0     H55681   4.936  12.280   8.239 -0.4154  2.4153 -2.9350
  422MOL0     H55682   4.711  12.331   8.209 -1.0724 -1.3388  0.4208
  422MOL0     H55683   4.727  12.231   8.347  1.2348  0.3030 -0.7214
  422MOL0     H55684   4.651  12.522   8.329 -0.1478  1.3869  1.9168
  422MOL0     H55685   4.696  12.457   8.485 -1.2996  0.9646 -0.6742
  422MOL0     H55686   5.512  12.738   8.108  1.0869  1.3361 -1.0682
  422MOL0     H55687   5.717  12.659   7.985 -2.4594 -0.1396 -0.1620
  422MOL0     H55688   6.220  12.721   7.889 -0.6684 -0.3518 -0.9096
  422MOL0     H55689   6.381  12.596   7.746  0.1713  1.6939  3.1560
  422MOL0     H55690   8.005  11.320   8.209 -0.9212 -1.2418  1.4963
  422MOL0     H55691   8.207  11.187   8.139 -1.0973 -0.1395  2.1503
  422MOL0     H55692   8.358  10.845   7.890  0.8909 -1.6881 -3.0297
  422MOL0     H55693   8.545  10.700   7.842  2.9170 -0.4773  1.2751
  422MOL0     H55694   8.755  10.567   7.829 -0.2259  0.6365 -1.9591
  422MOL0     H55695   8.758  10.659   7.983 -1.9631 -1.9609  0.0145
  422MOL0     H55696   8.994  10.674   7.979  1.2464 -0.3103 -0.1501
  422MOL0     H55697   8.944  10.504   7.963 -0.5870  1.4551  2.0502
  422MOL0     H55698   9.005  10.667   7.719  1.2686 -0.4828 -1.3895
  422MOL0     H55699   9.016  10.488   7.737  0.3902 -0.4302  0.9110
  422MOL0     H55700   9.243  10.577   7.730 -0.9322  0.6571 -1.2639
  422MOL0     H55701   9.203  10.688   7.850  2.0343 -0.7136  0.6626
  422MOL0     H55702   9.218  10.343   8.085  0.0276  2.2892  1.8473
  422MOL0     H55703   8.806  11.046   7.811 -0.4681  0.9169  1.9383
  422MOL0     H55704   8.614  11.190   7.880 -0.1995  0.7845 -0.2013
  423MOL0     O55705   4.953   1.452  10.525 -0.4765  0.7564  0.4312
  423MOL0     C55706   5.067   1.439  10.480  0.1361 -0.7164  0.1050
  423MOL0     O55707   5.100   1.407  10.357 -0.2105  0.2529 -0.1607
  423MOL0     C55708   5.004   1.395  10.252  0.1235 -0.2889 -0.4205
  423MOL0     C55709   5.068   1.389  10.128  0.3823 -0.3387 -0.0970
  423MOL0     C55710   4.997   1.373  10.010  0.1238 -0.4310  0.2164
  423MOL0     C55711   4.856   1.362  10.025  0.2872  0.0090 -0.5138
  423MOL0     O55712   4.776   1.343   9.920 -0.3966  0.3545  0.2097
  423MOL0     C55713   4.791   1.436   9.815  0.4032 -0.8030  0.3765
  423MOL0     C55714   4.745   1.580   9.847  0.2814  0.4721  1.0200
  423MOL0     C55715   4.724   1.655   9.713  0.7835 -0.4036  0.6231
  423MOL0     C55716   4.599   1.622   9.631 -0.8300  0.0271 -0.4482
  423MOL0     C55717   4.457   1.650   9.699 -0.1423 -0.9309  0.2840
  423MOL0     C55718   4.350   1.591   9.609  0.4660  0.9140  1.2950
  423MOL0     C55719   4.205   1.598   9.643  0.3500 -0.5079 -0.6301
  423MOL0     C55720   4.123   1.514   9.552  0.3381  0.1888 -0.6290
  423MOL0     N55721   3.981   1.549   9.544 -0.0724  0.0352 -0.6018
  423MOL0     C55722   3.884   1.563   9.646  0.0277 -0.9194 -0.6380
  423MOL0     C55723   3.770   1.597   9.575  1.0681 -0.9294 -0.3213
  423MOL0     C55724   3.638   1.648   9.626  0.0558 -0.0330 -0.3176
  423MOL0     C55725   3.540   1.695   9.518  0.2160  0.7016 -0.3519
  423MOL0     C55726   3.403   1.734   9.564 -0.3280 -0.4743 -0.2103
  423MOL0     C55727   3.315   1.744   9.446  0.5845 -0.6732 -0.1893
  423MOL0     O55728   3.360   1.845   9.354  0.8682  0.4011  0.0686
  423MOL0     C55729   3.282   1.852   9.241 -0.5345 -0.1639 -0.1253
  423MOL0     C55730   3.317   1.961   9.163  0.4964 -0.1560 -0.2728
  423MOL0     C55731   3.242   1.994   9.053  0.4715 -0.0471  0.1173
  423MOL0     C55732   3.130   1.913   9.007  0.3435  0.5340 -0.3639
  423MOL0     C55733   3.041   1.956   8.899  0.1352 -0.8259  0.0670
  423MOL0     O55734   3.041   1.878   8.791  0.0392  0.1254  0.1618
  423MOL0     C55735   2.995   1.928   8.674  0.1663  0.2245 -0.4614
  423MOL0     C55736   2.863   1.925   8.641 -0.0806 -0.0954 -0.1761
  423MOL0     C55737   2.824   1.969   8.519  0.2352  1.1375 -0.0150
  423MOL0     C55738   2.914   2.017   8.425 -0.7933 -1.0153 -0.1060
  423MOL0     O55739   2.890   2.059   8.292 -0.2302 -0.2714 -0.3095
  423MOL0     C55740   2.777   2.146   8.279 -0.8573  0.2407 -0.0667
  423MOL0     C55741   2.804   2.239   8.160  0.4804  0.0939 -0.0153
  423MOL0     C55742   2.830   2.180   8.024  0.1083 -0.4251  1.1152
  423MOL0     C55743   2.709   2.096   7.972  0.8473 -0.4749 -0.0918
  423MOL0     C55744   2.575   2.162   7.951  0.0193 -0.5092 -0.4045
  423MOL0     C55745   2.460   2.092   7.872  0.1598  0.2203 -0.4541
  423MOL0     C55746   2.360   2.199   7.828  0.4265  0.2230  0.1562
  423MOL0     C55747   2.266   2.164   7.708  0.4233 -0.6114 -0.4321
  423MOL0    Cl55748   2.167   2.305   7.660 -0.1305 -0.4605 -0.0346
  423MOL0     C55749   3.052   2.024   8.464  0.5319  0.0963 -0.7464
  423MOL0     C55750   3.094   1.972   8.587  0.6909  0.0642 -0.0792
  423MOL0     O55751   2.993   2.072   8.908  0.2254  0.1961  0.3610
  423MOL0     C55752   3.121   1.785   9.066 -0.2684  0.2995  0.6087
  423MOL0     C55753   3.193   1.751   9.186  0.3150 -0.1683 -1.0398
  423MOL0     N55754   3.800   1.591   9.438  0.6628  0.0283  1.2834
  423MOL0     N55755   3.920   1.561   9.422  0.5636  0.7553 -0.6801
  423MOL0     C55756   4.785   1.354  10.146 -0.3281  0.9231  0.5842
  423MOL0     C55757   4.863   1.370  10.263 -0.1882 -0.4724  0.3633
  423MOL0     C55758   5.181   1.482  10.570 -0.8953 -0.3910  0.3329
  423MOL0     C55759   5.310   1.459  10.524 -0.0116  1.3950  0.8348
  423MOL0     C55760   5.413   1.475  10.608  0.1494  0.5245  0.3956
  423MOL0     C55761   5.398   1.523  10.738  0.7890 -0.5999 -0.0586
  423MOL0     O55762   5.494   1.556  10.834  0.0295 -0.4717  0.0301
  423MOL0     C55763   5.627   1.560  10.783 -0.4450 -0.2375 -0.0337
  423MOL0     C55764   5.712   1.623  10.899 -0.1459 -0.0007 -1.0578
  423MOL0     C55765   5.849   1.652  10.840  1.1102 -0.2660 -0.1918
  423MOL0     C55766   5.916   1.760  10.923 -1.0135  0.0232  0.0618
  423MOL0     C55767   6.052   1.782  10.879  0.0989 -0.3654 -1.0711
  423MOL0     C55768   6.171   1.796  10.854  0.4807  0.3782  0.1560
  423MOL0     C55769   5.268   1.553  10.779  0.0684  0.5646  0.1132
  423MOL0     C55770   5.161   1.527  10.695  0.2049 -0.4067  0.1651
  423MOL0     H55771   5.172   1.421  10.126 -0.3116  2.2927  0.9899
  423MOL0     H55772   5.046   1.389   9.914  3.2244 -0.0389  1.7398
  423MOL0     H55773   4.733   1.413   9.725  0.2480  4.8065 -1.3430
  423MOL0     H55774   4.894   1.435   9.777  0.3079  1.4728 -0.1047
  423MOL0     H55775   4.823   1.637   9.898  1.1988 -0.1838  0.3686
  423MOL0     H55776   4.657   1.575   9.912 -0.1659 -1.5316  0.3080
  423MOL0     H55777   4.805   1.633   9.643  0.1681 -4.7160  0.9924
  423MOL0     H55778   4.733   1.764   9.725  2.4619 -0.2006 -1.7803
  423MOL0     H55779   4.604   1.686   9.542  3.6850  2.4652  1.2103
  423MOL0     H55780   4.618   1.517   9.607  2.0967 -0.1988  2.1604
  423MOL0     H55781   4.437   1.757   9.712 -1.4853 -0.7350 -2.6567
  423MOL0     H55782   4.443   1.599   9.795 -1.9581 -0.8072  0.1264
  423MOL0     H55783   4.379   1.486   9.605 -0.7020  0.6203 -1.2960
  423MOL0     H55784   4.355   1.632   9.508 -0.9623  1.5516  1.4608
  423MOL0     H55785   4.191   1.548   9.739 -2.2664  2.0458  0.4805
  423MOL0     H55786   4.176   1.703   9.640  2.8857  0.2275 -1.3289
  423MOL0     H55787   4.140   1.412   9.589 -2.0097 -0.0787 -0.1544
  423MOL0     H55788   4.159   1.508   9.449  0.4037 -3.1850 -0.5407
  423MOL0     H55789   3.903   1.558   9.753 -3.6235 -0.7880  0.1472
  423MOL0     H55790   3.653   1.735   9.691 -1.3564  1.1386 -1.4858
  423MOL0     H55791   3.599   1.564   9.684 -1.3103 -0.3831 -1.6834
  423MOL0     H55792   3.530   1.615   9.443  2.2846 -1.8345  1.8801
  423MOL0     H55793   3.584   1.783   9.471 -1.5232  1.4185 -0.7157
  423MOL0     H55794   3.351   1.667   9.634 -0.6304 -2.6181 -2.3407
  423MOL0     H55795   3.413   1.832   9.611 -0.7810  0.9280 -2.8533
  423MOL0     H55796   3.211   1.760   9.474  1.0181 -1.3074  1.9800
  423MOL0     H55797   3.313   1.645   9.399 -0.5217 -0.6893 -0.1237
  423MOL0     H55798   3.386   2.035   9.201 -0.1836  0.7440 -0.7488
  423MOL0     H55799   3.264   2.092   9.013  2.2969  0.7923  2.8351
  423MOL0     H55800   2.788   1.890   8.710 -2.3272  1.7372 -1.5330
  423MOL0     H55801   2.717   1.974   8.500  0.5713  1.5436 -2.0188
  423MOL0     H55802   2.772   2.205   8.371 -0.0040  1.9087 -1.0572
  423MOL0     H55803   2.685   2.088   8.266  0.0342 -0.8421 -2.0697
  423MOL0     H55804   2.897   2.293   8.177  0.3333  0.2174  0.3968
  423MOL0     H55805   2.723   2.313   8.158 -1.8238 -2.1564  2.3209
  423MOL0     H55806   2.913   2.109   8.023  1.5855  1.2250 -0.3433
  423MOL0     H55807   2.865   2.267   7.968  1.0282 -1.8065 -0.5525
  423MOL0     H55808   2.732   2.045   7.879  0.4264  1.0923 -1.0933
  423MOL0     H55809   2.700   2.018   8.048 -1.0696 -0.2162 -0.0178
  423MOL0     H55810   2.591   2.250   7.888  2.2966  0.3849  1.2861
  423MOL0     H55811   2.544   2.198   8.050  0.4663 -2.6232  0.5597
  423MOL0     H55812   2.414   2.017   7.936  0.3272  1.2064  0.8572
  423MOL0     H55813   2.501   2.059   7.776 -3.3562 -0.3880 -1.9124
  423MOL0     H55814   2.312   2.230   7.921  2.6353  1.3029  1.0295
  423MOL0     H55815   2.420   2.286   7.797  0.2832  1.0486  2.0692
  423MOL0     H55816   2.198   2.084   7.737 -0.5828  1.0391  2.1427
  423MOL0     H55817   2.323   2.130   7.620  0.4899 -3.6732  0.6811
  423MOL0     H55818   3.116   2.080   8.397 -1.3591  1.3865 -1.5764
  423MOL0     H55819   3.197   1.977   8.621  0.6352 -2.2000  0.6054
  423MOL0     H55820   3.043   1.721   9.027 -0.9977  0.1479  2.2283
  423MOL0     H55821   3.171   1.658   9.236  0.6513  2.2616  4.3381
  423MOL0     H55822   4.681   1.324  10.142 -0.3154  0.8655  0.6911
  423MOL0     H55823   4.817   1.365  10.362 -2.1535 -0.1240 -0.4894
  423MOL0     H55824   5.338   1.429  10.424  1.4577  2.1505  0.9836
  423MOL0     H55825   5.506   1.446  10.559 -0.8448 -0.3200 -1.0419
  423MOL0     H55826   5.632   1.626  10.696 -0.8942  2.3208  1.7715
  423MOL0     H55827   5.663   1.459  10.757 -2.7531 -0.9398 -0.6804
  423MOL0     H55828   5.666   1.714  10.937  0.0100 -0.2892 -0.1602
  423MOL0     H55829   5.729   1.549  10.978 -1.0135 -1.0645 -1.8401
  423MOL0     H55830   5.842   1.670  10.732  2.9065 -0.9148 -0.4417
  423MOL0     H55831   5.910   1.562  10.844  0.4745 -0.6489  1.4960
  423MOL0     H55832   5.857   1.852  10.909  0.5220  0.9934 -0.3133
  423MOL0     H55833   5.910   1.729  11.028 -0.5857 -0.2823 -0.0022
  423MOL0     H55834   6.277   1.798  10.834  0.4984 -0.2310  0.1741
  423MOL0     H55835   5.264   1.579  10.884 -1.2914 -1.6528  0.6719
  423MOL0     H55836   5.056   1.526  10.720 -0.0634  1.3616 -0.8101
  424MOL0     O55837   8.809   6.933   8.762  0.1891 -0.3140  0.2562
  424MOL0     C55838   8.756   7.031   8.717  0.4624 -0.3648  0.3297
  424MOL0     O55839   8.647   7.098   8.773 -0.5016 -0.4241 -0.3458
  424MOL0     C55840   8.583   7.049   8.886  0.1597 -0.3686 -0.3331
  424MOL0     C55841   8.557   6.914   8.916  0.4215  0.1050  0.9445
  424MOL0     C55842   8.494   6.886   9.032  0.4630  0.2455 -0.7509
  424MOL0     C55843   8.467   6.986   9.128 -0.0848  0.3527 -0.2497
  424MOL0     O55844   8.402   6.927   9.237  0.6367  0.0666  0.2623
  424MOL0     C55845   8.351   7.013   9.336  0.2926  0.7000 -0.3272
  424MOL0     C55846   8.249   6.934   9.422 -1.3218 -0.6405  0.7321
  424MOL0     C55847   8.120   6.903   9.345  0.1232  0.1630  0.2670
  424MOL0     C55848   8.024   6.822   9.428  0.5195  0.3093 -0.4190
  424MOL0     C55849   7.986   6.869   9.574  0.1755 -0.5332  0.6408
  424MOL0     C55850   7.878   6.779   9.631  0.7289 -0.3103 -0.3397
  424MOL0     C55851   7.920   6.653   9.697 -0.8072  0.0107  0.5052
  424MOL0     C55852   7.991   6.669   9.838 -0.2945 -0.5830 -0.1115
  424MOL0     N55853   7.915   6.757   9.925  0.5354 -0.7510  0.2495
  424MOL0     C55854   7.814   6.723  10.012  0.4338 -1.3436  0.2277
  424MOL0     C55855   7.773   6.838  10.066  0.0671 -0.0339 -0.0307
  424MOL0     C55856   7.668   6.846  10.172  0.1022 -0.5672 -0.1189
  424MOL0     C55857   7.517   6.865  10.125  0.4206  0.2814 -0.5280
  424MOL0     C55858   7.418   6.808  10.228 -0.5692  0.1593 -0.6068
  424MOL0     C55859   7.281   6.835  10.186  0.7332  0.2541  0.7447
  424MOL0     O55860   7.195   6.764  10.273  0.3220  0.2848  0.4761
  424MOL0     C55861   7.064   6.782  10.251  0.6093 -0.2275  0.4932
  424MOL0     C55862   7.006   6.879  10.160 -0.4589  0.4125  0.3747
  424MOL0     C55863   6.876   6.889  10.138 -0.0162 -1.1514 -1.2551
  424MOL0     C55864   6.778   6.808  10.202 -0.2508  0.2572 -0.4251
  424MOL0     C55865   6.636   6.810  10.178  0.3175 -0.9290  0.2660
  424MOL0     O55866   6.591   6.910  10.093 -0.1388  0.1694 -0.2544
  424MOL0     C55867   6.453   6.910  10.062 -0.0551 -0.0249  0.1571
  424MOL0     C55868   6.421   6.918   9.927  0.4127 -0.4121 -0.2725
  424MOL0     C55869   6.294   6.947   9.884 -0.6442 -0.3811  0.8674
  424MOL0     C55870   6.195   6.968   9.979 -0.1735  1.0671  0.0574
  424MOL0     O55871   6.059   7.003   9.947 -0.5498  0.1577  0.5170
  424MOL0     C55872   6.032   7.019   9.805 -0.0752 -0.3616 -0.3294
  424MOL0     C55873   5.890   7.050   9.788 -0.3995 -0.1847  0.3630
  424MOL0     C55874   5.805   6.926   9.756 -0.0868  0.4078 -0.5813
  424MOL0     C55875   5.656   6.962   9.773  0.1037  0.0155  0.4924
  424MOL0     C55876   5.563   6.850   9.771  0.5511 -0.3140 -0.9293
  424MOL0     C55877   5.419   6.904   9.808  0.1780 -0.1938  0.3274
  424MOL0     C55878   5.357   6.958   9.670  0.3453  0.7637  0.8530
  424MOL0     C55879   5.203   6.964   9.667 -0.3533 -0.0111 -0.6074
  424MOL0    Cl55880   5.114   6.805   9.642  0.1364  0.0338 -0.0510
  424MOL0     C55881   6.225   6.944  10.113  0.3491  0.2723 -0.4308
  424MOL0     C55882   6.355   6.920  10.161  0.6876  0.1897  0.9968
  424MOL0     O55883   6.560   6.737  10.239 -1.0344 -0.3881  0.4489
  424MOL0     C55884   6.831   6.710  10.284 -0.4734 -0.2518 -0.1941
  424MOL0     C55885   6.969   6.701  10.316 -0.4114 -0.2062 -0.1764
  424MOL0     N55886   7.847   6.942  10.015  0.3750 -0.4372  0.1053
  424MOL0     N55887   7.932   6.894   9.928 -0.2990 -0.2781  0.0054
  424MOL0     C55888   8.497   7.119   9.109 -0.5737  0.6572 -0.1470
  424MOL0     C55889   8.556   7.150   8.981 -0.1189  0.2512 -0.1192
  424MOL0     C55890   8.810   7.093   8.594 -0.1817  0.2532  0.6581
  424MOL0     C55891   8.736   7.189   8.529 -0.0148  0.4705  0.4273
  424MOL0     C55892   8.790   7.264   8.421 -0.2763 -0.4240 -0.5999
  424MOL0     C55893   8.924   7.251   8.382  0.3792 -0.4141  0.2843
  424MOL0     O55894   8.968   7.324   8.270  1.0230  0.7850  0.1111
  424MOL0     C55895   9.095   7.305   8.205  0.5029 -0.1820 -0.1938
  424MOL0     C55896   9.099   7.378   8.074 -0.8927  0.2259  0.1262
  424MOL0     C55897   9.133   7.525   8.089  0.5451 -0.1720  0.2107
  424MOL0     C55898   9.028   7.605   8.175 -0.0444  0.3258 -0.3277
  424MOL0     C55899   9.067   7.740   8.208 -0.4360  1.0530 -0.1655
  424MOL0     C55900   9.101   7.852   8.220  0.3446 -0.1044 -0.0141
  424MOL0     C55901   8.996   7.153   8.446  0.3178 -0.1831  0.4778
  424MOL0     C55902   8.945   7.074   8.549 -0.8861 -0.5993  0.9298
  424MOL0     H55903   8.596   6.842   8.844  0.8776  0.5780  0.7103
  424MOL0     H55904   8.471   6.781   9.048 -2.1730  1.1059  2.0667
  424MOL0     H55905   8.304   7.097   9.284  0.5048  0.5011 -0.8463
  424MOL0     H55906   8.431   7.055   9.398 -2.4017  2.7349  1.9693
  424MOL0     H55907   8.218   6.991   9.510 -0.5219  1.0801 -0.0681
  424MOL0     H55908   8.300   6.841   9.450 -1.3725 -1.4142 -1.5465
  424MOL0     H55909   8.132   6.858   9.246 -1.9286  1.3625 -0.6039
  424MOL0     H55910   8.081   7.003   9.324 -1.7774 -0.3912  0.9313
  424MOL0     H55911   7.934   6.815   9.367 -0.6290 -3.1708  1.3600
  424MOL0     H55912   8.065   6.721   9.438  2.5558  1.2238  1.1851
  424MOL0     H55913   7.939   6.968   9.580 -1.6163 -1.4226  4.0175
  424MOL0     H55914   8.072   6.876   9.642  0.7305 -0.7809 -0.0280
  424MOL0     H55915   7.806   6.765   9.550 -2.3682  0.6809  2.0640
  424MOL0     H55916   7.820   6.827   9.710  1.1979  2.1729 -1.4038
  424MOL0     H55917   7.828   6.595   9.709 -0.9892 -0.1082 -1.1446
  424MOL0     H55918   7.983   6.599   9.625 -1.2312 -0.9831  0.8614
  424MOL0     H55919   8.093   6.707   9.825 -1.0728  0.8450 -3.0161
  424MOL0     H55920   8.004   6.568   9.878 -2.0455 -1.7930 -2.3211
  424MOL0     H55921   7.778   6.623  10.029  1.3449 -2.6264 -4.1614
  424MOL0     H55922   7.699   6.932  10.231  0.5322 -1.4941  1.0542
  424MOL0     H55923   7.668   6.760  10.240 -3.2240  0.1300  0.9597
  424MOL0     H55924   7.506   6.801  10.037 -1.8288  3.6991 -3.0057
  424MOL0     H55925   7.482   6.964  10.095 -0.2673 -0.8890 -3.9956
  424MOL0     H55926   7.436   6.702  10.249  0.0912  0.5642  1.0385
  424MOL0     H55927   7.434   6.867  10.319 -0.8611 -0.7627  0.0545
  424MOL0     H55928   7.267   6.799  10.083 -1.6867  0.2155  1.0164
  424MOL0     H55929   7.259   6.943  10.192 -0.3771 -0.0238  2.1458
  424MOL0     H55930   7.069   6.952  10.109  0.1965  2.3547  3.6622
  424MOL0     H55931   6.834   6.971  10.078  1.8400  1.8123  1.1980
  424MOL0     H55932   6.500   6.907   9.852  2.2244  1.5602  1.1929
  424MOL0     H55933   6.282   6.966   9.778 -1.6112 -0.7408  0.9023
  424MOL0     H55934   6.051   6.926   9.751  1.1816 -1.1583  1.4145
  424MOL0     H55935   6.086   7.104   9.761 -0.7303 -0.2027 -0.8402
  424MOL0     H55936   5.881   7.105   9.694  3.0468  2.2810  1.3015
  424MOL0     H55937   5.852   7.101   9.876 -1.1185 -1.5622  0.8827
  424MOL0     H55938   5.836   6.839   9.816 -1.5019  0.1939 -0.1211
  424MOL0     H55939   5.817   6.890   9.653 -1.7584 -1.7288 -0.1012
  424MOL0     H55940   5.630   7.018   9.864 -3.0925  1.9167 -1.4157
  424MOL0     H55941   5.634   7.028   9.689 -1.5062 -1.0259  0.0774
  424MOL0     H55942   5.588   6.777   9.849 -0.7059  1.2545  1.0585
  424MOL0     H55943   5.561   6.800   9.674  1.3417 -0.6593 -0.7728
  424MOL0     H55944   5.410   6.973   9.892 -1.8644 -0.8293  0.6731
  424MOL0     H55945   5.365   6.814   9.838  1.7258 -1.2063  0.2107
  424MOL0     H55946   5.396   7.058   9.647  1.4757  0.3704  1.0386
  424MOL0     H55947   5.387   6.896   9.585  1.9005  2.1226  0.3492
  424MOL0     H55948   5.166   7.039   9.597 -0.0690  1.1331  0.4390
  424MOL0     H55949   5.173   6.989   9.769  2.5935 -0.7690  0.5623
  424MOL0     H55950   6.156   6.966  10.194  1.8291 -1.3329  1.3779
  424MOL0     H55951   6.376   6.912  10.267 -1.8169  1.2116  1.6406
  424MOL0     H55952   6.759   6.636  10.318 -1.3297 -0.0865 -1.5695
  424MOL0     H55953   7.012   6.625  10.381  0.9375 -1.2150 -2.1385
  424MOL0     H55954   8.487   7.196   9.185 -2.7011 -0.9387  1.3143
  424MOL0     H55955   8.594   7.247   8.949  1.1148 -0.7010 -1.7046
  424MOL0     H55956   8.637   7.225   8.555  0.3207  1.5049  0.3211
  424MOL0     H55957   8.735   7.349   8.382  0.6954  1.1620  1.2624
  424MOL0     H55958   9.105   7.202   8.169  2.2494  0.9904 -3.4479
  424MOL0     H55959   9.169   7.336   8.278 -1.4188  0.2759  1.6416
  424MOL0     H55960   9.178   7.338   8.010  0.5352 -0.9044  2.4753
  424MOL0     H55961   9.009   7.362   8.015  1.4678 -0.3833 -3.6347
  424MOL0     H55962   9.157   7.568   7.991 -0.0122  0.3757  0.3094
  424MOL0     H55963   9.221   7.529   8.153  0.1326 -1.4375  0.8854
  424MOL0     H55964   8.927   7.601   8.134 -0.3727  3.3416 -0.0112
  424MOL0     H55965   9.027   7.559   8.274 -0.3045 -4.2725 -2.2156
  424MOL0     H55966   9.151   7.945   8.205  1.9707 -0.6941  1.4418
  424MOL0     H55967   9.101   7.144   8.421  0.8692 -0.6438  2.7522
  424MOL0     H55968   8.997   6.991   8.595 -0.1491 -1.2808 -1.0138
  425MOL0     O55969   1.309   1.919   8.448  0.3852 -0.0232 -0.1190
  425MOL0     C55970   1.294   1.903   8.569  0.1866 -0.4363  0.6145
  425MOL0     O55971   1.185   1.840   8.633 -0.1360 -0.5212 -0.0872
  425MOL0     C55972   1.110   1.753   8.551 -0.3840 -0.5905 -1.0918
  425MOL0     C55973   1.032   1.806   8.451 -0.2727  0.3608 -0.2697
  425MOL0     C55974   0.940   1.727   8.384 -0.2143  0.3919  0.1621
  425MOL0     C55975   0.933   1.591   8.413 -0.3685  0.0378  0.1173
  425MOL0     O55976   0.834   1.516   8.347 -0.6933  0.3628  0.0104
  425MOL0     C55977   0.798   1.381   8.369  0.0171 -0.0665  1.0537
  425MOL0     C55978   0.705   1.313   8.262  0.3079  0.5568 -0.7378
  425MOL0     C55979   0.561   1.359   8.248  0.3108  0.3719 -0.9600
  425MOL0     C55980   0.473   1.259   8.166 -0.1038 -0.5512  0.0067
  425MOL0     C55981   0.497   1.277   8.015  0.2826 -0.1835  0.5525
  425MOL0     C55982   0.396   1.195   7.937  0.8318  0.2785 -0.2257
  425MOL0     C55983   0.371   1.239   7.792 -0.0144  0.2778 -0.4355
  425MOL0     C55984   0.505   1.232   7.726  0.0194  0.2491 -0.7358
  425MOL0     N55985   0.497   1.193   7.586 -0.9279  0.1692  1.1638
  425MOL0     C55986   0.486   1.067   7.550  0.6211 -0.0382  0.0188
  425MOL0     C55987   0.468   1.068   7.412  0.3517  0.1139 -0.0963
  425MOL0     C55988   0.425   0.955   7.326  0.5824 -0.8359 -0.7887
  425MOL0     C55989   0.291   0.890   7.375  0.2350 -0.1147 -0.9315
  425MOL0     C55990   0.182   0.992   7.403  0.0112 -0.6308  0.1176
  425MOL0     C55991   0.047   0.922   7.418 -0.5906 -0.3390 -0.0777
  425MOL0     O55992   0.045   0.804   7.489 -0.3920 -0.4108  0.2095
  425MOL0     C55993  -0.063   0.723   7.494  0.2352  0.2217  0.2030
  425MOL0     C55994  -0.057   0.595   7.547 -0.1503 -0.0345 -0.6747
  425MOL0     C55995  -0.163   0.513   7.556  1.0294  0.0091 -0.5788
  425MOL0     C55996  -0.290   0.556   7.506  1.0005  0.4486 -0.0785
  425MOL0     C55997  -0.411   0.475   7.524  0.3463  0.1834  0.4051
  425MOL0     O55998  -0.380   0.347   7.565 -0.5475 -0.6010 -0.1098
  425MOL0     C55999  -0.477   0.266   7.603 -0.2129 -0.2421 -0.4960
  425MOL0     C56000  -0.485   0.135   7.552  0.9857 -0.5236  0.1987
  425MOL0     C56001  -0.590   0.045   7.593 -0.0790 -1.3567  0.7080
  425MOL0     C56002  -0.673   0.084   7.702 -0.3857  0.8152  0.2915
  425MOL0     O56003  -0.774   0.002   7.757  0.2317 -0.0584  0.1303
  425MOL0     C56004  -0.852  -0.086   7.663 -0.1785 -0.5249  0.1716
  425MOL0     C56005  -0.995  -0.112   7.720 -0.6399 -0.1626  0.1456
  425MOL0     C56006  -1.086  -0.187   7.615 -0.0794  0.0190  0.4074
  425MOL0     C56007  -1.230  -0.192   7.662  0.5201  0.2008 -0.0879
  425MOL0     C56008  -1.311  -0.240   7.527  0.1962 -0.4699  0.7257
  425MOL0     C56009  -1.460  -0.248   7.545  0.7101 -1.4092 -0.4408
  425MOL0     C56010  -1.511  -0.362   7.635  0.7141  0.8564 -0.7706
  425MOL0     C56011  -1.656  -0.391   7.627  0.2591 -0.4571  0.0674
  425MOL0    Cl56012  -1.705  -0.533   7.726 -0.1995 -0.4796  0.1104
  425MOL0     C56013  -0.654   0.210   7.762 -0.3204 -0.2687 -0.3045
  425MOL0     C56014  -0.558   0.300   7.715 -0.2544 -1.1609 -0.3982
  425MOL0     O56015  -0.518   0.521   7.489  0.5030  0.3858 -0.5345
  425MOL0     C56016  -0.299   0.682   7.446 -0.1409 -0.1516 -1.3637
  425MOL0     C56017  -0.186   0.761   7.442  0.2915  0.4457 -0.9686
  425MOL0     N56018   0.472   1.193   7.365 -0.0816 -0.4464  0.6365
  425MOL0     N56019   0.486   1.268   7.470 -1.0350 -0.1081  0.2705
  425MOL0     C56020   1.014   1.531   8.513  0.4733 -0.5155 -0.0716
  425MOL0     C56021   1.099   1.612   8.586 -0.2406 -0.1430  0.2586
  425MOL0     C56022   1.418   1.930   8.655  1.1089  0.3607 -0.1485
  425MOL0     C56023   1.405   1.929   8.795 -0.4625  0.5851 -0.4253
  425MOL0     C56024   1.523   1.924   8.878  0.5006 -0.0994  0.2778
  425MOL0     C56025   1.648   1.942   8.817  0.3533  0.1766  0.2080
  425MOL0     O56026   1.760   1.944   8.897  0.5332  0.6894 -0.2071
  425MOL0     C56027   1.883   1.877   8.869 -0.2164  0.0750  0.4972
  425MOL0     C56028   2.006   1.941   8.929 -1.4163  0.7345  0.2859
  425MOL0     C56029   2.006   1.928   9.082  0.5275 -0.4703  0.7130
  425MOL0     C56030   2.090   2.025   9.169 -0.0881 -0.0796 -0.5162
  425MOL0     C56031   2.079   1.993   9.314 -0.6051 -0.7739  0.5442
  425MOL0     C56032   2.090   1.971   9.434  0.0439 -0.8252  0.0072
  425MOL0     C56033   1.664   1.946   8.676  0.2013  0.6203  0.0966
  425MOL0     C56034   1.549   1.948   8.604  0.1990 -0.2889  1.0607
  425MOL0     H56035   1.040   1.910   8.423 -1.3698  0.2237 -1.1130
  425MOL0     H56036   0.870   1.767   8.311 -0.8188  0.8065  0.9526
  425MOL0     H56037   0.740   1.390   8.461  0.6743  3.6470  1.2355
  425MOL0     H56038   0.893   1.326   8.376  0.6252  1.0852  2.3234
  425MOL0     H56039   0.705   1.206   8.288  0.5110  0.7692  0.1559
  425MOL0     H56040   0.756   1.311   8.165  2.3572 -0.1214  0.2930
  425MOL0     H56041   0.556   1.460   8.204  1.4681  1.2594  0.8203
  425MOL0     H56042   0.520   1.372   8.349  0.8411 -0.1931 -0.6693
  425MOL0     H56043   0.490   1.151   8.177 -1.3703 -1.4713 -4.8596
  425MOL0     H56044   0.370   1.276   8.199  0.6323  1.0899  1.6621
  425MOL0     H56045   0.593   1.230   7.991  0.5516  0.3433  0.5928
  425MOL0     H56046   0.505   1.381   7.980  1.6171 -0.7479 -0.9607
  425MOL0     H56047   0.295   1.194   7.979  0.4717 -3.0991 -0.8719
  425MOL0     H56048   0.426   1.091   7.952 -3.2427 -0.9722  0.5507
  425MOL0     H56049   0.301   1.171   7.744  0.7468 -0.9403  0.1383
  425MOL0     H56050   0.326   1.339   7.787  1.5809  1.1545  1.2919
  425MOL0     H56051   0.573   1.165   7.779  1.1249  0.5879 -1.6906
  425MOL0     H56052   0.550   1.330   7.741 -1.2429  0.6307  0.9357
  425MOL0     H56053   0.484   0.981   7.617  2.3012  0.0803  0.2593
  425MOL0     H56054   0.490   0.868   7.309  1.4347 -0.2025 -0.8657
  425MOL0     H56055   0.422   0.996   7.225  0.3473 -1.2526 -0.9513
  425MOL0     H56056   0.320   0.845   7.471 -0.0320 -1.0868 -1.3035
  425MOL0     H56057   0.254   0.814   7.307  0.5900  0.9256 -2.3363
  425MOL0     H56058   0.207   1.049   7.493  0.6006 -0.5737 -0.0809
  425MOL0     H56059   0.178   1.065   7.322 -1.7108  1.0223  1.5895
  425MOL0     H56060   0.004   0.909   7.318  0.8648 -1.0100 -0.6316
  425MOL0     H56061  -0.011   0.996   7.475  1.0888  0.8178  0.2054
  425MOL0     H56062   0.039   0.557   7.582 -0.6808  0.2554  1.2100
  425MOL0     H56063  -0.142   0.424   7.614  0.5048 -0.4919 -1.1410
  425MOL0     H56064  -0.424   0.099   7.469 -2.3585 -1.2011 -2.1697
  425MOL0     H56065  -0.595  -0.051   7.543  1.4268 -0.7473 -0.7018
  425MOL0     H56066  -0.799  -0.182   7.666  0.8763  0.0694  1.6669
  425MOL0     H56067  -0.862  -0.043   7.563  0.9387  2.7402  1.3422
  425MOL0     H56068  -1.037  -0.017   7.754 -0.0082 -0.0213  0.5632
  425MOL0     H56069  -0.978  -0.173   7.810  0.3593 -0.0301  0.0588
  425MOL0     H56070  -1.045  -0.287   7.599  1.1955 -0.1436  3.7781
  425MOL0     H56071  -1.083  -0.124   7.525 -1.2815 -1.1870 -0.5018
  425MOL0     H56072  -1.238  -0.268   7.740  4.7529 -0.7243 -0.3039
  425MOL0     H56073  -1.275  -0.098   7.696 -2.9155 -1.5000  0.5160
  425MOL0     H56074  -1.274  -0.336   7.490  2.0168  0.8234 -0.9984
  425MOL0     H56075  -1.288  -0.171   7.446 -0.6786 -1.2067 -0.1750
  425MOL0     H56076  -1.490  -0.256   7.440  1.7782 -0.9780 -0.7885
  425MOL0     H56077  -1.477  -0.148   7.586 -1.1403 -1.8218 -0.1100
  425MOL0     H56078  -1.478  -0.456   7.590 -1.9886  0.5096 -2.2448
  425MOL0     H56079  -1.469  -0.356   7.736  1.5655  0.6858 -1.1108
  425MOL0     H56080  -1.688  -0.412   7.525 -0.5682  1.2548 -0.0528
  425MOL0     H56081  -1.710  -0.302   7.661  0.6451  0.5178 -1.7352
  425MOL0     H56082  -0.710   0.224   7.855 -0.8006  1.3287 -0.7885
  425MOL0     H56083  -0.559   0.397   7.763 -2.1247 -1.7910  0.9458
  425MOL0     H56084  -0.399   0.706   7.414 -1.0863 -0.8570  0.8604
  425MOL0     H56085  -0.205   0.860   7.404  1.9019  2.2937  2.5609
  425MOL0     H56086   1.011   1.424   8.532  0.8252 -0.3259  1.1321
  425MOL0     H56087   1.154   1.576   8.672 -1.0034  0.4251  0.9917
  425MOL0     H56088   1.304   1.930   8.833 -1.9344  0.8119 -3.9068
  425MOL0     H56089   1.516   1.912   8.985 -1.5473  1.0187  0.3375
  425MOL0     H56090   1.901   1.878   8.761 -0.8268 -4.4802  0.1694
  425MOL0     H56091   1.869   1.776   8.907  0.6673 -0.8084 -1.3747
  425MOL0     H56092   2.091   1.892   8.880  0.6847  4.0728  0.2915
  425MOL0     H56093   2.013   2.044   8.894 -0.1416  0.2747 -0.8850
  425MOL0     H56094   2.048   1.829   9.105  1.0194 -0.6360 -0.7476
  425MOL0     H56095   1.904   1.925   9.121  1.1875  1.6941  2.8110
  425MOL0     H56096   2.196   2.016   9.141 -0.1168 -3.1816 -0.0333
  425MOL0     H56097   2.060   2.128   9.147  0.6141 -0.0696 -1.5189
  425MOL0     H56098   2.092   1.950   9.539 -1.2794  0.7407  0.4052
  425MOL0     H56099   1.760   1.954   8.625  0.1960 -2.3242 -0.5398
  425MOL0     H56100   1.564   1.933   8.497  4.1711 -2.4578  1.7378
  426MOL0     O56101   2.244   5.566   5.914 -0.0398 -0.3785  1.2746
  426MOL0     C56102   2.274   5.565   5.790  0.0400 -0.6793 -0.0743
  426MOL0     O56103   2.185   5.527   5.688 -0.3165  0.1348  0.0320
  426MOL0     C56104   2.050   5.497   5.712 -0.7662  0.0681  0.1868
  426MOL0     C56105   1.979   5.412   5.624  0.5388 -0.3428  0.4515
  426MOL0     C56106   1.839   5.375   5.644 -0.7784 -0.5321 -0.2840
  426MOL0     C56107   1.777   5.431   5.755 -0.0773  0.2523 -0.3319
  426MOL0     O56108   1.641   5.406   5.755 -0.8005  0.6382  0.7704
  426MOL0     C56109   1.571   5.434   5.877 -0.4214 -0.3920  0.2999
  426MOL0     C56110   1.428   5.368   5.882  0.0350  0.5347  0.4196
  426MOL0     C56111   1.322   5.430   5.786  0.8717  0.5599  0.9048
  426MOL0     C56112   1.183   5.365   5.798 -0.0645 -0.0203  0.0326
  426MOL0     C56113   1.111   5.389   5.658  0.0835  0.2089 -0.0568
  426MOL0     C56114   0.983   5.301   5.653  0.3447 -0.2751 -0.3688
  426MOL0     C56115   0.877   5.368   5.570  0.3211 -0.1840 -0.6588
  426MOL0     C56116   0.769   5.262   5.524  0.5563  0.1634 -0.9549
  426MOL0     N56117   0.644   5.329   5.465 -0.7672 -0.7300  1.1748
  426MOL0     C56118   0.632   5.443   5.381 -0.2219 -0.3664  0.3121
  426MOL0     C56119   0.505   5.476   5.374  0.6427 -0.0317  0.4624
  426MOL0     C56120   0.448   5.590   5.302  0.1679  0.2767  0.4987
  426MOL0     C56121   0.471   5.719   5.389 -0.7349 -0.3739  0.1201
  426MOL0     C56122   0.454   5.852   5.319  0.5855  0.1454 -0.8478
  426MOL0     C56123   0.312   5.882   5.285  0.0833  0.6177  0.3041
  426MOL0     O56124   0.228   5.893   5.395  0.1134  0.2833  0.5471
  426MOL0     C56125   0.101   5.834   5.392 -0.3354 -0.1860  0.8046
  426MOL0     C56126   0.042   5.753   5.288 -0.5722  0.2046 -0.3661
  426MOL0     C56127  -0.084   5.700   5.302  0.3165 -0.2136  0.4217
  426MOL0     C56128  -0.159   5.735   5.416  0.3309  0.3874  0.2465
  426MOL0     C56129  -0.302   5.681   5.434  0.2159 -0.2536  0.2182
  426MOL0     O56130  -0.371   5.671   5.324  0.1536  0.2710 -0.1940
  426MOL0     C56131  -0.512   5.646   5.335 -0.8374 -0.3397  0.2116
  426MOL0     C56132  -0.587   5.705   5.435 -0.3530 -0.2288 -0.0609
  426MOL0     C56133  -0.722   5.678   5.431 -0.1667  0.6226 -0.7724
  426MOL0     C56134  -0.782   5.585   5.344  0.8424  0.8491 -0.8740
  426MOL0     O56135  -0.903   5.541   5.388 -0.3469 -0.2271  0.2086
  426MOL0     C56136  -0.953   5.415   5.349 -0.6095 -0.1950  0.1020
  426MOL0     C56137  -1.100   5.424   5.355  1.0949  0.9946 -0.1716
  426MOL0     C56138  -1.156   5.289   5.339 -0.5981  0.1162  0.5707
  426MOL0     C56139  -1.314   5.284   5.365  0.3920  0.0777  0.4071
  426MOL0     C56140  -1.362   5.139   5.378  1.1437  0.2115 -0.2703
  426MOL0     C56141  -1.506   5.130   5.334  0.3730 -0.1313 -0.2415
  426MOL0     C56142  -1.569   5.008   5.377 -0.1013  1.3886  0.7229
  426MOL0     C56143  -1.725   5.011   5.354  0.2242  0.0152  0.3934
  426MOL0    Cl56144  -1.768   5.071   5.183  0.5020  0.1827  0.2440
  426MOL0     C56145  -0.706   5.525   5.245  0.2848  0.2541  0.3556
  426MOL0     C56146  -0.571   5.555   5.242 -0.7520  1.0628  0.4323
  426MOL0     O56147  -0.341   5.662   5.552  0.5763  0.0694  0.1299
  426MOL0     C56148  -0.105   5.818   5.515 -0.1503  1.4571  0.0210
  426MOL0     C56149   0.024   5.865   5.506  0.2556 -0.6596 -0.6164
  426MOL0     N56150   0.429   5.400   5.452 -0.8054 -0.0156 -1.5803
  426MOL0     N56151   0.516   5.314   5.505  0.5931  0.0057  0.1555
  426MOL0     C56152   1.841   5.536   5.828  0.5448  0.8043  0.0866
  426MOL0     C56153   1.976   5.567   5.811 -0.0364  0.3526 -0.1062
  426MOL0     C56154   2.414   5.592   5.740 -0.8898 -0.5032  0.0047
  426MOL0     C56155   2.519   5.622   5.838  0.7393  0.5216 -0.6244
  426MOL0     C56156   2.644   5.660   5.788 -0.1603 -0.1004  0.5771
  426MOL0     C56157   2.673   5.659   5.646 -0.0298  0.3883 -0.9279
  426MOL0     O56158   2.792   5.708   5.596 -0.0691  0.1689  0.2284
  426MOL0     C56159   2.915   5.667   5.649 -0.4597 -0.1029  0.0153
  426MOL0     C56160   2.995   5.781   5.709 -0.9830 -0.0904  0.2255
  426MOL0     C56161   3.043   5.873   5.592 -0.2943 -0.0601 -0.5283
  426MOL0     C56162   2.939   5.977   5.556  0.4260 -0.1852  0.0843
  426MOL0     C56163   2.985   6.079   5.470 -0.2928 -0.2025  0.0939
  426MOL0     C56164   3.018   6.170   5.390 -0.8724  0.1051 -1.2950
  426MOL0     C56165   2.575   5.624   5.557  0.3600  0.1015 -1.3779
  426MOL0     C56166   2.446   5.597   5.608 -0.3447  0.4951 -0.2718
  426MOL0     H56167   2.026   5.362   5.540  0.0269  0.1358 -0.1274
  426MOL0     H56168   1.789   5.307   5.575  2.0599 -1.8967 -1.1552
  426MOL0     H56169   1.559   5.543   5.882  1.9909  0.0152 -1.3082
  426MOL0     H56170   1.633   5.413   5.964  0.4453  1.9068  0.3214
  426MOL0     H56171   1.391   5.371   5.985 -1.4491  1.3169 -0.1069
  426MOL0     H56172   1.436   5.262   5.857  0.3595  0.7993 -0.6276
  426MOL0     H56173   1.365   5.417   5.686  0.9807  0.1770  0.9975
  426MOL0     H56174   1.304   5.536   5.809 -0.6890  0.6259 -0.4943
  426MOL0     H56175   1.196   5.257   5.813  0.6957 -0.4128 -2.8127
  426MOL0     H56176   1.114   5.405   5.872  1.0408 -0.4588  1.3449
  426MOL0     H56177   1.186   5.359   5.584  0.0561 -0.7984  0.2958
  426MOL0     H56178   1.081   5.493   5.646 -0.9356  0.0486  0.8466
  426MOL0     H56179   0.937   5.284   5.751  0.5014 -0.0959 -0.2627
  426MOL0     H56180   1.005   5.207   5.601 -0.4050  0.9649 -3.0543
  426MOL0     H56181   0.824   5.449   5.622  1.7691  1.8009 -2.0962
  426MOL0     H56182   0.927   5.404   5.480  0.7976  1.6319  0.2688
  426MOL0     H56183   0.738   5.194   5.604  1.4361 -3.4785 -3.4599
  426MOL0     H56184   0.813   5.199   5.447 -1.1016 -2.9137  0.4484
  426MOL0     H56185   0.713   5.500   5.337  3.4594 -2.6831  3.4949
  426MOL0     H56186   0.343   5.577   5.275  1.0879 -0.8845 -3.0106
  426MOL0     H56187   0.497   5.605   5.205 -1.4678  1.6009 -0.1727
  426MOL0     H56188   0.573   5.709   5.426 -0.4558  4.1696  1.1097
  426MOL0     H56189   0.412   5.713   5.481  0.1871 -2.8634  0.6394
  426MOL0     H56190   0.495   5.924   5.390  0.8831  0.2097 -1.0843
  426MOL0     H56191   0.513   5.860   5.228  2.9289 -0.8227  0.4957
  426MOL0     H56192   0.281   5.803   5.215 -1.0337  1.7401 -0.5128
  426MOL0     H56193   0.305   5.972   5.224 -1.5912  0.4517  0.1904
  426MOL0     H56194   0.099   5.729   5.199  0.3918 -1.1431  0.5676
  426MOL0     H56195  -0.126   5.641   5.220  0.9366  0.9730 -0.7807
  426MOL0     H56196  -0.536   5.767   5.508  0.0328 -2.2031  1.4324
  426MOL0     H56197  -0.777   5.724   5.512  2.1560  2.8882 -0.3606
  426MOL0     H56198  -0.919   5.342   5.424  3.9978  0.8990 -0.6382
  426MOL0     H56199  -0.924   5.387   5.248  0.8973 -0.2621  0.5299
  426MOL0     H56200  -1.133   5.487   5.272  1.4066 -0.6402 -1.6024
  426MOL0     H56201  -1.125   5.458   5.456 -0.5521 -0.2470 -0.1186
  426MOL0     H56202  -1.112   5.222   5.413  0.3592  1.4666  1.2660
  426MOL0     H56203  -1.116   5.249   5.246  1.6260 -1.0137  1.9428
  426MOL0     H56204  -1.336   5.322   5.465 -1.6955 -0.2416  0.1072
  426MOL0     H56205  -1.377   5.344   5.299 -0.6395  0.8734  2.0472
  426MOL0     H56206  -1.347   5.094   5.476 -0.3667 -0.3464 -0.2857
  426MOL0     H56207  -1.306   5.081   5.304 -0.9054  0.6528 -2.3048
  426MOL0     H56208  -1.499   5.134   5.225  4.1348 -1.2375 -0.1727
  426MOL0     H56209  -1.560   5.213   5.381 -1.1068 -0.8015 -0.6884
  426MOL0     H56210  -1.524   4.921   5.328 -0.8726  0.9012  0.8565
  426MOL0     H56211  -1.552   4.996   5.485  5.1618  2.1516  0.2313
  426MOL0     H56212  -1.767   5.086   5.421 -2.1293  0.9809 -1.9863
  426MOL0     H56213  -1.758   4.910   5.380 -1.7666 -0.1365 -2.2814
  426MOL0     H56214  -0.752   5.451   5.180 -1.0232  2.4773 -1.4063
  426MOL0     H56215  -0.505   5.507   5.171 -0.0965  1.0469  1.0488
  426MOL0     H56216  -0.168   5.836   5.601 -0.3434 -0.2172  0.2578
  426MOL0     H56217   0.080   5.915   5.585 -1.2672 -1.5608  1.1190
  426MOL0     H56218   1.783   5.590   5.902 -1.1667  2.0284 -2.0457
  426MOL0     H56219   2.015   5.645   5.876 -1.0863 -0.1007  1.1228
  426MOL0     H56220   2.489   5.614   5.942  2.2419 -1.8351 -0.2709
  426MOL0     H56221   2.724   5.669   5.860 -1.3661 -2.4238  2.3256
  426MOL0     H56222   2.964   5.610   5.569  1.1090  2.8921 -1.3445
  426MOL0     H56223   2.894   5.602   5.735  1.0959  0.5435  0.9308
  426MOL0     H56224   2.930   5.839   5.775 -3.8222 -3.0629  0.3418
  426MOL0     H56225   3.085   5.752   5.763 -0.8363  0.5591  0.3381
  426MOL0     H56226   3.065   5.814   5.502 -0.5218 -2.0251  0.6526
  426MOL0     H56227   3.131   5.930   5.623 -0.7204 -0.1611  0.9451
  426MOL0     H56228   2.855   5.917   5.518 -0.0266 -0.1813  1.0614
  426MOL0     H56229   2.905   6.025   5.647 -0.7719 -0.3528 -0.2529
  426MOL0     H56230   3.067   6.238   5.323  0.1683  0.6510 -0.0303
  426MOL0     H56231   2.603   5.628   5.452  0.7765  3.4762 -1.2528
  426MOL0     H56232   2.369   5.572   5.536 -2.3164 -1.0062  2.1589
  427MOL0     O56233   0.733   4.286   3.379  0.1916 -0.3207 -0.7284
  427MOL0     C56234   0.713   4.340   3.274  0.2329 -0.8962 -0.4813
  427MOL0     O56235   0.586   4.345   3.210 -0.0057  0.0709 -0.1012
  427MOL0     C56236   0.478   4.291   3.279  0.7706  0.5925 -0.1297
  427MOL0     C56237   0.366   4.375   3.284 -1.8204 -0.1864 -1.7045
  427MOL0     C56238   0.247   4.334   3.342 -0.7852 -0.3613 -0.1667
  427MOL0     C56239   0.235   4.207   3.398  0.7485 -0.0431  0.6811
  427MOL0     O56240   0.108   4.177   3.443  0.1660  0.2389 -0.2336
  427MOL0     C56241   0.077   4.047   3.491  0.8340 -0.5381 -0.1409
  427MOL0     C56242   0.107   4.031   3.636  0.0856 -0.0325 -0.6396
  427MOL0     C56243   0.098   4.165   3.719 -0.7488 -0.4341  0.3479
  427MOL0     C56244  -0.038   4.235   3.729  0.5724  0.1709  0.3066
  427MOL0     C56245  -0.040   4.343   3.840 -0.2846  0.6619  0.5091
  427MOL0     C56246   0.019   4.473   3.781  0.1107 -0.7666  0.5373
  427MOL0     C56247   0.004   4.586   3.883  0.3839 -0.3510 -0.3512
  427MOL0     C56248   0.102   4.591   4.000 -0.1413  0.5407  0.3011
  427MOL0     N56249   0.235   4.578   3.949 -0.0095 -0.0535  0.3902
  427MOL0     C56250   0.293   4.454   3.949  0.8249 -0.0459 -0.4051
  427MOL0     C56251   0.421   4.483   3.904 -0.3042 -0.3703 -0.3786
  427MOL0     C56252   0.532   4.383   3.875 -0.2378  0.8966  0.1748
  427MOL0     C56253   0.491   4.283   3.768 -0.5376 -0.6342  1.0859
  427MOL0     C56254   0.591   4.258   3.661  0.2249  0.0223 -0.0260
  427MOL0     C56255   0.703   4.166   3.705 -0.7273 -0.6381 -0.0470
  427MOL0     O56256   0.647   4.034   3.742 -0.4414 -0.6352 -0.1169
  427MOL0     C56257   0.731   3.937   3.792 -0.9699  0.0449 -0.4245
  427MOL0     C56258   0.870   3.942   3.796 -1.4445 -0.1885 -1.0952
  427MOL0     C56259   0.935   3.848   3.876 -0.1931  0.2948  0.2359
  427MOL0     C56260   0.864   3.743   3.934  0.1660  1.0232 -0.7767
  427MOL0     C56261   0.933   3.636   4.002 -1.0597  0.5304  0.3553
  427MOL0     O56262   1.064   3.627   3.968  1.0313 -0.1879 -0.5108
  427MOL0     C56263   1.160   3.542   4.027  0.3585 -0.3225  0.2705
  427MOL0     C56264   1.168   3.509   4.163  1.4148  0.3203  0.4362
  427MOL0     C56265   1.263   3.423   4.217 -0.5411 -0.4739  0.1538
  427MOL0     C56266   1.353   3.358   4.137 -0.7830 -0.1377 -0.2615
  427MOL0     O56267   1.443   3.266   4.181 -0.1449 -0.4224  0.4723
  427MOL0     C56268   1.502   3.293   4.307  0.0071  0.7916  0.5428
  427MOL0     C56269   1.633   3.212   4.331 -0.1523  0.4989  0.0130
  427MOL0     C56270   1.710   3.237   4.470  0.9884 -0.5187  0.3325
  427MOL0     C56271   1.816   3.136   4.471  0.3692 -0.4888 -0.4332
  427MOL0     C56272   1.865   3.105   4.612 -0.5265  0.0737  0.4916
  427MOL0     C56273   1.995   3.014   4.611 -0.7906  0.0870 -0.5670
  427MOL0     C56274   2.023   2.936   4.742  0.5398 -0.2304  0.4518
  427MOL0     C56275   2.063   2.793   4.709  0.4661  0.6430 -0.2023
  427MOL0    Cl56276   1.905   2.705   4.659  0.0762 -0.2762 -0.2799
  427MOL0     C56277   1.344   3.377   4.005 -0.2959  0.5309 -0.5384
  427MOL0     C56278   1.248   3.470   3.945  0.5515 -0.2632 -0.2032
  427MOL0     O56279   0.877   3.556   4.075 -0.2031  0.4733  0.0545
  427MOL0     C56280   0.722   3.724   3.920  0.7817 -1.4966  0.2402
  427MOL0     C56281   0.661   3.837   3.859  0.3201  0.1217  0.5593
  427MOL0     N56282   0.436   4.619   3.878  0.1268  0.0200  0.3188
  427MOL0     N56283   0.325   4.672   3.911  0.5305 -0.0150  0.0585
  427MOL0     C56284   0.343   4.123   3.391 -0.6026 -0.8354  0.1886
  427MOL0     C56285   0.461   4.155   3.322 -0.1824 -0.3032 -0.1732
  427MOL0     C56286   0.825   4.410   3.223  0.3832  0.3014 -0.8297
  427MOL0     C56287   0.956   4.358   3.234 -0.5311  0.1002  1.0746
  427MOL0     C56288   1.074   4.428   3.187  0.7259  0.4643  0.0151
  427MOL0     C56289   1.059   4.552   3.125  0.6989 -0.5513 -0.1342
  427MOL0     O56290   1.163   4.631   3.083 -0.8730  0.1412 -0.3354
  427MOL0     C56291   1.300   4.584   3.094  0.5124  0.3505 -0.5037
  427MOL0     C56292   1.380   4.689   3.158 -0.2104  0.1589 -0.6035
  427MOL0     C56293   1.529   4.646   3.170 -0.5103  0.1738  0.6244
  427MOL0     C56294   1.594   4.617   3.029  0.9827  0.1896 -0.0171
  427MOL0     C56295   1.597   4.740   2.950  0.6059  0.6567 -0.7535
  427MOL0     C56296   1.579   4.839   2.878 -0.1160 -0.5893  0.8555
  427MOL0     C56297   0.929   4.597   3.110  0.1675  0.0755  0.3898
  427MOL0     C56298   0.811   4.534   3.161 -0.2674 -0.0862  0.1640
  427MOL0     H56299   0.382   4.474   3.242 -3.7917  0.0916 -1.8758
  427MOL0     H56300   0.172   4.413   3.346 -1.1553 -0.7367  0.5453
  427MOL0     H56301   0.123   3.973   3.425 -2.4909 -0.1945 -3.1761
  427MOL0     H56302  -0.030   4.032   3.469  0.0298  0.2115  2.8098
  427MOL0     H56303   0.202   3.980   3.654  0.0553 -0.2576 -1.1075
  427MOL0     H56304   0.034   3.968   3.688 -0.7532 -0.6398 -2.4573
  427MOL0     H56305   0.173   4.238   3.685 -1.4214 -0.0734 -0.4208
  427MOL0     H56306   0.133   4.139   3.819  1.3709 -0.9878 -0.4909
  427MOL0     H56307  -0.062   4.282   3.633 -0.5109 -0.4055  0.2769
  427MOL0     H56308  -0.116   4.165   3.762  1.8717 -1.4500  0.0863
  427MOL0     H56309   0.012   4.313   3.932 -2.2280 -0.5008  1.2904
  427MOL0     H56310  -0.145   4.362   3.861  0.1096  0.2272  3.3435
  427MOL0     H56311  -0.047   4.496   3.697 -0.5843  0.8398  1.4728
  427MOL0     H56312   0.119   4.467   3.738  1.2696  1.7603  2.5949
  427MOL0     H56313  -0.005   4.683   3.834 -3.2159 -0.9290 -1.1262
  427MOL0     H56314  -0.090   4.569   3.937  2.0217 -2.6385  2.0038
  427MOL0     H56315   0.084   4.516   4.078 -0.1403  1.3451  1.0861
  427MOL0     H56316   0.095   4.695   4.031  0.2725  1.2692 -1.8817
  427MOL0     H56317   0.251   4.362   3.989 -1.3115 -0.1068 -2.5831
  427MOL0     H56318   0.567   4.328   3.962  2.6495 -1.4230 -2.2234
  427MOL0     H56319   0.616   4.438   3.830  0.0718 -1.2621 -2.1124
  427MOL0     H56320   0.403   4.323   3.718 -1.1759 -1.3113  1.6568
  427MOL0     H56321   0.463   4.190   3.818  0.8545 -1.0205  1.2060
  427MOL0     H56322   0.545   4.221   3.569 -1.3174  0.2337  0.6213
  427MOL0     H56323   0.640   4.353   3.639  0.9152 -0.5821 -1.1669
  427MOL0     H56324   0.737   4.197   3.804 -1.5064 -0.7190  0.2480
  427MOL0     H56325   0.788   4.160   3.636  1.6811 -3.3110  2.8205
  427MOL0     H56326   0.935   4.019   3.754 -2.2343  0.8175 -0.5347
  427MOL0     H56327   1.041   3.868   3.892 -0.4612  3.3809 -1.1134
  427MOL0     H56328   1.107   3.552   4.242 -0.2739  0.3538 -0.8085
  427MOL0     H56329   1.259   3.412   4.325 -2.0014 -1.7351  0.0003
  427MOL0     H56330   1.430   3.260   4.381  1.0682  0.3343  1.4025
  427MOL0     H56331   1.533   3.398   4.315  0.8332  0.9625 -2.9286
  427MOL0     H56332   1.698   3.233   4.246  1.6190  2.8153  1.7856
  427MOL0     H56333   1.601   3.110   4.306 -0.4356  1.4200 -3.9316
  427MOL0     H56334   1.655   3.218   4.562  1.5915 -3.8146  0.1447
  427MOL0     H56335   1.749   3.338   4.485 -1.9144  0.8227 -0.4501
  427MOL0     H56336   1.787   3.047   4.415  0.2351  1.4218 -3.6664
  427MOL0     H56337   1.897   3.182   4.413 -0.2595 -1.1385 -1.8742
  427MOL0     H56338   1.788   3.043   4.658  0.5658 -0.2510  1.9352
  427MOL0     H56339   1.878   3.200   4.664 -3.1790  1.1804 -0.7082
  427MOL0     H56340   2.087   3.062   4.579 -1.1802  0.0690 -1.7668
  427MOL0     H56341   1.957   2.939   4.540 -3.2205  1.7434 -1.1543
  427MOL0     H56342   2.106   2.980   4.799  0.8413  0.8261 -0.7525
  427MOL0     H56343   1.937   2.931   4.809  0.5801 -0.2609  0.5015
  427MOL0     H56344   2.104   2.743   4.797 -0.0114 -0.7175 -0.7258
  427MOL0     H56345   2.132   2.787   4.624 -1.3714  0.9014 -1.7992
  427MOL0     H56346   1.422   3.325   3.949  0.0229  0.2080  0.1926
  427MOL0     H56347   1.249   3.484   3.838 -2.2850 -3.4946 -0.8492
  427MOL0     H56348   0.671   3.639   3.963  1.3767 -0.8446  2.3915
  427MOL0     H56349   0.554   3.839   3.841  0.2634  0.7354  0.9322
  427MOL0     H56350   0.332   4.020   3.426 -1.6156 -0.8300 -0.0745
  427MOL0     H56351   0.542   4.084   3.312  1.1419  1.2502 -0.9250
  427MOL0     H56352   0.970   4.258   3.272 -0.3384 -0.7340 -1.0462
  427MOL0     H56353   1.170   4.381   3.201  1.0904  1.1414 -0.1405
  427MOL0     H56354   1.321   4.564   2.988 -3.9625 -1.1311 -1.3205
  427MOL0     H56355   1.324   4.497   3.157  3.0368  2.8515  2.2628
  427MOL0     H56356   1.362   4.781   3.103 -1.6576 -1.3103 -2.7043
  427MOL0     H56357   1.353   4.711   3.262  2.6813  0.4347  0.1850
  427MOL0     H56358   1.546   4.561   3.236  0.0951 -0.5238 -0.4171
  427MOL0     H56359   1.585   4.731   3.211  0.1016 -0.4247  1.0320
  427MOL0     H56360   1.693   4.569   3.030  0.7417 -0.4099 -1.7967
  427MOL0     H56361   1.528   4.551   2.972 -1.2273  3.0986 -1.0510
  427MOL0     H56362   1.575   4.927   2.818  2.6613 -1.0254 -0.1642
  427MOL0     H56363   0.914   4.692   3.061 -1.7908  0.0914  0.9134
  427MOL0     H56364   0.712   4.580   3.155 -0.3085 -0.3725 -1.9746
  428MOL0     O56365  10.662  10.503   0.382  0.4239 -0.0157  0.1147
  428MOL0     C56366  10.661  10.550   0.271 -0.5600 -0.1748 -0.4932
  428MOL0     O56367  10.721  10.502   0.162 -0.4745 -0.0342 -0.5074
  428MOL0     C56368  10.825  10.425   0.186  0.1821  1.1304  0.4269
  428MOL0     C56369  10.928  10.447   0.280  0.3518 -0.0569 -0.2756
  428MOL0     C56370  11.040  10.366   0.278  0.2157 -0.7883  0.3779
  428MOL0     C56371  11.053  10.258   0.182 -0.5297 -0.4750  0.5480
  428MOL0     O56372  11.152  10.166   0.177  0.5501  0.4608 -0.1321
  428MOL0     C56373  11.200  10.120   0.299  0.0968  0.4147 -0.1591
  428MOL0     C56374  11.312  10.030   0.250  1.0405 -0.3160 -0.5787
  428MOL0     C56375  11.359   9.954   0.373  0.6312  0.4900 -0.2952
  428MOL0     C56376  11.434  10.038   0.466 -0.8693  0.1461 -0.6456
  428MOL0     C56377  11.507   9.949   0.576  0.3177 -1.2055  0.2678
  428MOL0     C56378  11.636   9.883   0.526 -0.6306 -0.0856 -0.1391
  428MOL0     C56379  11.691   9.771   0.620 -0.0132 -0.9609  0.0175
  428MOL0     C56380  11.787   9.833   0.731 -0.9807 -0.6188  0.7221
  428MOL0     N56381  11.895   9.910   0.663  0.3321  0.2769 -0.2606
  428MOL0     C56382  12.002   9.857   0.589  0.3664 -0.2440 -0.4881
  428MOL0     C56383  12.072   9.963   0.544  0.0920  0.2397 -0.1314
  428MOL0     C56384  12.207   9.970   0.469  0.8818 -0.9159 -0.1773
  428MOL0     C56385  12.324   9.888   0.528  0.7996  0.1422 -0.1484
  428MOL0     C56386  12.385   9.943   0.663  0.8641  0.0710 -0.6318
  428MOL0     C56387  12.539   9.928   0.656  0.0397 -0.2468 -0.0089
  428MOL0     O56388  12.581  10.009   0.545  0.6662  0.4503 -0.2958
  428MOL0     C56389  12.714  10.035   0.529 -0.3749  0.1518 -0.1616
  428MOL0     C56390  12.769   9.997   0.403  0.9159 -0.6507  0.0272
  428MOL0     C56391  12.900  10.025   0.368 -0.0978  0.8024 -0.3347
  428MOL0     C56392  12.979  10.099   0.451 -1.0439 -0.7006  0.0861
  428MOL0     C56393  13.125  10.107   0.418 -0.3967  1.0127  0.2619
  428MOL0     O56394  13.212  10.152   0.502 -0.3438  0.0099 -0.1674
  428MOL0     C56395  13.342  10.153   0.461  0.5477 -0.5166 -0.5039
  428MOL0     C56396  13.395  10.245   0.379 -0.4541  0.1650 -0.7245
  428MOL0     C56397  13.534  10.246   0.350  0.4037 -0.4688 -0.4140
  428MOL0     C56398  13.611  10.144   0.404  0.9388  0.3237 -0.1690
  428MOL0     O56399  13.747  10.131   0.390 -0.6444 -0.1647  0.1839
  428MOL0     C56400  13.812  10.257   0.354  0.3272 -0.6898 -0.3751
  428MOL0     C56401  13.960  10.252   0.385 -0.7506  0.2052 -0.1380
  428MOL0     C56402  14.030  10.157   0.286  0.3667 -0.2342  0.5622
  428MOL0     C56403  14.178  10.127   0.320  0.1973 -0.6243  0.4231
  428MOL0     C56404  14.227  10.023   0.226 -0.1278 -0.0010 -0.5194
  428MOL0     C56405  14.352   9.960   0.281  0.0384  0.0038 -0.0719
  428MOL0     C56406  14.424   9.886   0.167  0.2158  0.2087  0.3500
  428MOL0     C56407  14.563   9.818   0.200  0.3176 -0.3014 -1.0515
  428MOL0    Cl56408  14.653   9.770   0.058 -0.1305 -0.1097 -0.3207
  428MOL0     C56409  13.555  10.040   0.489  0.3876 -0.0776  0.3870
  428MOL0     C56410  13.420  10.044   0.517 -0.0794  0.0241 -0.1436
  428MOL0     O56411  13.148  10.070   0.306  0.2349 -0.7473  0.3123
  428MOL0     C56412  12.927  10.143   0.578  0.5203  0.0281  0.3653
  428MOL0     C56413  12.792  10.114   0.615 -0.7663  0.5173  0.1924
  428MOL0     N56414  12.013  10.078   0.594  0.6703  0.6995 -0.0184
  428MOL0     N56415  11.906  10.045   0.662  0.4689 -0.4155 -0.1457
  428MOL0     C56416  10.941  10.227   0.107  0.2250  0.5315  0.3882
  428MOL0     C56417  10.829  10.307   0.102 -0.0055  0.4543 -0.3477
  428MOL0     C56418  10.580  10.674   0.247 -0.4266 -0.6863 -0.4065
  428MOL0     C56419  10.609  10.761   0.144 -0.2325 -0.5661 -0.3195
  428MOL0     C56420  10.535  10.873   0.121  0.6678  0.1321  0.3141
  428MOL0     C56421  10.435  10.918   0.212 -0.9176 -0.3774 -1.1383
  428MOL0     O56422  10.355  11.034   0.209 -0.5043  0.7207 -0.1660
  428MOL0     C56423  10.368  11.108   0.088  0.2890  0.0589 -0.3958
  428MOL0     C56424  10.269  11.219   0.071  0.9948  0.6965  0.9806
  428MOL0     C56425  10.127  11.164   0.066 -0.4079 -0.7743  0.0468
  428MOL0     C56426  10.027  11.280   0.040 -0.1889 -0.1780 -0.6754
  428MOL0     C56427  10.018  11.339  -0.086 -0.5366 -0.2733  0.2680
  428MOL0     C56428  10.012  11.388  -0.195 -0.1530 -0.3911 -0.5735
  428MOL0     C56429  10.409  10.827   0.322  0.1065 -0.0082 -0.1378
  428MOL0     C56430  10.487  10.712   0.337 -0.1083  0.1777  0.2128
  428MOL0     H56431  10.923  10.528   0.352 -1.0395  0.1317 -0.5591
  428MOL0     H56432  11.119  10.388   0.349  0.3317  0.3489 -0.0823
  428MOL0     H56433  11.123  10.069   0.358  0.5035  0.7935  0.7081
  428MOL0     H56434  11.244  10.192   0.368  0.4288  0.2204 -0.1668
  428MOL0     H56435  11.391  10.094   0.211  0.4528  1.7963  1.4912
  428MOL0     H56436  11.270   9.956   0.181  1.9581 -2.4026  1.0098
  428MOL0     H56437  11.418   9.871   0.332 -1.1053  0.4854 -3.0195
  428MOL0     H56438  11.266   9.917   0.417  0.4753 -0.3844 -1.3220
  428MOL0     H56439  11.512  10.101   0.422 -0.1523 -1.2544 -1.4394
  428MOL0     H56440  11.370  10.110   0.518  0.1279 -1.0943  2.5257
  428MOL0     H56441  11.446   9.859   0.592  0.9025 -1.2938  2.2084
  428MOL0     H56442  11.525  10.005   0.668 -0.9128 -0.9473  0.3666
  428MOL0     H56443  11.717   9.952   0.499  2.5886 -2.5081  2.4261
  428MOL0     H56444  11.607   9.837   0.431 -0.5325  4.2303 -2.4880
  428MOL0     H56445  11.615   9.724   0.684 -0.4037  0.9382  1.0161
  428MOL0     H56446  11.736   9.685   0.570  1.7869  0.3463 -0.6988
  428MOL0     H56447  11.838   9.751   0.783 -0.5275 -0.7967  0.0103
  428MOL0     H56448  11.735   9.897   0.802 -2.0552  2.1410 -2.3329
  428MOL0     H56449  12.036   9.754   0.585  2.0965  0.3140 -1.4624
  428MOL0     H56450  12.230  10.077   0.462  1.6943 -1.0113  0.7230
  428MOL0     H56451  12.197   9.932   0.367  0.7575 -0.8954 -0.1726
  428MOL0     H56452  12.403   9.868   0.455  1.7184 -2.4238  1.4130
  428MOL0     H56453  12.290   9.787   0.549  3.0350 -0.9210 -1.3022
  428MOL0     H56454  12.354  10.047   0.675  2.5805  0.3562  2.4375
  428MOL0     H56455  12.347   9.892   0.751  0.5165  2.0409  0.4329
  428MOL0     H56456  12.559   9.822   0.635 -3.0341 -0.4844 -2.5279
  428MOL0     H56457  12.571   9.965   0.754 -0.0601 -1.6075  0.5619
  428MOL0     H56458  12.704   9.930   0.348 -0.2852 -1.3424  2.1933
  428MOL0     H56459  12.943   9.988   0.275 -3.5184 -1.9297 -1.0287
  428MOL0     H56460  13.328  10.321   0.340 -2.0679 -1.6077 -1.5590
  428MOL0     H56461  13.570  10.327   0.287 -0.0010 -2.4725 -3.4218
  428MOL0     H56462  13.777  10.332   0.426 -2.0343 -0.0617 -2.0958
  428MOL0     H56463  13.798  10.284   0.249  1.5019 -0.7015 -0.5545
  428MOL0     H56464  13.963  10.221   0.490 -0.9817  1.4768  0.2697
  428MOL0     H56465  13.999  10.355   0.381  1.5513 -0.6431 -2.0201
  428MOL0     H56466  14.034  10.197   0.185 -0.1328  1.8978  1.3198
  428MOL0     H56467  13.983  10.058   0.292 -0.1454 -0.0834 -0.7407
  428MOL0     H56468  14.224  10.224   0.303 -2.3818  0.7434  0.7131
  428MOL0     H56469  14.180  10.083   0.421 -0.5678 -0.0261  0.7102
  428MOL0     H56470  14.246  10.069   0.129  2.7261 -0.5991 -0.3303
  428MOL0     H56471  14.155   9.940   0.229 -2.1617  1.5947  4.4898
  428MOL0     H56472  14.326   9.894   0.364 -1.2079  0.6347  0.0590
  428MOL0     H56473  14.424  10.037   0.310  0.8565 -0.1864 -1.5020
  428MOL0     H56474  14.365   9.800   0.134  2.7593 -3.0223  3.4564
  428MOL0     H56475  14.433   9.954   0.081  0.1442 -0.0961  0.0996
  428MOL0     H56476  14.565   9.736   0.272  0.6046  1.3225  0.8640
  428MOL0     H56477  14.615   9.897   0.255  1.7036 -2.2545  0.6071
  428MOL0     H56478  13.612   9.957   0.530 -0.7419 -1.9822 -1.6557
  428MOL0     H56479  13.374   9.983   0.594  0.7283 -0.4178 -0.0057
  428MOL0     H56480  12.995  10.206   0.634  0.8263 -1.1933  1.4164
  428MOL0     H56481  12.744  10.147   0.707 -1.8431 -0.0644 -0.1418
  428MOL0     H56482  10.946  10.131   0.058 -0.0191 -0.4523  2.2223
  428MOL0     H56483  10.746  10.278   0.038  0.4981  1.6316 -1.5808
  428MOL0     H56484  10.683  10.739   0.067  0.8483 -1.1645  0.8415
  428MOL0     H56485  10.560  10.927   0.030 -0.9213  1.1777  0.4519
  428MOL0     H56486  10.349  11.041   0.003  0.8603  0.2624 -0.6863
  428MOL0     H56487  10.466  11.155   0.092  0.7083 -0.7862 -0.6476
  428MOL0     H56488  10.276  11.295   0.149 -0.0929 -0.3130  2.1076
  428MOL0     H56489  10.283  11.262  -0.029  0.8483 -1.9265 -0.2542
  428MOL0     H56490  10.118  11.127   0.169 -0.0089  0.0240  0.3829
  428MOL0     H56491  10.100  11.082  -0.000  0.1486 -1.8388  1.1071
  428MOL0     H56492   9.931  11.238   0.073  0.6855 -0.4671  1.6280
  428MOL0     H56493  10.046  11.365   0.106  2.6239  0.6869 -2.4044
  428MOL0     H56494   9.987  11.420  -0.294 -0.0424 -0.2890 -0.5696
  428MOL0     H56495  10.334  10.849   0.397 -1.8638 -4.1232 -0.6254
  428MOL0     H56496  10.476  10.651   0.426 -3.0655  1.3678  0.7655
  429MOL0     O56497   6.367   3.696   6.991 -0.0053 -0.3064  0.5315
  429MOL0     C56498   6.364   3.758   7.099  0.1121  0.8231 -0.0970
  429MOL0     O56499   6.445   3.741   7.200 -0.6456  1.4200 -1.0848
  429MOL0     C56500   6.550   3.645   7.179 -0.1155 -0.9075 -0.4224
  429MOL0     C56501   6.585   3.542   7.274  0.0660 -0.5015  0.7504
  429MOL0     C56502   6.688   3.452   7.245  0.9163  0.6486  0.2079
  429MOL0     C56503   6.757   3.463   7.122 -0.2571  0.3060 -0.7182
  429MOL0     O56504   6.851   3.366   7.103  0.0564  0.1251 -1.3829
  429MOL0     C56505   6.901   3.337   6.976 -0.7084 -0.0355 -0.1973
  429MOL0     C56506   6.792   3.286   6.872 -0.5908 -0.6802  0.2395
  429MOL0     C56507   6.715   3.157   6.919  0.3128  0.2530  0.3548
  429MOL0     C56508   6.574   3.131   6.846  0.5930 -0.0219  0.8895
  429MOL0     C56509   6.608   3.090   6.701 -0.3063 -0.7335  0.6910
  429MOL0     C56510   6.618   2.948   6.696  0.3744  1.0652  1.0185
  429MOL0     C56511   6.680   2.914   6.561  0.7863  0.6243  0.7454
  429MOL0     C56512   6.667   2.756   6.538  0.8316 -0.0936  0.2333
  429MOL0     N56513   6.524   2.722   6.528  0.3773  0.6505  0.1643
  429MOL0     C56514   6.420   2.778   6.454 -0.4525 -0.0712  0.1071
  429MOL0     C56515   6.304   2.726   6.495 -1.2353  0.0371  0.1268
  429MOL0     C56516   6.161   2.770   6.451  0.5980 -0.6848 -0.1203
  429MOL0     C56517   6.096   2.867   6.553 -0.4476 -0.3350 -0.3463
  429MOL0     C56518   5.991   2.949   6.483  0.8479  0.3713 -0.0180
  429MOL0     C56519   5.854   2.916   6.537 -0.8345  0.1047 -0.5230
  429MOL0     O56520   5.827   2.776   6.528  0.2001 -0.0621  0.8163
  429MOL0     C56521   5.705   2.728   6.555 -0.2408  0.0063  0.3090
  429MOL0     C56522   5.594   2.802   6.576  0.1471 -0.2053 -0.1321
  429MOL0     C56523   5.465   2.747   6.585 -1.6750 -1.5471  0.5390
  429MOL0     C56524   5.446   2.611   6.576  0.5522  0.6954  0.3061
  429MOL0     C56525   5.312   2.551   6.569  0.3753  0.3982  0.1466
  429MOL0     O56526   5.213   2.647   6.582  0.3736 -0.0659 -0.8538
  429MOL0     C56527   5.080   2.616   6.602  0.2557  0.7042 -0.3855
  429MOL0     C56528   4.994   2.724   6.624 -0.3698  0.5334  0.9524
  429MOL0     C56529   4.859   2.711   6.669 -1.2714  0.3813  0.4727
  429MOL0     C56530   4.803   2.583   6.686 -1.2090 -0.0634  0.2646
  429MOL0     O56531   4.676   2.554   6.729  0.1151 -0.7723 -0.8299
  429MOL0     C56532   4.594   2.665   6.763  0.5344 -0.1406 -0.1375
  429MOL0     C56533   4.457   2.611   6.793  0.5335  0.4324  0.0328
  429MOL0     C56534   4.348   2.713   6.815  0.3200 -0.7317  0.3467
  429MOL0     C56535   4.208   2.648   6.829 -0.5886  0.0179  0.1997
  429MOL0     C56536   4.097   2.744   6.870  0.3839  0.9386 -0.9922
  429MOL0     C56537   4.078   2.847   6.750  0.0682 -0.1316 -0.1682
  429MOL0     C56538   3.963   2.946   6.779  0.7406 -0.1264  0.6382
  429MOL0     C56539   3.899   2.999   6.648  0.2220  0.7654  0.0052
  429MOL0    Cl56540   3.775   3.127   6.685  0.0621  0.3116  0.0290
  429MOL0     C56541   4.892   2.469   6.666  0.6213  0.3599  1.2967
  429MOL0     C56542   5.024   2.484   6.625  0.7465  0.3099 -0.1145
  429MOL0     O56543   5.303   2.429   6.568  0.7193  0.2650 -0.0623
  429MOL0     C56544   5.556   2.532   6.554 -0.2330 -0.0976  0.8190
  429MOL0     C56545   5.685   2.588   6.542 -0.5886  0.7882  0.1500
  429MOL0     N56546   6.336   2.631   6.586 -0.0972  0.3199  0.3644
  429MOL0     N56547   6.464   2.625   6.609 -0.6611  0.4157  0.4637
  429MOL0     C56548   6.728   3.567   7.034  0.7142  0.5895 -0.0310
  429MOL0     C56549   6.630   3.662   7.066  0.1004 -0.8550  0.0341
  429MOL0     C56550   6.240   3.838   7.106  0.4788  0.3564  0.8120
  429MOL0     C56551   6.138   3.835   7.013  0.2904  0.1754  0.2451
  429MOL0     C56552   6.027   3.923   7.021 -0.1507 -0.4710  0.1240
  429MOL0     C56553   6.004   4.010   7.123 -0.0015 -0.2068 -0.0011
  429MOL0     O56554   5.892   4.087   7.127 -0.4847 -0.6038  0.0302
  429MOL0     C56555   5.881   4.177   7.243 -0.1011 -0.2249  0.0842
  429MOL0     C56556   5.756   4.266   7.217 -0.5908  0.2902  1.4804
  429MOL0     C56557   5.623   4.190   7.228 -0.5970  0.4803 -0.4774
  429MOL0     C56558   5.500   4.250   7.172  0.2692 -0.4081  0.3072
  429MOL0     C56559   5.448   4.371   7.234 -0.2941  0.4401 -0.5419
  429MOL0     C56560   5.407   4.469   7.289  0.1457  0.0340 -0.2912
  429MOL0     C56561   6.099   4.010   7.220 -0.6480 -0.2941 -0.1491
  429MOL0     C56562   6.210   3.924   7.224  0.0358  0.1550  0.6343
  429MOL0     H56563   6.528   3.551   7.366 -1.1726 -1.3398  0.0915
  429MOL0     H56564   6.721   3.366   7.301  0.7566 -0.9816 -2.0487
  429MOL0     H56565   6.972   3.253   6.980  1.6911  1.8025 -1.5844
  429MOL0     H56566   6.958   3.422   6.938 -0.2711 -0.6919 -1.0737
  429MOL0     H56567   6.846   3.273   6.777  0.7521  0.9879  0.7447
  429MOL0     H56568   6.707   3.354   6.865 -1.9644 -1.7936  3.8913
  429MOL0     H56569   6.698   3.159   7.027 -0.1361 -1.0158  0.3259
  429MOL0     H56570   6.785   3.072   6.912 -0.3417 -0.2634 -0.0436
  429MOL0     H56571   6.513   3.053   6.893  0.0613 -0.3514 -0.2983
  429MOL0     H56572   6.516   3.224   6.839 -1.6210 -1.4396 -3.6239
  429MOL0     H56573   6.698   3.146   6.677 -0.6283 -0.1566  0.7960
  429MOL0     H56574   6.535   3.121   6.625  0.3758 -3.2207 -1.1136
  429MOL0     H56575   6.521   2.897   6.693  1.2684 -0.7147 -1.8067
  429MOL0     H56576   6.670   2.895   6.777  1.6439  0.8951  0.1226
  429MOL0     H56577   6.622   2.971   6.488  2.0897  3.1615  1.5832
  429MOL0     H56578   6.781   2.950   6.542  1.3579 -1.2663 -0.1338
  429MOL0     H56579   6.718   2.724   6.630 -0.4275  2.0709  1.7464
  429MOL0     H56580   6.726   2.724   6.451  2.7496 -1.0876  1.7960
  429MOL0     H56581   6.426   2.856   6.378 -0.7933 -0.9251 -0.8206
  429MOL0     H56582   6.097   2.681   6.440  0.0162 -0.1199 -1.4793
  429MOL0     H56583   6.160   2.813   6.351 -0.6791 -1.0174 -0.2700
  429MOL0     H56584   6.177   2.932   6.586 -0.3662 -0.5727 -0.0745
  429MOL0     H56585   6.062   2.813   6.642 -0.6693 -1.3804 -1.0463
  429MOL0     H56586   5.999   3.054   6.511 -1.6221  0.1970  1.7084
  429MOL0     H56587   5.996   2.937   6.374  3.0417 -0.6287  0.1407
  429MOL0     H56588   5.785   2.982   6.484 -0.0208 -1.0281 -3.1537
  429MOL0     H56589   5.852   2.930   6.646  1.1896  0.1053 -0.4343
  429MOL0     H56590   5.586   2.911   6.580 -1.6759 -0.3465  1.0266
  429MOL0     H56591   5.388   2.823   6.597  2.2900  2.7311  1.5353
  429MOL0     H56592   5.038   2.821   6.604  0.8851 -0.6793 -2.9861
  429MOL0     H56593   4.807   2.804   6.689 -1.1570  0.5948 -0.1958
  429MOL0     H56594   4.585   2.733   6.678 -1.0435 -0.2447 -0.0845
  429MOL0     H56595   4.620   2.727   6.850 -0.6018 -0.6946  0.6345
  429MOL0     H56596   4.473   2.549   6.882 -1.1040 -0.2658 -0.1274
  429MOL0     H56597   4.428   2.544   6.712 -0.4654  0.7734  0.0999
  429MOL0     H56598   4.349   2.793   6.740  0.9345 -0.1178  0.9902
  429MOL0     H56599   4.370   2.765   6.908  2.9358  0.3298 -0.7504
  429MOL0     H56600   4.177   2.586   6.745  1.6476 -0.2693 -0.4716
  429MOL0     H56601   4.217   2.577   6.913 -1.5921 -0.0187  0.2871
  429MOL0     H56602   4.110   2.793   6.967  0.3017  1.4032 -1.2120
  429MOL0     H56603   4.005   2.686   6.871  2.0644 -1.9249 -2.1266
  429MOL0     H56604   4.066   2.791   6.656  0.8867  2.2417 -1.7887
  429MOL0     H56605   4.170   2.904   6.735 -0.1757  1.6210  3.8053
  429MOL0     H56606   3.879   2.904   6.835 -0.6560 -1.0185 -1.9140
  429MOL0     H56607   4.002   3.032   6.833  2.4265 -0.0305 -0.6563
  429MOL0     H56608   3.845   2.914   6.605  0.7854  0.3439  0.1185
  429MOL0     H56609   3.973   3.020   6.570 -1.7298 -0.0556 -2.1723
  429MOL0     H56610   4.853   2.370   6.692  0.7737 -0.1165 -0.1997
  429MOL0     H56611   5.084   2.394   6.614 -0.3007 -0.4805  0.4859
  429MOL0     H56612   5.546   2.427   6.529  0.4896 -0.3449  1.5241
  429MOL0     H56613   5.766   2.518   6.522 -1.4264 -0.5484  1.2394
  429MOL0     H56614   6.801   3.584   6.956  3.2627 -1.0431  1.8327
  429MOL0     H56615   6.627   3.740   6.991 -2.8211 -0.3853  0.5467
  429MOL0     H56616   6.141   3.777   6.922  2.3049  0.0705  0.3357
  429MOL0     H56617   5.950   3.905   6.947  1.1309 -2.3379 -0.8362
  429MOL0     H56618   5.970   4.240   7.246  0.3514 -0.8585  0.1856
  429MOL0     H56619   5.886   4.129   7.341 -0.6551  0.6443  0.5438
  429MOL0     H56620   5.757   4.348   7.289  3.4234  1.7736  0.0030
  429MOL0     H56621   5.769   4.304   7.115  0.3684 -0.0810  1.4536
  429MOL0     H56622   5.605   4.167   7.333 -1.8800 -0.1523 -0.8247
  429MOL0     H56623   5.637   4.090   7.187  0.3987  1.6644 -3.3093
  429MOL0     H56624   5.508   4.270   7.065  0.4212  1.4884  0.6526
  429MOL0     H56625   5.415   4.184   7.194  1.4501 -3.4512 -3.2640
  429MOL0     H56626   5.358   4.553   7.334  1.5408  1.6461 -1.6787
  429MOL0     H56627   6.094   4.067   7.312  0.9347  0.3019 -0.3883
  429MOL0     H56628   6.273   3.916   7.312  0.3731  0.6824  0.4550
  430MOL0     O56629   1.021   1.871   6.969  0.0926  0.1136  1.2294
  430MOL0     C56630   1.011   1.973   7.032  0.2661  0.9857 -0.0837
  430MOL0     O56631   0.895   2.031   7.068  0.0639 -0.3135  0.2643
  430MOL0     C56632   0.788   2.003   6.992  0.5954  1.3463 -0.1831
  430MOL0     C56633   0.663   1.968   7.060 -0.5253 -0.3418  0.4444
  430MOL0     C56634   0.553   1.936   6.985 -0.0651  0.3038 -0.8183
  430MOL0     C56635   0.563   1.926   6.851  0.8344  0.5151 -0.2708
  430MOL0     O56636   0.444   1.918   6.784  0.5781  0.1570 -0.2404
  430MOL0     C56637   0.390   1.776   6.781 -0.5330 -0.4415  0.3494
  430MOL0     C56638   0.267   1.785   6.701  0.4228 -0.5153 -0.6298
  430MOL0     C56639   0.191   1.655   6.721 -0.5195  0.1676  0.2511
  430MOL0     C56640   0.243   1.535   6.629 -0.4655 -0.1153  0.2380
  430MOL0     C56641   0.212   1.395   6.690 -0.1184  0.4199 -0.0966
  430MOL0     C56642   0.066   1.374   6.683 -0.2840 -0.8541 -0.2262
  430MOL0     C56643   0.038   1.220   6.687 -0.3355 -0.2880  0.3498
  430MOL0     C56644   0.060   1.135   6.558 -0.1586  0.2718 -0.2979
  430MOL0     N56645  -0.042   1.164   6.459 -0.1298  0.2585  0.9480
  430MOL0     C56646  -0.170   1.141   6.485 -0.3828 -0.6461 -0.6699
  430MOL0     C56647  -0.230   1.204   6.377  0.0923  0.2504  0.2105
  430MOL0     C56648  -0.373   1.214   6.346 -0.4651  0.6151 -0.3295
  430MOL0     C56649  -0.464   1.131   6.450 -0.2202  0.3822  0.4326
  430MOL0     C56650  -0.610   1.100   6.403  0.2797  0.1498 -0.6037
  430MOL0     C56651  -0.704   1.214   6.432  0.3046  0.6061 -0.1258
  430MOL0     O56652  -0.798   1.229   6.319 -0.9870  0.2262  0.4311
  430MOL0     C56653  -0.918   1.171   6.322  1.4280 -0.0420  0.5196
  430MOL0     C56654  -1.021   1.237   6.256 -0.3741 -0.9022 -0.4082
  430MOL0     C56655  -1.148   1.181   6.237 -0.2237  0.0441 -0.1144
  430MOL0     C56656  -1.177   1.059   6.302 -0.0978  0.4825 -0.2017
  430MOL0     C56657  -1.311   1.006   6.288  0.2081 -0.1822 -0.3615
  430MOL0     O56658  -1.378   1.048   6.174 -0.3046  0.0774 -0.9250
  430MOL0     C56659  -1.507   0.997   6.159 -0.5577  0.3892  0.2888
  430MOL0     C56660  -1.536   0.860   6.157 -0.3306  0.3221 -0.7561
  430MOL0     C56661  -1.671   0.821   6.149  0.9775  0.0210 -0.1620
  430MOL0     C56662  -1.780   0.908   6.160 -0.5297  0.1071 -0.2200
  430MOL0     O56663  -1.909   0.859   6.156 -0.4272  0.2624 -0.0682
  430MOL0     C56664  -2.020   0.946   6.161 -0.5687  0.3941  0.2101
  430MOL0     C56665  -2.138   0.862   6.147 -0.3038  0.3465  0.1643
  430MOL0     C56666  -2.161   0.819   5.999 -0.3525 -0.1021 -0.5426
  430MOL0     C56667  -2.263   0.706   5.994 -1.0904 -0.6399  0.0222
  430MOL0     C56668  -2.290   0.656   5.852 -0.6511 -0.8414 -0.4157
  430MOL0     C56669  -2.409   0.574   5.816  0.2090 -0.3022  0.8187
  430MOL0     C56670  -2.408   0.516   5.686 -0.7394  0.2075  0.5189
  430MOL0     C56671  -2.540   0.462   5.642  0.2370  0.2682 -0.4317
  430MOL0    Cl56672  -2.584   0.310   5.734  0.0748  0.1643  0.4413
  430MOL0     C56673  -1.744   1.046   6.157  0.5622 -0.3634  0.4041
  430MOL0     C56674  -1.611   1.087   6.157 -0.1192 -0.8163 -0.3979
  430MOL0     O56675  -1.364   0.941   6.379 -0.2202 -0.0111  0.1821
  430MOL0     C56676  -1.075   1.002   6.375 -0.0273  0.7154  0.0168
  430MOL0     C56677  -0.947   1.050   6.382 -0.2232 -0.2317 -0.5675
  430MOL0     N56678  -0.133   1.261   6.294  0.6508  0.0419 -1.4460
  430MOL0     N56679  -0.021   1.235   6.344  0.1234 -0.2319 -0.1171
  430MOL0     C56680   0.683   1.964   6.779  0.2390 -0.1062  0.0672
  430MOL0     C56681   0.796   2.003   6.855  0.3651 -0.5733 -0.8466
  430MOL0     C56682   1.144   2.033   7.067  0.2733 -0.8945 -0.0142
  430MOL0     C56683   1.270   1.972   7.034  0.3593 -0.8131 -0.0166
  430MOL0     C56684   1.390   2.025   7.065  0.0868  0.5424 -0.9597
  430MOL0     C56685   1.389   2.139   7.148 -0.7430  0.3044  1.1258
  430MOL0     O56686   1.505   2.199   7.196 -0.0901  0.3024  0.1563
  430MOL0     C56687   1.625   2.190   7.122 -0.1865 -0.2489  0.0308
  430MOL0     C56688   1.748   2.244   7.195 -0.9997  0.5897 -0.2703
  430MOL0     C56689   1.752   2.172   7.329 -0.7045 -0.1007 -0.6070
  430MOL0     C56690   1.885   2.201   7.405 -1.2022  0.1063 -0.1701
  430MOL0     C56691   1.881   2.149   7.547  0.5264  0.3350  0.3765
  430MOL0     C56692   1.875   2.092   7.661 -0.3467 -0.0952 -0.0917
  430MOL0     C56693   1.272   2.200   7.185 -0.4003 -0.2525  0.3199
  430MOL0     C56694   1.149   2.158   7.147 -1.0556  0.7269  0.0283
  430MOL0     H56695   0.652   2.000   7.163 -0.8866  1.6551 -0.1580
  430MOL0     H56696   0.462   1.919   7.041  0.8676 -2.0784  0.0904
  430MOL0     H56697   0.354   1.745   6.880 -2.8609  0.1305 -0.2502
  430MOL0     H56698   0.465   1.709   6.738  3.2760  3.1714  0.7577
  430MOL0     H56699   0.290   1.801   6.595  0.8795  3.0380 -0.0964
  430MOL0     H56700   0.218   1.878   6.731  0.2946 -1.2434  1.5817
  430MOL0     H56701   0.087   1.671   6.690 -0.4227 -2.3805 -1.7663
  430MOL0     H56702   0.196   1.610   6.821  0.1106  0.0747  0.1796
  430MOL0     H56703   0.198   1.544   6.530  2.1041 -1.2554 -1.1274
  430MOL0     H56704   0.350   1.548   6.609 -0.6161  0.6816 -0.0778
  430MOL0     H56705   0.248   1.394   6.793 -0.1271  0.2910 -0.0947
  430MOL0     H56706   0.265   1.311   6.643 -1.3963 -0.1333 -0.6030
  430MOL0     H56707   0.028   1.408   6.586  0.6089 -3.4727 -1.5845
  430MOL0     H56708   0.013   1.423   6.765  1.5509 -0.4800  0.7828
  430MOL0     H56709   0.111   1.179   6.758  1.3356  0.4090 -0.8845
  430MOL0     H56710  -0.065   1.204   6.718 -1.4586 -1.5999 -3.4675
  430MOL0     H56711   0.054   1.030   6.589  2.0897  0.0185 -0.5596
  430MOL0     H56712   0.164   1.150   6.528 -0.3591  1.3382 -0.5167
  430MOL0     H56713  -0.226   1.079   6.554 -0.7836 -1.3817 -1.6177
  430MOL0     H56714  -0.379   1.171   6.246  0.9893  3.0939 -1.5474
  430MOL0     H56715  -0.405   1.318   6.330  0.8336  0.6278 -3.4149
  430MOL0     H56716  -0.470   1.196   6.537 -0.5793  1.8000 -0.6034
  430MOL0     H56717  -0.412   1.035   6.458  1.3878  1.0550 -1.2354
  430MOL0     H56718  -0.602   1.069   6.298  4.3687  0.7492 -0.6085
  430MOL0     H56719  -0.648   1.018   6.464  2.0798 -1.3218 -1.3932
  430MOL0     H56720  -0.645   1.303   6.452  1.0532 -0.4674  2.9020
  430MOL0     H56721  -0.770   1.189   6.515 -2.8909 -5.2639 -3.6606
  430MOL0     H56722  -1.007   1.337   6.215 -2.8498 -0.7805 -1.1076
  430MOL0     H56723  -1.225   1.233   6.181 -0.7491 -1.1469 -0.5304
  430MOL0     H56724  -1.458   0.785   6.165  0.5779  1.3366  0.2421
  430MOL0     H56725  -1.694   0.715   6.142 -0.9543  0.4315 -0.4542
  430MOL0     H56726  -2.022   1.017   6.079 -2.1706  0.8645  0.6108
  430MOL0     H56727  -2.025   0.986   6.263  0.0791  3.1082 -0.7366
  430MOL0     H56728  -2.233   0.905   6.182 -1.9388 -1.8044 -1.3808
  430MOL0     H56729  -2.115   0.770   6.201 -0.8278 -0.0909 -0.3458
  430MOL0     H56730  -2.069   0.775   5.959 -0.2113  1.0126 -1.5126
  430MOL0     H56731  -2.180   0.909   5.940 -0.1075 -1.1412 -2.2520
  430MOL0     H56732  -2.236   0.629   6.067 -0.9642 -0.5581  0.0615
  430MOL0     H56733  -2.355   0.752   6.030  0.5866  1.2663  2.1387
  430MOL0     H56734  -2.201   0.596   5.831  0.5705  1.1534 -1.2308
  430MOL0     H56735  -2.282   0.747   5.791 -3.7844  1.4094  2.1846
  430MOL0     H56736  -2.494   0.643   5.823 -2.0936 -2.4097 -3.1198
  430MOL0     H56737  -2.420   0.495   5.890  2.2054 -1.4538 -0.0545
  430MOL0     H56738  -2.385   0.602   5.623 -1.3738  1.1189  1.4975
  430MOL0     H56739  -2.326   0.443   5.686 -0.2801  0.5330 -2.9902
  430MOL0     H56740  -2.536   0.440   5.535 -0.0638  2.8118 -1.0314
  430MOL0     H56741  -2.619   0.535   5.660  0.3353 -0.2620  2.7063
  430MOL0     H56742  -1.827   1.115   6.145  1.2119  0.9406  2.8721
  430MOL0     H56743  -1.585   1.193   6.155  0.5996 -0.9965 -1.6799
  430MOL0     H56744  -1.094   0.911   6.432 -2.2128  1.8122  1.1711
  430MOL0     H56745  -0.868   0.999   6.436  1.7645  2.7222 -0.4900
  430MOL0     H56746   0.698   1.950   6.672  0.4149 -0.1219  0.0931
  430MOL0     H56747   0.883   2.038   6.801 -1.0580  2.0738 -1.5907
  430MOL0     H56748   1.268   1.878   6.980  0.2882  0.2349 -1.9130
  430MOL0     H56749   1.468   1.952   7.041 -1.9440 -1.8281 -0.7622
  430MOL0     H56750   1.603   2.252   7.034 -0.2147  2.0847  1.5798
  430MOL0     H56751   1.654   2.088   7.097 -2.4124 -0.5942 -1.3498
  430MOL0     H56752   1.840   2.225   7.140 -0.3281 -2.5313  1.6700
  430MOL0     H56753   1.750   2.352   7.211  2.0041  0.2795  2.4387
  430MOL0     H56754   1.739   2.065   7.314 -0.2707  0.0822 -2.5393
  430MOL0     H56755   1.671   2.206   7.394 -0.3489  2.7023 -1.4668
  430MOL0     H56756   1.964   2.152   7.347 -0.8828  0.4651 -0.0413
  430MOL0     H56757   1.905   2.308   7.412  1.2617 -0.3763  1.0611
  430MOL0     H56758   1.878   2.033   7.750 -1.0676  0.1731  0.1198
  430MOL0     H56759   1.281   2.286   7.250  1.9426 -0.4195  0.2803
  430MOL0     H56760   1.060   2.208   7.184 -0.8210  1.3308 -0.2180
  431MOL0     O56761   7.164   4.545   8.142  0.3343 -0.5632 -0.8089
  431MOL0     C56762   7.213   4.603   8.047  0.3793  0.1974 -0.2706
  431MOL0     O56763   7.149   4.641   7.934 -0.0613 -0.8971  0.2177
  431MOL0     C56764   7.018   4.677   7.933  0.1696  0.2990 -0.1857
  431MOL0     C56765   6.933   4.694   8.046  0.7815 -0.5666  0.0078
  431MOL0     C56766   6.802   4.741   8.042 -1.1630 -0.3146 -0.7326
  431MOL0     C56767   6.747   4.774   7.920 -0.7906 -0.1873 -0.4218
  431MOL0     O56768   6.623   4.816   7.909  0.1643 -0.0920 -0.8081
  431MOL0     C56769   6.547   4.847   8.030  0.7547  0.0952  0.0224
  431MOL0     C56770   6.408   4.891   7.990  0.0362  0.3453  0.1972
  431MOL0     C56771   6.412   5.027   7.920 -0.0838  0.2179  0.1646
  431MOL0     C56772   6.473   5.146   7.996 -0.7257 -0.2720 -0.0462
  431MOL0     C56773   6.446   5.285   7.943  0.6794 -0.6039 -0.0621
  431MOL0     C56774   6.466   5.391   8.050 -0.3450 -0.3537 -0.0151
  431MOL0     C56775   6.609   5.388   8.099 -0.4695  0.6302  0.5592
  431MOL0     C56776   6.671   5.519   8.159  0.2704 -0.1635 -0.0417
  431MOL0     N56777   6.633   5.524   8.303 -0.2047  0.3175 -0.0933
  431MOL0     C56778   6.504   5.546   8.347 -0.4087 -0.8305  0.1950
  431MOL0     C56779   6.516   5.524   8.483  0.0896 -0.5654  0.7552
  431MOL0     C56780   6.405   5.520   8.586  0.4919  0.7430 -0.4206
  431MOL0     C56781   6.302   5.417   8.560 -0.9289  0.2201  0.1093
  431MOL0     C56782   6.184   5.423   8.660  0.0725 -0.7005 -0.2990
  431MOL0     C56783   6.074   5.330   8.611  0.4799  0.0325  0.0934
  431MOL0     O56784   5.994   5.392   8.515  0.8828 -0.2033  0.4995
  431MOL0     C56785   5.890   5.467   8.551  0.3790  0.2537 -0.4785
  431MOL0     C56786   5.849   5.484   8.682  0.2786 -0.4514  0.5050
  431MOL0     C56787   5.723   5.553   8.711 -0.5688 -0.9577  0.1291
  431MOL0     C56788   5.651   5.601   8.598  0.0338  0.3318 -0.5135
  431MOL0     C56789   5.517   5.658   8.627  0.3751 -1.3569 -0.0314
  431MOL0     O56790   5.435   5.703   8.530  0.3004 -0.3854  0.4882
  431MOL0     C56791   5.303   5.725   8.564 -0.2960  0.2559  0.3480
  431MOL0     C56792   5.226   5.800   8.473  0.6942 -0.3938  0.7069
  431MOL0     C56793   5.085   5.818   8.482  0.0169 -0.0846  0.1633
  431MOL0     C56794   5.023   5.734   8.576 -1.4098 -0.6504 -0.1858
  431MOL0     O56795   4.882   5.722   8.585  0.0079 -0.5562  0.0747
  431MOL0     C56796   4.835   5.664   8.472  0.5258 -0.7524  0.4144
  431MOL0     C56797   4.719   5.560   8.519  0.0092  0.0971  0.2870
  431MOL0     C56798   4.642   5.499   8.396  0.9976  1.2346  0.5696
  431MOL0     C56799   4.522   5.424   8.462  0.5709 -0.0257 -0.4645
  431MOL0     C56800   4.440   5.354   8.351 -0.1433 -0.5962  0.1010
  431MOL0     C56801   4.516   5.237   8.281 -0.2649  0.1604 -0.2469
  431MOL0     C56802   4.426   5.122   8.224 -0.5554 -0.4431  0.3776
  431MOL0     C56803   4.360   5.171   8.096 -0.7793 -0.6676  0.0104
  431MOL0    Cl56804   4.461   5.169   7.950 -0.4041 -0.3814  0.0412
  431MOL0     C56805   5.095   5.670   8.667  0.3076  0.1821  0.4422
  431MOL0     C56806   5.230   5.657   8.663  0.4014 -0.8824  0.6331
  431MOL0     O56807   5.496   5.667   8.749 -0.1927 -0.0626  0.7950
  431MOL0     C56808   5.697   5.592   8.468  0.4677  0.1844  0.2952
  431MOL0     C56809   5.822   5.530   8.447  0.2830 -0.3681  0.6953
  431MOL0     N56810   6.650   5.512   8.514 -0.0848 -0.6369 -1.0085
  431MOL0     N56811   6.718   5.508   8.408  0.6910  0.9290  0.5003
  431MOL0     C56812   6.822   4.752   7.804 -0.2863 -0.4853 -1.1457
  431MOL0     C56813   6.953   4.704   7.819  0.4728 -0.0530  0.4318
  431MOL0     C56814   7.361   4.619   8.044 -0.2105  0.7468 -0.0488
  431MOL0     C56815   7.423   4.695   7.948 -0.5692  1.0245 -0.1189
  431MOL0     C56816   7.565   4.697   7.939 -0.9237 -0.3789 -0.4445
  431MOL0     C56817   7.644   4.633   8.029  0.8304  0.0485 -0.2330
  431MOL0     O56818   7.783   4.635   8.019  0.2177 -0.0807  0.4338
  431MOL0     C56819   7.831   4.551   7.910  0.2275  0.0266  0.5088
  431MOL0     C56820   7.979   4.526   7.922  0.3029 -0.0420  0.8372
  431MOL0     C56821   8.008   4.386   7.980  0.3383  0.0108 -0.0024
  431MOL0     C56822   8.155   4.344   7.942 -1.0518 -0.1022 -0.3641
  431MOL0     C56823   8.149   4.295   7.803 -0.3826  0.3122 -0.3557
  431MOL0     C56824   8.139   4.245   7.693 -0.2624  0.2742  0.0701
  431MOL0     C56825   7.581   4.559   8.130  0.0101  0.7881  0.8075
  431MOL0     C56826   7.444   4.547   8.132  0.5542  0.4877  1.2990
  431MOL0     H56827   6.976   4.681   8.145  0.3586  0.0462  0.2800
  431MOL0     H56828   6.747   4.744   8.135  0.1953 -2.1982  0.2102
  431MOL0     H56829   6.595   4.936   8.073 -1.7067  1.7735 -0.4988
  431MOL0     H56830   6.536   4.755   8.088 -4.4478 -0.0079 -0.6275
  431MOL0     H56831   6.361   4.906   8.088  0.6184 -1.9980  0.8964
  431MOL0     H56832   6.351   4.819   7.931 -0.8168  0.8967  0.3169
  431MOL0     H56833   6.307   5.053   7.901 -0.6283 -2.1502 -0.4457
  431MOL0     H56834   6.462   5.023   7.823  0.4334  4.3469  0.0911
  431MOL0     H56835   6.453   5.135   8.103  3.5977 -1.7455  0.8230
  431MOL0     H56836   6.583   5.144   7.989 -0.7809  1.3186 -3.5544
  431MOL0     H56837   6.344   5.288   7.904  0.4479  2.1091  0.5227
  431MOL0     H56838   6.511   5.312   7.860  0.6971 -2.9211 -0.8745
  431MOL0     H56839   6.392   5.373   8.129  0.7599 -0.0538  1.1033
  431MOL0     H56840   6.447   5.488   8.002 -0.8575 -0.6121 -0.3461
  431MOL0     H56841   6.631   5.295   8.152  2.0122  0.7838 -0.0619
  431MOL0     H56842   6.668   5.376   8.008 -1.5037 -1.1339  0.0759
  431MOL0     H56843   6.653   5.613   8.106 -1.7791 -1.0839 -1.1300
  431MOL0     H56844   6.780   5.513   8.158  0.3750  1.3037  0.8016
  431MOL0     H56845   6.418   5.575   8.286  0.6936 -2.0506 -2.0767
  431MOL0     H56846   6.345   5.612   8.584 -0.0694  0.4847  1.7810
  431MOL0     H56847   6.440   5.516   8.690 -1.0310  2.5173  0.2178
  431MOL0     H56848   6.345   5.316   8.560  0.2776  0.6918 -1.3077
  431MOL0     H56849   6.270   5.441   8.459 -1.6288 -1.5110 -0.1096
  431MOL0     H56850   6.222   5.391   8.757  1.4457 -0.0641 -0.6118
  431MOL0     H56851   6.146   5.525   8.651 -2.9649 -1.8409 -2.2130
  431MOL0     H56852   6.020   5.297   8.700 -0.8128 -0.4150 -0.8358
  431MOL0     H56853   6.127   5.248   8.563 -1.4683 -2.7352  2.3175
  431MOL0     H56854   5.902   5.451   8.771 -1.7987 -2.9300  0.9581
  431MOL0     H56855   5.696   5.572   8.814 -0.2605  3.2625 -0.3794
  431MOL0     H56856   5.286   5.843   8.393 -0.8230 -0.9267 -0.7788
  431MOL0     H56857   5.020   5.881   8.422  0.0043 -1.2283 -1.0821
  431MOL0     H56858   4.903   5.614   8.402 -1.2074 -0.4139 -1.6240
  431MOL0     H56859   4.789   5.745   8.416 -0.5293 -2.1457 -0.8051
  431MOL0     H56860   4.650   5.612   8.586  1.7232  1.8251  0.8139
  431MOL0     H56861   4.770   5.476   8.566 -0.2328 -1.2049 -1.6626
  431MOL0     H56862   4.694   5.424   8.336 -0.5398  0.5763  0.0146
  431MOL0     H56863   4.609   5.569   8.318 -0.1015  0.0604 -0.0595
  431MOL0     H56864   4.565   5.342   8.521 -0.5830 -2.6025 -2.9395
  431MOL0     H56865   4.459   5.489   8.523  1.2632  1.4143 -1.2445
  431MOL0     H56866   4.402   5.419   8.272  1.8436  0.5040 -0.0114
  431MOL0     H56867   4.357   5.308   8.407 -0.4900 -0.9085 -0.6508
  431MOL0     H56868   4.577   5.179   8.350 -1.4822 -1.9840 -0.8635
  431MOL0     H56869   4.576   5.285   8.203  4.0376 -1.2034  1.9451
  431MOL0     H56870   4.482   5.030   8.206  0.0330 -0.9987  4.2598
  431MOL0     H56871   4.352   5.102   8.302 -0.7296 -0.3833  0.2294
  431MOL0     H56872   4.323   5.272   8.116  1.1646  0.0924 -0.0961
  431MOL0     H56873   4.274   5.104   8.081 -2.6660  1.6376 -0.1455
  431MOL0     H56874   5.037   5.608   8.735 -0.1929  1.1869  0.9576
  431MOL0     H56875   5.277   5.590   8.734 -1.4460 -0.7339  2.0778
  431MOL0     H56876   5.657   5.634   8.377  0.7150  2.7123  1.2823
  431MOL0     H56877   5.862   5.523   8.346  0.2114  0.0364  0.6396
  431MOL0     H56878   6.787   4.776   7.704  2.8022  1.1910 -1.9926
  431MOL0     H56879   7.019   4.694   7.733 -1.0196 -2.7012 -0.5169
  431MOL0     H56880   7.370   4.765   7.884  0.2437  1.5318 -0.2551
  431MOL0     H56881   7.614   4.765   7.871  0.3326  0.7098  1.4345
  431MOL0     H56882   7.816   4.612   7.821  0.9713 -1.6913 -0.8638
  431MOL0     H56883   7.779   4.455   7.903 -0.8498  0.6428 -0.1510
  431MOL0     H56884   8.016   4.530   7.819  0.1990 -0.2250  0.7910
  431MOL0     H56885   8.025   4.609   7.976 -0.3771  0.3637  0.7961
  431MOL0     H56886   7.932   4.314   7.949 -1.4465  1.1922  1.4147
  431MOL0     H56887   7.986   4.387   8.087  1.2714 -2.5809  0.2807
  431MOL0     H56888   8.226   4.427   7.928  0.3929 -1.4764 -1.5757
  431MOL0     H56889   8.194   4.270   8.013 -0.4173 -0.8815 -1.4843
  431MOL0     H56890   8.122   4.202   7.596 -1.7659 -0.7804  0.7597
  431MOL0     H56891   7.637   4.504   8.205 -2.5627  0.6050  2.7323
  431MOL0     H56892   7.398   4.499   8.218 -0.8521 -0.7005 -0.0556
  432MOL0     O56893   1.014   7.391  11.236  0.4848 -0.4913  0.9163
  432MOL0     C56894   1.002   7.415  11.116  0.2638  0.1947  0.0261
  432MOL0     O56895   0.884   7.457  11.057  0.3606  0.6206 -0.1562
  432MOL0     C56896   0.770   7.487  11.126 -0.7004  0.0740 -0.0522
  432MOL0     C56897   0.660   7.491  11.039  0.2618  0.0737  0.0476
  432MOL0     C56898   0.538   7.510  11.085 -0.3023 -0.5766 -0.1749
  432MOL0     C56899   0.515   7.538  11.218 -0.6523 -0.5682 -0.6376
  432MOL0     O56900   0.380   7.571  11.251 -0.5983  0.8414  0.3902
  432MOL0     C56901   0.330   7.540  11.375 -0.2661 -0.0069 -0.5009
  432MOL0     C56902   0.197   7.609  11.389 -0.7158 -0.2793 -0.8588
  432MOL0     C56903   0.082   7.534  11.322  0.0843 -0.4621 -0.3413
  432MOL0     C56904  -0.050   7.595  11.362  0.7350 -0.1561 -0.6067
  432MOL0     C56905  -0.168   7.508  11.319 -0.3531  0.0833  0.1879
  432MOL0     C56906  -0.166   7.374  11.385 -0.5370  0.1185 -0.4023
  432MOL0     C56907  -0.146   7.366  11.534  0.3703 -0.4382  0.2135
  432MOL0     C56908  -0.247   7.444  11.615 -0.2969  0.4809 -0.2107
  432MOL0     N56909  -0.388   7.407  11.602  0.2032 -0.3575  0.3137
  432MOL0     C56910  -0.471   7.489  11.533  0.1405 -0.2345  1.1901
  432MOL0     C56911  -0.577   7.408  11.505  0.8461 -0.1470  0.4247
  432MOL0     C56912  -0.712   7.427  11.449 -0.3659 -1.0849  0.0625
  432MOL0     C56913  -0.799   7.506  11.546 -0.5172  0.5472 -0.1270
  432MOL0     C56914  -0.907   7.425  11.626 -0.8392  0.4247  0.7177
  432MOL0     C56915  -0.845   7.319  11.715 -0.1404 -1.3086  0.3777
  432MOL0     O56916  -0.941   7.264  11.806  0.0559  0.1963 -0.7567
  432MOL0     C56917  -1.042   7.185  11.754  0.3839  0.6851  0.4846
  432MOL0     C56918  -1.019   7.049  11.737 -0.9195 -0.1424  1.4106
  432MOL0     C56919  -1.120   6.969  11.687 -0.4367  0.2340  0.7916
  432MOL0     C56920  -1.249   7.017  11.661  0.6115 -0.4107  0.8523
  432MOL0     C56921  -1.362   6.924  11.608 -0.8554  0.1714  0.5367
  432MOL0     O56922  -1.483   6.983  11.586 -0.8977 -0.5835  0.0820
  432MOL0     C56923  -1.584   6.899  11.549  0.5741  0.3108 -0.4988
  432MOL0     C56924  -1.631   6.812  11.639  1.3481  0.1372  0.3994
  432MOL0     C56925  -1.743   6.731  11.593 -0.4318 -0.9629 -0.7718
  432MOL0     C56926  -1.794   6.742  11.462 -0.1373  0.6996  0.3861
  432MOL0     O56927  -1.894   6.663  11.414 -0.3957  0.2319  0.4187
  432MOL0     C56928  -1.998   6.636  11.499  0.2196  0.1108 -0.2158
  432MOL0     C56929  -2.123   6.638  11.405 -0.4981  0.0946  0.1081
  432MOL0     C56930  -2.162   6.775  11.352  0.4697  0.3697 -0.2542
  432MOL0     C56931  -2.231   6.857  11.460 -0.3512 -0.1557  1.1147
  432MOL0     C56932  -2.270   6.998  11.397 -0.2229 -0.1631  0.1969
  432MOL0     C56933  -2.158   7.080  11.328  0.0445 -0.6860 -0.2209
  432MOL0     C56934  -2.026   7.086  11.414 -0.4155  0.4781 -0.4933
  432MOL0     C56935  -1.918   7.174  11.373  0.3377 -0.0731  0.2563
  432MOL0    Cl56936  -1.966   7.341  11.385  0.0393  0.3314  0.4524
  432MOL0     C56937  -1.735   6.834  11.368  0.8390  0.3089  0.0168
  432MOL0     C56938  -1.630   6.911  11.417  0.7078  0.4519 -0.5061
  432MOL0     O56939  -1.333   6.807  11.573  0.1435  0.3730  0.2648
  432MOL0     C56940  -1.274   7.155  11.689 -0.3786 -0.2595  0.2962
  432MOL0     C56941  -1.172   7.232  11.731 -0.2852  0.3050 -0.9594
  432MOL0     N56942  -0.559   7.291  11.578  0.5150  0.1726  0.0292
  432MOL0     N56943  -0.444   7.290  11.646 -0.1281 -0.2320  0.6732
  432MOL0     C56944   0.618   7.534  11.312 -0.1358 -0.2435  0.0963
  432MOL0     C56945   0.742   7.505  11.265 -0.2971  0.5613 -0.5746
  432MOL0     C56946   1.129   7.398  11.045 -0.2446 -0.4360  0.3124
  432MOL0     C56947   1.250   7.352  11.107 -0.0834 -0.1941 -0.5950
  432MOL0     C56948   1.366   7.355  11.036 -1.6480 -0.3542 -0.5307
  432MOL0     C56949   1.370   7.392  10.899  0.7215  0.2526  0.1114
  432MOL0     O56950   1.483   7.386  10.814 -0.2883 -0.1363  0.4745
  432MOL0     C56951   1.610   7.363  10.872 -0.4160 -0.1788 -0.2176
  432MOL0     C56952   1.717   7.409  10.768 -0.1981 -0.2333  0.0884
  432MOL0     C56953   1.866   7.389  10.823  0.0478  0.5387 -0.1437
  432MOL0     C56954   1.948   7.317  10.721 -0.5081  0.2864 -0.0523
  432MOL0     C56955   2.094   7.310  10.750  0.1034  0.2172 -0.0639
  432MOL0     C56956   2.212   7.311  10.762  0.5571 -0.3151 -0.4545
  432MOL0     C56957   1.255   7.434  10.838  0.1880 -0.3229 -0.2299
  432MOL0     C56958   1.139   7.432  10.911  0.7867 -0.4048 -0.4796
  432MOL0     H56959   0.673   7.471  10.933 -1.2295 -1.1801  0.0644
  432MOL0     H56960   0.443   7.499  11.033 -0.6301 -0.9804  0.4911
  432MOL0     H56961   0.398   7.575  11.454  0.2290 -1.2567 -0.3480
  432MOL0     H56962   0.326   7.431  11.387  2.2555 -0.1210 -0.1757
  432MOL0     H56963   0.213   7.711  11.353  1.1724 -0.1689  0.1350
  432MOL0     H56964   0.173   7.614  11.495  0.5306 -2.6047 -0.4070
  432MOL0     H56965   0.092   7.429  11.350  3.0646 -0.3734 -0.6841
  432MOL0     H56966   0.097   7.530  11.213  1.6299 -0.6176 -0.1476
  432MOL0     H56967  -0.059   7.616  11.469 -4.0761 -0.7454 -0.6690
  432MOL0     H56968  -0.068   7.689  11.308  1.7973  0.2324 -0.3153
  432MOL0     H56969  -0.175   7.495  11.211  1.2949 -1.4087  0.2213
  432MOL0     H56970  -0.256   7.556  11.362 -0.3254  0.6985 -0.4319
  432MOL0     H56971  -0.095   7.304  11.341 -0.9730 -1.7164  1.6257
  432MOL0     H56972  -0.264   7.330  11.368 -2.0694  2.2290  2.1297
  432MOL0     H56973  -0.148   7.260  11.563  1.5398 -0.5816 -0.1827
  432MOL0     H56974  -0.043   7.402  11.542  0.4235 -0.4197 -0.5463
  432MOL0     H56975  -0.219   7.549  11.606 -0.0140  0.2143 -3.6700
  432MOL0     H56976  -0.220   7.422  11.719  1.4619  3.5550  0.1046
  432MOL0     H56977  -0.473   7.589  11.490 -1.0582 -0.2754  1.0960
  432MOL0     H56978  -0.757   7.331  11.422 -0.6352 -1.4578  1.7499
  432MOL0     H56979  -0.702   7.488  11.358  1.4602 -2.1874 -0.5143
  432MOL0     H56980  -0.848   7.575  11.477 -2.5467  1.2586  1.9046
  432MOL0     H56981  -0.735   7.564  11.613  2.2065 -2.7804  0.4638
  432MOL0     H56982  -0.950   7.487  11.706 -0.7815  0.6340  0.5874
  432MOL0     H56983  -0.979   7.381  11.557  0.3132  1.9784 -1.6119
  432MOL0     H56984  -0.762   7.369  11.766 -1.3640 -0.0357  1.1802
  432MOL0     H56985  -0.792   7.245  11.654  2.5976 -0.5850  1.6930
  432MOL0     H56986  -0.922   7.003  11.756  0.4632  1.3500 -1.3299
  432MOL0     H56987  -1.107   6.864  11.666 -2.9251 -0.4705  2.4612
  432MOL0     H56988  -1.602   6.802  11.743 -3.2572 -1.5534  1.7756
  432MOL0     H56989  -1.775   6.668  11.675  1.6203  0.6336  1.3935
  432MOL0     H56990  -1.998   6.714  11.576 -1.0701  0.8729 -0.9594
  432MOL0     H56991  -1.962   6.543  11.544 -0.3365  0.0594  0.1415
  432MOL0     H56992  -2.208   6.589  11.455 -2.2022  0.5172 -2.2165
  432MOL0     H56993  -2.094   6.571  11.325  1.2108  0.9271 -0.0097
  432MOL0     H56994  -2.227   6.756  11.266  1.8269  1.1062 -1.5107
  432MOL0     H56995  -2.074   6.819  11.303  1.5036 -0.8067  0.4745
  432MOL0     H56996  -2.323   6.806  11.489 -1.9454  0.6394 -2.0867
  432MOL0     H56997  -2.157   6.885  11.536  1.2525 -0.6622 -0.2102
  432MOL0     H56998  -2.303   7.060  11.480  2.5883  0.0818  1.2378
  432MOL0     H56999  -2.350   6.980  11.324  1.1114  0.3148 -1.4687
  432MOL0     H57000  -2.192   7.184  11.318 -0.6088 -1.1025 -3.2114
  432MOL0     H57001  -2.137   7.026  11.235  0.6445  1.3479 -1.3253
  432MOL0     H57002  -2.040   7.117  11.518 -1.0649  3.4466 -1.3943
  432MOL0     H57003  -1.975   6.989  11.424  1.8425  1.5770 -0.5193
  432MOL0     H57004  -1.893   7.139  11.273 -0.2005 -2.3231  0.8424
  432MOL0     H57005  -1.831   7.159  11.437 -0.8956  0.0056  2.0274
  432MOL0     H57006  -1.763   6.839  11.263  2.7741  1.8972 -0.4963
  432MOL0     H57007  -1.589   6.993  11.358  2.0963 -0.5879 -1.0547
  432MOL0     H57008  -1.375   7.189  11.667 -0.0598 -0.9238 -2.4424
  432MOL0     H57009  -1.189   7.339  11.738 -3.0915 -0.1037 -0.5811
  432MOL0     H57010   0.612   7.559  11.418  0.9271 -1.3483  0.4349
  432MOL0     H57011   0.818   7.505  11.343 -0.8496  0.8882 -0.0282
  432MOL0     H57012   1.247   7.334  11.214 -1.5556 -1.5028 -0.8157
  432MOL0     H57013   1.461   7.324  11.078 -0.1624  1.3859 -2.3904
  432MOL0     H57014   1.614   7.254  10.889 -2.0776 -0.1423  0.6156
  432MOL0     H57015   1.619   7.422  10.963  0.4606 -0.6058 -0.0146
  432MOL0     H57016   1.696   7.356  10.675  0.5193 -0.9790  0.3370
  432MOL0     H57017   1.710   7.515  10.743  1.4092 -0.3421 -0.9792
  432MOL0     H57018   1.862   7.331  10.915 -2.2391 -0.5597 -0.8573
  432MOL0     H57019   1.908   7.489  10.838  1.2304  0.1485 -0.7358
  432MOL0     H57020   1.910   7.215  10.708  1.7466 -0.9458  2.0636
  432MOL0     H57021   1.938   7.378  10.631 -0.0814 -2.7798 -2.3320
  432MOL0     H57022   2.319   7.303  10.762  0.4820 -1.8010 -1.0364
  432MOL0     H57023   1.260   7.463  10.734  0.3392 -0.2634 -0.2046
  432MOL0     H57024   1.048   7.468  10.863 -0.9432 -0.0014  2.7813
  433MOL0     O57025   2.005   7.297   5.440  0.4227  0.3367  0.1980
  433MOL0     C57026   2.004   7.348   5.324 -0.3211  0.2611  0.4071
  433MOL0     O57027   1.907   7.325   5.228 -0.1067  0.3089  0.3308
  433MOL0     C57028   1.782   7.281   5.268 -0.8283 -0.3008  0.2598
  433MOL0     C57029   1.740   7.215   5.385  0.0095 -0.1529  0.4193
  433MOL0     C57030   1.607   7.187   5.402 -0.1160 -0.0266  0.3194
  433MOL0     C57031   1.506   7.234   5.314 -1.1724 -0.1379 -0.1338
  433MOL0     O57032   1.373   7.220   5.332  0.2366  0.2279  0.7319
  433MOL0     C57033   1.329   7.150   5.452 -0.3581  0.0509 -0.8995
  433MOL0     C57034   1.176   7.115   5.444 -0.3818  0.2860 -0.9477
  433MOL0     C57035   1.106   7.205   5.531  0.8875  0.3669  0.2315
  433MOL0     C57036   0.960   7.161   5.543  0.2309 -0.0774  0.2759
  433MOL0     C57037   0.862   7.262   5.610 -0.0763  0.1440 -0.4850
  433MOL0     C57038   0.712   7.205   5.617 -0.6307 -0.6446 -0.2845
  433MOL0     C57039   0.711   7.052   5.660 -1.5162  0.0475  0.6392
  433MOL0     C57040   0.571   7.003   5.656  0.6799  0.5194  0.0491
  433MOL0     N57041   0.549   6.853   5.667 -0.3101  0.6946  0.4682
  433MOL0     C57042   0.587   6.753   5.586 -0.3998  0.1245 -0.5648
  433MOL0     C57043   0.523   6.643   5.634  0.1471  0.1118  0.4685
  433MOL0     C57044   0.530   6.503   5.580 -1.0917  0.5777 -0.8268
  433MOL0     C57045   0.618   6.401   5.661 -0.3837  0.2695  1.0379
  433MOL0     C57046   0.611   6.254   5.610  0.3464 -0.5417 -0.2151
  433MOL0     C57047   0.746   6.185   5.599  0.2096  0.8054  0.5582
  433MOL0     O57048   0.742   6.045   5.550  0.1409  0.0468  0.2682
  433MOL0     C57049   0.858   5.979   5.508  0.2740  0.2004 -0.2336
  433MOL0     C57050   0.821   5.861   5.445 -0.3756  0.5163 -0.2308
  433MOL0     C57051   0.922   5.774   5.412 -0.2479 -0.1642  0.0750
  433MOL0     C57052   1.063   5.807   5.436  0.5257 -0.0450 -0.2027
  433MOL0     C57053   1.162   5.724   5.375  0.3102 -0.5206 -0.0022
  433MOL0     O57054   1.291   5.777   5.378  0.5538  0.8545 -0.3344
  433MOL0     C57055   1.396   5.693   5.332  0.5123 -0.3261  0.5742
  433MOL0     C57056   1.414   5.571   5.386  0.3985  0.2484  0.2239
  433MOL0     C57057   1.533   5.502   5.367 -0.5453 -0.5863  0.2921
  433MOL0     C57058   1.637   5.556   5.281 -0.1580 -0.1583  0.4163
  433MOL0     O57059   1.754   5.491   5.286 -0.3194  0.1826  0.1629
  433MOL0     C57060   1.851   5.510   5.184  0.2146 -0.5469  0.3410
  433MOL0     C57061   1.975   5.411   5.197  0.3942 -0.2825  0.9414
  433MOL0     C57062   1.933   5.268   5.164  0.5053 -0.7869  0.3824
  433MOL0     C57063   2.031   5.149   5.202 -0.1394 -0.2556 -0.8711
  433MOL0     C57064   2.046   5.031   5.112  0.5505 -0.5996 -0.1510
  433MOL0     C57065   2.150   4.936   5.167  0.1142 -0.3447 -0.2395
  433MOL0     C57066   2.132   4.809   5.090  0.4832 -0.0444  0.3928
  433MOL0     C57067   2.262   4.727   5.105 -0.0282  0.1994  0.6662
  433MOL0    Cl57068   2.254   4.629   5.270  0.0456  0.5385 -0.2113
  433MOL0     C57069   1.619   5.681   5.223 -0.2563 -0.9166 -0.0305
  433MOL0     C57070   1.496   5.745   5.247  0.2952  0.0886 -0.1634
  433MOL0     O57071   1.122   5.613   5.320 -0.4370  0.3623 -0.5653
  433MOL0     C57072   1.095   5.934   5.496  0.0544 -0.1923 -0.3643
  433MOL0     C57073   0.995   6.018   5.531 -0.1737  0.1090  0.3669
  433MOL0     N57074   0.453   6.679   5.745 -0.4251 -0.5624 -0.0448
  433MOL0     N57075   0.475   6.804   5.768 -0.1231  0.5676 -0.1515
  433MOL0     C57076   1.547   7.292   5.197  0.8371  0.0050 -0.5950
  433MOL0     C57077   1.687   7.318   5.175 -0.6865 -0.7664  0.4169
  433MOL0     C57078   2.128   7.420   5.284 -0.0529  0.4284 -0.5629
  433MOL0     C57079   2.242   7.423   5.370  0.8308  0.0205  0.1673
  433MOL0     C57080   2.364   7.479   5.324  0.0172 -0.9622  0.0456
  433MOL0     C57081   2.369   7.537   5.195 -0.4809  0.3260  0.1382
  433MOL0     O57082   2.486   7.595   5.154  0.2572  0.2155 -0.0706
  433MOL0     C57083   2.604   7.517   5.162 -0.3454  0.0901 -0.4513
  433MOL0     C57084   2.603   7.444   5.032  0.5430  0.3647  0.1381
  433MOL0     C57085   2.723   7.352   5.022 -0.6515  0.4824  0.3591
  433MOL0     C57086   2.698   7.231   4.926  0.2613  0.5320  0.0628
  433MOL0     C57087   2.707   7.268   4.788 -0.0327  0.0069  0.1628
  433MOL0     C57088   2.710   7.307   4.672 -0.2443  0.5250  0.4735
  433MOL0     C57089   2.252   7.549   5.117 -0.4062 -0.0869  0.1526
  433MOL0     C57090   2.133   7.486   5.155  0.4294 -0.8516 -0.5206
  433MOL0     H57091   1.810   7.176   5.457 -0.6064 -0.3163  0.9404
  433MOL0     H57092   1.574   7.131   5.488 -1.2757  1.1077  0.6400
  433MOL0     H57093   1.335   7.205   5.546 -1.1275  1.5783 -1.6955
  433MOL0     H57094   1.379   7.053   5.461  1.0694  0.6883 -1.6724
  433MOL0     H57095   1.163   7.015   5.486  1.4745 -0.6038 -2.3493
  433MOL0     H57096   1.140   7.124   5.341  1.1287  3.9515 -1.3019
  433MOL0     H57097   1.116   7.309   5.500 -1.1462  1.0741  1.7040
  433MOL0     H57098   1.146   7.196   5.633  4.2382  1.8176 -0.8344
  433MOL0     H57099   0.917   7.133   5.446  1.2135  0.9308 -0.4805
  433MOL0     H57100   0.959   7.067   5.599 -1.7849 -0.1773  0.1449
  433MOL0     H57101   0.863   7.361   5.563 -0.4436  0.8561  0.9530
  433MOL0     H57102   0.903   7.289   5.707  0.9083  1.4203 -1.2230
  433MOL0     H57103   0.667   7.228   5.520 -3.6565  1.4803  1.4246
  433MOL0     H57104   0.661   7.266   5.693 -2.5979 -1.5380 -0.8188
  433MOL0     H57105   0.772   6.980   5.604  0.8459  0.2543  2.7641
  433MOL0     H57106   0.750   7.045   5.762 -3.4570  1.6674  1.5573
  433MOL0     H57107   0.536   7.027   5.556  1.3878  1.3743 -0.0100
  433MOL0     H57108   0.515   7.056   5.733 -1.4621  0.9629 -1.7072
  433MOL0     H57109   0.646   6.746   5.496  0.9134 -0.0849  0.2927
  433MOL0     H57110   0.551   6.499   5.473 -3.6577 -2.3778 -1.3415
  433MOL0     H57111   0.431   6.458   5.592  0.7560 -3.4025  1.4145
  433MOL0     H57112   0.585   6.391   5.765 -2.7554 -1.0138  0.2452
  433MOL0     H57113   0.723   6.431   5.655  0.3914 -2.2912  0.2942
  433MOL0     H57114   0.541   6.198   5.673 -1.2235  2.2030  0.6803
  433MOL0     H57115   0.566   6.252   5.510  2.9999  1.0037 -1.5405
  433MOL0     H57116   0.792   6.172   5.698  0.2207 -1.3759  0.3168
  433MOL0     H57117   0.812   6.241   5.532 -0.9918  1.2006 -0.3197
  433MOL0     H57118   0.719   5.837   5.416  0.3607 -0.5915 -2.1371
  433MOL0     H57119   0.884   5.688   5.359 -0.2722 -0.7393  1.0106
  433MOL0     H57120   1.340   5.526   5.452  3.1486 -2.6141  1.6654
  433MOL0     H57121   1.559   5.410   5.417 -1.2796 -1.5937 -1.0983
  433MOL0     H57122   1.890   5.609   5.209  0.2515  0.5138 -3.3925
  433MOL0     H57123   1.808   5.507   5.084 -0.8576 -0.8252  0.7954
  433MOL0     H57124   2.008   5.412   5.302  0.3069 -1.3118  0.9833
  433MOL0     H57125   2.056   5.454   5.138 -1.9175  2.3403 -0.5666
  433MOL0     H57126   1.916   5.259   5.056 -1.1268  2.2956  0.3006
  433MOL0     H57127   1.834   5.251   5.205  0.6707 -1.6745  0.4439
  433MOL0     H57128   2.128   5.195   5.217  1.0013 -2.5071 -0.8661
  433MOL0     H57129   1.988   5.123   5.300  1.6520  0.1191  0.0613
  433MOL0     H57130   2.081   5.064   5.014  1.3436 -2.4097 -0.5092
  433MOL0     H57131   1.950   4.981   5.094 -0.1862  1.5231 -2.6508
  433MOL0     H57132   2.130   4.935   5.275 -2.6171  4.3847 -0.4233
  433MOL0     H57133   2.249   4.978   5.150  0.3517 -1.0598 -0.6861
  433MOL0     H57134   2.044   4.754   5.125  1.5729 -0.0150  3.4927
  433MOL0     H57135   2.119   4.831   4.983 -1.4380 -3.5063 -0.2488
  433MOL0     H57136   2.346   4.795   5.096  0.2945 -0.3257 -0.4993
  433MOL0     H57137   2.269   4.639   5.040  2.0721  0.8921 -0.1147
  433MOL0     H57138   1.704   5.740   5.188  0.2853  0.5890  3.3796
  433MOL0     H57139   1.488   5.849   5.217 -1.4534 -0.5629 -2.2962
  433MOL0     H57140   1.192   5.972   5.525 -0.8429  1.9830  0.0309
  433MOL0     H57141   1.012   6.119   5.567  0.5655  0.0706  0.1400
  433MOL0     H57142   1.478   7.316   5.116  2.7565  0.7649 -2.1035
  433MOL0     H57143   1.722   7.357   5.080  1.9643 -1.8900  0.8444
  433MOL0     H57144   2.245   7.379   5.469  1.7744  2.0559  1.0951
  433MOL0     H57145   2.456   7.466   5.380  0.4899 -0.8495 -0.6952
  433MOL0     H57146   2.610   7.448   5.246  1.5130 -0.3173 -0.8896
  433MOL0     H57147   2.690   7.584   5.162 -0.2598 -0.0076 -1.1202
  433MOL0     H57148   2.512   7.384   5.032 -0.0656  1.2744  0.5473
  433MOL0     H57149   2.609   7.514   4.949 -0.1649  1.3697  0.9126
  433MOL0     H57150   2.742   7.305   5.118 -3.9578 -0.5743  0.6189
  433MOL0     H57151   2.811   7.411   4.992  0.7807 -1.0945  1.2432
  433MOL0     H57152   2.770   7.156   4.958 -0.5815  0.5087  2.0296
  433MOL0     H57153   2.599   7.188   4.942  0.6142  0.6217  2.9884
  433MOL0     H57154   2.704   7.340   4.571 -1.8796 -0.7577  0.1136
  433MOL0     H57155   2.252   7.600   5.021 -2.1339 -0.3661 -0.0302
  433MOL0     H57156   2.047   7.501   5.091  1.7039  4.3363 -1.4337
  434MOL0     O57157  10.190   7.449   3.959  0.6379 -1.0169  0.3030
  434MOL0     C57158  10.234   7.498   4.067 -0.4158  0.1027 -0.9056
  434MOL0     O57159  10.164   7.570   4.154 -0.9664 -0.1585 -0.4494
  434MOL0     C57160  10.036   7.585   4.123  0.1608 -0.1231  0.1554
  434MOL0     C57161   9.998   7.693   4.043  0.0212  0.2309  0.0192
  434MOL0     C57162   9.854   7.718   4.018 -0.6617 -0.2508  0.6391
  434MOL0     C57163   9.757   7.628   4.058  0.3259 -1.3843 -0.1806
  434MOL0     O57164   9.625   7.651   4.038  0.1538  0.0625  0.4796
  434MOL0     C57165   9.592   7.747   3.942  0.4081  0.4786 -0.0956
  434MOL0     C57166   9.439   7.733   3.913  0.8890 -0.1774  0.0775
  434MOL0     C57167   9.384   7.869   3.858  0.8280 -0.1574  0.7271
  434MOL0     C57168   9.234   7.854   3.834 -0.3255 -0.2455  0.6937
  434MOL0     C57169   9.179   7.985   3.786 -1.1367  0.1532 -0.7919
  434MOL0     C57170   9.042   7.959   3.718  0.3592  0.0561  0.3937
  434MOL0     C57171   8.972   8.097   3.701 -0.5074  0.1945  0.6177
  434MOL0     C57172   8.839   8.088   3.629  0.4573  0.0882 -0.1888
  434MOL0     N57173   8.758   7.992   3.705  0.3981  0.1255 -0.2581
  434MOL0     C57174   8.676   8.009   3.821 -0.0619 -0.4000 -0.2199
  434MOL0     C57175   8.581   7.914   3.819  0.3074 -0.1523  1.2992
  434MOL0     C57176   8.464   7.901   3.921  0.0130  0.7616  0.6304
  434MOL0     C57177   8.339   7.861   3.835 -0.4138  0.5130 -0.6038
  434MOL0     C57178   8.212   7.885   3.915  0.2621 -1.0732  0.2289
  434MOL0     C57179   8.094   7.842   3.843  1.1737  0.1189 -0.3814
  434MOL0     O57180   8.084   7.697   3.870  0.2846 -0.5471  1.0436
  434MOL0     C57181   7.966   7.634   3.862 -0.0043 -0.4821 -0.6768
  434MOL0     C57182   7.964   7.500   3.913  1.0506 -0.2639 -0.0097
  434MOL0     C57183   7.836   7.435   3.921  0.5681 -0.1978 -0.1477
  434MOL0     C57184   7.719   7.496   3.874  0.0118  1.3176 -0.8255
  434MOL0     C57185   7.578   7.439   3.893  0.5413  0.0722 -0.3012
  434MOL0     O57186   7.471   7.518   3.842  0.1748  0.0196 -0.2228
  434MOL0     C57187   7.338   7.490   3.885 -0.1865 -0.3239  0.8606
  434MOL0     C57188   7.304   7.483   4.016  0.7045  0.6943 -1.4767
  434MOL0     C57189   7.167   7.487   4.060 -0.4144  0.2915 -0.1134
  434MOL0     C57190   7.066   7.513   3.965 -0.1909  0.3422  0.7251
  434MOL0     O57191   6.933   7.531   3.992  0.1312 -0.4452  0.7820
  434MOL0     C57192   6.869   7.498   4.109  0.7580 -0.9110  0.5351
  434MOL0     C57193   6.719   7.463   4.110  0.7066 -0.1412 -0.4484
  434MOL0     C57194   6.621   7.581   4.147 -0.7356  0.0339 -0.5142
  434MOL0     C57195   6.487   7.539   4.206 -0.3442  0.1185  0.0806
  434MOL0     C57196   6.381   7.643   4.176 -0.0912  0.0602  0.9285
  434MOL0     C57197   6.245   7.602   4.228  1.0943 -0.0829 -0.1488
  434MOL0     C57198   6.201   7.459   4.204  0.0989  0.9512  0.4551
  434MOL0     C57199   6.046   7.446   4.227 -0.0996 -0.1383  0.9681
  434MOL0    Cl57200   5.989   7.511   4.383  0.2002  0.0047 -0.1958
  434MOL0     C57201   7.102   7.521   3.830  0.0799  0.6282 -0.1263
  434MOL0     C57202   7.238   7.514   3.787  0.0968  0.0100  0.1974
  434MOL0     O57203   7.563   7.332   3.947  0.1206  0.0240  0.6866
  434MOL0     C57204   7.729   7.622   3.825 -0.0254  0.2654 -0.3229
  434MOL0     C57205   7.848   7.694   3.822 -0.6091  0.1481 -0.0830
  434MOL0     N57206   8.610   7.826   3.716 -0.0064  0.3137  0.5984
  434MOL0     N57207   8.722   7.866   3.654  0.0507  0.1874 -0.2421
  434MOL0     C57208   9.803   7.519   4.139 -0.9474 -0.5000 -0.4013
  434MOL0     C57209   9.932   7.499   4.173  0.0201 -0.1320 -0.2047
  434MOL0     C57210  10.385   7.499   4.077 -0.3907 -0.9477 -0.1068
  434MOL0     C57211  10.455   7.588   4.163 -0.3889 -0.3374 -0.3223
  434MOL0     C57212  10.594   7.571   4.178 -0.1461  0.0075  0.2653
  434MOL0     C57213  10.664   7.477   4.106 -0.0778 -0.7169 -0.3060
  434MOL0     O57214  10.803   7.467   4.108 -0.3617 -0.2967 -0.6499
  434MOL0     C57215  10.861   7.527   4.001 -0.1346 -0.4175  0.7512
  434MOL0     C57216  10.968   7.619   4.049  0.1853 -0.0105 -0.1533
  434MOL0     C57217  11.099   7.547   4.011 -0.2469 -0.0541 -0.6973
  434MOL0     C57218  11.227   7.628   4.053  0.0564 -0.0688 -0.0179
  434MOL0     C57219  11.240   7.656   4.197  0.2244 -0.2545  0.0893
  434MOL0     C57220  11.245   7.721   4.301 -0.9920 -1.0348 -0.9476
  434MOL0     C57221  10.596   7.392   4.013  0.0849  0.2229 -0.5822
  434MOL0     C57222  10.460   7.403   4.001 -0.1421 -0.0326 -0.8857
  434MOL0     H57223  10.078   7.747   3.993  0.0694 -2.0633 -2.6394
  434MOL0     H57224   9.829   7.798   3.949 -1.9118 -0.3656  0.9454
  434MOL0     H57225   9.628   7.709   3.845 -0.6971 -0.1934 -0.2556
  434MOL0     H57226   9.618   7.850   3.965 -2.8590  1.0726  1.4406
  434MOL0     H57227   9.389   7.699   4.004 -0.4463  0.2666 -0.4632
  434MOL0     H57228   9.441   7.649   3.843  3.5615  1.9175 -2.6373
  434MOL0     H57229   9.433   7.917   3.773 -2.4683  0.3452 -1.0283
  434MOL0     H57230   9.390   7.939   3.943  0.4329  0.8827 -0.0757
  434MOL0     H57231   9.219   7.784   3.751 -1.3428  1.3184 -0.5129
  434MOL0     H57232   9.185   7.823   3.927  1.1803  0.5930  1.8077
  434MOL0     H57233   9.252   8.014   3.710  1.2389  1.0197  1.6498
  434MOL0     H57234   9.174   8.064   3.862 -3.6398  0.3643 -1.0989
  434MOL0     H57235   8.978   7.891   3.774  0.9450 -0.1467  0.8215
  434MOL0     H57236   9.054   7.922   3.615  1.7007  2.3118 -0.3436
  434MOL0     H57237   8.957   8.144   3.799 -3.8580  1.4260 -0.3230
  434MOL0     H57238   9.029   8.166   3.638 -1.2996 -0.8961 -1.3852
  434MOL0     H57239   8.846   8.059   3.524 -1.2926 -0.8675 -0.0774
  434MOL0     H57240   8.794   8.187   3.647  1.1243 -0.2597  4.6504
  434MOL0     H57241   8.691   8.090   3.891  3.7724  1.1414 -2.5311
  434MOL0     H57242   8.459   7.998   3.972  2.5715  0.7794  0.9608
  434MOL0     H57243   8.495   7.825   3.993  4.1446  3.0627  1.5945
  434MOL0     H57244   8.333   7.759   3.795 -0.2791 -0.1760  1.0698
  434MOL0     H57245   8.326   7.934   3.755 -1.0252 -0.2880 -1.2590
  434MOL0     H57246   8.219   7.835   4.012  1.1308  0.7144  1.1530
  434MOL0     H57247   8.201   7.987   3.954 -0.4580 -1.3249  0.6973
  434MOL0     H57248   8.077   7.867   3.738 -1.1277  1.3880  0.2385
  434MOL0     H57249   8.012   7.880   3.904 -0.3666 -2.1720 -0.8958
  434MOL0     H57250   8.042   7.446   3.966 -1.8227 -1.3877  3.4001
  434MOL0     H57251   7.838   7.338   3.969  4.8472  0.0729  0.6398
  434MOL0     H57252   7.373   7.462   4.097 -1.2581 -3.1131 -0.5694
  434MOL0     H57253   7.141   7.485   4.166  3.0491 -1.8662  0.8703
  434MOL0     H57254   6.891   7.574   4.185 -0.2501 -0.5561  0.4775
  434MOL0     H57255   6.923   7.408   4.143  2.8760  0.7046  1.6739
  434MOL0     H57256   6.695   7.388   4.186  0.1807  1.2000  0.7650
  434MOL0     H57257   6.692   7.420   4.014 -2.0994  1.0590 -0.2972
  434MOL0     H57258   6.607   7.634   4.052  0.1977  0.7279 -0.2789
  434MOL0     H57259   6.670   7.658   4.207  0.2971 -0.2610 -0.9638
  434MOL0     H57260   6.454   7.450   4.151 -0.5791  0.8878 -1.0517
  434MOL0     H57261   6.512   7.525   4.312  1.9679 -3.7559 -0.7772
  434MOL0     H57262   6.363   7.649   4.068 -3.1425 -2.7201  1.1175
  434MOL0     H57263   6.418   7.735   4.222  0.8363  0.9205 -1.3941
  434MOL0     H57264   6.177   7.671   4.177 -1.2100 -0.8853  1.6802
  434MOL0     H57265   6.241   7.611   4.337 -1.9574  0.5354 -0.2290
  434MOL0     H57266   6.220   7.439   4.098 -0.5167 -0.3248  0.5546
  434MOL0     H57267   6.251   7.386   4.269  0.5084  1.2255  0.4487
  434MOL0     H57268   6.011   7.343   4.223 -2.7940  0.7336 -0.2913
  434MOL0     H57269   5.992   7.494   4.145  0.1470 -0.1275  0.8094
  434MOL0     H57270   7.019   7.520   3.759  0.0935 -0.7714 -0.1462
  434MOL0     H57271   7.271   7.523   3.684  1.4282  0.2349  0.6180
  434MOL0     H57272   7.641   7.678   3.794 -0.4508 -0.3846 -0.2950
  434MOL0     H57273   7.843   7.793   3.779 -0.3910  0.1416 -0.1280
  434MOL0     H57274   9.722   7.451   4.164 -1.0269 -0.1027  0.4425
  434MOL0     H57275   9.961   7.409   4.227  0.3182  0.5582  0.8292
  434MOL0     H57276  10.411   7.660   4.231  2.1915 -0.2964  1.4887
  434MOL0     H57277  10.636   7.638   4.252  1.1930  2.5566 -2.5731
  434MOL0     H57278  10.791   7.586   3.941 -0.2826 -0.1591  1.1774
  434MOL0     H57279  10.886   7.444   3.934 -2.0299 -1.2652  1.0318
  434MOL0     H57280  10.970   7.710   3.989  1.6624 -2.1557 -3.6629
  434MOL0     H57281  10.967   7.635   4.157  0.3904 -0.7523 -0.0360
  434MOL0     H57282  11.113   7.539   3.903  2.9918 -0.9890 -0.3160
  434MOL0     H57283  11.117   7.453   4.064  0.2167  1.6710  2.5115
  434MOL0     H57284  11.315   7.572   4.023  1.1630  1.9210 -0.6672
  434MOL0     H57285  11.235   7.724   4.000 -1.7513  0.7922  1.1570
  434MOL0     H57286  11.250   7.766   4.398  2.6716 -1.7815 -0.6274
  434MOL0     H57287  10.649   7.325   3.946 -0.2382  0.0842 -0.7046
  434MOL0     H57288  10.402   7.342   3.933  0.3097  0.1600 -1.4495
  435MOL0     O57289  10.343   8.078   9.140  0.3985 -0.4138 -0.3665
  435MOL0     C57290  10.284   8.151   9.059  0.0078  0.0967 -0.7385
  435MOL0     O57291  10.153   8.180   9.053 -0.0978 -0.0908  0.0866
  435MOL0     C57292  10.065   8.110   9.135  0.2655 -0.0839  0.3079
  435MOL0     C57293   9.980   8.186   9.204  0.2505  0.0855  0.5630
  435MOL0     C57294   9.887   8.120   9.282 -0.2228  0.1943  0.4914
  435MOL0     C57295   9.882   7.982   9.299 -0.1671 -0.2202  0.2857
  435MOL0     O57296   9.783   7.933   9.386 -0.0580 -0.2737  0.4953
  435MOL0     C57297   9.759   7.797   9.386  0.5071 -0.6013 -0.1918
  435MOL0     C57298   9.625   7.753   9.461 -0.4753  0.0441  0.0005
  435MOL0     C57299   9.493   7.814   9.406  0.3515  0.0561 -0.3419
  435MOL0     C57300   9.372   7.765   9.488 -0.1070  0.2364 -0.3289
  435MOL0     C57301   9.238   7.830   9.445  0.0602  0.2612  0.1725
  435MOL0     C57302   9.129   7.791   9.559 -0.7743  0.5051 -0.7548
  435MOL0     C57303   8.988   7.827   9.512 -0.2307 -0.8181 -0.1946
  435MOL0     C57304   8.874   7.759   9.591 -0.8722  0.1109 -0.1502
  435MOL0     N57305   8.749   7.814   9.547  0.2168  0.1220 -0.1264
  435MOL0     C57306   8.693   7.807   9.423  0.1633  0.3393 -0.2197
  435MOL0     C57307   8.573   7.875   9.434 -0.9618 -1.1512  0.4477
  435MOL0     C57308   8.487   7.920   9.318 -0.5363  0.0213  0.0216
  435MOL0     C57309   8.344   7.860   9.303  0.1934 -0.1909  0.4073
  435MOL0     C57310   8.247   7.925   9.397  0.0643 -0.5337 -0.6539
  435MOL0     C57311   8.097   7.875   9.386 -0.2988 -0.5871  0.8868
  435MOL0     O57312   8.062   7.853   9.248  0.1164  0.1931  0.1767
  435MOL0     C57313   7.928   7.850   9.217  0.2038 -1.1759 -0.5267
  435MOL0     C57314   7.896   7.880   9.086  0.2516 -0.6239 -0.6731
  435MOL0     C57315   7.766   7.882   9.046  0.1902 -1.0593 -0.4367
  435MOL0     C57316   7.662   7.846   9.134  0.3577 -0.1860 -0.2430
  435MOL0     C57317   7.525   7.842   9.082  0.1864  0.1663 -0.3201
  435MOL0     O57318   7.418   7.843   9.166 -0.4927  0.2081  0.1931
  435MOL0     C57319   7.291   7.866   9.129  1.0170 -0.3211  0.0592
  435MOL0     C57320   7.241   7.904   9.002 -0.4120 -0.4569 -0.2851
  435MOL0     C57321   7.102   7.925   8.989  1.0661  0.2231 -0.5530
  435MOL0     C57322   7.008   7.923   9.096  0.2554 -0.4051 -0.5829
  435MOL0     O57323   6.869   7.948   9.094 -0.3160 -0.1700  0.8604
  435MOL0     C57324   6.804   7.966   8.969  0.1062 -0.2387  0.5019
  435MOL0     C57325   6.661   7.998   8.995  0.3125  0.0694  0.1044
  435MOL0     C57326   6.589   7.895   9.087  0.9654 -0.4320  0.6116
  435MOL0     C57327   6.432   7.897   9.058  0.0193  0.8504 -0.7991
  435MOL0     C57328   6.355   7.791   9.140  0.0992 -0.0377  0.2838
  435MOL0     C57329   6.215   7.833   9.167  0.0372 -0.8190  0.0709
  435MOL0     C57330   6.125   7.834   9.043  0.6944  0.0683 -0.4563
  435MOL0     C57331   6.005   7.922   9.053  0.4160 -0.0209 -0.6127
  435MOL0    Cl57332   5.888   7.861   8.937  0.2724  0.1343  0.1214
  435MOL0     C57333   7.059   7.878   9.219  0.1682  0.1778 -0.6380
  435MOL0     C57334   7.194   7.845   9.228  0.2423  0.4330 -0.5967
  435MOL0     O57335   7.517   7.829   8.956 -0.2292  0.1331  0.1453
  435MOL0     C57336   7.693   7.807   9.262  0.4726  0.3303  0.3198
  435MOL0     C57337   7.825   7.811   9.303  0.7263 -0.3814 -0.0773
  435MOL0     N57338   8.561   7.922   9.561  0.7178  0.2250  0.6660
  435MOL0     N57339   8.670   7.886   9.630 -0.2965 -0.1052 -0.6889
  435MOL0     C57340   9.982   7.900   9.240  0.8540 -0.0817  0.4655
  435MOL0     C57341  10.073   7.973   9.156 -0.5163  0.0094  0.5834
  435MOL0     C57342  10.375   8.225   8.960  1.1480  0.0806 -0.2286
  435MOL0     C57343  10.516   8.199   8.947 -0.1156 -0.0534  0.4253
  435MOL0     C57344  10.601   8.270   8.860  0.1085  0.8377  0.2906
  435MOL0     C57345  10.542   8.364   8.776 -0.3800  0.0673  0.4689
  435MOL0     O57346  10.610   8.464   8.703 -0.7873  0.1451  1.0090
  435MOL0     C57347  10.737   8.430   8.645  0.7973 -0.0102  0.0625
  435MOL0     C57348  10.774   8.538   8.533  0.3857 -0.1564 -0.2474
  435MOL0     C57349  10.876   8.633   8.591 -0.2410 -0.6005  0.2025
  435MOL0     C57350  10.905   8.748   8.498 -0.5041 -0.1143 -0.3618
  435MOL0     C57351  10.801   8.850   8.478  0.2638 -0.0693  0.0312
  435MOL0     C57352  10.704   8.922   8.441  0.1951  0.4223  0.5080
  435MOL0     C57353  10.407   8.388   8.783 -0.0835  0.0608 -0.2665
  435MOL0     C57354  10.332   8.323   8.876  1.0429  0.6194 -0.0273
  435MOL0     H57355   9.980   8.295   9.205 -1.1216  0.1373 -0.8917
  435MOL0     H57356   9.826   8.195   9.331 -0.9020  1.0515 -1.5237
  435MOL0     H57357   9.837   7.739   9.436 -0.2337 -1.9549 -0.5513
  435MOL0     H57358   9.740   7.768   9.282 -1.2497  0.0174 -0.0890
  435MOL0     H57359   9.639   7.780   9.566  2.5524 -1.9622  0.2302
  435MOL0     H57360   9.622   7.644   9.451  0.2551  0.2015 -2.9190
  435MOL0     H57361   9.478   7.799   9.299  2.1613 -0.7814 -0.5109
  435MOL0     H57362   9.506   7.923   9.407  2.7124 -0.1141 -2.5861
  435MOL0     H57363   9.358   7.656   9.488 -1.0330  0.3105 -2.1206
  435MOL0     H57364   9.397   7.792   9.591 -0.5871  3.7979 -1.0079
  435MOL0     H57365   9.206   7.797   9.345 -0.5027  2.6697 -0.5240
  435MOL0     H57366   9.251   7.939   9.444 -1.4544  0.5106  2.1773
  435MOL0     H57367   9.151   7.836   9.656  1.1965 -2.0359  0.1033
  435MOL0     H57368   9.136   7.682   9.572  2.5639  0.3751 -2.4872
  435MOL0     H57369   8.974   7.935   9.516  1.0950 -0.6683  2.2395
  435MOL0     H57370   8.982   7.800   9.406 -3.4864 -1.3408  0.0194
  435MOL0     H57371   8.882   7.790   9.696 -0.1504  0.4280 -0.2894
  435MOL0     H57372   8.873   7.651   9.577 -0.2188 -0.1672  1.6218
  435MOL0     H57373   8.723   7.770   9.326 -1.0500 -0.8629 -0.1644
  435MOL0     H57374   8.531   7.879   9.226 -2.0896 -0.1190 -0.7015
  435MOL0     H57375   8.477   8.029   9.320  1.3159  0.2720  3.5219
  435MOL0     H57376   8.347   7.753   9.324 -0.9569 -0.7409 -1.9279
  435MOL0     H57377   8.307   7.864   9.200 -2.4211  0.8876  1.2983
  435MOL0     H57378   8.279   7.932   9.501 -4.1265 -2.6188  1.0175
  435MOL0     H57379   8.240   8.025   9.354 -3.6803 -1.6189 -3.0764
  435MOL0     H57380   8.032   7.947   9.438  1.7451  1.2391  1.0346
  435MOL0     H57381   8.095   7.782   9.442  1.5219 -0.2908  1.5138
  435MOL0     H57382   7.975   7.915   9.021  1.8456 -3.1644 -0.2258
  435MOL0     H57383   7.748   7.928   8.949 -2.1488 -0.5219  0.1849
  435MOL0     H57384   7.311   7.934   8.925 -0.0382  3.8936  1.4986
  435MOL0     H57385   7.056   7.946   8.893 -1.7070  1.3045  0.8743
  435MOL0     H57386   6.811   7.869   8.919  0.1087 -0.4648  0.9292
  435MOL0     H57387   6.842   8.043   8.902 -0.1044 -2.1031 -1.9082
  435MOL0     H57388   6.612   8.006   8.898  0.0771  1.1668  0.2949
  435MOL0     H57389   6.661   8.098   9.040  0.2823 -0.0531  0.3772
  435MOL0     H57390   6.616   7.922   9.189 -1.1608  2.3048  0.5559
  435MOL0     H57391   6.639   7.799   9.069  0.9567 -0.4198  0.5225
  435MOL0     H57392   6.396   7.998   9.078 -0.9089  0.3991 -0.1064
  435MOL0     H57393   6.418   7.893   8.950 -2.1323 -1.6580 -0.5368
  435MOL0     H57394   6.402   7.770   9.236  0.9260  2.7043  0.5640
  435MOL0     H57395   6.347   7.701   9.079  1.8412  0.7368 -1.1628
  435MOL0     H57396   6.227   7.932   9.213  0.4944 -0.7477 -0.1956
  435MOL0     H57397   6.167   7.767   9.240  0.9210  1.0222  2.4515
  435MOL0     H57398   6.182   7.855   8.953 -0.3143  1.4730 -0.8110
  435MOL0     H57399   6.080   7.734   9.032 -3.0534  1.5955 -0.6007
  435MOL0     H57400   6.042   8.021   9.025 -0.1560  1.2959  2.7605
  435MOL0     H57401   5.975   7.922   9.158  1.0354 -3.5178 -0.3141
  435MOL0     H57402   6.999   7.889   9.310  2.0068  0.9596  0.5260
  435MOL0     H57403   7.229   7.831   9.330 -2.3774  1.6131  0.5677
  435MOL0     H57404   7.621   7.774   9.337  1.8347 -2.9869  0.3370
  435MOL0     H57405   7.854   7.784   9.404  1.6675 -1.0647 -0.5064
  435MOL0     H57406   9.984   7.793   9.259  0.6388 -0.1562  0.0689
  435MOL0     H57407  10.158   7.919   9.115 -0.1462  1.3583 -0.5006
  435MOL0     H57408  10.555   8.116   9.003  0.7526  0.8451  1.1820
  435MOL0     H57409  10.706   8.245   8.865  0.0274  0.7234  2.0871
  435MOL0     H57410  10.747   8.331   8.599  0.3480  0.7480 -1.7669
  435MOL0     H57411  10.818   8.419   8.718  1.4224  0.8833 -0.4707
  435MOL0     H57412  10.817   8.486   8.448 -1.9438 -1.9703 -0.3921
  435MOL0     H57413  10.686   8.599   8.511  0.6494 -0.2174 -1.5141
  435MOL0     H57414  10.962   8.569   8.610  0.3566 -0.4583 -1.8265
  435MOL0     H57415  10.842   8.667   8.689  4.0099 -0.6913  1.8950
  435MOL0     H57416  10.973   8.811   8.556  0.1960 -2.1556  1.1492
  435MOL0     H57417  10.951   8.718   8.404 -1.2330 -0.0390 -0.7482
  435MOL0     H57418  10.622   8.983   8.411  1.5758  1.2095 -2.0263
  435MOL0     H57419  10.371   8.479   8.736  0.7191 -0.3016 -1.6313
  435MOL0     H57420  10.225   8.340   8.882  0.4630 -2.7636  1.7874
  436MOL0     O57421   9.720   2.930   0.259  1.0578  0.4873  0.0698
  436MOL0     C57422   9.776   2.842   0.199  0.5565  1.0641  0.1896
  436MOL0     O57423   9.716   2.762   0.100  1.1936 -0.3591  0.5818
  436MOL0     C57424   9.571   2.770   0.088  0.2415  0.4904  0.4440
  436MOL0     C57425   9.475   2.693   0.158 -0.3359 -1.0104 -1.2851
  436MOL0     C57426   9.338   2.721   0.153  0.3077 -0.0138 -0.4516
  436MOL0     C57427   9.289   2.806   0.052 -0.4569  0.1830 -0.0236
  436MOL0     O57428   9.159   2.823   0.024  0.0268  0.3902 -0.3740
  436MOL0     C57429   9.063   2.821   0.129  0.2068 -0.5760  0.6529
  436MOL0     C57430   8.948   2.906   0.084 -0.6884  0.8184  0.2504
  436MOL0     C57431   8.843   2.818   0.016  0.1443 -0.1643 -0.5956
  436MOL0     C57432   8.719   2.896  -0.019  0.2178 -0.1408 -0.4657
  436MOL0     C57433   8.594   2.816  -0.024 -0.2959  0.1587 -0.3453
  436MOL0     C57434   8.590   2.702  -0.121  0.8526  0.0680  0.1725
  436MOL0     C57435   8.445   2.657  -0.163 -0.2579 -0.0353  0.5574
  436MOL0     C57436   8.369   2.597  -0.044 -0.0631  0.1265  0.7609
  436MOL0     N57437   8.295   2.471  -0.080 -0.0181  0.4717 -0.2443
  436MOL0     C57438   8.187   2.457  -0.165 -0.3090  0.1259 -0.6954
  436MOL0     C57439   8.138   2.332  -0.133  0.0264  0.2045 -0.1632
  436MOL0     C57440   8.013   2.259  -0.181 -0.3102  0.3722  0.4458
  436MOL0     C57441   8.040   2.126  -0.247  0.4646 -0.0881  1.3215
  436MOL0     C57442   7.912   2.046  -0.285 -0.0448 -0.5999 -0.2584
  436MOL0     C57443   7.919   1.958  -0.404 -0.3108  0.5235  0.2498
  436MOL0     O57444   7.878   1.824  -0.376  0.0042  0.0382 -0.1226
  436MOL0     C57445   7.741   1.793  -0.381  0.2546 -0.1436 -0.0883
  436MOL0     C57446   7.710   1.673  -0.309 -0.0983  0.1927 -1.1380
  436MOL0     C57447   7.577   1.627  -0.302 -0.3654  1.0249  0.5440
  436MOL0     C57448   7.476   1.681  -0.379  0.0400 -0.1470 -0.1810
  436MOL0     C57449   7.334   1.636  -0.359  0.9798 -0.1707 -0.0030
  436MOL0     O57450   7.300   1.526  -0.276 -0.1465 -0.0750 -0.4993
  436MOL0     C57451   7.165   1.517  -0.247  0.1235  0.5668 -0.0393
  436MOL0     C57452   7.096   1.428  -0.334 -0.1183 -0.2679 -0.5416
  436MOL0     C57453   6.958   1.416  -0.319 -0.2258 -0.0306 -0.7492
  436MOL0     C57454   6.888   1.494  -0.219  0.5700  1.1456  0.5818
  436MOL0     O57455   6.749   1.510  -0.226  0.3516  1.0497  0.3944
  436MOL0     C57456   6.661   1.399  -0.271  0.2594 -0.0584 -0.6448
  436MOL0     C57457   6.516   1.443  -0.253  0.1442  0.4415  0.1848
  436MOL0     C57458   6.436   1.328  -0.316  0.4971 -0.1363 -1.2929
  436MOL0     C57459   6.285   1.342  -0.298 -0.2846 -0.7260  0.5211
  436MOL0     C57460   6.226   1.230  -0.398 -0.0932  0.1734  0.0855
  436MOL0     C57461   6.078   1.215  -0.390 -0.1121 -0.0209 -0.0923
  436MOL0     C57462   6.046   1.174  -0.242  0.1278 -0.8400 -0.0624
  436MOL0     C57463   5.901   1.139  -0.225  0.0527 -0.2532 -0.6156
  436MOL0    Cl57464   5.811   1.290  -0.200 -0.4469  0.1733  0.1662
  436MOL0     C57465   6.959   1.567  -0.127 -0.2040 -0.2976  0.2075
  436MOL0     C57466   7.095   1.587  -0.149  0.4543  0.2741  0.0464
  436MOL0     O57467   7.247   1.700  -0.424  0.3182  0.2649 -0.1708
  436MOL0     C57468   7.514   1.782  -0.460  0.8307 -0.1899 -0.9054
  436MOL0     C57469   7.636   1.850  -0.461  0.6475  0.0115 -0.8654
  436MOL0     N57470   8.227   2.275  -0.048 -0.4046  0.2211  0.3132
  436MOL0     N57471   8.321   2.361  -0.010 -0.0359  0.3331  0.6243
  436MOL0     C57472   9.384   2.883  -0.024 -0.1376  0.5082  0.0591
  436MOL0     C57473   9.524   2.860  -0.013 -0.2631  0.0176  0.4953
  436MOL0     C57474   9.921   2.827   0.235  0.6912 -0.2713  0.1568
  436MOL0     C57475   9.978   2.906   0.327 -0.4161 -0.2754 -0.0786
  436MOL0     C57476  10.116   2.893   0.350  0.0279 -0.4962  0.6744
  436MOL0     C57477  10.198   2.815   0.261 -0.1368  0.9681 -0.5157
  436MOL0     O57478  10.333   2.796   0.295 -0.5735 -0.1048  1.2370
  436MOL0     C57479  10.439   2.799   0.192  0.3853 -0.4715 -0.5064
  436MOL0     C57480  10.580   2.802   0.251  0.5589 -0.6717 -1.0605
  436MOL0     C57481  10.666   2.806   0.129  0.5735 -0.0693 -0.5750
  436MOL0     C57482  10.811   2.767   0.174 -0.4154  0.0868  0.1579
  436MOL0     C57483  10.910   2.788   0.064  0.9035 -0.6173  0.4451
  436MOL0     C57484  10.998   2.788  -0.027  0.8962  0.0957  0.8207
  436MOL0     C57485  10.132   2.741   0.165 -0.3677 -0.4806 -0.9467
  436MOL0     C57486   9.994   2.737   0.154 -0.3847 -0.2762  0.5077
  436MOL0     H57487   9.505   2.621   0.233  0.1398 -0.3460 -0.8231
  436MOL0     H57488   9.267   2.665   0.213  0.2816  1.3825  0.8756
  436MOL0     H57489   9.102   2.875   0.216 -2.8191  3.2048 -0.0752
  436MOL0     H57490   9.033   2.720   0.159 -0.3335 -0.6976 -0.2599
  436MOL0     H57491   8.983   2.989   0.021  0.0217  0.6794  0.4548
  436MOL0     H57492   8.903   2.947   0.175  0.0671 -2.0065  2.0170
  436MOL0     H57493   8.819   2.741   0.090  2.5158  0.3483  0.8005
  436MOL0     H57494   8.877   2.765  -0.074 -0.0845 -2.1878  0.4391
  436MOL0     H57495   8.711   2.978   0.053 -0.6939  0.0389 -0.7629
  436MOL0     H57496   8.725   2.957  -0.110 -0.8128 -0.0154 -0.4576
  436MOL0     H57497   8.522   2.892  -0.058 -0.0522  0.1166 -0.9802
  436MOL0     H57498   8.556   2.773   0.069  1.0464  0.0620  0.1668
  436MOL0     H57499   8.652   2.623  -0.078  0.3088 -0.2540  0.3761
  436MOL0     H57500   8.635   2.722  -0.219  2.0035 -0.1624  0.6434
  436MOL0     H57501   8.397   2.742  -0.212  2.6941  1.0358 -0.6508
  436MOL0     H57502   8.452   2.580  -0.240 -0.8007  0.5226 -0.0641
  436MOL0     H57503   8.293   2.659   0.005  0.8402 -0.7516  3.4110
  436MOL0     H57504   8.441   2.579   0.035 -0.5095 -1.7467  0.7757
  436MOL0     H57505   8.130   2.521  -0.232 -1.1357 -0.2068 -0.3120
  436MOL0     H57506   7.966   2.320  -0.258 -0.4209 -0.6462 -0.3122
  436MOL0     H57507   7.947   2.241  -0.096 -3.8498  1.9123 -1.7607
  436MOL0     H57508   8.091   2.057  -0.179 -1.5972 -1.7040  1.3164
  436MOL0     H57509   8.091   2.151  -0.341 -2.7280  1.9164 -0.0603
  436MOL0     H57510   7.894   1.990  -0.193  1.5059  0.7665  0.9538
  436MOL0     H57511   7.826   2.114  -0.280 -1.3030 -2.2367  2.0846
  436MOL0     H57512   8.018   1.962  -0.450 -1.0985  2.5115 -1.4810
  436MOL0     H57513   7.866   2.005  -0.488 -2.6703 -2.5018 -0.1519
  436MOL0     H57514   7.793   1.637  -0.248 -2.0394 -1.3368  0.7525
  436MOL0     H57515   7.563   1.541  -0.236  1.2932 -0.0261 -0.3891
  436MOL0     H57516   7.147   1.381  -0.417 -1.1615 -1.0598 -0.7524
  436MOL0     H57517   6.898   1.354  -0.386 -0.0257 -0.1596 -0.8103
  436MOL0     H57518   6.677   1.314  -0.204  1.5125  0.7326  0.1054
  436MOL0     H57519   6.681   1.371  -0.374  0.7758  1.0714 -0.8619
  436MOL0     H57520   6.499   1.531  -0.316 -1.0008 -0.8333 -1.3578
  436MOL0     H57521   6.487   1.473  -0.152 -0.8177  1.0252 -0.2529
  436MOL0     H57522   6.468   1.235  -0.267  0.2649 -0.9190 -2.5913
  436MOL0     H57523   6.447   1.328  -0.424 -0.1493  0.7882 -1.3646
  436MOL0     H57524   6.260   1.324  -0.194  1.0766 -2.4790  0.5858
  436MOL0     H57525   6.249   1.439  -0.334  0.5222 -1.1660 -1.6390
  436MOL0     H57526   6.270   1.134  -0.371  0.3818  0.8264  1.7740
  436MOL0     H57527   6.253   1.235  -0.504 -1.4889 -1.1831 -0.3558
  436MOL0     H57528   6.050   1.125  -0.447  1.9320 -1.3111  0.8074
  436MOL0     H57529   6.029   1.306  -0.424 -1.2706 -0.9309 -0.9616
  436MOL0     H57530   6.107   1.086  -0.219  0.3012 -0.5447  0.6048
  436MOL0     H57531   6.066   1.253  -0.170  1.5720  0.5513 -1.8930
  436MOL0     H57532   5.892   1.073  -0.138 -1.1042  1.4467  0.6108
  436MOL0     H57533   5.861   1.078  -0.307  0.0033 -2.3947  0.9233
  436MOL0     H57534   6.903   1.628  -0.057  3.2383  1.1508  1.9403
  436MOL0     H57535   7.147   1.651  -0.079  0.2698  0.3534  0.1095
  436MOL0     H57536   7.432   1.834  -0.509 -2.9244 -3.1554  1.6915
  436MOL0     H57537   7.640   1.929  -0.535 -0.5258 -2.2203 -3.5037
  436MOL0     H57538   9.341   2.954  -0.094 -1.1084 -0.6408 -0.5458
  436MOL0     H57539   9.597   2.895  -0.086 -1.0495 -0.6726 -0.6509
  436MOL0     H57540   9.917   2.956   0.403  1.7041 -0.5180  1.8785
  436MOL0     H57541  10.151   2.953   0.435 -0.5778 -0.0539  0.6157
  436MOL0     H57542  10.420   2.882   0.124 -1.0675  0.5455  1.0698
  436MOL0     H57543  10.426   2.707   0.135  0.3653 -1.4139  0.9519
  436MOL0     H57544  10.591   2.891   0.312  1.6157  0.2419 -2.5369
  436MOL0     H57545  10.592   2.713   0.313 -0.3033  1.2098  2.0337
  436MOL0     H57546  10.667   2.909   0.092  1.7191 -0.3609 -1.4097
  436MOL0     H57547  10.634   2.742   0.047  1.1066 -0.7057 -0.2944
  436MOL0     H57548  10.837   2.818   0.267  0.3411 -0.7898  0.4404
  436MOL0     H57549  10.805   2.659   0.194  0.7015  0.3005  1.8529
  436MOL0     H57550  11.061   2.788  -0.114  0.7140 -0.4580  0.6813
  436MOL0     H57551  10.192   2.674   0.105  0.2700 -2.6210  1.8631
  436MOL0     H57552   9.943   2.670   0.086  0.7366 -2.0608  1.3462
  437MOL0     O57553   7.751   9.829   8.605 -0.4688  0.3444 -0.1010
  437MOL0     C57554   7.819   9.900   8.682  0.4171 -0.1195 -0.3908
  437MOL0     O57555   7.765   9.969   8.790 -0.1411  0.2544 -0.0854
  437MOL0     C57556   7.636  10.005   8.807 -0.6402  0.5694  0.6652
  437MOL0     C57557   7.586  10.003   8.938  0.4659 -0.0509 -0.0515
  437MOL0     C57558   7.452  10.032   8.956  0.4637  0.2153 -1.1011
  437MOL0     C57559   7.363  10.068   8.847 -0.5278  0.0891 -0.5431
  437MOL0     O57560   7.234  10.099   8.888  0.0853  0.5491 -0.1746
  437MOL0     C57561   7.143  10.137   8.778 -0.4878 -0.3315 -0.3502
  437MOL0     C57562   7.028  10.210   8.851 -0.8810 -0.4032 -0.9884
  437MOL0     C57563   6.905  10.241   8.767  0.1391  0.3419 -0.1211
  437MOL0     C57564   6.786  10.296   8.855 -0.0368 -0.0448  0.6705
  437MOL0     C57565   6.666  10.301   8.765  0.1068  0.1882 -0.3386
  437MOL0     C57566   6.542  10.319   8.849  0.4609 -0.0538 -0.2163
  437MOL0     C57567   6.414  10.334   8.770  0.3929 -0.6577 -0.3632
  437MOL0     C57568   6.299  10.355   8.869  0.6049 -0.4715  0.5164
  437MOL0     N57569   6.176  10.322   8.801  0.5491 -1.1345 -0.0395
  437MOL0     C57570   6.049  10.314   8.860 -0.6457  0.4151 -0.6330
  437MOL0     C57571   5.964  10.284   8.757 -0.3810 -0.3870  0.0296
  437MOL0     C57572   5.816  10.247   8.763  0.4931 -0.4723  0.6549
  437MOL0     C57573   5.725  10.343   8.683  0.2690 -0.1052  0.5299
  437MOL0     C57574   5.587  10.277   8.684 -0.5227 -0.2755 -0.1747
  437MOL0     C57575   5.502  10.337   8.577  0.0921 -0.3905  0.3273
  437MOL0     O57576   5.488  10.483   8.583 -0.0278 -0.0856  0.1563
  437MOL0     C57577   5.428  10.535   8.693  1.3979  0.5474  0.0253
  437MOL0     C57578   5.470  10.662   8.735 -0.1653  0.4551 -0.0717
  437MOL0     C57579   5.392  10.749   8.814  0.4791  0.0917  0.2612
  437MOL0     C57580   5.270  10.690   8.868 -0.0499 -0.3346  0.9296
  437MOL0     C57581   5.185  10.783   8.958 -0.2398 -0.1217  0.3135
  437MOL0     O57582   5.245  10.891   9.018  0.3411 -1.0178  0.1658
  437MOL0     C57583   5.182  10.964   9.105  0.6756  0.5713  0.0209
  437MOL0     C57584   5.120  10.906   9.222  0.3061 -0.8853 -0.6548
  437MOL0     C57585   5.067  10.994   9.312 -1.0505  0.2716 -0.0819
  437MOL0     C57586   5.088  11.133   9.302  0.0983  0.2721  0.1906
  437MOL0     O57587   5.052  11.229   9.395 -0.1109  0.6555  0.8342
  437MOL0     C57588   4.998  11.188   9.523 -0.4798 -0.0145 -0.0107
  437MOL0     C57589   4.842  11.188   9.507 -0.1285  0.2615 -0.3107
  437MOL0     C57590   4.797  11.325   9.481  0.2406 -0.0903 -0.0003
  437MOL0     C57591   4.645  11.319   9.449 -0.7952 -0.0570 -0.0667
  437MOL0     C57592   4.580  11.459   9.426  0.2881  0.5240  0.2161
  437MOL0     C57593   4.550  11.541   9.550  0.4087  0.6448 -0.0333
  437MOL0     C57594   4.492  11.679   9.530 -0.3466 -0.4862  0.1439
  437MOL0     C57595   4.575  11.800   9.587 -0.3010  0.6333 -1.0067
  437MOL0    Cl57596   4.526  11.949   9.500 -0.6529 -0.4713  0.2546
  437MOL0     C57597   5.138  11.183   9.184 -0.4637 -1.2925  0.7883
  437MOL0     C57598   5.184  11.098   9.087 -0.5204 -0.0701 -0.9755
  437MOL0     O57599   5.070  10.741   8.969  0.5543  0.0308  0.0313
  437MOL0     C57600   5.228  10.556   8.831  0.0581  0.9177 -0.3651
  437MOL0     C57601   5.302  10.481   8.739 -0.4344  0.7422  0.2326
  437MOL0     N57602   6.025  10.304   8.635  0.5210 -0.5398 -0.2149
  437MOL0     N57603   6.152  10.317   8.664 -1.5236 -0.0982  0.3101
  437MOL0     C57604   7.414  10.069   8.716 -0.2734 -0.1894  0.0423
  437MOL0     C57605   7.549  10.033   8.698 -0.0239  0.5893 -0.3332
  437MOL0     C57606   7.962   9.924   8.670 -0.7431 -0.5974 -0.3831
  437MOL0     C57607   8.027  10.037   8.725  0.1942  0.0304  0.0995
  437MOL0     C57608   8.167  10.055   8.701  1.4088 -0.4792 -0.8603
  437MOL0     C57609   8.235   9.967   8.613  0.3672  0.0056  0.4385
  437MOL0     O57610   8.362   9.980   8.567  0.1921  0.3941  0.3479
  437MOL0     C57611   8.458  10.046   8.652  0.0304  0.2058 -0.5559
  437MOL0     C57612   8.473   9.969   8.784  0.2271  0.2938  0.4842
  437MOL0     C57613   8.570   9.847   8.757  0.5640  0.6289 -0.2240
  437MOL0     C57614   8.611   9.767   8.883  0.8838  0.2118  0.4076
  437MOL0     C57615   8.664   9.866   8.977 -0.1712  0.7012 -0.3384
  437MOL0     C57616   8.724   9.957   9.037 -0.6117 -0.3053  0.9369
  437MOL0     C57617   8.171   9.853   8.572  0.5476  0.2634 -0.2506
  437MOL0     C57618   8.033   9.833   8.595  0.1388  0.2014 -0.2569
  437MOL0     H57619   7.655   9.973   9.015  1.8933  0.8714 -0.9349
  437MOL0     H57620   7.401  10.029   9.052  0.4344  0.2310 -1.1162
  437MOL0     H57621   7.120  10.048   8.719 -1.5190 -0.8761  0.8343
  437MOL0     H57622   7.191  10.209   8.711  0.2548  0.4420  0.9942
  437MOL0     H57623   7.079  10.300   8.888  2.6038 -2.0912 -1.2131
  437MOL0     H57624   7.002  10.157   8.943 -0.2190  4.9365  2.7214
  437MOL0     H57625   6.878  10.152   8.709  2.9539 -1.2250  0.7713
  437MOL0     H57626   6.937  10.315   8.693 -1.0671  1.6751  0.6551
  437MOL0     H57627   6.764  10.229   8.938 -0.7343  0.3982  0.8475
  437MOL0     H57628   6.812  10.395   8.894 -1.2094 -0.7618  3.4709
  437MOL0     H57629   6.656  10.204   8.717 -0.7933  0.4706 -0.7454
  437MOL0     H57630   6.684  10.382   8.693  0.3066 -0.3643 -0.9210
  437MOL0     H57631   6.559  10.407   8.911 -2.0343 -0.9172  1.8684
  437MOL0     H57632   6.535  10.235   8.919  2.5670  0.2870  0.4892
  437MOL0     H57633   6.413  10.412   8.693  0.5272  0.9879  1.2320
  437MOL0     H57634   6.398  10.236   8.724  2.5346 -0.8273 -0.8737
  437MOL0     H57635   6.301  10.459   8.903  1.2678 -0.6541  1.0615
  437MOL0     H57636   6.297  10.285   8.953 -2.6666  0.3903  1.2979
  437MOL0     H57637   6.029  10.314   8.967  0.1231 -1.7614 -0.4265
  437MOL0     H57638   5.789  10.257   8.868 -0.9822  0.6483  0.1970
  437MOL0     H57639   5.806  10.143   8.729 -0.1201  0.7536 -3.5694
  437MOL0     H57640   5.762  10.345   8.580 -0.4540  1.3541  0.2795
  437MOL0     H57641   5.713  10.437   8.738 -1.2906 -0.8939  1.6096
  437MOL0     H57642   5.594  10.174   8.648  1.0256 -0.6033  0.9574
  437MOL0     H57643   5.540  10.269   8.783 -0.3572 -2.6977 -0.2374
  437MOL0     H57644   5.404  10.292   8.557 -0.7455  2.0942 -1.6893
  437MOL0     H57645   5.553  10.316   8.482 -2.3736 -0.3952 -1.0853
  437MOL0     H57646   5.562  10.705   8.696  1.6052 -3.5746 -0.8477
  437MOL0     H57647   5.424  10.852   8.826  2.5793 -0.7234  2.7238
  437MOL0     H57648   5.106  10.798   9.225 -1.1021 -0.7228 -0.5823
  437MOL0     H57649   5.032  10.949   9.404 -0.3730 -0.4437 -0.1664
  437MOL0     H57650   5.022  11.266   9.597 -0.7950  0.5008 -0.4485
  437MOL0     H57651   5.038  11.090   9.549 -1.0374 -1.1454 -3.0680
  437MOL0     H57652   4.797  11.148   9.599 -0.3938 -0.3136 -0.6874
  437MOL0     H57653   4.810  11.138   9.416 -1.0096  0.0318  0.1176
  437MOL0     H57654   4.847  11.364   9.392  0.4570 -0.7696 -0.1805
  437MOL0     H57655   4.813  11.384   9.572  1.1464  0.4929 -0.5241
  437MOL0     H57656   4.627  11.267   9.355  1.3344  2.3178 -1.9662
  437MOL0     H57657   4.593  11.259   9.524  0.7224 -1.6191 -0.2167
  437MOL0     H57658   4.501  11.451   9.351 -1.1503 -0.4863  1.7493
  437MOL0     H57659   4.657  11.509   9.367  1.3667 -0.5988  0.6296
  437MOL0     H57660   4.638  11.544   9.615 -0.0821  0.0850  0.6755
  437MOL0     H57661   4.489  11.482   9.620  1.6340 -1.5408 -0.7261
  437MOL0     H57662   4.483  11.688   9.421  1.4122  0.6386  0.0537
  437MOL0     H57663   4.392  11.677   9.574 -0.0918 -0.0685  0.7389
  437MOL0     H57664   4.676  11.770   9.558 -0.4868 -2.4749  1.0720
  437MOL0     H57665   4.560  11.813   9.694  2.8724  0.1867 -0.4219
  437MOL0     H57666   5.129  11.290   9.168  0.1813 -1.1009  1.5772
  437MOL0     H57667   5.230  11.123   8.992 -0.7400 -3.2354 -2.0357
  437MOL0     H57668   5.132  10.529   8.874  1.3638 -1.4398  1.3213
  437MOL0     H57669   5.270  10.385   8.700  1.0593  0.4837 -0.3984
  437MOL0     H57670   7.357  10.081   8.624  1.0697 -0.3991 -0.8389
  437MOL0     H57671   7.588  10.028   8.597 -2.5890  2.1269 -1.5054
  437MOL0     H57672   7.976  10.119   8.776  0.4648  0.8154 -0.8550
  437MOL0     H57673   8.215  10.146   8.735  1.1204 -0.4205 -0.6087
  437MOL0     H57674   8.425  10.149   8.673  0.1275 -0.0759  1.0952
  437MOL0     H57675   8.554  10.050   8.600  1.3529 -0.5986  1.6723
  437MOL0     H57676   8.506  10.050   8.849 -2.6843  0.7182  1.5789
  437MOL0     H57677   8.380   9.932   8.828 -0.8124 -0.2743 -1.9830
  437MOL0     H57678   8.659   9.885   8.706 -0.0246  1.0680 -0.9544
  437MOL0     H57679   8.522   9.778   8.686  1.8352 -2.4798  1.7434
  437MOL0     H57680   8.541   9.705   8.941 -0.8378  1.9398  0.3000
  437MOL0     H57681   8.693   9.704   8.850  2.3373  0.9097  2.4465
  437MOL0     H57682   8.774  10.037   9.088  0.5974 -0.3658 -0.1007
  437MOL0     H57683   8.223   9.794   8.497  0.5456  1.4713 -1.2323
  437MOL0     H57684   7.984   9.744   8.557 -1.0595  0.8070 -0.1645
  438MOL0     O57685   9.105  10.964   1.990 -0.0844 -0.2076 -0.3253
  438MOL0     C57686   9.120  11.008   1.877  0.0237 -0.0532  0.5479
  438MOL0     O57687   9.024  11.056   1.793  0.1908 -0.8943 -0.2580
  438MOL0     C57688   8.887  11.071   1.821  0.1582  0.3126  0.0901
  438MOL0     C57689   8.809  11.141   1.728  0.2459 -0.8313 -0.3251
  438MOL0     C57690   8.668  11.167   1.757 -0.1644 -0.0721 -0.2651
  438MOL0     C57691   8.602  11.110   1.861 -0.5601  0.0569 -0.0932
  438MOL0     O57692   8.465  11.125   1.866 -0.3193  0.0441  0.4275
  438MOL0     C57693   8.390  11.049   1.964  0.7095 -0.1289  0.1530
  438MOL0     C57694   8.249  11.104   1.980 -0.4576  0.7512 -0.0212
  438MOL0     C57695   8.185  11.076   1.855 -0.1218 -0.4347  0.5949
  438MOL0     C57696   8.039  11.095   1.876 -0.0243  0.2973 -0.4279
  438MOL0     C57697   7.993  11.244   1.903 -0.0956  0.4353 -0.6198
  438MOL0     C57698   8.051  11.350   1.799  0.3186  0.5031 -0.1708
  438MOL0     C57699   7.958  11.471   1.786 -0.4413  0.1228 -0.6842
  438MOL0     C57700   7.838  11.437   1.695 -0.1606  0.4453  0.1370
  438MOL0     N57701   7.773  11.555   1.655  0.2303 -0.2067  0.2057
  438MOL0     C57702   7.683  11.557   1.555  0.4700  0.3804  1.0136
  438MOL0     C57703   7.626  11.684   1.551 -1.1895 -0.2921 -0.1406
  438MOL0     C57704   7.533  11.721   1.450  0.0462  0.8027  0.0352
  438MOL0     C57705   7.401  11.697   1.525  0.8403 -0.4062 -0.0782
  438MOL0     C57706   7.301  11.662   1.428  0.5332  0.5578 -0.2714
  438MOL0     C57707   7.161  11.691   1.487 -0.6749  0.2427  0.1124
  438MOL0     O57708   7.061  11.611   1.424  0.2211  0.7364 -0.4103
  438MOL0     C57709   6.928  11.603   1.466 -0.1382  0.4844 -0.1208
  438MOL0     C57710   6.885  11.664   1.591  0.0706  0.4096  0.3113
  438MOL0     C57711   6.744  11.656   1.627 -0.0397 -0.6924 -1.1470
  438MOL0     C57712   6.648  11.585   1.552  0.1716  0.0900 -0.5923
  438MOL0     C57713   6.503  11.589   1.581  0.0726 -0.6234 -0.5034
  438MOL0     O57714   6.427  11.518   1.491  0.2728 -0.1068  0.2345
  438MOL0     C57715   6.289  11.518   1.510  0.3240 -0.0633  0.4484
  438MOL0     C57716   6.215  11.521   1.631 -0.4709  0.7513 -0.7853
  438MOL0     C57717   6.083  11.529   1.635  0.3442  0.0320 -0.5767
  438MOL0     C57718   6.010  11.514   1.508  0.1803  1.0681  0.3069
  438MOL0     O57719   5.875  11.518   1.506  0.2065  1.1849  1.0279
  438MOL0     C57720   5.808  11.482   1.625  0.1614 -0.0440  0.2923
  438MOL0     C57721   5.683  11.390   1.597  0.1259 -0.6009  0.5961
  438MOL0     C57722   5.593  11.454   1.487 -0.0622 -0.3548 -0.2859
  438MOL0     C57723   5.445  11.382   1.491 -0.3201 -1.1157 -0.2335
  438MOL0     C57724   5.342  11.491   1.454  0.1950 -0.0885  0.3188
  438MOL0     C57725   5.204  11.435   1.485 -0.1651 -0.3754  0.5141
  438MOL0     C57726   5.099  11.540   1.446  0.4944 -0.2573 -0.2230
  438MOL0     C57727   4.962  11.493   1.425  1.4156 -0.0748 -0.4486
  438MOL0    Cl57728   4.851  11.625   1.389 -0.1203  0.3462 -0.0736
  438MOL0     C57729   6.075  11.504   1.387  0.4251 -0.1345 -0.4546
  438MOL0     C57730   6.218  11.502   1.389  0.5506 -0.1037 -0.5987
  438MOL0     O57731   6.466  11.651   1.680 -0.4148  0.2020  0.3149
  438MOL0     C57732   6.700  11.500   1.449  0.3926 -0.3019  0.6141
  438MOL0     C57733   6.833  11.521   1.407 -0.6915  0.2650 -0.3570
  438MOL0     N57734   7.706  11.761   1.636  0.3599  0.1864 -0.6998
  438MOL0     N57735   7.781  11.680   1.707 -0.0873  0.6197 -0.7384
  438MOL0     C57736   8.680  11.034   1.950  0.2611 -0.6623  0.0273
  438MOL0     C57737   8.811  11.012   1.924  0.6597 -0.5507  0.2349
  438MOL0     C57738   9.260  11.029   1.835  0.4279 -0.1469 -0.0321
  438MOL0     C57739   9.285  11.062   1.700 -0.4644 -0.4671 -0.0051
  438MOL0     C57740   9.418  11.066   1.655 -0.1030 -0.0977 -0.2128
  438MOL0     C57741   9.521  11.039   1.747  0.2447  0.1971  0.6439
  438MOL0     O57742   9.635  11.029   1.681  0.6106 -0.0945  0.8146
  438MOL0     C57743   9.756  10.997   1.752  0.3342 -0.3949  0.0467
  438MOL0     C57744   9.869  11.055   1.680  0.4134  0.3777  0.6759
  438MOL0     C57745  10.000  10.986   1.724  0.7066 -0.6328  0.8322
  438MOL0     C57746  10.116  11.016   1.638 -0.0162 -0.1125 -0.6127
  438MOL0     C57747  10.144  11.164   1.629  1.0241  0.3437  0.4678
  438MOL0     C57748  10.162  11.281   1.602 -0.3118  0.2779 -0.1711
  438MOL0     C57749   9.495  11.002   1.881 -0.0253 -0.4512  0.3207
  438MOL0     C57750   9.368  11.006   1.925  0.1960  0.7034  0.1785
  438MOL0     H57751   8.864  11.185   1.645  0.0523  0.7246  0.3371
  438MOL0     H57752   8.590  11.225   1.709 -0.6546  0.4551  1.1463
  438MOL0     H57753   8.447  11.047   2.057  1.2051  1.1252 -0.1091
  438MOL0     H57754   8.380  10.947   1.926 -3.1623  0.9489 -2.2754
  438MOL0     H57755   8.255  11.209   2.012 -0.2654  0.5609  0.5719
  438MOL0     H57756   8.196  11.051   2.059  2.2387 -1.9467  0.1532
  438MOL0     H57757   8.200  10.975   1.814 -0.2147 -0.6128  0.9900
  438MOL0     H57758   8.222  11.137   1.772 -0.7769  0.1222  0.7052
  438MOL0     H57759   7.982  11.075   1.785  1.5325 -0.6837 -1.2254
  438MOL0     H57760   8.010  11.035   1.963  4.5535  1.3905  2.2038
  438MOL0     H57761   8.033  11.281   1.998  0.7804  0.9473 -1.1831
  438MOL0     H57762   7.884  11.260   1.906 -0.0375  0.9320 -1.1003
  438MOL0     H57763   8.060  11.307   1.699 -2.8252  1.0362 -0.7852
  438MOL0     H57764   8.151  11.384   1.829 -0.1004  0.3564  1.5061
  438MOL0     H57765   7.918  11.501   1.884 -1.4165 -1.0354 -0.7024
  438MOL0     H57766   8.019  11.553   1.747  0.6641  0.0409  0.7872
  438MOL0     H57767   7.771  11.368   1.747  1.5359  0.5277  2.6028
  438MOL0     H57768   7.886  11.385   1.611 -1.9248 -1.8341  0.4454
  438MOL0     H57769   7.663  11.476   1.485 -2.9495  0.8195  1.2884
  438MOL0     H57770   7.550  11.652   1.367  0.7641  2.4156 -1.2075
  438MOL0     H57771   7.542  11.825   1.416  2.9614  1.0017  1.1279
  438MOL0     H57772   7.367  11.791   1.569  0.3808 -1.2896  1.5375
  438MOL0     H57773   7.410  11.625   1.606  0.9616 -0.4326 -0.1144
  438MOL0     H57774   7.325  11.711   1.333 -0.4425 -1.1411 -1.4607
  438MOL0     H57775   7.318  11.554   1.423  3.5475  0.9474  0.0100
  438MOL0     H57776   7.132  11.797   1.488 -1.3682  0.1415 -2.5671
  438MOL0     H57777   7.162  11.671   1.595  0.3165  0.2390  0.1170
  438MOL0     H57778   6.953  11.725   1.650 -0.7359  0.5680  1.1133
  438MOL0     H57779   6.713  11.699   1.721  1.8558 -4.7888  1.6296
  438MOL0     H57780   6.270  11.530   1.724 -2.5905 -1.1701  0.7819
  438MOL0     H57781   6.035  11.537   1.732 -0.4635 -0.9570 -0.8679
  438MOL0     H57782   5.777  11.573   1.677  0.0098 -0.6813  1.3435
  438MOL0     H57783   5.865  11.429   1.701 -0.7319  0.4142  1.3186
  438MOL0     H57784   5.624  11.373   1.688 -2.8452 -0.6242 -1.2006
  438MOL0     H57785   5.712  11.293   1.556 -1.8260 -1.1960  0.5369
  438MOL0     H57786   5.645  11.447   1.392  1.9209 -1.3530  0.8015
  438MOL0     H57787   5.578  11.560   1.508 -0.5201 -0.8143  1.9683
  438MOL0     H57788   5.438  11.290   1.433 -1.5348 -1.4996  0.4876
  438MOL0     H57789   5.427  11.353   1.595  2.9462  0.3216  0.8523
  438MOL0     H57790   5.353  11.519   1.348  2.4577  2.0979  1.0322
  438MOL0     H57791   5.364  11.582   1.511 -0.9889  1.0917 -1.0060
  438MOL0     H57792   5.186  11.431   1.593  0.9923  1.7585  0.8385
  438MOL0     H57793   5.182  11.336   1.444 -0.7028 -0.3853  0.8178
  438MOL0     H57794   5.090  11.612   1.528 -1.1307  0.0342 -0.6220
  438MOL0     H57795   5.127  11.595   1.356  1.5656  1.0690  0.8650
  438MOL0     H57796   4.922  11.435   1.508  1.4127 -3.7941 -2.7817
  438MOL0     H57797   4.959  11.435   1.332  0.4622  0.5109 -0.7899
  438MOL0     H57798   6.016  11.516   1.297 -1.0312  1.3784  0.6364
  438MOL0     H57799   6.265  11.478   1.294  2.6644 -1.5598  0.7104
  438MOL0     H57800   6.645  11.419   1.402 -1.4135  0.8584  0.5972
  438MOL0     H57801   6.869  11.451   1.333  3.7865 -0.3468  2.0021
  438MOL0     H57802   8.654  10.998   2.049  1.1987 -1.1606  0.1001
  438MOL0     H57803   8.866  10.958   2.000 -0.0762 -0.1743  1.0491
  438MOL0     H57804   9.200  11.073   1.633 -2.1601 -0.3300  2.0533
  438MOL0     H57805   9.453  11.077   1.553 -1.1648  0.2000 -0.5650
  438MOL0     H57806   9.764  10.888   1.747 -1.7082 -0.5475 -0.8168
  438MOL0     H57807   9.756  11.037   1.854  3.4037 -0.6185  0.2322
  438MOL0     H57808   9.868  11.031   1.573  0.8342 -3.0019  1.3231
  438MOL0     H57809   9.870  11.163   1.695  0.1777  0.2680  1.5413
  438MOL0     H57810   9.992  10.877   1.716  1.8251 -0.7569  1.3260
  438MOL0     H57811  10.022  11.026   1.823  1.2581  1.7217 -0.1629
  438MOL0     H57812  10.203  10.965   1.680 -3.1536 -2.4409  3.7053
  438MOL0     H57813  10.101  10.977   1.537 -1.3617  0.3783 -0.6151
  438MOL0     H57814  10.185  11.381   1.573 -3.4340  0.5991 -1.9039
  438MOL0     H57815   9.576  10.962   1.940  0.8449  0.3859 -0.2846
  438MOL0     H57816   9.353  10.964   2.024  2.7570 -0.4194  0.1599
  439MOL0     O57817   2.510   7.170   3.917  0.3230  0.1808  1.0606
  439MOL0     C57818   2.563   7.112   4.004 -0.3382 -0.1270 -0.3604
  439MOL0     O57819   2.498   7.032   4.097 -0.2272 -0.1466  0.1217
  439MOL0     C57820   2.365   7.003   4.063 -1.0497 -0.2217  0.3602
  439MOL0     C57821   2.260   7.101   4.048 -0.0141  0.5543 -0.8967
  439MOL0     C57822   2.125   7.066   4.020 -0.0810 -0.5503  0.1150
  439MOL0     C57823   2.082   6.934   4.003  0.4470  0.0819  0.3713
  439MOL0     O57824   1.950   6.913   3.971  0.9405  0.9189 -0.1694
  439MOL0     C57825   1.913   6.772   3.958 -0.1793 -0.1967 -0.1089
  439MOL0     C57826   1.766   6.771   3.924 -0.2179  0.1149  0.0238
  439MOL0     C57827   1.674   6.823   4.035 -0.3896  0.7625 -0.2581
  439MOL0     C57828   1.559   6.906   3.983  0.5356  0.3618  0.6126
  439MOL0     C57829   1.444   6.815   3.955  0.1087  0.0051 -0.1314
  439MOL0     C57830   1.346   6.886   3.860 -0.1978 -0.7610 -0.7734
  439MOL0     C57831   1.220   6.804   3.833  0.1063 -0.5722 -1.0574
  439MOL0     C57832   1.107   6.904   3.812  0.7797 -0.2857  0.5873
  439MOL0     N57833   0.990   6.824   3.772 -0.1575  0.1927 -0.2457
  439MOL0     C57834   0.888   6.871   3.694 -0.1374 -0.9396 -0.2896
  439MOL0     C57835   0.790   6.783   3.693  0.3783  0.3708 -0.2556
  439MOL0     C57836   0.660   6.781   3.613  0.7482  0.4698 -0.5127
  439MOL0     C57837   0.536   6.740   3.707  0.3662  0.5032  0.2760
  439MOL0     C57838   0.408   6.752   3.624  0.0009 -0.4766 -0.3037
  439MOL0     C57839   0.292   6.690   3.699  0.1747 -0.0471  0.7395
  439MOL0     O57840   0.164   6.745   3.657 -0.3100 -0.3076 -0.0677
  439MOL0     C57841   0.056   6.707   3.734 -0.3901  0.9927 -0.0546
  439MOL0     C57842  -0.060   6.762   3.709  0.0294  0.6913 -1.4319
  439MOL0     C57843  -0.182   6.725   3.775 -0.1004 -0.3011  0.6605
  439MOL0     C57844  -0.187   6.624   3.869  0.1209  0.5354 -0.3816
  439MOL0     C57845  -0.307   6.578   3.934 -0.2697 -0.3589 -0.0373
  439MOL0     O57846  -0.415   6.645   3.906  0.1793  0.1171 -0.3685
  439MOL0     C57847  -0.529   6.611   3.970  0.0924 -0.3360  0.4165
  439MOL0     C57848  -0.542   6.601   4.114  1.2615  0.5636  0.5199
  439MOL0     C57849  -0.674   6.588   4.175 -0.3903 -0.0448 -0.2462
  439MOL0     C57850  -0.782   6.580   4.095  0.2498 -0.4448  0.0148
  439MOL0     O57851  -0.902   6.556   4.153 -0.2734 -0.8496 -0.5439
  439MOL0     C57852  -1.016   6.643   4.117 -0.0427  0.1407  0.4310
  439MOL0     C57853  -1.079   6.699   4.251 -0.3883 -0.4891  1.0872
  439MOL0     C57854  -1.177   6.603   4.323 -0.2114  0.6107  0.8138
  439MOL0     C57855  -1.114   6.475   4.383  0.4376  0.1709 -0.1071
  439MOL0     C57856  -1.014   6.510   4.498  0.3651  0.7331 -0.0013
  439MOL0     C57857  -0.930   6.398   4.559  0.2950  0.2738  1.3319
  439MOL0     C57858  -1.020   6.306   4.639 -0.6868 -1.1976 -0.4426
  439MOL0     C57859  -0.925   6.190   4.674  0.0368  0.1444 -0.2723
  439MOL0    Cl57860  -1.035   6.068   4.753 -0.0335 -0.3473  0.2794
  439MOL0     C57861  -0.768   6.584   3.958  0.6474  0.2129  0.2011
  439MOL0     C57862  -0.646   6.598   3.897  0.2300 -0.1105  0.2404
  439MOL0     O57863  -0.301   6.469   3.988  1.1298  1.0470 -0.5151
  439MOL0     C57864  -0.061   6.562   3.902  0.2387 -0.0047 -0.1470
  439MOL0     C57865   0.057   6.605   3.839  0.0050 -0.5269 -0.1474
  439MOL0     N57866   0.830   6.677   3.776 -0.2051 -0.2081 -0.1572
  439MOL0     N57867   0.944   6.706   3.831  0.0594 -0.0189 -0.5754
  439MOL0     C57868   2.175   6.842   4.041 -0.3389  0.4888 -0.8611
  439MOL0     C57869   2.313   6.877   4.075  0.1172  0.1209  0.1026
  439MOL0     C57870   2.705   7.138   4.027 -0.2857  0.1165  0.0607
  439MOL0     C57871   2.783   7.216   3.940  0.3183  0.1063  0.8570
  439MOL0     C57872   2.923   7.220   3.953 -0.0685  0.1711 -0.1295
  439MOL0     C57873   2.991   7.170   4.061  0.1422 -0.1676 -0.0307
  439MOL0     O57874   3.124   7.193   4.069 -0.1655 -1.1261 -1.2112
  439MOL0     C57875   3.184   7.183   4.200  0.0515  0.0651 -0.2359
  439MOL0     C57876   3.329   7.245   4.199  0.3782  0.3910  0.0227
  439MOL0     C57877   3.413   7.153   4.114 -0.2680  0.1877 -0.8200
  439MOL0     C57878   3.550   7.142   4.181 -0.5981 -0.1353  0.3539
  439MOL0     C57879   3.548   7.069   4.313 -0.1104  0.6428  0.1739
  439MOL0     C57880   3.545   7.006   4.417  0.0689 -0.9019  0.9028
  439MOL0     C57881   2.908   7.097   4.158 -0.9521  0.1402  0.2642
  439MOL0     C57882   2.772   7.076   4.136  0.0387  0.4169  0.1133
  439MOL0     H57883   2.286   7.206   4.056  2.2385  0.2459 -2.8842
  439MOL0     H57884   2.053   7.146   4.010 -0.4269 -0.7642  0.7858
  439MOL0     H57885   1.918   6.719   4.054 -1.5549 -0.2877 -0.0663
  439MOL0     H57886   1.974   6.729   3.879  0.1726  0.4959 -0.2194
  439MOL0     H57887   1.731   6.669   3.904 -3.2591  0.4500  2.8813
  439MOL0     H57888   1.743   6.815   3.827  2.1533 -1.4974 -1.3847
  439MOL0     H57889   1.734   6.883   4.105  1.7392  0.2352 -1.5313
  439MOL0     H57890   1.644   6.733   4.088  1.4486  0.5464  0.4969
  439MOL0     H57891   1.524   6.990   4.043 -1.4148 -0.4859  0.7173
  439MOL0     H57892   1.594   6.954   3.891 -1.8409  1.1280  0.0293
  439MOL0     H57893   1.395   6.790   4.049 -1.6352  0.0471 -0.9776
  439MOL0     H57894   1.472   6.720   3.907 -1.6866 -0.0342 -1.2122
  439MOL0     H57895   1.390   6.922   3.767 -0.6435  1.1063 -0.2994
  439MOL0     H57896   1.306   6.976   3.907 -1.4495 -2.4688  1.6283
  439MOL0     H57897   1.232   6.742   3.743  2.8062 -1.2895 -0.2890
  439MOL0     H57898   1.182   6.739   3.911 -0.5736  0.9144 -0.1006
  439MOL0     H57899   1.126   6.975   3.730  1.5806 -3.4964 -2.2096
  439MOL0     H57900   1.080   6.961   3.902 -0.7625  0.8376 -0.5092
  439MOL0     H57901   0.871   6.966   3.643 -0.0003 -0.5872  0.3192
  439MOL0     H57902   0.652   6.704   3.536  2.0749 -1.2770  0.9809
  439MOL0     H57903   0.650   6.878   3.562 -1.9520 -1.3920 -3.9412
  439MOL0     H57904   0.528   6.807   3.793  2.1019  1.9096 -0.5833
  439MOL0     H57905   0.560   6.639   3.742  0.3108 -0.1192 -1.4017
  439MOL0     H57906   0.383   6.858   3.617 -2.7830 -1.1087 -0.9212
  439MOL0     H57907   0.426   6.708   3.526  0.6136  0.1154 -0.4638
  439MOL0     H57908   0.302   6.694   3.808  1.5492 -1.1370  0.6953
  439MOL0     H57909   0.297   6.586   3.663  3.8967  0.6526 -1.2841
  439MOL0     H57910  -0.071   6.835   3.630 -1.5388  4.4375  1.9132
  439MOL0     H57911  -0.269   6.781   3.744  0.7040 -0.6163 -2.5269
  439MOL0     H57912  -0.464   6.606   4.190  1.3822  1.1456  0.3692
  439MOL0     H57913  -0.675   6.577   4.282  0.7663  2.4269  0.1003
  439MOL0     H57914  -1.094   6.583   4.069 -0.5149  0.3773  0.8784
  439MOL0     H57915  -0.994   6.727   4.050 -1.6503  0.0964 -0.2068
  439MOL0     H57916  -1.115   6.801   4.233  0.3135 -0.0187  2.1847
  439MOL0     H57917  -0.999   6.715   4.324  0.1364  0.3096  0.3595
  439MOL0     H57918  -1.254   6.569   4.253  0.8928 -0.0922 -0.0834
  439MOL0     H57919  -1.220   6.656   4.409  0.5390 -0.6921  2.0372
  439MOL0     H57920  -1.189   6.399   4.410 -0.5361  0.7165 -1.1514
  439MOL0     H57921  -1.061   6.417   4.306 -1.2324  0.9313 -1.9340
  439MOL0     H57922  -1.077   6.540   4.583  1.1608 -0.9529  1.2294
  439MOL0     H57923  -0.946   6.589   4.467  0.1387  0.8537 -0.1981
  439MOL0     H57924  -0.850   6.441   4.619  1.6387 -0.4686  0.1333
  439MOL0     H57925  -0.892   6.334   4.479  1.1818  0.5001  1.5625
  439MOL0     H57926  -1.050   6.350   4.734  1.2096  2.3772 -1.3496
  439MOL0     H57927  -1.110   6.273   4.586  0.5315 -2.0180 -2.1187
  439MOL0     H57928  -0.847   6.218   4.746 -1.6110 -1.7189  2.3856
  439MOL0     H57929  -0.882   6.149   4.582  1.8636 -0.0722  0.6271
  439MOL0     H57930  -0.852   6.591   3.891 -0.0069 -0.4384  0.9283
  439MOL0     H57931  -0.643   6.613   3.789 -0.5144  0.3579  0.2767
  439MOL0     H57932  -0.051   6.475   3.967 -3.3464 -1.0996 -0.8350
  439MOL0     H57933   0.152   6.557   3.858  0.9095  1.6450  1.2612
  439MOL0     H57934   2.155   6.736   4.032  0.7704 -0.2551  3.3772
  439MOL0     H57935   2.380   6.797   4.107 -0.1281  0.5405  1.7505
  439MOL0     H57936   2.738   7.267   3.855  0.8395 -1.5698 -0.4788
  439MOL0     H57937   2.987   7.287   3.896  2.7570 -3.2759 -1.4318
  439MOL0     H57938   3.195   7.082   4.241  1.2431  0.9770  1.8602
  439MOL0     H57939   3.132   7.251   4.268  0.3213 -0.1340  0.1731
  439MOL0     H57940   3.332   7.343   4.151  2.3115  1.0666  1.4132
  439MOL0     H57941   3.371   7.263   4.299 -0.9524  3.2345  0.1668
  439MOL0     H57942   3.417   7.200   4.015 -0.8697 -0.1722 -1.0240
  439MOL0     H57943   3.373   7.052   4.103  0.1506 -0.4631  2.5470
  439MOL0     H57944   3.619   7.094   4.112  0.4361  2.9846 -0.9727
  439MOL0     H57945   3.581   7.246   4.198 -1.0691  0.7857 -3.5095
  439MOL0     H57946   3.546   6.962   4.515  0.0719 -2.9392  0.0335
  439MOL0     H57947   2.950   7.052   4.248 -0.1341 -1.1687 -0.7218
  439MOL0     H57948   2.716   7.014   4.205 -0.8323  0.2054 -0.7556
  440MOL0     O57949   5.786   7.746   4.941  0.2566  0.2344 -0.0645
  440MOL0     C57950   5.826   7.785   4.831 -0.2324 -0.1796  0.3291
  440MOL0     O57951   5.750   7.799   4.724  0.2982 -0.7940  0.2619
  440MOL0     C57952   5.611   7.786   4.738  0.1419 -0.1056 -0.4078
  440MOL0     C57953   5.523   7.855   4.825  0.4966  0.2025  0.5731
  440MOL0     C57954   5.387   7.815   4.839  0.8918 -0.5921  0.6927
  440MOL0     C57955   5.331   7.717   4.758 -0.1160  0.4103 -0.1947
  440MOL0     O57956   5.196   7.682   4.770 -0.6269  0.0608 -0.6204
  440MOL0     C57957   5.108   7.781   4.724  0.3727 -0.0633  0.4984
  440MOL0     C57958   4.974   7.712   4.696  0.0477  0.6757 -0.4261
  440MOL0     C57959   4.877   7.807   4.631  0.2591 -0.6252 -0.2539
  440MOL0     C57960   4.750   7.735   4.577 -0.2890  0.3732 -0.2590
  440MOL0     C57961   4.636   7.825   4.559  0.6648 -0.1073 -0.1290
  440MOL0     C57962   4.668   7.940   4.468  0.0031  0.1101 -0.2765
  440MOL0     C57963   4.550   8.031   4.470 -0.4792 -0.6483  0.3489
  440MOL0     C57964   4.574   8.158   4.386  0.6183  0.0238  0.3611
  440MOL0     N57965   4.444   8.223   4.377 -0.3730  0.3274  0.4436
  440MOL0     C57966   4.369   8.228   4.267 -0.0060 -0.8916 -0.0196
  440MOL0     C57967   4.269   8.312   4.291 -0.0914  0.2164 -0.5580
  440MOL0     C57968   4.174   8.346   4.181 -0.4395  0.0279  0.3601
  440MOL0     C57969   4.043   8.408   4.232 -0.0665  0.3040  0.0656
  440MOL0     C57970   3.935   8.431   4.121  0.3786 -0.4108  0.3867
  440MOL0     C57971   3.834   8.523   4.177  0.8014 -0.2345 -0.0560
  440MOL0     O57972   3.714   8.501   4.096  0.1097  0.5919 -0.0980
  440MOL0     C57973   3.599   8.568   4.128 -0.3736  1.1851 -1.0469
  440MOL0     C57974   3.514   8.598   4.032  0.8943 -0.9520 -0.6208
  440MOL0     C57975   3.386   8.661   4.054  0.2378 -0.1058  0.3389
  440MOL0     C57976   3.335   8.672   4.189  0.7417  0.4879  0.2734
  440MOL0     C57977   3.196   8.720   4.220  1.0160  0.1398 -0.9852
  440MOL0     O57978   3.117   8.731   4.110 -0.5843  0.6306 -0.0519
  440MOL0     C57979   2.991   8.784   4.118  0.6561 -0.7638 -0.5276
  440MOL0     C57980   2.893   8.742   4.208  0.3757  0.0800 -0.3654
  440MOL0     C57981   2.755   8.785   4.200  0.0083  0.5164  0.6029
  440MOL0     C57982   2.719   8.873   4.105 -0.4058  0.3562  0.0941
  440MOL0     O57983   2.583   8.892   4.092  0.1910  0.1360  0.5705
  440MOL0     C57984   2.528   8.992   4.002 -0.1155  0.6534 -0.2520
  440MOL0     C57985   2.382   9.026   4.054 -0.5968  0.4234 -1.4572
  440MOL0     C57986   2.300   8.895   4.092  0.2020 -0.2725 -0.0205
  440MOL0     C57987   2.149   8.926   4.089 -0.0273  0.2738 -1.0023
  440MOL0     C57988   2.070   8.803   4.128  0.4558  0.0346  0.5543
  440MOL0     C57989   1.924   8.845   4.142  0.2926 -0.3908 -0.4785
  440MOL0     C57990   1.831   8.742   4.192  0.7144  0.1643  0.0810
  440MOL0     C57991   1.690   8.789   4.232 -1.4493 -0.6646  0.1879
  440MOL0    Cl57992   1.564   8.662   4.233 -0.0607 -0.1118 -0.1269
  440MOL0     C57993   2.814   8.919   4.007 -0.0635  0.2238  0.5383
  440MOL0     C57994   2.948   8.882   4.019 -0.1323 -0.2760  0.1518
  440MOL0     O57995   3.169   8.771   4.328 -0.3658 -0.0360  0.2792
  440MOL0     C57996   3.428   8.645   4.288 -0.6674 -0.0788  0.4124
  440MOL0     C57997   3.555   8.590   4.265 -0.0025  0.0761 -0.0399
  440MOL0     N57998   4.276   8.350   4.429  0.2849 -0.7704  0.1264
  440MOL0     N57999   4.385   8.292   4.478  0.0504  0.3583  0.2547
  440MOL0     C58000   5.416   7.652   4.664 -0.1510  0.0947 -0.1474
  440MOL0     C58001   5.554   7.688   4.658  0.3254 -0.1668 -0.0731
  440MOL0     C58002   5.976   7.797   4.810  0.1728  1.1249 -0.0311
  440MOL0     C58003   6.025   7.834   4.682  0.2115  0.5781  0.2413
  440MOL0     C58004   6.166   7.836   4.650  0.1085  1.4813 -0.2454
  440MOL0     C58005   6.264   7.801   4.743 -0.3253 -0.1490  0.1349
  440MOL0     O58006   6.406   7.808   4.717 -0.1346 -0.0164  0.2344
  440MOL0     C58007   6.450   7.816   4.580 -0.2833 -0.1094 -0.3890
  440MOL0     C58008   6.587   7.736   4.564  0.6221 -0.6014  0.4175
  440MOL0     C58009   6.682   7.818   4.467  0.4861 -0.1406  0.5383
  440MOL0     C58010   6.819   7.755   4.467  0.6153 -0.4931  0.1570
  440MOL0     C58011   6.903   7.846   4.390  0.3135  0.6980  0.4876
  440MOL0     C58012   6.982   7.905   4.315  0.0576  1.1344 -0.8908
  440MOL0     C58013   6.216   7.765   4.870 -0.2990 -0.2409 -0.3539
  440MOL0     C58014   6.078   7.767   4.901 -0.7669  1.5001 -0.2400
  440MOL0     H58015   5.538   7.942   4.888 -0.0412  0.6541  0.1018
  440MOL0     H58016   5.318   7.856   4.912  2.3027  1.4108  0.9593
  440MOL0     H58017   5.147   7.827   4.633 -3.6623 -0.6653 -1.7575
  440MOL0     H58018   5.079   7.856   4.799  1.2595  3.1284 -2.0869
  440MOL0     H58019   4.938   7.677   4.793 -0.5279  1.6436 -0.2716
  440MOL0     H58020   4.992   7.619   4.641  0.2517  1.3512 -1.5499
  440MOL0     H58021   4.925   7.856   4.547 -1.0467  0.6181 -0.3223
  440MOL0     H58022   4.847   7.878   4.709  1.7023 -0.0299 -0.2083
  440MOL0     H58023   4.783   7.692   4.481  0.6057  2.6688 -1.0583
  440MOL0     H58024   4.729   7.656   4.649  2.1548  0.1533  0.3049
  440MOL0     H58025   4.621   7.865   4.660  3.2101  1.4578 -0.2649
  440MOL0     H58026   4.548   7.774   4.520  1.4639 -1.7257  0.0870
  440MOL0     H58027   4.697   7.906   4.368  0.0887  1.1424 -0.6124
  440MOL0     H58028   4.761   7.991   4.497 -1.4147  3.1058 -0.6677
  440MOL0     H58029   4.460   7.978   4.438 -1.8361  2.4797 -1.5231
  440MOL0     H58030   4.543   8.066   4.574 -1.7156 -1.5719  0.6015
  440MOL0     H58031   4.617   8.133   4.288 -0.9564 -1.0025 -0.1182
  440MOL0     H58032   4.631   8.227   4.447 -1.9390  1.6376  1.0843
  440MOL0     H58033   4.388   8.195   4.165  1.5128 -0.0348 -0.0491
  440MOL0     H58034   4.151   8.255   4.124 -2.1199 -0.7967  2.2309
  440MOL0     H58035   4.221   8.407   4.103 -1.6592  1.2357  0.5340
  440MOL0     H58036   4.065   8.495   4.296  1.3674  0.1036 -0.1244
  440MOL0     H58037   4.005   8.325   4.293 -0.4448  1.0760  0.9121
  440MOL0     H58038   3.981   8.477   4.033 -0.4290 -2.0020 -0.9000
  440MOL0     H58039   3.897   8.334   4.089 -0.5938  0.1739 -0.2736
  440MOL0     H58040   3.867   8.627   4.163  0.4565  0.2130  2.1556
  440MOL0     H58041   3.817   8.505   4.283  1.4056  0.6030  0.1956
  440MOL0     H58042   3.535   8.582   3.927  3.6203 -1.2218 -0.0985
  440MOL0     H58043   3.327   8.687   3.966 -0.0865 -0.4704  0.4481
  440MOL0     H58044   2.910   8.681   4.296 -4.8086  1.2442  1.8004
  440MOL0     H58045   2.681   8.750   4.270 -1.3883  1.9257 -0.1013
  440MOL0     H58046   2.518   8.958   3.899 -0.2123 -2.1405  0.5972
  440MOL0     H58047   2.591   9.081   4.017  1.0370  0.7814 -4.6809
  440MOL0     H58048   2.336   9.073   3.966  2.6997  3.6900 -1.7135
  440MOL0     H58049   2.387   9.091   4.141  4.6286 -0.6031 -0.6427
  440MOL0     H58050   2.337   8.849   4.184  3.2486  1.4745 -0.2360
  440MOL0     H58051   2.321   8.824   4.012  1.8752  0.1278  0.0237
  440MOL0     H58052   2.129   9.002   4.165 -1.1800  0.4925 -1.4957
  440MOL0     H58053   2.111   8.954   3.991  0.2725 -1.3802 -1.6187
  440MOL0     H58054   2.109   8.773   4.225  1.2666 -3.2376 -0.6541
  440MOL0     H58055   2.080   8.726   4.051 -2.6227  0.7296 -0.6970
  440MOL0     H58056   1.897   8.892   4.047 -1.0156 -0.1877 -0.0250
  440MOL0     H58057   1.921   8.921   4.221  1.4564 -0.6520 -0.1671
  440MOL0     H58058   1.824   8.673   4.107  1.7631  2.5615 -2.0912
  440MOL0     H58059   1.881   8.693   4.276 -0.5453  1.1489  1.4597
  440MOL0     H58060   1.654   8.869   4.166  0.4366  0.7879  0.8512
  440MOL0     H58061   1.699   8.839   4.329 -1.4475 -0.3079  0.0058
  440MOL0     H58062   2.786   8.991   3.931  0.4835  0.3657  0.4688
  440MOL0     H58063   3.023   8.907   3.944 -1.8970 -1.0526 -1.9735
  440MOL0     H58064   3.394   8.664   4.390 -2.8289  0.8584 -0.4092
  440MOL0     H58065   3.612   8.563   4.353  0.5802  0.8977 -0.1517
  440MOL0     H58066   5.380   7.576   4.595  0.9219  1.2219 -2.0589
  440MOL0     H58067   5.618   7.647   4.580 -0.1654  2.2283 -1.8667
  440MOL0     H58068   5.949   7.858   4.608  0.4206 -0.0665 -0.1879
  440MOL0     H58069   6.190   7.863   4.548 -2.6669 -1.5269 -1.8493
  440MOL0     H58070   6.461   7.923   4.562  0.8826  0.2847  2.1659
  440MOL0     H58071   6.377   7.776   4.510  1.8562  0.2801 -2.9796
  440MOL0     H58072   6.619   7.718   4.668 -1.0846  1.1365  1.3023
  440MOL0     H58073   6.569   7.639   4.517  1.1605 -1.9731  2.8477
  440MOL0     H58074   6.686   7.923   4.498  1.5741 -0.4186  1.4045
  440MOL0     H58075   6.640   7.814   4.366 -1.5980  4.1094  1.0335
  440MOL0     H58076   6.852   7.753   4.572  0.9900 -1.0974  0.0304
  440MOL0     H58077   6.816   7.652   4.431  2.2840 -1.0307  1.4153
  440MOL0     H58078   7.060   7.945   4.254  1.7238 -1.4185 -0.6183
  440MOL0     H58079   6.297   7.718   4.925  0.5622  0.1340 -1.2656
  440MOL0     H58080   6.057   7.731   5.002 -1.0437  1.3759 -0.3415
  441MOL0     O58081   5.263   6.210   2.944  0.5167  0.1806  0.6195
  441MOL0     C58082   5.189   6.309   2.939 -0.7181 -0.2934 -0.7283
  441MOL0     O58083   5.224   6.433   2.966 -0.5814  0.1989 -0.3467
  441MOL0     C58084   5.364   6.455   2.976 -0.3752  0.0597 -0.2231
  441MOL0     C58085   5.450   6.431   2.865  0.7031  0.7777  0.3631
  441MOL0     C58086   5.584   6.445   2.883 -0.0385 -0.6395  0.1595
  441MOL0     C58087   5.636   6.491   3.007 -0.7546 -0.1484  0.7143
  441MOL0     O58088   5.776   6.499   3.021  0.7390 -0.0861 -0.2125
  441MOL0     C58089   5.837   6.582   3.121 -0.0092 -0.2609 -0.0571
  441MOL0     C58090   5.802   6.729   3.120 -0.2930  0.7331 -0.6449
  441MOL0     C58091   5.886   6.819   3.021 -0.3690 -0.6247 -0.1098
  441MOL0     C58092   5.835   6.965   3.002  0.0852  0.2932 -0.0844
  441MOL0     C58093   5.958   7.056   2.973 -0.3448  0.2768  0.0177
  441MOL0     C58094   5.925   7.213   2.970 -0.2633 -0.5040  0.5481
  441MOL0     C58095   5.872   7.279   3.103  0.5615  0.1386  0.2557
  441MOL0     C58096   5.867   7.430   3.102 -0.3719 -0.2214 -0.6051
  441MOL0     N58097   5.734   7.470   3.054 -0.2529 -0.6264 -0.0763
  441MOL0     C58098   5.674   7.450   2.928  0.0852 -0.3145  0.1014
  441MOL0     C58099   5.542   7.482   2.940 -0.3367 -0.3970 -0.0753
  441MOL0     C58100   5.449   7.475   2.826 -0.8750 -0.2002  0.4652
  441MOL0     C58101   5.362   7.350   2.828 -0.2590 -0.3837 -0.3985
  441MOL0     C58102   5.261   7.363   2.711  0.2894  0.1143 -0.1348
  441MOL0     C58103   5.164   7.248   2.713  0.1329 -0.1884 -0.5815
  441MOL0     O58104   5.094   7.239   2.587  0.0305  0.2506 -0.7608
  441MOL0     C58105   4.958   7.221   2.592 -0.1861 -0.3329  0.1594
  441MOL0     C58106   4.879   7.172   2.705  0.2198  0.4752  0.5662
  441MOL0     C58107   4.740   7.184   2.697  0.3285 -0.2275 -0.3520
  441MOL0     C58108   4.676   7.200   2.575 -0.2471  0.2781 -0.4034
  441MOL0     C58109   4.529   7.217   2.567 -0.4929  0.1964 -0.3902
  441MOL0     O58110   4.464   7.243   2.682  0.3931 -0.1409  0.1580
  441MOL0     C58111   4.338   7.298   2.676  0.2265  0.7834  0.1834
  441MOL0     C58112   4.324   7.432   2.633 -0.6328  1.0337 -0.6726
  441MOL0     C58113   4.206   7.491   2.641 -0.3238  0.5327 -0.4455
  441MOL0     C58114   4.096   7.431   2.707 -0.2296  0.8285 -0.1042
  441MOL0     O58115   3.986   7.509   2.729 -0.0052 -0.8170  0.2326
  441MOL0     C58116   3.913   7.483   2.852 -0.1322  0.1677  0.0144
  441MOL0     C58117   3.842   7.601   2.911 -0.1810  0.4512  0.5591
  441MOL0     C58118   3.741   7.544   3.010 -0.1844 -0.4648  0.7321
  441MOL0     C58119   3.656   7.650   3.074 -0.0542  0.0709 -0.1259
  441MOL0     C58120   3.537   7.585   3.133  0.1973 -0.3627  0.0728
  441MOL0     C58121   3.466   7.682   3.219  0.2853  0.2831  0.5526
  441MOL0     C58122   3.364   7.618   3.309  0.6091  0.8205 -0.5904
  441MOL0     C58123   3.267   7.724   3.365  0.3548 -0.0019 -0.3759
  441MOL0    Cl58124   3.351   7.816   3.507  0.2134  0.2390  0.3355
  441MOL0     C58125   4.109   7.295   2.750 -0.4744 -0.0670 -0.9994
  441MOL0     C58126   4.237   7.227   2.739  1.5309  0.0026 -1.1074
  441MOL0     O58127   4.477   7.212   2.453  0.0815 -0.1767 -0.4609
  441MOL0     C58128   4.754   7.235   2.467  0.8524  0.4854 -0.4732
  441MOL0     C58129   4.889   7.266   2.474 -0.0958 -0.2539 -0.5164
  441MOL0     N58130   5.539   7.539   3.063 -0.3173  0.2410 -1.1602
  441MOL0     N58131   5.637   7.514   3.140  0.4971 -0.5139 -0.4377
  441MOL0     C58132   5.548   6.522   3.109 -0.3454  0.6240  0.1553
  441MOL0     C58133   5.414   6.497   3.100  0.4270  0.1568  0.2867
  441MOL0     C58134   5.053   6.280   2.911 -0.1522 -0.0557  0.6484
  441MOL0     C58135   4.999   6.153   2.931  0.3155 -0.1050  0.2388
  441MOL0     C58136   4.862   6.130   2.899  0.4058 -0.3415  0.1732
  441MOL0     C58137   4.782   6.232   2.846 -1.0172  0.1638 -0.2565
  441MOL0     O58138   4.651   6.200   2.843  0.0093  0.2821  0.0236
  441MOL0     C58139   4.551   6.286   2.784  0.1792 -0.1028 -0.1487
  441MOL0     C58140   4.409   6.233   2.819 -0.5527  0.2941 -1.1626
  441MOL0     C58141   4.374   6.102   2.746  0.5318  0.3972 -0.3212
  441MOL0     C58142   4.403   5.992   2.839  0.3712 -0.0859 -0.1428
  441MOL0     C58143   4.418   5.859   2.779  0.4571  0.0613 -0.6823
  441MOL0     C58144   4.444   5.751   2.731 -0.4934  0.2451 -0.0599
  441MOL0     C58145   4.833   6.361   2.838 -0.0851  0.7348  0.1131
  441MOL0     C58146   4.965   6.385   2.879  0.0213 -0.0512  0.4217
  441MOL0     H58147   5.398   6.408   2.773 -0.4197  0.5797  1.0198
  441MOL0     H58148   5.643   6.425   2.794 -3.8355 -1.5186 -2.3813
  441MOL0     H58149   5.946   6.579   3.112  0.2867 -0.4647  2.6923
  441MOL0     H58150   5.810   6.541   3.219 -4.3989  0.5233 -0.7332
  441MOL0     H58151   5.819   6.784   3.214  0.9742  1.5623 -1.3284
  441MOL0     H58152   5.698   6.756   3.104 -0.6600 -0.5692 -0.5514
  441MOL0     H58153   5.876   6.775   2.921 -1.7963  1.0526 -0.7590
  441MOL0     H58154   5.992   6.823   3.049 -0.4522 -1.4993  0.3552
  441MOL0     H58155   5.760   6.971   2.924 -0.6045 -0.3783  0.5088
  441MOL0     H58156   5.775   7.000   3.087  0.4668  0.3383  0.1710
  441MOL0     H58157   5.989   7.038   2.870 -2.2164  0.6113 -0.6527
  441MOL0     H58158   6.039   7.041   3.045 -1.6251 -3.9692  0.8539
  441MOL0     H58159   5.844   7.220   2.896  0.1909  1.8843  0.2173
  441MOL0     H58160   6.009   7.267   2.925  1.6838 -1.4836  2.8121
  441MOL0     H58161   5.779   7.247   3.151  2.2068 -0.7365  3.1284
  441MOL0     H58162   5.956   7.241   3.163 -0.7142 -1.5500  1.0655
  441MOL0     H58163   5.945   7.466   3.034 -0.1753 -0.9683 -0.7838
  441MOL0     H58164   5.891   7.475   3.198 -0.4777 -1.8147  0.1969
  441MOL0     H58165   5.726   7.402   2.846  3.5071 -0.0442  1.9002
  441MOL0     H58166   5.503   7.469   2.731 -0.5499 -2.0609  0.7346
  441MOL0     H58167   5.391   7.568   2.824  0.4179  0.6698  1.9935
  441MOL0     H58168   5.310   7.342   2.924  1.6639 -0.9411  0.6605
  441MOL0     H58169   5.416   7.254   2.823  0.6409  0.0417  0.6110
  441MOL0     H58170   5.209   7.459   2.721 -2.4934 -1.1756 -1.0744
  441MOL0     H58171   5.314   7.363   2.616 -0.0090  0.2843 -0.3025
  441MOL0     H58172   5.095   7.280   2.791  1.6654  1.9505  0.0124
  441MOL0     H58173   5.208   7.149   2.728 -1.8010 -0.7252  2.1167
  441MOL0     H58174   4.914   7.138   2.803 -0.4339 -0.6329  0.4307
  441MOL0     H58175   4.687   7.169   2.790 -0.1005  0.6335 -0.4496
  441MOL0     H58176   4.408   7.486   2.591  0.0216  1.6380  1.3282
  441MOL0     H58177   4.182   7.581   2.584 -0.6329 -0.8629 -2.6334
  441MOL0     H58178   3.980   7.459   2.936 -1.0296  0.9523  0.9866
  441MOL0     H58179   3.857   7.392   2.833  1.3798 -0.8366  0.1661
  441MOL0     H58180   3.784   7.649   2.831  0.7514 -1.5975 -1.4682
  441MOL0     H58181   3.913   7.671   2.956  3.3334 -1.6454 -1.2566
  441MOL0     H58182   3.790   7.478   3.082  2.5153  0.5377 -0.0967
  441MOL0     H58183   3.669   7.486   2.951  0.0314  0.3983 -0.4306
  441MOL0     H58184   3.719   7.687   3.155  1.4721  0.8631 -1.5980
  441MOL0     H58185   3.633   7.742   3.020 -0.0033  0.8567  1.1551
  441MOL0     H58186   3.571   7.499   3.191  1.7900  0.6849  0.7648
  441MOL0     H58187   3.470   7.555   3.051 -2.1295  3.4010  0.3276
  441MOL0     H58188   3.419   7.753   3.150 -0.1551 -1.0761 -0.6146
  441MOL0     H58189   3.531   7.741   3.284  0.1633  1.9088 -0.7409
  441MOL0     H58190   3.299   7.551   3.251 -1.9375  1.3294  1.4846
  441MOL0     H58191   3.418   7.558   3.383 -0.4385 -2.7426 -2.4423
  441MOL0     H58192   3.183   7.672   3.413 -1.4580 -0.5277 -3.7630
  441MOL0     H58193   3.223   7.794   3.294  2.6416  0.2876 -1.5693
  441MOL0     H58194   4.026   7.253   2.806  1.9409 -1.0243  2.1895
  441MOL0     H58195   4.246   7.125   2.775 -0.6456  0.2680  0.3983
  441MOL0     H58196   4.693   7.259   2.381 -2.6557 -2.1916  0.9718
  441MOL0     H58197   4.939   7.309   2.388 -3.0408  1.0863 -1.7079
  441MOL0     H58198   5.589   6.550   3.206 -0.6952 -0.7105  0.7176
  441MOL0     H58199   5.351   6.511   3.188  2.3436  0.5047  1.6682
  441MOL0     H58200   5.054   6.064   2.960  1.4562  0.2021 -0.9112
  441MOL0     H58201   4.827   6.027   2.903  1.1132 -0.6061 -0.1250
  441MOL0     H58202   4.580   6.300   2.680 -0.0315  2.6393  0.0894
  441MOL0     H58203   4.552   6.387   2.828  1.1618  0.1362 -0.7071
  441MOL0     H58204   4.410   6.214   2.927  1.0708  0.2362 -1.1634
  441MOL0     H58205   4.339   6.316   2.806 -1.1666  0.0467  0.3605
  441MOL0     H58206   4.441   6.087   2.660  1.3509 -1.0151  0.5231
  441MOL0     H58207   4.269   6.099   2.716  0.2813  0.4950  0.5281
  441MOL0     H58208   4.497   6.013   2.891 -0.9205  0.9286  1.9184
  441MOL0     H58209   4.327   5.989   2.917  0.3965  2.0050  0.0174
  441MOL0     H58210   4.449   5.651   2.692 -0.9357 -0.3102  1.2515
  441MOL0     H58211   4.759   6.440   2.828 -1.1796 -0.2317  0.3847
  441MOL0     H58212   5.006   6.486   2.877  0.9066 -0.4187 -0.7700
  442MOL0     O58213   7.407   3.378   8.342  0.5212  0.1374 -0.1932
  442MOL0     C58214   7.311   3.324   8.398  0.0100  0.0993 -0.2600
  442MOL0     O58215   7.299   3.193   8.440 -0.4999  0.0558  0.4329
  442MOL0     C58216   7.411   3.111   8.420 -0.0940 -0.5572 -0.4725
  442MOL0     C58217   7.394   2.995   8.347 -0.4729  0.7685 -0.5706
  442MOL0     C58218   7.498   2.910   8.320  0.3132  0.2269  0.1734
  442MOL0     C58219   7.624   2.947   8.347 -0.2677 -0.6473  0.2693
  442MOL0     O58220   7.733   2.871   8.302  1.1567 -0.2752  0.3773
  442MOL0     C58221   7.786   2.910   8.173 -0.6274 -0.2111  1.0442
  442MOL0     C58222   7.847   2.803   8.093 -0.3414  0.0817  0.5313
  442MOL0     C58223   7.971   2.750   8.162 -0.6883  0.0259 -0.0317
  442MOL0     C58224   8.037   2.652   8.072 -0.3984 -0.4684  0.6152
  442MOL0     C58225   8.165   2.709   7.993 -0.2185  0.3256  0.0893
  442MOL0     C58226   8.245   2.598   7.914 -0.2530 -0.0858  0.3703
  442MOL0     C58227   8.373   2.655   7.860 -0.3837 -0.2199  1.1602
  442MOL0     C58228   8.433   2.556   7.760 -0.7069  0.2508 -0.2200
  442MOL0     N58229   8.418   2.413   7.793 -0.4662 -0.4266 -0.3455
  442MOL0     C58230   8.452   2.355   7.915  0.3313 -0.2868 -0.6307
  442MOL0     C58231   8.401   2.229   7.909 -0.2767  0.5486  0.7840
  442MOL0     C58232   8.407   2.144   8.034 -0.9805  0.0979 -0.7456
  442MOL0     C58233   8.285   2.157   8.131  0.2986  0.1805  0.0818
  442MOL0     C58234   8.151   2.161   8.051 -0.4828 -0.0184  0.1599
  442MOL0     C58235   8.019   2.150   8.129 -0.6523  0.2656 -0.0401
  442MOL0     O58236   7.991   2.273   8.194 -0.4237 -0.6457 -0.1824
  442MOL0     C58237   7.866   2.300   8.247  0.2953 -0.3693 -0.1599
  442MOL0     C58238   7.850   2.432   8.295  0.4653  0.2090 -1.0637
  442MOL0     C58239   7.724   2.474   8.336 -0.6085  0.0240 -0.0367
  442MOL0     C58240   7.610   2.393   8.345 -1.3438  0.5723  0.1745
  442MOL0     C58241   7.478   2.441   8.393 -0.8488  0.5245 -0.7847
  442MOL0     O58242   7.473   2.572   8.417 -0.3670 -0.5343  0.7652
  442MOL0     C58243   7.356   2.632   8.460  0.0707 -0.1964  0.7198
  442MOL0     C58244   7.366   2.718   8.562 -0.0147  0.5244  0.7354
  442MOL0     C58245   7.251   2.783   8.609  0.1615  0.3307  1.2559
  442MOL0     C58246   7.120   2.764   8.558 -0.7816 -0.1625  0.3815
  442MOL0     O58247   6.999   2.812   8.599  0.1396  0.3596 -0.1187
  442MOL0     C58248   6.998   2.903   8.712  0.0118  0.9177  0.1806
  442MOL0     C58249   6.860   2.919   8.752 -0.1047 -0.0590 -0.0197
  442MOL0     C58250   6.788   3.003   8.644 -0.1330 -0.5222 -0.1888
  442MOL0     C58251   6.641   3.006   8.678 -0.1413  0.2867  0.5712
  442MOL0     C58252   6.576   3.122   8.593 -0.3147  1.2988 -0.0759
  442MOL0     C58253   6.433   3.125   8.619  0.4095  0.0379 -0.2144
  442MOL0     C58254   6.368   3.248   8.561 -0.6014 -0.1559 -0.6588
  442MOL0     C58255   6.203   3.241   8.561 -0.1523  0.3317 -0.2177
  442MOL0    Cl58256   6.142   3.373   8.451  0.5107 -0.1761 -0.1487
  442MOL0     C58257   7.114   2.680   8.439  0.1665 -0.0897 -0.7207
  442MOL0     C58258   7.230   2.618   8.396  0.2872  0.2806  0.4968
  442MOL0     O58259   7.395   2.360   8.427 -0.3397 -0.0097  0.7439
  442MOL0     C58260   7.626   2.259   8.290 -0.1268  0.8108 -0.3862
  442MOL0     C58261   7.748   2.216   8.234 -0.1823 -0.3305  0.1332
  442MOL0     N58262   8.333   2.212   7.788  0.1841  0.1206  0.0985
  442MOL0     N58263   8.339   2.328   7.719 -0.9031 -0.2844 -0.2169
  442MOL0     C58264   7.645   3.068   8.411  0.1574  0.0617  0.0108
  442MOL0     C58265   7.538   3.141   8.459 -0.4355 -0.2964  0.0721
  442MOL0     C58266   7.191   3.408   8.424 -0.2962 -0.1531 -0.0294
  442MOL0     C58267   7.166   3.525   8.350  0.2291 -0.0809  0.2795
  442MOL0     C58268   7.055   3.608   8.386  0.4648 -0.1739 -0.0994
  442MOL0     C58269   6.969   3.570   8.489  0.2166  0.2210  0.7774
  442MOL0     O58270   6.856   3.641   8.492  0.1860  0.3782  0.2411
  442MOL0     C58271   6.797   3.634   8.623 -0.7784 -0.4299  0.4294
  442MOL0     C58272   6.691   3.745   8.623 -0.5920  0.4664 -1.4486
  442MOL0     C58273   6.613   3.751   8.751  0.0937 -0.1169 -0.0183
  442MOL0     C58274   6.505   3.853   8.751 -0.0316 -0.0071  0.5776
  442MOL0     C58275   6.452   3.889   8.883  0.3258  0.0532  0.3486
  442MOL0     C58276   6.425   3.907   9.000  0.0525 -0.7025 -0.0600
  442MOL0     C58277   6.996   3.451   8.562 -0.0634 -0.2288 -0.0931
  442MOL0     C58278   7.113   3.383   8.535 -0.0340  0.2319  0.2319
  442MOL0     H58279   7.295   2.962   8.317  0.6350 -1.1187 -2.4576
  442MOL0     H58280   7.499   2.815   8.268 -1.7026  0.8494 -1.1542
  442MOL0     H58281   7.859   2.986   8.204 -0.8952 -0.1488  1.5237
  442MOL0     H58282   7.709   2.957   8.112 -1.6827 -0.6718  1.9924
  442MOL0     H58283   7.886   2.832   7.995 -1.4465 -0.5167 -0.1115
  442MOL0     H58284   7.767   2.728   8.085 -2.2455  2.1963 -1.6275
  442MOL0     H58285   7.939   2.690   8.247  2.5209 -0.4452  0.9737
  442MOL0     H58286   8.036   2.832   8.196  0.4453  0.2083 -2.3688
  442MOL0     H58287   8.084   2.568   8.123 -0.1314 -0.2503  0.7254
  442MOL0     H58288   7.958   2.614   8.006  3.1576 -1.3422 -3.5695
  442MOL0     H58289   8.238   2.760   8.057  3.1996 -1.9935 -1.6558
  442MOL0     H58290   8.126   2.775   7.914  0.8481 -1.4420 -2.0126
  442MOL0     H58291   8.181   2.559   7.834  0.3484 -0.8511  0.2427
  442MOL0     H58292   8.258   2.515   7.984  0.5027 -0.7869 -0.5486
  442MOL0     H58293   8.349   2.746   7.805  2.9401  1.3637  2.0924
  442MOL0     H58294   8.434   2.675   7.949 -0.9915 -2.3669  2.1440
  442MOL0     H58295   8.532   2.598   7.738 -2.1142  2.2485 -3.5033
  442MOL0     H58296   8.392   2.560   7.659  3.1397 -0.7310 -2.0319
  442MOL0     H58297   8.497   2.400   8.003 -0.4925 -1.9342  0.6754
  442MOL0     H58298   8.502   2.155   8.087  1.9106  1.7226 -5.6099
  442MOL0     H58299   8.391   2.041   8.001 -0.6327 -0.2310  0.1075
  442MOL0     H58300   8.302   2.250   8.187  3.1657 -0.4943  0.4665
  442MOL0     H58301   8.275   2.077   8.205  1.8880 -0.2327 -0.1280
  442MOL0     H58302   8.155   2.248   7.985  1.0387 -1.0826 -1.2231
  442MOL0     H58303   8.146   2.063   8.002 -1.3016  0.0820  0.0178
  442MOL0     H58304   8.023   2.072   8.205  1.1731  2.0890  1.8491
  442MOL0     H58305   7.938   2.128   8.058 -0.3268  0.6891 -0.5447
  442MOL0     H58306   7.929   2.505   8.305 -2.4398  3.6650 -1.1188
  442MOL0     H58307   7.716   2.578   8.363  2.0771  0.0091  1.1083
  442MOL0     H58308   7.464   2.733   8.608  1.7312 -1.8271 -1.9241
  442MOL0     H58309   7.262   2.845   8.697 -0.3463  0.1934  1.4232
  442MOL0     H58310   7.037   3.003   8.693  0.3482  0.9215  0.8432
  442MOL0     H58311   7.058   2.852   8.789 -1.6958 -0.2203  0.8209
  442MOL0     H58312   6.856   2.968   8.849  2.1357  2.7726 -1.2127
  442MOL0     H58313   6.810   2.822   8.759  0.4529 -0.2806  0.9717
  442MOL0     H58314   6.802   2.950   8.549  0.5409  2.3112 -1.7912
  442MOL0     H58315   6.833   3.103   8.643  2.2975 -1.5382 -0.5657
  442MOL0     H58316   6.591   2.912   8.652  1.1678 -0.7475  1.6579
  442MOL0     H58317   6.628   3.026   8.785 -3.3346 -1.5668  0.6631
  442MOL0     H58318   6.584   3.110   8.485 -0.2773 -2.8711  0.2276
  442MOL0     H58319   6.621   3.217   8.623 -0.8796  0.9693  2.0433
  442MOL0     H58320   6.416   3.128   8.727  0.2720 -0.8281 -0.2023
  442MOL0     H58321   6.398   3.026   8.588  0.9904 -0.0388 -0.6404
  442MOL0     H58322   6.400   3.337   8.616  0.2629 -0.8479 -0.0198
  442MOL0     H58323   6.412   3.261   8.461  2.8477  0.6619  0.8064
  442MOL0     H58324   6.167   3.253   8.664  0.2262  1.6821 -0.2264
  442MOL0     H58325   6.166   3.142   8.533  0.1072 -0.0051  0.5862
  442MOL0     H58326   7.017   2.676   8.391 -2.9803  2.2606  4.4859
  442MOL0     H58327   7.243   2.569   8.300 -0.2906 -0.7165  0.9092
  442MOL0     H58328   7.551   2.181   8.292  0.8625 -0.1480  1.1922
  442MOL0     H58329   7.754   2.118   8.188  1.2298  0.7030 -2.1001
  442MOL0     H58330   7.744   3.108   8.432  0.7791 -0.9971 -0.8153
  442MOL0     H58331   7.551   3.225   8.526  1.5109 -1.5092  1.2936
  442MOL0     H58332   7.238   3.551   8.273 -1.5819  1.2146 -1.0478
  442MOL0     H58333   7.021   3.687   8.319 -1.9233 -1.2038 -0.2239
  442MOL0     H58334   6.877   3.660   8.693  1.2064  0.1723 -1.9109
  442MOL0     H58335   6.751   3.537   8.645  0.8637 -1.2324  0.4296
  442MOL0     H58336   6.732   3.845   8.607 -3.4587  2.6469  2.9313
  442MOL0     H58337   6.619   3.720   8.544 -1.7000 -0.2359 -0.2568
  442MOL0     H58338   6.689   3.763   8.828 -0.2654 -0.8289  0.4605
  442MOL0     H58339   6.555   3.658   8.751 -3.4366  1.8378 -2.0855
  442MOL0     H58340   6.546   3.945   8.707  1.7293 -1.0458 -0.0402
  442MOL0     H58341   6.428   3.821   8.681  1.9318 -1.7928 -0.8756
  442MOL0     H58342   6.394   3.924   9.101  0.8782  2.1142 -0.1957
  442MOL0     H58343   6.932   3.419   8.644 -0.0137 -1.6949 -0.6055
  442MOL0     H58344   7.143   3.296   8.592 -0.1792  1.0097  1.5330
  443MOL0     O58345   1.797   4.704   7.954 -0.2653  0.3472  0.3013
  443MOL0     C58346   1.919   4.693   7.945  0.4252  0.2734 -0.2567
  443MOL0     O58347   1.981   4.642   7.829 -0.0931  0.4115 -0.6346
  443MOL0     C58348   1.900   4.599   7.727  0.3619  0.2128  0.1451
  443MOL0     C58349   1.806   4.489   7.741  0.6401 -1.4368 -0.0108
  443MOL0     C58350   1.736   4.449   7.628 -0.4909  0.2375 -0.3485
  443MOL0     C58351   1.748   4.505   7.500  0.8163 -0.1155 -0.0826
  443MOL0     O58352   1.668   4.476   7.395  0.2553  0.3250  0.9738
  443MOL0     C58353   1.674   4.560   7.277  0.4164  0.0128 -0.2651
  443MOL0     C58354   1.553   4.499   7.192 -0.1111 -0.1804  0.0724
  443MOL0     C58355   1.511   4.588   7.088 -0.1705  0.0012 -0.6764
  443MOL0     C58356   1.397   4.523   7.010  0.5193  0.1682 -0.6628
  443MOL0     C58357   1.311   4.633   6.949 -0.0632 -0.7159 -0.5224
  443MOL0     C58358   1.199   4.595   6.852 -0.1001 -0.3779  0.1646
  443MOL0     C58359   1.081   4.518   6.924 -0.2864  0.5418 -0.5833
  443MOL0     C58360   0.972   4.613   6.969  0.4972  0.4135  0.1343
  443MOL0     N58361   0.895   4.674   6.857 -0.4364 -0.0789  0.4798
  443MOL0     C58362   0.816   4.612   6.766  0.2836  0.3251  0.2769
  443MOL0     C58363   0.754   4.719   6.701 -0.3145 -0.7508  0.2756
  443MOL0     C58364   0.646   4.707   6.597 -0.4973  0.4734  0.0010
  443MOL0     C58365   0.525   4.636   6.653  0.8728  0.2472 -0.1197
  443MOL0     C58366   0.471   4.719   6.775 -0.3669 -0.1932  0.1758
  443MOL0     C58367   0.451   4.868   6.741  0.3706  0.2716 -0.5693
  443MOL0     O58368   0.340   4.879   6.649 -0.0864  0.5478  0.5167
  443MOL0     C58369   0.215   4.829   6.693  0.0935 -0.0789  0.7954
  443MOL0     C58370   0.152   4.728   6.611  0.1768 -0.2190  0.4136
  443MOL0     C58371   0.038   4.660   6.665  0.7030 -0.8082  0.0121
  443MOL0     C58372  -0.005   4.687   6.797  1.1221  0.4549  0.8823
  443MOL0     C58373  -0.131   4.613   6.843 -0.4135 -0.2270 -0.6859
  443MOL0     O58374  -0.188   4.523   6.758 -0.2891 -0.1525  0.2670
  443MOL0     C58375  -0.305   4.447   6.790  0.0623 -0.6107  0.3036
  443MOL0     C58376  -0.352   4.414   6.923  0.2185  0.0216  0.7348
  443MOL0     C58377  -0.461   4.324   6.936 -0.2860  1.0156  0.3668
  443MOL0     C58378  -0.533   4.284   6.815 -0.2207  0.0399 -0.3845
  443MOL0     O58379  -0.643   4.203   6.822  0.0555  0.2466  1.3944
  443MOL0     C58380  -0.615   4.057   6.839  0.9581  0.1934  0.3436
  443MOL0     C58381  -0.676   3.984   6.719 -0.0969 -0.3118 -0.2911
  443MOL0     C58382  -0.832   3.972   6.718 -0.0658  0.9564 -0.0678
  443MOL0     C58383  -0.885   3.872   6.825 -0.8076  0.3310  0.6936
  443MOL0     C58384  -0.829   3.735   6.824  0.0682 -0.4845  0.4398
  443MOL0     C58385  -0.914   3.632   6.899  0.2785  1.0976  0.4812
  443MOL0     C58386  -1.036   3.597   6.815 -0.8140 -0.4176  0.2216
  443MOL0     C58387  -1.123   3.495   6.894  0.1804  0.0143  0.2789
  443MOL0    Cl58388  -1.092   3.323   6.837 -0.0131 -0.0266  0.6509
  443MOL0     C58389  -0.500   4.332   6.689 -0.2296  0.1135 -1.0802
  443MOL0     C58390  -0.386   4.409   6.684 -0.2141  0.8340  0.3557
  443MOL0     O58391  -0.182   4.647   6.949 -0.5189  0.4691 -1.4834
  443MOL0     C58392   0.051   4.785   6.874 -0.7196 -0.1156  0.2769
  443MOL0     C58393   0.150   4.857   6.822 -0.3045  0.4481  0.6922
  443MOL0     N58394   0.801   4.845   6.750  0.7272  0.2999  0.5358
  443MOL0     N58395   0.873   4.808   6.846  0.6262  0.8255  0.4257
  443MOL0     C58396   1.846   4.597   7.483  0.6003 -0.5765 -0.8331
  443MOL0     C58397   1.915   4.643   7.597 -0.2594  0.1802 -0.4995
  443MOL0     C58398   1.998   4.748   8.055 -0.4227 -0.6126  0.5797
  443MOL0     C58399   2.139   4.740   8.064 -0.6142 -0.0799 -0.0019
  443MOL0     C58400   2.207   4.783   8.173 -0.0045 -0.2780  0.1229
  443MOL0     C58401   2.145   4.850   8.273 -0.4685 -0.0895  0.1444
  443MOL0     O58402   2.217   4.896   8.375  0.5715 -0.4374  0.0673
  443MOL0     C58403   2.275   5.027   8.346  0.0567  0.2215  0.0001
  443MOL0     C58404   2.348   5.080   8.462  0.5648  0.2712 -0.5377
  443MOL0     C58405   2.407   5.218   8.450 -0.2748 -0.7071 -0.0744
  443MOL0     C58406   2.548   5.226   8.529 -0.4373 -0.2899  0.1233
  443MOL0     C58407   2.654   5.161   8.456 -0.9908 -0.5343 -0.3338
  443MOL0     C58408   2.741   5.089   8.414 -0.5776 -0.3385  0.6060
  443MOL0     C58409   2.007   4.872   8.271  0.6267 -0.1053  0.4848
  443MOL0     C58410   1.940   4.812   8.161  0.8130 -0.3231  0.1274
  443MOL0     H58411   1.794   4.431   7.832  0.3543 -0.9619  0.2576
  443MOL0     H58412   1.666   4.367   7.644 -0.3719  0.4950  1.7469
  443MOL0     H58413   1.771   4.543   7.228  0.5883 -2.3073  0.7267
  443MOL0     H58414   1.663   4.666   7.301  0.9082 -0.3445  1.7969
  443MOL0     H58415   1.463   4.479   7.250  0.8139 -2.8518  0.7527
  443MOL0     H58416   1.591   4.400   7.165  0.8932 -0.0179  0.8420
  443MOL0     H58417   1.596   4.622   7.028 -0.3688  0.1961 -0.8497
  443MOL0     H58418   1.462   4.676   7.131  0.6160  1.0558 -1.8540
  443MOL0     H58419   1.430   4.457   6.929 -2.0666 -2.0799 -0.0319
  443MOL0     H58420   1.332   4.462   7.074 -1.4174 -0.3023 -2.9180
  443MOL0     H58421   1.376   4.693   6.885 -2.0085  2.7717  0.5012
  443MOL0     H58422   1.274   4.694   7.032  0.3342 -0.6026 -0.4284
  443MOL0     H58423   1.236   4.539   6.766 -1.0483 -1.6930  0.5806
  443MOL0     H58424   1.163   4.684   6.800  2.1528  0.3718 -0.2406
  443MOL0     H58425   1.039   4.452   6.847  1.6861  1.3204 -2.4426
  443MOL0     H58426   1.122   4.458   7.006  0.8499 -0.3658 -1.7646
  443MOL0     H58427   1.022   4.692   7.027 -1.0840  0.8828  0.9103
  443MOL0     H58428   0.904   4.568   7.042  1.5896 -0.8287  0.4358
  443MOL0     H58429   0.798   4.505   6.760  0.8227  0.2971 -1.2374
  443MOL0     H58430   0.685   4.652   6.511 -1.2292 -1.2460  0.7260
  443MOL0     H58431   0.612   4.804   6.559 -0.0152  1.3692  1.7742
  443MOL0     H58432   0.549   4.538   6.694  0.9553 -0.5390 -1.9495
  443MOL0     H58433   0.455   4.618   6.570  2.4206 -2.2320 -1.0063
  443MOL0     H58434   0.383   4.679   6.825 -0.5961 -1.2773 -1.0490
  443MOL0     H58435   0.549   4.714   6.851 -0.4067  0.7457  0.2855
  443MOL0     H58436   0.536   4.910   6.688 -0.3802  0.4078 -1.6960
  443MOL0     H58437   0.438   4.927   6.833 -0.0104 -0.2831 -0.2626
  443MOL0     H58438   0.184   4.704   6.511 -1.0052 -2.6694  0.5636
  443MOL0     H58439  -0.023   4.588   6.610  0.3437 -4.4181  4.5426
  443MOL0     H58440  -0.299   4.434   7.016 -0.4631 -0.3288  1.2088
  443MOL0     H58441  -0.487   4.290   7.036 -0.7501 -1.7090 -0.5818
  443MOL0     H58442  -0.672   4.018   6.923 -0.1129  0.6959 -0.1311
  443MOL0     H58443  -0.511   4.023   6.841  0.3905 -1.5949  1.4431
  443MOL0     H58444  -0.640   3.881   6.709  0.4097 -0.1598 -0.0713
  443MOL0     H58445  -0.648   4.044   6.631  2.0337  0.4567  0.8156
  443MOL0     H58446  -0.850   3.930   6.619  1.0341 -1.6483  0.7543
  443MOL0     H58447  -0.891   4.064   6.721 -1.3282  0.3639 -3.3206
  443MOL0     H58448  -0.856   3.912   6.923 -0.4194  0.2684  0.6032
  443MOL0     H58449  -0.994   3.875   6.811 -0.6185 -2.4114 -2.7883
  443MOL0     H58450  -0.732   3.743   6.876  0.2902 -1.5726  0.2083
  443MOL0     H58451  -0.799   3.708   6.723 -0.8230  2.8510 -0.8593
  443MOL0     H58452  -0.945   3.676   6.994 -2.2763  0.7894 -0.1407
  443MOL0     H58453  -0.850   3.545   6.917  2.3059  1.9360 -2.0741
  443MOL0     H58454  -1.099   3.685   6.801  0.0658 -0.1450 -2.5550
  443MOL0     H58455  -1.008   3.554   6.718  3.6504  1.1824  0.5778
  443MOL0     H58456  -1.226   3.524   6.871 -0.0052 -1.1856 -0.4738
  443MOL0     H58457  -1.110   3.497   7.003  3.2510 -1.6228  0.0524
  443MOL0     H58458  -0.569   4.308   6.608 -1.0137 -2.0122  0.1367
  443MOL0     H58459  -0.364   4.438   6.581  1.2002 -1.8028 -0.1835
  443MOL0     H58460   0.004   4.796   6.971 -0.0634 -0.5123  0.6443
  443MOL0     H58461   0.176   4.940   6.888 -0.8843  0.1046  1.3792
  443MOL0     H58462   1.864   4.656   7.393  3.1940  0.9470  0.5579
  443MOL0     H58463   2.003   4.707   7.587  0.1452  0.0113  1.4955
  443MOL0     H58464   2.190   4.689   7.982  1.8428  2.2169 -0.0238
  443MOL0     H58465   2.315   4.767   8.173  0.0102 -0.5315 -2.3120
  443MOL0     H58466   2.196   5.099   8.325  1.0897  1.0329 -1.2473
  443MOL0     H58467   2.338   5.018   8.257  0.5644  0.2035  0.3540
  443MOL0     H58468   2.284   5.080   8.550  1.7926  1.0257  0.3984
  443MOL0     H58469   2.430   5.010   8.482  1.3550  1.0051 -1.0984
  443MOL0     H58470   2.329   5.287   8.485  1.2909  0.7533  0.6989
  443MOL0     H58471   2.432   5.259   8.351  0.8712  0.7195  0.7676
  443MOL0     H58472   2.571   5.332   8.547 -1.7224  0.5395 -2.6067
  443MOL0     H58473   2.531   5.176   8.625 -2.0803  0.1470  0.0996
  443MOL0     H58474   2.811   5.015   8.380  1.1283  2.1917 -1.8876
  443MOL0     H58475   1.954   4.919   8.353 -0.8589 -0.4335 -0.2614
  443MOL0     H58476   1.832   4.814   8.161  0.7349  1.4515 -2.4956
  444MOL0     O58477   5.119   9.728   4.264 -0.1327 -0.0277  0.1225
  444MOL0     C58478   5.131   9.607   4.238 -0.5457  0.5931 -0.4537
  444MOL0     O58479   5.043   9.527   4.168  0.3368 -0.3429  0.3730
  444MOL0     C58480   4.932   9.588   4.123  0.6579  0.0082  0.3208
  444MOL0     C58481   4.845   9.666   4.198  0.2392  0.5518 -0.8374
  444MOL0     C58482   4.721   9.711   4.149  0.1113  0.8257  0.0623
  444MOL0     C58483   4.683   9.697   4.015  0.4300 -0.1769 -0.4939
  444MOL0     O58484   4.560   9.744   3.981  0.1001  0.6538  0.8770
  444MOL0     C58485   4.496   9.687   3.858  0.0857 -0.1317 -0.4656
  444MOL0     C58486   4.347   9.727   3.858  0.2936  0.3473  0.1152
  444MOL0     C58487   4.259   9.667   3.970  0.0387  0.0026  0.0788
  444MOL0     C58488   4.112   9.704   3.961 -0.7823  0.3122  0.5917
  444MOL0     C58489   4.030   9.662   4.082 -0.1538  0.9657  0.0364
  444MOL0     C58490   3.881   9.675   4.061  0.0261 -0.0587 -0.2122
  444MOL0     C58491   3.795   9.621   4.176 -0.8209 -0.2231 -1.0966
  444MOL0     C58492   3.645   9.629   4.140  0.2081 -0.5236 -0.0269
  444MOL0     N58493   3.562   9.556   4.234 -1.1975 -0.8735  0.1292
  444MOL0     C58494   3.555   9.422   4.262  0.3076  0.3417  0.3639
  444MOL0     C58495   3.452   9.414   4.347  0.0186  0.1338 -0.1144
  444MOL0     C58496   3.387   9.288   4.382 -0.2421  0.1424  0.1499
  444MOL0     C58497   3.232   9.297   4.375 -0.0903 -0.4284 -0.2300
  444MOL0     C58498   3.178   9.160   4.401 -0.0199  0.8647 -0.2020
  444MOL0     C58499   3.027   9.161   4.391 -0.0714  0.0451  0.4101
  444MOL0     O58500   2.966   9.261   4.472  0.6157 -0.2366  0.2767
  444MOL0     C58501   2.834   9.267   4.462  0.3975  0.1026 -0.1017
  444MOL0     C58502   2.746   9.199   4.368 -0.4691  0.3265 -0.0651
  444MOL0     C58503   2.606   9.216   4.362  0.1791 -0.4589 -0.5438
  444MOL0     C58504   2.545   9.293   4.467 -0.3826  0.1670  0.4201
  444MOL0     C58505   2.399   9.304   4.469 -0.3449 -0.8265  0.2118
  444MOL0     O58506   2.340   9.262   4.362  0.3285  0.2097 -0.5100
  444MOL0     C58507   2.200   9.275   4.352  1.0179  0.1448  0.4218
  444MOL0     C58508   2.099   9.255   4.448  0.2218  0.5790  0.5408
  444MOL0     C58509   1.970   9.278   4.430  1.4654  0.0844 -0.8898
  444MOL0     C58510   1.913   9.315   4.306 -0.4284  0.2813 -0.7064
  444MOL0     O58511   1.777   9.340   4.293 -0.4524  0.1248 -0.3882
  444MOL0     C58512   1.722   9.426   4.382  0.6877  0.1023 -0.3219
  444MOL0     C58513   1.600   9.492   4.341 -0.3210 -0.2605  0.0843
  444MOL0     C58514   1.623   9.587   4.227  0.2412 -0.3945 -0.1940
  444MOL0     C58515   1.491   9.665   4.189  0.5786 -0.2113  0.6608
  444MOL0     C58516   1.535   9.751   4.067  1.3050 -0.3546 -0.4050
  444MOL0     C58517   1.573   9.665   3.943 -0.1639 -0.2520 -0.0876
  444MOL0     C58518   1.524   9.736   3.813  0.5394 -0.3028 -0.3168
  444MOL0     C58519   1.570   9.662   3.686  0.1229  0.6583 -0.3001
  444MOL0    Cl58520   1.546   9.490   3.712 -0.8044  0.0327  0.6766
  444MOL0     C58521   2.004   9.344   4.205 -0.1276 -0.4606 -0.3177
  444MOL0     C58522   2.144   9.322   4.227  0.1913 -0.0244  0.4765
  444MOL0     O58523   2.352   9.355   4.572 -0.1356 -0.6658  0.1415
  444MOL0     C58524   2.624   9.342   4.572 -0.7995 -0.2784 -0.5915
  444MOL0     C58525   2.767   9.330   4.564 -0.8809  0.1629  0.5798
  444MOL0     N58526   3.410   9.545   4.374  0.2503  0.7437  0.0697
  444MOL0     N58527   3.485   9.624   4.315  0.0772  1.0514 -0.2394
  444MOL0     C58528   4.767   9.632   3.937 -0.5332  1.0352  0.1935
  444MOL0     C58529   4.885   9.574   3.986  0.7619  0.0466 -0.1634
  444MOL0     C58530   5.261   9.550   4.294  0.1338  0.4544 -0.4108
  444MOL0     C58531   5.347   9.629   4.379 -0.9343  0.4694 -0.1187
  444MOL0     C58532   5.473   9.581   4.409 -0.4247 -0.6488  0.0100
  444MOL0     C58533   5.509   9.454   4.367  0.7422 -0.5427 -0.5104
  444MOL0     O58534   5.629   9.400   4.385  0.0615  0.2494  0.1664
  444MOL0     C58535   5.721   9.468   4.477  0.5917  0.3196  0.2929
  444MOL0     C58536   5.850   9.380   4.496  0.8359  0.9163  0.4627
  444MOL0     C58537   5.930   9.450   4.603 -0.4750  0.3078 -0.1706
  444MOL0     C58538   6.075   9.393   4.593  0.2739  1.1826  0.2811
  444MOL0     C58539   6.169   9.468   4.665 -0.6051 -0.5482 -0.0912
  444MOL0     C58540   6.252   9.545   4.712  0.6366  0.3750 -0.1214
  444MOL0     C58541   5.422   9.371   4.295  0.2624 -0.4018 -0.4058
  444MOL0     C58542   5.293   9.419   4.260  0.0117 -0.0996 -0.5625
  444MOL0     H58543   4.870   9.686   4.302 -2.6181 -2.1773  0.5278
  444MOL0     H58544   4.657   9.777   4.206 -1.7741 -0.4535 -0.4642
  444MOL0     H58545   4.520   9.580   3.860 -2.1558 -0.8489 -3.7129
  444MOL0     H58546   4.532   9.723   3.762 -0.6468  1.7179 -0.0782
  444MOL0     H58547   4.313   9.709   3.755 -1.7020  3.4367  0.1207
  444MOL0     H58548   4.338   9.835   3.865 -1.4797  0.1887  0.6677
  444MOL0     H58549   4.298   9.718   4.058  1.2544  0.9560 -0.9680
  444MOL0     H58550   4.272   9.559   3.980  0.0357  0.0558  0.7282
  444MOL0     H58551   4.087   9.810   3.955  1.1435  0.7969  0.6177
  444MOL0     H58552   4.082   9.639   3.878 -1.4278  0.4789  0.6871
  444MOL0     H58553   4.070   9.717   4.168 -0.8138  1.5970 -0.0503
  444MOL0     H58554   4.047   9.555   4.100 -1.4882  0.4262 -1.6705
  444MOL0     H58555   3.853   9.615   3.975 -1.8371 -1.7330  1.4521
  444MOL0     H58556   3.851   9.775   4.027  2.8003  1.2314  0.7609
  444MOL0     H58557   3.832   9.519   4.186  1.0416  0.2651 -2.3579
  444MOL0     H58558   3.823   9.668   4.271  0.4386 -1.6647 -0.7200
  444MOL0     H58559   3.625   9.590   4.040  1.5185 -0.0265 -0.5013
  444MOL0     H58560   3.610   9.732   4.143 -0.3624 -0.6049  5.0127
  444MOL0     H58561   3.597   9.345   4.199 -0.3372  1.5233 -1.5865
  444MOL0     H58562   3.417   9.242   4.477  0.5117  1.1242  0.4033
  444MOL0     H58563   3.418   9.206   4.317 -0.2706  1.2298 -1.2806
  444MOL0     H58564   3.206   9.339   4.277  0.5913  1.4038  0.3319
  444MOL0     H58565   3.197   9.374   4.445  1.8001  0.5812 -0.3290
  444MOL0     H58566   3.208   9.086   4.327  2.0605  0.0674  1.3273
  444MOL0     H58567   3.205   9.115   4.497  0.0435 -1.9999 -1.4569
  444MOL0     H58568   2.998   9.059   4.418 -0.5373 -0.0202 -0.3223
  444MOL0     H58569   3.017   9.173   4.283  2.6896  0.4124  0.1250
  444MOL0     H58570   2.799   9.139   4.295  0.2736  0.1448  0.5998
  444MOL0     H58571   2.540   9.168   4.290 -2.7802 -1.0533  2.3077
  444MOL0     H58572   2.138   9.220   4.543 -0.1446 -3.0804 -0.4983
  444MOL0     H58573   1.906   9.254   4.514 -3.0284  3.4030 -2.9139
  444MOL0     H58574   1.785   9.511   4.413 -2.4464  2.2848  0.5327
  444MOL0     H58575   1.696   9.366   4.470  1.4993 -0.7818 -0.6684
  444MOL0     H58576   1.556   9.542   4.428  2.5349 -1.3746  2.3088
  444MOL0     H58577   1.528   9.416   4.308 -1.6917  1.2419 -0.5115
  444MOL0     H58578   1.656   9.528   4.141  2.0814 -0.0442  0.2227
  444MOL0     H58579   1.703   9.655   4.258 -1.0925  0.2482  2.0940
  444MOL0     H58580   1.414   9.590   4.169 -0.5709  1.1079 -0.1137
  444MOL0     H58581   1.452   9.729   4.269 -1.9889  0.7216 -1.2099
  444MOL0     H58582   1.623   9.813   4.088  0.6264  0.9770 -1.3744
  444MOL0     H58583   1.453   9.818   4.038  0.2925 -1.3535  0.0747
  444MOL0     H58584   1.528   9.565   3.943 -1.2451  0.1377 -2.6947
  444MOL0     H58585   1.680   9.645   3.936 -0.3974 -0.9008 -3.0227
  444MOL0     H58586   1.414   9.736   3.815  0.4526 -0.3354 -2.4562
  444MOL0     H58587   1.563   9.838   3.816  0.9787 -0.4947  0.9906
  444MOL0     H58588   1.677   9.681   3.675  0.2443 -0.3783 -1.0794
  444MOL0     H58589   1.515   9.694   3.597  1.8156  0.4080 -1.4986
  444MOL0     H58590   1.966   9.385   4.113 -1.0122 -2.1607 -0.7540
  444MOL0     H58591   2.208   9.336   4.140  0.3182 -0.8075  0.4318
  444MOL0     H58592   2.590   9.377   4.669  1.2526 -1.2397  0.5661
  444MOL0     H58593   2.827   9.368   4.647  1.7851 -2.2134 -0.1175
  444MOL0     H58594   4.733   9.630   3.834  1.0852  2.4062 -0.4078
  444MOL0     H58595   4.938   9.515   3.913 -1.6513 -0.4318 -1.6376
  444MOL0     H58596   5.313   9.726   4.415 -1.3001  0.1331  0.4610
  444MOL0     H58597   5.538   9.636   4.475 -0.5355 -0.5591  0.0444
  444MOL0     H58598   5.680   9.498   4.574 -1.8815  5.0439 -1.8962
  444MOL0     H58599   5.753   9.560   4.428  2.8417 -0.2197  0.6317
  444MOL0     H58600   5.827   9.278   4.530  1.4974  1.1801  1.7928
  444MOL0     H58601   5.901   9.371   4.399 -1.2776  1.3033 -0.7381
  444MOL0     H58602   5.892   9.452   4.705 -2.1981  1.7829 -0.7851
  444MOL0     H58603   5.934   9.555   4.573 -0.4786  0.4386  0.2817
  444MOL0     H58604   6.075   9.291   4.631  0.0198  0.0857 -2.4472
  444MOL0     H58605   6.113   9.392   4.490  2.1952  1.1837  0.9604
  444MOL0     H58606   6.329   9.606   4.754  0.0890  0.7388  0.3731
  444MOL0     H58607   5.446   9.268   4.275  3.0112  0.2647 -0.9008
  444MOL0     H58608   5.222   9.360   4.204 -1.2936  0.7058  0.1708
  445MOL0     O58609   0.806   9.811   6.382  0.3219  0.2825 -0.0711
  445MOL0     C58610   0.859   9.701   6.366  0.3094  0.0396  0.6981
  445MOL0     O58611   0.789   9.584   6.373 -0.9957 -1.0146 -0.7889
  445MOL0     C58612   0.655   9.587   6.394 -0.2603  0.1395 -0.6018
  445MOL0     C58613   0.561   9.640   6.307  0.4688  0.0436 -0.1112
  445MOL0     C58614   0.423   9.631   6.326 -0.2022 -0.0693 -0.1781
  445MOL0     C58615   0.378   9.566   6.440 -0.3846  0.7298 -0.8120
  445MOL0     O58616   0.245   9.540   6.450 -0.0537 -0.1913  0.0516
  445MOL0     C58617   0.174   9.664   6.428 -0.2002  0.3189  0.1249
  445MOL0     C58618   0.024   9.665   6.439 -0.1195  0.3548  0.9423
  445MOL0     C58619  -0.059   9.605   6.310  0.6085 -0.2990 -0.4794
  445MOL0     C58620  -0.203   9.614   6.322  0.8250 -0.7902 -0.3892
  445MOL0     C58621  -0.272   9.500   6.247  1.1084  0.2535  0.0335
  445MOL0     C58622  -0.426   9.515   6.258 -0.7725 -0.1225  0.2548
  445MOL0     C58623  -0.469   9.637   6.179  0.4723 -0.1108  0.5849
  445MOL0     C58624  -0.620   9.655   6.148  0.7373  0.2030 -0.1633
  445MOL0     N58625  -0.708   9.654   6.265  0.2714 -0.5497 -0.5027
  445MOL0     C58626  -0.738   9.772   6.324 -0.0113  0.1079 -0.6819
  445MOL0     C58627  -0.847   9.747   6.388  0.7062  0.1729 -0.4626
  445MOL0     C58628  -0.919   9.845   6.476 -1.8663 -0.9713  0.3665
  445MOL0     C58629  -1.054   9.789   6.532  0.4989  0.1276  0.5808
  445MOL0     C58630  -1.161   9.765   6.422 -0.9570  0.3233 -0.3749
  445MOL0     C58631  -1.298   9.734   6.488  0.1199  0.7450  0.1598
  445MOL0     O58632  -1.382   9.735   6.374  0.5378 -0.2805  0.7650
  445MOL0     C58633  -1.515   9.720   6.389  0.3524  0.0383  0.8558
  445MOL0     C58634  -1.573   9.663   6.506  0.3830  0.8496 -0.6545
  445MOL0     C58635  -1.712   9.648   6.513 -0.7892  0.2254 -0.9563
  445MOL0     C58636  -1.795   9.694   6.406  0.3928 -0.6708  0.1709
  445MOL0     C58637  -1.932   9.668   6.391  0.4231 -0.0200  0.5975
  445MOL0     O58638  -1.991   9.605   6.493 -0.2455 -0.5064  0.6331
  445MOL0     C58639  -2.121   9.560   6.488  0.2294 -0.4395  0.1400
  445MOL0     C58640  -2.204   9.564   6.603  0.2207 -0.5595 -0.7259
  445MOL0     C58641  -2.333   9.512   6.596  0.8779 -0.5615  0.2793
  445MOL0     C58642  -2.384   9.473   6.478  0.5733  0.9879  0.4973
  445MOL0     O58643  -2.510   9.422   6.475  0.4175  0.2142  0.8286
  445MOL0     C58644  -2.559   9.355   6.357 -0.6164  0.7167 -0.2746
  445MOL0     C58645  -2.689   9.289   6.403  0.0353  0.9639 -0.0579
  445MOL0     C58646  -2.756   9.227   6.281 -0.6239  0.8655  0.1011
  445MOL0     C58647  -2.854   9.120   6.313  0.2221  0.4018 -0.9011
  445MOL0     C58648  -2.978   9.168   6.386 -0.2145  0.2375 -0.0739
  445MOL0     C58649  -2.963   9.197   6.542 -1.2847  0.4817 -0.4919
  445MOL0     C58650  -3.087   9.229   6.613  0.1162 -0.0622 -0.7121
  445MOL0     C58651  -3.069   9.291   6.758 -0.2712 -0.1875  0.6500
  445MOL0    Cl58652  -3.102   9.162   6.875 -0.2063 -0.3920 -0.1948
  445MOL0     C58653  -2.292   9.468   6.367  0.5817  0.1797 -0.9339
  445MOL0     C58654  -2.164   9.492   6.374 -0.6330 -0.7467 -0.2028
  445MOL0     O58655  -1.987   9.697   6.279  0.2130 -1.0764  0.0057
  445MOL0     C58656  -1.737   9.768   6.307 -0.2100 -0.3002 -0.3634
  445MOL0     C58657  -1.600   9.778   6.296 -0.0823 -0.3029 -0.1381
  445MOL0     N58658  -0.883   9.616   6.366 -0.4092 -0.2803  0.0711
  445MOL0     N58659  -0.792   9.554   6.297  0.3491 -0.5332  0.5146
  445MOL0     C58660   0.466   9.510   6.536 -0.0391  0.2382 -0.0519
  445MOL0     C58661   0.605   9.533   6.513 -0.1685  0.6316 -0.7264
  445MOL0     C58662   0.999   9.701   6.353 -0.4146 -0.0889  0.1711
  445MOL0     C58663   1.066   9.584   6.354 -0.4265  0.2574  1.0704
  445MOL0     C58664   1.209   9.591   6.367 -1.0099  0.2043  0.5464
  445MOL0     C58665   1.271   9.718   6.361 -0.9562 -0.8269  0.3991
  445MOL0     O58666   1.408   9.750   6.383 -0.1089 -0.4535  0.9161
  445MOL0     C58667   1.485   9.637   6.409 -0.8859  0.0343 -0.1672
  445MOL0     C58668   1.480   9.593   6.552  0.2494 -0.8779 -0.1614
  445MOL0     C58669   1.573   9.685   6.643  0.1476  0.1692 -0.5785
  445MOL0     C58670   1.662   9.625   6.754  0.9785  0.3277  0.4198
  445MOL0     C58671   1.579   9.574   6.869 -0.5346  0.0751 -0.5155
  445MOL0     C58672   1.502   9.518   7.035  0.5410  0.5723 -0.2660
  445MOL0     C58673   1.198   9.831   6.335 -0.1580  0.6123 -0.2988
  445MOL0     C58674   1.060   9.821   6.332 -0.4471 -0.0944  0.1130
  445MOL0     H58675   0.602   9.692   6.221  2.4206  0.9690  1.2913
  445MOL0     H58676   0.371   9.682   6.245  1.0580  0.6104 -0.5725
  445MOL0     H58677   0.187   9.695   6.324 -1.6360 -2.3293 -0.9554
  445MOL0     H58678   0.225   9.736   6.492 -0.5910 -1.0324  2.0445
  445MOL0     H58679  -0.011   9.769   6.442 -5.8063 -1.1276 -0.9448
  445MOL0     H58680  -0.003   9.634   6.540 -1.2081 -0.0825  0.5452
  445MOL0     H58681  -0.024   9.503   6.291  1.0758 -0.6401  1.9662
  445MOL0     H58682  -0.032   9.668   6.224 -3.2753  1.9945 -0.2406
  445MOL0     H58683  -0.228   9.606   6.428  0.9450 -1.5636 -0.4126
  445MOL0     H58684  -0.218   9.714   6.281  0.6697 -0.2158  1.0103
  445MOL0     H58685  -0.242   9.401   6.282 -0.7302 -0.0317  0.9518
  445MOL0     H58686  -0.259   9.516   6.139  0.3816  0.7241  0.0052
  445MOL0     H58687  -0.445   9.534   6.364  1.4586  0.3519  0.6302
  445MOL0     H58688  -0.474   9.424   6.222 -2.9791  0.3805  1.7187
  445MOL0     H58689  -0.451   9.724   6.243 -1.4561 -1.2868  2.9139
  445MOL0     H58690  -0.415   9.650   6.085  2.0235 -0.0861  1.4523
  445MOL0     H58691  -0.649   9.568   6.089  0.3446 -2.5347  3.7497
  445MOL0     H58692  -0.633   9.740   6.080  0.9012 -1.1926 -2.0007
  445MOL0     H58693  -0.673   9.857   6.344 -1.1950  0.9202 -0.1192
  445MOL0     H58694  -0.931   9.934   6.413  2.5651  1.9723  3.0944
  445MOL0     H58695  -0.865   9.868   6.569 -1.2075 -2.0811  0.2696
  445MOL0     H58696  -1.095   9.866   6.598 -1.5269 -1.1513  0.9003
  445MOL0     H58697  -1.043   9.701   6.597  0.5948 -0.2816  0.0146
  445MOL0     H58698  -1.166   9.860   6.367 -0.4116 -0.1025 -1.1824
  445MOL0     H58699  -1.128   9.686   6.354 -0.4923  0.7539 -0.6613
  445MOL0     H58700  -1.330   9.808   6.562 -2.6972  0.3703 -0.5665
  445MOL0     H58701  -1.310   9.644   6.549 -1.2921  0.6027 -0.2850
  445MOL0     H58702  -1.522   9.622   6.593 -0.6009 -4.0943 -2.0804
  445MOL0     H58703  -1.760   9.618   6.605 -0.8526 -0.1611 -1.1128
  445MOL0     H58704  -2.170   9.604   6.698 -2.8330 -0.9819  0.6785
  445MOL0     H58705  -2.397   9.524   6.683 -1.8609  1.2728 -1.8054
  445MOL0     H58706  -2.495   9.272   6.325 -3.4242 -0.9230 -2.1408
  445MOL0     H58707  -2.578   9.423   6.273  0.8501  1.2013 -0.2408
  445MOL0     H58708  -2.749   9.370   6.446  2.0657  5.7571 -5.0087
  445MOL0     H58709  -2.664   9.213   6.477  1.0554  1.7082  0.3785
  445MOL0     H58710  -2.677   9.191   6.213  0.8734  1.1217  1.6298
  445MOL0     H58711  -2.824   9.303   6.241 -0.5375  1.6741  1.4385
  445MOL0     H58712  -2.884   9.092   6.212 -0.2806 -1.5368 -0.2540
  445MOL0     H58713  -2.808   9.028   6.350 -2.7754 -1.2971 -1.0500
  445MOL0     H58714  -3.061   9.097   6.375  0.9975 -1.2322 -0.0647
  445MOL0     H58715  -3.013   9.256   6.331  0.3981 -0.2158 -1.2299
  445MOL0     H58716  -2.887   9.269   6.569  0.9324 -1.2742 -1.6838
  445MOL0     H58717  -2.938   9.094   6.570  1.8864  0.9760 -1.1206
  445MOL0     H58718  -3.139   9.296   6.544 -1.8535 -0.6708  0.1332
  445MOL0     H58719  -3.157   9.147   6.600  0.7114 -0.5337 -1.0072
  445MOL0     H58720  -3.152   9.362   6.762  0.4268  0.8367 -1.5170
  445MOL0     H58721  -2.973   9.341   6.775 -0.1785  1.0972 -2.7905
  445MOL0     H58722  -2.331   9.431   6.273  0.1405  0.1140 -0.7263
  445MOL0     H58723  -2.107   9.494   6.282 -0.3161  0.3150  0.0005
  445MOL0     H58724  -1.797   9.821   6.234  0.7646  0.0674 -0.9312
  445MOL0     H58725  -1.554   9.844   6.222  0.7047  1.0893  1.5078
  445MOL0     H58726   0.431   9.446   6.616 -2.1582 -1.3074 -2.0769
  445MOL0     H58727   0.683   9.504   6.583  1.5922  2.3726 -1.8668
  445MOL0     H58728   1.017   9.488   6.355  0.1757 -0.1114 -0.7709
  445MOL0     H58729   1.277   9.507   6.373 -1.2570  0.0021  0.5306
  445MOL0     H58730   1.587   9.656   6.376 -0.8788 -1.9410 -1.4820
  445MOL0     H58731   1.468   9.545   6.352  0.0583  0.6063 -1.4109
  445MOL0     H58732   1.376   9.613   6.580  0.8398 -0.0174  1.5376
  445MOL0     H58733   1.506   9.488   6.566 -0.1310 -1.1313 -1.2580
  445MOL0     H58734   1.502   9.763   6.673  2.0643  1.5235  0.7658
  445MOL0     H58735   1.650   9.728   6.579  1.9974 -0.7624  0.9076
  445MOL0     H58736   1.724   9.547   6.710 -1.0370  0.2042 -2.4613
  445MOL0     H58737   1.723   9.702   6.803 -0.1386  2.0449 -0.7495
  445MOL0     H58738   1.469   9.481   7.130  1.2819  2.4473  0.7734
  445MOL0     H58739   1.241   9.931   6.331 -1.1557  1.1158  0.9362
  445MOL0     H58740   1.004   9.914   6.324  0.1607  0.3583  0.9259
  446MOL0     O58741   6.777   9.721   0.350 -0.3467  0.2869 -0.1016
  446MOL0     C58742   6.819   9.685   0.462  0.3796  0.4862  0.6423
  446MOL0     O58743   6.745   9.692   0.581  0.1018  0.1813  0.0249
  446MOL0     C58744   6.623   9.745   0.592  0.8262 -0.1389  0.0501
  446MOL0     C58745   6.529   9.730   0.485  0.8294 -0.1328 -0.2934
  446MOL0     C58746   6.413   9.803   0.502  0.0106  0.0079  0.6020
  446MOL0     C58747   6.383   9.871   0.620  0.5594 -0.2253  0.1525
  446MOL0     O58748   6.263   9.934   0.626 -0.6318  0.6004 -0.0829
  446MOL0     C58749   6.226  10.000   0.746 -0.0058  0.0892  0.2064
  446MOL0     C58750   6.092  10.067   0.715 -1.0792  0.3835 -0.3217
  446MOL0     C58751   5.981   9.958   0.724 -0.3028 -0.0820 -0.3116
  446MOL0     C58752   5.848  10.027   0.698  0.7017  0.1089 -0.7212
  446MOL0     C58753   5.740   9.925   0.663  0.4172  0.5097 -0.3709
  446MOL0     C58754   5.593   9.973   0.692  0.6430  0.1914  0.6096
  446MOL0     C58755   5.571   9.995   0.841 -1.0109 -0.3356 -0.0185
  446MOL0     C58756   5.426   9.991   0.883 -0.6433  0.1626  0.0627
  446MOL0     N58757   5.407  10.002   1.028  0.3348  0.2312  0.9722
  446MOL0     C58758   5.448  10.095   1.112 -0.0619 -0.5082  0.2151
  446MOL0     C58759   5.400  10.068   1.234 -0.4189  0.1424  0.1475
  446MOL0     C58760   5.459  10.131   1.363  0.1271 -0.4094 -0.2404
  446MOL0     C58761   5.585  10.051   1.405  0.3547  0.6541  0.1793
  446MOL0     C58762   5.665  10.105   1.525  0.0009 -0.5160  0.1363
  446MOL0     C58763   5.719   9.986   1.603  0.2294  0.4322 -0.0719
  446MOL0     O58764   5.810   9.911   1.518  0.7411 -0.2275 -0.3519
  446MOL0     C58765   5.947   9.934   1.529  0.5668  0.1896  0.2288
  446MOL0     C58766   6.019   9.813   1.517 -0.3163  0.4266  0.0143
  446MOL0     C58767   6.165   9.815   1.524  0.6064 -0.8907 -0.1408
  446MOL0     C58768   6.233   9.938   1.536 -0.3952  0.0111 -0.5605
  446MOL0     C58769   6.384   9.939   1.540  0.3354 -0.0057  0.6106
  446MOL0     O58770   6.434  10.066   1.561 -0.4805  0.5064 -0.0198
  446MOL0     C58771   6.574  10.074   1.550  0.9611 -0.0671  0.3021
  446MOL0     C58772   6.620  10.158   1.442 -0.1647 -0.1847  1.1086
  446MOL0     C58773   6.753  10.180   1.424 -0.0922  0.5574 -0.1849
  446MOL0     C58774   6.849  10.110   1.508 -0.6475 -0.9831 -0.3049
  446MOL0     O58775   6.990  10.118   1.491  0.5309 -0.0315  0.2842
  446MOL0     C58776   7.047  10.010   1.413  0.2102 -1.1154  0.1695
  446MOL0     C58777   7.194  10.029   1.393  0.0666  0.0805  0.7185
  446MOL0     C58778   7.251   9.911   1.325  0.0295 -1.1794  0.0345
  446MOL0     C58779   7.393   9.931   1.287 -0.2703  0.1555 -0.0526
  446MOL0     C58780   7.447   9.808   1.209  0.3802 -0.1777 -0.1308
  446MOL0     C58781   7.592   9.787   1.210 -0.3604  0.1092 -0.4113
  446MOL0     C58782   7.638   9.703   1.083  0.4801  0.5555 -0.1572
  446MOL0     C58783   7.786   9.678   1.085 -0.0085  0.3062 -1.2256
  446MOL0    Cl58784   7.875   9.817   1.014 -0.1225 -0.1792  0.2011
  446MOL0     C58785   6.801  10.033   1.616  0.4297 -0.6473  0.5429
  446MOL0     C58786   6.666  10.003   1.627  0.2269  0.5005 -0.6281
  446MOL0     O58787   6.451   9.832   1.540 -0.0357 -0.4057  0.2300
  446MOL0     C58788   6.158  10.051   1.558  0.1536  0.0985 -0.1853
  446MOL0     C58789   6.018  10.052   1.557 -0.7040 -1.5836  0.1920
  446MOL0     N58790   5.328   9.958   1.216 -0.3878  0.2927  0.4119
  446MOL0     N58791   5.328   9.913   1.093 -0.3646  1.3944 -0.4511
  446MOL0     C58792   6.478   9.887   0.721 -0.6109 -0.3845  0.3953
  446MOL0     C58793   6.598   9.824   0.705  0.1825 -0.4725 -0.3185
  446MOL0     C58794   6.954   9.629   0.463 -0.2252  0.2461 -0.3776
  446MOL0     C58795   7.002   9.590   0.591  0.7503  0.6984  0.9815
  446MOL0     C58796   7.123   9.526   0.603  0.0092 -0.0759 -0.0690
  446MOL0     C58797   7.202   9.510   0.490 -0.4266 -0.2467 -0.1471
  446MOL0     O58798   7.334   9.462   0.516 -0.2274  0.5354  0.6301
  446MOL0     C58799   7.426   9.411   0.416 -0.0471  0.4946  0.3503
  446MOL0     C58800   7.552   9.489   0.421  0.0016  0.1547 -0.6949
  446MOL0     C58801   7.620   9.466   0.563 -0.0181 -0.5421  0.2723
  446MOL0     C58802   7.712   9.580   0.595  0.1106  0.4684 -0.6773
  446MOL0     C58803   7.807   9.571   0.483 -0.0203 -0.7991 -0.0514
  446MOL0     C58804   7.876   9.554   0.383 -0.0114 -0.7789  0.4377
  446MOL0     C58805   7.152   9.549   0.363 -0.2208  0.5746  0.0354
  446MOL0     C58806   7.029   9.603   0.351 -0.1800  0.4204  0.3833
  446MOL0     H58807   6.547   9.667   0.399  0.7396 -0.8128  0.1822
  446MOL0     H58808   6.337   9.801   0.425  0.5037 -0.1058  0.1113
  446MOL0     H58809   6.292  10.083   0.774 -3.0613  3.2418 -1.2372
  446MOL0     H58810   6.215   9.929   0.828  0.5716 -2.0514 -1.4961
  446MOL0     H58811   6.096  10.092   0.609 -1.7976 -0.0964 -0.4714
  446MOL0     H58812   6.066  10.157   0.771 -5.1548 -0.7760 -0.0159
  446MOL0     H58813   5.986   9.913   0.823 -0.7508 -0.4514 -0.4519
  446MOL0     H58814   6.000   9.889   0.641  1.7514  0.1295 -0.0584
  446MOL0     H58815   5.815  10.087   0.783 -0.9369 -0.3580 -0.9976
  446MOL0     H58816   5.853  10.095   0.612 -0.0427 -0.0262 -0.8773
  446MOL0     H58817   5.761   9.835   0.723  1.0286  0.4747 -0.6298
  446MOL0     H58818   5.754   9.899   0.558 -0.9563  0.3638 -0.5434
  446MOL0     H58819   5.532   9.892   0.653 -1.3739  2.4503 -1.2323
  446MOL0     H58820   5.572  10.065   0.637  1.3007  0.4153  0.7189
  446MOL0     H58821   5.618   9.912   0.896  0.3048  0.9766  0.9344
  446MOL0     H58822   5.613  10.091   0.872  2.1540 -0.5373 -3.0773
  446MOL0     H58823   5.378   9.897   0.854 -0.4853 -0.1535  0.8024
  446MOL0     H58824   5.372  10.076   0.840 -0.3354 -0.3113 -1.3118
  446MOL0     H58825   5.515  10.179   1.097 -0.3271 -0.6025 -1.7460
  446MOL0     H58826   5.386  10.108   1.441 -0.3477  1.9459  0.0741
  446MOL0     H58827   5.473  10.239   1.352  1.4778 -0.4786  0.6321
  446MOL0     H58828   5.660  10.043   1.326 -1.3853  0.7798 -1.5696
  446MOL0     H58829   5.547   9.949   1.413 -1.6173  1.2273 -1.1660
  446MOL0     H58830   5.742  10.178   1.497  2.2098 -3.3416 -1.6847
  446MOL0     H58831   5.588  10.153   1.586 -2.5398 -1.1836 -2.3258
  446MOL0     H58832   5.648   9.916   1.648 -0.3426 -0.0372 -1.6373
  446MOL0     H58833   5.772  10.031   1.688 -0.3985 -0.0071  0.5695
  446MOL0     H58834   5.948   9.736   1.487 -0.8578  0.7681  0.4043
  446MOL0     H58835   6.212   9.718   1.511 -0.2897 -1.0459 -2.9668
  446MOL0     H58836   6.545  10.208   1.381  0.4217 -1.0882 -0.4155
  446MOL0     H58837   6.786  10.248   1.347  0.8177 -1.5080 -1.7128
  446MOL0     H58838   6.984   9.999   1.325  0.2104 -0.0180  0.0140
  446MOL0     H58839   7.043   9.922   1.479  2.4537 -0.9500  0.5953
  446MOL0     H58840   7.254  10.032   1.484  1.7279 -1.2947 -0.2615
  446MOL0     H58841   7.206  10.127   1.346  1.3550  0.6186  2.1078
  446MOL0     H58842   7.183   9.888   1.242 -2.7675 -2.1052  2.3842
  446MOL0     H58843   7.239   9.822   1.388 -0.9386 -1.7446 -0.9005
  446MOL0     H58844   7.407  10.022   1.229  0.4748  0.6253  0.8351
  446MOL0     H58845   7.460   9.952   1.371  0.7658  1.5562 -1.1857
  446MOL0     H58846   7.416   9.816   1.105  1.7822  1.5779 -0.4699
  446MOL0     H58847   7.397   9.719   1.249  1.2539 -0.9996 -0.8265
  446MOL0     H58848   7.612   9.732   1.302 -0.3395 -2.3610 -1.7951
  446MOL0     H58849   7.644   9.883   1.205 -0.7558  0.3223 -0.4205
  446MOL0     H58850   7.596   9.602   1.092  1.1888  0.1476 -1.2909
  446MOL0     H58851   7.595   9.739   0.989 -1.8421 -0.6962  0.3510
  446MOL0     H58852   7.823   9.590   1.032 -0.1058 -0.2887 -0.3280
  446MOL0     H58853   7.826   9.659   1.185  0.1597 -3.4890 -1.8993
  446MOL0     H58854   6.864   9.992   1.694  3.9335  1.6882 -0.8177
  446MOL0     H58855   6.624   9.935   1.700  0.6942 -0.7586 -1.4859
  446MOL0     H58856   6.195  10.150   1.585  0.2665 -0.0286  0.1320
  446MOL0     H58857   5.976  10.150   1.574  2.7545  0.6915 -2.8027
  446MOL0     H58858   6.461   9.935   0.816  1.3846  0.7893  0.2138
  446MOL0     H58859   6.684   9.837   0.770  0.7680  1.5462 -1.4192
  446MOL0     H58860   6.939   9.607   0.678 -0.9313 -0.8498  0.1251
  446MOL0     H58861   7.166   9.489   0.696  0.6433  0.0369 -0.3181
  446MOL0     H58862   7.391   9.411   0.313 -1.0062  1.4760  0.6569
  446MOL0     H58863   7.451   9.307   0.439 -0.6421 -0.0082 -1.1938
  446MOL0     H58864   7.619   9.443   0.347  1.4366 -0.3289  0.8523
  446MOL0     H58865   7.525   9.595   0.414  0.8413  0.3633 -0.8498
  446MOL0     H58866   7.678   9.374   0.553  0.7944  0.1689 -2.6338
  446MOL0     H58867   7.553   9.452   0.649  4.0582 -1.3264  3.6681
  446MOL0     H58868   7.662   9.677   0.589  1.7328  1.5163  1.4645
  446MOL0     H58869   7.766   9.561   0.689 -1.0049  2.5434  0.4527
  446MOL0     H58870   7.934   9.544   0.294 -2.6499  3.5100 -2.1207
  446MOL0     H58871   7.214   9.546   0.274  2.1189  1.9912  1.5027
  446MOL0     H58872   6.994   9.643   0.257 -1.5551 -1.1427  0.1701
  447MOL0     O58873   5.281   2.060   9.201  0.4758  0.2259  0.2323
  447MOL0     C58874   5.309   2.151   9.275 -0.0344 -0.9947 -0.2561
  447MOL0     O58875   5.234   2.201   9.380 -0.5879 -1.0392  0.4294
  447MOL0     C58876   5.114   2.140   9.404 -1.0771 -0.7039 -0.2339
  447MOL0     C58877   5.090   2.015   9.472  0.0326  0.1679  1.0046
  447MOL0     C58878   4.961   1.984   9.518 -0.0179 -0.7626 -0.6699
  447MOL0     C58879   4.860   2.083   9.519 -0.4419 -0.0647  0.3336
  447MOL0     O58880   4.740   2.056   9.575  0.0334  0.0950 -0.1492
  447MOL0     C58881   4.661   1.957   9.510  0.2767 -0.3262  0.2472
  447MOL0     C58882   4.564   2.009   9.398 -0.9433 -0.1538 -0.1070
  447MOL0     C58883   4.446   2.092   9.463 -0.1931  0.3294  0.0878
  447MOL0     C58884   4.316   2.116   9.391  0.1392 -0.4573  0.0368
  447MOL0     C58885   4.235   1.983   9.365 -0.0228 -0.4875 -0.5992
  447MOL0     C58886   4.090   2.019   9.350  0.3356 -0.8334 -0.5498
  447MOL0     C58887   3.999   1.905   9.306 -0.2664 -0.2252 -0.3275
  447MOL0     C58888   3.845   1.944   9.334  0.0818 -0.3744  0.0834
  447MOL0     N58889   3.759   1.926   9.215 -0.2689  1.0763  0.3487
  447MOL0     C58890   3.693   1.809   9.182 -1.1860  0.5666 -0.0678
  447MOL0     C58891   3.625   1.836   9.072  0.5839 -0.2952 -0.5925
  447MOL0     C58892   3.549   1.739   8.989  0.1839  0.1450  0.1619
  447MOL0     C58893   3.622   1.701   8.857 -0.3180  0.2575 -0.8927
  447MOL0     C58894   3.553   1.574   8.798 -0.8574 -0.0519 -0.4897
  447MOL0     C58895   3.415   1.617   8.737  0.4957 -0.0149  0.8358
  447MOL0     O58896   3.375   1.515   8.643  0.0478 -0.1939 -0.4090
  447MOL0     C58897   3.259   1.534   8.580 -0.0360 -0.2670  0.2093
  447MOL0     C58898   3.227   1.422   8.509 -0.2065  0.1425  1.3947
  447MOL0     C58899   3.113   1.421   8.432  0.1742 -0.0283  0.1874
  447MOL0     C58900   3.031   1.535   8.408 -0.0655 -0.5156  0.5918
  447MOL0     C58901   2.931   1.520   8.304 -0.5361 -0.3699  0.4961
  447MOL0     O58902   2.851   1.630   8.288 -0.4753 -0.6184 -0.2633
  447MOL0     C58903   2.757   1.640   8.192 -1.5043 -0.5188 -0.0957
  447MOL0     C58904   2.648   1.718   8.232 -0.0961 -0.6716  0.3254
  447MOL0     C58905   2.547   1.747   8.136 -0.6030 -0.2006  0.0202
  447MOL0     C58906   2.552   1.692   8.009 -0.4082  0.4033  0.1395
  447MOL0     O58907   2.441   1.716   7.932 -0.5879 -0.5279 -0.0765
  447MOL0     C58908   2.465   1.700   7.790 -0.3435  0.3509  0.7591
  447MOL0     C58909   2.329   1.735   7.720 -1.2498  0.5748 -0.8813
  447MOL0     C58910   2.343   1.683   7.577  0.1794 -0.0551  0.3864
  447MOL0     C58911   2.219   1.723   7.483  0.7226 -0.0829 -0.4115
  447MOL0     C58912   2.257   1.701   7.340  0.0508 -0.3616  0.3039
  447MOL0     C58913   2.149   1.668   7.243  0.3884  0.2062 -0.0415
  447MOL0     C58914   2.052   1.782   7.231  0.0832  0.1159 -1.1430
  447MOL0     C58915   1.943   1.748   7.129  0.4974 -0.3523  0.7444
  447MOL0    Cl58916   1.866   1.906   7.082  0.0556 -0.0431 -0.2306
  447MOL0     C58917   2.672   1.618   7.977  0.7809 -0.3403 -0.7599
  447MOL0     C58918   2.772   1.596   8.060 -0.2666  0.2233  0.6029
  447MOL0     O58919   2.932   1.416   8.234 -0.2102 -0.0482 -0.5230
  447MOL0     C58920   3.066   1.650   8.478  0.3436 -1.0233  0.2082
  447MOL0     C58921   3.175   1.645   8.571  0.6698  0.7091  0.4073
  447MOL0     N58922   3.652   1.968   9.035 -0.2083  0.5688 -0.0588
  447MOL0     N58923   3.725   2.022   9.127 -0.1257  0.3220 -0.2697
  447MOL0     C58924   4.881   2.202   9.453 -0.5024  0.3466  0.5335
  447MOL0     C58925   5.011   2.232   9.405 -0.0027 -0.5371 -1.1093
  447MOL0     C58926   5.439   2.218   9.244  0.0428  0.1208  0.4869
  447MOL0     C58927   5.535   2.162   9.164 -0.2442 -0.3052  0.1498
  447MOL0     C58928   5.666   2.215   9.151  0.2076  0.2273 -0.5920
  447MOL0     C58929   5.699   2.332   9.214 -0.1915 -1.3221  0.3746
  447MOL0     O58930   5.827   2.386   9.205 -0.6382 -0.4447  0.1462
  447MOL0     C58931   5.875   2.441   9.083 -0.5947  0.0001  0.0082
  447MOL0     C58932   6.032   2.448   9.081 -0.6348  0.4302 -0.8317
  447MOL0     C58933   6.075   2.554   9.193 -0.1401  0.4511 -0.1161
  447MOL0     C58934   6.217   2.602   9.171 -0.2900 -0.9047 -0.4279
  447MOL0     C58935   6.293   2.617   9.298 -0.3573 -0.0885 -0.3696
  447MOL0     C58936   6.360   2.632   9.394 -0.6642  0.5848 -0.3253
  447MOL0     C58937   5.607   2.390   9.300  0.0954 -0.1475  0.1567
  447MOL0     C58938   5.473   2.339   9.311  0.6929  0.0339  0.7560
  447MOL0     H58939   5.174   1.948   9.487  1.1408  1.4981  0.9321
  447MOL0     H58940   4.940   1.888   9.563 -2.1925  0.4498  1.1261
  447MOL0     H58941   4.595   1.914   9.586 -1.9497 -1.5248 -2.1830
  447MOL0     H58942   4.715   1.871   9.469 -0.9091 -0.9627 -0.0594
  447MOL0     H58943   4.510   1.924   9.355 -0.6895 -0.8264  0.8801
  447MOL0     H58944   4.627   2.063   9.328  1.0078 -1.9948  0.1397
  447MOL0     H58945   4.489   2.185   9.500 -0.3797  0.3075  0.3650
  447MOL0     H58946   4.405   2.032   9.546 -1.1574  0.3445 -0.3616
  447MOL0     H58947   4.270   2.193   9.455  2.9039  3.2066 -2.0277
  447MOL0     H58948   4.337   2.167   9.297 -1.7189  1.3477  0.5260
  447MOL0     H58949   4.238   1.920   9.455 -1.8770  2.5797  1.7956
  447MOL0     H58950   4.267   1.925   9.278  0.7171 -3.7420  1.6485
  447MOL0     H58951   4.079   2.111   9.293  1.5688  0.5889  1.3806
  447MOL0     H58952   4.058   2.048   9.451 -1.3163  1.1676 -1.5795
  447MOL0     H58953   4.018   1.889   9.200  0.4094  3.0477 -0.8073
  447MOL0     H58954   4.020   1.807   9.351  1.1887  0.0080 -0.4743
  447MOL0     H58955   3.833   2.046   9.370 -2.5383 -1.4077  2.4761
  447MOL0     H58956   3.820   1.875   9.415  1.2912 -2.8084 -1.4929
  447MOL0     H58957   3.681   1.720   9.243 -1.6071 -0.0535 -1.0446
  447MOL0     H58958   3.449   1.780   8.971 -0.1311 -0.1911  1.1085
  447MOL0     H58959   3.537   1.649   9.050  1.2508  1.4446  2.4652
  447MOL0     H58960   3.728   1.689   8.878 -0.3727  2.0063  0.6726
  447MOL0     H58961   3.612   1.791   8.795  1.2573  1.3176  0.3323
  447MOL0     H58962   3.629   1.542   8.727 -0.3064  0.2464 -0.0451
  447MOL0     H58963   3.539   1.502   8.879 -2.3072  0.7180 -0.0262
  447MOL0     H58964   3.412   1.718   8.695 -0.7396  0.4157  1.9022
  447MOL0     H58965   3.332   1.618   8.809 -3.2584  2.9686 -3.0360
  447MOL0     H58966   3.287   1.332   8.521  1.0620  0.6334 -0.7779
  447MOL0     H58967   3.073   1.327   8.395 -0.9378  0.8910 -1.0958
  447MOL0     H58968   2.640   1.750   8.336  0.5373  2.0516 -0.4052
  447MOL0     H58969   2.461   1.796   8.179  0.8995  1.0656  1.7406
  447MOL0     H58970   2.498   1.598   7.767 -0.5746  0.3606  0.3641
  447MOL0     H58971   2.545   1.766   7.757 -0.3928  0.1247  0.1756
  447MOL0     H58972   2.321   1.844   7.716 -0.1458  0.6637 -0.9272
  447MOL0     H58973   2.249   1.694   7.782  1.3380 -0.6221  1.9401
  447MOL0     H58974   2.337   1.574   7.584 -1.8656 -0.1107 -1.3511
  447MOL0     H58975   2.440   1.695   7.527 -0.9167 -2.0925 -2.5107
  447MOL0     H58976   2.133   1.670   7.527  1.0369  0.1768  0.5473
  447MOL0     H58977   2.202   1.830   7.494  1.4872 -0.0136  0.1966
  447MOL0     H58978   2.336   1.625   7.332  0.6918 -0.0598  3.0167
  447MOL0     H58979   2.309   1.795   7.322  0.4993 -0.4316  1.2172
  447MOL0     H58980   2.098   1.572   7.253 -0.3030  0.6676  1.1131
  447MOL0     H58981   2.189   1.663   7.142  0.8365  0.6759  0.1080
  447MOL0     H58982   2.002   1.807   7.325 -3.5143 -3.6060 -1.7531
  447MOL0     H58983   2.118   1.864   7.202  2.4755 -0.6411  1.6280
  447MOL0     H58984   1.861   1.695   7.179  1.6023 -1.0206  1.8956
  447MOL0     H58985   1.987   1.700   7.041  0.8871  0.6756  0.3573
  447MOL0     H58986   2.687   1.594   7.872 -0.4675  0.8319 -1.2402
  447MOL0     H58987   2.869   1.561   8.028  1.7015  2.0512  3.9386
  447MOL0     H58988   3.002   1.735   8.455  2.2125 -0.2280 -2.5020
  447MOL0     H58989   3.196   1.736   8.625 -1.2576  0.1183  2.2592
  447MOL0     H58990   4.799   2.273   9.455 -0.5325  0.3020  1.7149
  447MOL0     H58991   5.039   2.327   9.359  1.8127 -0.0110  0.9137
  447MOL0     H58992   5.514   2.062   9.125  0.1474 -1.0502  1.7789
  447MOL0     H58993   5.741   2.174   9.084  0.5991  0.6626 -0.4240
  447MOL0     H58994   5.834   2.540   9.060  1.6724  1.3334  1.2938
  447MOL0     H58995   5.846   2.365   9.010  1.3564 -1.8875  1.0973
  447MOL0     H58996   6.066   2.346   9.102  2.1863  1.1306 -1.5314
  447MOL0     H58997   6.063   2.486   8.983 -0.3409 -0.1138 -0.9504
  447MOL0     H58998   6.072   2.506   9.291  2.5270  2.3498  1.0125
  447MOL0     H58999   6.005   2.638   9.183 -0.6062 -0.1065 -1.8768
  447MOL0     H59000   6.272   2.535   9.105  1.5323 -0.3833  0.4877
  447MOL0     H59001   6.209   2.700   9.123 -1.3462  0.5899  2.5871
  447MOL0     H59002   6.407   2.672   9.482 -1.9512  0.4651  0.4467
  447MOL0     H59003   5.641   2.473   9.362 -2.0525  0.8534  0.1045
  447MOL0     H59004   5.402   2.380   9.382 -2.1223 -1.7717 -0.8122
  448MOL0     O59005   3.977   0.788   6.599 -0.2885 -0.3312 -0.0961
  448MOL0     C59006   4.041   0.766   6.705 -0.3515 -0.1204  0.7918
  448MOL0     O59007   3.983   0.737   6.823 -0.4733 -0.0930  0.3287
  448MOL0     C59008   3.853   0.761   6.826  1.0653 -0.3341  0.0612
  448MOL0     C59009   3.809   0.886   6.862  0.5207  0.5386 -0.4034
  448MOL0     C59010   3.675   0.913   6.869 -0.0077  0.4003  0.6253
  448MOL0     C59011   3.578   0.813   6.865 -0.7186  0.5582 -0.0095
  448MOL0     O59012   3.455   0.861   6.889 -0.4007 -0.4583 -0.3788
  448MOL0     C59013   3.345   0.768   6.874  0.0719 -0.0044 -0.1799
  448MOL0     C59014   3.213   0.842   6.872  0.2781 -0.1830 -0.4338
  448MOL0     C59015   3.105   0.739   6.907 -0.3908  0.4387 -0.6620
  448MOL0     C59016   2.974   0.820   6.913  0.4921 -0.8823  0.0480
  448MOL0     C59017   2.851   0.738   6.956  0.2366  0.0397  1.3229
  448MOL0     C59018   2.852   0.703   7.099  0.8327  0.3682 -0.2338
  448MOL0     C59019   2.726   0.648   7.137 -0.1851  0.6106 -1.2356
  448MOL0     C59020   2.706   0.509   7.076 -0.2433 -1.2052 -0.2838
  448MOL0     N59021   2.588   0.440   7.127 -0.2604 -0.0106  0.4964
  448MOL0     C59022   2.458   0.491   7.138 -0.0778 -0.9845 -0.1006
  448MOL0     C59023   2.389   0.398   7.205 -0.1923 -0.2385  0.1746
  448MOL0     C59024   2.239   0.400   7.240 -0.7125  0.3772 -0.6376
  448MOL0     C59025   2.189   0.263   7.248  0.2576 -0.2929  0.3313
  448MOL0     C59026   2.185   0.227   7.394 -0.6052 -0.6525 -1.1900
  448MOL0     C59027   2.162   0.074   7.411  0.9082  0.5298 -0.3169
  448MOL0     O59028   2.226   0.014   7.539 -0.0127 -0.1406  0.4391
  448MOL0     C59029   2.361   0.018   7.545 -0.7216 -0.5947  0.2073
  448MOL0     C59030   2.439   0.018   7.427 -0.5645  0.3953  0.7323
  448MOL0     C59031   2.576   0.037   7.439  0.1999  0.6290  0.2959
  448MOL0     C59032   2.636   0.049   7.564 -0.0892  0.5972  0.4340
  448MOL0     C59033   2.782   0.064   7.585 -0.4450  0.3289 -0.2769
  448MOL0     O59034   2.853   0.114   7.483  0.6261 -0.1255  0.1194
  448MOL0     C59035   2.979   0.159   7.505  0.1560 -0.2624 -0.1962
  448MOL0     C59036   3.022   0.219   7.627  0.4610 -0.1475  0.8999
  448MOL0     C59037   3.158   0.253   7.644  0.5987 -0.2785  0.7644
  448MOL0     C59038   3.246   0.250   7.549 -1.1509  0.1543  0.7129
  448MOL0     O59039   3.371   0.300   7.590 -0.4781 -0.2531 -0.5157
  448MOL0     C59040   3.485   0.268   7.498 -0.0041  0.2253 -0.2287
  448MOL0     C59041   3.617   0.331   7.557 -0.5423  0.3626  0.5018
  448MOL0     C59042   3.727   0.328   7.450 -0.0030  1.0921 -0.2065
  448MOL0     C59043   3.868   0.368   7.505 -1.1288 -0.5599 -0.4469
  448MOL0     C59044   3.984   0.333   7.398  0.3434  0.0700 -0.3301
  448MOL0     C59045   4.124   0.382   7.459  0.8940 -0.4310  0.4682
  448MOL0     C59046   4.240   0.362   7.370 -0.4105 -0.5242  0.1651
  448MOL0     C59047   4.358   0.379   7.464  0.2184  0.0105  0.2484
  448MOL0    Cl59048   4.503   0.429   7.354 -0.1385 -0.1912 -0.4834
  448MOL0     C59049   3.211   0.199   7.427  0.3987 -0.2116  0.4841
  448MOL0     C59050   3.074   0.154   7.405 -0.0171 -0.9615 -0.2932
  448MOL0     O59051   2.822   0.009   7.686 -0.2882  0.0062  0.2496
  448MOL0     C59052   2.553   0.039   7.677 -0.2628 -0.0903  0.1442
  448MOL0     C59053   2.416   0.024   7.673  0.3656  0.5556  0.6690
  448MOL0     N59054   2.473   0.301   7.246  0.9693  0.0903 -0.3028
  448MOL0     N59055   2.593   0.320   7.195  1.8168 -0.3129  0.7292
  448MOL0     C59056   3.623   0.689   6.828 -0.0121 -0.7902 -0.0809
  448MOL0     C59057   3.760   0.662   6.795  0.6532  0.0400 -0.3590
  448MOL0     C59058   4.183   0.780   6.702  0.9194  0.4324 -0.0341
  448MOL0     C59059   4.268   0.716   6.799  1.0235 -1.0020  0.4575
  448MOL0     C59060   4.408   0.726   6.795  0.6413 -0.0384  0.6659
  448MOL0     C59061   4.475   0.810   6.707  0.2238 -0.0983 -0.3681
  448MOL0     O59062   4.605   0.811   6.710  0.2477 -0.4769  0.2793
  448MOL0     C59063   4.673   0.814   6.586 -0.2074  1.3261 -0.9203
  448MOL0     C59064   4.812   0.882   6.588  0.7597  0.3412  0.5013
  448MOL0     C59065   4.920   0.821   6.676 -0.2813  0.4056 -0.3202
  448MOL0     C59066   4.998   0.715   6.604  0.3235 -1.2543 -0.3169
  448MOL0     C59067   5.128   0.766   6.558 -0.3336  0.4024  0.3170
  448MOL0     C59068   5.241   0.802   6.520  0.3332  0.4653  0.2513
  448MOL0     C59069   4.394   0.885   6.612 -0.1513 -0.9677 -0.7460
  448MOL0     C59070   4.255   0.858   6.610 -0.2704 -0.4228  0.1308
  448MOL0     H59071   3.895   0.951   6.874 -0.7598  2.6583 -1.8300
  448MOL0     H59072   3.644   1.015   6.886 -1.4207 -0.0868  1.1382
  448MOL0     H59073   3.352   0.712   6.968 -0.0337  3.7002  2.2742
  448MOL0     H59074   3.356   0.708   6.784 -0.9236  0.1989 -0.4438
  448MOL0     H59075   3.194   0.887   6.774  0.3896 -2.7367 -1.7156
  448MOL0     H59076   3.215   0.922   6.947 -1.2703 -0.5536  0.0567
  448MOL0     H59077   3.113   0.699   7.008 -2.5516  1.3459 -0.0691
  448MOL0     H59078   3.096   0.660   6.833 -0.1388  0.6409 -0.9107
  448MOL0     H59079   2.975   0.918   6.962 -0.0422 -2.2315  2.9208
  448MOL0     H59080   2.951   0.842   6.808  0.8168 -1.8798 -0.2410
  448MOL0     H59081   2.858   0.650   6.891  0.2410  1.0202 -0.0391
  448MOL0     H59082   2.762   0.794   6.926  1.7141  0.1500 -3.7161
  448MOL0     H59083   2.854   0.787   7.169 -1.2811 -1.3755  2.1204
  448MOL0     H59084   2.930   0.631   7.125  1.0386 -0.1178 -2.0288
  448MOL0     H59085   2.705   0.645   7.245  1.8466 -1.3898 -0.8347
  448MOL0     H59086   2.646   0.713   7.099  0.9792  2.7949 -0.1460
  448MOL0     H59087   2.793   0.447   7.102 -0.7200 -1.1242  1.6541
  448MOL0     H59088   2.699   0.527   6.968 -1.7045  0.8281  0.0996
  448MOL0     H59089   2.420   0.586   7.103 -1.4808 -0.9725  1.3271
  448MOL0     H59090   2.190   0.442   7.152 -0.3274 -1.8394 -1.9863
  448MOL0     H59091   2.223   0.469   7.323  1.1761  1.1242 -0.8397
  448MOL0     H59092   2.259   0.200   7.192  3.7490  3.1680  0.3582
  448MOL0     H59093   2.090   0.249   7.204 -0.1999  0.9363  0.9154
  448MOL0     H59094   2.267   0.271   7.450 -0.4578  2.0415 -3.3322
  448MOL0     H59095   2.101   0.277   7.443  0.7905  2.5803 -1.8699
  448MOL0     H59096   2.178   0.012   7.322 -2.3854  1.2650 -1.5591
  448MOL0     H59097   2.054   0.062   7.424  1.1610  0.5585  2.4080
  448MOL0     H59098   2.397   0.015   7.327 -0.2367 -1.7411  0.6152
  448MOL0     H59099   2.640   0.051   7.352  0.6160  3.1087  0.9134
  448MOL0     H59100   2.956   0.222   7.713 -1.9897 -0.0709 -0.8389
  448MOL0     H59101   3.190   0.282   7.743  1.6242 -1.3309  0.7707
  448MOL0     H59102   3.470   0.323   7.405 -1.4466  2.0085  0.9958
  448MOL0     H59103   3.499   0.160   7.493  0.9661  0.2707  0.9124
  448MOL0     H59104   3.662   0.274   7.638  1.3238 -0.4379 -1.0202
  448MOL0     H59105   3.596   0.432   7.595 -0.3161  0.6246 -0.0536
  448MOL0     H59106   3.695   0.388   7.364 -3.6586  1.6196  1.3369
  448MOL0     H59107   3.731   0.224   7.416 -2.3264  0.7876  0.2660
  448MOL0     H59108   3.883   0.475   7.519  2.6768 -1.2403  2.4654
  448MOL0     H59109   3.890   0.321   7.602 -1.7389  0.8772  0.4192
  448MOL0     H59110   3.960   0.366   7.297 -1.4805 -0.7531 -0.2196
  448MOL0     H59111   3.992   0.224   7.393  3.1958  0.1509  0.5749
  448MOL0     H59112   4.148   0.326   7.550 -0.0634  0.0225  1.0061
  448MOL0     H59113   4.116   0.487   7.487  1.4316  0.6911 -3.1363
  448MOL0     H59114   4.242   0.262   7.325  2.8360 -0.6365  0.3282
  448MOL0     H59115   4.253   0.437   7.293  1.3915 -1.3237 -0.3634
  448MOL0     H59116   4.386   0.293   7.525  1.6272  0.9212  0.9526
  448MOL0     H59117   4.350   0.467   7.530  2.7868 -0.7934  1.8014
  448MOL0     H59118   3.282   0.189   7.346 -1.3865 -1.2261 -1.0361
  448MOL0     H59119   3.053   0.129   7.301  2.8502 -1.0775 -0.9523
  448MOL0     H59120   2.597   0.054   7.775  0.4392 -3.1986  0.4106
  448MOL0     H59121   2.342   0.013   7.752 -2.2171  2.7586 -1.2348
  448MOL0     H59122   3.560   0.601   6.824 -2.1830  0.6888  0.0700
  448MOL0     H59123   3.794   0.564   6.762 -1.4208 -1.7620  2.3580
  448MOL0     H59124   4.221   0.659   6.878  1.7100  0.0615  1.6719
  448MOL0     H59125   4.471   0.686   6.873  2.3688  2.6646  0.7831
  448MOL0     H59126   4.614   0.845   6.499 -0.8474  3.2391  0.1389
  448MOL0     H59127   4.692   0.709   6.562 -1.0473  0.0815  3.1118
  448MOL0     H59128   4.847   0.888   6.485 -1.2609  0.0658 -0.2329
  448MOL0     H59129   4.791   0.982   6.628 -3.0702  0.9422 -2.4786
  448MOL0     H59130   4.869   0.789   6.767 -2.3939  0.0278 -1.5785
  448MOL0     H59131   4.993   0.898   6.702 -0.3268  0.8138 -1.3574
  448MOL0     H59132   5.010   0.625   6.666 -1.9031 -1.5980 -0.2863
  448MOL0     H59133   4.939   0.676   6.520  1.4801  0.8471 -2.2020
  448MOL0     H59134   5.341   0.825   6.488  0.3227  0.4867  0.2347
  448MOL0     H59135   4.421   0.962   6.541 -3.8879  0.1690 -1.0971
  448MOL0     H59136   4.200   0.908   6.531  1.6777  0.3296 -0.8164
  449MOL0     O59137   3.711   2.651  10.544  0.8293 -0.3812  0.1676
  449MOL0     C59138   3.707   2.774  10.541 -0.8201  0.2958  0.0570
  449MOL0     O59139   3.613   2.851  10.486  0.5118  0.3119  0.2152
  449MOL0     C59140   3.494   2.804  10.436  0.5695  0.3771  0.1443
  449MOL0     C59141   3.444   2.878  10.330  0.2206 -0.1591 -0.7985
  449MOL0     C59142   3.304   2.863  10.297  0.6383 -0.1617 -0.4006
  449MOL0     C59143   3.228   2.748  10.345  0.4220  0.1907 -0.3477
  449MOL0     O59144   3.103   2.730  10.304  0.3986  0.3004 -0.4057
  449MOL0     C59145   3.026   2.609  10.333  0.0919 -0.2109  0.1573
  449MOL0     C59146   2.903   2.627  10.242 -0.0323 -0.8549 -0.4984
  449MOL0     C59147   2.805   2.515  10.263 -0.1283  0.3001  0.0967
  449MOL0     C59148   2.700   2.501  10.142  0.2335  0.3099 -0.3429
  449MOL0     C59149   2.581   2.605  10.159 -1.3618  0.3549 -0.4617
  449MOL0     C59150   2.481   2.560  10.265  0.5765 -0.2538 -0.3251
  449MOL0     C59151   2.364   2.656  10.278 -0.2214  0.3028  0.6175
  449MOL0     C59152   2.260   2.611  10.384 -0.2176 -0.2009 -0.1421
  449MOL0     N59153   2.129   2.664  10.344  0.4891  0.9945  0.7573
  449MOL0     C59154   2.097   2.786  10.318  0.5055 -0.4691 -0.3130
  449MOL0     C59155   1.975   2.790  10.261  0.4833 -0.6827  1.0463
  449MOL0     C59156   1.909   2.926  10.245  0.0468 -0.7507 -0.3871
  449MOL0     C59157   1.778   2.914  10.170 -0.0261  0.5282 -0.1652
  449MOL0     C59158   1.726   3.052  10.162 -0.3909 -0.4709 -0.0371
  449MOL0     C59159   1.618   3.066  10.057  0.1236  0.1179 -0.1255
  449MOL0     O59160   1.516   2.970  10.074  0.1513  0.0388  0.0499
  449MOL0     C59161   1.426   2.951   9.973 -0.1861 -0.2701 -0.6224
  449MOL0     C59162   1.402   3.049   9.879  0.2659  0.5198  0.4609
  449MOL0     C59163   1.299   3.035   9.790 -0.1166  0.6463  0.1279
  449MOL0     C59164   1.220   2.924   9.787  0.3626 -0.0080  0.2832
  449MOL0     C59165   1.107   2.921   9.693 -0.8945  0.3692  0.3593
  449MOL0     O59166   1.046   2.795   9.686 -0.1451  0.0830  0.0437
  449MOL0     C59167   0.935   2.777   9.610  0.0538  0.1740 -0.4897
  449MOL0     C59168   0.827   2.861   9.596 -1.0206  0.0953  0.2845
  449MOL0     C59169   0.729   2.829   9.507  0.1185  0.1535  0.3463
  449MOL0     C59170   0.710   2.700   9.450  0.3873 -0.4852 -0.2829
  449MOL0     O59171   0.589   2.669   9.396 -0.0408  0.0462 -0.5365
  449MOL0     C59172   0.556   2.526   9.389  0.4556  0.2105  0.4284
  449MOL0     C59173   0.403   2.502   9.356 -0.0940 -0.1461  0.3206
  449MOL0     C59174   0.389   2.552   9.210 -0.0837 -0.7875 -0.2793
  449MOL0     C59175   0.243   2.510   9.163 -0.5458 -0.2236  0.2780
  449MOL0     C59176   0.113   2.531   9.247  0.1929  0.1943 -0.6772
  449MOL0     C59177  -0.017   2.486   9.177  0.0557 -0.9931 -0.1374
  449MOL0     C59178  -0.016   2.338   9.141  0.0778  0.0723  0.1547
  449MOL0     C59179  -0.150   2.284   9.094 -0.6347 -0.1775  0.0700
  449MOL0    Cl59180  -0.139   2.110   9.081 -0.2307 -0.3230 -0.2031
  449MOL0     C59181   0.819   2.615   9.481  1.6154  0.6235 -0.0585
  449MOL0     C59182   0.928   2.652   9.565 -0.3013  0.5364  0.4261
  449MOL0     O59183   1.074   3.025   9.631 -0.2146  0.2030  0.8395
  449MOL0     C59184   1.247   2.818   9.875 -0.6200  0.5054  0.0665
  449MOL0     C59185   1.346   2.832   9.974  0.5629  0.7378 -0.1814
  449MOL0     N59186   1.925   2.667  10.253  0.9571  0.4872  0.3459
  449MOL0     N59187   2.021   2.587  10.298 -0.0212  0.0886  0.0752
  449MOL0     C59188   3.282   2.665  10.437 -0.3728  0.2459  0.8597
  449MOL0     C59189   3.415   2.704  10.492  0.7601  0.7277  1.2693
  449MOL0     C59190   3.831   2.837  10.587  1.4724 -0.1224  0.8740
  449MOL0     C59191   3.819   2.972  10.636  0.7697  0.9553  0.3518
  449MOL0     C59192   3.929   3.047  10.670 -0.0233  1.0373 -0.0513
  449MOL0     C59193   4.060   2.990  10.651 -0.3128 -1.1345 -0.6967
  449MOL0     O59194   4.182   3.061  10.656  0.1272 -0.2595 -0.6056
  449MOL0     C59195   4.191   3.207  10.667  0.4422  0.5691 -0.4597
  449MOL0     C59196   4.201   3.241  10.818 -0.6055 -0.4091 -0.7504
  449MOL0     C59197   4.329   3.188  10.888 -0.4247  0.0299 -0.7494
  449MOL0     C59198   4.452   3.256  10.835  0.1180 -0.2172 -0.3858
  449MOL0     C59199   4.568   3.205  10.906 -0.1896  0.0708 -0.2216
  449MOL0     C59200   4.659   3.178  10.981  0.1107 -0.5995 -0.4053
  449MOL0     C59201   4.075   2.854  10.626  0.7680 -0.2642  0.7528
  449MOL0     C59202   3.958   2.784  10.586 -0.5946  0.0742  0.7019
  449MOL0     H59203   3.502   2.945  10.268 -2.6790  1.7716 -1.5969
  449MOL0     H59204   3.257   2.929  10.225  0.8319 -0.1013 -0.4728
  449MOL0     H59205   2.985   2.597  10.433 -2.1012  3.1221 -0.1798
  449MOL0     H59206   3.082   2.518  10.309 -2.0861 -1.5306 -0.1100
  449MOL0     H59207   2.940   2.630  10.139  1.2222  0.6651 -0.0409
  449MOL0     H59208   2.861   2.727  10.256 -1.6981 -1.6819  0.7647
  449MOL0     H59209   2.757   2.515  10.361 -0.3845 -1.8769  0.0284
  449MOL0     H59210   2.870   2.427  10.260 -0.1886  0.2212  0.9487
  449MOL0     H59211   2.751   2.513  10.046 -1.5889 -1.8834 -1.7225
  449MOL0     H59212   2.660   2.399  10.138 -2.3510  1.2498 -0.7109
  449MOL0     H59213   2.532   2.610  10.061 -2.0947  4.1185 -0.0429
  449MOL0     H59214   2.629   2.701  10.180  0.2549 -0.8720  1.9971
  449MOL0     H59215   2.530   2.551  10.363  0.3483 -1.5049 -0.3137
  449MOL0     H59216   2.451   2.457  10.244 -0.7997 -0.4414  2.1116
  449MOL0     H59217   2.412   2.748  10.312  1.0102  0.2073 -0.7705
  449MOL0     H59218   2.315   2.675  10.182  1.0512  0.0471 -0.0996
  449MOL0     H59219   2.279   2.655  10.482 -4.0794  0.8087  0.3138
  449MOL0     H59220   2.263   2.502  10.390 -0.9505 -0.3560 -1.9917
  449MOL0     H59221   2.163   2.863  10.356 -0.5190 -0.8862  2.5795
  449MOL0     H59222   1.980   2.992  10.195  1.2286 -0.1907  1.8908
  449MOL0     H59223   1.887   2.962  10.346 -1.4400  2.7472 -1.7995
  449MOL0     H59224   1.708   2.841  10.211 -0.9310  1.6246  0.2912
  449MOL0     H59225   1.799   2.892  10.065  0.4096  4.1519 -0.9789
  449MOL0     H59226   1.676   3.087  10.253 -0.3498  0.1247 -0.2353
  449MOL0     H59227   1.803   3.128  10.148 -1.5162  1.4648  3.0226
  449MOL0     H59228   1.665   3.059   9.958  0.0832  2.7866 -0.4160
  449MOL0     H59229   1.578   3.167  10.069  1.2498  0.8493 -2.0870
  449MOL0     H59230   1.444   3.149   9.874 -0.0365  0.6248 -0.0411
  449MOL0     H59231   1.275   3.124   9.732 -2.6173 -0.4927 -0.7361
  449MOL0     H59232   0.817   2.958   9.646 -0.8316 -0.4694  1.4578
  449MOL0     H59233   0.650   2.900   9.487 -0.7622 -1.2081 -1.3582
  449MOL0     H59234   0.570   2.486   9.490  3.3597  0.8479  0.3798
  449MOL0     H59235   0.624   2.471   9.323 -1.0454 -2.8301  1.2541
  449MOL0     H59236   0.351   2.558   9.435  0.5495  0.4323  0.3448
  449MOL0     H59237   0.385   2.398   9.383  4.6016 -0.4600  3.4894
  449MOL0     H59238   0.471   2.526   9.143  1.3998  1.8399  0.4186
  449MOL0     H59239   0.392   2.661   9.208 -0.3496 -0.7825 -0.4663
  449MOL0     H59240   0.233   2.551   9.062 -3.3256  0.5912  0.8141
  449MOL0     H59241   0.256   2.401   9.154 -0.0861 -0.0743 -1.3298
  449MOL0     H59242   0.098   2.637   9.272 -2.1227  0.1123 -1.4730
  449MOL0     H59243   0.132   2.465   9.332 -1.9301 -0.5370 -0.7124
  449MOL0     H59244  -0.036   2.544   9.087 -0.3612  1.7531  1.5788
  449MOL0     H59245  -0.105   2.506   9.240 -2.0612 -0.1861 -3.1454
  449MOL0     H59246   0.061   2.322   9.064 -3.2735 -0.0279 -3.4772
  449MOL0     H59247   0.027   2.278   9.222 -0.8998 -0.6565  0.1500
  449MOL0     H59248  -0.175   2.320   8.994 -2.6194  0.3631  0.7061
  449MOL0     H59249  -0.227   2.304   9.170 -0.4185 -0.3068  0.3256
  449MOL0     H59250   0.827   2.510   9.454  0.2484  0.9743 -2.0761
  449MOL0     H59251   1.013   2.584   9.573 -0.4114  0.3738  0.2355
  449MOL0     H59252   1.192   2.725   9.884  0.2011  0.0630  0.5670
  449MOL0     H59253   1.369   2.764  10.056  0.5503  0.2119 -0.6083
  449MOL0     H59254   3.218   2.594  10.488 -1.4652  1.0116  0.5756
  449MOL0     H59255   3.438   2.653  10.585  1.5333 -0.3300  0.5209
  449MOL0     H59256   3.721   3.016  10.647  0.6694  0.1506  4.0272
  449MOL0     H59257   3.903   3.151  10.684 -2.4731  0.3201  1.2126
  449MOL0     H59258   4.102   3.261  10.632  1.4855  2.6294 -0.0930
  449MOL0     H59259   4.283   3.234  10.614  1.3938  0.8342  1.2581
  449MOL0     H59260   4.201   3.350  10.827 -1.4387 -0.1980 -2.7913
  449MOL0     H59261   4.112   3.210  10.874 -0.1995  1.3057  0.9422
  449MOL0     H59262   4.328   3.080  10.875 -0.8416 -0.0168 -0.3425
  449MOL0     H59263   4.320   3.209  10.995 -0.7730 -1.2299 -0.5119
  449MOL0     H59264   4.462   3.224  10.731  2.3670  1.3016 -0.7100
  449MOL0     H59265   4.439   3.364  10.848 -0.8937 -0.0058 -2.6625
  449MOL0     H59266   4.742   3.163  11.047 -0.1746  1.5491  0.5202
  449MOL0     H59267   4.166   2.802  10.654 -0.2461 -1.2426  2.3898
  449MOL0     H59268   3.966   2.678  10.563 -2.6778 -0.0654  0.3603
  450MOL0     O59269   5.960   9.597   8.708  0.0680  0.2568  0.2640
  450MOL0     C59270   6.035   9.536   8.783 -0.8520 -1.5068  0.5134
  450MOL0     O59271   6.014   9.515   8.919  0.7007  0.4815 -0.6394
  450MOL0     C59272   5.882   9.520   8.964 -0.5173 -0.8114  0.3250
  450MOL0     C59273   5.771   9.475   8.899 -0.7694  0.8169 -0.5076
  450MOL0     C59274   5.643   9.485   8.966 -0.7355 -0.2099 -0.1901
  450MOL0     C59275   5.632   9.553   9.089  0.8788  0.2893 -0.4114
  450MOL0     O59276   5.514   9.583   9.159 -0.0408 -0.1054  0.4481
  450MOL0     C59277   5.410   9.625   9.064  0.5702 -0.0816 -0.8878
  450MOL0     C59278   5.348   9.750   9.147 -0.1203 -0.3833  0.0798
  450MOL0     C59279   5.281   9.715   9.275 -0.5913 -0.9535 -0.1736
  450MOL0     C59280   5.237   9.841   9.340 -0.7388 -0.6975 -0.8034
  450MOL0     C59281   5.142   9.939   9.268 -0.2379  0.1592  0.0412
  450MOL0     C59282   5.126  10.073   9.349  0.0833 -0.3507 -0.1082
  450MOL0     C59283   4.995  10.147   9.314 -0.3045  0.6082  0.3934
  450MOL0     C59284   4.991  10.187   9.163  0.2254 -0.1233 -0.0647
  450MOL0     N59285   5.116  10.261   9.120 -0.6894 -0.0541  0.8014
  450MOL0     C59286   5.167  10.373   9.185  0.0109  0.6356  0.0488
  450MOL0     C59287   5.289  10.395   9.130  0.5273  0.1757  0.2789
  450MOL0     C59288   5.382  10.514   9.171  0.6993  0.3173  0.1826
  450MOL0     C59289   5.467  10.472   9.283 -0.0976  0.0262 -0.9819
  450MOL0     C59290   5.399  10.446   9.420  0.3878  0.3234 -0.0643
  450MOL0     C59291   5.351  10.573   9.496 -0.3486  0.0655 -0.0835
  450MOL0     O59292   5.237  10.625   9.432  0.1553 -0.3730 -0.2677
  450MOL0     C59293   5.164  10.701   9.519 -0.5865  0.3960 -0.0536
  450MOL0     C59294   5.025  10.675   9.499 -0.2063 -0.0719  0.1945
  450MOL0     C59295   4.943  10.752   9.574 -0.3254  0.7306 -0.5314
  450MOL0     C59296   4.980  10.842   9.665 -0.5955 -0.0009  0.2954
  450MOL0     C59297   4.870  10.917   9.740  0.0894 -0.4652  0.3318
  450MOL0     O59298   4.741  10.899   9.705  0.4254  0.3323 -0.5768
  450MOL0     C59299   4.637  10.971   9.756 -0.4150 -0.7241  0.0186
  450MOL0     C59300   4.640  11.085   9.841  0.8194 -0.6038 -0.4015
  450MOL0     C59301   4.517  11.145   9.877  0.3659  0.0136 -0.3215
  450MOL0     C59302   4.396  11.102   9.829 -0.0220 -0.5830 -0.2171
  450MOL0     O59303   4.285  11.165   9.881  0.1518 -0.1265  0.2341
  450MOL0     C59304   4.165  11.125   9.827  0.4795  0.0807  0.6570
  450MOL0     C59305   4.048  11.204   9.886  1.0871 -0.7406 -0.4825
  450MOL0     C59306   4.070  11.354   9.847 -0.3179 -0.9907  0.2617
  450MOL0     C59307   3.945  11.434   9.868  0.4209  0.2584 -0.6258
  450MOL0     C59308   3.856  11.432   9.742 -0.1551 -0.2432 -0.0281
  450MOL0     C59309   3.724  11.512   9.761 -0.4637  0.3208 -0.5518
  450MOL0     C59310   3.656  11.559   9.640  1.2056 -0.4045  0.3783
  450MOL0     C59311   3.520  11.632   9.682 -0.0593 -0.0179 -0.9296
  450MOL0    Cl59312   3.548  11.780   9.775  0.0374 -0.0462 -0.3221
  450MOL0     C59313   4.393  11.003   9.726  0.7817 -0.3034 -0.0842
  450MOL0     C59314   4.515  10.940   9.702  0.0670  0.5417  0.0353
  450MOL0     O59315   4.911  10.998   9.823  0.0029 -0.0363  0.0177
  450MOL0     C59316   5.119  10.865   9.688  0.7027 -0.3667 -0.2820
  450MOL0     C59317   5.212  10.790   9.615  0.7048 -0.1003  0.6873
  450MOL0     N59318   5.318  10.304   9.035  0.8687  0.1732 -0.1176
  450MOL0     N59319   5.215  10.226   9.033  0.2869 -0.0376 -0.2363
  450MOL0     C59320   5.739   9.619   9.137  0.8788  0.0422  0.5844
  450MOL0     C59321   5.865   9.594   9.081  0.3799 -0.0786 -0.0180
  450MOL0     C59322   6.169   9.499   8.729  0.6455  0.8026 -0.0147
  450MOL0     C59323   6.284   9.479   8.805 -0.3221  0.0123  0.4956
  450MOL0     C59324   6.407   9.450   8.740  0.2084 -0.0135 -0.2715
  450MOL0     C59325   6.418   9.448   8.608  0.3493  0.0918  0.0709
  450MOL0     O59326   6.534   9.428   8.538  0.7973 -0.0955 -0.9303
  450MOL0     C59327   6.649   9.384   8.600 -0.2046 -0.4205  0.0226
  450MOL0     C59328   6.732   9.298   8.495  0.3338  0.8948  0.6057
  450MOL0     C59329   6.856   9.221   8.545 -0.0762  0.6455  0.1656
  450MOL0     C59330   6.941   9.174   8.428  0.1968 -0.6585 -0.7188
  450MOL0     C59331   7.077   9.141   8.476  0.2419 -0.8031 -0.0873
  450MOL0     C59332   7.184   9.117   8.543  0.0908 -0.9882  0.1704
  450MOL0     C59333   6.310   9.469   8.526 -0.2415  0.6225 -0.1506
  450MOL0     C59334   6.182   9.495   8.587  0.2034  0.5668 -0.6304
  450MOL0     H59335   5.785   9.427   8.803 -0.0338  2.7645 -1.4345
  450MOL0     H59336   5.569   9.428   8.910 -1.5515  0.4284  0.2213
  450MOL0     H59337   5.327   9.554   9.052  2.4327 -3.2249  2.5792
  450MOL0     H59338   5.448   9.649   8.964  2.0242  2.1007  0.1279
  450MOL0     H59339   5.285   9.801   9.074  0.9170 -1.1191 -1.3711
  450MOL0     H59340   5.432   9.816   9.170 -0.6984  1.1803 -1.9888
  450MOL0     H59341   5.348   9.654   9.336  0.6762 -1.8550 -2.3491
  450MOL0     H59342   5.188   9.660   9.259 -2.4004  1.8189  0.1291
  450MOL0     H59343   5.187   9.815   9.433 -0.3968  2.3751  0.3306
  450MOL0     H59344   5.324   9.895   9.378  0.8460 -0.1377 -4.7363
  450MOL0     H59345   5.048   9.885   9.254 -1.1731  2.3730 -3.7696
  450MOL0     H59346   5.181   9.963   9.168  1.8653 -0.6453  0.6163
  450MOL0     H59347   5.215  10.134   9.330  0.1151 -0.7132 -1.1860
  450MOL0     H59348   5.118  10.059   9.457  1.3683  1.5900  0.2838
  450MOL0     H59349   4.916  10.074   9.330  1.3549 -1.1897  0.7537
  450MOL0     H59350   4.990  10.233   9.381  2.4424 -1.1415  3.1320
  450MOL0     H59351   4.912  10.260   9.145 -0.1186 -0.6423 -0.6538
  450MOL0     H59352   4.977  10.099   9.100 -2.3268  1.8412 -2.5094
  450MOL0     H59353   5.120  10.441   9.256 -0.2034  0.5287  0.0109
  450MOL0     H59354   5.321  10.604   9.181  0.6422  0.1835  1.1207
  450MOL0     H59355   5.440  10.527   9.079  0.0751  1.0915 -0.1178
  450MOL0     H59356   5.543  10.550   9.289 -0.4680  0.3250  3.9617
  450MOL0     H59357   5.520  10.383   9.248 -2.0671 -1.5424 -0.1957
  450MOL0     H59358   5.310  10.383   9.425 -1.3540  2.6002 -0.2262
  450MOL0     H59359   5.482  10.406   9.477  1.1999  3.0529  0.8228
  450MOL0     H59360   5.431  10.647   9.497 -1.4225  1.2958  1.9870
  450MOL0     H59361   5.326  10.550   9.600  1.8256  2.3011  1.0420
  450MOL0     H59362   5.006  10.613   9.412  0.0179 -1.0051  0.7965
  450MOL0     H59363   4.840  10.744   9.540  0.3302  1.4979 -2.8402
  450MOL0     H59364   4.737  11.121   9.873  1.4077 -0.3808 -2.3241
  450MOL0     H59365   4.515  11.226   9.949  1.9877 -0.5006  0.3421
  450MOL0     H59366   4.142  11.019   9.823  0.9607  0.0134 -0.7817
  450MOL0     H59367   4.154  11.151   9.722 -1.1855 -0.1948  0.7262
  450MOL0     H59368   4.034  11.204   9.995 -1.8548  1.0211 -0.7454
  450MOL0     H59369   3.958  11.161   9.842  2.3890 -2.6948 -1.4146
  450MOL0     H59370   4.109  11.359   9.745 -0.0950 -1.1227  0.3391
  450MOL0     H59371   4.141  11.402   9.914 -2.3492 -0.7521  2.3641
  450MOL0     H59372   3.894  11.382   9.950  2.0503 -2.5935 -1.3185
  450MOL0     H59373   3.975  11.538   9.885  2.4262 -0.5095  0.9352
  450MOL0     H59374   3.828  11.330   9.716 -2.0519  0.6632 -1.8166
  450MOL0     H59375   3.912  11.482   9.662 -1.0684 -0.4867 -0.8342
  450MOL0     H59376   3.757  11.603   9.814  1.2115 -0.9755  0.7677
  450MOL0     H59377   3.668  11.452   9.833 -1.2652  1.3379 -0.2930
  450MOL0     H59378   3.712  11.623   9.572 -1.4308 -1.3716 -3.0147
  450MOL0     H59379   3.628  11.468   9.585 -0.0015  0.1569  0.0337
  450MOL0     H59380   3.461  11.567   9.748  1.3633  1.3236  1.8244
  450MOL0     H59381   3.465  11.661   9.592  2.1735  0.5860 -2.1647
  450MOL0     H59382   4.300  10.968   9.684  0.3388  2.8850 -2.0691
  450MOL0     H59383   4.512  10.848   9.645  0.9401 -0.4232  1.4624
  450MOL0     H59384   5.151  10.956   9.737 -0.1925 -0.0319 -0.3019
  450MOL0     H59385   5.318  10.813   9.614  0.4177  1.3968 -0.8727
  450MOL0     H59386   5.734   9.681   9.226  1.2106 -0.8596  1.2467
  450MOL0     H59387   5.954   9.635   9.129 -0.5837 -1.9153  3.7324
  450MOL0     H59388   6.279   9.489   8.913 -1.2399 -0.6125  0.5249
  450MOL0     H59389   6.496   9.435   8.801  1.5186  0.7960 -1.9108
  450MOL0     H59390   6.625   9.315   8.681  0.1469  1.4962  1.8462
  450MOL0     H59391   6.714   9.463   8.640 -0.6273  0.1545 -0.4219
  450MOL0     H59392   6.666   9.220   8.455  1.7336  1.4545 -3.1852
  450MOL0     H59393   6.759   9.364   8.412  2.3409 -1.2766 -0.6050
  450MOL0     H59394   6.829   9.130   8.599  0.0687 -0.1721 -1.0846
  450MOL0     H59395   6.915   9.279   8.615  1.0107 -0.9156  0.6013
  450MOL0     H59396   6.894   9.091   8.374  0.7161 -2.0283  0.8395
  450MOL0     H59397   6.951   9.258   8.359  1.5955  1.5155  1.9233
  450MOL0     H59398   7.280   9.105   8.588  0.4365 -2.4245 -0.8739
  450MOL0     H59399   6.333   9.462   8.421  4.7702 -3.5161  0.8376
  450MOL0     H59400   6.097   9.516   8.523 -0.5836  1.3505  0.6073
  451MOL0     O59401   7.594   9.996   2.142 -0.4498 -0.2061 -0.0818
  451MOL0     C59402   7.563  10.010   2.025  0.4466 -0.6084  0.2270
  451MOL0     O59403   7.647  10.016   1.910  0.2920  0.4782  0.0598
  451MOL0     C59404   7.781  10.003   1.915  0.0503  0.1215  0.5576
  451MOL0     C59405   7.845   9.927   2.008 -0.5112 -0.0311  0.4426
  451MOL0     C59406   7.985   9.937   2.025 -0.2617 -0.0886 -0.5251
  451MOL0     C59407   8.065  10.003   1.927 -0.8825 -0.2248 -0.9968
  451MOL0     O59408   8.198  10.014   1.944 -0.4639 -1.0812  0.1468
  451MOL0     C59409   8.270   9.955   2.050  0.1603  0.5353 -0.1933
  451MOL0     C59410   8.412   9.994   2.028  0.5974  1.3469  0.1990
  451MOL0     C59411   8.440  10.144   2.042  0.5169  0.3850  0.1467
  451MOL0     C59412   8.582  10.170   1.998  0.6579  0.6695  0.2533
  451MOL0     C59413   8.631  10.314   2.024  0.3984 -0.8318  0.3501
  451MOL0     C59414   8.539  10.418   1.964 -0.2207 -0.3095  0.1561
  451MOL0     C59415   8.602  10.554   1.965  0.4576 -0.9456  0.3359
  451MOL0     C59416   8.499  10.666   1.916 -0.2989 -0.3327  0.2728
  451MOL0     N59417   8.383  10.669   1.996 -0.3469 -0.2115  0.6471
  451MOL0     C59418   8.376  10.675   2.130  0.0745 -0.1989  0.0836
  451MOL0     C59419   8.245  10.692   2.165  0.3560 -0.2536  0.0720
  451MOL0     C59420   8.194  10.693   2.307  0.8884  0.4905 -0.7452
  451MOL0     C59421   8.227  10.834   2.359  0.0255 -0.4222  0.0373
  451MOL0     C59422   8.170  10.856   2.505 -0.5562 -0.3543  0.3001
  451MOL0     C59423   8.015  10.852   2.504 -0.8914 -1.3722 -0.0924
  451MOL0     O59424   7.965  10.862   2.631  0.6309 -0.7758 -0.8455
  451MOL0     C59425   7.835  10.910   2.650  0.5646 -0.8149 -0.1868
  451MOL0     C59426   7.798  10.950   2.773  0.4522  0.5404 -0.7545
  451MOL0     C59427   7.665  10.988   2.798 -0.0422  0.0829 -0.9080
  451MOL0     C59428   7.563  10.988   2.705 -0.3378 -0.3005 -0.6816
  451MOL0     C59429   7.430  11.025   2.741 -0.9043  0.0794 -0.0841
  451MOL0     O59430   7.407  11.079   2.867  0.0108  0.5149  0.0041
  451MOL0     C59431   7.277  11.105   2.890  0.7523 -0.0640  0.2637
  451MOL0     C59432   7.231  11.231   2.848  0.1760 -0.1580  0.7009
  451MOL0     C59433   7.102  11.277   2.876 -1.1184  0.5699  0.7709
  451MOL0     C59434   7.016  11.193   2.944  0.1222  0.1291 -0.2384
  451MOL0     O59435   6.886  11.224   2.974  0.0754 -0.4593 -0.1842
  451MOL0     C59436   6.839  11.368   2.951  0.4932  0.6204 -0.2344
  451MOL0     C59437   6.698  11.397   3.020 -0.4929 -0.6741  0.0370
  451MOL0     C59438   6.575  11.358   2.933  0.0600 -0.5381  0.1017
  451MOL0     C59439   6.453  11.369   3.020 -0.3101  0.2559 -0.0314
  451MOL0     C59440   6.325  11.340   2.943  0.8769  0.2071  0.1053
  451MOL0     C59441   6.222  11.287   3.026 -0.7151  0.7374  0.0617
  451MOL0     C59442   6.089  11.257   2.957  0.8156  0.1221 -0.4331
  451MOL0     C59443   5.988  11.205   3.064  0.5390 -1.0877  0.3343
  451MOL0    Cl59444   5.968  11.321   3.196 -0.1260 -0.0224 -0.0872
  451MOL0     C59445   7.056  11.062   2.977 -0.5340 -0.3080 -0.4627
  451MOL0     C59446   7.190  11.019   2.956  0.0106 -1.2622  1.0125
  451MOL0     O59447   7.344  11.016   2.654 -0.3179  0.1616 -0.2534
  451MOL0     C59448   7.599  10.948   2.573 -0.3431 -0.3842  0.3314
  451MOL0     C59449   7.736  10.922   2.548 -1.1041 -0.1374  0.7403
  451MOL0     N59450   8.175  10.702   2.043  0.4789  0.1877 -0.1910
  451MOL0     N59451   8.260  10.669   1.948  0.0123  0.1290 -1.2782
  451MOL0     C59452   7.996  10.065   1.826  0.3537  0.0413  0.4056
  451MOL0     C59453   7.858  10.072   1.821 -1.1727 -0.4873  0.6038
  451MOL0     C59454   7.415  10.031   2.003  0.0854  0.2794 -0.1055
  451MOL0     C59455   7.318  10.019   2.106  0.1005 -0.7261  0.2798
  451MOL0     C59456   7.184  10.045   2.088  0.5912  0.7128  0.5144
  451MOL0     C59457   7.134  10.080   1.962  0.4360  0.6762 -0.2726
  451MOL0     O59458   6.997  10.112   1.934 -0.5832  0.0607 -0.2271
  451MOL0     C59459   6.902  10.135   2.042  0.4330  0.8355 -0.9242
  451MOL0     C59460   6.764  10.140   1.970 -0.0503 -0.7195  0.4112
  451MOL0     C59461   6.656  10.180   2.083 -0.4925  0.2501  0.2250
  451MOL0     C59462   6.536  10.260   2.025 -0.6378 -0.5261  0.4710
  451MOL0     C59463   6.440  10.179   1.947  0.7899  0.4015 -0.7455
  451MOL0     C59464   6.367  10.100   1.888  0.9395  0.6993  0.5747
  451MOL0     C59465   7.225  10.090   1.861  0.0082 -0.1256  0.2808
  451MOL0     C59466   7.362  10.067   1.878  0.4335  0.1866  0.2929
  451MOL0     H59467   7.785   9.866   2.075 -0.5436 -0.9428 -0.3965
  451MOL0     H59468   8.019   9.898   2.121 -0.1130  0.2440 -0.4401
  451MOL0     H59469   8.251   9.847   2.047  2.3070  0.0752  0.7737
  451MOL0     H59470   8.230   9.991   2.145 -1.4019 -1.8285  0.1476
  451MOL0     H59471   8.448   9.951   1.933  0.2516  3.1825 -0.8092
  451MOL0     H59472   8.471   9.939   2.102  1.2402  1.8044  0.0412
  451MOL0     H59473   8.419  10.172   2.145 -2.0083 -0.8085  0.0321
  451MOL0     H59474   8.363  10.197   1.984 -0.3056 -1.6492 -0.7235
  451MOL0     H59475   8.649  10.101   2.050  0.4026 -0.1734 -0.5070
  451MOL0     H59476   8.587  10.142   1.893  0.2692  0.7875  0.1994
  451MOL0     H59477   8.734  10.321   1.989  0.9659  0.5053  2.1649
  451MOL0     H59478   8.637  10.329   2.132 -1.1509  1.2866  0.2105
  451MOL0     H59479   8.439  10.404   2.007  0.2868 -1.8143  0.9031
  451MOL0     H59480   8.530  10.396   1.857  0.2424  2.1904 -0.4531
  451MOL0     H59481   8.628  10.591   2.065 -0.6100  4.3955 -1.0112
  451MOL0     H59482   8.687  10.559   1.897 -0.3265  0.2170 -0.6122
  451MOL0     H59483   8.462  10.648   1.815 -0.9596  2.5121 -0.0525
  451MOL0     H59484   8.540  10.767   1.917  2.5887 -1.3980  1.8712
  451MOL0     H59485   8.459  10.664   2.199  0.3472  1.3304  0.0375
  451MOL0     H59486   8.249  10.613   2.358 -0.8883  0.4791  1.2908
  451MOL0     H59487   8.088  10.665   2.306  1.2427 -0.9280 -0.9477
  451MOL0     H59488   8.177  10.908   2.296 -1.4132 -2.0104 -0.7521
  451MOL0     H59489   8.335  10.850   2.354 -0.0733  0.1168 -0.3422
  451MOL0     H59490   8.219  10.784   2.571 -1.0672  0.1666  1.2645
  451MOL0     H59491   8.203  10.954   2.540  2.2885 -0.7267 -1.0473
  451MOL0     H59492   7.973  10.761   2.462 -3.2749 -0.6665  0.6156
  451MOL0     H59493   7.971  10.938   2.452 -0.7531 -1.9331 -1.1652
  451MOL0     H59494   7.877  10.944   2.847 -0.0620  0.2587 -0.2224
  451MOL0     H59495   7.649  11.022   2.900  0.0647  0.6975 -1.0945
  451MOL0     H59496   7.282  11.305   2.788 -0.6219 -0.1812 -0.0394
  451MOL0     H59497   7.063  11.374   2.848  2.4048  2.0335  0.4991
  451MOL0     H59498   6.843  11.387   2.844  0.4301 -1.2089 -0.5876
  451MOL0     H59499   6.902  11.444   2.998 -0.3034 -0.9696  3.8174
  451MOL0     H59500   6.703  11.506   3.031 -0.2783 -0.2966 -3.0346
  451MOL0     H59501   6.688  11.352   3.119 -0.7340 -1.9012 -0.5252
  451MOL0     H59502   6.579  11.255   2.897  1.2680 -1.1703  1.9056
  451MOL0     H59503   6.563  11.423   2.846 -2.0983  0.3778  1.0064
  451MOL0     H59504   6.466  11.300   3.104 -0.3722  3.0439  2.4389
  451MOL0     H59505   6.447  11.471   3.059  0.6381  0.1427  0.4400
  451MOL0     H59506   6.350  11.271   2.862 -0.4560  1.6653 -1.6359
  451MOL0     H59507   6.297  11.430   2.888 -0.2911 -0.7223 -0.8703
  451MOL0     H59508   6.198  11.359   3.104 -1.2626 -1.8893  2.4627
  451MOL0     H59509   6.263  11.203   3.082  1.3614  0.9344 -1.0819
  451MOL0     H59510   6.047  11.342   2.903  0.6451 -1.3179 -2.7058
  451MOL0     H59511   6.102  11.176   2.885 -2.9248 -1.0035 -0.0631
  451MOL0     H59512   6.017  11.107   3.104  1.1105 -1.1710 -0.2569
  451MOL0     H59513   5.891  11.196   3.014  0.2402  2.5334  0.0458
  451MOL0     H59514   6.983  11.003   3.032  0.8452 -0.2251  1.5846
  451MOL0     H59515   7.220  10.916   2.974  0.4015 -2.2440 -3.8023
  451MOL0     H59516   7.533  10.932   2.489 -1.4047 -0.5842  1.1794
  451MOL0     H59517   7.768  10.894   2.448  1.8869  1.4350  1.1572
  451MOL0     H59518   8.041  10.102   1.735 -0.2921  1.6138  0.6917
  451MOL0     H59519   7.806  10.120   1.739  0.9012  0.0404 -0.4603
  451MOL0     H59520   7.343   9.984   2.206  2.7008 -1.3127 -0.4885
  451MOL0     H59521   7.112  10.027   2.167 -0.0288 -2.6849 -0.6469
  451MOL0     H59522   6.935  10.229   2.086 -0.9890  0.1605  1.7758
  451MOL0     H59523   6.906  10.059   2.120  1.0110  1.3942 -0.3976
  451MOL0     H59524   6.769  10.223   1.899  0.2506  0.2612  1.5372
  451MOL0     H59525   6.746  10.049   1.913  4.5802 -2.0110  0.5710
  451MOL0     H59526   6.715  10.253   2.141  1.9519 -0.4582 -1.2223
  451MOL0     H59527   6.630  10.086   2.130 -0.9786 -1.1920 -2.7026
  451MOL0     H59528   6.484  10.304   2.110 -1.3540 -0.0618 -0.2052
  451MOL0     H59529   6.570  10.339   1.958 -2.1596  0.2831  0.6319
  451MOL0     H59530   6.304  10.032   1.835  0.5202  1.1787  0.4575
  451MOL0     H59531   7.182  10.119   1.766 -0.0571 -0.2938  0.2582
  451MOL0     H59532   7.430  10.087   1.797  2.0926  0.3545  1.6726
  452MOL0     O59533   0.263   9.099   4.543 -0.5989  0.9268  0.0901
  452MOL0     C59534   0.319   9.191   4.609  0.6319  1.1937 -0.6102
  452MOL0     O59535   0.259   9.296   4.672 -0.0906  0.0302  0.9220
  452MOL0     C59536   0.123   9.292   4.684 -0.2012 -0.7729  0.1222
  452MOL0     C59537   0.052   9.404   4.661  0.8755 -0.1048 -0.6460
  452MOL0     C59538  -0.084   9.421   4.683  0.8941  0.3020  0.1555
  452MOL0     C59539  -0.164   9.314   4.714 -0.1818 -0.7274 -0.1051
  452MOL0     O59540  -0.298   9.336   4.696  0.1654  0.3807  0.4822
  452MOL0     C59541  -0.376   9.222   4.664 -0.1665 -0.5882  0.1343
  452MOL0     C59542  -0.512   9.265   4.617 -0.5154  0.4555  0.2536
  452MOL0     C59543  -0.580   9.146   4.555  1.0670  0.1765  0.8906
  452MOL0     C59544  -0.733   9.172   4.536 -0.5988 -0.6186  0.5458
  452MOL0     C59545  -0.807   9.046   4.556  0.6698  0.8358 -1.0953
  452MOL0     C59546  -0.945   9.062   4.501  0.0785 -0.3682  0.6670
  452MOL0     C59547  -1.033   8.940   4.519 -0.3814  0.5107 -0.4387
  452MOL0     C59548  -0.991   8.826   4.416 -0.2144 -0.0809 -0.3843
  452MOL0     N59549  -0.936   8.714   4.481  0.0701 -0.1404 -0.1430
  452MOL0     C59550  -1.009   8.634   4.569 -0.2246  0.4736 -0.3402
  452MOL0     C59551  -0.922   8.547   4.624 -0.5622  0.2347 -0.1898
  452MOL0     C59552  -0.964   8.428   4.696 -0.1965 -0.9727  0.2912
  452MOL0     C59553  -0.901   8.295   4.661 -0.4995  0.4358  0.2426
  452MOL0     C59554  -0.912   8.208   4.789  0.5372  0.6042 -1.1302
  452MOL0     C59555  -1.063   8.170   4.821 -0.2845 -0.0561 -0.3218
  452MOL0     O59556  -1.070   8.122   4.963 -0.5425  0.0605  0.3197
  452MOL0     C59557  -1.195   8.077   5.005  0.3335  0.5540  0.1832
  452MOL0     C59558  -1.298   8.029   4.913 -0.2549 -0.0213 -0.8811
  452MOL0     C59559  -1.418   7.981   4.967 -0.1006 -0.6110 -0.7773
  452MOL0     C59560  -1.436   7.995   5.105 -0.4538 -0.0799 -0.8042
  452MOL0     C59561  -1.557   7.952   5.159 -0.1651  0.8146 -0.2053
  452MOL0     O59562  -1.666   7.950   5.084 -0.8258  0.3182  0.0124
  452MOL0     C59563  -1.782   7.915   5.154 -0.4593 -0.1457 -0.0530
  452MOL0     C59564  -1.881   8.007   5.188  0.6095 -0.1598  0.5240
  452MOL0     C59565  -1.994   7.959   5.254 -0.1231  0.2307 -0.1904
  452MOL0     C59566  -1.996   7.821   5.301  0.5117  0.4917 -0.0168
  452MOL0     O59567  -2.102   7.798   5.389  0.4289  0.1109 -0.2484
  452MOL0     C59568  -2.127   7.658   5.420  0.4767 -1.0211  1.0757
  452MOL0     C59569  -2.256   7.647   5.499 -0.3121 -0.1410 -0.7941
  452MOL0     C59570  -2.288   7.500   5.520  0.5071  0.5858  0.5070
  452MOL0     C59571  -2.436   7.471   5.559 -0.1840 -0.2181 -0.2798
  452MOL0     C59572  -2.458   7.498   5.718  0.4655  0.8486 -0.6970
  452MOL0     C59573  -2.607   7.487   5.756 -0.3722 -0.6215  0.3819
  452MOL0     C59574  -2.656   7.342   5.747  0.3995  0.1267  0.0844
  452MOL0     C59575  -2.771   7.318   5.855 -0.3393  0.3371 -0.9332
  452MOL0    Cl59576  -2.914   7.431   5.835  0.4779 -0.1355 -0.0131
  452MOL0     C59577  -1.893   7.730   5.267 -0.4861  0.7582 -0.1671
  452MOL0     C59578  -1.789   7.778   5.187  0.9188 -0.5698  0.2207
  452MOL0     O59579  -1.556   7.923   5.279  0.2321 -0.5687  0.5202
  452MOL0     C59580  -1.335   8.049   5.196  0.5511  0.0693  0.0874
  452MOL0     C59581  -1.212   8.079   5.139  0.4686  0.1054  0.6775
  452MOL0     N59582  -0.797   8.586   4.578  0.9044  0.4490  0.2825
  452MOL0     N59583  -0.809   8.683   4.496  0.4656 -0.4938  0.2469
  452MOL0     C59584  -0.091   9.196   4.752  0.7555  0.1147 -0.4212
  452MOL0     C59585   0.051   9.182   4.734  1.4009  0.2950  0.4170
  452MOL0     C59586   0.470   9.195   4.610  0.1348  0.4381 -0.3665
  452MOL0     C59587   0.546   9.292   4.680  0.6087  0.3089 -0.1884
  452MOL0     C59588   0.689   9.292   4.687  0.2796  0.2822  0.9569
  452MOL0     C59589   0.754   9.193   4.603 -0.0059  0.7389 -0.2182
  452MOL0     O59590   0.892   9.197   4.579  0.0075  0.9701 -0.2433
  452MOL0     C59591   0.937   9.328   4.543 -1.1241  0.8123  1.0521
  452MOL0     C59592   1.060   9.304   4.452 -0.2944 -2.1923  0.3175
  452MOL0     C59593   1.159   9.426   4.452  0.1192 -0.1944 -0.4514
  452MOL0     C59594   1.211   9.460   4.596 -0.1363  0.4619 -0.9624
  452MOL0     C59595   1.301   9.351   4.642 -0.2009  0.3737 -0.8018
  452MOL0     C59596   1.365   9.260   4.690 -0.0585 -0.0570  0.3468
  452MOL0     C59597   0.678   9.096   4.536  0.8914  1.0020 -0.1227
  452MOL0     C59598   0.542   9.098   4.536  0.3831  0.9936 -0.5392
  452MOL0     H59599   0.104   9.489   4.617 -0.3523  0.3770 -1.2023
  452MOL0     H59600  -0.131   9.519   4.674  0.0937 -0.2407 -2.5100
  452MOL0     H59601  -0.386   9.161   4.755 -1.4838  2.5638  2.2769
  452MOL0     H59602  -0.320   9.176   4.582 -0.0644 -1.2089  0.5420
  452MOL0     H59603  -0.494   9.347   4.547  0.0076 -0.1290 -0.3004
  452MOL0     H59604  -0.573   9.304   4.699  0.7173 -1.7822  2.3624
  452MOL0     H59605  -0.572   9.048   4.603  0.3427 -0.6401 -0.6036
  452MOL0     H59606  -0.527   9.139   4.460 -0.0643 -0.8697  0.3139
  452MOL0     H59607  -0.775   9.246   4.604  0.1796 -0.6500  1.0783
  452MOL0     H59608  -0.741   9.200   4.431 -1.9519 -0.3627  0.7067
  452MOL0     H59609  -0.823   9.014   4.659 -0.5939 -0.3002 -1.6116
  452MOL0     H59610  -0.761   8.966   4.497  2.1282  2.6016 -2.4872
  452MOL0     H59611  -0.938   9.084   4.394 -2.4996  2.1704  0.8746
  452MOL0     H59612  -0.994   9.149   4.547 -2.5546 -0.2790 -2.0003
  452MOL0     H59613  -1.016   8.908   4.623  0.4504 -3.9866 -1.7458
  452MOL0     H59614  -1.136   8.971   4.501  0.3178  1.4739 -3.1913
  452MOL0     H59615  -0.925   8.848   4.332 -1.0546  0.9289 -0.8036
  452MOL0     H59616  -1.085   8.789   4.376  0.4855 -2.4478 -0.0241
  452MOL0     H59617  -1.117   8.624   4.567 -0.1864 -0.5572  1.2521
  452MOL0     H59618  -1.073   8.417   4.688 -0.1777 -4.1219  2.4497
  452MOL0     H59619  -0.944   8.454   4.801  0.1332 -0.7175  0.1676
  452MOL0     H59620  -0.798   8.306   4.626 -0.0627 -0.1088  1.3293
  452MOL0     H59621  -0.966   8.253   4.583 -3.0415  0.4807  2.2056
  452MOL0     H59622  -0.849   8.119   4.779 -0.4786  0.0995 -3.6327
  452MOL0     H59623  -0.883   8.271   4.874 -1.1385 -1.2098  0.9189
  452MOL0     H59624  -1.097   8.090   4.756 -1.8489  0.2057  0.1374
  452MOL0     H59625  -1.125   8.260   4.819 -0.9968 -0.5498 -0.8780
  452MOL0     H59626  -1.283   8.028   4.806  1.2276 -0.5501 -0.6840
  452MOL0     H59627  -1.493   7.954   4.894 -1.4803 -2.0637  1.0966
  452MOL0     H59628  -1.876   8.111   5.158 -2.3603 -0.5519 -1.8679
  452MOL0     H59629  -2.081   8.022   5.267 -1.5066 -2.0580  2.7530
  452MOL0     H59630  -2.042   7.620   5.477  1.1923  1.5837  1.9239
  452MOL0     H59631  -2.128   7.601   5.327 -0.8660  0.4814  0.0997
  452MOL0     H59632  -2.337   7.695   5.442  0.1315 -0.9074 -2.0984
  452MOL0     H59633  -2.242   7.685   5.600 -0.1727 -0.6861 -0.6090
  452MOL0     H59634  -2.225   7.457   5.599  1.8906 -0.8494 -1.2820
  452MOL0     H59635  -2.256   7.437   5.437 -0.8245 -0.1365  0.5136
  452MOL0     H59636  -2.508   7.536   5.508 -1.5849  1.0576  3.0272
  452MOL0     H59637  -2.470   7.369   5.542  1.6277 -0.9572  0.2347
  452MOL0     H59638  -2.417   7.594   5.752  0.5693 -0.0928  2.1364
  452MOL0     H59639  -2.395   7.423   5.766  1.2129  1.4043 -0.7890
  452MOL0     H59640  -2.666   7.547   5.687 -0.5729 -0.7904  0.4058
  452MOL0     H59641  -2.618   7.532   5.855 -2.0982 -1.0400  0.4075
  452MOL0     H59642  -2.676   7.310   5.644  1.3887 -0.6830  0.1315
  452MOL0     H59643  -2.573   7.285   5.790 -0.6095  0.8927  3.2914
  452MOL0     H59644  -2.725   7.348   5.949 -0.5656  0.0866 -0.7406
  452MOL0     H59645  -2.795   7.211   5.865 -0.5531  0.5896  3.0471
  452MOL0     H59646  -1.885   7.635   5.319 -1.1395  0.8504  0.1087
  452MOL0     H59647  -1.701   7.720   5.161  2.7979  2.5240 -0.8957
  452MOL0     H59648  -1.351   8.053   5.303 -3.0611 -0.0084 -0.3213
  452MOL0     H59649  -1.126   8.113   5.196 -0.6771  0.9455  2.0085
  452MOL0     H59650  -0.147   9.111   4.790 -0.8817  0.0061 -2.8441
  452MOL0     H59651   0.091   9.083   4.754 -0.6824 -0.8853 -0.8585
  452MOL0     H59652   0.487   9.358   4.743 -2.7538  1.0586 -3.7605
  452MOL0     H59653   0.744   9.364   4.747 -0.7937  0.7563  1.3922
  452MOL0     H59654   0.962   9.383   4.635  4.9760 -0.4442  0.5648
  452MOL0     H59655   0.875   9.400   4.488  1.5192  2.2699 -0.2722
  452MOL0     H59656   1.110   9.215   4.490 -1.4156 -2.2849  1.6465
  452MOL0     H59657   1.025   9.290   4.349  0.0354  2.0507 -0.5620
  452MOL0     H59658   1.108   9.511   4.406  1.9362  1.1656 -0.0911
  452MOL0     H59659   1.245   9.389   4.396  0.9148 -1.0794  1.2828
  452MOL0     H59660   1.279   9.543   4.576  1.9443 -0.4931  1.6169
  452MOL0     H59661   1.139   9.483   4.675 -0.6602 -0.1763 -1.2481
  452MOL0     H59662   1.424   9.175   4.721 -0.7806 -1.2993 -1.4691
  452MOL0     H59663   0.745   9.033   4.478 -0.5342  0.1363 -0.8764
  452MOL0     H59664   0.490   9.032   4.467  1.0141 -0.1716  0.0729
  453MOL0     O59665   8.702   6.393   6.815  0.4829 -0.7478 -0.4556
  453MOL0     C59666   8.759   6.482   6.752  0.3191  0.1897  0.6346
  453MOL0     O59667   8.694   6.588   6.698 -0.0813 -0.0429 -0.1592
  453MOL0     C59668   8.567   6.608   6.741 -0.0310 -1.0180  0.3857
  453MOL0     C59669   8.458   6.540   6.683 -0.5801 -0.4049  0.7679
  453MOL0     C59670   8.328   6.566   6.728 -0.0853  0.9007 -1.2700
  453MOL0     C59671   8.300   6.648   6.835  0.4285 -0.6218 -0.5075
  453MOL0     O59672   8.168   6.653   6.880 -0.0256 -0.0520 -0.3744
  453MOL0     C59673   8.120   6.780   6.948  0.0732  0.0768  0.0521
  453MOL0     C59674   7.997   6.766   7.026  0.4477 -0.3141 -1.1822
  453MOL0     C59675   7.906   6.890   7.036  0.3329 -0.4349 -0.0984
  453MOL0     C59676   7.787   6.852   7.119  0.3636 -0.1858 -0.1288
  453MOL0     C59677   7.667   6.946   7.114  0.8571  0.3683 -0.0106
  453MOL0     C59678   7.570   6.899   7.005 -0.6425 -0.4618 -0.3443
  453MOL0     C59679   7.447   6.983   7.006 -0.3506  0.2795 -0.1379
  453MOL0     C59680   7.375   6.958   6.872  0.9497 -0.5192 -0.6165
  453MOL0     N59681   7.249   7.042   6.872  0.1694 -0.3930 -0.0863
  453MOL0     C59682   7.236   7.172   6.887 -0.7135 -0.0004 -0.5495
  453MOL0     C59683   7.104   7.195   6.921 -0.0208  0.1371 -0.6570
  453MOL0     C59684   7.030   7.321   6.935  0.1053  0.6859 -0.2134
  453MOL0     C59685   6.988   7.378   6.796  0.2870  0.6479  0.2725
  453MOL0     C59686   6.869   7.475   6.810  0.2494  1.1046 -0.4371
  453MOL0     C59687   6.739   7.402   6.861 -0.1806 -0.0565  0.6433
  453MOL0     O59688   6.634   7.496   6.820 -0.1416 -0.0660 -0.0583
  453MOL0     C59689   6.507   7.487   6.866  0.3046  0.1767  0.3441
  453MOL0     C59690   6.451   7.372   6.923 -0.6015 -0.5684 -0.7843
  453MOL0     C59691   6.313   7.372   6.968 -0.1911 -0.3787  0.0922
  453MOL0     C59692   6.233   7.483   6.945 -0.0838  0.1303  0.0267
  453MOL0     C59693   6.091   7.490   6.984 -0.1059  0.7875 -0.0480
  453MOL0     O59694   6.013   7.576   6.916 -0.2295  0.5652 -0.3452
  453MOL0     C59695   5.873   7.572   6.921  0.1035 -0.1481 -1.0778
  453MOL0     C59696   5.807   7.692   6.930  0.2055 -0.5350  0.3518
  453MOL0     C59697   5.670   7.688   6.953 -0.3049  0.3843 -0.6495
  453MOL0     C59698   5.597   7.565   6.959 -0.0376 -0.8447 -0.4014
  453MOL0     O59699   5.465   7.559   6.992 -0.1673 -0.1952 -0.3485
  453MOL0     C59700   5.389   7.677   7.018  1.0758 -0.0321 -0.1887
  453MOL0     C59701   5.235   7.648   7.017 -0.6512 -0.6232 -0.7054
  453MOL0     C59702   5.190   7.569   6.893 -0.0738 -1.0885 -0.2417
  453MOL0     C59703   5.046   7.538   6.894 -0.4576  0.5242  0.0678
  453MOL0     C59704   5.016   7.430   6.797 -0.3139  0.2483  1.3888
  453MOL0     C59705   5.011   7.491   6.653  1.3011 -0.3108  0.3973
  453MOL0     C59706   4.986   7.396   6.530 -0.0486 -0.4714 -0.3455
  453MOL0     C59707   4.838   7.377   6.524 -0.1885  0.2029 -0.4106
  453MOL0    Cl59708   4.801   7.236   6.432 -0.1750  0.0168 -0.2211
  453MOL0     C59709   5.661   7.455   6.945  0.1547  0.7931  0.3723
  453MOL0     C59710   5.800   7.447   6.926 -0.4772  0.2642 -0.5962
  453MOL0     O59711   6.051   7.409   7.075 -0.0365  0.1633 -0.5062
  453MOL0     C59712   6.287   7.594   6.869  0.3987  0.1281  0.1035
  453MOL0     C59713   6.421   7.593   6.841 -0.3573  0.3702 -0.7185
  453MOL0     N59714   7.052   7.067   6.950  0.5859  0.1298  0.2116
  453MOL0     N59715   7.141   6.976   6.920 -0.1090  0.2563  0.6069
  453MOL0     C59716   8.413   6.707   6.897  0.5041 -0.0145  0.5738
  453MOL0     C59717   8.545   6.697   6.848  0.4622  0.8113 -0.5712
  453MOL0     C59718   8.909   6.489   6.749 -0.3047 -0.0505 -1.0365
  453MOL0     C59719   8.988   6.409   6.839 -0.1126  1.1683  0.2206
  453MOL0     C59720   9.126   6.428   6.837  0.3104  0.4453 -0.6866
  453MOL0     C59721   9.190   6.512   6.755 -0.2763  0.0241  0.6420
  453MOL0     O59722   9.331   6.508   6.758  0.8062  0.0890 -0.3589
  453MOL0     C59723   9.401   6.614   6.691 -0.2375  0.6583 -0.2050
  453MOL0     C59724   9.552   6.598   6.705  0.3608 -0.5072 -0.3090
  453MOL0     C59725   9.605   6.632   6.840 -0.5958  0.9310 -0.6237
  453MOL0     C59726   9.730   6.553   6.881  0.7750 -0.9006 -0.2048
  453MOL0     C59727   9.841   6.594   6.790  0.2038  1.5259 -0.1749
  453MOL0     C59728   9.933   6.624   6.716 -0.1686 -0.6516  0.1274
  453MOL0     C59729   9.111   6.598   6.674 -0.4376  0.6422 -0.9998
  453MOL0     C59730   8.970   6.589   6.672  0.4365 -0.3763 -0.4319
  453MOL0     H59731   8.479   6.478   6.596 -1.9233  0.6164 -0.3427
  453MOL0     H59732   8.238   6.519   6.689 -2.5995  1.0835  3.5462
  453MOL0     H59733   8.111   6.852   6.867 -1.0378 -0.5218 -0.3790
  453MOL0     H59734   8.187   6.826   7.021 -2.5369  1.2446  1.8828
  453MOL0     H59735   8.009   6.715   7.122 -2.0857  0.8351 -0.1580
  453MOL0     H59736   7.930   6.693   6.981 -3.3407  2.5999 -0.8308
  453MOL0     H59737   7.865   6.915   6.937  0.0011  1.3477  0.4586
  453MOL0     H59738   7.950   6.982   7.075 -1.7303 -0.5498  2.7826
  453MOL0     H59739   7.742   6.756   7.094  0.3381 -0.8849  2.3594
  453MOL0     H59740   7.818   6.852   7.224  1.3239  5.9271 -0.0435
  453MOL0     H59741   7.698   7.048   7.089 -0.8490  0.4054 -2.3039
  453MOL0     H59742   7.598   6.951   7.198 -2.2377  4.0174 -2.4131
  453MOL0     H59743   7.547   6.795   7.028  1.2992 -0.4157  2.2462
  453MOL0     H59744   7.612   6.904   6.904 -0.3088  1.2715 -0.1607
  453MOL0     H59745   7.384   6.949   7.088  1.2792 -0.2561  0.9394
  453MOL0     H59746   7.474   7.088   7.016 -1.1441  0.5119 -0.4048
  453MOL0     H59747   7.345   6.854   6.860  1.6361 -0.7948 -0.0086
  453MOL0     H59748   7.437   6.993   6.789  1.3063 -2.5556 -1.2561
  453MOL0     H59749   7.308   7.253   6.888 -1.8584  1.1516  2.8841
  453MOL0     H59750   7.089   7.385   7.000 -1.1665  0.9637  0.7088
  453MOL0     H59751   6.941   7.299   6.996  0.0810 -0.4223 -0.6159
  453MOL0     H59752   6.958   7.297   6.728  1.3173 -0.7218  1.3875
  453MOL0     H59753   7.064   7.436   6.744 -1.1943  2.3865 -0.0316
  453MOL0     H59754   6.899   7.548   6.886  1.1993  2.6433 -2.1897
  453MOL0     H59755   6.850   7.524   6.714 -1.6838 -2.6898 -2.2102
  453MOL0     H59756   6.731   7.380   6.968 -1.1587  2.4816  1.1569
  453MOL0     H59757   6.729   7.307   6.807 -0.4040  0.3903 -0.1112
  453MOL0     H59758   6.511   7.283   6.943 -2.1179 -1.5576 -0.4935
  453MOL0     H59759   6.274   7.281   7.011  0.4036 -0.9785 -0.5954
  453MOL0     H59760   5.857   7.788   6.942 -1.7258  0.4569  0.9446
  453MOL0     H59761   5.604   7.770   6.982 -1.8020 -1.2553  0.7928
  453MOL0     H59762   5.411   7.749   6.939  1.2888 -0.8490 -0.8886
  453MOL0     H59763   5.423   7.728   7.109  1.8493 -1.2038  0.1971
  453MOL0     H59764   5.175   7.740   7.026  1.6399  0.8446  0.3896
  453MOL0     H59765   5.215   7.594   7.109 -0.2264  0.6834  0.1853
  453MOL0     H59766   5.258   7.483   6.899 -0.6581 -1.6108 -0.8370
  453MOL0     H59767   5.210   7.636   6.809 -1.2334 -0.5735 -0.1308
  453MOL0     H59768   5.025   7.506   6.996  0.8999  0.6346  0.4110
  453MOL0     H59769   4.991   7.625   6.858  0.7011  0.9091 -0.8382
  453MOL0     H59770   4.923   7.379   6.826 -0.2708  0.2992  1.6218
  453MOL0     H59771   5.084   7.345   6.804 -0.9489 -0.5404 -1.1177
  453MOL0     H59772   5.098   7.552   6.627  0.6836 -0.1810 -1.5834
  453MOL0     H59773   4.926   7.560   6.662  2.1328  0.6397  1.2347
  453MOL0     H59774   5.020   7.422   6.430 -1.1545 -1.8085 -1.1008
  453MOL0     H59775   5.024   7.295   6.553 -3.1704 -1.5210  0.7264
  453MOL0     H59776   4.800   7.463   6.468  0.2511 -0.2286 -1.3958
  453MOL0     H59777   4.796   7.377   6.625  0.9459  5.0786  0.3238
  453MOL0     H59778   5.602   7.365   6.961 -0.8633  1.4157  0.2372
  453MOL0     H59779   5.836   7.346   6.908 -0.0700  0.3407 -0.2312
  453MOL0     H59780   6.227   7.674   6.828  1.2300 -0.1586 -1.8047
  453MOL0     H59781   6.473   7.681   6.804  2.9258 -0.4708  1.4160
  453MOL0     H59782   8.400   6.776   6.980 -0.3006 -0.5036  0.8585
  453MOL0     H59783   8.621   6.760   6.893 -1.3796  3.5445 -1.0348
  453MOL0     H59784   8.940   6.330   6.895 -0.1794 -0.8728 -2.4890
  453MOL0     H59785   9.199   6.377   6.899  0.5504  1.8018  0.2179
  453MOL0     H59786   9.385   6.705   6.750  1.3984 -0.1480  1.5845
  453MOL0     H59787   9.365   6.643   6.592  0.8985  2.0459 -0.2544
  453MOL0     H59788   9.589   6.497   6.683  1.6375 -0.5561  1.7686
  453MOL0     H59789   9.586   6.674   6.634 -1.0177 -0.0444 -0.5060
  453MOL0     H59790   9.533   6.609   6.919 -1.9844 -2.5397 -2.6318
  453MOL0     H59791   9.616   6.740   6.844  1.8506  0.7173 -0.1295
  453MOL0     H59792   9.762   6.586   6.980 -1.1835 -1.3322  0.6290
  453MOL0     H59793   9.714   6.445   6.870 -0.2801 -0.5935 -2.1813
  453MOL0     H59794  10.016   6.651   6.652  0.0144  0.9822  1.0102
  453MOL0     H59795   9.156   6.683   6.623 -0.1289  1.0292 -0.0887
  453MOL0     H59796   8.913   6.654   6.606 -2.1812 -2.2473 -0.1725
  454MOL0     O59797   3.812   4.764   7.819 -0.3362 -0.6489  0.0574
  454MOL0     C59798   3.836   4.763   7.697 -0.2960 -0.1205 -0.0838
  454MOL0     O59799   3.824   4.863   7.610 -0.0992 -0.1556  0.3304
  454MOL0     C59800   3.748   4.962   7.662  0.6703  0.3582 -1.3709
  454MOL0     C59801   3.794   5.072   7.745  0.1936 -0.5185  0.8032
  454MOL0     C59802   3.710   5.175   7.780  0.7218  0.1628 -0.3403
  454MOL0     C59803   3.573   5.176   7.740  0.6163  0.2008 -0.1714
  454MOL0     O59804   3.482   5.261   7.781 -0.2725 -0.8126  0.6529
  454MOL0     C59805   3.514   5.403   7.788 -0.1603  0.2922  0.0355
  454MOL0     C59806   3.401   5.492   7.732 -0.1455 -0.8238 -0.0732
  454MOL0     C59807   3.439   5.640   7.711 -0.5143  0.4183  0.1398
  454MOL0     C59808   3.449   5.727   7.844 -0.1615  0.5656 -0.0083
  454MOL0     C59809   3.311   5.763   7.893  0.3652 -0.2873  0.2770
  454MOL0     C59810   3.311   5.874   7.999 -1.0447 -0.5160 -0.6531
  454MOL0     C59811   3.343   6.017   7.951  0.3861  0.8270 -1.0926
  454MOL0     C59812   3.227   6.120   7.984 -0.1910 -0.2187  0.2506
  454MOL0     N59813   3.101   6.088   7.913 -0.0144 -0.4989 -0.2075
  454MOL0     C59814   2.978   6.119   7.968  0.3704  0.7426  0.5068
  454MOL0     C59815   2.904   6.089   7.860  0.6314 -0.1973  0.2625
  454MOL0     C59816   2.765   6.138   7.847 -0.5454 -0.3990  0.1159
  454MOL0     C59817   2.675   6.090   7.965 -0.0840 -0.2522 -0.4317
  454MOL0     C59818   2.523   6.106   7.946  0.0078  0.1978  0.0928
  454MOL0     C59819   2.469   6.247   7.941 -0.2715 -0.0480 -0.5723
  454MOL0     O59820   2.476   6.305   8.070  0.0974  0.3271 -0.3026
  454MOL0     C59821   2.367   6.302   8.156  0.4731 -0.5791  1.2695
  454MOL0     C59822   2.368   6.375   8.276  0.7205  0.2059  0.6909
  454MOL0     C59823   2.254   6.389   8.358 -0.2027  0.6320 -0.8237
  454MOL0     C59824   2.133   6.322   8.325  0.0674 -0.5438 -0.0942
  454MOL0     C59825   2.021   6.336   8.411  0.9817  0.6284  1.0042
  454MOL0     O59826   1.916   6.252   8.390 -0.5553  0.5453  0.6543
  454MOL0     C59827   1.796   6.253   8.462 -0.8579  0.5044 -0.3507
  454MOL0     C59828   1.792   6.279   8.597  0.3046 -0.1736  0.2263
  454MOL0     C59829   1.672   6.280   8.674  0.5705  0.1351 -0.0617
  454MOL0     C59830   1.548   6.249   8.611  0.5453 -0.0973  0.2748
  454MOL0     O59831   1.427   6.229   8.670  0.3582 -0.2255  0.1112
  454MOL0     C59832   1.397   6.313   8.787  0.0442 -0.3644  0.1613
  454MOL0     C59833   1.257   6.289   8.832 -0.2398  0.0438  0.2819
  454MOL0     C59834   1.161   6.300   8.707  0.4911 -0.2720  0.3246
  454MOL0     C59835   1.016   6.285   8.746  0.1424 -0.1235  0.2362
  454MOL0     C59836   0.931   6.321   8.618 -0.4032  0.1027  0.0093
  454MOL0     C59837   0.781   6.293   8.642 -0.8468 -0.6798 -0.6100
  454MOL0     C59838   0.690   6.402   8.575 -1.0034  0.5367 -0.2298
  454MOL0     C59839   0.555   6.347   8.537 -0.3620  0.2488  0.5077
  454MOL0    Cl59840   0.445   6.474   8.478  0.0068 -0.0419  0.1786
  454MOL0     C59841   1.556   6.218   8.474  0.3205 -0.1202 -0.8885
  454MOL0     C59842   1.679   6.225   8.398 -0.4784 -0.3490 -0.6512
  454MOL0     O59843   2.032   6.412   8.500  0.2220 -0.6447 -0.3032
  454MOL0     C59844   2.127   6.252   8.204  0.5414  0.7210  0.4630
  454MOL0     C59845   2.240   6.242   8.123 -0.0657 -0.2235  0.0534
  454MOL0     N59846   2.974   6.034   7.750  0.0747  0.0344 -0.5614
  454MOL0     N59847   3.094   6.036   7.790 -0.6256 -1.2006 -0.1103
  454MOL0     C59848   3.530   5.067   7.666 -0.4790 -0.4160  0.2583
  454MOL0     C59849   3.612   4.962   7.623  0.7782 -0.1230  0.2449
  454MOL0     C59850   3.913   4.640   7.653  0.5856  0.8728 -0.2738
  454MOL0     C59851   3.933   4.527   7.739 -0.3080 -0.1546  0.3944
  454MOL0     C59852   4.008   4.416   7.699  0.6960  0.1085  0.2941
  454MOL0     C59853   4.062   4.410   7.569 -0.2136 -0.1184 -0.1159
  454MOL0     O59854   4.132   4.299   7.521  0.1272 -0.5038 -0.6239
  454MOL0     C59855   4.183   4.290   7.388  0.9766  0.5192 -0.0568
  454MOL0     C59856   4.317   4.354   7.374 -0.1571 -0.3997  0.2819
  454MOL0     C59857   4.408   4.280   7.263 -0.5362 -0.3800  0.1342
  454MOL0     C59858   4.437   4.131   7.281  1.2376  0.0576  0.7047
  454MOL0     C59859   4.570   4.105   7.226  0.3151 -0.3314  0.1280
  454MOL0     C59860   4.679   4.092   7.176  0.0022  0.4000 -0.2164
  454MOL0     C59861   4.024   4.519   7.485 -0.2083  0.2377  0.5019
  454MOL0     C59862   3.955   4.630   7.525  0.0543  1.0134  0.4557
  454MOL0     H59863   3.899   5.070   7.775  0.3121  0.1907  0.4667
  454MOL0     H59864   3.749   5.247   7.850 -0.7805  2.4466 -1.7330
  454MOL0     H59865   3.604   5.417   7.727 -1.2377  0.1096 -1.6765
  454MOL0     H59866   3.534   5.426   7.893  2.0250  0.1660 -0.3223
  454MOL0     H59867   3.316   5.490   7.800 -1.4407  0.1160 -1.5854
  454MOL0     H59868   3.371   5.453   7.634  0.9477 -1.2012 -0.2747
  454MOL0     H59869   3.375   5.686   7.636  0.3547 -0.6564 -1.3096
  454MOL0     H59870   3.535   5.629   7.660 -1.1816 -0.5420 -0.9626
  454MOL0     H59871   3.492   5.656   7.916 -0.9482 -0.4423 -0.5061
  454MOL0     H59872   3.510   5.815   7.826  2.1062 -1.2425 -1.9365
  454MOL0     H59873   3.261   5.676   7.937  1.4067 -0.4295  1.2401
  454MOL0     H59874   3.237   5.780   7.816 -0.6092 -1.5787  0.8999
  454MOL0     H59875   3.380   5.848   8.080 -1.9792  0.1810  0.3910
  454MOL0     H59876   3.215   5.871   8.050 -1.0594 -0.1979 -0.6596
  454MOL0     H59877   3.430   6.056   8.005  1.9833 -2.0381 -1.3981
  454MOL0     H59878   3.373   6.022   7.845  0.8904 -0.5847 -1.0337
  454MOL0     H59879   3.264   6.212   7.938 -1.3010 -0.3634 -0.9974
  454MOL0     H59880   3.206   6.146   8.088  0.3760  1.4776 -0.0183
  454MOL0     H59881   2.953   6.173   8.059 -2.7049 -1.2480  0.9600
  454MOL0     H59882   2.733   6.097   7.751  0.3008  1.1579 -0.8920
  454MOL0     H59883   2.778   6.246   7.837 -1.9326 -0.1972  0.3613
  454MOL0     H59884   2.700   6.138   8.060  1.7418 -1.7102 -0.1194
  454MOL0     H59885   2.690   5.984   7.987 -1.2424 -0.4708 -0.6160
  454MOL0     H59886   2.482   6.034   7.875 -0.0102  0.6782 -0.3896
  454MOL0     H59887   2.481   6.061   8.036  0.4033  1.9915  1.2086
  454MOL0     H59888   2.365   6.253   7.907  0.0277  2.4901 -1.2722
  454MOL0     H59889   2.528   6.309   7.872 -0.1141 -0.6210 -0.9519
  454MOL0     H59890   2.454   6.430   8.313 -0.7163  1.3290  2.5140
  454MOL0     H59891   2.271   6.447   8.448  0.7802 -0.2324 -0.4370
  454MOL0     H59892   1.891   6.287   8.640  0.2807  3.1183 -0.0773
  454MOL0     H59893   1.684   6.281   8.781  2.2748 -0.0482 -0.2252
  454MOL0     H59894   1.407   6.419   8.761 -0.0615 -0.1447  0.9862
  454MOL0     H59895   1.471   6.282   8.861 -1.2988 -1.4192  1.1049
  454MOL0     H59896   1.241   6.358   8.915 -2.9938  3.2088 -2.5750
  454MOL0     H59897   1.263   6.188   8.873  1.2834 -1.6637 -3.5718
  454MOL0     H59898   1.177   6.226   8.627 -0.0589  1.6541 -1.6495
  454MOL0     H59899   1.175   6.402   8.671 -0.1016 -0.2114  0.2596
  454MOL0     H59900   0.995   6.179   8.766 -0.6721 -0.2004 -0.8944
  454MOL0     H59901   0.991   6.340   8.837  0.2952 -1.3627  1.0629
  454MOL0     H59902   0.964   6.242   8.549  1.3697 -1.2463  2.2700
  454MOL0     H59903   0.941   6.421   8.576 -1.2805  0.3673  0.4068
  454MOL0     H59904   0.774   6.308   8.750 -1.8267  0.6736 -0.8333
  454MOL0     H59905   0.731   6.201   8.612 -2.5630  0.4826 -1.4800
  454MOL0     H59906   0.677   6.492   8.635 -3.4203  1.1392 -1.4827
  454MOL0     H59907   0.739   6.435   8.483  0.3596  0.2000  0.3576
  454MOL0     H59908   0.503   6.310   8.626 -0.2818  0.0812  0.4831
  454MOL0     H59909   0.564   6.262   8.469  1.6125 -0.1502  1.1992
  454MOL0     H59910   1.458   6.202   8.430 -0.3120  1.0356  0.0286
  454MOL0     H59911   1.668   6.217   8.291  1.9200 -0.4600 -0.9467
  454MOL0     H59912   2.033   6.204   8.177 -0.3992  1.2728  2.5176
  454MOL0     H59913   2.239   6.179   8.034  2.5443 -0.0695 -0.1790
  454MOL0     H59914   3.424   5.066   7.643 -0.1204  2.8904 -2.2775
  454MOL0     H59915   3.570   4.885   7.559 -0.3540 -2.1955  3.2769
  454MOL0     H59916   3.898   4.542   7.841  2.0650 -0.6150  1.3471
  454MOL0     H59917   4.000   4.325   7.757  0.7561 -1.4286 -1.9715
  454MOL0     H59918   4.103   4.311   7.316  0.7059 -3.1000 -1.0007
  454MOL0     H59919   4.194   4.182   7.375  0.2426  0.2656  1.2214
  454MOL0     H59920   4.291   4.457   7.348 -0.2583 -0.3975  0.3899
  454MOL0     H59921   4.360   4.361   7.474  1.8067 -0.7903 -0.4914
  454MOL0     H59922   4.498   4.342   7.257 -0.0673 -1.1751 -1.6207
  454MOL0     H59923   4.359   4.297   7.167  1.0220  0.6882 -0.5105
  454MOL0     H59924   4.425   4.089   7.381  0.4057  0.0124  0.5931
  454MOL0     H59925   4.366   4.078   7.217  0.6944  1.9747 -0.3905
  454MOL0     H59926   4.773   4.068   7.129  0.8719  1.7631  0.7499
  454MOL0     H59927   4.063   4.528   7.384 -1.7140  1.2798 -0.0300
  454MOL0     H59928   3.963   4.709   7.450 -0.1787 -1.6429 -2.5786
  455MOL0     O59929   9.091   5.484   8.291 -0.6000  0.1583  0.1069
  455MOL0     C59930   9.064   5.535   8.396 -0.8780  0.1016 -0.0203
  455MOL0     O59931   8.954   5.510   8.473  0.0578 -0.3689 -0.5630
  455MOL0     C59932   8.871   5.398   8.437  0.6619 -0.2922  0.6658
  455MOL0     C59933   8.918   5.269   8.418 -0.1773 -0.4071  0.0578
  455MOL0     C59934   8.831   5.164   8.379 -0.8074  0.8655 -0.3411
  455MOL0     C59935   8.698   5.189   8.365  0.4912 -0.1839  0.3772
  455MOL0     O59936   8.611   5.085   8.355 -0.0036 -0.1756  0.4404
  455MOL0     C59937   8.624   4.973   8.455 -0.3672 -0.2845 -0.1413
  455MOL0     C59938   8.595   5.014   8.599 -0.2190  0.6003 -0.1544
  455MOL0     C59939   8.443   5.042   8.607  0.6384 -0.3563 -0.1658
  455MOL0     C59940   8.373   5.028   8.743  0.2359 -0.5918  0.1605
  455MOL0     C59941   8.219   5.024   8.723 -0.3091 -0.2518  0.2638
  455MOL0     C59942   8.138   5.009   8.854 -0.3929 -0.0080 -0.6158
  455MOL0     C59943   7.982   4.998   8.840  0.3636 -0.5314 -0.0143
  455MOL0     C59944   7.912   5.129   8.800 -0.0709 -0.1914 -0.0726
  455MOL0     N59945   7.767   5.132   8.798  0.3066  1.3619 -0.0754
  455MOL0     C59946   7.685   5.096   8.913  0.6691 -1.1772  1.2934
  455MOL0     C59947   7.563   5.075   8.863 -0.2502  0.1349  0.2342
  455MOL0     C59948   7.458   5.043   8.969  0.4435  0.6812 -0.1597
  455MOL0     C59949   7.323   4.982   8.906 -0.4668 -0.1074 -0.0526
  455MOL0     C59950   7.252   5.090   8.834  1.0825 -0.0056  0.0715
  455MOL0     C59951   7.101   5.063   8.822 -0.9241 -0.0692  0.8019
  455MOL0     O59952   7.031   5.168   8.756 -0.7271 -0.0079  0.3402
  455MOL0     C59953   6.891   5.170   8.781  0.0491 -0.2181  0.0008
  455MOL0     C59954   6.816   5.059   8.815 -0.1826  0.2131  1.1715
  455MOL0     C59955   6.691   5.079   8.859  0.2215 -0.3439 -0.4159
  455MOL0     C59956   6.631   5.207   8.839  0.8542 -0.3470  0.7903
  455MOL0     C59957   6.485   5.218   8.864 -0.6398  0.3809 -0.1113
  455MOL0     O59958   6.415   5.103   8.832 -0.0270 -0.4370 -0.4027
  455MOL0     C59959   6.284   5.086   8.852  0.1939 -0.0773 -0.6171
  455MOL0     C59960   6.210   5.019   8.756  0.1372 -1.2832  0.3734
  455MOL0     C59961   6.068   5.006   8.766 -0.0074  0.4926 -0.8593
  455MOL0     C59962   5.998   5.052   8.882 -0.2125 -0.0406 -0.6224
  455MOL0     O59963   5.858   5.046   8.904  0.9238 -0.5846 -0.1324
  455MOL0     C59964   5.772   4.977   8.801  0.2063  0.5958 -0.4763
  455MOL0     C59965   5.646   4.925   8.870 -0.2526 -0.3521  0.2741
  455MOL0     C59966   5.533   4.913   8.772 -1.1703 -0.1194 -0.1998
  455MOL0     C59967   5.407   4.851   8.842 -0.3977 -0.2953  0.4068
  455MOL0     C59968   5.327   4.963   8.920 -0.0860 -0.2723 -0.1381
  455MOL0     C59969   5.187   4.917   8.953  0.8649  0.0836  0.6902
  455MOL0     C59970   5.121   5.018   9.057  0.4285  0.7186  0.3720
  455MOL0     C59971   4.989   4.967   9.109  0.1645 -0.0185  0.3729
  455MOL0    Cl59972   4.998   4.788   9.181  0.0452 -0.3470 -0.2310
  455MOL0     C59973   6.080   5.121   8.984 -0.0361 -0.5661  0.3989
  455MOL0     C59974   6.218   5.129   8.971  0.4286  0.4017 -0.5753
  455MOL0     O59975   6.433   5.324   8.901 -0.0180 -0.2543  0.0170
  455MOL0     C59976   6.709   5.323   8.808 -0.5215  0.3117 -0.0240
  455MOL0     C59977   6.842   5.299   8.772  0.2116  0.2650 -0.3813
  455MOL0     N59978   7.564   5.077   8.725 -0.0027  0.3107 -0.7696
  455MOL0     N59979   7.681   5.121   8.688  0.4205  0.1987 -0.5111
  455MOL0     C59980   8.645   5.320   8.379 -0.6452 -0.5430  0.8207
  455MOL0     C59981   8.735   5.416   8.412  0.0137 -0.3803  1.1404
  455MOL0     C59982   9.175   5.611   8.456  0.3386 -0.1620  0.3662
  455MOL0     C59983   9.296   5.635   8.389 -0.3206 -0.4956  0.2635
  455MOL0     C59984   9.393   5.727   8.435 -0.6737 -0.0838  0.1361
  455MOL0     C59985   9.380   5.800   8.560  0.4767 -0.1789  0.1973
  455MOL0     O59986   9.477   5.879   8.616  0.2385  0.6583  0.1306
  455MOL0     C59987   9.559   5.958   8.523 -0.3306 -0.2535 -0.3702
  455MOL0     C59988   9.686   5.875   8.505  0.0589 -0.1755 -0.0772
  455MOL0     C59989   9.759   5.845   8.637 -0.7096  0.3686  0.0048
  455MOL0     C59990   9.884   5.774   8.582  0.0567 -0.4441 -0.1182
  455MOL0     C59991   9.968   5.705   8.684 -0.0569 -0.6279 -0.2367
  455MOL0     C59992  10.035   5.670   8.781  0.1180  0.3011 -0.9409
  455MOL0     C59993   9.266   5.773   8.631 -0.4706 -0.5709  0.1377
  455MOL0     C59994   9.162   5.684   8.581  0.1209  1.0711  0.0533
  455MOL0     H59995   9.019   5.262   8.455  0.1625  1.1083 -0.5005
  455MOL0     H59996   8.873   5.064   8.388 -1.7151  0.5714  0.8925
  455MOL0     H59997   8.726   4.935   8.448 -1.1983 -2.6484 -0.1784
  455MOL0     H59998   8.559   4.890   8.425 -2.7766  0.7528  1.8148
  455MOL0     H59999   8.657   5.100   8.626 -0.0749 -0.1924  2.2721
  455MOL0     H60000   8.623   4.936   8.670 -2.8947 -0.3804 -0.0789
  455MOL0     H60001   8.403   4.965   8.539  1.6488  0.2518 -1.5037
  455MOL0     H60002   8.418   5.134   8.554 -0.6331 -0.3067  0.4904
  455MOL0     H60003   8.406   4.943   8.803  2.9777  1.1096  1.2538
  455MOL0     H60004   8.388   5.120   8.801 -1.3743  2.4682 -3.7539
  455MOL0     H60005   8.190   4.945   8.653 -0.1355 -0.1015  0.0168
  455MOL0     H60006   8.196   5.118   8.671 -2.9026  0.1610  1.9697
  455MOL0     H60007   8.164   5.081   8.932 -1.5430 -0.6749  0.4237
  455MOL0     H60008   8.171   4.913   8.897  1.3440  1.2125  0.9776
  455MOL0     H60009   7.954   4.914   8.776 -1.5711 -0.3393  0.5316
  455MOL0     H60010   7.936   4.980   8.937 -3.4194  1.2547 -1.2779
  455MOL0     H60011   7.942   5.159   8.699 -1.1627  0.2164 -0.2946
  455MOL0     H60012   7.944   5.210   8.867  1.7521 -1.3915  0.5749
  455MOL0     H60013   7.704   5.102   9.020  1.7717  0.0180  1.0565
  455MOL0     H60014   7.431   5.124   9.038  0.6419  0.1471  0.5542
  455MOL0     H60015   7.500   4.973   9.042 -2.3429 -2.2447 -1.1442
  455MOL0     H60016   7.261   4.941   8.985 -1.8637  0.3437 -0.8811
  455MOL0     H60017   7.351   4.896   8.844 -2.3196  0.3481 -1.6325
  455MOL0     H60018   7.259   5.186   8.885 -3.4895  0.9613 -0.7644
  455MOL0     H60019   7.291   5.111   8.733  1.6347 -1.2606 -0.0015
  455MOL0     H60020   7.056   5.044   8.919 -1.9363  3.7783  1.2569
  455MOL0     H60021   7.088   4.971   8.764 -1.6360  0.7117 -0.3324
  455MOL0     H60022   6.861   4.960   8.816 -0.9192 -0.1448  0.1251
  455MOL0     H60023   6.642   4.986   8.888  1.3414 -0.6300  0.7004
  455MOL0     H60024   6.264   4.994   8.665  1.1095  1.8673 -0.0317
  455MOL0     H60025   6.031   4.964   8.673  0.6493 -1.0091 -0.4579
  455MOL0     H60026   5.821   4.895   8.749 -1.9840 -0.1974 -1.4400
  455MOL0     H60027   5.740   5.049   8.725  2.5576  0.2807 -1.8616
  455MOL0     H60028   5.622   4.995   8.950 -0.1425 -0.0507  0.0447
  455MOL0     H60029   5.667   4.833   8.926 -0.9043 -0.1055  0.9380
  455MOL0     H60030   5.577   4.852   8.692 -1.2211  1.5767 -1.5815
  455MOL0     H60031   5.504   5.015   8.745 -3.6938  0.4314  3.7516
  455MOL0     H60032   5.345   4.808   8.763  0.0802 -0.5160  0.1465
  455MOL0     H60033   5.433   4.774   8.915 -1.5994 -0.5650  0.5705
  455MOL0     H60034   5.321   5.055   8.862  0.1296 -0.7682 -0.9534
  455MOL0     H60035   5.381   4.983   9.013  2.1012  0.5067 -1.5021
  455MOL0     H60036   5.190   4.822   9.007 -1.2205  1.3693  3.3308
  455MOL0     H60037   5.128   4.906   8.862 -0.3631 -1.1898  1.5886
  455MOL0     H60038   5.184   5.011   9.146 -0.0866 -1.1107  0.6410
  455MOL0     H60039   5.118   5.122   9.023  1.7643  0.2035 -1.4697
  455MOL0     H60040   4.912   4.975   9.033  0.4870 -0.8099 -0.0507
  455MOL0     H60041   4.957   5.032   9.191 -0.3951 -1.5111  1.3993
  455MOL0     H60042   6.033   5.169   9.069  1.1955 -0.0332  0.7993
  455MOL0     H60043   6.268   5.179   9.053 -4.5551  4.1161  0.7004
  455MOL0     H60044   6.658   5.418   8.794  2.1370  2.6179  3.9425
  455MOL0     H60045   6.902   5.383   8.738  1.8764  0.9081  3.5584
  455MOL0     H60046   8.540   5.332   8.356 -0.3547  0.7732  0.0851
  455MOL0     H60047   8.701   5.519   8.406  0.3733 -0.3285 -2.7987
  455MOL0     H60048   9.324   5.596   8.292  0.6313  0.2669  0.2185
  455MOL0     H60049   9.480   5.741   8.372  0.1355 -2.2720  0.6768
  455MOL0     H60050   9.593   6.052   8.569 -0.1733 -0.6417  0.3264
  455MOL0     H60051   9.521   5.983   8.424  3.4080  0.6809 -1.7166
  455MOL0     H60052   9.662   5.779   8.460  3.7927 -0.2386 -2.3554
  455MOL0     H60053   9.759   5.915   8.433  2.5395 -0.3032  2.1845
  455MOL0     H60054   9.707   5.771   8.699  0.7408 -2.1213 -1.5797
  455MOL0     H60055   9.769   5.937   8.695  2.8290  1.5390 -2.1303
  455MOL0     H60056   9.847   5.698   8.513 -1.8071 -0.0872  0.4434
  455MOL0     H60057   9.954   5.838   8.527 -0.8840  0.6301 -0.0947
  455MOL0     H60058  10.107   5.640   8.854 -1.0379  1.8669  0.9619
  455MOL0     H60059   9.253   5.823   8.727  2.5763 -0.0075  0.3797
  455MOL0     H60060   9.075   5.663   8.642  1.2849 -2.5407  0.7371
  456MOL0     O60061   7.782   6.338   1.473 -0.3020 -0.6508  0.7039
  456MOL0     C60062   7.839   6.368   1.578  0.1604 -0.6016 -0.4691
  456MOL0     O60063   7.775   6.419   1.690  0.0936 -0.4597 -0.4308
  456MOL0     C60064   7.641   6.408   1.680 -0.2914  0.4649 -0.3301
  456MOL0     C60065   7.571   6.312   1.748  0.0615  0.3114 -0.6568
  456MOL0     C60066   7.432   6.296   1.732  0.2723 -0.4127  0.8502
  456MOL0     C60067   7.356   6.395   1.665 -0.3034  0.7237 -0.0706
  456MOL0     O60068   7.217   6.391   1.667 -0.8863 -0.0053 -0.2936
  456MOL0     C60069   7.141   6.463   1.568  0.8050  0.3632  0.0893
  456MOL0     C60070   6.984   6.451   1.603 -0.4362 -0.3668  0.4471
  456MOL0     C60071   6.961   6.506   1.740 -0.0677 -0.2613  0.2648
  456MOL0     C60072   6.814   6.495   1.785  0.4160  0.2104  0.0555
  456MOL0     C60073   6.788   6.546   1.926  0.3845 -0.8027  0.3051
  456MOL0     C60074   6.646   6.504   1.984 -0.3888 -1.0823 -0.2561
  456MOL0     C60075   6.632   6.570   2.132 -0.5243  0.0152  0.4503
  456MOL0     C60076   6.483   6.584   2.160  0.9588  0.3703 -0.1388
  456MOL0     N60077   6.426   6.468   2.228  0.2853  0.3958 -0.4396
  456MOL0     C60078   6.310   6.474   2.306 -0.0570  0.5930  0.4346
  456MOL0     C60079   6.293   6.348   2.342  0.1468  0.6138 -0.0390
  456MOL0     C60080   6.192   6.301   2.442  0.1917 -1.2437  0.8241
  456MOL0     C60081   6.050   6.296   2.386 -1.1882 -0.3417  0.4611
  456MOL0     C60082   5.953   6.224   2.479  0.1287 -0.3838 -0.0979
  456MOL0     C60083   5.901   6.292   2.613 -0.2136 -0.5159 -0.2896
  456MOL0     O60084   5.811   6.198   2.672 -0.6078  0.8893 -0.0493
  456MOL0     C60085   5.679   6.195   2.644 -0.0887 -0.6286 -0.2271
  456MOL0     C60086   5.616   6.260   2.540  0.8570 -0.3976  0.4920
  456MOL0     C60087   5.477   6.251   2.515 -0.4291 -0.4056  0.6693
  456MOL0     C60088   5.400   6.163   2.591 -0.3557 -0.3035 -0.7468
  456MOL0     C60089   5.262   6.138   2.561 -0.3470 -0.1659 -0.0781
  456MOL0     O60090   5.202   6.033   2.624  0.0081  0.5111  0.3377
  456MOL0     C60091   5.074   6.002   2.592  1.1177 -0.3659  1.0418
  456MOL0     C60092   4.967   6.097   2.585  0.1334 -0.0438 -0.5326
  456MOL0     C60093   4.839   6.056   2.550 -0.5740 -0.4475  0.0369
  456MOL0     C60094   4.815   5.918   2.528  0.7451 -0.4397  0.4631
  456MOL0     O60095   4.702   5.866   2.476  0.1706  0.0873 -0.2020
  456MOL0     C60096   4.580   5.933   2.459 -0.1290 -0.0502 -0.6216
  456MOL0     C60097   4.495   5.848   2.363 -0.3014  0.1377  0.1322
  456MOL0     C60098   4.360   5.907   2.344  0.0597 -0.5731 -0.6315
  456MOL0     C60099   4.342   6.007   2.230  0.3037  0.4679 -0.2309
  456MOL0     C60100   4.203   6.040   2.172 -0.0962 -1.5946 -0.8377
  456MOL0     C60101   4.108   6.092   2.287  0.1674 -0.1916  0.3152
  456MOL0     C60102   3.985   6.168   2.220  0.9587 -0.3363  0.8178
  456MOL0     C60103   3.880   6.209   2.330 -0.2444 -0.2818  0.2577
  456MOL0    Cl60104   3.789   6.066   2.399 -0.0265  0.3150  0.2070
  456MOL0     C60105   4.918   5.829   2.514 -0.4591 -0.0149 -0.3662
  456MOL0     C60106   5.048   5.872   2.553 -0.3715  0.3072 -0.6975
  456MOL0     O60107   5.208   6.223   2.486  0.2908 -0.8024  0.1303
  456MOL0     C60108   5.462   6.095   2.704  0.4611 -1.5044  0.4485
  456MOL0     C60109   5.596   6.119   2.733  1.1518 -0.3073 -0.1732
  456MOL0     N60110   6.398   6.268   2.304  0.2252  0.3218  0.4162
  456MOL0     N60111   6.471   6.342   2.232 -0.0659 -0.8722  0.3478
  456MOL0     C60112   7.426   6.505   1.607 -0.3778  0.7490  0.9846
  456MOL0     C60113   7.570   6.496   1.599  0.7412 -0.0957 -0.4611
  456MOL0     C60114   7.984   6.368   1.586 -0.7882 -0.2544  0.4576
  456MOL0     C60115   8.041   6.417   1.706 -0.7578  0.0563 -0.0904
  456MOL0     C60116   8.177   6.437   1.724 -0.1045 -0.2164  0.7913
  456MOL0     C60117   8.269   6.408   1.616  0.9295  1.0761  0.3751
  456MOL0     O60118   8.401   6.408   1.644 -0.3647 -0.2205  0.2907
  456MOL0     C60119   8.490   6.339   1.557 -0.6632 -0.0605 -0.4803
  456MOL0     C60120   8.608   6.295   1.635 -1.2232  0.8477  0.4525
  456MOL0     C60121   8.732   6.301   1.536 -0.3706 -0.1571 -0.6416
  456MOL0     C60122   8.873   6.267   1.596 -0.5846  0.3079  0.2386
  456MOL0     C60123   8.871   6.138   1.658 -0.2462 -0.1225  0.6913
  456MOL0     C60124   8.859   6.030   1.717 -0.2744  0.8433  0.6546
  456MOL0     C60125   8.209   6.371   1.491 -1.1855 -0.5795 -0.2483
  456MOL0     C60126   8.068   6.350   1.477 -0.0622 -0.9260  1.3412
  456MOL0     H60127   7.625   6.239   1.808  0.5289  1.4226  0.3051
  456MOL0     H60128   7.377   6.211   1.773  1.5038 -1.3494  0.6292
  456MOL0     H60129   7.155   6.408   1.475 -2.0764 -0.5848  0.1172
  456MOL0     H60130   7.168   6.569   1.573  0.7957  0.3072  2.3786
  456MOL0     H60131   6.950   6.347   1.609  2.2863 -1.5375 -1.8654
  456MOL0     H60132   6.926   6.496   1.522  0.7765  1.7030  0.6586
  456MOL0     H60133   6.983   6.613   1.730 -0.7717 -0.2930 -3.0309
  456MOL0     H60134   7.027   6.458   1.813  0.3583 -1.4122 -0.8326
  456MOL0     H60135   6.752   6.543   1.708  0.3715 -1.4731 -1.0325
  456MOL0     H60136   6.793   6.387   1.780  2.2960 -0.1332 -1.3633
  456MOL0     H60137   6.789   6.655   1.916  1.4491 -1.0281 -2.9494
  456MOL0     H60138   6.859   6.502   1.997 -0.7232 -4.0489 -0.4351
  456MOL0     H60139   6.641   6.395   1.996 -2.1066 -1.1838 -1.4833
  456MOL0     H60140   6.578   6.527   1.902  0.1905 -1.3390 -0.8194
  456MOL0     H60141   6.672   6.504   2.209 -1.9761 -0.2174  1.0418
  456MOL0     H60142   6.680   6.668   2.142 -0.2050 -0.1663  0.6965
  456MOL0     H60143   6.417   6.614   2.078 -2.3987  0.4332  2.3774
  456MOL0     H60144   6.468   6.665   2.232  0.7320 -0.1290  0.3844
  456MOL0     H60145   6.254   6.558   2.346  0.6464  1.1148  0.3388
  456MOL0     H60146   6.194   6.352   2.539 -0.8986  0.7352 -0.1389
  456MOL0     H60147   6.224   6.201   2.472  0.7990 -1.1653  0.4440
  456MOL0     H60148   6.054   6.233   2.296  1.6326  1.3890 -0.7701
  456MOL0     H60149   6.003   6.392   2.364 -2.2703 -0.6724  1.2644
  456MOL0     H60150   5.867   6.205   2.414  0.9944 -0.3894 -1.2583
  456MOL0     H60151   6.001   6.130   2.508  1.3910  0.1029 -0.5809
  456MOL0     H60152   5.850   6.384   2.580 -2.4681 -1.7680 -0.5367
  456MOL0     H60153   5.987   6.308   2.678 -1.1781 -1.2620  1.2304
  456MOL0     H60154   5.666   6.324   2.468  0.3913 -0.3778  0.1822
  456MOL0     H60155   5.433   6.294   2.426  0.3439 -0.2681  0.3472
  456MOL0     H60156   4.982   6.201   2.612  0.6584 -0.6083  1.5527
  456MOL0     H60157   4.768   6.136   2.530  0.6838  0.8908  0.6606
  456MOL0     H60158   4.588   6.035   2.420  1.1440 -0.0102 -0.3022
  456MOL0     H60159   4.536   5.940   2.559  0.8331  3.9326 -0.3191
  456MOL0     H60160   4.485   5.750   2.411 -2.6506  0.5858  0.7109
  456MOL0     H60161   4.539   5.818   2.268 -0.1810  0.1779  0.1745
  456MOL0     H60162   4.314   5.941   2.438  1.0327 -1.2239  0.0984
  456MOL0     H60163   4.291   5.832   2.304 -0.3749 -0.0130 -0.9488
  456MOL0     H60164   4.395   6.096   2.267  0.0361 -0.2153  1.9097
  456MOL0     H60165   4.401   5.967   2.147 -0.0960  2.4205 -1.5498
  456MOL0     H60166   4.159   5.960   2.112 -1.3820 -1.3139 -0.3160
  456MOL0     H60167   4.216   6.120   2.098  0.8736 -0.6031  0.3588
  456MOL0     H60168   4.165   6.155   2.356 -0.1059  2.0752 -1.4101
  456MOL0     H60169   4.076   5.998   2.332  1.9843 -1.7710 -1.4777
  456MOL0     H60170   4.019   6.254   2.163  0.2171  1.3708  2.8327
  456MOL0     H60171   3.929   6.100   2.155  0.6435 -0.2084  0.9509
  456MOL0     H60172   3.804   6.279   2.295 -0.5053 -1.1721 -1.0074
  456MOL0     H60173   3.934   6.259   2.411  0.4277 -1.1670  0.3773
  456MOL0     H60174   4.898   5.731   2.472  3.3124 -0.0800 -2.4549
  456MOL0     H60175   5.131   5.803   2.551 -0.7490 -0.1640 -0.3603
  456MOL0     H60176   5.410   6.031   2.774 -0.0009  1.5839  3.2132
  456MOL0     H60177   5.636   6.061   2.815  1.8057  0.4764  0.0643
  456MOL0     H60178   7.363   6.573   1.550 -0.0902 -2.4654 -3.6689
  456MOL0     H60179   7.623   6.569   1.539  0.8846 -1.1224 -1.6212
  456MOL0     H60180   7.980   6.440   1.793 -1.1776  0.1747 -0.4107
  456MOL0     H60181   8.223   6.471   1.816  2.4709 -1.1191 -0.0801
  456MOL0     H60182   8.505   6.405   1.472 -1.0862  1.6959  0.7591
  456MOL0     H60183   8.446   6.246   1.519  0.7206 -0.3645 -1.4604
  456MOL0     H60184   8.630   6.369   1.713 -1.6065  3.4262 -1.7335
  456MOL0     H60185   8.607   6.195   1.679  3.2856  1.3851  2.3794
  456MOL0     H60186   8.745   6.395   1.481  0.0748  0.9403  1.2287
  456MOL0     H60187   8.725   6.228   1.455  0.1896 -0.9043 -0.0204
  456MOL0     H60188   8.939   6.264   1.509 -1.7075  1.2848 -0.6794
  456MOL0     H60189   8.908   6.346   1.662 -1.1843  2.0589 -1.4246
  456MOL0     H60190   8.862   5.933   1.763 -2.5711  0.6756  0.5571
  456MOL0     H60191   8.263   6.340   1.402  0.6668  0.1100  0.5802
  456MOL0     H60192   8.031   6.317   1.381 -2.0413  1.2540  1.2675
  457MOL0     O60193  10.868   4.996  10.625 -0.8218 -0.2483  1.0651
  457MOL0     C60194  10.928   4.966  10.728 -0.5040  0.0507  0.4041
  457MOL0     O60195  10.871   4.922  10.842  0.2778 -0.2287  0.0558
  457MOL0     C60196  10.743   4.882  10.861 -0.1691 -0.6156 -0.8729
  457MOL0     C60197  10.710   4.855  10.993 -0.1860 -0.6338 -0.1489
  457MOL0     C60198  10.578   4.825  11.021  0.3592 -0.2033 -0.2558
  457MOL0     C60199  10.479   4.812  10.921  0.5082 -0.4803  0.9774
  457MOL0     O60200  10.347   4.780  10.954 -0.2992  0.7693 -0.4002
  457MOL0     C60201  10.257   4.767  10.849 -0.3787 -0.6559  0.4808
  457MOL0     C60202  10.113   4.737  10.906 -0.3726 -0.7049  0.0749
  457MOL0     C60203  10.024   4.720  10.787 -0.1199 -0.3618 -0.5253
  457MOL0     C60204   9.888   4.688  10.841 -0.1269  0.2049  0.4241
  457MOL0     C60205   9.798   4.671  10.713  0.1035  1.0095 -0.2027
  457MOL0     C60206   9.654   4.661  10.771 -1.1227  0.0568  0.3772
  457MOL0     C60207   9.556   4.584  10.679 -0.5349  0.4238 -0.3209
  457MOL0     C60208   9.563   4.618  10.534  0.4097 -0.9558 -0.6389
  457MOL0     N60209   9.447   4.557  10.471  1.0937 -0.0508  0.8813
  457MOL0     C60210   9.432   4.427  10.427  0.4672  0.1870 -0.1559
  457MOL0     C60211   9.303   4.407  10.376 -0.2097 -0.0622 -0.5183
  457MOL0     C60212   9.243   4.276  10.321 -0.5958  0.3013 -0.4733
  457MOL0     C60213   9.127   4.307  10.238 -0.1142 -0.4899 -0.2440
  457MOL0     C60214   9.052   4.188  10.181 -0.9327 -0.2652 -0.3470
  457MOL0     C60215   8.942   4.128  10.289  1.3913 -0.1227  0.3103
  457MOL0     O60216   8.875   4.014  10.235  0.0404  0.2238  0.2707
  457MOL0     C60217   8.750   3.975  10.282 -0.6904 -0.3375  0.4389
  457MOL0     C60218   8.689   3.868  10.217  0.2111 -0.6490 -0.6650
  457MOL0     C60219   8.566   3.811  10.271  0.1232  0.2206  0.4926
  457MOL0     C60220   8.498   3.870  10.372 -0.3457  0.0666  0.5818
  457MOL0     C60221   8.375   3.814  10.425 -0.5095  0.9583  0.3358
  457MOL0     O60222   8.303   3.890  10.517  0.8258 -0.5585 -0.6762
  457MOL0     C60223   8.182   3.830  10.572 -0.1691 -0.0742  0.1401
  457MOL0     C60224   8.069   3.845  10.497  0.3125  0.1114 -0.1900
  457MOL0     C60225   7.960   3.764  10.528 -1.0001  0.3235  0.3385
  457MOL0     C60226   7.963   3.676  10.636 -0.4798 -0.2013  0.7909
  457MOL0     O60227   7.857   3.599  10.664  1.1692 -0.0888  0.5764
  457MOL0     C60228   7.824   3.583  10.807  1.6107  0.7529 -0.0006
  457MOL0     C60229   7.683   3.540  10.815  0.5355 -0.5899 -1.2950
  457MOL0     C60230   7.634   3.516  10.963  0.1705  0.4905 -0.2493
  457MOL0     C60231   7.545   3.642  11.005  0.2955 -0.5834  0.4997
  457MOL0     C60232   7.550   3.698  11.153 -1.0195 -0.6600  0.4735
  457MOL0     C60233   7.687   3.739  11.211 -0.3732  0.1938  0.1893
  457MOL0     C60234   7.666   3.763  11.354 -0.9185 -0.0798 -0.2099
  457MOL0     C60235   7.790   3.803  11.431  0.1741  0.3536 -0.1148
  457MOL0    Cl60236   7.732   3.858  11.595 -0.3420 -0.2202 -0.0894
  457MOL0     C60237   8.077   3.680  10.725  0.1823  0.1204  0.0524
  457MOL0     C60238   8.191   3.759  10.682 -0.0550  0.1265 -0.4906
  457MOL0     O60239   8.340   3.709  10.379  0.2134 -0.0199  0.3496
  457MOL0     C60240   8.550   3.987  10.425 -0.2494 -0.0290 -0.2460
  457MOL0     C60241   8.676   4.036  10.387 -0.1403 -0.3089 -0.4177
  457MOL0     N60242   9.242   4.529  10.393 -0.0147  0.5532 -0.0602
  457MOL0     N60243   9.327   4.618  10.434 -0.4286 -0.6634  1.2054
  457MOL0     C60244  10.518   4.830  10.788 -0.0783 -0.4087 -0.8189
  457MOL0     C60245  10.650   4.860  10.763 -0.7579 -0.2661 -0.3006
  457MOL0     C60246  11.067   5.002  10.731 -0.2762 -0.1618  0.3632
  457MOL0     C60247  11.128   5.107  10.648 -0.2166 -0.0643  0.6319
  457MOL0     C60248  11.267   5.134  10.660 -0.1845  0.6206  0.8627
  457MOL0     C60249  11.354   5.067  10.739  0.1800  0.4349 -0.2702
  457MOL0     O60250  11.483   5.114  10.737  0.2022  0.4088  0.1326
  457MOL0     C60251  11.581   5.047  10.817 -0.1966 -0.6663 -0.2069
  457MOL0     C60252  11.723   5.101  10.793  0.8703 -0.4691  0.4276
  457MOL0     C60253  11.753   5.126  10.644 -0.0089 -0.7857 -0.4230
  457MOL0     C60254  11.716   5.270  10.609 -0.2307  0.5321  0.3223
  457MOL0     C60255  11.821   5.365  10.641  0.5935 -0.1495 -0.1586
  457MOL0     C60256  11.891   5.452  10.696  0.6999  0.5485  0.1195
  457MOL0     C60257  11.302   4.955  10.808  0.1551  0.4870  0.0690
  457MOL0     C60258  11.157   4.929  10.817  0.2530  0.7829  0.7423
  457MOL0     H60259  10.779   4.864  11.076  0.5679 -2.3686 -0.5474
  457MOL0     H60260  10.552   4.812  11.125 -1.4531 -2.4354 -0.9175
  457MOL0     H60261  10.288   4.687  10.782 -2.1890 -0.3158 -0.8389
  457MOL0     H60262  10.257   4.860  10.791  0.5659  0.7195  2.5583
  457MOL0     H60263  10.087   4.816  10.977 -0.2986 -0.2863 -0.3561
  457MOL0     H60264  10.116   4.641  10.958  0.6117 -0.7983 -0.1311
  457MOL0     H60265  10.062   4.633  10.733 -1.0715 -2.4849  2.0112
  457MOL0     H60266  10.020   4.814  10.732 -0.2372 -0.1002 -0.0717
  457MOL0     H60267   9.893   4.599  10.904  2.3121 -1.2842 -1.6789
  457MOL0     H60268   9.859   4.775  10.901  2.1464  1.6806 -0.4938
  457MOL0     H60269   9.826   4.576  10.667  0.5661 -0.4006  2.7339
  457MOL0     H60270   9.794   4.741  10.629 -0.8606 -1.4657 -2.3553
  457MOL0     H60271   9.625   4.767  10.780  0.5270  0.4997  0.7703
  457MOL0     H60272   9.648   4.623  10.873  1.2380 -2.3618 -0.2611
  457MOL0     H60273   9.580   4.478  10.689  1.1416  0.7625 -0.3710
  457MOL0     H60274   9.460   4.615  10.720 -1.0343  0.0810 -1.1992
  457MOL0     H60275   9.652   4.582  10.482  0.8038 -0.2209 -0.4900
  457MOL0     H60276   9.571   4.727  10.527  3.9774 -0.8735  2.0143
  457MOL0     H60277   9.507   4.349  10.419 -0.6730 -0.7783 -2.1561
  457MOL0     H60278   9.216   4.212  10.406  2.7193 -1.2191 -0.3984
  457MOL0     H60279   9.319   4.219  10.265 -0.7588  1.1138 -1.5488
  457MOL0     H60280   9.173   4.364  10.157 -0.9889  2.9376  1.5026
  457MOL0     H60281   9.060   4.376  10.289  1.6326  1.5675 -0.5858
  457MOL0     H60282   8.996   4.213  10.091  0.2610 -0.1119 -1.0665
  457MOL0     H60283   9.119   4.105  10.157  1.7642  0.9382  2.4353
  457MOL0     H60284   8.883   4.217  10.316  1.1389 -0.0318 -0.5081
  457MOL0     H60285   8.987   4.103  10.385 -2.0658  0.4860  2.2647
  457MOL0     H60286   8.743   3.823  10.134  1.3176 -0.1681 -0.2390
  457MOL0     H60287   8.528   3.718  10.229  0.3238  0.4989 -0.3187
  457MOL0     H60288   8.077   3.917  10.417 -0.3787  0.9013  0.4398
  457MOL0     H60289   7.873   3.772  10.465 -1.9381  1.0951  1.6765
  457MOL0     H60290   7.819   3.681  10.856 -1.3110  0.6271  0.1356
  457MOL0     H60291   7.888   3.508  10.854 -0.8669  0.6753  3.7120
  457MOL0     H60292   7.666   3.442  10.770  1.1167 -0.8119 -1.0498
  457MOL0     H60293   7.614   3.603  10.758  0.5850 -0.0898 -0.8114
  457MOL0     H60294   7.725   3.512  11.023 -0.7313  0.5299  1.1567
  457MOL0     H60295   7.573   3.425  10.964 -4.6749  3.3471 -0.9470
  457MOL0     H60296   7.573   3.726  10.941  2.3359 -0.7011  1.1896
  457MOL0     H60297   7.442   3.616  10.977  0.6922 -2.1771  0.4145
  457MOL0     H60298   7.497   3.622  11.211 -0.2344 -1.0599  0.6848
  457MOL0     H60299   7.484   3.784  11.166  1.4720  1.1159  2.4058
  457MOL0     H60300   7.723   3.828  11.159  0.5179 -0.9793 -1.3227
  457MOL0     H60301   7.763   3.661  11.203 -0.6247 -0.1404  0.9607
  457MOL0     H60302   7.591   3.843  11.358 -0.5482  0.3957 -1.8910
  457MOL0     H60303   7.620   3.679  11.407  1.6662 -1.4861 -0.0367
  457MOL0     H60304   7.837   3.884  11.376 -1.2336 -0.6865 -3.0863
  457MOL0     H60305   7.853   3.714  11.434 -1.2218 -0.6635  0.1553
  457MOL0     H60306   8.088   3.624  10.817  1.5979 -1.6440 -1.1292
  457MOL0     H60307   8.284   3.741  10.736 -0.3610  1.2082  0.4481
  457MOL0     H60308   8.504   4.034  10.512  0.9031  0.5395  0.0787
  457MOL0     H60309   8.722   4.113  10.447  1.7997 -2.4575  1.0576
  457MOL0     H60310  10.450   4.833  10.704 -1.5329 -1.8484  0.2656
  457MOL0     H60311  10.678   4.879  10.659 -1.0044  1.9492 -0.0170
  457MOL0     H60312  11.073   5.172  10.581  2.3263 -0.3384 -1.9356
  457MOL0     H60313  11.297   5.226  10.610 -2.9092  1.4824  0.6746
  457MOL0     H60314  11.589   4.940  10.797  1.6293 -0.2818 -1.9439
  457MOL0     H60315  11.554   5.047  10.923  0.4579  1.2212 -0.0082
  457MOL0     H60316  11.740   5.195  10.846 -0.6936  0.4566 -0.6194
  457MOL0     H60317  11.796   5.030  10.832 -0.6009 -1.6348  1.1655
  457MOL0     H60318  11.695   5.056  10.584 -0.4890 -0.5872 -0.2021
  457MOL0     H60319  11.860   5.114  10.629 -0.0264 -0.7393 -0.5870
  457MOL0     H60320  11.699   5.280  10.501 -2.7222  1.3737  0.7368
  457MOL0     H60321  11.616   5.294  10.646 -0.2082  0.8167  0.2036
  457MOL0     H60322  11.964   5.519  10.734  0.6546  0.8352 -0.2931
  457MOL0     H60323  11.365   4.903  10.880 -0.3261  1.3425  1.1392
  457MOL0     H60324  11.114   4.862  10.891 -0.3937 -2.6554 -2.4621
  458MOL0     O60325  11.220   0.854   1.297 -0.1161  0.3162 -0.3244
  458MOL0     C60326  11.254   0.934   1.214 -0.5000 -0.4163 -0.4076
  458MOL0     O60327  11.181   1.000   1.118 -0.3485  0.1543 -0.4912
  458MOL0     C60328  11.053   0.952   1.086  0.8067 -1.0690 -0.4391
  458MOL0     C60329  11.025   0.941   0.949  0.6510  0.6555 -1.2036
  458MOL0     C60330  10.897   0.908   0.916  0.7553 -1.4539  0.3443
  458MOL0     C60331  10.796   0.894   1.006  0.1545 -0.4680 -0.8881
  458MOL0     O60332  10.672   0.871   0.955  0.1766 -0.0325 -0.2498
  458MOL0     C60333  10.633   0.975   0.861  0.0528 -0.8650 -0.1659
  458MOL0     C60334  10.479   0.970   0.860  0.2017  0.4636  0.2137
  458MOL0     C60335  10.443   1.109   0.787  0.4460  0.0024 -0.5425
  458MOL0     C60336  10.293   1.125   0.729 -0.1338  0.5565  0.4972
  458MOL0     C60337  10.215   1.241   0.796 -0.4258 -0.0793  0.3807
  458MOL0     C60338  10.099   1.272   0.706 -0.6449  0.2547 -1.1212
  458MOL0     C60339  10.032   1.399   0.766 -0.5414 -0.0519  0.0927
  458MOL0     C60340   9.962   1.488   0.660 -0.1720 -0.0873 -0.4490
  458MOL0     N60341   9.829   1.423   0.633 -0.0286 -0.5755  0.0593
  458MOL0     C60342   9.715   1.433   0.700  1.4075  0.3627  0.3313
  458MOL0     C60343   9.630   1.339   0.653 -0.9771  0.1348 -0.8669
  458MOL0     C60344   9.490   1.332   0.705  0.1572  0.0824  0.4425
  458MOL0     C60345   9.395   1.324   0.593  0.3053 -0.1255 -0.7667
  458MOL0     C60346   9.254   1.297   0.645 -0.3706 -0.1272  0.1756
  458MOL0     C60347   9.190   1.420   0.704  0.1816  0.5835  0.0359
  458MOL0     O60348   9.042   1.408   0.683  0.3171 -0.0381 -0.4542
  458MOL0     C60349   8.965   1.498   0.753  0.0741 -0.2166  0.0207
  458MOL0     C60350   8.828   1.488   0.727  0.1602  0.4877 -0.3134
  458MOL0     C60351   8.739   1.562   0.802 -0.4003 -0.7768  1.2434
  458MOL0     C60352   8.784   1.658   0.893  0.0293 -0.4945  0.3830
  458MOL0     C60353   8.689   1.743   0.965 -0.1935  0.0824  0.2762
  458MOL0     O60354   8.557   1.731   0.924  0.0813  0.4980  0.0913
  458MOL0     C60355   8.449   1.793   0.971 -0.2080  0.0183 -0.9219
  458MOL0     C60356   8.423   1.838   1.105  0.0205  0.0942 -0.2161
  458MOL0     C60357   8.299   1.890   1.141  0.0136  0.2103 -0.0075
  458MOL0     C60358   8.193   1.882   1.053 -0.3165 -0.2358  0.3081
  458MOL0     O60359   8.079   1.946   1.093 -0.4059  0.0119  0.4721
  458MOL0     C60360   7.960   1.931   1.011  0.3557 -0.2191  0.1725
  458MOL0     C60361   7.845   1.956   1.103 -0.5495  0.1064 -0.1150
  458MOL0     C60362   7.773   2.084   1.054  0.0454 -0.2152  0.1383
  458MOL0     C60363   7.648   2.125   1.140 -0.3048  0.5651  0.6351
  458MOL0     C60364   7.540   2.017   1.138  0.5903 -0.6925 -0.1783
  458MOL0     C60365   7.402   2.088   1.151  0.4033  0.0393 -0.4457
  458MOL0     C60366   7.286   1.984   1.150 -0.0102  0.8275 -0.4086
  458MOL0     C60367   7.149   2.048   1.151 -1.0039 -0.1477  0.3218
  458MOL0    Cl60368   7.118   2.127   0.991 -0.4453 -0.0583  0.2439
  458MOL0     C60369   8.213   1.816   0.933 -0.8917 -0.2408  0.7370
  458MOL0     C60370   8.338   1.782   0.893  0.4159  0.9825  0.5464
  458MOL0     O60371   8.730   1.830   1.044  0.3979 -0.2178 -0.0783
  458MOL0     C60372   8.923   1.665   0.915 -0.2918 -0.2974  0.5598
  458MOL0     C60373   9.020   1.586   0.856 -0.1984  0.5554  0.3725
  458MOL0     N60374   9.706   1.264   0.568 -0.6848  0.0968 -0.6437
  458MOL0     N60375   9.819   1.328   0.542  0.9858  0.3470 -0.3109
  458MOL0     C60376  10.827   0.892   1.136  0.4754  0.4851  0.3872
  458MOL0     C60377  10.954   0.921   1.181 -0.4294 -0.9288 -0.0552
  458MOL0     C60378  11.400   0.966   1.225 -0.3280 -1.0749  0.4359
  458MOL0     C60379  11.461   1.051   1.132  0.4550  0.3213  0.4059
  458MOL0     C60380  11.602   1.068   1.128  0.3476  0.8993 -0.0141
  458MOL0     C60381  11.677   1.013   1.225 -0.0706  0.6288 -0.0054
  458MOL0     O60382  11.812   1.052   1.217  0.3130 -0.6329  0.6261
  458MOL0     C60383  11.882   1.036   1.335 -0.4678 -0.0408 -0.5829
  458MOL0     C60384  12.018   1.105   1.336 -0.3784 -0.2042 -0.5932
  458MOL0     C60385  12.107   1.040   1.226  1.0475  0.5729 -0.5710
  458MOL0     C60386  12.118   1.142   1.108 -0.4577 -0.0636 -0.5464
  458MOL0     C60387  12.225   1.090   1.014  0.6161 -0.6674 -0.2372
  458MOL0     C60388  12.310   1.047   0.935  0.5488  0.2180  0.1589
  458MOL0     C60389  11.615   0.931   1.325  0.4752 -0.4632 -0.5554
  458MOL0     C60390  11.480   0.915   1.330  0.0798  0.6807 -0.4979
  458MOL0     H60391  11.104   0.967   0.878 -1.0126 -1.4418 -4.0194
  458MOL0     H60392  10.885   0.905   0.808 -2.8686  1.1214  0.4667
  458MOL0     H60393  10.676   0.958   0.762 -0.0782 -0.2342 -0.3364
  458MOL0     H60394  10.655   1.073   0.905 -2.3337 -0.3840  0.1184
  458MOL0     H60395  10.429   0.966   0.957  2.0138 -2.2191  1.1864
  458MOL0     H60396  10.435   0.886   0.807 -1.0761  1.5854 -0.5498
  458MOL0     H60397  10.513   1.139   0.709  2.8111 -2.8928  0.3002
  458MOL0     H60398  10.471   1.183   0.861 -2.9391  1.6291 -0.6902
  458MOL0     H60399  10.303   1.147   0.622 -1.7113 -2.0425 -0.2760
  458MOL0     H60400  10.235   1.032   0.737 -0.1513  0.4188 -0.9046
  458MOL0     H60401  10.283   1.326   0.801  1.9967 -1.9702  1.3084
  458MOL0     H60402  10.180   1.212   0.896 -0.3560  1.1357  0.7779
  458MOL0     H60403  10.026   1.190   0.698 -2.6468  1.8716 -0.3490
  458MOL0     H60404  10.143   1.295   0.608  3.0368  1.7097  0.6836
  458MOL0     H60405   9.951   1.371   0.834 -2.0013  1.8359 -0.7949
  458MOL0     H60406  10.103   1.466   0.816 -0.5324  0.8200 -1.0473
  458MOL0     H60407  10.018   1.485   0.566  0.3311 -4.4027 -0.2233
  458MOL0     H60408   9.954   1.592   0.692  4.0339  0.2255  0.1903
  458MOL0     H60409   9.686   1.518   0.761 -0.9879 -0.3117  0.2314
  458MOL0     H60410   9.470   1.424   0.762 -1.3281  0.4723 -0.6339
  458MOL0     H60411   9.489   1.247   0.774  2.5355 -0.2554  0.1251
  458MOL0     H60412   9.412   1.238   0.528 -1.5466 -1.0444 -0.1047
  458MOL0     H60413   9.396   1.417   0.536  0.2068  1.0153  1.0160
  458MOL0     H60414   9.186   1.265   0.565  0.0492 -1.2559  0.2443
  458MOL0     H60415   9.260   1.215   0.718 -2.7637  2.2012  3.2090
  458MOL0     H60416   9.228   1.505   0.647  3.5559 -0.5720  0.3436
  458MOL0     H60417   9.228   1.432   0.806  1.1025 -0.9974 -0.0753
  458MOL0     H60418   8.793   1.418   0.652  2.2056 -1.8297  0.7662
  458MOL0     H60419   8.633   1.560   0.776 -0.0163 -1.8790 -0.4384
  458MOL0     H60420   8.506   1.831   1.174 -0.8699 -4.9146  0.7133
  458MOL0     H60421   8.274   1.937   1.236 -2.3545 -0.3781 -0.2762
  458MOL0     H60422   7.958   1.832   0.966 -1.9992  0.2526 -0.8858
  458MOL0     H60423   7.959   1.998   0.925 -0.6417 -1.5486 -0.8754
  458MOL0     H60424   7.875   1.978   1.206 -1.5418  2.7345 -0.3199
  458MOL0     H60425   7.771   1.876   1.096 -1.9537  1.4747 -1.4787
  458MOL0     H60426   7.729   2.072   0.955 -0.4646 -0.5810  0.4058
  458MOL0     H60427   7.849   2.163   1.055  0.2079 -0.3670 -0.1736
  458MOL0     H60428   7.688   2.131   1.241 -0.1531  0.9571  0.5549
  458MOL0     H60429   7.604   2.217   1.100 -2.6515  0.5088  2.8677
  458MOL0     H60430   7.561   1.953   1.224  1.8909  0.5737  0.4670
  458MOL0     H60431   7.536   1.952   1.049 -1.3429 -4.7865  2.5820
  458MOL0     H60432   7.394   2.159   1.067  0.3476  0.3765 -0.1566
  458MOL0     H60433   7.402   2.140   1.247  1.1896  1.9229 -1.3981
  458MOL0     H60434   7.293   1.927   1.057  3.9727  1.7276 -0.8598
  458MOL0     H60435   7.285   1.913   1.234  0.0534 -0.5324 -1.5076
  458MOL0     H60436   7.144   2.122   1.230  1.2075 -0.4858  0.8435
  458MOL0     H60437   7.074   1.969   1.166  1.0914 -2.8335 -2.0940
  458MOL0     H60438   8.137   1.791   0.860  1.1727  1.1343 -2.0169
  458MOL0     H60439   8.340   1.745   0.791  1.5528 -0.3650  1.0331
  458MOL0     H60440   8.951   1.735   0.993  3.2323 -1.9806  1.0128
  458MOL0     H60441   9.122   1.600   0.890 -0.5092  0.8023  1.2396
  458MOL0     H60442  10.741   0.865   1.197 -0.0003 -2.9424 -1.5491
  458MOL0     H60443  10.967   0.937   1.287 -0.7761 -0.4696 -0.0757
  458MOL0     H60444  11.410   1.104   1.053 -1.1046  1.4376  2.0670
  458MOL0     H60445  11.645   1.139   1.057  0.8604  0.6557  0.0514
  458MOL0     H60446  11.894   0.930   1.358  0.0084  0.1314 -0.0027
  458MOL0     H60447  11.827   1.088   1.414 -0.8112  0.6251 -1.2432
  458MOL0     H60448  12.003   1.210   1.309 -2.6846 -0.3411 -0.0892
  458MOL0     H60449  12.067   1.098   1.433 -0.3494  0.9971 -0.5050
  458MOL0     H60450  12.063   0.946   1.192  0.2628  1.0671 -0.9634
  458MOL0     H60451  12.201   1.011   1.273  0.0785 -2.2688 -0.1898
  458MOL0     H60452  12.023   1.136   1.054 -1.4869 -1.1075  1.3101
  458MOL0     H60453  12.129   1.247   1.135 -3.2473  0.6273 -1.7125
  458MOL0     H60454  12.387   1.013   0.868  2.0608 -2.7025  3.0652
  458MOL0     H60455  11.657   0.869   1.403  1.4010 -1.8330 -2.0733
  458MOL0     H60456  11.432   0.853   1.404 -0.6913  2.6349  0.7197
  459MOL0     O60457   3.765   3.244   5.043 -0.1232 -0.1293  0.3958
  459MOL0     C60458   3.745   3.235   4.922 -0.0588 -0.7790 -0.3144
  459MOL0     O60459   3.838   3.253   4.821  0.9423 -0.3532  0.0771
  459MOL0     C60460   3.966   3.264   4.861  0.1885  0.2440 -0.5877
  459MOL0     C60461   4.008   3.377   4.929 -0.4169  0.0920  0.6102
  459MOL0     C60462   4.141   3.393   4.968 -0.0910  0.3882  1.3543
  459MOL0     C60463   4.238   3.293   4.947 -0.7249 -0.1797  0.3320
  459MOL0     O60464   4.364   3.330   4.998 -0.3494  0.4638 -0.1555
  459MOL0     C60465   4.479   3.245   4.997 -0.6792  0.6297 -0.0444
  459MOL0     C60466   4.588   3.293   5.087 -0.3162 -0.0862 -0.9024
  459MOL0     C60467   4.637   3.431   5.055  0.2563  0.2094 -0.6233
  459MOL0     C60468   4.760   3.464   5.145  1.2903 -0.4601  0.0899
  459MOL0     C60469   4.898   3.459   5.087 -0.3058  1.0428 -0.2946
  459MOL0     C60470   5.013   3.536   5.151  0.0979  0.4437  0.4378
  459MOL0     C60471   5.000   3.679   5.144 -0.1539  1.1078  0.5091
  459MOL0     C60472   5.127   3.749   5.171  0.3365  0.7594  0.4199
  459MOL0     N60473   5.204   3.773   5.043 -0.2729 -0.0116 -0.2689
  459MOL0     C60474   5.297   3.689   4.993 -0.0124 -0.4787  0.3303
  459MOL0     C60475   5.347   3.760   4.886  0.2357 -0.0534  0.4742
  459MOL0     C60476   5.463   3.722   4.789  0.2606 -0.4436  0.0992
  459MOL0     C60477   5.452   3.582   4.733 -0.4837  0.2054 -0.1072
  459MOL0     C60478   5.317   3.553   4.662 -0.2073 -0.2854 -0.2688
  459MOL0     C60479   5.291   3.639   4.547  0.2040  0.9451  0.3071
  459MOL0     O60480   5.174   3.592   4.484  0.2164  0.3133 -0.3117
  459MOL0     C60481   5.051   3.626   4.549  0.0209 -0.3633 -0.4624
  459MOL0     C60482   4.933   3.595   4.476 -0.2216 -1.0686  0.1557
  459MOL0     C60483   4.807   3.629   4.514  0.8711 -0.0619  0.1113
  459MOL0     C60484   4.786   3.690   4.641 -0.3130  0.3169 -0.7042
  459MOL0     C60485   4.651   3.716   4.689  0.0014 -0.0850  0.5420
  459MOL0     O60486   4.552   3.693   4.594 -0.2473  0.2627  0.0108
  459MOL0     C60487   4.422   3.714   4.636  0.0932 -0.5918 -0.1575
  459MOL0     C60488   4.353   3.811   4.573 -0.2443  0.9967  0.2279
  459MOL0     C60489   4.219   3.836   4.594 -0.1586  0.0524  0.5455
  459MOL0     C60490   4.145   3.763   4.681 -0.7054  0.0651 -0.4494
  459MOL0     O60491   4.017   3.807   4.698 -0.6917  0.1632  0.4750
  459MOL0     C60492   3.928   3.702   4.749 -0.4878 -0.3092  0.0964
  459MOL0     C60493   3.782   3.747   4.714  0.2707  0.3557 -0.4398
  459MOL0     C60494   3.681   3.636   4.708  0.3215  0.6658  0.0874
  459MOL0     C60495   3.548   3.680   4.761 -0.1597 -0.5125  0.6784
  459MOL0     C60496   3.440   3.578   4.733 -0.5941  0.3165  0.6236
  459MOL0     C60497   3.308   3.606   4.799 -0.5782 -0.0765 -1.0193
  459MOL0     C60498   3.328   3.625   4.949 -0.5971  0.4807  0.1974
  459MOL0     C60499   3.197   3.620   5.031 -0.0707 -0.2314  0.1661
  459MOL0    Cl60500   3.065   3.715   4.966 -0.5046  0.3517  0.4289
  459MOL0     C60501   4.211   3.653   4.745  0.2273  0.1964 -0.3181
  459MOL0     C60502   4.345   3.625   4.726 -0.7788  0.0936 -0.6076
  459MOL0     O60503   4.639   3.739   4.809 -0.2338 -0.3887  0.4514
  459MOL0     C60504   4.903   3.709   4.721 -0.8640 -0.1861  0.0026
  459MOL0     C60505   5.029   3.691   4.670 -0.3536 -0.1626 -0.0920
  459MOL0     N60506   5.285   3.883   4.879  0.0948 -0.7539  0.9104
  459MOL0     N60507   5.210   3.893   4.979 -0.1913 -0.1108 -0.5055
  459MOL0     C60508   4.200   3.173   4.881  0.0060 -0.2721 -0.0810
  459MOL0     C60509   4.061   3.162   4.838 -0.7121 -0.3138 -0.3676
  459MOL0     C60510   3.603   3.216   4.883  0.3995  0.0069  0.2424
  459MOL0     C60511   3.562   3.175   4.756 -0.6437  0.2026  0.1913
  459MOL0     C60512   3.423   3.179   4.729 -0.3658 -0.0685  1.0350
  459MOL0     C60513   3.328   3.231   4.820 -0.1847 -0.2881  0.7260
  459MOL0     O60514   3.198   3.228   4.779  0.0357  0.1308  0.0073
  459MOL0     C60515   3.104   3.196   4.886 -0.3449  0.1812 -0.0298
  459MOL0     C60516   2.967   3.183   4.827  0.5600  0.5181 -0.1960
  459MOL0     C60517   2.915   3.322   4.763  0.0822 -0.8227  0.2962
  459MOL0     C60518   2.797   3.290   4.667  0.2066 -0.0641  0.4651
  459MOL0     C60519   2.691   3.215   4.738  0.3267 -0.2234  0.0586
  459MOL0     C60520   2.595   3.163   4.793 -0.3857 -0.6394  0.4560
  459MOL0     C60521   3.379   3.270   4.948  0.0520  0.5576  0.5640
  459MOL0     C60522   3.515   3.268   4.984  0.4220  0.1060 -0.0372
  459MOL0     H60523   3.933   3.452   4.953 -0.4951  0.4191 -0.5990
  459MOL0     H60524   4.171   3.480   5.027 -0.3370  0.4367  1.4108
  459MOL0     H60525   4.528   3.232   4.900  0.2017  1.0182  0.3292
  459MOL0     H60526   4.449   3.149   5.039  1.4316 -0.2275 -0.3602
  459MOL0     H60527   4.669   3.219   5.076  2.3581  2.4641  0.2230
  459MOL0     H60528   4.547   3.298   5.188 -1.4528 -1.3197 -1.2741
  459MOL0     H60529   4.556   3.499   5.085  2.5685  1.8558  2.3828
  459MOL0     H60530   4.654   3.454   4.949  2.4631  1.6060 -0.0296
  459MOL0     H60531   4.739   3.568   5.175  1.0900  1.0847 -4.5991
  459MOL0     H60532   4.765   3.406   5.238  0.3421 -2.0350 -0.8080
  459MOL0     H60533   4.884   3.496   4.985 -0.9676  1.8458  0.0793
  459MOL0     H60534   4.924   3.353   5.086 -2.3703  0.4793 -0.0721
  459MOL0     H60535   5.103   3.516   5.093 -0.3894  0.3830 -0.3047
  459MOL0     H60536   5.040   3.499   5.251  1.3124 -1.2571 -0.4651
  459MOL0     H60537   4.959   3.701   5.045  0.6195 -2.5170 -0.7743
  459MOL0     H60538   4.933   3.716   5.222  0.8218  2.9805  0.4930
  459MOL0     H60539   5.178   3.681   5.239 -2.3367 -1.9145 -0.0263
  459MOL0     H60540   5.103   3.846   5.215 -1.3263 -0.1919  1.7510
  459MOL0     H60541   5.323   3.586   5.015 -0.0354 -0.2129  1.7206
  459MOL0     H60542   5.561   3.742   4.833 -0.1925  1.7059  0.2575
  459MOL0     H60543   5.465   3.785   4.700 -1.5739 -2.3705 -1.4252
  459MOL0     H60544   5.454   3.504   4.810 -2.8758 -0.0597 -0.2248
  459MOL0     H60545   5.535   3.568   4.664 -0.0871  1.1086  0.1691
  459MOL0     H60546   5.324   3.454   4.614  0.2807  0.7318 -2.4259
  459MOL0     H60547   5.235   3.548   4.734  0.2450  0.5862  0.3131
  459MOL0     H60548   5.372   3.622   4.475 -0.2752  1.3569 -0.3407
  459MOL0     H60549   5.287   3.745   4.574  3.8377  1.7817 -1.7572
  459MOL0     H60550   4.939   3.544   4.381 -0.2137  1.6691 -1.4113
  459MOL0     H60551   4.732   3.608   4.438  0.6498  1.0273  0.0131
  459MOL0     H60552   4.410   3.867   4.499 -0.0091 -0.4707 -0.7478
  459MOL0     H60553   4.184   3.920   4.535 -1.0603 -0.6600  0.0404
  459MOL0     H60554   3.952   3.685   4.854  1.4468  1.6500  0.0398
  459MOL0     H60555   3.944   3.607   4.696 -0.5681 -0.2520 -0.0311
  459MOL0     H60556   3.760   3.814   4.630 -0.9231  3.8242  2.3593
  459MOL0     H60557   3.759   3.815   4.797 -2.1280 -1.1753  0.2573
  459MOL0     H60558   3.709   3.543   4.758 -0.3873 -0.1027 -0.8988
  459MOL0     H60559   3.672   3.613   4.601 -0.7374 -2.2558  0.6923
  459MOL0     H60560   3.567   3.684   4.869 -0.7973 -0.2970  0.7907
  459MOL0     H60561   3.516   3.775   4.716  1.6322 -1.2688 -2.4625
  459MOL0     H60562   3.473   3.487   4.783 -1.9014  0.4282  1.7214
  459MOL0     H60563   3.428   3.560   4.626  0.9670  1.0838  0.2863
  459MOL0     H60564   3.244   3.523   4.770  1.8191 -1.9615 -1.2113
  459MOL0     H60565   3.263   3.697   4.757  0.3505  0.5906 -0.6067
  459MOL0     H60566   3.408   3.566   4.993 -2.4212  0.5576  3.9695
  459MOL0     H60567   3.364   3.728   4.955  1.6356 -0.2562  0.1888
  459MOL0     H60568   3.211   3.663   5.131  2.1942  0.5862 -0.4363
  459MOL0     H60569   3.167   3.515   5.031  1.5621 -0.7521 -2.0117
  459MOL0     H60570   4.155   3.583   4.806 -0.8179  0.9484 -0.3641
  459MOL0     H60571   4.397   3.543   4.775 -2.2694 -1.4809 -1.5222
  459MOL0     H60572   4.894   3.758   4.817  0.0616 -0.2199  0.1184
  459MOL0     H60573   5.100   3.717   4.748 -1.5924  0.1071  0.9727
  459MOL0     H60574   4.283   3.104   4.869  0.9536  0.9369 -0.7134
  459MOL0     H60575   4.034   3.068   4.792  0.4883  0.1542 -2.1588
  459MOL0     H60576   3.643   3.145   4.690  0.3304 -1.5220  2.0640
  459MOL0     H60577   3.399   3.140   4.631  0.3685 -0.8956  1.1697
  459MOL0     H60578   3.108   3.266   4.970  1.5041 -0.7183  0.7028
  459MOL0     H60579   3.121   3.100   4.936 -0.2569 -0.5909 -1.4705
  459MOL0     H60580   2.962   3.103   4.752 -0.2529  0.1919  0.1948
  459MOL0     H60581   2.896   3.155   4.905  1.3573 -2.2011 -0.3435
  459MOL0     H60582   2.994   3.373   4.707 -0.4902 -0.2757 -0.0270
  459MOL0     H60583   2.886   3.395   4.839  1.7837  1.7005 -1.3263
  459MOL0     H60584   2.749   3.381   4.630 -3.0986 -1.1095  1.8007
  459MOL0     H60585   2.842   3.239   4.581  0.8369  0.0534  0.7194
  459MOL0     H60586   2.514   3.139   4.860  0.0502  2.0059  2.0566
  459MOL0     H60587   3.311   3.313   5.021  1.3316  4.0737 -0.1144
  459MOL0     H60588   3.543   3.284   5.087  1.6159 -1.2624 -0.1114
  460MOL0     O60589   5.705   0.447   5.392 -0.0652 -0.3093 -0.5513
  460MOL0     C60590   5.720   0.545   5.461 -0.7899 -0.0590  0.1677
  460MOL0     O60591   5.627   0.622   5.523 -0.5229 -0.5306  0.0422
  460MOL0     C60592   5.500   0.589   5.513 -0.6724 -0.3219  1.3248
  460MOL0     C60593   5.437   0.535   5.622 -0.5041 -0.0331 -1.1039
  460MOL0     C60594   5.290   0.512   5.617  0.8894 -0.6128 -0.4850
  460MOL0     C60595   5.222   0.536   5.499  0.6691 -0.1769 -0.0263
  460MOL0     O60596   5.083   0.544   5.479  0.3102  0.4583 -0.2981
  460MOL0     C60597   4.993   0.559   5.590  0.4451 -0.2421  0.4361
  460MOL0     C60598   4.842   0.535   5.546 -0.5320  0.7478 -1.2538
  460MOL0     C60599   4.763   0.469   5.659  0.0942 -0.4657 -0.0950
  460MOL0     C60600   4.609   0.487   5.634 -0.5849 -0.9156  0.1315
  460MOL0     C60601   4.525   0.463   5.752 -0.0121  0.0080 -0.2259
  460MOL0     C60602   4.378   0.466   5.727  0.2904  0.4601  0.2862
  460MOL0     C60603   4.323   0.341   5.644  0.2007 -0.4792  0.2738
  460MOL0     C60604   4.174   0.324   5.643  1.0345  0.0534  0.4909
  460MOL0     N60605   4.126   0.207   5.566  0.0484 -0.2654  0.0117
  460MOL0     C60606   4.177   0.073   5.581  0.7231 -0.9132 -0.3587
  460MOL0     C60607   4.095  -0.000   5.497  0.4233 -0.0394  0.4423
  460MOL0     C60608   4.090  -0.144   5.477 -0.3798  0.7134  0.3451
  460MOL0     C60609   3.972  -0.202   5.551 -0.5086  0.1429 -0.6949
  460MOL0     C60610   3.894  -0.298   5.454  0.1296  0.1776  0.3719
  460MOL0     C60611   3.752  -0.330   5.510  0.2222 -0.1670 -0.1568
  460MOL0     O60612   3.666  -0.215   5.537 -0.1087 -0.5443 -0.0816
  460MOL0     C60613   3.546  -0.239   5.589  1.3136  1.3186 -0.3178
  460MOL0     C60614   3.480  -0.363   5.607  0.3162 -0.3951 -0.0398
  460MOL0     C60615   3.347  -0.367   5.661  0.5818 -0.5917 -0.6922
  460MOL0     C60616   3.285  -0.247   5.714  0.1582  0.2295  1.7392
  460MOL0     C60617   3.157  -0.246   5.774 -0.8288  0.1762 -0.1667
  460MOL0     O60618   3.092  -0.367   5.788  0.7538 -0.1064  0.3153
  460MOL0     C60619   2.953  -0.374   5.803  0.0394 -0.4983 -0.1000
  460MOL0     C60620   2.902  -0.482   5.871  0.4660  0.6524  0.3033
  460MOL0     C60621   2.768  -0.515   5.863  0.2779 -0.2760 -0.5223
  460MOL0     C60622   2.684  -0.436   5.801 -0.8043 -0.5282 -0.3954
  460MOL0     O60623   2.548  -0.454   5.787 -0.4480  0.5745  0.2151
  460MOL0     C60624   2.471  -0.523   5.889  0.6352  0.3732  0.3995
  460MOL0     C60625   2.428  -0.425   6.002  0.3867 -0.4162 -0.1535
  460MOL0     C60626   2.334  -0.319   5.944 -0.1431  0.1468 -0.1317
  460MOL0     C60627   2.276  -0.233   6.060  0.2680 -0.2082 -0.1276
  460MOL0     C60628   2.181  -0.125   6.010  0.1993  0.7362  0.2933
  460MOL0     C60629   2.114  -0.049   6.124 -0.3994 -0.1580  0.2246
  460MOL0     C60630   2.000   0.043   6.069 -0.8380  0.5733 -0.2359
  460MOL0     C60631   1.924   0.105   6.184  0.2244 -0.0808  0.4430
  460MOL0    Cl60632   1.801   0.225   6.142 -0.8954 -0.1798  0.1855
  460MOL0     C60633   2.727  -0.318   5.742  0.0676 -0.0366  0.1488
  460MOL0     C60634   2.864  -0.291   5.743  0.0573 -0.8954  0.3486
  460MOL0     O60635   3.113  -0.143   5.816 -0.0692  0.3929 -0.2655
  460MOL0     C60636   3.349  -0.128   5.695  0.3599  0.3788 -0.6928
  460MOL0     C60637   3.478  -0.118   5.630 -0.6773 -0.5036 -0.6387
  460MOL0     N60638   4.018   0.085   5.422  0.3506 -0.7756  0.0657
  460MOL0     N60639   4.028   0.204   5.475  0.4257 -1.4563  0.0146
  460MOL0     C60640   5.293   0.580   5.390 -0.3784  0.6806 -0.4221
  460MOL0     C60641   5.433   0.597   5.391 -0.7024 -0.6109  0.4983
  460MOL0     C60642   5.862   0.580   5.487  0.5666  0.2769 -0.4755
  460MOL0     C60643   5.970   0.528   5.403  0.3353 -0.3876 -0.0825
  460MOL0     C60644   6.102   0.563   5.427  0.0256 -0.2525  0.2607
  460MOL0     C60645   6.137   0.644   5.533 -0.3018  0.5076 -0.7816
  460MOL0     O60646   6.266   0.678   5.565 -0.3765 -0.7637 -0.8218
  460MOL0     C60647   6.370   0.654   5.472  0.3008 -0.1416 -0.6242
  460MOL0     C60648   6.479   0.757   5.487 -1.1339 -0.0273 -0.7115
  460MOL0     C60649   6.608   0.723   5.412 -0.5804 -0.0388  0.5529
  460MOL0     C60650   6.728   0.807   5.447  0.4803  0.2721  0.6696
  460MOL0     C60651   6.840   0.778   5.361 -0.5391  0.9544 -0.6311
  460MOL0     C60652   6.937   0.736   5.301  1.1620  0.3926  0.0101
  460MOL0     C60653   6.043   0.689   5.620  0.6596  0.1106  0.5092
  460MOL0     C60654   5.907   0.652   5.597 -0.2369 -1.1127 -0.2918
  460MOL0     H60655   5.505   0.523   5.705  0.1166  1.8711 -1.2896
  460MOL0     H60656   5.237   0.475   5.704  0.1576 -1.0254 -1.0989
  460MOL0     H60657   5.000   0.651   5.648 -3.4700  1.0921 -0.9176
  460MOL0     H60658   5.020   0.480   5.662  3.9627 -1.6805 -2.1721
  460MOL0     H60659   4.850   0.469   5.459  0.2192 -1.4397  0.3738
  460MOL0     H60660   4.794   0.623   5.502 -0.0190  1.4806 -0.3709
  460MOL0     H60661   4.770   0.533   5.748 -1.1908  2.4595 -1.9864
  460MOL0     H60662   4.789   0.363   5.669  0.6568 -0.2396  1.1331
  460MOL0     H60663   4.587   0.589   5.600 -2.7980 -1.0826  0.9498
  460MOL0     H60664   4.586   0.414   5.556  0.6294  2.4083 -3.7366
  460MOL0     H60665   4.539   0.548   5.819 -0.7258  2.2047 -2.6789
  460MOL0     H60666   4.551   0.365   5.792  1.4113 -0.6095 -2.4947
  460MOL0     H60667   4.339   0.559   5.684 -1.0942  2.6514  5.5198
  460MOL0     H60668   4.336   0.470   5.828  0.0092  1.4583  0.1412
  460MOL0     H60669   4.363   0.352   5.542 -1.0663 -3.2310 -0.6140
  460MOL0     H60670   4.375   0.252   5.682  0.7528  0.1871  1.1105
  460MOL0     H60671   4.117   0.411   5.609 -0.4405 -1.1569 -0.2129
  460MOL0     H60672   4.132   0.310   5.743  0.4177  1.3888  0.4474
  460MOL0     H60673   4.252   0.034   5.649  2.7619 -1.5793 -2.8092
  460MOL0     H60674   4.177  -0.191   5.525 -1.8938 -2.7083  0.0386
  460MOL0     H60675   4.093  -0.168   5.370  2.0339  1.8113  0.0974
  460MOL0     H60676   3.907  -0.118   5.579 -1.0765  0.3388 -2.4890
  460MOL0     H60677   4.004  -0.260   5.638 -1.7965  1.4303  0.7096
  460MOL0     H60678   3.879  -0.240   5.362 -1.4786  3.4704  2.5045
  460MOL0     H60679   3.942  -0.396   5.454  0.0463  0.1266  1.3033
  460MOL0     H60680   3.766  -0.378   5.607  1.6896  3.6741  1.7120
  460MOL0     H60681   3.702  -0.389   5.432 -3.0740  3.2763 -0.9168
  460MOL0     H60682   3.525  -0.460   5.590 -0.7323 -1.0635  0.8455
  460MOL0     H60683   3.287  -0.457   5.672  0.2565 -0.1439  1.6948
  460MOL0     H60684   2.968  -0.545   5.930 -0.5179 -0.6576  0.0327
  460MOL0     H60685   2.741  -0.607   5.915  0.6248 -1.9289 -3.0732
  460MOL0     H60686   2.532  -0.600   5.937  0.2910  1.4114  2.6330
  460MOL0     H60687   2.379  -0.565   5.847 -1.4376  2.0740  2.9567
  460MOL0     H60688   2.511  -0.371   6.047  0.2969 -0.8287  0.5086
  460MOL0     H60689   2.386  -0.490   6.080 -1.3181  3.3252  2.3260
  460MOL0     H60690   2.252  -0.365   5.887 -2.1857 -0.3433  2.9659
  460MOL0     H60691   2.382  -0.243   5.882  1.8027 -1.1480 -0.2956
  460MOL0     H60692   2.227  -0.301   6.130 -0.5308 -1.9857 -2.3046
  460MOL0     H60693   2.358  -0.191   6.119 -0.0734 -1.8466  1.6131
  460MOL0     H60694   2.109  -0.178   5.946  1.3552  0.8597 -1.1581
  460MOL0     H60695   2.237  -0.053   5.949 -1.3672  3.3036  1.7127
  460MOL0     H60696   2.192   0.014   6.168 -0.6387 -1.9470  3.5352
  460MOL0     H60697   2.079  -0.121   6.198 -0.7544  1.1205  1.3627
  460MOL0     H60698   2.044   0.128   6.016 -0.4569  0.0316 -0.8023
  460MOL0     H60699   1.927  -0.011   6.008 -2.3265  0.3239  1.6579
  460MOL0     H60700   1.996   0.151   6.253  1.6171  1.4462 -1.8770
  460MOL0     H60701   1.869   0.032   6.244  1.1643  1.2201  3.0521
  460MOL0     H60702   2.653  -0.248   5.705  0.9987 -0.1238 -1.9861
  460MOL0     H60703   2.907  -0.204   5.693  2.3862 -1.2215  1.6146
  460MOL0     H60704   3.313  -0.032   5.731 -0.0539  0.9533 -2.5175
  460MOL0     H60705   3.518  -0.017   5.627 -2.3443  0.2311  0.3059
  460MOL0     H60706   5.239   0.619   5.304 -1.9727 -3.1005 -1.3283
  460MOL0     H60707   5.477   0.630   5.297  1.6396  1.4357  2.1639
  460MOL0     H60708   5.949   0.465   5.317 -0.7613  1.5037 -1.2687
  460MOL0     H60709   6.175   0.517   5.362 -0.6540 -1.7841  0.5312
  460MOL0     H60710   6.341   0.650   5.367  2.4162 -0.3726 -1.2465
  460MOL0     H60711   6.415   0.556   5.491  2.6131  0.8791 -0.4571
  460MOL0     H60712   6.431   0.852   5.462 -2.2598 -0.2440  0.5336
  460MOL0     H60713   6.506   0.765   5.593  0.7605 -2.7801 -0.8780
  460MOL0     H60714   6.584   0.731   5.305  0.7819 -2.9745 -0.0710
  460MOL0     H60715   6.628   0.616   5.422  0.3207 -0.0098 -0.7378
  460MOL0     H60716   6.696   0.911   5.437  0.1903  0.0370 -1.0106
  460MOL0     H60717   6.751   0.785   5.552 -0.2763 -0.8582  0.6117
  460MOL0     H60718   7.025   0.698   5.253  1.4447 -1.5601  1.9016
  460MOL0     H60719   6.080   0.755   5.698  0.7231  1.7253 -0.8055
  460MOL0     H60720   5.826   0.694   5.655  1.1188  2.0750 -0.5064
  461MOL0     O60721   2.191   8.865   2.102  0.0723  0.3131  0.0467
  461MOL0     C60722   2.131   8.795   2.017 -0.1792  0.7578 -0.3332
  461MOL0     O60723   2.017   8.730   2.037 -0.4883  0.1841  0.6757
  461MOL0     C60724   1.974   8.729   2.163  0.2277  0.2017  0.1747
  461MOL0     C60725   1.920   8.851   2.213  0.3838 -0.4596  0.1604
  461MOL0     C60726   1.871   8.859   2.341  1.3971  0.0968  0.5016
  461MOL0     C60727   1.868   8.736   2.417 -0.0352  0.6785 -0.3631
  461MOL0     O60728   1.823   8.744   2.544 -0.2114  0.0480 -0.3350
  461MOL0     C60729   1.732   8.644   2.587 -0.1496 -0.2767  0.1949
  461MOL0     C60730   1.749   8.640   2.735  0.2094 -0.0183  0.3223
  461MOL0     C60731   1.663   8.525   2.777  0.8232  0.4400 -0.2767
  461MOL0     C60732   1.701   8.477   2.925 -0.2045  0.0372  0.0705
  461MOL0     C60733   1.642   8.352   2.965 -0.3641  0.0916  0.1784
  461MOL0     C60734   1.496   8.333   2.926  0.5079  0.1528 -0.5473
  461MOL0     C60735   1.438   8.199   2.979  0.2105 -0.4035  1.4231
  461MOL0     C60736   1.296   8.162   2.931 -0.0431 -0.5229  0.0103
  461MOL0     N60737   1.291   8.134   2.781 -0.2010 -0.1467 -0.1921
  461MOL0     C60738   1.285   8.011   2.728  1.3876  0.4646  0.4708
  461MOL0     C60739   1.242   8.032   2.596 -0.0027 -0.4620 -1.2454
  461MOL0     C60740   1.196   7.935   2.486 -0.0675 -1.0847  0.6703
  461MOL0     C60741   1.037   7.903   2.491 -0.2279  0.3420  0.1369
  461MOL0     C60742   0.994   7.788   2.395  0.7992 -0.2617  0.8099
  461MOL0     C60743   1.020   7.794   2.249  0.2669 -0.3842  0.2858
  461MOL0     O60744   0.948   7.910   2.196 -0.5031  0.2535 -0.4264
  461MOL0     C60745   0.817   7.911   2.157 -0.2579  0.2166 -0.7378
  461MOL0     C60746   0.775   8.035   2.111 -0.2424 -0.6325  0.1727
  461MOL0     C60747   0.641   8.058   2.082  0.6806 -0.0035  0.2509
  461MOL0     C60748   0.546   7.955   2.094  0.3734  0.2685  0.4249
  461MOL0     C60749   0.402   7.987   2.088 -0.2105 -0.3156 -0.6035
  461MOL0     O60750   0.378   8.123   2.060  0.6878 -0.0926  0.0204
  461MOL0     C60751   0.244   8.175   2.058  1.6003  0.1315 -0.4676
  461MOL0     C60752   0.222   8.298   2.105  0.0751  0.5926 -0.3245
  461MOL0     C60753   0.104   8.367   2.100 -0.0584 -0.4338  0.0831
  461MOL0     C60754  -0.012   8.296   2.070 -0.5330 -0.1142  0.4442
  461MOL0     O60755  -0.122   8.361   2.098 -0.0503  0.0470 -0.8408
  461MOL0     C60756  -0.225   8.371   1.997  0.2589 -0.4547 -0.5342
  461MOL0     C60757  -0.353   8.393   2.081 -0.0353 -0.0874  0.5022
  461MOL0     C60758  -0.463   8.422   1.978  0.4494 -0.0027 -0.6101
  461MOL0     C60759  -0.610   8.428   2.037 -0.3827 -0.5061 -0.4813
  461MOL0     C60760  -0.662   8.289   2.081 -0.4679  0.0714 -0.0527
  461MOL0     C60761  -0.805   8.275   2.118  0.4114  1.0920  0.0287
  461MOL0     C60762  -0.864   8.145   2.064 -1.5274  0.7569  0.2664
  461MOL0     C60763  -1.009   8.129   2.109  0.2052 -0.8326  0.0031
  461MOL0    Cl60764  -1.104   8.285   2.058 -0.2936 -0.0680  0.2678
  461MOL0     C60765   0.005   8.165   2.012  0.5556  0.8494  0.4191
  461MOL0     C60766   0.131   8.104   2.009  0.3015 -0.5442 -0.0591
  461MOL0     O60767   0.316   7.900   2.113 -0.8338  0.6612  0.3925
  461MOL0     C60768   0.589   7.833   2.132 -1.2909 -0.8280  0.1294
  461MOL0     C60769   0.728   7.799   2.159 -0.1156 -0.4460  0.3967
  461MOL0     N60770   1.239   8.161   2.573  0.2925 -1.6440 -0.7297
  461MOL0     N60771   1.264   8.223   2.678 -0.3496  0.0206 -0.8068
  461MOL0     C60772   1.920   8.613   2.367  0.3198  0.0648  0.6139
  461MOL0     C60773   1.966   8.612   2.237 -0.5348  0.7477  0.4877
  461MOL0     C60774   2.203   8.767   1.883  0.0558  0.2649 -0.2239
  461MOL0     C60775   2.341   8.792   1.859 -0.3643 -0.5241 -0.1219
  461MOL0     C60776   2.401   8.764   1.738 -0.3938 -0.3992  0.4736
  461MOL0     C60777   2.329   8.721   1.623  0.3558  0.4212 -0.2230
  461MOL0     O60778   2.404   8.712   1.508 -0.1150 -1.1719  0.5102
  461MOL0     C60779   2.328   8.676   1.390 -1.2624 -1.1206 -0.4332
  461MOL0     C60780   2.410   8.656   1.265 -0.0422  0.3794  0.4057
  461MOL0     C60781   2.333   8.584   1.160  0.1197 -0.4456  0.5578
  461MOL0     C60782   2.384   8.635   1.021 -0.2449  0.4615  0.1120
  461MOL0     C60783   2.344   8.544   0.921 -0.3921  0.8898 -0.0036
  461MOL0     C60784   2.313   8.465   0.832 -0.2828  0.5532 -0.4466
  461MOL0     C60785   2.189   8.705   1.645  0.5944 -0.3551  0.6231
  461MOL0     C60786   2.131   8.720   1.773  0.1403 -0.5514  0.2697
  461MOL0     H60787   1.915   8.932   2.141 -0.0016  1.9261  2.7075
  461MOL0     H60788   1.822   8.946   2.384  0.1594 -0.5959  0.5406
  461MOL0     H60789   1.751   8.547   2.541 -0.1256 -0.5933  0.8626
  461MOL0     H60790   1.631   8.678   2.564  1.1259  1.6978 -3.2782
  461MOL0     H60791   1.727   8.738   2.779  1.9070  0.9432 -0.8641
  461MOL0     H60792   1.853   8.612   2.749  0.2652  0.8939  2.0240
  461MOL0     H60793   1.669   8.441   2.708 -0.2501  0.2721 -0.1882
  461MOL0     H60794   1.558   8.557   2.782  1.0824  1.2234  0.2479
  461MOL0     H60795   1.810   8.464   2.925 -0.2309 -0.8755  3.2351
  461MOL0     H60796   1.673   8.557   2.994  1.4799  0.9200 -0.1922
  461MOL0     H60797   1.650   8.326   3.071  1.4594 -1.6817 -0.3354
  461MOL0     H60798   1.690   8.268   2.914 -3.0922 -2.5533  1.6159
  461MOL0     H60799   1.482   8.334   2.818  0.7876 -1.9631 -0.6353
  461MOL0     H60800   1.441   8.414   2.976 -0.1549 -0.9092  0.4882
  461MOL0     H60801   1.502   8.114   2.957  2.6592  0.6675  3.8146
  461MOL0     H60802   1.438   8.215   3.088 -0.3795  0.6391  1.2873
  461MOL0     H60803   1.221   8.236   2.959 -3.1912 -3.5661  0.3954
  461MOL0     H60804   1.273   8.064   2.974  3.0803 -0.7246  1.5093
  461MOL0     H60805   1.297   7.915   2.777  2.8097  0.6078  0.4321
  461MOL0     H60806   1.248   7.839   2.496  0.3987 -0.9027  0.0198
  461MOL0     H60807   1.217   7.987   2.393 -0.3663 -0.3056  1.0266
  461MOL0     H60808   0.980   7.990   2.458 -1.3001  0.4387  2.0912
  461MOL0     H60809   1.012   7.882   2.595  0.9760  1.2024  0.6145
  461MOL0     H60810   1.054   7.706   2.435  2.6955  1.6453  2.0907
  461MOL0     H60811   0.888   7.764   2.412  0.3258  0.3861 -1.0458
  461MOL0     H60812   0.992   7.696   2.211 -0.6098  0.6823 -1.9904
  461MOL0     H60813   1.125   7.807   2.220 -0.0456  1.6709 -0.1247
  461MOL0     H60814   0.848   8.115   2.111 -2.3749  1.4981  2.8448
  461MOL0     H60815   0.614   8.159   2.051 -0.2774 -0.3379 -0.0460
  461MOL0     H60816   0.310   8.343   2.150 -1.2469  1.4166  1.5575
  461MOL0     H60817   0.103   8.472   2.128  2.1627 -0.3495  0.0688
  461MOL0     H60818  -0.230   8.277   1.941 -0.2991 -0.2724 -0.8059
  461MOL0     H60819  -0.204   8.453   1.928  1.0240 -0.9614 -0.9228
  461MOL0     H60820  -0.356   8.473   2.156 -0.4150 -0.4039  0.8274
  461MOL0     H60821  -0.362   8.295   2.128  3.1526 -0.1798  1.1437
  461MOL0     H60822  -0.457   8.340   1.906 -0.0185 -1.3415  0.8286
  461MOL0     H60823  -0.444   8.519   1.929 -0.1264  0.3806 -0.0827
  461MOL0     H60824  -0.612   8.505   2.114 -2.5413  0.0582 -1.0344
  461MOL0     H60825  -0.670   8.458   1.950  1.6277  1.1427 -1.4062
  461MOL0     H60826  -0.602   8.274   2.172 -2.5902 -0.7329  1.3077
  461MOL0     H60827  -0.636   8.217   2.003  1.4713 -0.1005  0.6986
  461MOL0     H60828  -0.854   8.364   2.076  0.3102  0.1901 -1.8251
  461MOL0     H60829  -0.810   8.277   2.228  0.3928  0.8264  0.0325
  461MOL0     H60830  -0.880   8.155   1.956  0.7935  0.3198 -0.1713
  461MOL0     H60831  -0.797   8.060   2.078  0.6519  2.1755 -0.9894
  461MOL0     H60832  -1.020   8.128   2.217 -1.8327  0.9699 -0.1088
  461MOL0     H60833  -1.052   8.041   2.060  1.6153 -0.4339 -2.0824
  461MOL0     H60834  -0.079   8.109   1.971  0.3801  1.5483 -0.2175
  461MOL0     H60835   0.157   8.015   1.953  2.2309 -0.1709  0.1540
  461MOL0     H60836   0.521   7.750   2.147 -0.2004 -2.0231 -1.1526
  461MOL0     H60837   0.755   7.704   2.202  2.5881 -0.1580 -0.5117
  461MOL0     H60838   1.929   8.518   2.418  1.0696 -1.9473 -2.9008
  461MOL0     H60839   2.000   8.514   2.206 -1.0982 -0.5950  3.7442
  461MOL0     H60840   2.396   8.836   1.941 -2.7978 -0.4611  1.5738
  461MOL0     H60841   2.507   8.785   1.725 -0.3762  0.4864  1.8392
  461MOL0     H60842   2.251   8.749   1.362 -0.7114 -0.7498 -1.0292
  461MOL0     H60843   2.276   8.586   1.422  2.0766 -2.3530  2.1316
  461MOL0     H60844   2.436   8.757   1.233  1.3301 -0.3229 -0.8650
  461MOL0     H60845   2.498   8.595   1.287 -0.2652 -0.3614 -0.6264
  461MOL0     H60846   2.231   8.624   1.160  0.6767  1.2015 -1.9224
  461MOL0     H60847   2.323   8.475   1.167 -0.4057 -0.4221  0.2920
  461MOL0     H60848   2.357   8.740   1.007  1.5276  0.9394  0.0098
  461MOL0     H60849   2.491   8.627   0.999 -0.8231 -1.4166 -2.4878
  461MOL0     H60850   2.297   8.391   0.757 -1.3760  0.3206 -0.0064
  461MOL0     H60851   2.117   8.685   1.566  0.0035 -1.6728  1.4546
  461MOL0     H60852   2.025   8.699   1.774  0.2980 -1.4326  1.3781
  462MOL0     O60853   8.669   3.828  10.731 -0.7718 -0.2770  0.3333
  462MOL0     C60854   8.751   3.747  10.687 -1.1461 -0.1407 -0.1112
  462MOL0     O60855   8.736   3.615  10.673 -0.6881  0.2646 -0.2206
  462MOL0     C60856   8.610   3.573  10.713 -0.5125 -0.5926  0.5674
  462MOL0     C60857   8.585   3.549  10.847  0.8239 -0.0952 -0.4021
  462MOL0     C60858   8.462   3.480  10.881  0.6169  0.0535  0.4417
  462MOL0     C60859   8.370   3.438  10.781 -0.0399 -0.0073 -0.2788
  462MOL0     O60860   8.258   3.370  10.824 -0.2127 -0.0359  0.4097
  462MOL0     C60861   8.183   3.300  10.731  0.4749 -0.0174 -0.1241
  462MOL0     C60862   8.085   3.219  10.812 -0.1058 -0.1101 -0.3728
  462MOL0     C60863   7.963   3.171  10.721 -0.6078 -0.2987 -0.0640
  462MOL0     C60864   7.836   3.155  10.797 -0.4585  0.2228  0.2750
  462MOL0     C60865   7.850   3.035  10.887  0.3477 -0.3036 -0.1399
  462MOL0     C60866   7.713   2.958  10.902 -0.4291 -0.4756 -0.6215
  462MOL0     C60867   7.686   2.868  10.789  0.0930 -0.2053  0.1940
  462MOL0     C60868   7.793   2.746  10.759 -0.3469 -0.6064 -0.1050
  462MOL0     N60869   7.781   2.651  10.867 -0.4165 -0.2941  0.3220
  462MOL0     C60870   7.666   2.591  10.910 -0.1141  0.1455  0.3417
  462MOL0     C60871   7.702   2.515  11.016  0.8939 -0.0301 -0.7588
  462MOL0     C60872   7.599   2.425  11.093  0.2874 -0.2523 -0.5205
  462MOL0     C60873   7.504   2.343  11.009  0.0480  0.0727 -0.2371
  462MOL0     C60874   7.572   2.224  10.938 -0.5192  0.0859 -0.5567
  462MOL0     C60875   7.463   2.140  10.865 -0.4898 -0.1945  0.8946
  462MOL0     O60876   7.419   2.218  10.750  0.6889  0.0816 -0.8865
  462MOL0     C60877   7.296   2.182  10.699  0.1820  0.9457  0.0787
  462MOL0     C60878   7.193   2.131  10.780 -0.0027  0.1758 -0.1600
  462MOL0     C60879   7.073   2.103  10.726  0.0994  0.4975 -0.3772
  462MOL0     C60880   7.046   2.128  10.590  0.2725 -0.2652 -0.2582
  462MOL0     C60881   6.910   2.124  10.533 -0.0028 -0.5449 -1.1788
  462MOL0     O60882   6.817   2.093  10.627  0.2408  0.9154 -0.9427
  462MOL0     C60883   6.685   2.062  10.585  0.3939  0.2956  0.6162
  462MOL0     C60884   6.654   1.988  10.462 -0.7056 -0.2533  0.2356
  462MOL0     C60885   6.524   1.947  10.431  0.1863  0.1047 -0.3971
  462MOL0     C60886   6.421   1.985  10.519  0.0352 -0.4101 -0.7172
  462MOL0     O60887   6.304   1.930  10.487  0.1707  0.4069 -0.1311
  462MOL0     C60888   6.186   2.004  10.532 -0.0756  0.1599  0.7045
  462MOL0     C60889   6.074   1.979  10.432 -0.1781 -0.1107  0.4264
  462MOL0     C60890   6.030   1.835  10.431  1.2126  0.0846  0.4317
  462MOL0     C60891   5.898   1.822  10.343 -0.2907  0.4072  0.4368
  462MOL0     C60892   5.835   1.685  10.356 -0.5684 -0.7396  0.5737
  462MOL0     C60893   5.703   1.682  10.273 -1.0595  0.3713 -0.4735
  462MOL0     C60894   5.642   1.542  10.295 -0.9125 -0.8323  0.3600
  462MOL0     C60895   5.530   1.522  10.201 -0.1284 -0.6670 -1.0184
  462MOL0    Cl60896   5.492   1.348  10.204 -0.0933 -0.2574 -0.2699
  462MOL0     C60897   6.441   2.064  10.630  0.9803  0.4441  1.4067
  462MOL0     C60898   6.571   2.098  10.664 -0.4805 -0.3234 -0.3851
  462MOL0     O60899   6.889   2.152  10.419  0.1718  0.0312 -0.0531
  462MOL0     C60900   7.156   2.172  10.512  0.0233 -0.2769 -0.1581
  462MOL0     C60901   7.281   2.197  10.565 -0.7147  0.7987  0.1231
  462MOL0     N60902   7.835   2.539  11.045  0.3715  0.3247  0.2490
  462MOL0     N60903   7.879   2.628  10.958 -0.2701 -0.3207 -0.4476
  462MOL0     C60904   8.405   3.453  10.653  0.2091  0.5865  0.1510
  462MOL0     C60905   8.527   3.520  10.615 -0.1227  0.0542 -0.1551
  462MOL0     C60906   8.880   3.805  10.649  0.6012 -0.1403 -0.2287
  462MOL0     C60907   8.989   3.719  10.623  0.3646 -0.0422  0.1995
  462MOL0     C60908   9.113   3.775  10.594 -0.5005 -0.0450  0.7236
  462MOL0     C60909   9.135   3.905  10.570  0.9778  0.1402  0.1160
  462MOL0     O60910   9.253   3.954  10.541  0.2307 -0.6452  0.1708
  462MOL0     C60911   9.374   3.876  10.537 -0.4594  0.1648 -0.6288
  462MOL0     C60912   9.484   3.967  10.505  0.1359 -0.5007 -0.1289
  462MOL0     C60913   9.494   4.091  10.595 -1.1154 -0.4527  0.5854
  462MOL0     C60914   9.549   4.054  10.739 -0.3072  0.0804  1.2244
  462MOL0     C60915   9.586   4.167  10.816 -0.2466 -0.8820 -0.1487
  462MOL0     C60916   9.613   4.278  10.868 -0.3195  0.1274  0.5200
  462MOL0     C60917   9.032   3.992  10.594  0.0996  0.0005  1.1019
  462MOL0     C60918   8.908   3.941  10.642 -0.0592  0.3347 -0.1713
  462MOL0     H60919   8.661   3.577  10.919  1.6512 -1.1330 -0.8377
  462MOL0     H60920   8.425   3.463  10.982  0.0153 -1.9245 -0.0679
  462MOL0     H60921   8.252   3.233  10.679  1.1153 -0.1836  0.9213
  462MOL0     H60922   8.133   3.370  10.662  1.8945 -0.0765 -1.2625
  462MOL0     H60923   8.044   3.283  10.890  1.6537  1.6280 -0.7869
  462MOL0     H60924   8.136   3.135  10.858  2.2683  1.0741 -0.6990
  462MOL0     H60925   7.991   3.079  10.668 -0.2312  0.3791 -1.0915
  462MOL0     H60926   7.951   3.243  10.639  0.4522 -0.6234 -0.5306
  462MOL0     H60927   7.808   3.243  10.857 -0.8773 -0.3044  0.8672
  462MOL0     H60928   7.753   3.145  10.727 -1.2335  0.7107  1.0930
  462MOL0     H60929   7.887   3.074  10.983 -0.9432  2.8710 -0.7871
  462MOL0     H60930   7.925   2.965  10.849  0.7803  0.7727 -1.3418
  462MOL0     H60931   7.634   3.033  10.915 -2.2494 -2.1032 -1.7821
  462MOL0     H60932   7.714   2.898  10.994 -1.4558  0.2588 -0.1157
  462MOL0     H60933   7.585   2.826  10.795 -1.1003  2.5196  0.5236
  462MOL0     H60934   7.682   2.930  10.698  4.1541 -0.7498 -0.5184
  462MOL0     H60935   7.897   2.779  10.759 -0.3706 -0.4947  1.5653
  462MOL0     H60936   7.762   2.702  10.663  0.0372 -1.0912 -0.0093
  462MOL0     H60937   7.574   2.594  10.853  0.5709 -3.3324 -1.2184
  462MOL0     H60938   7.531   2.485  11.154 -2.7432 -2.2351 -1.7497
  462MOL0     H60939   7.656   2.358  11.158 -0.5225 -0.9450 -0.5188
  462MOL0     H60940   7.463   2.410  10.933  0.3732  0.6864  0.1185
  462MOL0     H60941   7.416   2.307  11.062 -0.4195  0.3771 -0.7995
  462MOL0     H60942   7.653   2.253  10.871 -0.1567  1.1351  0.3203
  462MOL0     H60943   7.618   2.158  11.012  1.1450  1.6328 -0.1703
  462MOL0     H60944   7.398   2.106  10.947  3.9799  1.5906  5.7480
  462MOL0     H60945   7.498   2.047  10.819 -1.6283 -0.9498  1.4999
  462MOL0     H60946   7.205   2.115  10.886 -0.6508  0.0073 -0.1108
  462MOL0     H60947   7.006   2.062  10.800 -0.3125 -0.6416 -1.3370
  462MOL0     H60948   6.733   1.958  10.394  1.2584 -1.1889  2.7830
  462MOL0     H60949   6.504   1.889  10.342  0.7844 -0.2816 -0.2828
  462MOL0     H60950   6.204   2.111  10.523 -2.2097  0.3610 -4.8224
  462MOL0     H60951   6.170   1.967  10.634  0.2738 -0.5006  0.5264
  462MOL0     H60952   6.125   2.001  10.338 -1.1650 -3.0748 -0.9082
  462MOL0     H60953   5.982   2.035  10.446 -0.2502 -0.5432  1.9498
  462MOL0     H60954   6.012   1.801  10.533  2.4097 -0.1811  0.5627
  462MOL0     H60955   6.105   1.765  10.392  0.7253 -1.0261  1.4543
  462MOL0     H60956   5.828   1.904  10.358  0.6755  1.6833 -1.5275
  462MOL0     H60957   5.927   1.833  10.238 -0.6672  2.9962  0.5265
  462MOL0     H60958   5.823   1.660  10.462  1.1834  0.0134  0.9918
  462MOL0     H60959   5.901   1.606  10.319 -2.2422 -0.9892 -2.1763
  462MOL0     H60960   5.730   1.692  10.167 -0.8902  0.0808 -0.4577
  462MOL0     H60961   5.639   1.766  10.301  0.4462  1.1246  0.8890
  462MOL0     H60962   5.717   1.465  10.275 -0.9533 -0.6269 -0.6032
  462MOL0     H60963   5.615   1.534  10.401  0.1846  1.6308  0.9186
  462MOL0     H60964   5.558   1.558  10.102 -1.0566  3.0833 -0.1091
  462MOL0     H60965   5.440   1.575  10.233 -0.9793 -3.0918  0.8986
  462MOL0     H60966   6.358   2.098  10.691 -0.1455  4.1584 -1.8304
  462MOL0     H60967   6.596   2.148  10.758  3.0479 -0.7821 -0.9105
  462MOL0     H60968   7.134   2.175  10.405 -2.4364 -2.0222  0.2026
  462MOL0     H60969   7.370   2.221  10.508  1.1699 -2.6671  1.3522
  462MOL0     H60970   8.340   3.424  10.571  1.9531 -1.5009 -0.5730
  462MOL0     H60971   8.552   3.526  10.510  2.2753 -1.2041  0.2497
  462MOL0     H60972   8.964   3.613  10.616  2.3539 -0.5195 -0.3867
  462MOL0     H60973   9.189   3.699  10.581  1.7253  2.1817  0.0299
  462MOL0     H60974   9.370   3.789  10.470  2.8480 -1.8725  1.5381
  462MOL0     H60975   9.399   3.833  10.634 -0.6106  0.4511 -0.4649
  462MOL0     H60976   9.581   3.917  10.517 -0.1543 -1.0973 -0.2592
  462MOL0     H60977   9.471   4.001  10.402 -6.3012 -0.1759  0.4166
  462MOL0     H60978   9.397   4.142  10.594 -1.2451 -0.5969 -2.2412
  462MOL0     H60979   9.561   4.168  10.557 -2.1060  1.3882  2.3227
  462MOL0     H60980   9.475   3.986  10.783 -0.2404 -1.7558 -1.2546
  462MOL0     H60981   9.644   4.000  10.734  0.6467  1.6471  2.0284
  462MOL0     H60982   9.637   4.374  10.909 -1.1514  0.3022  0.6069
  462MOL0     H60983   9.039   4.100  10.595 -1.5828  0.1627  3.6146
  462MOL0     H60984   8.828   4.007  10.675  1.2048  2.4409 -1.1262
  463MOL0     O60985   3.429   2.798   3.270 -0.0765 -0.2339 -0.0766
  463MOL0     C60986   3.436   2.858   3.162  0.2857 -0.4802  0.0966
  463MOL0     O60987   3.343   2.864   3.060 -0.4002 -0.4659  0.3832
  463MOL0     C60988   3.209   2.850   3.087  0.5914 -0.0771  0.6028
  463MOL0     C60989   3.137   2.859   2.971 -0.2021  0.2222 -0.0987
  463MOL0     C60990   2.994   2.851   2.976 -0.1605  0.1322  0.0759
  463MOL0     C60991   2.926   2.826   3.096 -0.1505 -0.4647 -0.3785
  463MOL0     O60992   2.798   2.837   3.114  0.0209 -0.3270  0.5462
  463MOL0     C60993   2.710   2.856   2.998  0.3702 -0.1675  0.0597
  463MOL0     C60994   2.572   2.902   3.039 -0.2387 -0.1099 -0.2420
  463MOL0     C60995   2.473   2.908   2.919 -0.1199 -0.2608  0.8812
  463MOL0     C60996   2.338   2.950   2.978  0.6742 -0.6168  0.0992
  463MOL0     C60997   2.338   3.103   3.012 -0.0135  0.2981  0.3034
  463MOL0     C60998   2.365   3.181   2.879 -0.5618  0.0615 -0.2326
  463MOL0     C60999   2.313   3.324   2.906  0.0061 -0.6016  0.5083
  463MOL0     C61000   2.406   3.408   2.989  0.1877 -0.1896  0.7838
  463MOL0     N61001   2.307   3.518   3.011 -0.4380 -0.5441  0.3548
  463MOL0     C61002   2.286   3.633   2.950  0.6024  0.0046  0.5684
  463MOL0     C61003   2.179   3.694   3.010 -0.1661  0.2945  0.2256
  463MOL0     C61004   2.104   3.817   2.948 -0.1275  0.0165  0.3423
  463MOL0     C61005   2.015   3.777   2.819 -0.6845 -0.0902  0.7354
  463MOL0     C61006   1.955   3.639   2.809  0.0020 -0.7320 -0.5225
  463MOL0     C61007   1.818   3.643   2.735  0.0128  0.1380  0.4295
  463MOL0     O61008   1.732   3.720   2.822 -0.1046 -0.4132 -0.0848
  463MOL0     C61009   1.599   3.738   2.806  0.5902  0.9811 -0.0674
  463MOL0     C61010   1.512   3.667   2.717 -1.2889 -1.1165 -0.3177
  463MOL0     C61011   1.375   3.697   2.719  0.9731  0.3770 -0.4303
  463MOL0     C61012   1.325   3.782   2.818  0.2664  1.1011  0.1607
  463MOL0     C61013   1.181   3.790   2.848 -0.3844 -0.5511 -0.0392
  463MOL0     O61014   1.136   3.905   2.909 -0.0564  0.1110 -0.4693
  463MOL0     C61015   0.997   3.916   2.941  0.0090 -0.0244 -0.0528
  463MOL0     C61016   0.899   3.883   2.852 -0.1705 -1.3689 -0.1332
  463MOL0     C61017   0.760   3.909   2.869  0.0243 -0.6089  0.2456
  463MOL0     C61018   0.721   3.977   2.977 -0.2317  0.1194 -0.4344
  463MOL0     O61019   0.597   4.008   3.017  0.0971  0.2330 -0.2632
  463MOL0     C61020   0.476   3.960   2.951 -0.9029 -0.3824 -0.7407
  463MOL0     C61021   0.371   4.023   3.037  0.3032 -0.7115 -0.0959
  463MOL0     C61022   0.234   3.989   2.982 -0.6591  0.0643 -0.1142
  463MOL0     C61023   0.129   4.024   3.081 -0.1725 -0.8698  0.0613
  463MOL0     C61024  -0.016   4.034   3.028 -0.2247  0.7573  0.3525
  463MOL0     C61025  -0.054   3.905   2.956  1.0122  0.5273  0.2480
  463MOL0     C61026  -0.200   3.895   2.937  0.4362 -0.8429 -0.1358
  463MOL0     C61027  -0.258   3.971   2.816 -0.0139  0.2493 -0.1393
  463MOL0    Cl61028  -0.435   3.944   2.825 -0.3745 -0.2553  0.1580
  463MOL0     C61029   0.821   4.019   3.063  1.1337 -0.2983  1.1834
  463MOL0     C61030   0.952   3.986   3.051 -0.0952 -0.0565 -0.4422
  463MOL0     O61031   1.110   3.703   2.805  0.9677  0.0233  0.2599
  463MOL0     C61032   1.412   3.862   2.893 -0.3212 -0.0154  0.0928
  463MOL0     C61033   1.550   3.829   2.900  0.7164  0.3117  0.9921
  463MOL0     N61034   2.134   3.604   3.105  0.4720 -1.2989  0.2387
  463MOL0     N61035   2.218   3.505   3.113 -0.6197 -0.2865  0.0030
  463MOL0     C61036   3.003   2.814   3.210 -0.4865  0.8642 -1.5096
  463MOL0     C61037   3.142   2.836   3.207  0.1772 -0.3610 -0.4372
  463MOL0     C61038   3.572   2.902   3.128 -0.3512 -0.1026  0.3968
  463MOL0     C61039   3.594   2.947   3.000 -0.1424 -0.4173 -0.1222
  463MOL0     C61040   3.723   2.985   2.957 -0.0512 -0.8452  0.0406
  463MOL0     C61041   3.835   2.988   3.046  1.2968 -0.0720  0.8213
  463MOL0     O61042   3.958   3.029   3.017 -0.7703 -0.1764 -0.1340
  463MOL0     C61043   3.983   3.071   2.882 -0.3173 -0.0356  0.3036
  463MOL0     C61044   4.135   3.061   2.859 -0.2875 -0.7991  0.3294
  463MOL0     C61045   4.172   3.124   2.720  0.1255 -0.1904  0.1408
  463MOL0     C61046   4.324   3.163   2.707 -0.0730 -0.0849 -0.3237
  463MOL0     C61047   4.424   3.058   2.743 -0.2282 -0.0101  0.2959
  463MOL0     C61048   4.491   2.973   2.797 -0.7288 -0.2325  0.3650
  463MOL0     C61049   3.806   2.945   3.176  0.0197 -0.2013  0.3661
  463MOL0     C61050   3.680   2.902   3.224 -0.2732  0.1827  0.4002
  463MOL0     H61051   3.188   2.866   2.876  1.2129  0.5592  0.6623
  463MOL0     H61052   2.939   2.861   2.883 -2.9020 -1.3290  1.4332
  463MOL0     H61053   2.699   2.755   2.958  0.6818 -1.2599  2.5515
  463MOL0     H61054   2.754   2.926   2.927  0.5470 -1.2204 -0.8932
  463MOL0     H61055   2.587   2.996   3.093 -1.0973  0.5697 -1.1282
  463MOL0     H61056   2.539   2.826   3.110 -0.7087 -0.2008 -0.5540
  463MOL0     H61057   2.463   2.809   2.873  0.9226 -0.2825  0.6859
  463MOL0     H61058   2.493   2.975   2.835  2.9121 -1.0335  0.8707
  463MOL0     H61059   2.261   2.934   2.902 -0.6772  0.3631  1.2146
  463MOL0     H61060   2.309   2.881   3.058  0.3721 -2.2198 -1.3354
  463MOL0     H61061   2.416   3.124   3.086  0.6079 -3.0660  0.7403
  463MOL0     H61062   2.241   3.132   3.052 -1.2302 -1.9689 -0.8235
  463MOL0     H61063   2.330   3.126   2.792 -0.7730 -1.6228  0.8855
  463MOL0     H61064   2.469   3.209   2.861 -0.8596  0.9446 -0.6780
  463MOL0     H61065   2.308   3.371   2.807  2.7976 -1.3303 -0.0456
  463MOL0     H61066   2.210   3.316   2.942 -0.7124 -1.2624 -1.5248
  463MOL0     H61067   2.496   3.440   2.935  0.1459 -2.7899 -1.0133
  463MOL0     H61068   2.421   3.348   3.079 -1.9381 -3.8454 -1.1059
  463MOL0     H61069   2.340   3.667   2.862 -0.0804 -1.9451 -0.6602
  463MOL0     H61070   2.182   3.869   2.893 -1.7904 -1.5861 -3.9559
  463MOL0     H61071   2.055   3.886   3.017  0.5467  2.7519 -1.7532
  463MOL0     H61072   2.076   3.793   2.730  0.7405 -2.0348  1.2963
  463MOL0     H61073   1.934   3.851   2.822  0.7085  1.5838 -0.6677
  463MOL0     H61074   2.017   3.571   2.749  0.5265 -0.1906 -0.6047
  463MOL0     H61075   1.945   3.592   2.907 -0.9120  2.1335  0.8744
  463MOL0     H61076   1.784   3.541   2.718 -1.0193  0.6835 -0.9978
  463MOL0     H61077   1.827   3.687   2.635  1.6270  0.3224  0.6385
  463MOL0     H61078   1.556   3.598   2.647 -0.2173 -1.6548  0.8593
  463MOL0     H61079   1.312   3.645   2.649 -0.0288 -1.1182  1.4740
  463MOL0     H61080   0.916   3.832   2.757  1.0435  1.3749 -1.5141
  463MOL0     H61081   0.690   3.868   2.797  0.1380 -1.4041  0.5695
  463MOL0     H61082   0.469   3.851   2.939 -0.1409 -0.3429 -1.6183
  463MOL0     H61083   0.469   4.010   2.854 -1.6537  1.3775  0.1692
  463MOL0     H61084   0.382   4.132   3.045 -2.9219 -0.4351  4.2879
  463MOL0     H61085   0.380   3.989   3.140  1.2820  2.1264  0.8752
  463MOL0     H61086   0.226   3.881   2.966 -2.2156  0.3498 -1.5425
  463MOL0     H61087   0.213   4.031   2.883 -1.0350  0.4807  0.1407
  463MOL0     H61088   0.136   3.962   3.171  0.7811  1.0967  1.4112
  463MOL0     H61089   0.144   4.130   3.105  0.7335 -1.4232  2.1609
  463MOL0     H61090  -0.047   4.108   2.954 -0.9866  0.0963 -0.0004
  463MOL0     H61091  -0.073   4.050   3.121  2.1531 -0.4185  2.1196
  463MOL0     H61092  -0.022   3.820   3.017  1.1626  0.7594  0.4940
  463MOL0     H61093   0.001   3.913   2.861  1.5724  3.3833  0.6974
  463MOL0     H61094  -0.226   3.789   2.927 -0.4219 -0.8095  1.4288
  463MOL0     H61095  -0.258   3.927   3.024 -2.5413 -3.2234 -1.0597
  463MOL0     H61096  -0.214   3.954   2.718 -0.2122  0.6599 -0.2993
  463MOL0     H61097  -0.247   4.079   2.824 -0.4967  0.4769 -2.1086
  463MOL0     H61098   0.781   4.075   3.147 -0.2696  4.3989 -2.1952
  463MOL0     H61099   1.026   4.027   3.119 -0.1177  0.0314 -0.4705
  463MOL0     H61100   1.375   3.936   2.964  0.6052  0.6208 -0.0705
  463MOL0     H61101   1.612   3.873   2.978  2.3610 -0.1516 -0.0009
  463MOL0     H61102   2.957   2.795   3.307 -1.1806  0.6960 -1.8640
  463MOL0     H61103   3.193   2.841   3.302 -0.2659  0.7990 -0.2528
  463MOL0     H61104   3.517   2.943   2.924  2.9399  0.9430 -3.6649
  463MOL0     H61105   3.728   3.022   2.855  1.0965  2.9872  1.2963
  463MOL0     H61106   3.947   3.174   2.872  2.3546  0.9211 -0.2456
  463MOL0     H61107   3.931   3.010   2.808 -0.7485  0.9312 -0.2034
  463MOL0     H61108   4.182   3.108   2.946 -0.1199 -0.3062 -0.0211
  463MOL0     H61109   4.161   2.955   2.852 -0.1134 -0.8374  1.3978
  463MOL0     H61110   4.109   3.213   2.715 -0.8972 -0.7675  1.8469
  463MOL0     H61111   4.152   3.059   2.634  2.9162 -1.8774  0.6187
  463MOL0     H61112   4.347   3.207   2.609  2.6406  1.9508  1.0975
  463MOL0     H61113   4.342   3.247   2.776 -3.1786 -0.6063  1.3016
  463MOL0     H61114   4.545   2.890   2.836 -0.6472 -0.4018 -0.1037
  463MOL0     H61115   3.880   2.949   3.255  0.1231 -0.7645  0.3051
  463MOL0     H61116   3.663   2.869   3.327 -2.2373  0.3893  0.1681
  464MOL0     O61117   0.677   3.778   6.488  0.1593 -0.0153  0.3219
  464MOL0     C61118   0.634   3.816   6.595 -0.2371 -0.0714 -0.0973
  464MOL0     O61119   0.518   3.884   6.613  0.9047  0.3370 -0.0612
  464MOL0     C61120   0.411   3.867   6.528 -0.6969  1.5118 -0.5199
  464MOL0     C61121   0.310   3.969   6.525  0.0132  0.9967 -1.0980
  464MOL0     C61122   0.193   3.935   6.454  0.4221 -0.2167 -0.1224
  464MOL0     C61123   0.166   3.816   6.400 -0.4196  0.6898 -0.2360
  464MOL0     O61124   0.042   3.792   6.337  0.0271 -0.3055 -0.0461
  464MOL0     C61125   0.042   3.702   6.219  0.5196  0.5437 -0.1890
  464MOL0     C61126  -0.099   3.694   6.139 -0.8994 -0.2524  0.4681
  464MOL0     C61127  -0.136   3.831   6.073 -0.2166  0.9474 -0.6630
  464MOL0     C61128  -0.031   3.893   5.982 -0.4248  0.7305  0.2991
  464MOL0     C61129  -0.090   4.007   5.896 -0.4212 -0.3489 -0.7365
  464MOL0     C61130  -0.157   3.948   5.768  0.3114 -0.7112 -0.4263
  464MOL0     C61131  -0.205   4.047   5.662 -0.0499  0.3137 -0.0186
  464MOL0     C61132  -0.268   3.972   5.540  0.5593 -0.8985 -0.0737
  464MOL0     N61133  -0.401   3.906   5.555 -0.4264 -0.7991 -0.8919
  464MOL0     C61134  -0.475   3.900   5.670  0.4388 -0.8381  0.0666
  464MOL0     C61135  -0.585   3.845   5.630  0.2704 -0.1296  0.3256
  464MOL0     C61136  -0.706   3.843   5.723 -0.8760  0.2311 -0.3071
  464MOL0     C61137  -0.755   3.983   5.735  0.9229 -0.1494  0.1502
  464MOL0     C61138  -0.840   4.014   5.860 -0.1427 -0.6136 -0.4569
  464MOL0     C61139  -0.983   3.945   5.841 -0.1047 -0.4651 -0.6394
  464MOL0     O61140  -1.055   3.994   5.725  0.1469  0.0414 -0.6499
  464MOL0     C61141  -1.186   4.028   5.732  0.3748  0.6279  0.0897
  464MOL0     C61142  -1.290   3.928   5.728 -0.7263  0.3538 -0.0086
  464MOL0     C61143  -1.423   3.959   5.739  0.1282 -0.2121 -0.6243
  464MOL0     C61144  -1.466   4.101   5.750 -0.4930  0.6893  0.0291
  464MOL0     C61145  -1.610   4.133   5.761  0.1327  0.1863  1.8189
  464MOL0     O61146  -1.696   4.024   5.785 -0.5191 -0.3235 -0.2377
  464MOL0     C61147  -1.826   4.059   5.805 -0.0892 -0.9515 -0.2941
  464MOL0     C61148  -1.924   4.030   5.704 -0.6659 -0.5007  0.2963
  464MOL0     C61149  -2.064   4.048   5.729  0.8101 -0.2291  0.4163
  464MOL0     C61150  -2.111   4.102   5.851  0.5077 -0.5661 -0.6476
  464MOL0     O61151  -2.245   4.118   5.883 -0.4644  0.2745 -0.5200
  464MOL0     C61152  -2.337   4.100   5.774  0.2667 -0.2978 -0.0233
  464MOL0     C61153  -2.479   4.101   5.834 -0.1546  0.1405 -0.5955
  464MOL0     C61154  -2.574   4.044   5.732  0.1733  0.4762 -2.1394
  464MOL0     C61155  -2.594   4.148   5.627 -0.0446  0.2093  0.0025
  464MOL0     C61156  -2.693   4.107   5.521  0.4588  0.2399 -0.1714
  464MOL0     C61157  -2.752   4.236   5.453 -0.8349 -0.7637 -0.3629
  464MOL0     C61158  -2.819   4.215   5.315 -0.3460  0.1887  0.2358
  464MOL0     C61159  -2.890   4.341   5.254 -0.1803 -0.7182  0.1260
  464MOL0    Cl61160  -3.038   4.386   5.334  0.0298 -0.1811 -0.0014
  464MOL0     C61161  -2.019   4.144   5.949  0.0877 -0.6903  0.1835
  464MOL0     C61162  -1.876   4.118   5.929  1.2172 -0.4426  0.2242
  464MOL0     O61163  -1.645   4.251   5.749  0.1478  0.3989 -0.1328
  464MOL0     C61164  -1.367   4.192   5.736 -0.5451  0.1660  0.8186
  464MOL0     C61165  -1.227   4.163   5.733 -0.3340  0.8197  0.4197
  464MOL0     N61166  -0.584   3.810   5.496  0.1252  0.2684  0.2632
  464MOL0     N61167  -0.470   3.851   5.457  0.2677  0.7839 -0.4531
  464MOL0     C61168   0.269   3.718   6.402 -0.1976 -0.1536  0.1031
  464MOL0     C61169   0.387   3.739   6.472  0.3105 -0.1807 -0.1621
  464MOL0     C61170   0.734   3.839   6.715 -0.2831  0.2758  0.8628
  464MOL0     C61171   0.866   3.796   6.707  0.1284  0.8499  0.4144
  464MOL0     C61172   0.939   3.813   6.824  0.8020  0.6233 -0.0896
  464MOL0     C61173   0.884   3.850   6.946 -0.5602 -0.3133 -0.6540
  464MOL0     O61174   0.957   3.870   7.064 -0.8078  0.8186 -0.2001
  464MOL0     C61175   1.100   3.860   7.079  0.4069 -0.5352 -0.5815
  464MOL0     C61176   1.170   3.988   7.044  0.1078 -0.1119  0.0110
  464MOL0     C61177   1.315   3.984   7.093 -0.1883  0.1198 -0.4703
  464MOL0     C61178   1.384   4.122   7.063 -0.2183  0.1489  0.0006
  464MOL0     C61179   1.471   4.148   7.172 -0.6011 -0.7050  0.0659
  464MOL0     C61180   1.528   4.165   7.284 -0.9039 -0.8288  0.1521
  464MOL0     C61181   0.751   3.885   6.946  1.1962  0.1676 -0.2336
  464MOL0     C61182   0.678   3.887   6.830 -0.0031  0.0645  0.2000
  464MOL0     H61183   0.334   4.064   6.571  0.4327  0.9242 -1.1661
  464MOL0     H61184   0.132   4.022   6.431  1.1762  0.3738  0.0917
  464MOL0     H61185   0.062   3.601   6.254 -1.2575 -0.5700 -2.1394
  464MOL0     H61186   0.118   3.746   6.153  3.9021 -1.0919  2.3494
  464MOL0     H61187  -0.173   3.668   6.215 -0.9073  0.1135  0.5854
  464MOL0     H61188  -0.096   3.611   6.068 -2.4140 -0.9309  1.1374
  464MOL0     H61189  -0.142   3.902   6.156  0.5543 -0.1358  0.3506
  464MOL0     H61190  -0.240   3.828   6.039 -0.8044  2.2321  0.8623
  464MOL0     H61191   0.056   3.934   6.033  1.5883 -0.6946 -1.7754
  464MOL0     H61192   0.018   3.817   5.920 -2.1849 -0.2038 -0.0151
  464MOL0     H61193   0.000   4.059   5.864 -0.6581 -0.8564 -2.2855
  464MOL0     H61194  -0.158   4.069   5.955 -0.8530 -2.2183  0.8440
  464MOL0     H61195  -0.245   3.901   5.812  0.6295 -0.8226  0.1069
  464MOL0     H61196  -0.080   3.880   5.731  1.9172  1.1487 -0.6519
  464MOL0     H61197  -0.281   4.120   5.692  0.1784  0.0766  1.2312
  464MOL0     H61198  -0.116   4.096   5.623  0.0436 -1.6270 -2.4445
  464MOL0     H61199  -0.207   3.882   5.526 -0.6001 -1.5153 -1.4832
  464MOL0     H61200  -0.266   4.038   5.453 -0.4113 -0.9609 -0.1518
  464MOL0     H61201  -0.437   3.934   5.765  0.2542  1.3451 -0.5973
  464MOL0     H61202  -0.677   3.793   5.816 -0.0379  0.4054 -0.4717
  464MOL0     H61203  -0.792   3.790   5.681 -1.5295  0.4613  0.6970
  464MOL0     H61204  -0.805   3.998   5.639 -0.4572 -3.0101  0.3226
  464MOL0     H61205  -0.673   4.056   5.738  1.0005 -0.0955 -1.9745
  464MOL0     H61206  -0.775   3.988   5.944  2.6086  2.5408 -1.3744
  464MOL0     H61207  -0.848   4.123   5.860 -0.7659 -0.5904  2.5335
  464MOL0     H61208  -1.044   3.965   5.930 -0.2080  0.7816 -0.9764
  464MOL0     H61209  -0.984   3.835   5.838  1.6900 -0.6790  2.2733
  464MOL0     H61210  -1.277   3.820   5.728  1.4161  0.5480 -1.2238
  464MOL0     H61211  -1.484   3.872   5.761 -0.6121  0.6182  0.7291
  464MOL0     H61212  -1.904   3.990   5.605 -0.2210 -0.9935  0.5776
  464MOL0     H61213  -2.118   3.990   5.654  1.1040  0.4997 -0.3722
  464MOL0     H61214  -2.319   4.002   5.729 -3.7712 -1.1601 -0.0930
  464MOL0     H61215  -2.332   4.181   5.701 -2.0899  0.9104  1.0274
  464MOL0     H61216  -2.508   4.198   5.875 -2.8095 -0.1777 -1.5051
  464MOL0     H61217  -2.483   4.037   5.922  1.3228  1.8814  0.8127
  464MOL0     H61218  -2.673   4.014   5.767  0.7575  2.0434  1.2370
  464MOL0     H61219  -2.535   3.948   5.698  0.0359 -1.2448  1.9506
  464MOL0     H61220  -2.623   4.244   5.671  0.3490  1.3046 -2.0081
  464MOL0     H61221  -2.496   4.168   5.581 -0.5117 -0.2149 -1.2286
  464MOL0     H61222  -2.775   4.042   5.555  0.7895 -1.0293 -1.6803
  464MOL0     H61223  -2.638   4.048   5.447 -1.7839  1.6314 -3.1618
  464MOL0     H61224  -2.666   4.294   5.421 -2.7384  1.5495 -1.6509
  464MOL0     H61225  -2.822   4.280   5.525  0.4393 -1.9639  1.7271
  464MOL0     H61226  -2.735   4.180   5.256 -1.1228  0.4268 -1.0517
  464MOL0     H61227  -2.893   4.134   5.311 -0.1475  0.0345 -0.4249
  464MOL0     H61228  -2.906   4.332   5.146  0.2859  0.0125 -0.0167
  464MOL0     H61229  -2.819   4.422   5.275  0.2523 -1.4438  1.5994
  464MOL0     H61230  -2.048   4.191   6.043 -0.3732  0.5832 -0.5629
  464MOL0     H61231  -1.810   4.149   6.010  1.2277  1.3979 -0.4474
  464MOL0     H61232  -1.384   4.298   5.719 -1.5000  0.0768  1.1545
  464MOL0     H61233  -1.155   4.244   5.736 -1.8357  2.1839  0.6611
  464MOL0     H61234   0.255   3.618   6.362  0.9348  0.5556 -2.2283
  464MOL0     H61235   0.454   3.654   6.471 -1.1240 -1.4631  1.9829
  464MOL0     H61236   0.894   3.754   6.611 -0.6277 -2.9385  1.6612
  464MOL0     H61237   1.046   3.794   6.824  1.2165  2.1175  3.4166
  464MOL0     H61238   1.146   3.790   7.008  0.7233 -0.2230 -0.6852
  464MOL0     H61239   1.129   3.831   7.180  2.0681  0.9941 -0.5732
  464MOL0     H61240   1.159   4.016   6.939 -1.4704  1.8582  0.6332
  464MOL0     H61241   1.116   4.068   7.095 -1.8457  0.7089 -3.0877
  464MOL0     H61242   1.360   3.903   7.034  1.9864  2.9218 -2.9982
  464MOL0     H61243   1.322   3.965   7.201  3.3145  2.5833 -0.0714
  464MOL0     H61244   1.443   4.118   6.970  0.5602  3.9868  0.1375
  464MOL0     H61245   1.318   4.207   7.040  0.8019  0.4621 -2.0078
  464MOL0     H61246   1.575   4.188   7.378 -0.0675 -2.3713  0.1560
  464MOL0     H61247   0.695   3.894   7.038 -0.5509 -0.0965 -1.2256
  464MOL0     H61248   0.574   3.916   6.837 -0.5309 -1.2147 -1.7162
  465MOL0     O61249  10.292   1.549   7.458  0.0486  0.8501 -0.2967
  465MOL0     C61250  10.395   1.506   7.403  0.1614  0.4390 -0.3677
  465MOL0     O61251  10.406   1.414   7.304  0.2898 -0.4656  0.2489
  465MOL0     C61252  10.302   1.352   7.240 -0.5772  0.4721 -1.6020
  465MOL0     C61253  10.350   1.276   7.134  0.0186  0.3924 -1.0513
  465MOL0     C61254  10.264   1.195   7.060  0.2009  0.0095 -0.5563
  465MOL0     C61255  10.122   1.192   7.084 -0.6221  0.3857  0.3658
  465MOL0     O61256  10.039   1.115   7.005  0.2509 -0.2152  0.0285
  465MOL0     C61257  10.082   1.040   6.892  0.2200  0.0541 -0.3029
  465MOL0     C61258   9.966   0.960   6.840 -0.1420  0.1354  0.0497
  465MOL0     C61259   9.984   0.905   6.703  0.2540  0.4400 -0.1079
  465MOL0     C61260  10.093   0.797   6.692 -0.3868  0.3069 -0.6639
  465MOL0     C61261  10.093   0.688   6.795 -0.6239 -0.2200 -0.3366
  465MOL0     C61262  10.206   0.595   6.776 -0.4779  1.0121  0.4860
  465MOL0     C61263  10.270   0.530   6.903 -0.2760 -0.4879 -0.4983
  465MOL0     C61264  10.350   0.635   6.979 -0.1286 -0.8590  0.2444
  465MOL0     N61265  10.431   0.732   6.909 -0.0219  0.0498  0.3082
  465MOL0     C61266  10.541   0.704   6.842  0.2025 -0.0418  0.4023
  465MOL0     C61267  10.599   0.824   6.823  0.5466 -0.0340  0.2935
  465MOL0     C61268  10.732   0.847   6.753 -0.8611  0.5302 -0.1562
  465MOL0     C61269  10.814   0.966   6.784 -0.5313 -0.5160  0.4010
  465MOL0     C61270  10.834   0.989   6.931  0.0503  0.0837 -0.2048
  465MOL0     C61271  10.925   0.890   7.000 -0.3750 -0.1928 -1.1012
  465MOL0     O61272  11.061   0.919   6.961  0.3347  0.3552  0.1533
  465MOL0     C61273  11.161   0.826   6.983  0.1792  1.3131  0.6021
  465MOL0     C61274  11.290   0.872   6.974 -0.4235 -0.5106 -0.2622
  465MOL0     C61275  11.400   0.793   7.007 -0.4847 -0.3295  0.0015
  465MOL0     C61276  11.388   0.664   7.044  0.8590 -0.1914 -0.0634
  465MOL0     C61277  11.505   0.579   7.071 -0.0528  0.2406  0.0843
  465MOL0     O61278  11.629   0.645   7.070 -1.0117  0.5895 -0.2506
  465MOL0     C61279  11.732   0.584   7.132  0.2136  0.2532 -0.2974
  465MOL0     C61280  11.737   0.484   7.233 -0.0418 -0.7524  0.5749
  465MOL0     C61281  11.855   0.431   7.289  0.1357 -0.1561  0.6256
  465MOL0     C61282  11.978   0.489   7.249 -0.6036 -0.0463  1.4963
  465MOL0     O61283  12.092   0.447   7.309 -0.6814  0.3681  0.1365
  465MOL0     C61284  12.220   0.503   7.290  0.2931  1.1145 -0.2674
  465MOL0     C61285  12.316   0.438   7.391 -0.3842 -0.7692 -0.1480
  465MOL0     C61286  12.449   0.521   7.384  0.0145 -0.1017  0.2821
  465MOL0     C61287  12.581   0.443   7.413  0.6765 -0.4929  0.8842
  465MOL0     C61288  12.651   0.482   7.542 -0.5777  0.1578 -0.7758
  465MOL0     C61289  12.790   0.413   7.553  0.1132  0.6593  0.2444
  465MOL0     C61290  12.903   0.479   7.477 -0.4315 -0.0042 -0.3747
  465MOL0     C61291  13.030   0.404   7.456 -0.4104  0.6219  0.1740
  465MOL0    Cl61292  13.039   0.313   7.304 -0.5849 -0.3756  0.0766
  465MOL0     C61293  11.980   0.594   7.158 -0.3595  0.5175  0.9853
  465MOL0     C61294  11.857   0.639   7.103  0.0234  0.1854  0.6364
  465MOL0     O61295  11.488   0.459   7.099  0.3623  0.1481  0.3893
  465MOL0     C61296  11.256   0.607   7.057 -0.5927  0.5997  0.3123
  465MOL0     C61297  11.145   0.689   7.017  0.2662 -0.3097 -0.2795
  465MOL0     N61298  10.525   0.928   6.877  0.0508 -0.1020  0.1766
  465MOL0     N61299  10.421   0.870   6.930 -0.4889  0.0858  0.3599
  465MOL0     C61300  10.079   1.262   7.201 -0.3452 -0.0270  1.1611
  465MOL0     C61301  10.167   1.337   7.279 -1.2392 -0.1747 -0.5715
  465MOL0     C61302  10.520   1.556   7.457 -0.1311 -0.3818  0.0311
  465MOL0     C61303  10.514   1.637   7.574 -0.7452 -0.3199  0.0861
  465MOL0     C61304  10.630   1.697   7.617  0.8926 -0.3399  0.4239
  465MOL0     C61305  10.755   1.682   7.544 -0.2500  0.2841 -0.3420
  465MOL0     O61306  10.867   1.754   7.565  0.1983  0.0933  0.2982
  465MOL0     C61307  10.850   1.875   7.645 -0.2466  0.1072 -0.1343
  465MOL0     C61308  10.887   1.839   7.790 -0.6276 -0.2475  0.4853
  465MOL0     C61309  10.861   1.952   7.893 -0.3985 -0.2901  0.6463
  465MOL0     C61310  10.927   1.916   8.027 -0.5664 -0.2375  0.5296
  465MOL0     C61311  11.071   1.926   8.013 -1.2746 -0.2802  0.0329
  465MOL0     C61312  11.193   1.940   8.020  0.1720 -0.1259 -0.3527
  465MOL0     C61313  10.761   1.586   7.442  0.3843  0.3000 -0.0599
  465MOL0     C61314  10.641   1.525   7.395 -0.0961 -0.5548 -0.0793
  465MOL0     H61315  10.452   1.260   7.100 -0.2381 -1.3123 -1.1075
  465MOL0     H61316  10.300   1.126   6.985  3.3049 -0.0376  0.8131
  465MOL0     H61317  10.164   0.972   6.916  0.4976 -0.1729 -1.7640
  465MOL0     H61318  10.126   1.115   6.825  1.0119  0.2639  0.4322
  465MOL0     H61319   9.889   1.038   6.834  1.4897  1.9375  1.2351
  465MOL0     H61320   9.940   0.889   6.919 -0.9536 -0.0811 -0.4021
  465MOL0     H61321  10.005   0.991   6.639  2.0677  0.9599  1.0817
  465MOL0     H61322   9.884   0.868   6.679 -0.9649  2.8890  0.8340
  465MOL0     H61323  10.073   0.757   6.592 -1.4073  2.2057 -1.2741
  465MOL0     H61324  10.188   0.851   6.693 -2.5313  4.5615  1.5601
  465MOL0     H61325  10.006   0.624   6.786 -1.9733  1.6739 -1.7082
  465MOL0     H61326  10.088   0.737   6.893 -0.6744 -1.4684  0.3004
  465MOL0     H61327  10.281   0.645   6.714 -1.3846  0.5403 -1.0228
  465MOL0     H61328  10.175   0.515   6.709  1.3760 -1.0488  1.9402
  465MOL0     H61329  10.194   0.493   6.972 -0.1290  0.1091 -0.0103
  465MOL0     H61330  10.333   0.447   6.869  0.9595 -2.1421  4.9158
  465MOL0     H61331  10.422   0.593   7.049 -0.3979  0.4452  1.3470
  465MOL0     H61332  10.275   0.695   7.032 -0.0221  0.7242 -1.2725
  465MOL0     H61333  10.583   0.610   6.808  2.1247  1.7814 -2.8491
  465MOL0     H61334  10.716   0.836   6.645 -2.9789 -0.1223  0.1736
  465MOL0     H61335  10.796   0.763   6.782 -0.5576  1.2615  1.3615
  465MOL0     H61336  10.771   1.058   6.743  1.8726 -0.7966 -3.1840
  465MOL0     H61337  10.915   0.961   6.742 -0.2156  0.6497  0.9629
  465MOL0     H61338  10.880   1.088   6.938  2.1861 -0.8144 -0.4423
  465MOL0     H61339  10.738   0.992   6.983  1.0287 -2.7824  2.0339
  465MOL0     H61340  10.891   0.790   6.973 -3.1135  0.5046 -0.4736
  465MOL0     H61341  10.911   0.908   7.107  2.1078  2.6626 -1.1041
  465MOL0     H61342  11.301   0.974   6.940  1.9573 -0.4960  0.3359
  465MOL0     H61343  11.498   0.839   6.999 -1.0712  0.7845 -1.0015
  465MOL0     H61344  11.641   0.447   7.269 -1.7684 -0.9457 -3.5845
  465MOL0     H61345  11.845   0.349   7.359 -2.1345 -0.7708 -0.3213
  465MOL0     H61346  12.226   0.612   7.292  0.8734  1.0744  0.7272
  465MOL0     H61347  12.261   0.470   7.194  1.5090 -2.6225  1.3375
  465MOL0     H61348  12.326   0.332   7.368 -1.1546 -1.3351  1.8507
  465MOL0     H61349  12.275   0.443   7.493 -0.5785  0.0235 -0.2604
  465MOL0     H61350  12.456   0.613   7.443  2.9912 -1.2885  2.0214
  465MOL0     H61351  12.442   0.556   7.281 -0.6922 -2.2714 -0.4629
  465MOL0     H61352  12.555   0.338   7.427 -0.1267  0.0076  3.7665
  465MOL0     H61353  12.660   0.452   7.337  1.0078  0.5988  1.3350
  465MOL0     H61354  12.593   0.459   7.632  0.8785 -2.5862 -0.4368
  465MOL0     H61355  12.677   0.588   7.546 -3.0062  0.7719  1.0987
  465MOL0     H61356  12.772   0.308   7.527  0.4534  0.4116  0.9857
  465MOL0     H61357  12.820   0.409   7.658 -0.2069 -3.4560  0.3287
  465MOL0     H61358  12.868   0.516   7.380  2.5262  1.2292 -1.0717
  465MOL0     H61359  12.930   0.566   7.539 -1.5973 -0.8406  1.4050
  465MOL0     H61360  13.045   0.326   7.532  0.7545  0.0235 -0.6380
  465MOL0     H61361  13.109   0.479   7.456 -0.0042  0.2327 -1.1797
  465MOL0     H61362  12.070   0.647   7.129  0.1811 -0.2233  1.2687
  465MOL0     H61363  11.861   0.710   7.021  0.0794 -1.6563 -1.0134
  465MOL0     H61364  11.239   0.503   7.081 -1.9858  1.0228  1.2801
  465MOL0     H61365  11.048   0.640   7.006 -0.5627  0.5699  2.4228
  465MOL0     H61366   9.974   1.275   7.227 -0.7218  1.7855 -0.9792
  465MOL0     H61367  10.125   1.392   7.363  0.2271  3.1966 -1.8441
  465MOL0     H61368  10.426   1.655   7.635  1.3698  2.6518  2.5783
  465MOL0     H61369  10.615   1.748   7.712  0.3000 -1.5424  0.9951
  465MOL0     H61370  10.759   1.934   7.635  1.6992  3.3607 -0.2030
  465MOL0     H61371  10.929   1.945   7.614  0.1118 -0.3637 -0.2930
  465MOL0     H61372  10.836   1.750   7.828 -0.5123 -0.5071  0.0428
  465MOL0     H61373  10.993   1.813   7.796 -1.1028 -2.4816  0.2995
  465MOL0     H61374  10.753   1.950   7.908 -0.5679 -1.0913 -0.5649
  465MOL0     H61375  10.895   2.055   7.878 -2.0628  0.3548  1.1417
  465MOL0     H61376  10.894   1.989   8.101 -0.8241 -0.6496  0.8210
  465MOL0     H61377  10.902   1.815   8.061 -2.1838  0.4368  1.4248
  465MOL0     H61378  11.293   1.941   8.058  0.0376 -2.1825  0.1599
  465MOL0     H61379  10.849   1.564   7.383  1.8544  0.3830  2.0359
  465MOL0     H61380  10.645   1.471   7.302  0.6757  0.6896 -0.7997
  466MOL0     O61381   1.221  10.442   4.186 -0.3069 -0.3667  0.6816
  466MOL0     C61382   1.232  10.563   4.161  0.3141 -0.0551 -0.4993
  466MOL0     O61383   1.135  10.652   4.143  0.4011 -0.5251  0.1804
  466MOL0     C61384   1.007  10.608   4.138  0.6691  0.0551 -0.1922
  466MOL0     C61385   0.945  10.498   4.199  0.6726 -0.1124  0.7348
  466MOL0     C61386   0.809  10.487   4.196  0.1955 -0.3120 -0.2191
  466MOL0     C61387   0.720  10.579   4.130 -0.5174 -0.4300 -0.2081
  466MOL0     O61388   0.584  10.565   4.104  0.3779  0.3860 -0.1026
  466MOL0     C61389   0.508  10.493   4.200  0.4313 -0.1469 -0.4981
  466MOL0     C61390   0.362  10.542   4.187 -0.4023 -0.0716 -1.3278
  466MOL0     C61391   0.302  10.544   4.055  0.3879  0.4925  0.2667
  466MOL0     C61392   0.148  10.554   4.081 -0.6755 -0.1375 -0.2396
  466MOL0     C61393   0.068  10.574   3.944  0.0560  0.5743  0.4186
  466MOL0     C61394  -0.087  10.604   3.958 -0.3934 -0.1119  0.1941
  466MOL0     C61395  -0.154  10.581   3.813 -0.6607  0.3846 -0.1508
  466MOL0     C61396  -0.305  10.562   3.827  0.3651  0.0204 -0.3262
  466MOL0     N61397  -0.378  10.655   3.907  0.1374 -0.2547  0.1097
  466MOL0     C61398  -0.382  10.793   3.893 -0.2717  0.2982 -0.9077
  466MOL0     C61399  -0.485  10.824   3.970 -0.2713 -0.9614  0.1333
  466MOL0     C61400  -0.510  10.972   3.991 -0.3722 -0.3289  0.1762
  466MOL0     C61401  -0.640  11.015   3.924  0.8258  0.5173 -0.2080
  466MOL0     C61402  -0.673  11.166   3.915  0.7417 -0.0744 -0.2136
  466MOL0     C61403  -0.838  11.196   3.903 -0.0510 -0.0724 -0.3851
  466MOL0     O61404  -0.872  11.126   3.783  0.1824  0.3971  1.5494
  466MOL0     C61405  -1.005  11.099   3.780  0.2297  0.7106 -0.4018
  466MOL0     C61406  -1.048  10.967   3.762 -0.8807 -0.4449 -0.7133
  466MOL0     C61407  -1.180  10.934   3.755  0.7853 -0.2713 -0.2286
  466MOL0     C61408  -1.290  11.019   3.773 -0.0471  0.1419  0.5505
  466MOL0     C61409  -1.437  10.986   3.755 -0.3175 -0.0028  0.7541
  466MOL0     O61410  -1.530  11.073   3.808 -0.7398 -0.4439 -0.2589
  466MOL0     C61411  -1.664  11.072   3.775  0.4480  0.3404  0.5036
  466MOL0     C61412  -1.722  11.039   3.646  0.2022  0.1529  0.5680
  466MOL0     C61413  -1.858  11.052   3.627  0.6105 -0.1866 -0.0905
  466MOL0     C61414  -1.940  11.105   3.731 -1.1987 -0.2502  0.8277
  466MOL0     O61415  -2.071  11.118   3.718  0.3289 -0.0238  0.6401
  466MOL0     C61416  -2.133  11.103   3.588  0.2582 -0.1086  0.2323
  466MOL0     C61417  -2.291  11.133   3.601  0.0449 -0.1721  0.6026
  466MOL0     C61418  -2.326  11.275   3.641 -1.0771 -0.3288 -0.4595
  466MOL0     C61419  -2.468  11.298   3.632  0.1393  0.5216 -0.9741
  466MOL0     C61420  -2.502  11.451   3.626  0.9279 -0.3088 -0.0346
  466MOL0     C61421  -2.408  11.547   3.693  0.1253 -0.1990  0.6842
  466MOL0     C61422  -2.458  11.694   3.700  0.4946  0.1880  0.4900
  466MOL0     C61423  -2.463  11.746   3.556  0.4187  0.3425 -0.6635
  466MOL0    Cl61424  -2.616  11.725   3.468  0.7829  0.5771 -0.0289
  466MOL0     C61425  -1.887  11.147   3.850 -0.1209 -0.0610  1.3658
  466MOL0     C61426  -1.749  11.126   3.877  1.0374 -0.2490 -0.0976
  466MOL0     O61427  -1.469  10.879   3.701 -0.2347  0.0790  0.4321
  466MOL0     C61428  -1.249  11.148   3.798  0.5979 -0.5832 -0.2263
  466MOL0     C61429  -1.111  11.190   3.796  0.0314 -0.3176 -0.3125
  466MOL0     N61430  -0.549  10.715   4.018  0.3454 -0.4825  0.4917
  466MOL0     N61431  -0.479  10.618   3.989  0.6963  0.0816  0.3221
  466MOL0     C61432   0.783  10.689   4.071 -1.0391  0.4688 -0.0857
  466MOL0     C61433   0.919  10.706   4.081  0.8701 -0.2322  0.7634
  466MOL0     C61434   1.366  10.622   4.138  0.2311 -0.3550 -0.7339
  466MOL0     C61435   1.385  10.768   4.139 -0.2212  0.6410  0.6831
  466MOL0     C61436   1.510  10.824   4.106 -0.1347 -0.5609  0.7357
  466MOL0     C61437   1.615  10.736   4.099 -0.6653  0.1965  0.7888
  466MOL0     O61438   1.734  10.797   4.085 -0.0305  0.1302  0.6760
  466MOL0     C61439   1.815  10.815   4.202 -0.4358 -1.0830  0.4375
  466MOL0     C61440   1.773  10.932   4.289 -0.0517  0.8099  0.3694
  466MOL0     C61441   1.807  11.061   4.214 -0.0921  0.2610  0.1576
  466MOL0     C61442   1.781  11.178   4.304 -0.2183  1.0885  0.0622
  466MOL0     C61443   1.804  11.307   4.231  0.2806 -0.0180 -0.6037
  466MOL0     C61444   1.843  11.398   4.162 -0.7312 -0.1945  0.3322
  466MOL0     C61445   1.599  10.596   4.114 -0.2892 -0.7592 -0.4168
  466MOL0     C61446   1.477  10.536   4.130  0.2866  0.3513 -0.3547
  466MOL0     H61447   1.006  10.422   4.247 -1.1443 -1.4835  0.9883
  466MOL0     H61448   0.759  10.403   4.244 -2.0246 -0.7053 -2.9308
  466MOL0     H61449   0.552  10.507   4.299 -0.3300  1.0949 -0.3169
  466MOL0     H61450   0.516  10.386   4.178  2.0985  0.0385 -0.9624
  466MOL0     H61451   0.356  10.644   4.226 -3.1698 -1.5767  2.7712
  466MOL0     H61452   0.297  10.488   4.256  0.9688 -1.9448 -1.4453
  466MOL0     H61453   0.311  10.449   4.002 -1.7993  0.5867 -0.3712
  466MOL0     H61454   0.336  10.631   3.999 -0.1232  1.9612  2.1171
  466MOL0     H61455   0.119  10.462   4.133  0.8887 -0.5463 -0.0325
  466MOL0     H61456   0.119  10.638   4.145 -4.1460 -1.8728  0.7518
  466MOL0     H61457   0.079  10.477   3.895 -2.0453 -0.5645  2.0049
  466MOL0     H61458   0.116  10.655   3.889  1.6076 -0.5439  0.0446
  466MOL0     H61459  -0.096  10.705   3.999  1.6641  0.0592  0.3103
  466MOL0     H61460  -0.134  10.536   4.030  1.3269 -2.4009 -0.7060
  466MOL0     H61461  -0.122  10.667   3.754 -0.5717 -0.0658 -0.7655
  466MOL0     H61462  -0.114  10.495   3.759  0.3091  1.0794 -0.5681
  466MOL0     H61463  -0.323  10.457   3.847 -2.4439  0.5501  0.3216
  466MOL0     H61464  -0.333  10.575   3.722  0.3424  1.2814 -0.1876
  466MOL0     H61465  -0.310  10.851   3.836 -1.8717  0.4876 -2.8134
  466MOL0     H61466  -0.427  11.038   3.961  0.1548 -0.4591  1.2957
  466MOL0     H61467  -0.510  10.992   4.098 -2.1706 -0.4884  0.2233
  466MOL0     H61468  -0.721  10.967   3.981  0.4019  1.3555 -0.0817
  466MOL0     H61469  -0.632  10.969   3.825  3.0478  0.2541  0.0404
  466MOL0     H61470  -0.636  11.218   4.004  1.5457 -0.3733 -0.3690
  466MOL0     H61471  -0.636  11.189   3.815 -0.3909 -0.2566 -0.6938
  466MOL0     H61472  -0.840  11.304   3.887 -1.8190 -0.2310 -1.5045
  466MOL0     H61473  -0.897  11.174   3.992  0.5659 -0.2236 -0.0091
  466MOL0     H61474  -0.975  10.889   3.742 -2.7316 -2.3047 -0.6796
  466MOL0     H61475  -1.192  10.828   3.734  1.8987 -0.3435 -0.5361
  466MOL0     H61476  -1.668  11.010   3.557 -0.0219  2.5489 -0.4317
  466MOL0     H61477  -1.905  11.031   3.531 -0.4479 -1.5371  0.6894
  466MOL0     H61478  -2.120  11.001   3.550 -2.9356  0.9566 -4.6828
  466MOL0     H61479  -2.086  11.171   3.516  0.3215 -0.3789  0.0160
  466MOL0     H61480  -2.321  11.068   3.684 -2.1300  2.4322  2.0256
  466MOL0     H61481  -2.352  11.103   3.516  1.7369 -0.0477 -0.7138
  466MOL0     H61482  -2.275  11.344   3.573  0.5662 -1.3741 -0.3390
  466MOL0     H61483  -2.290  11.304   3.740  2.2148 -1.9530 -1.0571
  466MOL0     H61484  -2.517  11.244   3.551 -0.8844 -2.4316  1.4364
  466MOL0     H61485  -2.513  11.253   3.721  1.6833 -2.2849 -1.5091
  466MOL0     H61486  -2.608  11.469   3.645 -0.5240 -1.9824 -5.1302
  466MOL0     H61487  -2.490  11.469   3.519 -0.6608 -0.9655 -0.3398
  466MOL0     H61488  -2.306  11.560   3.657 -0.8865  0.4181 -2.2034
  466MOL0     H61489  -2.393  11.502   3.792 -0.2934  0.7526  1.1970
  466MOL0     H61490  -2.554  11.700   3.752 -0.0772 -3.5407  0.1544
  466MOL0     H61491  -2.385  11.760   3.748  0.5498 -0.0507  0.7418
  466MOL0     H61492  -2.378  11.704   3.502  1.6174  0.9944  0.6452
  466MOL0     H61493  -2.451  11.855   3.564 -1.2370  0.4834  0.4129
  466MOL0     H61494  -1.951  11.211   3.909 -0.3660  0.3988  0.6137
  466MOL0     H61495  -1.704  11.174   3.963  1.1775 -0.8168  0.1519
  466MOL0     H61496  -1.326  11.222   3.817  0.1647 -1.0385 -0.1937
  466MOL0     H61497  -1.086  11.295   3.810 -0.1836 -0.1815 -0.9315
  466MOL0     H61498   0.719  10.761   4.021  0.1273  1.3983 -0.2908
  466MOL0     H61499   0.955  10.795   4.030 -5.0773  1.6057 -1.1186
  466MOL0     H61500   1.305  10.839   4.161 -0.2827  0.6880  0.3111
  466MOL0     H61501   1.531  10.930   4.094  0.4607 -0.9604 -2.5018
  466MOL0     H61502   1.913  10.834   4.159  0.0531 -2.2851  1.0004
  466MOL0     H61503   1.825  10.722   4.258  2.5848 -1.2981 -0.3140
  466MOL0     H61504   1.675  10.919   4.334 -1.3252  0.9210 -2.1862
  466MOL0     H61505   1.842  10.927   4.373  0.3338 -0.0157  0.0196
  466MOL0     H61506   1.743  11.071   4.126  2.5483 -1.2380 -2.0553
  466MOL0     H61507   1.911  11.054   4.183  0.2578  0.1766  1.2902
  466MOL0     H61508   1.676  11.171   4.334 -1.1034  1.1914 -2.7747
  466MOL0     H61509   1.840  11.168   4.396 -1.3184  1.9825  0.9061
  466MOL0     H61510   1.879  11.483   4.107 -0.9075  1.6454  2.8760
  466MOL0     H61511   1.685  10.530   4.108  0.9631  0.9592 -3.0873
  466MOL0     H61512   1.465  10.431   4.154 -0.9153  0.4704 -0.3690
  467MOL0     O61513  10.640   4.148   3.755  0.2588 -0.5416  0.5383
  467MOL0     C61514  10.581   4.212   3.840  0.0823  0.4952  0.0375
  467MOL0     O61515  10.449   4.233   3.851 -0.5906  0.7149  0.4913
  467MOL0     C61516  10.352   4.157   3.789 -0.3167 -0.5684 -1.0277
  467MOL0     C61517  10.362   4.014   3.791  0.0953 -0.2640 -0.4362
  467MOL0     C61518  10.254   3.939   3.733  0.0785  0.0372  0.5253
  467MOL0     C61519  10.140   4.001   3.670  0.1406 -0.1728 -0.4932
  467MOL0     O61520  10.040   3.950   3.595  0.7235 -0.7244  0.2131
  467MOL0     C61521   9.996   3.816   3.606 -1.1024  0.4113  0.3180
  467MOL0     C61522   9.858   3.810   3.544  0.3196 -0.0323 -0.9534
  467MOL0     C61523   9.798   3.666   3.545  0.0175 -0.0971  0.5045
  467MOL0     C61524   9.681   3.660   3.444 -0.3625 -0.0702  0.6605
  467MOL0     C61525   9.610   3.528   3.443 -1.6157  0.3015 -0.7570
  467MOL0     C61526   9.497   3.522   3.342  0.2377 -0.1424 -0.4623
  467MOL0     C61527   9.537   3.516   3.194 -0.1145  0.5373  0.2509
  467MOL0     C61528   9.414   3.507   3.108  0.0784 -0.9919 -0.8812
  467MOL0     N61529   9.350   3.377   3.114 -0.2831  0.1374 -0.3125
  467MOL0     C61530   9.220   3.364   3.084  0.1079 -0.5151 -0.4490
  467MOL0     C61531   9.204   3.230   3.066  0.0300 -0.5878  0.8542
  467MOL0     C61532   9.080   3.168   3.024  0.0291  0.6668 -0.2536
  467MOL0     C61533   9.088   3.138   2.872  0.5952 -0.3477  0.1171
  467MOL0     C61534   8.964   3.051   2.832 -0.1245  0.0545 -0.4058
  467MOL0     C61535   8.833   3.136   2.831 -0.6949 -0.2490 -0.0229
  467MOL0     O61536   8.742   3.094   2.729 -1.1053  0.4222 -0.0683
  467MOL0     C61537   8.622   3.150   2.712  0.2296 -0.6122 -0.2116
  467MOL0     C61538   8.598   3.284   2.724  0.5300  0.4550 -0.2991
  467MOL0     C61539   8.471   3.340   2.707 -0.0893  0.5677  0.1538
  467MOL0     C61540   8.363   3.260   2.686  0.5730  0.5501 -0.1418
  467MOL0     C61541   8.228   3.327   2.671 -0.5267 -0.4564 -0.2320
  467MOL0     O61542   8.125   3.241   2.632 -0.3502 -0.4429 -0.6551
  467MOL0     C61543   8.009   3.301   2.596 -0.6955  0.2303 -0.1719
  467MOL0     C61544   7.893   3.254   2.652  0.9501  0.2466  0.6624
  467MOL0     C61545   7.770   3.302   2.604  0.0564 -0.0341 -0.3063
  467MOL0     C61546   7.767   3.408   2.517  0.6000 -0.5636 -0.7320
  467MOL0     O61547   7.650   3.464   2.480 -0.3009 -0.7429  1.0355
  467MOL0     C61548   7.588   3.545   2.586 -0.0863 -0.7381  0.2106
  467MOL0     C61549   7.489   3.647   2.525 -0.1434 -0.1040 -0.0294
  467MOL0     C61550   7.448   3.762   2.623  0.7141  0.9604  0.1332
  467MOL0     C61551   7.342   3.702   2.720  1.0598 -0.7544  0.4581
  467MOL0     C61552   7.318   3.795   2.836  0.4873 -0.4416 -0.4614
  467MOL0     C61553   7.241   3.929   2.813  0.1302  0.1139 -0.5712
  467MOL0     C61554   7.105   3.905   2.741 -0.3878  0.1351  0.0256
  467MOL0     C61555   6.995   3.999   2.781  0.8058 -0.1089  1.1058
  467MOL0    Cl61556   6.844   3.955   2.679 -0.2455 -0.4403 -0.0920
  467MOL0     C61557   7.883   3.450   2.454  0.0680 -1.1169 -0.6140
  467MOL0     C61558   8.007   3.398   2.491 -0.0175  0.0595  0.6123
  467MOL0     O61559   8.216   3.445   2.689  0.1477 -0.2096 -0.7749
  467MOL0     C61560   8.386   3.124   2.687  0.4388 -0.0721  0.0704
  467MOL0     C61561   8.512   3.074   2.690 -0.8513 -0.8184  0.1247
  467MOL0     N61562   9.328   3.169   3.084  0.1641 -0.2571 -0.4109
  467MOL0     N61563   9.407   3.255   3.116 -0.4216  0.4634  0.6899
  467MOL0     C61564  10.147   4.144   3.668 -0.4517 -0.1389 -0.6605
  467MOL0     C61565  10.244   4.222   3.729 -0.2398 -0.2857 -0.3626
  467MOL0     C61566  10.660   4.278   3.945  0.2178  0.2594  0.4661
  467MOL0     C61567  10.795   4.238   3.968  0.7590  0.2272 -0.4232
  467MOL0     C61568  10.880   4.310   4.052  0.3729  0.9172 -0.2765
  467MOL0     C61569  10.830   4.417   4.126 -0.0626 -0.1082 -0.5938
  467MOL0     O61570  10.907   4.462   4.238  0.6395 -0.0604  0.1666
  467MOL0     C61571  10.915   4.607   4.241  0.7457 -0.2699  0.8890
  467MOL0     C61572  11.010   4.643   4.354 -0.1003 -0.2346  0.4494
  467MOL0     C61573  11.145   4.575   4.330 -0.4513  1.0984 -0.3086
  467MOL0     C61574  11.246   4.628   4.428  0.3304  0.3851  0.3673
  467MOL0     C61575  11.360   4.535   4.418 -0.3401  0.2052 -0.1115
  467MOL0     C61576  11.445   4.446   4.416  0.1326  0.2704  0.7932
  467MOL0     C61577  10.699   4.449   4.106 -0.3623 -0.4010 -0.7829
  467MOL0     C61578  10.610   4.380   4.023  0.4061  0.7776 -0.4576
  467MOL0     H61579  10.439   3.965   3.850 -0.1354 -1.0308 -0.7731
  467MOL0     H61580  10.254   3.831   3.744 -1.1091  0.1289  1.6941
  467MOL0     H61581   9.992   3.793   3.713 -3.0818 -1.8259 -0.1341
  467MOL0     H61582  10.065   3.745   3.559 -3.5628 -0.5391 -2.1325
  467MOL0     H61583   9.855   3.861   3.448 -0.4749  3.1660  0.6392
  467MOL0     H61584   9.797   3.877   3.605  2.9394  0.4363  1.3460
  467MOL0     H61585   9.783   3.627   3.646  1.9188  0.2993  0.9883
  467MOL0     H61586   9.884   3.607   3.510  1.0082  0.4631  1.8725
  467MOL0     H61587   9.608   3.736   3.475 -1.1166 -0.9402  1.0562
  467MOL0     H61588   9.723   3.669   3.343 -2.7135 -1.2427 -0.5053
  467MOL0     H61589   9.577   3.500   3.543 -1.9450 -0.0193 -0.9499
  467MOL0     H61590   9.689   3.455   3.423  2.2950  4.2672 -1.3440
  467MOL0     H61591   9.429   3.606   3.362 -2.7468 -2.9651  2.6557
  467MOL0     H61592   9.436   3.436   3.371  1.0092 -0.8584 -0.9269
  467MOL0     H61593   9.598   3.600   3.160  1.5341 -0.0723  1.5632
  467MOL0     H61594   9.606   3.435   3.168  2.1629  2.8256 -1.3954
  467MOL0     H61595   9.448   3.519   3.005  0.3694 -0.0818 -0.6844
  467MOL0     H61596   9.340   3.586   3.123  0.3437 -0.4668 -2.1940
  467MOL0     H61597   9.141   3.438   3.082 -2.3071 -2.9358 -0.4305
  467MOL0     H61598   8.995   3.232   3.050  0.2598  1.7511 -2.0283
  467MOL0     H61599   9.081   3.079   3.087  3.1414  0.2486 -0.7449
  467MOL0     H61600   9.174   3.077   2.845 -0.3695 -1.6821 -0.0632
  467MOL0     H61601   9.084   3.229   2.812  1.4560  2.9514  4.5540
  467MOL0     H61602   8.978   3.005   2.734 -0.2777 -1.4593  0.2457
  467MOL0     H61603   8.957   2.977   2.912 -0.9708  2.5650  2.0172
  467MOL0     H61604   8.855   3.241   2.810 -1.2309  0.1760  1.3804
  467MOL0     H61605   8.797   3.129   2.935  0.4839 -1.6958  0.3274
  467MOL0     H61606   8.682   3.352   2.724  1.9396 -1.2139  0.3194
  467MOL0     H61607   8.461   3.448   2.715 -2.6921  0.3369  0.7076
  467MOL0     H61608   7.883   3.182   2.732 -0.9108 -1.7057 -1.2005
  467MOL0     H61609   7.675   3.271   2.647 -0.0687  1.1678  0.3382
  467MOL0     H61610   7.663   3.609   2.633 -0.2389  0.3777 -1.0080
  467MOL0     H61611   7.535   3.481   2.658 -0.7757 -0.1228  0.2661
  467MOL0     H61612   7.407   3.596   2.474  1.4720 -2.2224 -0.6530
  467MOL0     H61613   7.544   3.707   2.452 -0.8816  2.7812  1.6022
  467MOL0     H61614   7.409   3.844   2.564 -1.0200 -0.1490 -0.3225
  467MOL0     H61615   7.534   3.792   2.684 -0.1177  2.9993  0.3500
  467MOL0     H61616   7.249   3.682   2.666  1.2968  1.3907 -0.8428
  467MOL0     H61617   7.365   3.602   2.760 -0.3699 -0.7879  1.2464
  467MOL0     H61618   7.412   3.804   2.890  0.3786  0.0190 -0.3456
  467MOL0     H61619   7.252   3.750   2.911 -0.9820  2.2479  0.0063
  467MOL0     H61620   7.300   3.997   2.750 -1.2813  2.2182  0.2696
  467MOL0     H61621   7.231   3.980   2.909 -1.9478 -2.5202  0.7498
  467MOL0     H61622   7.112   3.902   2.632 -3.0499  0.0725 -0.2115
  467MOL0     H61623   7.072   3.804   2.767  0.8260 -0.1938  0.3744
  467MOL0     H61624   7.019   4.101   2.749  1.8731 -0.3511  1.0998
  467MOL0     H61625   6.972   4.002   2.888  1.7252  1.0606  1.2889
  467MOL0     H61626   7.876   3.527   2.378 -3.0075 -2.2645 -1.6545
  467MOL0     H61627   8.103   3.426   2.447 -1.0290  0.9050 -1.1920
  467MOL0     H61628   8.300   3.057   2.685  0.9802 -0.7699 -0.0060
  467MOL0     H61629   8.537   2.968   2.679  1.2155 -0.4903  1.1158
  467MOL0     H61630  10.064   4.194   3.618 -0.9206 -0.0349  0.1998
  467MOL0     H61631  10.224   4.329   3.733 -0.2461 -0.3142  0.4733
  467MOL0     H61632  10.837   4.152   3.916  0.2411 -0.2396 -0.0746
  467MOL0     H61633  10.975   4.268   4.085 -1.2615 -1.2262  2.0512
  467MOL0     H61634  10.815   4.651   4.243  0.9637  0.9609 -3.9528
  467MOL0     H61635  10.957   4.642   4.146 -2.8488  0.3578 -0.6396
  467MOL0     H61636  11.024   4.751   4.363  0.3911 -0.0545 -1.9861
  467MOL0     H61637  10.972   4.594   4.445  0.9238 -0.4471  0.7700
  467MOL0     H61638  11.174   4.589   4.226 -2.3533 -1.0878 -1.2399
  467MOL0     H61639  11.137   4.466   4.335  0.7905  1.0514  1.1518
  467MOL0     H61640  11.277   4.732   4.414  0.2549  0.4879  0.9624
  467MOL0     H61641  11.200   4.624   4.527 -0.6283  2.8842  0.0875
  467MOL0     H61642  11.514   4.365   4.410  0.1962  0.3999 -0.3480
  467MOL0     H61643  10.671   4.530   4.172  1.4656  0.3282 -0.8514
  467MOL0     H61644  10.510   4.419   4.006  0.3816  1.0204  0.1990
  468MOL0     O61645   9.388   3.409   4.747  0.5136  0.0060 -0.3690
  468MOL0     C61646   9.421   3.352   4.851  0.0354 -0.4270 -0.2687
  468MOL0     O61647   9.526   3.266   4.865 -0.4547  0.8545 -0.8826
  468MOL0     C61648   9.605   3.247   4.750 -0.0510  0.0351 -0.3106
  468MOL0     C61649   9.567   3.157   4.641  0.3709 -0.5352 -0.1737
  468MOL0     C61650   9.647   3.147   4.526 -0.0604  0.0565 -1.0995
  468MOL0     C61651   9.780   3.216   4.526  0.0346  0.9984  0.8245
  468MOL0     O61652   9.871   3.201   4.423 -0.6529 -0.0087  0.6813
  468MOL0     C61653   9.843   3.099   4.319  0.1023 -0.2838 -0.1701
  468MOL0     C61654   9.968   3.096   4.244  0.1450 -0.8245 -0.1757
  468MOL0     C61655   9.958   3.028   4.099  0.3100 -0.4053  0.6089
  468MOL0     C61656  10.100   3.032   4.043 -0.5656  0.6121  0.2968
  468MOL0     C61657  10.128   2.942   3.917  0.7162  0.2343 -0.6242
  468MOL0     C61658  10.274   2.968   3.859  0.6190 -0.1830 -0.2125
  468MOL0     C61659  10.282   2.911   3.714  0.2493  0.0271  1.1387
  468MOL0     C61660  10.425   2.899   3.682 -0.1673  0.2023 -0.3049
  468MOL0     N61661  10.478   3.035   3.657  0.8827 -0.2682 -0.1420
  468MOL0     C61662  10.446   3.107   3.540 -0.0455 -0.7692 -0.1044
  468MOL0     C61663  10.534   3.208   3.550  0.3471  0.1114  0.2056
  468MOL0     C61664  10.560   3.305   3.437  0.4590  0.1716  0.5364
  468MOL0     C61665  10.506   3.445   3.467  0.1625  0.1564  0.4571
  468MOL0     C61666  10.360   3.446   3.497 -0.4338 -0.0508  0.7968
  468MOL0     C61667  10.285   3.417   3.362 -0.1243  0.7876  0.9581
  468MOL0     O61668  10.265   3.275   3.350 -0.0511  0.0281  0.0155
  468MOL0     C61669  10.158   3.211   3.411  0.1291 -1.3691 -0.0808
  468MOL0     C61670  10.071   3.281   3.503  0.2012 -0.1113 -0.7454
  468MOL0     C61671   9.960   3.214   3.552  0.0183  0.2036  0.7904
  468MOL0     C61672   9.923   3.086   3.518  1.0401  0.0989  0.7721
  468MOL0     C61673   9.801   3.032   3.567 -0.0619 -0.6981 -0.0027
  468MOL0     O61674   9.698   3.127   3.592  0.8292 -0.5983 -0.3532
  468MOL0     C61675   9.575   3.086   3.642  0.9388  0.0758 -0.7716
  468MOL0     C61676   9.568   3.008   3.760 -0.0471 -0.1603 -0.3069
  468MOL0     C61677   9.445   3.000   3.825 -0.1370 -0.1671 -0.4734
  468MOL0     C61678   9.325   3.031   3.761 -0.0243 -0.3704  0.3211
  468MOL0     O61679   9.202   2.990   3.814 -0.6871  0.1300 -0.7400
  468MOL0     C61680   9.081   3.046   3.754  0.4490  0.7702  0.1551
  468MOL0     C61681   8.961   2.971   3.826  0.9917  0.1476 -0.2550
  468MOL0     C61682   8.937   2.825   3.791 -0.0636 -0.9909  0.8857
  468MOL0     C61683   8.835   2.761   3.881 -0.0095 -0.3169  0.4067
  468MOL0     C61684   8.763   2.642   3.812  0.1155 -0.0798  0.3011
  468MOL0     C61685   8.684   2.571   3.922 -0.3812  0.9165 -0.7992
  468MOL0     C61686   8.580   2.463   3.860 -0.5151 -0.5020  0.2921
  468MOL0     C61687   8.473   2.424   3.955 -1.1570 -0.2332 -0.2931
  468MOL0    Cl61688   8.324   2.516   3.908 -0.1397 -0.0208 -0.0563
  468MOL0     C61689   9.331   3.102   3.641  0.1322  0.8489  0.1152
  468MOL0     C61690   9.456   3.133   3.581  0.2235 -0.0606 -0.2008
  468MOL0     O61691   9.787   2.914   3.590  0.2792 -0.8395  0.6170
  468MOL0     C61692  10.008   3.013   3.433  0.1909 -0.2917  0.1469
  468MOL0     C61693  10.123   3.075   3.384  0.5830 -0.4747 -1.2097
  468MOL0     N61694  10.620   3.196   3.656  0.2133  0.6103 -0.5352
  468MOL0     N61695  10.592   3.086   3.720  0.3858 -0.4976  0.3174
  468MOL0     C61696   9.814   3.292   4.640  0.8641  0.4064 -0.3791
  468MOL0     C61697   9.732   3.307   4.746  0.5322  0.0818 -0.3142
  468MOL0     C61698   9.338   3.353   4.977 -0.6196 -0.1729  0.6694
  468MOL0     C61699   9.232   3.441   4.974  0.5919 -0.3875 -0.6667
  468MOL0     C61700   9.145   3.425   5.078  0.4165 -0.6033 -0.3044
  468MOL0     C61701   9.169   3.343   5.185 -0.2313  0.2173  0.6640
  468MOL0     O61702   9.075   3.349   5.287 -0.6776 -0.1507 -0.9171
  468MOL0     C61703   9.094   3.265   5.402 -0.5041  0.6005  0.0686
  468MOL0     C61704   9.008   3.311   5.517  0.3165  0.1919 -0.4967
  468MOL0     C61705   8.984   3.186   5.611 -0.2736 -1.0087 -0.5270
  468MOL0     C61706   8.908   3.225   5.741 -0.3269  1.4280 -0.0419
  468MOL0     C61707   8.760   3.207   5.725  0.3891  0.2585 -0.4124
  468MOL0     C61708   8.637   3.200   5.698 -0.1408  0.1978  0.1294
  468MOL0     C61709   9.283   3.259   5.187  0.6188 -0.3168 -0.5555
  468MOL0     C61710   9.371   3.272   5.082 -0.4384 -0.0176 -1.0154
  468MOL0     H61711   9.468   3.113   4.631  1.3084 -2.8940  0.2975
  468MOL0     H61712   9.607   3.086   4.445  0.2491 -0.1388 -1.1056
  468MOL0     H61713   9.758   3.133   4.258  0.1857  2.1806  0.9471
  468MOL0     H61714   9.806   3.005   4.361  0.2678 -0.0498  0.5299
  468MOL0     H61715  10.050   3.064   4.309 -1.9049 -1.1117  2.4121
  468MOL0     H61716   9.987   3.202   4.228 -1.6000 -0.3440  0.6555
  468MOL0     H61717   9.891   3.082   4.032  1.7034 -0.4043 -0.8395
  468MOL0     H61718   9.916   2.928   4.105 -2.2202  0.3674 -2.1082
  468MOL0     H61719  10.129   3.133   4.013 -4.4172  1.5392 -0.8756
  468MOL0     H61720  10.163   3.003   4.127 -1.1178 -1.3337  0.0774
  468MOL0     H61721  10.054   2.955   3.838  0.9418  0.1743 -0.8447
  468MOL0     H61722  10.123   2.838   3.950  0.8142  0.1354 -0.9170
  468MOL0     H61723  10.341   2.927   3.935  0.1892  1.8640  1.3340
  468MOL0     H61724  10.289   3.076   3.852 -4.4855  0.8368  1.0633
  468MOL0     H61725  10.245   2.808   3.706  0.6003  0.0207 -0.9410
  468MOL0     H61726  10.222   2.970   3.644  1.5552  0.0128 -0.0408
  468MOL0     H61727  10.433   2.835   3.593 -1.1353 -1.6723  0.8821
  468MOL0     H61728  10.483   2.862   3.767  1.4266 -1.9060 -2.1783
  468MOL0     H61729  10.394   3.089   3.446  2.4339  0.5296 -1.8507
  468MOL0     H61730  10.518   3.283   3.339  0.4369  1.1743  0.3147
  468MOL0     H61731  10.668   3.322   3.431  0.5631 -0.7219 -0.3395
  468MOL0     H61732  10.525   3.512   3.383  2.2062  0.7982  1.3652
  468MOL0     H61733  10.551   3.503   3.548 -2.3835  0.4669  1.7429
  468MOL0     H61734  10.326   3.381   3.578 -1.0487  0.1135  0.6743
  468MOL0     H61735  10.342   3.548   3.530  1.5904  0.4356  0.5308
  468MOL0     H61736  10.335   3.451   3.270  1.1065  0.1538  1.3772
  468MOL0     H61737  10.183   3.456   3.362 -0.2546  0.6365 -1.5527
  468MOL0     H61738  10.095   3.383   3.530 -1.4439 -0.3171  1.7727
  468MOL0     H61739   9.897   3.262   3.625  1.0281  4.0265 -0.6465
  468MOL0     H61740   9.643   2.958   3.819 -0.6429 -2.3118 -1.2687
  468MOL0     H61741   9.437   2.940   3.915  1.8056 -0.6771 -0.5964
  468MOL0     H61742   9.068   3.021   3.649  1.2065 -1.4986  0.5478
  468MOL0     H61743   9.072   3.154   3.766 -0.2387  0.8711 -1.1353
  468MOL0     H61744   8.872   3.025   3.792 -0.1171 -0.6850  1.1618
  468MOL0     H61745   8.965   2.981   3.935 -3.5847 -0.1205  0.1282
  468MOL0     H61746   9.034   2.774   3.784  0.1151 -0.4541 -1.3300
  468MOL0     H61747   8.906   2.823   3.686  0.4410  0.8391  0.6674
  468MOL0     H61748   8.889   2.731   3.972  1.0847  0.2382 -0.0432
  468MOL0     H61749   8.755   2.833   3.899 -1.0467 -1.1404 -0.7269
  468MOL0     H61750   8.833   2.583   3.752 -0.1446  0.6725 -0.7735
  468MOL0     H61751   8.696   2.691   3.741  1.8364  0.1049 -1.2776
  468MOL0     H61752   8.634   2.648   3.982 -0.9898 -0.7789  0.9588
  468MOL0     H61753   8.750   2.507   3.980 -0.0899  0.5676 -1.4959
  468MOL0     H61754   8.544   2.514   3.770 -2.2175  0.2882  1.3576
  468MOL0     H61755   8.633   2.377   3.820 -1.4647 -1.0870  0.2625
  468MOL0     H61756   8.494   2.444   4.060  1.2398  2.6188 -1.1910
  468MOL0     H61757   8.470   2.315   3.960  2.0374 -0.3580  2.0614
  468MOL0     H61758   9.241   3.129   3.587 -0.2949  0.4408  0.6089
  468MOL0     H61759   9.461   3.187   3.487 -0.2233 -0.8371 -0.6825
  468MOL0     H61760   9.983   2.921   3.381 -3.5468 -0.1901  1.4521
  468MOL0     H61761  10.173   3.022   3.304 -1.4651 -0.3546 -2.6468
  468MOL0     H61762   9.905   3.350   4.652  0.5460  0.8457 -0.0476
  468MOL0     H61763   9.747   3.389   4.816 -0.6792  0.6446 -0.6879
  468MOL0     H61764   9.218   3.512   4.892 -0.3421  2.0439  1.4495
  468MOL0     H61765   9.050   3.476   5.091 -0.4179 -2.2327  0.2566
  468MOL0     H61766   9.195   3.262   5.444 -1.0886 -0.1967  1.4441
  468MOL0     H61767   9.066   3.163   5.375  2.1402 -0.7524  2.0123
  468MOL0     H61768   9.051   3.402   5.560 -0.1784 -0.0917  0.6201
  468MOL0     H61769   8.911   3.331   5.471  0.1295  1.3115  0.3479
  468MOL0     H61770   9.075   3.143   5.652 -0.1719 -0.1390  0.2061
  468MOL0     H61771   8.928   3.106   5.563 -0.6299 -1.9711  1.3670
  468MOL0     H61772   8.939   3.159   5.822  0.5502  0.0529 -1.4433
  468MOL0     H61773   8.930   3.331   5.761  4.7135  0.6289  0.1493
  468MOL0     H61774   8.536   3.199   5.662  0.2780  1.0141 -1.1408
  468MOL0     H61775   9.311   3.191   5.267 -0.4529  0.3330  0.4158
  468MOL0     H61776   9.459   3.210   5.096 -0.4745  0.3100  0.8526
  469MOL0     O61777   2.316  10.506   7.489  0.0295  0.0093 -0.0829
  469MOL0     C61778   2.244  10.567   7.570  0.4581  0.5523 -0.2819
  469MOL0     O61779   2.288  10.666   7.647  0.0587 -0.0444 -0.1121
  469MOL0     C61780   2.416  10.709   7.622 -0.3866  0.6946 -0.0468
  469MOL0     C61781   2.531  10.639   7.680  0.1509  0.4751  0.6252
  469MOL0     C61782   2.664  10.684   7.656 -0.1865  0.6152 -0.6038
  469MOL0     C61783   2.679  10.793   7.570  0.3564  0.0629 -0.1116
  469MOL0     O61784   2.804  10.822   7.540  0.5628 -0.5562 -0.4865
  469MOL0     C61785   2.840  10.958   7.512  0.8906 -0.0501 -0.9998
  469MOL0     C61786   2.982  10.998   7.554 -0.2052 -0.3409  0.1270
  469MOL0     C61787   3.016  10.964   7.701  0.0394  0.0369  0.5586
  469MOL0     C61788   3.160  10.987   7.743 -0.0776  0.2607  0.4756
  469MOL0     C61789   3.166  11.038   7.885 -0.1879 -0.8196  0.5629
  469MOL0     C61790   3.158  10.919   7.989  0.0159 -0.5725 -0.1354
  469MOL0     C61791   3.132  10.971   8.131  0.5329  0.5887 -0.2866
  469MOL0     C61792   3.024  10.902   8.209  0.0453 -0.1735  0.6366
  469MOL0     N61793   2.883  10.921   8.148  0.0117  0.2877 -0.0771
  469MOL0     C61794   2.834  11.016   8.060 -1.6193  0.4464  0.2006
  469MOL0     C61795   2.707  10.978   8.034  0.2327 -0.1797  0.1735
  469MOL0     C61796   2.626  11.031   7.915  0.0823  0.1355  0.0100
  469MOL0     C61797   2.496  10.961   7.871  0.2451  0.1661 -0.3467
  469MOL0     C61798   2.395  10.968   7.977  0.7198 -0.2092 -0.6236
  469MOL0     C61799   2.257  10.904   7.938 -0.6726 -0.0586 -1.1977
  469MOL0     O61800   2.209  10.974   7.821  0.5337 -0.1126 -0.5430
  469MOL0     C61801   2.079  10.940   7.775 -0.6503 -0.1130 -0.0159
  469MOL0     C61802   2.047  10.955   7.643 -0.2375  0.9777 -0.3666
  469MOL0     C61803   1.926  10.920   7.587  0.5623 -0.6682 -0.3531
  469MOL0     C61804   1.817  10.879   7.667 -0.1647 -0.5268 -0.7974
  469MOL0     C61805   1.701  10.833   7.600  0.4491 -1.0708  0.2003
  469MOL0     O61806   1.705  10.815   7.465 -0.0874 -0.4535 -0.0515
  469MOL0     C61807   1.590  10.757   7.410  0.0400  0.1603 -0.0582
  469MOL0     C61808   1.530  10.821   7.302 -0.0905  0.1675  0.6365
  469MOL0     C61809   1.435  10.755   7.224 -0.5576 -0.1481 -0.0097
  469MOL0     C61810   1.381  10.633   7.261 -0.3360  0.1281 -0.1397
  469MOL0     O61811   1.265  10.582   7.208 -0.0225 -0.2647  0.1639
  469MOL0     C61812   1.173  10.681   7.157 -0.1001 -0.3261  0.0077
  469MOL0     C61813   1.043  10.615   7.118 -0.0497 -0.2107  0.0764
  469MOL0     C61814   0.942  10.712   7.046 -1.1389 -0.1871  0.9742
  469MOL0     C61815   0.817  10.635   6.998  0.1339  0.6400 -0.5668
  469MOL0     C61816   0.716  10.703   6.906  0.0325 -0.7432  0.1306
  469MOL0     C61817   0.647  10.827   6.961  0.4637  0.4626 -0.8500
  469MOL0     C61818   0.525  10.870   6.872  0.4448  0.1885 -0.8771
  469MOL0     C61819   0.575  10.938   6.743  0.4690  0.0858  0.2228
  469MOL0    Cl61820   0.447  10.971   6.632 -0.2033 -0.6048 -0.2898
  469MOL0     C61821   1.427  10.576   7.376 -0.6736  0.3757  0.2948
  469MOL0     C61822   1.528  10.636   7.451 -0.1855  1.3249 -0.0249
  469MOL0     O61823   1.599  10.823   7.671 -0.1589 -0.4908 -0.0429
  469MOL0     C61824   1.838  10.878   7.807 -0.1159 -0.5071 -0.2693
  469MOL0     C61825   1.973  10.908   7.857 -0.1309  0.3226  0.0367
  469MOL0     N61826   2.677  10.871   8.111  0.4223  0.5327  0.3161
  469MOL0     N61827   2.773  10.843   8.179  0.0096  0.2163 -0.8931
  469MOL0     C61828   2.565  10.861   7.520 -0.3263 -0.1221  0.3802
  469MOL0     C61829   2.432  10.823   7.549 -0.0308 -0.6662  0.1990
  469MOL0     C61830   2.116  10.509   7.609  0.3771  0.5354 -0.0107
  469MOL0     C61831   2.033  10.585   7.695  0.0738  0.3533  0.4426
  469MOL0     C61832   1.906  10.536   7.716  0.0050 -0.7823 -0.8347
  469MOL0     C61833   1.864  10.415   7.664 -0.5589  0.3730 -0.2472
  469MOL0     O61834   1.739  10.371   7.701  1.0688 -0.8721  0.4384
  469MOL0     C61835   1.713  10.230   7.677 -0.2751  0.4595  0.5100
  469MOL0     C61836   1.587  10.207   7.754  0.3719  0.6505 -0.0162
  469MOL0     C61837   1.461  10.259   7.690  0.6316 -1.0203  0.2158
  469MOL0     C61838   1.336  10.209   7.766  0.4277  0.2463 -0.2205
  469MOL0     C61839   1.226  10.241   7.677  0.0709 -0.5512 -0.6859
  469MOL0     C61840   1.132  10.285   7.612  0.0017  0.2231 -0.1641
  469MOL0     C61841   1.939  10.342   7.571 -0.4543 -1.0534 -0.8498
  469MOL0     C61842   2.068  10.389   7.548 -0.5512 -0.3352 -0.3629
  469MOL0     H61843   2.523  10.548   7.739  4.1480  0.9210  2.2006
  469MOL0     H61844   2.752  10.635   7.697 -0.9266  0.7135  1.1767
  469MOL0     H61845   2.776  11.022   7.574  1.0545  0.3297 -1.2169
  469MOL0     H61846   2.822  10.985   7.408  0.1297  1.8522 -0.4244
  469MOL0     H61847   2.991  11.107   7.558 -2.6204 -0.1217  2.1995
  469MOL0     H61848   3.051  10.954   7.482 -0.5330  1.8658 -1.6288
  469MOL0     H61849   2.996  10.861   7.733  0.9570 -0.3291  0.0154
  469MOL0     H61850   2.950  11.022   7.766  1.0994 -1.5052  3.1725
  469MOL0     H61851   3.222  10.897   7.741 -0.5930 -0.1594 -2.8561
  469MOL0     H61852   3.207  11.061   7.677 -0.0303  1.0127  1.3286
  469MOL0     H61853   3.097  11.120   7.907 -0.1764 -1.5593  3.8908
  469MOL0     H61854   3.266  11.079   7.901 -1.6218  2.2813  2.3987
  469MOL0     H61855   3.249  10.858   7.992  2.1089  2.3437 -0.5537
  469MOL0     H61856   3.074  10.853   7.965  0.8661 -2.3350  1.3815
  469MOL0     H61857   3.228  10.961   8.183  2.1786 -2.8383 -3.4882
  469MOL0     H61858   3.105  11.077   8.127 -2.5746 -0.0807  0.1777
  469MOL0     H61859   3.018  10.949   8.308 -0.1348 -0.8410  0.9469
  469MOL0     H61860   3.050  10.798   8.229  1.9342  0.1076 -0.1550
  469MOL0     H61861   2.901  11.091   8.020 -0.9583 -0.2845 -0.0712
  469MOL0     H61862   2.701  11.035   7.836  0.8466  0.3937  0.7315
  469MOL0     H61863   2.599  11.135   7.936 -0.1638  0.0289  0.2336
  469MOL0     H61864   2.512  10.857   7.840 -2.4694 -0.2579 -0.5497
  469MOL0     H61865   2.457  11.015   7.784 -0.3582  2.6970  1.3885
  469MOL0     H61866   2.425  10.915   8.068 -1.3880 -0.6555 -0.1296
  469MOL0     H61867   2.386  11.074   8.002  0.6457  0.0203 -1.5745
  469MOL0     H61868   2.195  10.910   8.027  2.0951 -2.6617  1.1282
  469MOL0     H61869   2.275  10.799   7.910  0.9189 -0.1919  0.1857
  469MOL0     H61870   2.125  10.961   7.568  0.3347 -0.7026  0.0276
  469MOL0     H61871   1.910  10.931   7.480 -0.0883 -0.5825 -0.2534
  469MOL0     H61872   1.559  10.923   7.277  0.9485  0.6069  3.3624
  469MOL0     H61873   1.408  10.804   7.131 -2.9276  3.5253  2.3434
  469MOL0     H61874   1.216  10.729   7.069  1.0307  0.0155  0.7264
  469MOL0     H61875   1.159  10.761   7.230 -0.9627 -0.6897  0.2638
  469MOL0     H61876   0.992  10.576   7.206  0.1300  0.6013  0.5547
  469MOL0     H61877   1.077  10.529   7.061 -0.7394 -0.2190 -0.3316
  469MOL0     H61878   0.994  10.764   6.965 -0.6743 -2.7673 -0.5163
  469MOL0     H61879   0.906  10.794   7.109 -2.8096  0.4417 -0.6906
  469MOL0     H61880   0.857  10.547   6.947 -1.2622 -0.6737  0.5062
  469MOL0     H61881   0.757  10.603   7.084  2.4796  0.8448  1.2495
  469MOL0     H61882   0.639  10.632   6.871  0.7266 -1.5829  0.2737
  469MOL0     H61883   0.765  10.744   6.817 -1.6713 -0.6729 -0.8232
  469MOL0     H61884   0.718  10.910   6.973 -2.6291  3.2315 -0.3036
  469MOL0     H61885   0.622  10.812   7.067  2.9331  0.4679 -0.1970
  469MOL0     H61886   0.464  10.780   6.857  0.3051  0.2940 -0.9333
  469MOL0     H61887   0.469  10.946   6.927 -1.3108  0.7015 -3.2196
  469MOL0     H61888   0.652  10.879   6.691 -0.3249 -0.7109 -0.0855
  469MOL0     H61889   0.627  11.023   6.787  1.7869 -0.9962  0.8472
  469MOL0     H61890   1.375  10.486   7.407 -0.1475  0.5189  1.6465
  469MOL0     H61891   1.566  10.591   7.542  2.4505  0.9440 -1.2206
  469MOL0     H61892   1.766  10.846   7.882  1.9386 -1.1195  1.5584
  469MOL0     H61893   1.993  10.890   7.962  0.9130  0.3928 -0.1375
  469MOL0     H61894   2.584  10.942   7.450 -0.7563 -0.5698 -0.2654
  469MOL0     H61895   2.347  10.874   7.506  0.1388  2.4565  3.1196
  469MOL0     H61896   2.063  10.671   7.754 -2.1636  0.3164  1.7290
  469MOL0     H61897   1.834  10.581   7.784 -1.1051 -2.0402 -1.1276
  469MOL0     H61898   1.798  10.175   7.719  1.4170  0.8454 -2.1692
  469MOL0     H61899   1.705  10.188   7.576  2.1717 -0.7070  0.7208
  469MOL0     H61900   1.584  10.097   7.756 -0.5640  0.6585 -0.4733
  469MOL0     H61901   1.598  10.239   7.858  1.0890  0.1265  0.0750
  469MOL0     H61902   1.443  10.214   7.592 -2.2486  0.0183  0.1634
  469MOL0     H61903   1.464  10.368   7.686  0.3127 -1.0362 -1.1181
  469MOL0     H61904   1.347  10.102   7.783 -1.2842  0.1813  0.7500
  469MOL0     H61905   1.326  10.264   7.860  1.8432  0.5295 -0.2195
  469MOL0     H61906   1.055  10.324   7.548 -1.6178 -2.4031  0.0240
  469MOL0     H61907   1.908  10.252   7.520 -2.2774  1.3001 -4.2428
  469MOL0     H61908   2.127  10.332   7.478 -0.1737  0.8321 -1.0300
  470MOL0     O61909   9.266   6.936   6.627 -0.1839 -0.3084  0.2741
  470MOL0     C61910   9.214   7.010   6.551  0.2135 -0.8670 -0.3084
  470MOL0     O61911   9.275   7.065   6.446  0.3182 -0.0736 -0.1913
  470MOL0     C61912   9.406   7.049   6.428  0.2155  0.2019  0.0961
  470MOL0     C61913   9.486   7.162   6.461  0.3577  0.0982 -0.6819
  470MOL0     C61914   9.625   7.142   6.468 -0.4648 -0.3712 -0.1321
  470MOL0     C61915   9.680   7.015   6.440  0.3300 -0.4167  0.1152
  470MOL0     O61916   9.811   7.031   6.458  0.2195  0.5741  0.4939
  470MOL0     C61917   9.896   6.916   6.422 -0.6579 -0.2242 -0.3429
  470MOL0     C61918  10.043   6.960   6.415 -0.0058  0.8092 -0.5625
  470MOL0     C61919  10.133   6.834   6.405  1.0037 -0.6286 -0.9131
  470MOL0     C61920  10.280   6.863   6.355 -0.0913 -0.1038 -0.9278
  470MOL0     C61921  10.369   6.741   6.384  0.4829 -0.0130 -0.2431
  470MOL0     C61922  10.518   6.750   6.339  0.1726  0.5639 -0.3867
  470MOL0     C61923  10.585   6.619   6.350 -0.0010  0.0636  0.0615
  470MOL0     C61924  10.580   6.541   6.481  0.0261  0.6145  0.9386
  470MOL0     N61925  10.467   6.444   6.477 -0.9962  0.1694 -0.1771
  470MOL0     C61926  10.468   6.322   6.416  0.2602  0.0021  0.3756
  470MOL0     C61927  10.361   6.263   6.471  0.2468 -0.9022 -0.0093
  470MOL0     C61928  10.317   6.118   6.431 -0.4276  0.1335  0.9515
  470MOL0     C61929  10.193   6.108   6.337 -0.0609  0.8388  1.1837
  470MOL0     C61930  10.144   5.964   6.309 -0.5335  0.6038  0.0742
  470MOL0     C61931  10.067   5.957   6.185  0.6905 -0.1657  0.5334
  470MOL0     O61932   9.995   5.835   6.171  0.0481  0.0819  0.3658
  470MOL0     C61933   9.869   5.823   6.222  0.3879 -0.6375 -0.6630
  470MOL0     C61934   9.813   5.696   6.202  0.0807 -0.1279  0.9403
  470MOL0     C61935   9.687   5.665   6.242 -0.2656 -0.1133  0.0332
  470MOL0     C61936   9.609   5.760   6.312  0.5111 -0.4964  0.4049
  470MOL0     C61937   9.481   5.710   6.374  0.1444  0.3770  0.5721
  470MOL0     O61938   9.473   5.572   6.397  0.0569  0.1937  0.3367
  470MOL0     C61939   9.359   5.499   6.437 -0.9893  0.2156 -0.0509
  470MOL0     C61940   9.372   5.358   6.460  0.3013 -0.4894 -0.2392
  470MOL0     C61941   9.264   5.286   6.504  0.4172 -0.2828  0.2073
  470MOL0     C61942   9.139   5.342   6.522 -0.1802  0.4222  0.3347
  470MOL0     O61943   9.040   5.252   6.556 -0.2043  0.1611 -0.4923
  470MOL0     C61944   8.906   5.305   6.556 -0.8818 -0.0707  0.3171
  470MOL0     C61945   8.800   5.181   6.564  0.4613 -0.7179  0.0166
  470MOL0     C61946   8.668   5.222   6.614  0.2293 -0.4085  0.2986
  470MOL0     C61947   8.587   5.091   6.581 -0.3333 -0.5378 -0.1538
  470MOL0     C61948   8.439   5.112   6.600  0.7195  0.2412  0.2327
  470MOL0     C61949   8.384   4.976   6.552 -0.0071  0.1390 -0.8011
  470MOL0     C61950   8.227   4.976   6.564  0.1153  0.4791 -0.7744
  470MOL0     C61951   8.164   4.850   6.499  0.3243 -0.4931 -0.3039
  470MOL0    Cl61952   7.995   4.876   6.480  0.2182 -0.1365  0.0573
  470MOL0     C61953   9.120   5.478   6.494 -0.2150  1.0115  0.1460
  470MOL0     C61954   9.234   5.557   6.463  0.1221 -0.4730  0.1913
  470MOL0     O61955   9.395   5.787   6.416 -0.0672  0.3275 -0.3638
  470MOL0     C61956   9.662   5.889   6.333 -0.0569  0.5342  0.3063
  470MOL0     C61957   9.792   5.915   6.290  0.1582  0.6335  0.0291
  470MOL0     N61958  10.282   6.351   6.547  0.4905  0.1187 -0.3226
  470MOL0     N61959  10.360   6.453   6.565 -0.3103  0.2484 -0.1033
  470MOL0     C61960   9.597   6.906   6.402 -0.2440 -0.4421  0.1768
  470MOL0     C61961   9.457   6.923   6.392  0.2621  0.1667  0.0841
  470MOL0     C61962   9.073   7.044   6.573 -0.7885  0.5599  1.0802
  470MOL0     C61963   9.013   7.150   6.508 -0.8285  0.2029 -0.0096
  470MOL0     C61964   8.872   7.172   6.530  0.6609  0.0504  1.4069
  470MOL0     C61965   8.800   7.094   6.615 -0.3451  0.3949  0.5253
  470MOL0     O61966   8.678   7.136   6.651 -0.1488 -0.5123  0.4430
  470MOL0     C61967   8.578   7.035   6.647  0.7837  0.1863 -0.0344
  470MOL0     C61968   8.432   7.095   6.643 -0.1600 -0.7634  0.5766
  470MOL0     C61969   8.374   7.126   6.507  0.6062 -0.3077  0.6332
  470MOL0     C61970   8.392   7.273   6.475  0.2517  0.2719 -0.9052
  470MOL0     C61971   8.377   7.307   6.332  0.0207  0.4496  0.8955
  470MOL0     C61972   8.368   7.316   6.214  0.8820  0.0677  0.2667
  470MOL0     C61973   8.863   6.987   6.678  0.0598  0.4167 -0.1256
  470MOL0     C61974   8.995   6.965   6.654 -0.0579  1.0666  0.4475
  470MOL0     H61975   9.449   7.264   6.467  2.8304  1.2192 -2.6465
  470MOL0     H61976   9.694   7.221   6.496  2.9746 -1.9329 -3.2914
  470MOL0     H61977   9.865   6.878   6.325 -1.3330 -0.7867  0.0794
  470MOL0     H61978   9.885   6.831   6.490  2.6044 -1.1909 -0.8734
  470MOL0     H61979  10.080   7.029   6.491  2.6161  0.2810 -1.2571
  470MOL0     H61980  10.044   7.018   6.322 -0.1409 -2.2639 -2.6466
  470MOL0     H61981  10.093   6.766   6.329 -0.2977  0.5032 -1.2871
  470MOL0     H61982  10.129   6.783   6.501  1.8165 -2.0328 -1.5955
  470MOL0     H61983  10.285   6.889   6.249  1.9951 -0.5118 -0.9738
  470MOL0     H61984  10.317   6.949   6.413 -1.5288  0.8052 -1.3201
  470MOL0     H61985  10.329   6.653   6.331 -0.5074 -0.7748  1.6844
  470MOL0     H61986  10.360   6.722   6.491  3.1233  0.2322  0.1017
  470MOL0     H61987  10.567   6.833   6.391  3.5271 -0.8087 -1.1056
  470MOL0     H61988  10.524   6.768   6.232 -0.4836  0.3264 -0.4686
  470MOL0     H61989  10.561   6.553   6.265  2.7028  0.5610 -1.1968
  470MOL0     H61990  10.691   6.638   6.331 -0.4312  2.4494 -0.1651
  470MOL0     H61991  10.561   6.617   6.558 -1.7274  1.2192 -0.0217
  470MOL0     H61992  10.674   6.487   6.495  0.7310  2.0605  2.1216
  470MOL0     H61993  10.538   6.274   6.349 -0.8875 -1.2309  0.0244
  470MOL0     H61994  10.288   6.057   6.516  1.7560 -0.1240  1.5711
  470MOL0     H61995  10.401   6.068   6.383  0.0953  1.0760  0.8486
  470MOL0     H61996  10.219   6.146   6.238  1.3033 -2.0458  0.3214
  470MOL0     H61997  10.111   6.172   6.372 -1.2984  1.1246 -1.8767
  470MOL0     H61998  10.225   5.891   6.316 -2.2856 -1.3125  1.7752
  470MOL0     H61999  10.078   5.933   6.390 -1.3590  1.7033 -0.1579
  470MOL0     H62000  10.140   5.968   6.105  1.3464 -0.5159  1.0729
  470MOL0     H62001  10.003   6.044   6.168  2.0707  0.7491 -0.1848
  470MOL0     H62002   9.871   5.621   6.149 -3.7486 -2.0029 -1.0229
  470MOL0     H62003   9.646   5.566   6.223 -1.4112  0.5262 -0.9017
  470MOL0     H62004   9.469   5.312   6.445 -0.6709 -2.6040 -0.4377
  470MOL0     H62005   9.267   5.179   6.526  0.6252  0.5362  5.3701
  470MOL0     H62006   8.886   5.366   6.467  2.9711  1.6562  0.3976
  470MOL0     H62007   8.892   5.355   6.652  0.4520  0.1506  0.4209
  470MOL0     H62008   8.844   5.101   6.624  2.1564  2.9867  4.2320
  470MOL0     H62009   8.797   5.142   6.462 -0.7042  0.9768 -0.6454
  470MOL0     H62010   8.630   5.313   6.566 -0.2966 -0.1149  1.2554
  470MOL0     H62011   8.660   5.237   6.722  2.7389 -3.0571  0.9663
  470MOL0     H62012   8.595   5.066   6.474 -0.0612 -2.0694  0.2002
  470MOL0     H62013   8.634   5.014   6.642  0.2964 -2.1418 -2.5037
  470MOL0     H62014   8.403   5.196   6.540 -1.5685 -0.9655 -0.2158
  470MOL0     H62015   8.411   5.130   6.704  0.1863 -2.9699  0.7668
  470MOL0     H62016   8.431   4.909   6.624  4.1883  2.9982 -0.4843
  470MOL0     H62017   8.413   4.938   6.454 -0.4938 -1.7390 -0.2573
  470MOL0     H62018   8.204   4.990   6.670  2.3233  0.1425 -0.1961
  470MOL0     H62019   8.185   5.059   6.506 -0.5997  0.3422 -0.4696
  470MOL0     H62020   8.179   4.758   6.556 -3.0208  0.1439  1.8870
  470MOL0     H62021   8.209   4.841   6.399 -1.0172 -1.2633 -0.8659
  470MOL0     H62022   9.019   5.517   6.494 -0.9355 -0.6477 -1.7805
  470MOL0     H62023   9.227   5.664   6.447  2.6673 -0.4361 -1.2436
  470MOL0     H62024   9.612   5.956   6.402  0.7134  0.7626  0.6482
  470MOL0     H62025   9.820   6.016   6.317 -0.3359  0.5444  0.9393
  470MOL0     H62026   9.636   6.805   6.396 -1.3446 -0.9255  0.8384
  470MOL0     H62027   9.385   6.844   6.375  0.8318 -0.2841 -0.2638
  470MOL0     H62028   9.071   7.223   6.453  0.2605 -0.3359  0.3950
  470MOL0     H62029   8.816   7.263   6.509  1.2521 -0.2414 -2.0775
  470MOL0     H62030   8.595   6.967   6.732  2.1084  1.3237  0.6634
  470MOL0     H62031   8.581   6.970   6.560 -3.4103 -0.2160 -0.0573
  470MOL0     H62032   8.366   7.021   6.687  1.7315 -2.2448  1.0373
  470MOL0     H62033   8.425   7.184   6.706 -1.8757  0.6962 -1.5066
  470MOL0     H62034   8.266   7.109   6.502  0.2091  2.1812 -1.8475
  470MOL0     H62035   8.422   7.058   6.436 -1.1986 -0.5740 -0.3978
  470MOL0     H62036   8.323   7.330   6.536  1.4949  2.6366 -1.5791
  470MOL0     H62037   8.494   7.297   6.508 -0.2205 -1.0967  1.7718
  470MOL0     H62038   8.344   7.329   6.110  2.5043 -0.3512 -0.2002
  470MOL0     H62039   8.817   6.918   6.747  0.3133 -2.3185 -2.4931
  470MOL0     H62040   9.037   6.884   6.712 -0.6643 -0.0190 -0.5878
  471MOL0     O62041   5.502   3.430   7.659  0.2535 -0.1497 -0.0415
  471MOL0     C62042   5.557   3.451   7.550  0.2825  0.5773 -0.0886
  471MOL0     O62043   5.495   3.482   7.430  0.2925 -1.0673  0.0579
  471MOL0     C62044   5.364   3.496   7.402  0.6964 -0.5366  0.8924
  471MOL0     C62045   5.345   3.559   7.283  0.2807  0.2309  0.2527
  471MOL0     C62046   5.211   3.563   7.238 -0.0401 -0.5494  0.0376
  471MOL0     C62047   5.099   3.515   7.311  0.2262  0.4764 -0.2724
  471MOL0     O62048   4.975   3.526   7.257  0.1954  0.2253 -0.1843
  471MOL0     C62049   4.868   3.460   7.317 -0.3871 -0.3564  0.1981
  471MOL0     C62050   4.742   3.464   7.235 -0.3500  0.0663  0.5517
  471MOL0     C62051   4.658   3.589   7.281 -0.8745  0.6861 -0.6299
  471MOL0     C62052   4.517   3.582   7.219 -0.2064 -0.0038  1.2143
  471MOL0     C62053   4.437   3.707   7.245 -0.7565 -0.1231 -0.6329
  471MOL0     C62054   4.293   3.688   7.233  0.4106  0.2798 -0.0836
  471MOL0     C62055   4.222   3.820   7.237 -0.1887  0.0163 -0.2466
  471MOL0     C62056   4.082   3.813   7.288  0.3919 -0.0129 -0.3846
  471MOL0     N62057   4.024   3.950   7.294  0.5711  0.2525  0.2069
  471MOL0     C62058   3.967   4.021   7.398 -0.6018 -0.1593  0.4916
  471MOL0     C62059   3.894   4.116   7.335 -0.2814 -0.0070  0.5801
  471MOL0     C62060   3.799   4.202   7.402 -0.2572  0.1059  0.5223
  471MOL0     C62061   3.654   4.141   7.416  0.7170 -0.8336  0.0059
  471MOL0     C62062   3.600   4.092   7.278  0.5694  0.1703 -0.6005
  471MOL0     C62063   3.454   4.030   7.294 -0.3179  0.8226 -0.9552
  471MOL0     O62064   3.359   4.100   7.369  0.4217 -0.6216 -0.4111
  471MOL0     C62065   3.268   4.181   7.301 -0.4389 -0.4151  0.3939
  471MOL0     C62066   3.164   4.132   7.219 -0.2623  0.3763 -0.5656
  471MOL0     C62067   3.070   4.215   7.173  0.1024 -1.0530 -0.4773
  471MOL0     C62068   3.080   4.356   7.188  0.3602  0.9686  0.1111
  471MOL0     C62069   2.980   4.449   7.137 -0.2139 -0.4489 -0.0256
  471MOL0     O62070   2.970   4.572   7.192 -0.3174 -0.6431  0.0120
  471MOL0     C62071   2.868   4.664   7.175  0.4578 -0.0914 -1.2242
  471MOL0     C62072   2.906   4.786   7.215  0.4463 -0.0327  0.0766
  471MOL0     C62073   2.831   4.897   7.189  0.4078 -0.2200 -0.1978
  471MOL0     C62074   2.701   4.883   7.126 -0.2920  0.3470 -1.4611
  471MOL0     O62075   2.622   4.987   7.087  0.5660 -0.8780 -0.2357
  471MOL0     C62076   2.636   5.117   7.146 -0.0104  0.5380  0.2114
  471MOL0     C62077   2.500   5.169   7.211 -0.3012  0.3492 -0.5176
  471MOL0     C62078   2.384   5.181   7.111 -0.4021 -0.0464 -1.4285
  471MOL0     C62079   2.262   5.231   7.182 -0.3036 -0.0758  0.8741
  471MOL0     C62080   2.132   5.234   7.100  0.0334  0.3262 -0.0275
  471MOL0     C62081   2.145   5.303   6.962 -0.0103  0.0560 -0.1225
  471MOL0     C62082   1.999   5.325   6.902 -1.0526 -0.2636  0.3846
  471MOL0     C62083   1.932   5.437   6.977  0.7569  0.4076 -0.7582
  471MOL0    Cl62084   1.767   5.435   6.915  0.1504 -0.3535 -0.1279
  471MOL0     C62085   2.660   4.753   7.101  0.5721 -0.2092 -0.2213
  471MOL0     C62086   2.742   4.641   7.118 -0.7761 -0.2309  0.0553
  471MOL0     O62087   2.916   4.401   7.045  0.4825 -0.4471 -0.2590
  471MOL0     C62088   3.184   4.400   7.263 -1.1252 -0.6082  0.5086
  471MOL0     C62089   3.280   4.316   7.319 -0.5394 -0.0302 -0.7394
  471MOL0     N62090   3.931   4.121   7.204 -0.0771 -0.3160  0.0800
  471MOL0     N62091   3.999   4.019   7.181  0.0043  0.1907 -0.1062
  471MOL0     C62092   5.131   3.448   7.432  1.0003 -0.2402  0.2652
  471MOL0     C62093   5.255   3.448   7.481 -0.5304  0.1299  0.4718
  471MOL0     C62094   5.699   3.447   7.533 -0.2017 -1.1615  0.1198
  471MOL0     C62095   5.766   3.533   7.441 -0.0253  0.0415 -0.6077
  471MOL0     C62096   5.904   3.510   7.429 -0.2465 -0.3242 -0.2901
  471MOL0     C62097   5.979   3.425   7.509 -0.2575 -0.3050 -1.0145
  471MOL0     O62098   6.115   3.414   7.495 -0.0944 -0.3228  0.0217
  471MOL0     C62099   6.198   3.490   7.399  0.6536 -0.0848 -0.3572
  471MOL0     C62100   6.215   3.407   7.275 -0.4750  0.6767  0.7271
  471MOL0     C62101   6.290   3.274   7.295 -0.4195 -0.2059  0.2250
  471MOL0     C62102   6.362   3.223   7.170 -0.2008  0.3884  0.4993
  471MOL0     C62103   6.443   3.104   7.213  0.9874  0.0778  0.4339
  471MOL0     C62104   6.506   3.009   7.261 -1.0944 -0.5003  0.9449
  471MOL0     C62105   5.919   3.359   7.609 -0.1774 -0.5962 -0.2940
  471MOL0     C62106   5.783   3.366   7.617  0.2413 -0.7594 -0.2900
  471MOL0     H62107   5.432   3.588   7.225  1.1118 -0.0011  1.3511
  471MOL0     H62108   5.191   3.606   7.140  2.0255  1.5796  0.4695
  471MOL0     H62109   4.846   3.500   7.417 -1.6394 -0.3163 -0.0804
  471MOL0     H62110   4.887   3.352   7.315  0.2787 -0.2802  1.3150
  471MOL0     H62111   4.689   3.371   7.260 -1.0394 -0.1211 -1.4349
  471MOL0     H62112   4.759   3.466   7.127 -2.1859  1.6531  0.2467
  471MOL0     H62113   4.699   3.687   7.256 -3.2285  1.6670 -0.8947
  471MOL0     H62114   4.645   3.576   7.389 -0.7463 -0.5456 -0.7470
  471MOL0     H62115   4.531   3.579   7.110  1.7040 -0.3415  1.4438
  471MOL0     H62116   4.464   3.492   7.249 -3.1946  1.1945 -0.0244
  471MOL0     H62117   4.481   3.779   7.175  2.6842 -0.7091  0.7509
  471MOL0     H62118   4.456   3.745   7.346 -1.5891 -2.3043  0.3976
  471MOL0     H62119   4.263   3.617   7.311  1.5743 -0.2180 -0.0727
  471MOL0     H62120   4.280   3.645   7.134 -4.6596 -1.1347  0.9462
  471MOL0     H62121   4.278   3.882   7.308  0.3275  0.0741 -0.6980
  471MOL0     H62122   4.225   3.856   7.134 -1.3396  0.0270 -0.2907
  471MOL0     H62123   4.078   3.772   7.389 -0.9942 -0.0587 -0.4433
  471MOL0     H62124   4.010   3.759   7.226  0.2906 -0.5904  0.2293
  471MOL0     H62125   3.965   3.996   7.503  2.2666  0.9482  0.8973
  471MOL0     H62126   3.798   4.293   7.342 -1.2464 -0.7491 -0.8100
  471MOL0     H62127   3.833   4.225   7.503  0.5364  0.8853  0.0941
  471MOL0     H62128   3.596   4.216   7.471  1.8589 -1.6147  2.4300
  471MOL0     H62129   3.640   4.051   7.477 -0.9822 -1.9624 -1.9104
  471MOL0     H62130   3.583   4.172   7.205  1.2518  1.6120  0.7508
  471MOL0     H62131   3.673   4.017   7.248  0.2168 -0.6253  0.4344
  471MOL0     H62132   3.468   3.930   7.337 -1.4524  0.3490 -1.6426
  471MOL0     H62133   3.404   3.994   7.203  2.0879 -5.9472 -0.2117
  471MOL0     H62134   3.156   4.024   7.213  0.4896  0.3259 -0.7625
  471MOL0     H62135   2.977   4.175   7.134  0.3838 -4.3434  1.8115
  471MOL0     H62136   3.000   4.802   7.267 -0.3227 -0.5804  1.7035
  471MOL0     H62137   2.862   4.999   7.207  2.4372 -1.3260  3.6887
  471MOL0     H62138   2.657   5.180   7.059  0.3278  0.1374 -0.0005
  471MOL0     H62139   2.719   5.122   7.217 -3.0598 -2.4075  4.4989
  471MOL0     H62140   2.524   5.262   7.263  2.4597 -0.2744 -0.5241
  471MOL0     H62141   2.487   5.092   7.288  0.5955 -1.2899 -1.9499
  471MOL0     H62142   2.354   5.086   7.067 -0.8506 -0.7990  0.4021
  471MOL0     H62143   2.411   5.252   7.033 -4.1883  4.1843  0.6434
  471MOL0     H62144   2.252   5.174   7.275 -0.8010 -0.1483  0.7815
  471MOL0     H62145   2.278   5.338   7.197  0.2390 -0.0916  0.4141
  471MOL0     H62146   2.059   5.286   7.164  0.5455 -0.0251  0.8584
  471MOL0     H62147   2.100   5.131   7.086  2.1137 -0.5211  1.0462
  471MOL0     H62148   2.200   5.240   6.890 -1.3550 -0.7211 -0.5058
  471MOL0     H62149   2.191   5.402   6.967 -1.0054  0.6099 -1.3836
  471MOL0     H62150   2.020   5.357   6.800  0.7931  1.2572  1.1859
  471MOL0     H62151   1.935   5.237   6.910 -1.3354  0.0630  1.9920
  471MOL0     H62152   1.984   5.533   6.976 -0.1743  1.0870  2.5660
  471MOL0     H62153   1.928   5.412   7.083  2.0243  1.1943 -0.5086
  471MOL0     H62154   2.563   4.739   7.056 -0.2382  1.4407  0.8958
  471MOL0     H62155   2.702   4.546   7.083 -0.0167 -0.5384 -0.0146
  471MOL0     H62156   3.205   4.505   7.281 -0.1714 -0.7933  0.5612
  471MOL0     H62157   3.360   4.366   7.372  0.5473 -3.9782  1.8011
  471MOL0     H62158   5.058   3.403   7.498  2.6076  1.2840  3.2846
  471MOL0     H62159   5.277   3.388   7.569  0.2595 -0.4106 -0.0796
  471MOL0     H62160   5.703   3.591   7.374 -0.8691 -1.0486 -0.7907
  471MOL0     H62161   5.937   3.563   7.340 -0.4138  2.2262  1.0533
  471MOL0     H62162   6.301   3.504   7.432  1.4317 -1.6075 -2.0036
  471MOL0     H62163   6.158   3.585   7.361 -5.2742 -3.2888 -3.7152
  471MOL0     H62164   6.117   3.380   7.233 -0.4123  2.7733 -0.9955
  471MOL0     H62165   6.255   3.467   7.193  0.0689 -0.9187 -0.2245
  471MOL0     H62166   6.223   3.195   7.330 -1.9990  0.5455 -0.9897
  471MOL0     H62167   6.369   3.287   7.369  0.1947  4.6536 -0.9508
  471MOL0     H62168   6.301   3.188   7.086  1.8752 -1.8367 -0.1923
  471MOL0     H62169   6.423   3.305   7.132  0.8193  0.5080  2.3169
  471MOL0     H62170   6.544   2.914   7.294 -1.0246 -1.1378 -0.8979
  471MOL0     H62171   5.979   3.305   7.682 -0.2089  1.7460  1.5859
  471MOL0     H62172   5.727   3.304   7.687 -1.4627  0.0746 -0.8619
  472MOL0     O62173   7.008   3.430  10.788  0.0290 -0.8599  0.0997
  472MOL0     C62174   6.918   3.516  10.771  0.7871  0.5116  0.2069
  472MOL0     O62175   6.811   3.509  10.685 -0.4329  0.3898  0.6205
  472MOL0     C62176   6.796   3.412  10.583 -0.4237 -0.5030 -0.4490
  472MOL0     C62177   6.896   3.353  10.512  0.3727 -0.1367 -0.8794
  472MOL0     C62178   6.868   3.261  10.410 -0.6719 -0.1089 -0.2681
  472MOL0     C62179   6.742   3.214  10.386  0.1826 -0.3667  0.2160
  472MOL0     O62180   6.733   3.115  10.302  0.0421 -0.4281  0.7944
  472MOL0     C62181   6.615   3.043  10.287 -0.9032  1.0887 -0.2036
  472MOL0     C62182   6.629   2.941  10.167  0.4195 -0.6908  0.2358
  472MOL0     C62183   6.524   2.828  10.186 -0.5275  0.2148  0.0464
  472MOL0     C62184   6.558   2.704  10.095  0.3063  0.0605 -1.1085
  472MOL0     C62185   6.451   2.589  10.095  0.6017  0.3031 -0.1854
  472MOL0     C62186   6.450   2.500  10.221  0.0676  0.6446  0.8140
  472MOL0     C62187   6.562   2.395  10.210  0.5513 -0.2465  0.5625
  472MOL0     C62188   6.603   2.347  10.351  0.4443  0.2574 -0.4708
  472MOL0     N62189   6.702   2.442  10.403 -0.0986  0.2658  0.8463
  472MOL0     C62190   6.839   2.442  10.372 -0.1107 -0.0251 -0.6936
  472MOL0     C62191   6.895   2.552  10.431 -0.5081 -0.0297 -0.2146
  472MOL0     C62192   7.044   2.564  10.406  0.3702 -0.0168  0.6025
  472MOL0     C62193   7.103   2.700  10.431  0.2272  0.1792  1.0252
  472MOL0     C62194   7.238   2.709  10.370 -0.3835  0.4769  0.4522
  472MOL0     C62195   7.345   2.633  10.458  0.4844 -0.8874 -0.5511
  472MOL0     O62196   7.486   2.665  10.417  0.3870  0.2802  0.0764
  472MOL0     C62197   7.580   2.572  10.458  0.4032  0.5099  0.1441
  472MOL0     C62198   7.560   2.463  10.544  0.5475 -0.4816 -0.0653
  472MOL0     C62199   7.668   2.372  10.581  0.4287 -0.1519 -0.0335
  472MOL0     C62200   7.795   2.400  10.535  0.0801 -0.5701 -0.2760
  472MOL0     C62201   7.899   2.304  10.569 -1.5380  0.3658 -1.0186
  472MOL0     O62202   8.019   2.317  10.499 -0.3275 -0.1264  0.5297
  472MOL0     C62203   8.136   2.321  10.578 -0.8064  0.3633 -1.4209
  472MOL0     C62204   8.243   2.231  10.565 -0.2231  0.1385 -0.2498
  472MOL0     C62205   8.357   2.241  10.648 -0.8359  0.7173  0.0716
  472MOL0     C62206   8.366   2.340  10.745 -0.4068  0.1113  0.1759
  472MOL0     O62207   8.463   2.335  10.841 -0.1906 -0.0534 -0.2873
  472MOL0     C62208   8.500   2.205  10.889 -0.9903 -0.0104 -0.7780
  472MOL0     C62209   8.588   2.204  11.019  0.0900  0.1668 -0.0185
  472MOL0     C62210   8.715   2.281  11.014 -0.0502 -0.6561  0.4197
  472MOL0     C62211   8.781   2.293  11.152  0.4850  0.4771 -0.1724
  472MOL0     C62212   8.912   2.380  11.149  1.1024  0.4491 -0.5271
  472MOL0     C62213   9.024   2.345  11.253 -0.0946  0.0624 -0.3070
  472MOL0     C62214   9.163   2.412  11.214  0.1319  0.6397 -0.3941
  472MOL0     C62215   9.278   2.358  11.304  1.5514  0.3808  0.2366
  472MOL0    Cl62216   9.224   2.382  11.472  0.0380 -0.1618  0.6253
  472MOL0     C62217   8.265   2.433  10.752 -0.1007 -0.0560 -0.3296
  472MOL0     C62218   8.153   2.422  10.674 -0.5136  0.3776 -0.1370
  472MOL0     O62219   7.899   2.257  10.688  0.3053 -0.6222 -0.1476
  472MOL0     C62220   7.817   2.516  10.458 -0.6481 -0.1283  0.3208
  472MOL0     C62221   7.710   2.600  10.423 -0.1144  0.2925 -0.5749
  472MOL0     N62222   6.787   2.626  10.483  0.2285 -0.4154  0.2824
  472MOL0     N62223   6.679   2.555  10.468 -0.5532 -0.2131  0.5034
  472MOL0     C62224   6.637   3.280  10.455 -0.3804  0.1668 -0.0488
  472MOL0     C62225   6.664   3.372  10.558 -0.2898 -0.0022 -0.6318
  472MOL0     C62226   6.912   3.627  10.871  0.7236  0.2683 -0.2903
  472MOL0     C62227   6.849   3.749  10.838  0.0896 -0.5131 -1.1468
  472MOL0     C62228   6.847   3.850  10.929  0.1700 -0.3123  0.2489
  472MOL0     C62229   6.892   3.829  11.059  0.5887 -0.4450 -0.0366
  472MOL0     O62230   6.863   3.910  11.168  0.3734  0.6195 -0.2881
  472MOL0     C62231   6.770   4.016  11.170  0.3456  0.4924  0.0619
  472MOL0     C62232   6.830   4.137  11.095  0.3731  0.0533 -0.1283
  472MOL0     C62233   6.730   4.248  11.084 -0.4066 -0.0240  0.2319
  472MOL0     C62234   6.795   4.358  10.988 -0.0581  0.7943  0.8274
  472MOL0     C62235   6.813   4.310  10.851 -0.4101  0.0224  0.8477
  472MOL0     C62236   6.841   4.266  10.742 -1.4373 -0.6368 -0.1903
  472MOL0     C62237   6.954   3.717  11.091  0.7241 -0.4366 -0.4852
  472MOL0     C62238   6.972   3.622  10.995  0.9574  0.1506  0.3172
  472MOL0     H62239   7.002   3.373  10.527  0.6963 -1.8148 -0.7885
  472MOL0     H62240   6.949   3.229  10.345 -0.3341  1.4390 -0.6635
  472MOL0     H62241   6.530   3.110  10.265  0.0959  1.4745 -3.5552
  472MOL0     H62242   6.590   2.987  10.377  0.1777  1.1831  0.1637
  472MOL0     H62243   6.732   2.905  10.170  0.2774 -1.1149  0.0648
  472MOL0     H62244   6.619   2.988  10.069  2.2353 -1.8103 -0.5315
  472MOL0     H62245   6.425   2.865  10.161  0.2057  1.3439 -1.3505
  472MOL0     H62246   6.533   2.782  10.285  1.1046  3.2002  1.4059
  472MOL0     H62247   6.565   2.730   9.989 -2.7285 -1.0165 -1.6772
  472MOL0     H62248   6.655   2.663  10.125 -0.3749 -0.3177  0.7007
  472MOL0     H62249   6.470   2.522  10.011  1.3433  0.1060  0.1334
  472MOL0     H62250   6.356   2.642  10.081 -0.5212 -1.8228 -1.0537
  472MOL0     H62251   6.354   2.447  10.219  0.4911 -0.1449  1.0472
  472MOL0     H62252   6.459   2.549  10.318 -0.0693  1.1423  0.5790
  472MOL0     H62253   6.525   2.313  10.148  1.5705  0.4481 -1.0401
  472MOL0     H62254   6.656   2.428  10.165  2.2348 -0.7257  3.4902
  472MOL0     H62255   6.653   2.253  10.327  2.2741  1.6911 -2.7749
  472MOL0     H62256   6.519   2.342  10.421 -1.2860  0.6460 -2.4142
  472MOL0     H62257   6.895   2.367  10.317 -0.1210 -0.2405 -0.4113
  472MOL0     H62258   7.056   2.543  10.300 -1.5724  0.6358  0.2061
  472MOL0     H62259   7.092   2.484  10.463 -0.5215 -0.2965  0.9810
  472MOL0     H62260   7.097   2.734  10.535  1.4931 -1.8017  1.7938
  472MOL0     H62261   7.035   2.769  10.380 -0.5991 -0.7017  0.9071
  472MOL0     H62262   7.245   2.670  10.268 -3.2598  0.0106  0.3327
  472MOL0     H62263   7.268   2.814  10.364  1.2358 -0.0369 -1.7660
  472MOL0     H62264   7.316   2.530  10.438 -2.9327  0.0817 -1.1567
  472MOL0     H62265   7.344   2.655  10.565 -0.5365  1.3914 -0.9688
  472MOL0     H62266   7.462   2.439  10.584  0.3098  0.3638 -0.1146
  472MOL0     H62267   7.661   2.291  10.652  5.1108  1.0479  2.1652
  472MOL0     H62268   8.237   2.156  10.487 -1.1334  0.6663 -0.7147
  472MOL0     H62269   8.439   2.170  10.642  0.7665  1.7886  4.7043
  472MOL0     H62270   8.549   2.136  10.820 -2.2334 -3.0177  1.1502
  472MOL0     H62271   8.409   2.148  10.911 -1.7197  1.2238 -0.4726
  472MOL0     H62272   8.594   2.096  11.040  1.2224  0.7584  3.3049
  472MOL0     H62273   8.533   2.244  11.104  0.0555  1.7116 -0.7461
  472MOL0     H62274   8.694   2.382  10.978  1.7904  0.2611  1.7608
  472MOL0     H62275   8.779   2.232  10.940 -2.7494 -2.9814 -0.5703
  472MOL0     H62276   8.712   2.342  11.221 -2.7348  1.3767 -3.7089
  472MOL0     H62277   8.802   2.188  11.177  0.1534  0.3376 -0.4730
  472MOL0     H62278   8.877   2.483  11.161 -0.3436  0.0395 -1.0747
  472MOL0     H62279   8.956   2.356  11.053 -0.7043 -0.8782 -1.0778
  472MOL0     H62280   9.035   2.237  11.255 -0.8633 -0.1727 -3.5527
  472MOL0     H62281   8.997   2.380  11.353  4.9849  1.8305  0.7433
  472MOL0     H62282   9.189   2.387  11.110  2.7460  0.3900  0.2401
  472MOL0     H62283   9.156   2.521  11.225 -0.2562  0.7304 -1.3643
  472MOL0     H62284   9.358   2.432  11.295  0.8504  1.4828  2.3813
  472MOL0     H62285   9.312   2.256  11.287  2.1577  0.7927 -1.2258
  472MOL0     H62286   8.285   2.518  10.815  2.3540  0.3231 -1.4964
  472MOL0     H62287   8.065   2.481  10.698 -0.0590  0.7758  0.5463
  472MOL0     H62288   7.915   2.537  10.414 -0.8051 -0.2845 -0.1128
  472MOL0     H62289   7.730   2.688  10.362 -1.5190  0.3461 -0.9792
  472MOL0     H62290   6.535   3.250  10.430 -0.3103 -2.0756  1.9706
  472MOL0     H62291   6.582   3.423  10.608  1.3217  0.0357  2.1387
  472MOL0     H62292   6.798   3.780  10.747 -0.3345  2.1115 -0.1181
  472MOL0     H62293   6.782   3.935  10.908 -1.6218 -1.7882 -0.5439
  472MOL0     H62294   6.742   4.059  11.267  1.1259  2.3378 -0.4887
  472MOL0     H62295   6.679   3.989  11.116  0.2858  3.1542 -1.2785
  472MOL0     H62296   6.915   4.168  11.156  0.3206 -1.4823  0.7781
  472MOL0     H62297   6.876   4.109  11.000  0.7803  2.0447 -0.5511
  472MOL0     H62298   6.715   4.289  11.184  1.0214  0.2549  0.3623
  472MOL0     H62299   6.632   4.218  11.047 -1.3465  1.6568  1.2859
  472MOL0     H62300   6.733   4.447  10.974  1.0789  1.6389  0.9901
  472MOL0     H62301   6.896   4.390  11.016  0.3767  2.5700 -2.2434
  472MOL0     H62302   6.876   4.223  10.650  1.9248  0.5644  0.3844
  472MOL0     H62303   7.002   3.697  11.186  1.0897 -1.5020 -0.8714
  472MOL0     H62304   7.033   3.534  11.013 -1.7821 -2.4989 -2.1948
  473MOL0     O62305   1.311   0.241   5.500 -0.6376 -0.4865 -0.4599
  473MOL0     C62306   1.361   0.238   5.609  0.3697 -0.4053  0.1420
  473MOL0     O62307   1.305   0.273   5.723 -0.0196 -0.4828  0.3333
  473MOL0     C62308   1.200   0.362   5.724 -1.0446  0.5455 -0.1940
  473MOL0     C62309   1.069   0.315   5.707 -0.4972 -0.8181 -0.1014
  473MOL0     C62310   0.961   0.402   5.721 -0.0803 -1.3132  0.7876
  473MOL0     C62311   0.986   0.542   5.751 -0.0694  0.1308  0.5656
  473MOL0     O62312   0.885   0.631   5.754 -0.0358 -0.4496 -0.3945
  473MOL0     C62313   0.748   0.588   5.734 -0.3760  0.1054  0.3555
  473MOL0     C62314   0.677   0.706   5.684 -0.6326 -0.5515 -1.0480
  473MOL0     C62315   0.527   0.682   5.679 -0.0409  1.0493 -0.7984
  473MOL0     C62316   0.469   0.709   5.818  0.6481  0.0393  1.2141
  473MOL0     C62317   0.315   0.711   5.806  0.1460  0.2959  0.6476
  473MOL0     C62318   0.263   0.581   5.745  0.6388  0.0276 -0.8699
  473MOL0     C62319   0.106   0.571   5.755  0.2214 -0.1652  0.1918
  473MOL0     C62320   0.039   0.453   5.679  0.3370  0.3598 -0.3061
  473MOL0     N62321  -0.110   0.445   5.688  0.1121  0.2307 -0.7438
  473MOL0     C62322  -0.190   0.519   5.604 -0.0158  0.7692 -1.4699
  473MOL0     C62323  -0.311   0.469   5.626 -0.1557  0.5208 -0.4171
  473MOL0     C62324  -0.430   0.504   5.536  0.2666 -0.8908  0.4227
  473MOL0     C62325  -0.553   0.444   5.601 -0.5534 -0.6887 -0.0021
  473MOL0     C62326  -0.661   0.472   5.509  0.7611  0.3249  0.0872
  473MOL0     C62327  -0.800   0.412   5.554 -0.6542  0.2246  0.5456
  473MOL0     O62328  -0.901   0.469   5.473 -0.0659  0.0092 -0.4343
  473MOL0     C62329  -0.929   0.425   5.343 -0.0807 -0.5688 -1.1083
  473MOL0     C62330  -1.034   0.488   5.282  0.0884  0.2702  0.1797
  473MOL0     C62331  -1.080   0.441   5.160 -0.0611  0.9690  0.8291
  473MOL0     C62332  -1.030   0.323   5.108  0.1315  0.1208  0.3494
  473MOL0     C62333  -1.093   0.260   4.993 -0.2119  0.6228  0.4114
  473MOL0     O62334  -1.043   0.140   4.944  0.2234 -0.6076 -0.5753
  473MOL0     C62335  -1.096   0.082   4.830 -0.6828  0.7980 -0.0544
  473MOL0     C62336  -1.116   0.144   4.708  0.4045 -0.4767 -0.3002
  473MOL0     C62337  -1.165   0.085   4.596  0.2543  0.4241 -0.4848
  473MOL0     C62338  -1.194  -0.054   4.603 -0.8589  0.4728 -0.0838
  473MOL0     O62339  -1.248  -0.137   4.504  0.2275  0.1861 -0.3581
  473MOL0     C62340  -1.267  -0.084   4.372  0.8735  0.0888  0.4524
  473MOL0     C62341  -1.286  -0.179   4.251  0.1363  0.5518  0.0481
  473MOL0     C62342  -1.150  -0.237   4.218  0.4670  0.6604 -0.4208
  473MOL0     C62343  -1.159  -0.347   4.112 -1.1606 -0.0483  0.1733
  473MOL0     C62344  -1.027  -0.429   4.107  0.3088 -0.6837 -0.5609
  473MOL0     C62345  -0.978  -0.496   4.240  0.0694  0.4806 -0.4305
  473MOL0     C62346  -0.856  -0.585   4.204 -0.0818 -0.7528  0.2466
  473MOL0     C62347  -0.808  -0.679   4.313 -0.0051 -0.1623 -0.4382
  473MOL0    Cl62348  -0.813  -0.592   4.468  0.1969  0.2158  0.0199
  473MOL0     C62349  -1.170  -0.119   4.730  0.2146 -0.0520 -0.6409
  473MOL0     C62350  -1.129  -0.050   4.849 -0.6411  0.7986 -0.2423
  473MOL0     O62351  -1.191   0.315   4.948  0.4848  0.1477  0.1505
  473MOL0     C62352  -0.913   0.266   5.167  0.0714 -0.8604  0.2359
  473MOL0     C62353  -0.867   0.322   5.285  0.1141  0.7397  0.9347
  473MOL0     N62354  -0.306   0.363   5.712  1.0381  0.7236 -0.2846
  473MOL0     N62355  -0.179   0.345   5.739  0.2514 -0.4743 -0.2312
  473MOL0     C62356   1.121   0.587   5.760  0.7123 -0.3192  0.4564
  473MOL0     C62357   1.226   0.498   5.748 -0.0136  0.8956 -0.8514
  473MOL0     C62358   1.478   0.157   5.626  0.7200  0.0559  0.1104
  473MOL0     C62359   1.550   0.102   5.514  0.3586 -0.0525 -0.0129
  473MOL0     C62360   1.666   0.023   5.539 -0.2468 -0.4280  0.5886
  473MOL0     C62361   1.714  -0.012   5.662  1.0846  0.1296  0.6525
  473MOL0     O62362   1.821  -0.082   5.690 -0.2543  0.2728 -0.1411
  473MOL0     C62363   1.863  -0.172   5.588  0.5822 -0.1829 -0.7502
  473MOL0     C62364   1.958  -0.275   5.643  0.2484  0.6836 -0.4807
  473MOL0     C62365   1.872  -0.357   5.742  0.3473  0.5871  1.3943
  473MOL0     C62366   1.806  -0.491   5.685  0.1906  0.9382 -1.3673
  473MOL0     C62367   1.697  -0.474   5.594  0.4294 -0.5331 -0.4567
  473MOL0     C62368   1.629  -0.473   5.503  0.3403  0.5791  0.1539
  473MOL0     C62369   1.638   0.032   5.768 -0.0106 -1.0339  0.0480
  473MOL0     C62370   1.524   0.113   5.754 -0.1973 -0.1994  0.0529
  473MOL0     H62371   1.045   0.214   5.673 -0.0750 -0.6956 -0.7797
  473MOL0     H62372   0.867   0.348   5.713 -0.8665  0.2560 -1.3120
  473MOL0     H62373   0.713   0.558   5.833 -0.4844 -0.6976  0.0872
  473MOL0     H62374   0.738   0.511   5.656 -0.8878 -2.6780  2.9833
  473MOL0     H62375   0.718   0.738   5.588  0.8646  1.5111  0.1968
  473MOL0     H62376   0.689   0.796   5.745 -2.1466  0.4813 -2.1823
  473MOL0     H62377   0.506   0.584   5.636  1.2303  0.0037  0.8204
  473MOL0     H62378   0.474   0.749   5.611 -0.8888 -1.1910 -2.4502
  473MOL0     H62379   0.501   0.625   5.880  1.8089 -2.0296 -1.8983
  473MOL0     H62380   0.502   0.811   5.840  0.8728  0.8034 -2.0807
  473MOL0     H62381   0.275   0.800   5.757 -0.1242  0.7506  1.6688
  473MOL0     H62382   0.278   0.726   5.908  0.2329  3.5794  0.2976
  473MOL0     H62383   0.292   0.502   5.815 -5.3280 -1.8011  0.1319
  473MOL0     H62384   0.288   0.559   5.641 -1.6052 -4.0289 -0.7507
  473MOL0     H62385   0.071   0.570   5.858 -1.9436 -0.5770 -0.5004
  473MOL0     H62386   0.059   0.662   5.718 -2.8605 -0.2789  3.3075
  473MOL0     H62387   0.068   0.362   5.732 -1.0308  0.8214  1.3181
  473MOL0     H62388   0.080   0.450   5.577 -2.2956 -1.3812 -1.4376
  473MOL0     H62389  -0.159   0.592   5.530  4.2760 -0.1573 -0.8258
  473MOL0     H62390  -0.404   0.456   5.441  0.4495  1.4143 -0.7684
  473MOL0     H62391  -0.455   0.610   5.524 -2.1758 -1.1194  2.4638
  473MOL0     H62392  -0.558   0.498   5.696  1.1176 -1.3025  0.4637
  473MOL0     H62393  -0.543   0.335   5.599  2.0377 -0.5008 -0.2310
  473MOL0     H62394  -0.671   0.579   5.488  0.9386  0.3667  0.2089
  473MOL0     H62395  -0.633   0.432   5.412  2.0374 -1.6720  1.2297
  473MOL0     H62396  -0.827   0.440   5.657 -1.5239  1.1810  0.0772
  473MOL0     H62397  -0.795   0.303   5.551 -0.7373  0.2461 -1.4079
  473MOL0     H62398  -1.084   0.570   5.332  1.8647  1.1216  0.6542
  473MOL0     H62399  -1.156   0.494   5.105 -2.1747 -0.5432  2.1643
  473MOL0     H62400  -1.099   0.251   4.705 -0.0914 -0.3296  0.9980
  473MOL0     H62401  -1.187   0.150   4.511 -0.3662 -0.4951 -1.0511
  473MOL0     H62402  -1.188  -0.011   4.349  0.2095  0.7819  0.3219
  473MOL0     H62403  -1.362  -0.029   4.377  1.5688  1.2715  1.2186
  473MOL0     H62404  -1.318  -0.128   4.160 -0.5034  1.1579  0.6056
  473MOL0     H62405  -1.354  -0.262   4.274  0.3368  0.8985  2.1059
  473MOL0     H62406  -1.098  -0.270   4.308 -0.0576  0.3018 -0.2466
  473MOL0     H62407  -1.089  -0.156   4.176  1.4456 -0.1964 -0.6774
  473MOL0     H62408  -1.239  -0.417   4.140 -0.3023 -0.8578  0.6396
  473MOL0     H62409  -1.180  -0.312   4.010 -2.1800 -4.8549 -1.5223
  473MOL0     H62410  -0.949  -0.360   4.074  0.0542  1.8738  3.4916
  473MOL0     H62411  -1.045  -0.499   4.025 -0.1757 -1.0123 -0.1816
  473MOL0     H62412  -1.063  -0.562   4.259  0.8852 -1.6101 -3.3299
  473MOL0     H62413  -0.952  -0.429   4.323 -2.8033  1.1887  0.0248
  473MOL0     H62414  -0.870  -0.646   4.114  1.1622 -3.1016  1.5467
  473MOL0     H62415  -0.769  -0.521   4.188  1.5810 -2.5694  1.5611
  473MOL0     H62416  -0.701  -0.697   4.297  0.4045  0.7870  0.9848
  473MOL0     H62417  -0.861  -0.774   4.310  3.7374 -2.4037 -2.6229
  473MOL0     H62418  -1.185  -0.226   4.733  1.7418 -0.2991  2.0384
  473MOL0     H62419  -1.134  -0.096   4.947 -0.4546 -0.0599 -0.6308
  473MOL0     H62420  -0.887   0.167   5.133  0.5930 -0.9142  0.7810
  473MOL0     H62421  -0.791   0.263   5.335 -0.0002 -0.6470 -0.4327
  473MOL0     H62422   1.130   0.690   5.795  1.9044 -0.5226  0.7797
  473MOL0     H62423   1.325   0.541   5.748  0.1604  0.5461  0.3173
  473MOL0     H62424   1.526   0.129   5.412  0.1606  0.4835  0.1711
  473MOL0     H62425   1.726   0.005   5.450  0.7297  3.1446  0.3747
  473MOL0     H62426   1.909  -0.117   5.505  2.9978 -0.3000  0.4488
  473MOL0     H62427   1.774  -0.229   5.560  0.4036 -0.9364  1.2119
  473MOL0     H62428   2.007  -0.342   5.572  0.8993  1.4292 -0.7467
  473MOL0     H62429   2.035  -0.222   5.699  0.1245 -0.4897  0.8667
  473MOL0     H62430   1.792  -0.298   5.786 -0.4097  0.5743  0.0846
  473MOL0     H62431   1.942  -0.394   5.818  0.6032  0.0900  0.9261
  473MOL0     H62432   1.894  -0.543   5.646 -0.7103  0.0766 -2.3060
  473MOL0     H62433   1.764  -0.530   5.779 -0.2820  2.0494 -1.1062
  473MOL0     H62434   1.575  -0.449   5.413 -0.6991 -1.6348  0.1116
  473MOL0     H62435   1.669   0.003   5.868  0.5480 -1.6950 -0.3058
  473MOL0     H62436   1.466   0.161   5.833 -2.3189 -1.3877 -0.6819
  474MOL0     O62437   2.290  11.122   2.913 -0.6267 -0.6057 -0.8259
  474MOL0     C62438   2.397  11.080   2.871 -1.0557 -0.4501 -0.7400
  474MOL0     O62439   2.422  10.950   2.822  0.0254 -0.2653  0.4656
  474MOL0     C62440   2.326  10.851   2.833 -1.1009  0.4242 -0.3455
  474MOL0     C62441   2.310  10.763   2.730 -0.0683 -0.2039  1.3690
  474MOL0     C62442   2.225  10.648   2.734  1.0966 -0.7230 -0.5934
  474MOL0     C62443   2.134  10.627   2.838  0.1268 -0.7522 -0.3247
  474MOL0     O62444   2.047  10.520   2.820 -0.2408 -0.1367 -0.8222
  474MOL0     C62445   1.965  10.478   2.926 -0.2492 -0.0503 -0.4514
  474MOL0     C62446   1.856  10.372   2.889  0.1480 -0.0988 -0.0642
  474MOL0     C62447   1.778  10.422   2.766 -0.0617 -0.3558  0.3688
  474MOL0     C62448   1.689  10.542   2.779  0.6960 -0.2814 -0.7244
  474MOL0     C62449   1.572  10.534   2.673 -0.2578 -0.4155 -0.5480
  474MOL0     C62450   1.464  10.642   2.716 -1.5360  0.6808  0.3199
  474MOL0     C62451   1.329  10.648   2.639 -0.0303  0.0019  0.0140
  474MOL0     C62452   1.227  10.532   2.679  0.0301  0.0191  0.1743
  474MOL0     N62453   1.097  10.563   2.624 -0.0093  0.7568 -0.6523
  474MOL0     C62454   0.996  10.634   2.690 -0.4511 -0.2005  0.0119
  474MOL0     C62455   0.884  10.620   2.613  0.0655 -0.3363 -0.2992
  474MOL0     C62456   0.748  10.671   2.645  0.1936  0.7597  0.2838
  474MOL0     C62457   0.644  10.554   2.661 -0.7975  0.6622 -0.3614
  474MOL0     C62458   0.562  10.543   2.537  0.0054  0.3343  0.4970
  474MOL0     C62459   0.427  10.481   2.566  0.1389 -0.2285 -0.1781
  474MOL0     O62460   0.375  10.441   2.442 -0.1410  0.2460 -0.4348
  474MOL0     C62461   0.253  10.379   2.439 -0.4430  0.1396  0.5155
  474MOL0     C62462   0.138  10.417   2.509  1.1067  0.3482  0.5271
  474MOL0     C62463   0.012  10.344   2.500  0.2726  0.2682  0.7211
  474MOL0     C62464   0.007  10.236   2.408  0.5983 -0.1525 -0.4826
  474MOL0     C62465  -0.120  10.155   2.393 -0.7893  0.6167  0.0530
  474MOL0     O62466  -0.116  10.051   2.300 -0.2165  1.0115 -0.0464
  474MOL0     C62467  -0.228   9.994   2.267 -0.9930  0.2708 -0.7960
  474MOL0     C62468  -0.289   9.912   2.361  0.9942  0.1807  0.3952
  474MOL0     C62469  -0.404   9.845   2.312  0.5907  0.2204  0.5238
  474MOL0     C62470  -0.457   9.870   2.187 -0.2580  0.9588  0.0702
  474MOL0     O62471  -0.572   9.788   2.162  1.0014 -0.1634  0.3188
  474MOL0     C62472  -0.606   9.782   2.021  0.4963  0.3781 -0.7221
  474MOL0     C62473  -0.673   9.655   1.981  0.6432  0.1864  0.2099
  474MOL0     C62474  -0.818   9.640   2.042  0.1006  0.6184  0.2908
  474MOL0     C62475  -0.898   9.533   1.981  0.5703  0.1999  0.0333
  474MOL0     C62476  -1.023   9.525   2.068  0.1628  1.0753 -0.3781
  474MOL0     C62477  -1.105   9.409   2.015 -0.2522 -0.6027 -0.1592
  474MOL0     C62478  -1.179   9.452   1.883  0.6772  0.4152  0.1368
  474MOL0     C62479  -1.290   9.360   1.842 -0.4970  0.2063  0.4286
  474MOL0    Cl62480  -1.228   9.200   1.797  0.0446 -0.0750  0.0934
  474MOL0     C62481  -0.411   9.978   2.104  0.1975  0.3705  0.7676
  474MOL0     C62482  -0.288  10.030   2.140 -0.1966  0.5348 -0.6271
  474MOL0     O62483  -0.218  10.202   2.456 -0.3549  0.1064 -0.2370
  474MOL0     C62484   0.111  10.209   2.321  0.1786  0.0422  0.2623
  474MOL0     C62485   0.232  10.276   2.339 -0.4502 -0.6833 -0.1203
  474MOL0     N62486   0.915  10.557   2.497  0.3921 -0.3689  0.3707
  474MOL0     N62487   1.040  10.511   2.512  0.0504 -0.0157 -0.0875
  474MOL0     C62488   2.142  10.720   2.944  0.3478  0.3412  0.7807
  474MOL0     C62489   2.231  10.831   2.942  0.8790 -0.0747 -0.3348
  474MOL0     C62490   2.509  11.179   2.872  0.6103  0.0418 -0.0985
  474MOL0     C62491   2.486  11.306   2.917  0.4147 -0.2722  0.1353
  474MOL0     C62492   2.587  11.400   2.915  0.3271  0.1569  0.5333
  474MOL0     C62493   2.722  11.362   2.887 -0.3273  0.9904 -0.1425
  474MOL0     O62494   2.806  11.465   2.905 -0.0869 -0.4513  0.0938
  474MOL0     C62495   2.944  11.430   2.880 -0.0996 -0.1436  0.0289
  474MOL0     C62496   3.009  11.326   2.975  1.1072 -0.3560  0.8392
  474MOL0     C62497   2.988  11.375   3.123  0.7140  0.5677  0.6113
  474MOL0     C62498   3.043  11.278   3.229  1.0988 -0.2001 -0.6795
  474MOL0     C62499   3.180  11.239   3.221 -0.4546  0.3315 -0.0430
  474MOL0     C62500   3.299  11.208   3.239 -0.7771 -0.2897  0.3951
  474MOL0     C62501   2.737  11.238   2.825 -0.1994  0.0010  0.7000
  474MOL0     C62502   2.630  11.149   2.817  0.5605 -0.0438  0.0154
  474MOL0     H62503   2.380  10.772   2.647 -2.0611  0.3815 -0.3269
  474MOL0     H62504   2.228  10.586   2.645 -3.2932 -1.6180 -0.3544
  474MOL0     H62505   1.905  10.561   2.965 -1.0996 -0.6541 -0.4565
  474MOL0     H62506   2.021  10.419   3.000 -2.0583 -1.3274 -0.0207
  474MOL0     H62507   1.781  10.357   2.967  0.5140 -2.1716 -0.0560
  474MOL0     H62508   1.899  10.274   2.869  0.0986  0.1234 -1.3631
  474MOL0     H62509   1.718  10.336   2.735  0.5022 -0.0644 -1.6627
  474MOL0     H62510   1.853  10.437   2.688 -1.5711  0.3912 -0.9931
  474MOL0     H62511   1.645  10.538   2.879  3.2836  0.3972  0.5455
  474MOL0     H62512   1.738  10.639   2.773 -0.7921  0.4962 -0.7213
  474MOL0     H62513   1.519  10.438   2.672 -0.9633 -0.0315 -1.1889
  474MOL0     H62514   1.603  10.551   2.569  3.9363  0.9254  0.7522
  474MOL0     H62515   1.519  10.736   2.712  0.8866 -0.6380  0.8358
  474MOL0     H62516   1.437  10.623   2.820  0.6275  0.1392  0.8205
  474MOL0     H62517   1.297  10.750   2.665  4.5583  1.5198  0.5512
  474MOL0     H62518   1.340  10.655   2.531 -0.3860 -0.3113 -0.0442
  474MOL0     H62519   1.213  10.513   2.786  0.9687  0.0898  0.3180
  474MOL0     H62520   1.260  10.436   2.639 -0.9509  0.5630 -2.1140
  474MOL0     H62521   0.999  10.673   2.791 -2.0346  1.9812 -0.7054
  474MOL0     H62522   0.727  10.742   2.565  2.3688  2.2551  0.9543
  474MOL0     H62523   0.760  10.726   2.738 -0.1714 -3.0990  2.8764
  474MOL0     H62524   0.571  10.579   2.739  0.3779  0.8142  0.7284
  474MOL0     H62525   0.687  10.457   2.687 -1.9961  0.2755  0.2204
  474MOL0     H62526   0.538  10.642   2.496  1.1914  0.6681  0.5656
  474MOL0     H62527   0.620  10.478   2.471  0.5232 -0.0214  1.2840
  474MOL0     H62528   0.359  10.551   2.616 -0.5617 -0.6012 -0.5888
  474MOL0     H62529   0.439  10.400   2.638  3.7768 -2.0889 -2.5618
  474MOL0     H62530   0.137  10.502   2.577 -0.4340  0.9364 -0.1893
  474MOL0     H62531  -0.070  10.366   2.568  0.1498 -2.3852  1.5635
  474MOL0     H62532  -0.246   9.879   2.455  7.0864  1.6870 -1.4646
  474MOL0     H62533  -0.448   9.769   2.375  0.0187  1.2643  1.3984
  474MOL0     H62534  -0.511   9.771   1.969  0.4614  0.8835 -0.8931
  474MOL0     H62535  -0.666   9.867   1.988 -1.5132 -0.1985  1.2009
  474MOL0     H62536  -0.624   9.563   2.015  0.9860  0.6191  0.9281
  474MOL0     H62537  -0.683   9.650   1.872  1.0740 -0.5961  0.1944
  474MOL0     H62538  -0.868   9.737   2.031 -0.8812  0.0876 -0.0818
  474MOL0     H62539  -0.801   9.614   2.147 -2.4675  0.1374  0.6502
  474MOL0     H62540  -0.922   9.556   1.877  2.7007 -0.0610 -0.5672
  474MOL0     H62541  -0.839   9.441   1.982  1.8899  1.0312  0.7138
  474MOL0     H62542  -1.093   9.609   2.071 -0.5958  0.4269  1.4332
  474MOL0     H62543  -1.007   9.508   2.175 -1.3740  0.3355 -0.2302
  474MOL0     H62544  -1.185   9.389   2.087  0.2983 -0.0076  0.6398
  474MOL0     H62545  -1.044   9.320   2.004  1.4200  0.8197 -4.2896
  474MOL0     H62546  -1.223   9.551   1.901 -0.4078  0.2575 -1.4623
  474MOL0     H62547  -1.105   9.457   1.803  3.2249  0.6056  2.3681
  474MOL0     H62548  -1.341   9.405   1.756 -1.2388 -0.2933  0.5944
  474MOL0     H62549  -1.364   9.350   1.922 -1.7936  1.8244 -0.4781
  474MOL0     H62550  -0.461  10.015   2.016 -0.4050  3.1464  2.1772
  474MOL0     H62551  -0.238  10.108   2.083  1.6839  0.7552  1.2041
  474MOL0     H62552   0.096  10.124   2.255 -1.8273  1.0405 -0.6858
  474MOL0     H62553   0.311  10.250   2.270 -2.6983 -2.3657 -2.2512
  474MOL0     H62554   2.072  10.722   3.027 -1.4664  1.0781 -0.6695
  474MOL0     H62555   2.244  10.896   3.029  3.5050 -0.4220 -0.3782
  474MOL0     H62556   2.388  11.337   2.952 -0.2306 -1.5890 -0.4408
  474MOL0     H62557   2.558  11.498   2.951 -0.3754  0.8859 -1.8141
  474MOL0     H62558   3.007  11.519   2.871  1.7969 -1.5427 -1.6694
  474MOL0     H62559   2.935  11.388   2.779 -1.2040 -3.1834  1.3028
  474MOL0     H62560   2.959  11.229   2.969  1.6331 -0.5620 -1.0629
  474MOL0     H62561   3.114  11.314   2.946  0.8895 -0.7386  0.1870
  474MOL0     H62562   2.880  11.386   3.141  0.7791 -0.1597  1.5661
  474MOL0     H62563   3.040  11.471   3.125 -1.2354  1.8371 -2.7700
  474MOL0     H62564   3.015  11.306   3.331 -0.9436 -4.6525  0.2507
  474MOL0     H62565   2.991  11.183   3.216 -0.5424  0.5862 -0.0915
  474MOL0     H62566   3.391  11.179   3.284 -1.3612  1.1919  2.6700
  474MOL0     H62567   2.828  11.203   2.778 -0.9749  2.0933 -2.6753
  474MOL0     H62568   2.643  11.050   2.773 -0.8278 -0.3854  0.3329
  475MOL0     O62569   9.600   8.464   5.903 -0.1644  0.0590 -0.1460
  475MOL0     C62570   9.631   8.365   5.972 -0.3463 -1.0866  0.1870
  475MOL0     O62571   9.553   8.252   5.979  0.3377  0.3020  0.3824
  475MOL0     C62572   9.440   8.250   5.901  0.0203  0.4198  0.2189
  475MOL0     C62573   9.439   8.195   5.772  0.0572  0.6271  0.1430
  475MOL0     C62574   9.324   8.189   5.689 -0.2093 -1.1290 -0.4775
  475MOL0     C62575   9.198   8.216   5.746  0.3306  0.2497 -0.7961
  475MOL0     O62576   9.079   8.194   5.690 -0.3988  0.2750  0.2814
  475MOL0     C62577   9.064   8.085   5.601  0.6108 -0.1355  0.1936
  475MOL0     C62578   8.920   8.060   5.574  0.0796 -0.6939  0.2843
  475MOL0     C62579   8.838   8.016   5.701  0.1138  0.4255  0.3893
  475MOL0     C62580   8.697   7.966   5.653  0.2062 -0.3040  0.0767
  475MOL0     C62581   8.653   7.860   5.754  0.2628 -0.3725 -0.1622
  475MOL0     C62582   8.630   7.916   5.896  0.3164  0.6916 -0.8575
  475MOL0     C62583   8.528   7.837   5.982 -1.0178  0.8377 -0.1074
  475MOL0     C62584   8.527   7.898   6.127  0.1962 -0.6184 -0.9032
  475MOL0     N62585   8.398   7.854   6.193 -0.0955 -0.5872 -0.0063
  475MOL0     C62586   8.360   7.726   6.232  0.5168 -0.7215 -0.3869
  475MOL0     C62587   8.228   7.734   6.263 -1.3333 -0.4720 -0.1943
  475MOL0     C62588   8.138   7.635   6.319  0.0064 -0.2422  0.0109
  475MOL0     C62589   8.087   7.680   6.461  0.1012  0.0774  0.1424
  475MOL0     C62590   7.979   7.592   6.529  0.3776 -0.7769  0.2389
  475MOL0     C62591   7.836   7.621   6.486  0.9010  0.0960  0.0766
  475MOL0     O62592   7.802   7.735   6.567  0.1450 -0.2943 -0.1083
  475MOL0     C62593   7.671   7.764   6.583 -0.5749 -1.1895 -0.4042
  475MOL0     C62594   7.617   7.849   6.688  0.2059  0.6073  0.2550
  475MOL0     C62595   7.478   7.863   6.700 -0.3603  0.1896 -0.0845
  475MOL0     C62596   7.382   7.800   6.616 -0.4798 -1.0998  0.1539
  475MOL0     C62597   7.240   7.811   6.642 -0.3666 -0.2060  0.2595
  475MOL0     O62598   7.164   7.706   6.587  0.1421  0.5593  0.5307
  475MOL0     C62599   7.024   7.726   6.575 -0.5218 -0.6442  0.1378
  475MOL0     C62600   6.954   7.722   6.448 -0.5401 -0.0239 -0.7204
  475MOL0     C62601   6.825   7.769   6.435 -0.3385  0.0648  0.1541
  475MOL0     C62602   6.755   7.817   6.544  0.2251  0.5211 -0.3889
  475MOL0     O62603   6.633   7.874   6.526  0.0728 -0.2292 -0.5132
  475MOL0     C62604   6.518   7.835   6.589 -0.0617 -0.6259 -0.1663
  475MOL0     C62605   6.409   7.840   6.483  0.9817  0.6358 -0.4337
  475MOL0     C62606   6.284   7.792   6.563  0.8452  0.4282  0.2823
  475MOL0     C62607   6.147   7.837   6.489 -0.2742 -0.4406 -0.8303
  475MOL0     C62608   6.140   7.815   6.336 -0.3455  0.0202  0.4164
  475MOL0     C62609   6.020   7.889   6.270  0.3871  0.5615 -0.4126
  475MOL0     C62610   5.976   8.029   6.315 -0.1557  0.1007  0.2125
  475MOL0     C62611   5.861   8.073   6.226  0.5329  1.1046 -0.4329
  475MOL0    Cl62612   5.788   8.223   6.291 -0.3791 -0.0563  0.1699
  475MOL0     C62613   6.817   7.816   6.674 -0.1334 -0.1829 -0.3920
  475MOL0     C62614   6.948   7.767   6.686  0.3043 -0.0223 -0.2785
  475MOL0     O62615   7.202   7.929   6.672  0.5411  0.2590  0.0214
  475MOL0     C62616   7.430   7.744   6.501  0.1895  0.6215  0.8289
  475MOL0     C62617   7.571   7.720   6.496 -0.3429 -0.5487  1.1920
  475MOL0     N62618   8.192   7.868   6.241  0.4143 -0.1494  1.0193
  475MOL0     N62619   8.290   7.935   6.208 -0.0949 -0.6718  0.2719
  475MOL0     C62620   9.195   8.278   5.872 -0.6957  0.8609  0.4795
  475MOL0     C62621   9.314   8.293   5.945 -0.0412  0.1617 -0.3824
  475MOL0     C62622   9.763   8.362   6.041  0.3888 -0.3731 -0.1698
  475MOL0     C62623   9.850   8.476   6.043  0.7086 -0.0355  0.2823
  475MOL0     C62624   9.985   8.465   6.090  0.4749  0.7875 -0.0591
  475MOL0     C62625  10.035   8.340   6.129  0.6896  0.3123 -0.1692
  475MOL0     O62626  10.156   8.329   6.185  0.4188 -0.2888  0.9747
  475MOL0     C62627  10.216   8.194   6.204 -0.6133  0.2739 -0.8140
  475MOL0     C62628  10.361   8.234   6.229  0.4366  1.1848  0.6202
  475MOL0     C62629  10.391   8.342   6.326 -0.6534 -0.0421 -0.6156
  475MOL0     C62630  10.534   8.355   6.375 -0.2529  0.4796 -0.0279
  475MOL0     C62631  10.639   8.319   6.283 -0.0798  0.2961  0.0496
  475MOL0     C62632  10.713   8.267   6.194  1.0660  0.8658  0.4319
  475MOL0     C62633   9.952   8.232   6.127  0.6506  0.0300  0.3479
  475MOL0     C62634   9.819   8.240   6.078  0.2235 -0.0172  0.1285
  475MOL0     H62635   9.536   8.172   5.729 -1.1754 -1.9624 -1.5365
  475MOL0     H62636   9.329   8.148   5.588  2.6544 -2.5505  0.1299
  475MOL0     H62637   9.111   7.995   5.642  1.4797 -0.5745 -1.6290
  475MOL0     H62638   9.109   8.109   5.504  0.4649  1.8252  0.5848
  475MOL0     H62639   8.922   7.976   5.505  1.4908 -1.4391  1.1747
  475MOL0     H62640   8.878   8.152   5.531 -0.9058 -1.3288 -0.1548
  475MOL0     H62641   8.833   8.085   5.785  0.5760 -1.4722  2.0421
  475MOL0     H62642   8.893   7.930   5.741 -0.0558 -1.4503 -2.9406
  475MOL0     H62643   8.631   8.052   5.641  1.0689  0.4519  0.5693
  475MOL0     H62644   8.704   7.928   5.551  1.0309  0.9096 -0.3491
  475MOL0     H62645   8.724   7.776   5.752  1.5354  0.6039 -3.5303
  475MOL0     H62646   8.552   7.834   5.723  0.2951 -1.3330  0.4994
  475MOL0     H62647   8.606   8.023   5.891  3.3354  1.5287 -0.1536
  475MOL0     H62648   8.721   7.905   5.957  0.6879 -1.1626 -1.6838
  475MOL0     H62649   8.423   7.841   5.953 -1.3146  0.4288  0.8581
  475MOL0     H62650   8.558   7.732   5.978 -3.2936  0.1495 -0.1749
  475MOL0     H62651   8.524   8.007   6.124 -0.8308 -0.6570 -3.1218
  475MOL0     H62652   8.604   7.867   6.199 -0.4267 -0.6535 -0.2363
  475MOL0     H62653   8.423   7.638   6.231  2.8751  0.8922 -0.2616
  475MOL0     H62654   8.182   7.535   6.329 -2.7393 -1.5404  0.0167
  475MOL0     H62655   8.054   7.620   6.252  0.7303 -0.3901 -0.8804
  475MOL0     H62656   8.038   7.777   6.459 -1.5513 -0.7182 -0.2978
  475MOL0     H62657   8.177   7.679   6.522  0.5620  1.3135 -0.4948
  475MOL0     H62658   7.993   7.484   6.515 -0.5723 -0.9063  0.2697
  475MOL0     H62659   7.995   7.616   6.635  0.3892 -0.6632  0.2108
  475MOL0     H62660   7.777   7.536   6.520 -3.5427  1.9552 -2.1219
  475MOL0     H62661   7.831   7.627   6.377  1.6436 -0.3170  0.0142
  475MOL0     H62662   7.679   7.895   6.764 -0.1183 -3.2598  3.1694
  475MOL0     H62663   7.448   7.913   6.792 -0.4549 -3.1566  1.8506
  475MOL0     H62664   7.002   7.691   6.355  0.0966 -1.1906 -0.0210
  475MOL0     H62665   6.769   7.772   6.342 -2.9916  0.6533  1.6561
  475MOL0     H62666   6.490   7.892   6.678 -0.0741  0.1859 -0.6882
  475MOL0     H62667   6.525   7.729   6.616 -3.3845 -1.5006 -2.1078
  475MOL0     H62668   6.431   7.780   6.393  2.1542  2.5966 -1.5330
  475MOL0     H62669   6.383   7.939   6.443  0.8426  0.0942 -1.7326
  475MOL0     H62670   6.282   7.822   6.668  0.2727 -0.7759  0.6399
  475MOL0     H62671   6.272   7.683   6.564 -1.5776  0.6376  0.2118
  475MOL0     H62672   6.065   7.786   6.540  0.7706  0.8003  2.3310
  475MOL0     H62673   6.135   7.943   6.511  2.7781 -0.2779  0.5500
  475MOL0     H62674   6.136   7.713   6.297 -3.3696  1.2028 -2.8680
  475MOL0     H62675   6.227   7.854   6.282  0.8545 -2.8879  0.0770
  475MOL0     H62676   5.934   7.822   6.278  0.6966  0.0500 -1.2530
  475MOL0     H62677   6.032   7.898   6.162 -1.0507 -2.4301 -0.9019
  475MOL0     H62678   5.951   8.024   6.422  2.8687 -0.6530  0.9743
  475MOL0     H62679   6.062   8.094   6.297 -1.0689  1.4932  0.7156
  475MOL0     H62680   5.786   7.994   6.222 -0.2429  1.8627 -1.6161
  475MOL0     H62681   5.890   8.089   6.121  0.0146 -1.0074 -0.9484
  475MOL0     H62682   6.756   7.851   6.757  1.1801  1.5742 -0.0939
  475MOL0     H62683   7.004   7.758   6.779  0.1282 -0.6524 -0.2341
  475MOL0     H62684   7.364   7.699   6.427  2.2729 -0.0465 -0.7289
  475MOL0     H62685   7.603   7.653   6.416  0.6184  1.9962 -0.6946
  475MOL0     H62686   9.109   8.308   5.932  0.6740  0.5353  2.7450
  475MOL0     H62687   9.296   8.340   6.041 -0.1132 -0.9932  0.1850
  475MOL0     H62688   9.804   8.561   5.994 -1.1654 -1.1099  0.0860
  475MOL0     H62689  10.054   8.548   6.096  0.5665  0.7767 -0.8522
  475MOL0     H62690  10.192   8.129   6.121 -3.8176  1.2281 -0.7765
  475MOL0     H62691  10.184   8.160   6.303 -1.3042 -0.5895 -1.3171
  475MOL0     H62692  10.401   8.140   6.268  0.1605  2.1305  3.4103
  475MOL0     H62693  10.392   8.255   6.126 -0.8300 -1.5335 -0.4312
  475MOL0     H62694  10.323   8.345   6.412 -3.2794 -1.5298 -2.4798
  475MOL0     H62695  10.377   8.444   6.289  1.8512  0.2863 -0.8038
  475MOL0     H62696  10.544   8.457   6.415  0.4978  0.4244 -0.0561
  475MOL0     H62697  10.533   8.291   6.464 -2.7425  1.7515  0.9798
  475MOL0     H62698  10.772   8.235   6.110 -0.2508 -0.7926  0.1041
  475MOL0     H62699   9.987   8.140   6.174  4.9803  1.7250  0.9391
  475MOL0     H62700   9.762   8.148   6.074  0.0636  0.1206 -2.7361
  476MOL0     O62701   5.121   2.509   4.479 -0.3366  0.5766  0.1371
  476MOL0     C62702   5.137   2.508   4.360 -0.1352  0.5179 -0.4381
  476MOL0     O62703   5.049   2.461   4.265 -0.0207  0.6792 -0.3165
  476MOL0     C62704   4.927   2.413   4.302 -0.2164  0.2933  0.7168
  476MOL0     C62705   4.874   2.322   4.217  0.1668  0.4858  0.1554
  476MOL0     C62706   4.744   2.270   4.254 -0.4283  0.7857  0.6544
  476MOL0     C62707   4.662   2.323   4.354 -0.0877 -0.7462 -0.9307
  476MOL0     O62708   4.538   2.275   4.370 -0.4423  0.3222  0.3112
  476MOL0     C62709   4.445   2.351   4.452  0.4878 -0.3444  0.6007
  476MOL0     C62710   4.321   2.268   4.476 -0.2457  0.3489 -0.3698
  476MOL0     C62711   4.221   2.351   4.554 -0.5134  0.5339 -0.1925
  476MOL0     C62712   4.086   2.295   4.559 -0.9327  0.2245  0.0957
  476MOL0     C62713   3.984   2.391   4.611 -0.4382 -0.8681 -0.5139
  476MOL0     C62714   3.845   2.364   4.566  0.0999  0.5286 -0.8201
  476MOL0     C62715   3.778   2.251   4.654  0.1860 -0.1764 -0.2047
  476MOL0     C62716   3.617   2.261   4.642 -0.3641  1.1919 -0.5508
  476MOL0     N62717   3.550   2.152   4.712  0.5181 -0.2504 -0.5312
  476MOL0     C62718   3.447   2.182   4.795  0.1515 -0.8299  0.2482
  476MOL0     C62719   3.425   2.057   4.857 -0.1043 -0.3827 -0.4963
  476MOL0     C62720   3.335   2.047   4.974  0.8589 -0.5455 -0.3818
  476MOL0     C62721   3.184   2.077   4.939 -0.5707  0.0471 -0.1844
  476MOL0     C62722   3.101   1.949   4.915 -0.0001 -0.2758  0.6591
  476MOL0     C62723   2.953   1.993   4.901  0.0131 -0.2835  0.0035
  476MOL0     O62724   2.943   2.093   4.799 -0.8383 -0.1577  0.5050
  476MOL0     C62725   2.821   2.126   4.755 -0.4015  0.1216  0.1326
  476MOL0     C62726   2.813   2.216   4.644  0.5089  0.2366 -0.0956
  476MOL0     C62727   2.691   2.265   4.597  0.5457  0.5284  0.4041
  476MOL0     C62728   2.573   2.208   4.635  0.0516  0.2988 -0.4421
  476MOL0     C62729   2.448   2.258   4.574 -0.4145 -0.2545 -0.4484
  476MOL0     O62730   2.341   2.175   4.579  0.7077  0.0744 -0.2872
  476MOL0     C62731   2.211   2.221   4.576  0.3605 -0.5444 -0.9643
  476MOL0     C62732   2.121   2.161   4.663  0.7170 -0.0835  0.0124
  476MOL0     C62733   1.990   2.216   4.676  0.4935  0.0082  0.7047
  476MOL0     C62734   1.946   2.311   4.588  0.0341  0.3465 -0.6928
  476MOL0     O62735   1.819   2.361   4.587  0.0073 -0.0082  0.3191
  476MOL0     C62736   1.712   2.267   4.569  0.2072 -0.4256  0.0793
  476MOL0     C62737   1.593   2.350   4.511  0.6279 -0.6183 -0.8092
  476MOL0     C62738   1.554   2.463   4.600  0.8807 -0.7769 -0.6538
  476MOL0     C62739   1.409   2.528   4.574 -0.1972 -0.4326  0.4558
  476MOL0     C62740   1.372   2.636   4.679 -0.1838 -0.0691 -0.4124
  476MOL0     C62741   1.220   2.671   4.655 -0.0416  0.3077 -0.4045
  476MOL0     C62742   1.202   2.738   4.524 -0.0692 -0.0661 -0.0899
  476MOL0     C62743   1.054   2.782   4.522 -0.3933 -0.3296  0.1120
  476MOL0    Cl62744   0.980   2.775   4.353  0.3446  0.5302  0.0628
  476MOL0     C62745   2.038   2.371   4.510  0.7623  0.4088  0.1277
  476MOL0     C62746   2.169   2.328   4.500  0.0948 -0.4288  0.4426
  476MOL0     O62747   2.446   2.376   4.542 -0.3124  0.0659  0.1396
  476MOL0     C62748   2.567   2.118   4.749 -0.2152  0.2426  0.2841
  476MOL0     C62749   2.697   2.083   4.809  0.8158  0.7590 -0.1241
  476MOL0     N62750   3.509   1.962   4.792  0.0177 -0.1895 -1.0148
  476MOL0     N62751   3.591   2.025   4.719 -0.5921 -0.6017  0.6877
  476MOL0     C62752   4.722   2.429   4.435 -0.0510  0.1278  0.6665
  476MOL0     C62753   4.855   2.468   4.412 -0.6232 -0.2164  0.7908
  476MOL0     C62754   5.260   2.561   4.306 -0.7987  0.1397 -0.1556
  476MOL0     C62755   5.274   2.580   4.180  0.7832  0.8578  0.8259
  476MOL0     C62756   5.377   2.649   4.124 -1.5130  0.0040 -0.5956
  476MOL0     C62757   5.488   2.694   4.201 -0.4321  0.5989 -0.6947
  476MOL0     O62758   5.590   2.759   4.137 -0.5831 -0.0521 -0.5743
  476MOL0     C62759   5.718   2.784   4.207 -0.6289 -0.3039 -1.0279
  476MOL0     C62760   5.833   2.814   4.110  0.2222 -0.1369 -0.6010
  476MOL0     C62761   5.826   2.959   4.054  0.1624 -0.2995 -0.0164
  476MOL0     C62762   5.916   2.975   3.929  0.4818 -0.1389  0.3573
  476MOL0     C62763   5.884   2.898   3.809  0.3024  0.2150 -0.2844
  476MOL0     C62764   5.862   2.841   3.703  0.0647  0.1273  0.2183
  476MOL0     C62765   5.483   2.659   4.338 -0.2720 -0.0727  0.4212
  476MOL0     C62766   5.369   2.596   4.394  0.2763 -0.3412 -0.7437
  476MOL0     H62767   4.914   2.273   4.129  0.3905  3.8261 -1.8067
  476MOL0     H62768   4.701   2.198   4.185  1.6532 -1.1604  1.2683
  476MOL0     H62769   4.415   2.441   4.396  0.6565 -0.8469 -0.3181
  476MOL0     H62770   4.480   2.373   4.553 -0.5949 -0.0590  0.9230
  476MOL0     H62771   4.338   2.176   4.532 -1.7400 -0.1472 -0.6810
  476MOL0     H62772   4.268   2.241   4.384 -1.8731 -0.5845  0.7858
  476MOL0     H62773   4.206   2.449   4.509  0.1570  1.4658  1.5330
  476MOL0     H62774   4.256   2.367   4.656 -2.4294 -2.5447  1.1166
  476MOL0     H62775   4.048   2.260   4.463 -0.5300  0.7290 -0.2486
  476MOL0     H62776   4.073   2.204   4.619 -0.3738  0.3967  0.4880
  476MOL0     H62777   4.013   2.489   4.573  1.0467 -0.2053  2.1029
  476MOL0     H62778   3.995   2.406   4.718  0.7345  1.4206 -0.8912
  476MOL0     H62779   3.844   2.330   4.462 -0.4416 -3.5810  0.3498
  476MOL0     H62780   3.793   2.459   4.576 -1.6395 -0.5809  1.7536
  476MOL0     H62781   3.823   2.159   4.615  0.7569 -0.4320  1.0053
  476MOL0     H62782   3.807   2.261   4.759 -3.0935 -3.5150  1.2667
  476MOL0     H62783   3.593   2.259   4.535  1.0502  4.5671 -1.0489
  476MOL0     H62784   3.594   2.363   4.674  4.6832  2.1061  1.0678
  476MOL0     H62785   3.393   2.276   4.807 -1.7901 -1.6083 -1.7876
  476MOL0     H62786   3.370   2.113   5.054 -0.5896 -2.2739  1.8077
  476MOL0     H62787   3.334   1.941   5.000 -0.2918 -0.6204 -0.6597
  476MOL0     H62788   3.173   2.147   4.856 -4.3236 -0.7836 -0.5409
  476MOL0     H62789   3.140   2.127   5.026  0.3050 -0.7300  0.7392
  476MOL0     H62790   3.119   1.891   4.824 -1.3840 -0.0822  0.2490
  476MOL0     H62791   3.099   1.881   5.001  1.8193 -0.3018  0.7283
  476MOL0     H62792   2.914   2.028   4.997  2.7524  0.0464  1.0746
  476MOL0     H62793   2.898   1.905   4.867  0.1874 -0.1967 -0.5101
  476MOL0     H62794   2.907   2.241   4.597 -0.4627 -0.3403 -2.4986
  476MOL0     H62795   2.702   2.341   4.519 -1.7301 -1.1886 -1.7624
  476MOL0     H62796   2.153   2.078   4.725 -3.0292 -0.8894  1.1524
  476MOL0     H62797   1.905   2.182   4.734  0.3614  0.4415  0.7691
  476MOL0     H62798   1.686   2.239   4.671 -1.1566 -1.1158 -0.4318
  476MOL0     H62799   1.728   2.178   4.507 -0.6579 -2.6068  2.8183
  476MOL0     H62800   1.506   2.291   4.482 -0.6829  1.9596 -2.4521
  476MOL0     H62801   1.624   2.400   4.419 -1.4140  1.6548 -0.3594
  476MOL0     H62802   1.624   2.543   4.573  1.3178 -0.5168  1.1671
  476MOL0     H62803   1.568   2.436   4.705  3.1483  0.0500 -0.6782
  476MOL0     H62804   1.414   2.565   4.471  1.7278  2.2497  1.4013
  476MOL0     H62805   1.340   2.444   4.585  1.5441 -2.2464 -1.5365
  476MOL0     H62806   1.425   2.732   4.677 -0.9454  0.4630  1.9376
  476MOL0     H62807   1.388   2.587   4.775  2.1944 -0.2911 -0.8654
  476MOL0     H62808   1.199   2.741   4.737  0.3871  0.6109 -0.5454
  476MOL0     H62809   1.157   2.582   4.665 -0.8091  1.0686  2.5082
  476MOL0     H62810   1.265   2.826   4.510 -0.7905  0.4701 -0.0178
  476MOL0     H62811   1.207   2.675   4.435  0.7809  1.7487 -1.3774
  476MOL0     H62812   1.064   2.887   4.550  2.5097 -0.5583  0.2087
  476MOL0     H62813   0.998   2.715   4.588 -1.7294 -0.6536 -1.3088
  476MOL0     H62814   2.001   2.458   4.456  0.3948  1.0725  1.3876
  476MOL0     H62815   2.239   2.378   4.434  0.2430 -1.4595 -0.2068
  476MOL0     H62816   2.468   2.096   4.786 -0.4468  1.5574  0.4997
  476MOL0     H62817   2.682   2.015   4.892  1.2390  0.4921 -0.2678
  476MOL0     H62818   4.683   2.479   4.523  1.4616 -0.9055  2.0037
  476MOL0     H62819   4.896   2.555   4.463  0.2926  0.3549 -0.8702
  476MOL0     H62820   5.207   2.537   4.106  1.3471 -2.1458  1.9308
  476MOL0     H62821   5.374   2.661   4.016  0.6708 -1.5401 -0.8832
  476MOL0     H62822   5.743   2.698   4.270 -3.8464 -1.8035 -1.6163
  476MOL0     H62823   5.718   2.870   4.275  1.8933  2.0376 -3.7146
  476MOL0     H62824   5.929   2.807   4.162 -0.4730  1.1306  0.9431
  476MOL0     H62825   5.838   2.739   4.031  2.4823 -1.3950  0.6354
  476MOL0     H62826   5.852   3.025   4.137  0.4541 -1.3037  0.7076
  476MOL0     H62827   5.724   2.973   4.017 -0.6749 -2.8867  1.1135
  476MOL0     H62828   5.909   3.079   3.895  0.5341 -0.7142 -1.4796
  476MOL0     H62829   6.021   2.963   3.960  0.8620  1.3533 -0.2534
  476MOL0     H62830   5.859   2.782   3.613  2.3985 -1.7622  1.2672
  476MOL0     H62831   5.560   2.687   4.409  1.2042  1.9612 -1.8045
  476MOL0     H62832   5.357   2.588   4.501 -0.3048 -0.9499 -0.8531
  477MOL0     O62833   3.502   3.950   1.654 -0.6534  0.1337  0.3653
  477MOL0     C62834   3.468   4.057   1.607  0.4750  0.1581 -0.6541
  477MOL0     O62835   3.554   4.154   1.565 -0.1967 -0.1311 -0.3258
  477MOL0     C62836   3.694   4.147   1.589 -0.0937 -0.0891 -0.1897
  477MOL0     C62837   3.754   4.107   1.712  0.7010  0.2792 -0.2858
  477MOL0     C62838   3.888   4.130   1.730 -0.9743 -0.9826  0.2797
  477MOL0     C62839   3.974   4.162   1.616 -0.0798  0.2801 -0.0982
  477MOL0     O62840   4.112   4.184   1.619  0.1079 -0.2994 -0.0089
  477MOL0     C62841   4.169   4.174   1.747 -0.9674  0.4820 -1.0554
  477MOL0     C62842   4.319   4.175   1.719  0.2738 -0.9121  0.1750
  477MOL0     C62843   4.402   4.127   1.833 -0.4448  0.8179  0.3389
  477MOL0     C62844   4.378   4.210   1.967 -0.3488  0.4475 -0.0150
  477MOL0     C62845   4.485   4.170   2.069  0.8780 -0.3511  0.1106
  477MOL0     C62846   4.624   4.243   2.042  0.1347 -0.2098  1.0460
  477MOL0     C62847   4.728   4.232   2.160  0.3407 -0.1327 -0.4209
  477MOL0     C62848   4.666   4.274   2.295 -0.4763  0.5109  0.9102
  477MOL0     N62849   4.766   4.275   2.397  0.1360 -0.4551 -0.8830
  477MOL0     C62850   4.753   4.325   2.526  0.2506  0.6765 -0.4603
  477MOL0     C62851   4.863   4.270   2.596 -0.3672 -0.4517 -0.2949
  477MOL0     C62852   4.898   4.313   2.739  0.6291 -0.3832  0.4466
  477MOL0     C62853   4.850   4.201   2.838 -0.2988  0.1057 -0.2296
  477MOL0     C62854   4.933   4.207   2.966  0.1476 -0.0540  1.0173
  477MOL0     C62855   4.909   4.331   3.061  0.0966  0.8625 -0.0485
  477MOL0     O62856   4.980   4.312   3.178 -0.0491  0.5774 -0.2497
  477MOL0     C62857   5.065   4.406   3.223 -0.5655 -0.0687  0.2001
  477MOL0     C62858   5.134   4.511   3.150 -0.2620  0.2480 -0.3556
  477MOL0     C62859   5.227   4.596   3.206  0.6975  0.0895 -1.2505
  477MOL0     C62860   5.266   4.582   3.341  0.4614  0.0110 -0.0643
  477MOL0     C62861   5.375   4.658   3.406  0.3217 -0.2132 -0.3963
  477MOL0     O62862   5.420   4.607   3.528 -0.1794 -0.6895 -0.0736
  477MOL0     C62863   5.483   4.694   3.614  0.6199  0.5627  0.3415
  477MOL0     C62864   5.396   4.748   3.708 -0.6385 -0.1379  0.1173
  477MOL0     C62865   5.455   4.841   3.786 -0.2191 -0.5194  0.1512
  477MOL0     C62866   5.591   4.883   3.777 -0.7053  0.1015 -0.7100
  477MOL0     O62867   5.657   4.979   3.853 -0.0428  0.1840 -0.0433
  477MOL0     C62868   5.602   5.009   3.981  0.4590 -0.0926 -0.8765
  477MOL0     C62869   5.701   5.102   4.052  0.1786  0.1524 -0.5445
  477MOL0     C62870   5.838   5.041   4.073 -0.2534 -0.1530  0.7145
  477MOL0     C62871   5.930   5.154   4.118 -0.1492  0.1479  0.3942
  477MOL0     C62872   6.069   5.099   4.158  0.0422  0.6210 -0.1435
  477MOL0     C62873   6.170   5.208   4.198  0.0078 -0.5676  0.1202
  477MOL0     C62874   6.321   5.169   4.193 -0.3951 -0.2618  0.2743
  477MOL0     C62875   6.417   5.247   4.286 -0.0355  0.7182  0.5792
  477MOL0    Cl62876   6.581   5.180   4.229 -0.5279 -0.0263 -0.0800
  477MOL0     C62877   5.679   4.820   3.688 -0.3927 -0.1736  0.4682
  477MOL0     C62878   5.622   4.726   3.598  1.2797  0.1876 -0.9397
  477MOL0     O62879   5.430   4.755   3.351  0.2263 -0.3366 -0.4081
  477MOL0     C62880   5.206   4.484   3.416 -0.8162 -0.4377 -0.6385
  477MOL0     C62881   5.109   4.398   3.358  0.3329  0.3774  1.0394
  477MOL0     N62882   4.930   4.180   2.513 -0.1925 -0.2901 -0.2317
  477MOL0     N62883   4.875   4.186   2.399  0.5048 -0.0369  0.3360
  477MOL0     C62884   3.912   4.207   1.500 -0.2228 -0.4974  0.2465
  477MOL0     C62885   3.774   4.190   1.482 -0.3041 -0.1324 -0.0165
  477MOL0     C62886   3.332   4.103   1.609  0.3046  0.6038  0.1658
  477MOL0     C62887   3.233   4.053   1.699 -0.2635  0.2208  0.4436
  477MOL0     C62888   3.102   4.098   1.686 -0.7860 -0.3320  0.4544
  477MOL0     C62889   3.067   4.191   1.587  0.7313 -0.3923 -0.4588
  477MOL0     O62890   2.944   4.244   1.574 -0.2783 -0.3141  0.7490
  477MOL0     C62891   2.926   4.380   1.620  0.0513 -0.3613  0.3788
  477MOL0     C62892   2.785   4.429   1.645  0.6467 -0.8174 -0.5398
  477MOL0     C62893   2.676   4.397   1.532 -1.0345 -0.2415 -0.2511
  477MOL0     C62894   2.626   4.247   1.527 -0.5081  0.6090  0.1136
  477MOL0     C62895   2.582   4.184   1.658 -0.4277  0.5459 -0.2754
  477MOL0     C62896   2.550   4.153   1.770  0.0567 -0.0606 -0.2175
  477MOL0     C62897   3.158   4.244   1.505 -0.3725  0.6186  0.0472
  477MOL0     C62898   3.291   4.198   1.518 -0.1840 -0.4982  0.2294
  477MOL0     H62899   3.687   4.075   1.792 -0.0386  4.0376  0.7962
  477MOL0     H62900   3.936   4.090   1.818  1.9253 -1.5104 -1.4122
  477MOL0     H62901   4.131   4.076   1.777  0.2234  0.5470  0.8239
  477MOL0     H62902   4.142   4.242   1.829  2.7739 -0.0298  0.8102
  477MOL0     H62903   4.358   4.275   1.695 -0.5840  0.1524  2.8369
  477MOL0     H62904   4.326   4.102   1.638 -1.6837 -2.1619  1.0730
  477MOL0     H62905   4.508   4.129   1.807 -0.2061 -0.3749  1.1080
  477MOL0     H62906   4.380   4.022   1.858  1.8430 -0.5681 -2.8981
  477MOL0     H62907   4.382   4.319   1.955  1.3684  0.4890  0.6557
  477MOL0     H62908   4.276   4.187   1.996 -0.9289  0.8299 -1.6353
  477MOL0     H62909   4.495   4.061   2.064 -2.1449 -0.6538 -2.2768
  477MOL0     H62910   4.445   4.188   2.169  0.5853 -2.4849  0.4265
  477MOL0     H62911   4.591   4.347   2.036  3.1904  0.9155  1.8782
  477MOL0     H62912   4.675   4.219   1.948  2.2983  1.1325  1.7916
  477MOL0     H62913   4.771   4.132   2.168  3.4999  1.2520  5.6672
  477MOL0     H62914   4.815   4.296   2.139  0.1570  0.3891  0.3757
  477MOL0     H62915   4.592   4.203   2.333 -1.6472  0.8384 -0.6488
  477MOL0     H62916   4.617   4.371   2.285 -1.2659 -0.0600 -1.1313
  477MOL0     H62917   4.674   4.389   2.562  0.4520 -0.9216  3.2343
  477MOL0     H62918   4.861   4.411   2.770  2.3911  0.1432  1.0343
  477MOL0     H62919   5.004   4.341   2.742  0.1029  1.8881 -0.2362
  477MOL0     H62920   4.873   4.103   2.795  2.0395  1.2447 -1.7603
  477MOL0     H62921   4.743   4.209   2.856 -0.7782 -1.8924 -1.8350
  477MOL0     H62922   4.925   4.118   3.030 -3.2126  0.5422  1.6224
  477MOL0     H62923   5.037   4.213   2.934  0.4326 -0.3985  1.8422
  477MOL0     H62924   4.807   4.334   3.100 -0.2621  0.2287 -0.9235
  477MOL0     H62925   4.932   4.427   3.014  1.3260  1.9712  2.6115
  477MOL0     H62926   5.111   4.517   3.045 -1.8307 -2.3048 -0.2526
  477MOL0     H62927   5.286   4.667   3.149  2.3207 -0.8064 -0.7314
  477MOL0     H62928   5.289   4.732   3.712 -0.7311 -0.0736 -1.3955
  477MOL0     H62929   5.387   4.898   3.848 -2.0652 -1.3650 -0.9974
  477MOL0     H62930   5.597   4.914   4.036  0.9296  0.5202  0.2572
  477MOL0     H62931   5.502   5.050   3.967 -0.0916 -0.5720  1.2101
  477MOL0     H62932   5.667   5.141   4.149 -0.6798 -0.3694 -0.6273
  477MOL0     H62933   5.709   5.193   3.992  2.2733  0.8905  0.7416
  477MOL0     H62934   5.870   4.997   3.978 -3.5181  0.7600 -0.9270
  477MOL0     H62935   5.834   4.959   4.145  0.4513 -0.9643 -0.1344
  477MOL0     H62936   5.944   5.220   4.033 -1.9629  3.0532  2.1913
  477MOL0     H62937   5.891   5.212   4.203  0.8413 -1.3575  1.9536
  477MOL0     H62938   6.118   5.044   4.078 -0.0030  0.7704 -0.2750
  477MOL0     H62939   6.059   5.020   4.233  1.9198  0.4289 -0.0481
  477MOL0     H62940   6.144   5.246   4.298 -2.2396 -0.1801 -0.5565
  477MOL0     H62941   6.163   5.290   4.126  0.1846 -0.0457  0.6833
  477MOL0     H62942   6.330   5.066   4.229  2.4637  0.3569  1.6115
  477MOL0     H62943   6.354   5.185   4.090  1.9866 -1.5481  0.7704
  477MOL0     H62944   6.402   5.232   4.393 -1.3433  1.9867  0.5957
  477MOL0     H62945   6.419   5.355   4.271 -1.4196  0.5953 -0.7677
  477MOL0     H62946   5.784   4.844   3.687  0.0213 -1.8547 -0.8323
  477MOL0     H62947   5.674   4.669   3.522  0.0556 -1.5381 -0.5438
  477MOL0     H62948   5.200   4.483   3.524 -2.3380  1.8875 -0.6238
  477MOL0     H62949   5.071   4.318   3.421 -0.6873 -0.0619 -0.0927
  477MOL0     H62950   3.972   4.238   1.415 -0.1530 -1.9954 -0.2832
  477MOL0     H62951   3.711   4.212   1.396  0.6716  0.6985 -0.5314
  477MOL0     H62952   3.251   3.990   1.785 -0.6531  2.1902  2.0426
  477MOL0     H62953   3.015   4.048   1.728 -0.3024 -1.3613  0.2593
  477MOL0     H62954   2.955   4.452   1.543 -2.3969  0.8895  0.5120
  477MOL0     H62955   2.988   4.399   1.708 -0.1481  1.5456  0.1563
  477MOL0     H62956   2.742   4.379   1.732  0.8495 -0.8555 -0.4614
  477MOL0     H62957   2.798   4.536   1.663  3.3746 -0.8166 -1.9477
  477MOL0     H62958   2.704   4.425   1.430 -0.1071  0.2593  0.1377
  477MOL0     H62959   2.599   4.468   1.563 -0.6044 -0.6747  2.0229
  477MOL0     H62960   2.532   4.244   1.471  0.3979 -2.8999 -1.4932
  477MOL0     H62961   2.688   4.181   1.466 -0.5360  0.1227  0.6018
  477MOL0     H62962   2.513   4.100   1.856  0.8445  0.6681  0.6023
  477MOL0     H62963   3.130   4.309   1.423 -0.1012 -0.2617 -0.7593
  477MOL0     H62964   3.371   4.222   1.449  0.6890 -2.4199  0.5113
  478MOL0     O62965   0.768   5.182   1.643  0.7385 -0.4198  0.0241
  478MOL0     C62966   0.857   5.219   1.722  0.1119 -0.5262 -0.1547
  478MOL0     O62967   0.846   5.212   1.852  0.5348 -0.0841 -0.9671
  478MOL0     C62968   0.729   5.176   1.914 -0.4004  0.4433 -0.5744
  478MOL0     C62969   0.720   5.058   1.993  0.6035  0.2853  1.1678
  478MOL0     C62970   0.598   5.015   2.053  0.1179  0.3304 -0.7859
  478MOL0     C62971   0.487   5.104   2.055 -0.1388  0.7554  0.8358
  478MOL0     O62972   0.373   5.075   2.125 -0.4621 -0.2581  0.2960
  478MOL0     C62973   0.350   4.943   2.178 -0.0604  0.2611 -0.5230
  478MOL0     C62974   0.216   4.933   2.245 -0.6850 -0.4970 -0.4726
  478MOL0     C62975   0.107   4.956   2.141  0.0468 -0.1719  0.4010
  478MOL0     C62976  -0.035   4.954   2.212  0.4236 -0.3254 -0.4744
  478MOL0     C62977  -0.146   5.002   2.123  0.5620 -0.3018  0.1695
  478MOL0     C62978  -0.159   4.931   1.985 -0.4580 -0.9586 -0.5351
  478MOL0     C62979  -0.279   4.985   1.919 -0.0458  0.0437 -0.3465
  478MOL0     C62980  -0.410   4.936   1.981  0.4511  0.5676 -0.1970
  478MOL0     N62981  -0.540   4.974   1.919 -0.4042 -0.4495  0.0670
  478MOL0     C62982  -0.606   5.092   1.937  0.5213 -0.1592 -0.1125
  478MOL0     C62983  -0.710   5.095   1.842  0.7035 -0.5972 -0.3938
  478MOL0     C62984  -0.815   5.215   1.841  0.2496 -0.3288 -0.4355
  478MOL0     C62985  -0.923   5.198   1.729 -0.5064  0.5602  0.5482
  478MOL0     C62986  -1.027   5.302   1.745  0.4150 -1.0675  0.0632
  478MOL0     C62987  -1.134   5.261   1.636  0.0620 -0.2195  0.0418
  478MOL0     O62988  -1.234   5.367   1.631 -0.3890  0.3348 -0.0608
  478MOL0     C62989  -1.321   5.382   1.527 -0.0390  0.2633 -0.0745
  478MOL0     C62990  -1.398   5.496   1.520  0.5954 -0.4832 -0.0760
  478MOL0     C62991  -1.505   5.500   1.424  0.2655 -0.1347  1.2495
  478MOL0     C62992  -1.515   5.400   1.327  0.5561 -0.4156 -0.0306
  478MOL0     C62993  -1.604   5.414   1.213  0.7965  0.4687  0.1057
  478MOL0     O62994  -1.703   5.506   1.230  0.5221  0.9265  0.8383
  478MOL0     C62995  -1.802   5.521   1.133 -1.1932  0.1756 -0.3444
  478MOL0     C62996  -1.860   5.410   1.073  0.2574  0.0217  0.1462
  478MOL0     C62997  -1.952   5.427   0.972  0.4510  1.2212  0.7161
  478MOL0     C62998  -2.000   5.554   0.943  0.4635 -0.2631 -0.5716
  478MOL0     O62999  -2.104   5.585   0.853 -0.2094  0.7858  0.2195
  478MOL0     C63000  -2.190   5.475   0.806 -0.0979  0.4149  0.6097
  478MOL0     C63001  -2.114   5.408   0.684  0.1933 -0.1533 -0.6947
  478MOL0     C63002  -2.093   5.506   0.560  0.1629  0.3693  0.1052
  478MOL0     C63003  -2.229   5.553   0.497 -0.5148 -0.9895 -0.5493
  478MOL0     C63004  -2.214   5.631   0.370 -1.5577 -0.4923 -0.3364
  478MOL0     C63005  -2.346   5.649   0.292  0.9726 -0.1586  0.0152
  478MOL0     C63006  -2.325   5.694   0.146  0.9150  0.0605 -0.8657
  478MOL0     C63007  -2.448   5.769   0.088  0.8366 -0.7661  0.6596
  478MOL0    Cl63008  -2.401   5.830  -0.074 -0.3201 -0.1263  0.5789
  478MOL0     C63009  -1.949   5.662   1.009  0.3506 -0.8937 -0.1778
  478MOL0     C63010  -1.852   5.648   1.113  0.6421 -0.3203 -0.5237
  478MOL0     O63011  -1.597   5.339   1.117 -0.0599  0.7074 -0.8056
  478MOL0     C63012  -1.441   5.281   1.336  0.9981 -0.3733 -0.1032
  478MOL0     C63013  -1.343   5.281   1.433 -0.4748 -0.3234 -1.0703
  478MOL0     N63014  -0.701   4.978   1.777 -0.2148  0.2903 -0.3572
  478MOL0     N63015  -0.602   4.902   1.826  0.7377 -0.2672  0.0010
  478MOL0     C63016   0.497   5.222   1.980  0.0949 -0.4437  0.0139
  478MOL0     C63017   0.617   5.263   1.916 -0.2033 -0.1190 -0.0473
  478MOL0     C63018   1.002   5.247   1.676 -0.0735  0.1592  0.2774
  478MOL0     C63019   1.108   5.246   1.765  0.3189 -0.0032 -0.2838
  478MOL0     C63020   1.239   5.274   1.729  0.6338 -0.0999 -1.3394
  478MOL0     C63021   1.265   5.289   1.594 -0.7470 -0.1875  1.2348
  478MOL0     O63022   1.395   5.323   1.568  0.2457 -0.0800  0.2098
  478MOL0     C63023   1.480   5.209   1.526  0.6059  0.8073 -0.4574
  478MOL0     C63024   1.621   5.260   1.501  0.2158 -1.1337  0.0204
  478MOL0     C63025   1.684   5.299   1.639 -0.0909  0.0757  0.3011
  478MOL0     C63026   1.822   5.364   1.629  0.8323  0.6096 -0.4657
  478MOL0     C63027   1.820   5.476   1.538 -0.9473  0.5031  0.2585
  478MOL0     C63028   1.824   5.578   1.478 -0.0566  0.3399  0.7193
  478MOL0     C63029   1.172   5.280   1.498  0.7976  0.6725  0.9918
  478MOL0     C63030   1.040   5.261   1.536  0.4469  0.4313  0.0077
  478MOL0     H63031   0.812   5.001   2.003  1.0871  1.0975  1.4740
  478MOL0     H63032   0.604   4.913   2.090 -0.6790 -0.8549 -3.6990
  478MOL0     H63033   0.420   4.908   2.254  0.1932 -2.2824 -1.8442
  478MOL0     H63034   0.362   4.871   2.097 -0.4793 -0.1730 -0.1994
  478MOL0     H63035   0.211   5.004   2.328  2.7602 -2.4506  1.6641
  478MOL0     H63036   0.200   4.834   2.290 -1.9855  0.4594  1.2923
  478MOL0     H63037   0.101   4.875   2.068 -1.7330  1.0541 -0.9048
  478MOL0     H63038   0.121   5.055   2.096  2.6681 -0.8399 -0.4492
  478MOL0     H63039  -0.043   4.849   2.241  0.0303 -0.4708 -1.0963
  478MOL0     H63040  -0.040   5.007   2.308  1.9923  1.2310 -1.2120
  478MOL0     H63041  -0.121   5.106   2.099  0.2885 -0.3155 -0.1857
  478MOL0     H63042  -0.242   4.991   2.173  0.9181  2.8390  1.7553
  478MOL0     H63043  -0.173   4.824   1.998  0.1749 -1.3166 -2.5054
  478MOL0     H63044  -0.066   4.936   1.928  0.1541  2.0496  0.5307
  478MOL0     H63045  -0.273   5.094   1.927  2.6649 -0.1541  1.9269
  478MOL0     H63046  -0.284   4.949   1.816 -1.4762 -0.5671 -0.0889
  478MOL0     H63047  -0.421   4.949   2.089  1.2146 -0.1041 -0.0266
  478MOL0     H63048  -0.410   4.827   1.970  1.1757  0.6634 -1.2619
  478MOL0     H63049  -0.605   5.165   2.017 -4.6078 -0.2071  0.2898
  478MOL0     H63050  -0.768   5.313   1.826 -5.1933  2.6434 -0.6078
  478MOL0     H63051  -0.865   5.229   1.937 -0.5813  2.6801 -1.2027
  478MOL0     H63052  -0.972   5.103   1.753  0.4923  0.0326  0.5918
  478MOL0     H63053  -0.878   5.190   1.629 -0.9325  1.7668  0.2464
  478MOL0     H63054  -1.071   5.289   1.844  0.8565 -2.5767  0.0851
  478MOL0     H63055  -0.995   5.404   1.724  1.0739 -1.2414  0.2033
  478MOL0     H63056  -1.173   5.161   1.657  1.4434 -1.3434 -2.2019
  478MOL0     H63057  -1.077   5.255   1.542  0.5568  0.1640  0.3099
  478MOL0     H63058  -1.384   5.579   1.589  2.6338 -0.4925 -0.4260
  478MOL0     H63059  -1.560   5.594   1.425 -1.6167 -1.1622  0.2753
  478MOL0     H63060  -1.835   5.315   1.119 -1.3894 -0.5162  0.0038
  478MOL0     H63061  -1.985   5.340   0.917  2.4139  1.7285 -1.4459
  478MOL0     H63062  -2.285   5.514   0.767  0.8860  1.2920 -1.0142
  478MOL0     H63063  -2.220   5.404   0.884 -1.5113  0.2557 -0.0577
  478MOL0     H63064  -2.168   5.315   0.665  3.2984 -2.2439 -0.0047
  478MOL0     H63065  -2.011   5.377   0.699  0.6746  1.1279 -1.1904
  478MOL0     H63066  -2.025   5.465   0.485  0.7681 -1.2192  1.4734
  478MOL0     H63067  -2.041   5.596   0.591 -1.2486  2.3035 -2.7282
  478MOL0     H63068  -2.287   5.465   0.468 -0.2258 -0.5369 -2.6200
  478MOL0     H63069  -2.295   5.609   0.563 -1.1564  1.2332 -2.9425
  478MOL0     H63070  -2.143   5.571   0.311 -1.3205  0.9765 -1.6069
  478MOL0     H63071  -2.169   5.728   0.390 -0.9125 -0.2429 -2.6462
  478MOL0     H63072  -2.405   5.727   0.340  0.5812  0.6738 -1.7260
  478MOL0     H63073  -2.405   5.557   0.290 -2.1408  1.7199 -0.4734
  478MOL0     H63074  -2.241   5.764   0.147 -0.7980  2.2183 -0.5319
  478MOL0     H63075  -2.298   5.603   0.092  2.0627  0.6253 -1.2959
  478MOL0     H63076  -2.487   5.853   0.147 -0.5432  0.3396 -1.6629
  478MOL0     H63077  -2.537   5.706   0.078  0.0719  0.5369 -1.3333
  478MOL0     H63078  -1.989   5.761   0.991 -1.5037 -1.7762 -1.1914
  478MOL0     H63079  -1.807   5.730   1.168 -2.2878  1.0899  0.0040
  478MOL0     H63080  -1.452   5.196   1.269 -0.6854 -1.1258  1.0427
  478MOL0     H63081  -1.286   5.190   1.451  1.5669  1.1503  0.2816
  478MOL0     H63082   0.412   5.290   1.976 -0.1199 -0.7535 -1.3738
  478MOL0     H63083   0.628   5.353   1.857  0.0618 -0.9978 -1.3773
  478MOL0     H63084   1.079   5.234   1.869 -1.7583  2.4563 -0.4678
  478MOL0     H63085   1.321   5.285   1.799 -0.6471  0.7473  0.1054
  478MOL0     H63086   1.440   5.160   1.436  3.8719  0.5759 -1.9176
  478MOL0     H63087   1.481   5.134   1.606  2.6396  1.9104  0.6139
  478MOL0     H63088   1.692   5.192   1.453  0.5226 -2.1266  1.7738
  478MOL0     H63089   1.608   5.350   1.440 -1.1995 -1.2224  0.1434
  478MOL0     H63090   1.696   5.207   1.697  1.1219 -0.1941 -0.3623
  478MOL0     H63091   1.616   5.369   1.690  0.7152 -1.0404  3.0917
  478MOL0     H63092   1.845   5.403   1.729  0.7304 -1.5443  0.4672
  478MOL0     H63093   1.901   5.296   1.594  0.2572  0.7482 -2.1046
  478MOL0     H63094   1.827   5.660   1.409 -0.4116  0.0476  0.3495
  478MOL0     H63095   1.195   5.302   1.394 -0.3829  1.5116  0.8834
  478MOL0     H63096   0.955   5.251   1.469  0.4991 -0.6875  0.0935
  479MOL0     O63097   9.270   7.024   9.908  0.7219 -0.6145  0.0628
  479MOL0     C63098   9.348   7.061   9.817  0.0864  0.1803  0.1756
  479MOL0     O63099   9.321   7.128   9.703  0.4755  0.2577 -0.0839
  479MOL0     C63100   9.201   7.164   9.671  1.1735 -0.0156  0.0194
  479MOL0     C63101   9.083   7.090   9.697  0.5415  0.2672 -0.6989
  479MOL0     C63102   8.959   7.154   9.663 -1.5107  0.1044  0.0880
  479MOL0     C63103   8.945   7.272   9.595 -0.0025 -0.8052  0.0834
  479MOL0     O63104   8.818   7.321   9.584  0.0447 -0.0277 -0.4061
  479MOL0     C63105   8.785   7.391   9.464 -0.2276 -0.1583  0.8876
  479MOL0     C63106   8.638   7.446   9.477  0.0495 -0.1590 -0.8350
  479MOL0     C63107   8.537   7.340   9.516 -0.4732 -0.5840  0.5717
  479MOL0     C63108   8.418   7.406   9.584  0.4500  0.1716  0.1194
  479MOL0     C63109   8.304   7.296   9.581  0.2545 -0.7147  0.7278
  479MOL0     C63110   8.184   7.325   9.677 -0.2908 -0.5093  0.1790
  479MOL0     C63111   8.102   7.198   9.677  0.7723 -0.3737 -0.4888
  479MOL0     C63112   7.970   7.200   9.761 -0.6458  0.0853 -0.2328
  479MOL0     N63113   7.976   7.281   9.882 -0.2098  0.4718  0.4305
  479MOL0     C63114   8.034   7.242  10.001 -0.2488 -0.4456 -0.0349
  479MOL0     C63115   8.028   7.349  10.089  0.6897  0.4503  0.4419
  479MOL0     C63116   8.082   7.354  10.231  0.2459 -0.7862  0.1702
  479MOL0     C63117   7.991   7.373  10.349  0.2182 -0.4824  0.5137
  479MOL0     C63118   7.886   7.254  10.374 -0.6331  0.1388  0.2008
  479MOL0     C63119   7.799   7.259  10.505 -0.2699  0.5179 -0.3563
  479MOL0     O63120   7.708   7.144  10.518  0.2202  0.1431  0.1372
  479MOL0     C63121   7.578   7.160  10.462 -0.0472 -0.4915  0.6189
  479MOL0     C63122   7.486   7.094  10.536  0.5143  0.2423 -0.4110
  479MOL0     C63123   7.347   7.119  10.516 -0.9080 -0.0250  0.0902
  479MOL0     C63124   7.304   7.172  10.393 -0.3736 -0.4093 -0.4396
  479MOL0     C63125   7.163   7.195  10.371 -0.1034  0.1485  0.3089
  479MOL0     O63126   7.087   7.216  10.480  0.6480  0.1104  0.2920
  479MOL0     C63127   6.942   7.209  10.475 -0.4702 -1.0701  0.2695
  479MOL0     C63128   6.861   7.169  10.365 -1.4089 -0.2820 -0.2211
  479MOL0     C63129   6.723   7.190  10.356 -0.3960 -0.8645 -0.6412
  479MOL0     C63130   6.657   7.248  10.466  0.8686 -0.8441 -0.2578
  479MOL0     O63131   6.523   7.281  10.472 -0.5914 -0.1507 -0.1984
  479MOL0     C63132   6.430   7.202  10.388 -0.2157 -0.3823 -0.8814
  479MOL0     C63133   6.289   7.235  10.430  0.0868  0.9726 -0.1638
  479MOL0     C63134   6.257   7.231  10.580  0.0312 -0.7038 -0.6486
  479MOL0     C63135   6.116   7.240  10.617  0.1167 -0.0711  1.0270
  479MOL0     C63136   6.068   7.390  10.600 -0.9974 -0.3368 -0.2488
  479MOL0     C63137   5.951   7.429  10.689 -0.0273  0.5621 -0.4879
  479MOL0     C63138   5.815   7.347  10.665 -0.0600 -0.1645 -0.4334
  479MOL0     C63139   5.726   7.361  10.789  0.9460  0.0397  0.3131
  479MOL0    Cl63140   5.660   7.526  10.791 -0.4017 -0.0213 -0.1122
  479MOL0     C63141   6.731   7.280  10.576  0.0234  0.0352  0.1791
  479MOL0     C63142   6.872   7.272  10.578  1.0606 -0.4221 -0.4465
  479MOL0     O63143   7.123   7.183  10.252 -0.1876 -0.4641  0.0229
  479MOL0     C63144   7.403   7.247  10.320 -0.1455 -0.7019  0.6606
  479MOL0     C63145   7.540   7.248  10.363 -0.0880 -0.7473  0.5165
  479MOL0     N63146   7.972   7.449  10.020  1.1973  0.2490  0.1645
  479MOL0     N63147   7.944   7.415   9.901  1.7496 -0.1275  0.2837
  479MOL0     C63148   9.064   7.342   9.562 -0.3818  0.3626  0.2180
  479MOL0     C63149   9.187   7.285   9.596  0.4245 -0.7709  0.8837
  479MOL0     C63150   9.490   7.032   9.837 -0.7849  0.7861 -0.6619
  479MOL0     C63151   9.585   7.078   9.747 -0.6398  0.4582  0.6630
  479MOL0     C63152   9.722   7.042   9.763 -0.1382 -0.0035  0.3610
  479MOL0     C63153   9.771   6.966   9.873  1.0256  0.9051  0.0891
  479MOL0     O63154   9.901   6.932   9.894 -0.1657  0.4575 -0.0304
  479MOL0     C63155  10.011   6.963   9.810  0.5662 -0.2504  0.7465
  479MOL0     C63156  10.132   6.955   9.908  0.2285 -0.2592  0.7549
  479MOL0     C63157  10.260   6.985   9.827  0.7474  1.1338 -0.4761
  479MOL0     C63158  10.382   7.029   9.914  0.1835  0.1311  0.0261
  479MOL0     C63159  10.492   7.077   9.821 -0.5084 -0.0287 -0.7431
  479MOL0     C63160  10.585   7.107   9.745 -0.2575  0.0522 -1.0270
  479MOL0     C63161   9.673   6.928   9.969 -0.1249 -0.2463  0.7186
  479MOL0     C63162   9.537   6.957   9.949  0.0703  0.3379 -0.3247
  479MOL0     H63163   9.078   6.991   9.739 -3.7212 -0.3513 -2.1376
  479MOL0     H63164   8.875   7.095   9.698 -1.2845 -0.6753 -0.6463
  479MOL0     H63165   8.797   7.322   9.379  0.7197 -0.3012  1.1268
  479MOL0     H63166   8.847   7.481   9.471  0.2408 -0.4959  1.1756
  479MOL0     H63167   8.595   7.503   9.394 -1.7801 -0.2561 -0.0162
  479MOL0     H63168   8.643   7.518   9.560  1.7354 -0.0917 -0.9732
  479MOL0     H63169   8.576   7.261   9.581  0.9283 -2.0214 -1.8568
  479MOL0     H63170   8.503   7.281   9.430 -2.3096  0.9149  0.1821
  479MOL0     H63171   8.440   7.430   9.689 -0.9770 -1.6908  0.8978
  479MOL0     H63172   8.380   7.493   9.530 -2.8750 -0.2698  1.5065
  479MOL0     H63173   8.348   7.198   9.602  2.5268 -0.0045 -0.3863
  479MOL0     H63174   8.257   7.296   9.482  1.1183  5.6944 -0.1107
  479MOL0     H63175   8.129   7.418   9.659  1.7220  1.2535  2.3724
  479MOL0     H63176   8.238   7.343   9.771  0.4449  0.5016 -0.4164
  479MOL0     H63177   8.068   7.165   9.578 -0.3900  0.3999 -0.3727
  479MOL0     H63178   8.163   7.119   9.723  0.4527 -0.6492 -0.5307
  479MOL0     H63179   7.955   7.095   9.787  1.5962 -0.6853 -1.7480
  479MOL0     H63180   7.882   7.230   9.703 -0.3799  1.0096 -0.1770
  479MOL0     H63181   8.061   7.142  10.034  3.1339 -0.1028 -1.2951
  479MOL0     H63182   8.160   7.431  10.229  1.3505 -1.8854 -1.4877
  479MOL0     H63183   8.134   7.260  10.248  1.5002  0.1528  1.8855
  479MOL0     H63184   7.931   7.462  10.329  1.0693  0.7606  3.0737
  479MOL0     H63185   8.056   7.388  10.435 -1.5888  3.0335  1.4736
  479MOL0     H63186   7.826   7.249  10.283  1.3784  1.9711 -1.3213
  479MOL0     H63187   7.945   7.162  10.370  2.9310  2.2531 -0.5363
  479MOL0     H63188   7.735   7.347  10.499 -2.3303 -1.0200 -3.5799
  479MOL0     H63189   7.867   7.263  10.591 -0.5252 -1.4273 -0.0234
  479MOL0     H63190   7.511   7.031  10.620 -1.1115  0.1055  0.0057
  479MOL0     H63191   7.285   7.075  10.594 -0.2375 -0.2662  0.4931
  479MOL0     H63192   6.886   7.125  10.269  0.3441  0.6293 -0.2321
  479MOL0     H63193   6.666   7.157  10.270 -1.9742 -0.7905  0.3480
  479MOL0     H63194   6.458   7.096  10.397  1.1103 -0.0030 -0.3278
  479MOL0     H63195   6.449   7.221  10.282 -0.1998 -0.1067 -0.8300
  479MOL0     H63196   6.231   7.150  10.393 -0.5388  1.7167 -0.8943
  479MOL0     H63197   6.264   7.328  10.379 -1.0891  0.2315 -0.9981
  479MOL0     H63198   6.316   7.308  10.630 -0.2714 -0.7660 -0.1876
  479MOL0     H63199   6.293   7.136  10.621  1.1933 -0.2496 -0.5898
  479MOL0     H63200   6.055   7.169  10.561  2.9113 -0.8918 -1.2454
  479MOL0     H63201   6.124   7.213  10.723  5.0295 -0.2665  0.8787
  479MOL0     H63202   6.057   7.414  10.494  3.9353  0.7878 -0.7471
  479MOL0     H63203   6.150   7.457  10.627 -0.7926  0.8953 -3.5048
  479MOL0     H63204   5.930   7.535  10.672  0.2936  0.6011 -0.6429
  479MOL0     H63205   5.981   7.406  10.791 -2.9088 -4.3000 -0.4309
  479MOL0     H63206   5.764   7.383  10.575  0.3893  1.5611 -0.0345
  479MOL0     H63207   5.847   7.242  10.659  1.4554  0.1783  0.8856
  479MOL0     H63208   5.777   7.349  10.885 -1.3694 -2.7822  1.3183
  479MOL0     H63209   5.642   7.292  10.780  0.8738  0.3871 -2.9887
  479MOL0     H63210   6.686   7.322  10.666  2.4631 -1.2563  2.1122
  479MOL0     H63211   6.928   7.293  10.668  1.7946  1.4722 -1.3043
  479MOL0     H63212   7.374   7.309  10.236  0.1505 -0.2449  0.8849
  479MOL0     H63213   7.609   7.313  10.311  1.8381 -0.7548  2.9400
  479MOL0     H63214   9.063   7.430   9.497  0.4496  0.0877 -0.1799
  479MOL0     H63215   9.274   7.345   9.575 -0.6705  1.4408  2.3230
  479MOL0     H63216   9.555   7.145   9.667  0.9843  0.0049 -0.3676
  479MOL0     H63217   9.797   7.087   9.699 -1.6177  1.3841 -0.4722
  479MOL0     H63218  10.009   7.060   9.760 -1.1408 -0.1346  0.9939
  479MOL0     H63219  10.027   6.889   9.731  0.8552 -1.6605  2.0886
  479MOL0     H63220  10.116   7.035   9.981  0.7057  1.0214 -0.5079
  479MOL0     H63221  10.135   6.851   9.941 -0.7353 -1.5689 -2.8437
  479MOL0     H63222  10.242   7.063   9.751 -2.3741 -1.3350 -2.5211
  479MOL0     H63223  10.295   6.895   9.776 -0.3033  1.6506 -2.2037
  479MOL0     H63224  10.349   7.113   9.976 -0.8920 -0.6310  0.5074
  479MOL0     H63225  10.421   6.949   9.977  0.5857  1.8456  2.0647
  479MOL0     H63226  10.672   7.119   9.683  1.5207 -2.3009  0.8539
  479MOL0     H63227   9.709   6.869  10.053  2.6356 -1.7509 -1.3362
  479MOL0     H63228   9.458   6.925  10.016 -1.6109  1.8682 -1.4908
  480MOL0     O63229  10.001   0.987   4.255 -0.1665  0.0515 -0.1236
  480MOL0     C63230  10.070   0.902   4.301 -0.8493  0.0293  0.0593
  480MOL0     O63231  10.036   0.789   4.370 -0.2951 -0.0815  0.7291
  480MOL0     C63232   9.904   0.749   4.365 -0.9506 -0.3078  0.2568
  480MOL0     C63233   9.859   0.679   4.256 -0.4589  0.5626 -0.3881
  480MOL0     C63234   9.731   0.648   4.244  0.5410 -0.0409  0.2519
  480MOL0     C63235   9.637   0.680   4.336 -0.6566 -0.2707 -0.3894
  480MOL0     O63236   9.514   0.637   4.313  0.0078  0.2118  0.6007
  480MOL0     C63237   9.413   0.739   4.319  0.0633  0.9991 -0.4308
  480MOL0     C63238   9.322   0.699   4.440  0.0253  0.0803 -0.0090
  480MOL0     C63239   9.211   0.792   4.456  0.1516 -0.8507  0.4504
  480MOL0     C63240   9.129   0.744   4.572 -0.9761  0.2808 -0.1653
  480MOL0     C63241   8.989   0.798   4.572  0.4455  0.3104 -0.5654
  480MOL0     C63242   8.917   0.754   4.695  0.1855 -0.4360 -0.3142
  480MOL0     C63243   8.772   0.805   4.710  0.4708 -0.0407 -0.3206
  480MOL0     C63244   8.696   0.733   4.824 -0.2965  0.1992 -0.1064
  480MOL0     N63245   8.748   0.764   4.958 -0.1600  0.2830 -0.2689
  480MOL0     C63246   8.791   0.886   5.001 -0.5996 -0.2956 -0.0466
  480MOL0     C63247   8.827   0.885   5.135  0.0682 -0.0034  0.0855
  480MOL0     C63248   8.874   0.992   5.225  0.2293  0.7796 -0.1199
  480MOL0     C63249   9.021   1.031   5.220 -0.9797  0.8608  0.0958
  480MOL0     C63250   9.070   1.089   5.358 -0.4169 -0.2374  0.0657
  480MOL0     C63251   9.221   1.125   5.353 -0.1007  0.0387 -0.1659
  480MOL0     O63252   9.301   1.022   5.290  0.1556 -0.0979  0.4842
  480MOL0     C63253   9.434   1.029   5.322 -0.1138 -0.1112  0.5537
  480MOL0     C63254   9.518   0.925   5.304  0.0848  0.5545  0.2042
  480MOL0     C63255   9.659   0.923   5.314 -0.1903  0.4074  0.4937
  480MOL0     C63256   9.720   1.044   5.364  0.0790  0.1677  0.6829
  480MOL0     C63257   9.868   1.054   5.383  0.2480 -0.1978 -0.5095
  480MOL0     O63258   9.928   1.166   5.316  0.3840 -0.0119  0.0669
  480MOL0     C63259  10.060   1.207   5.310 -0.6790 -0.8487 -1.2491
  480MOL0     C63260  10.174   1.136   5.348 -0.1444  0.4306  0.2419
  480MOL0     C63261  10.301   1.184   5.335 -0.0063  0.5305  0.5472
  480MOL0     C63262  10.323   1.311   5.267  0.0069 -0.1694 -0.5751
  480MOL0     O63263  10.449   1.366   5.236  0.2947 -0.8954  0.7863
  480MOL0     C63264  10.565   1.318   5.299 -0.0409  0.2657  0.3247
  480MOL0     C63265  10.680   1.399   5.250  0.0684 -0.5061 -0.5192
  480MOL0     C63266  10.703   1.407   5.099 -0.2692  0.5514  0.5044
  480MOL0     C63267  10.744   1.268   5.034  0.3922  0.2630  0.7125
  480MOL0     C63268  10.885   1.219   5.086 -0.2388 -0.0521  0.2964
  480MOL0     C63269  10.923   1.094   5.011  0.2389  0.0286 -0.0744
  480MOL0     C63270  11.048   1.045   5.086  0.1534  1.0249  0.8472
  480MOL0     C63271  11.076   0.895   5.069  0.6013 -0.4753 -0.6004
  480MOL0    Cl63272  11.076   0.856   4.895 -0.0898  0.1168  0.3161
  480MOL0     C63273  10.208   1.379   5.234 -0.0960  0.7586 -0.0072
  480MOL0     C63274  10.080   1.329   5.249  0.0935 -1.0551  0.0695
  480MOL0     O63275   9.927   0.969   5.442 -0.2848  0.4870 -0.0364
  480MOL0     C63276   9.640   1.154   5.391 -0.5917  1.0244  0.4409
  480MOL0     C63277   9.499   1.148   5.363  0.5764  0.5465  0.4484
  480MOL0     N63278   8.806   0.751   5.167 -0.2485 -0.3857  0.1154
  480MOL0     N63279   8.752   0.686   5.068 -0.1435  0.8253 -0.3287
  480MOL0     C63280   9.681   0.755   4.448  0.6931 -0.0804  0.1253
  480MOL0     C63281   9.818   0.784   4.464 -0.0466 -0.0417 -0.0884
  480MOL0     C63282  10.213   0.939   4.294  0.0563 -0.3745 -0.3443
  480MOL0     C63283  10.306   0.853   4.359 -0.0902 -0.7854 -0.6734
  480MOL0     C63284  10.438   0.887   4.368  0.1253  0.3191 -0.6271
  480MOL0     C63285  10.487   0.992   4.290  1.3192  0.0203 -0.7034
  480MOL0     O63286  10.620   1.031   4.284  0.7339 -0.5630 -0.5866
  480MOL0     C63287  10.711   0.966   4.361 -0.2388  0.1666  0.3788
  480MOL0     C63288  10.697   0.972   4.522 -0.1373  0.1294  0.1955
  480MOL0     C63289  10.836   0.984   4.579 -1.0929  0.7196  0.3239
  480MOL0     C63290  10.926   0.862   4.540  0.1446  1.0349  0.4545
  480MOL0     C63291  10.906   0.730   4.604 -0.5781  0.5933  0.6265
  480MOL0     C63292  10.893   0.615   4.642  0.0917 -0.1123 -0.1884
  480MOL0     C63293  10.397   1.073   4.221 -0.2858 -0.2144 -0.4835
  480MOL0     C63294  10.261   1.043   4.218  0.0457  0.5038 -0.1266
  480MOL0     H63295   9.933   0.648   4.182  0.4255  1.1441  0.2340
  480MOL0     H63296   9.691   0.582   4.168 -1.8215  1.1879  0.3253
  480MOL0     H63297   9.360   0.733   4.224  1.0688  0.1591 -0.9723
  480MOL0     H63298   9.452   0.840   4.330 -0.9120  1.2350  1.1356
  480MOL0     H63299   9.385   0.688   4.529 -0.7371  0.0479  0.5355
  480MOL0     H63300   9.277   0.602   4.417 -1.2487  0.5812  0.3021
  480MOL0     H63301   9.142   0.771   4.374 -0.6170  0.7162  0.6584
  480MOL0     H63302   9.235   0.898   4.468 -1.3208 -0.4529 -0.0065
  480MOL0     H63303   9.130   0.635   4.563  0.4549  0.3110 -0.6055
  480MOL0     H63304   9.181   0.780   4.661 -1.1408 -0.0504  0.0672
  480MOL0     H63305   8.943   0.764   4.479  1.0510  0.9535 -1.1113
  480MOL0     H63306   9.005   0.906   4.563  1.0381  0.2943  0.1773
  480MOL0     H63307   8.982   0.789   4.776 -0.7113 -1.0340  0.6836
  480MOL0     H63308   8.919   0.646   4.710  0.9055 -0.4363 -0.3686
  480MOL0     H63309   8.774   0.912   4.733  0.9720  0.1280 -1.0915
  480MOL0     H63310   8.718   0.802   4.615  1.6210  2.5591 -1.1348
  480MOL0     H63311   8.709   0.626   4.805  0.0841  0.5029 -1.6867
  480MOL0     H63312   8.590   0.760   4.822 -0.4323 -0.3443 -0.8223
  480MOL0     H63313   8.798   0.980   4.948 -1.8335  0.3777  0.9279
  480MOL0     H63314   8.851   0.962   5.327 -0.1076 -1.9202 -0.9033
  480MOL0     H63315   8.802   1.073   5.218 -0.3276  0.2857 -0.2251
  480MOL0     H63316   9.032   1.095   5.132 -0.3757 -2.1098 -2.1576
  480MOL0     H63317   9.088   0.945   5.214 -0.3091  1.0346  3.2089
  480MOL0     H63318   9.026   1.188   5.368  1.0967  0.4820 -0.1442
  480MOL0     H63319   9.035   1.022   5.437 -1.2842  0.7409  0.5410
  480MOL0     H63320   9.241   1.150   5.457 -0.3340 -0.4272 -0.0040
  480MOL0     H63321   9.227   1.223   5.305 -1.2619  0.3617  0.2917
  480MOL0     H63322   9.467   0.833   5.274 -2.8303  1.6530  1.4642
  480MOL0     H63323   9.709   0.831   5.284 -2.4541 -0.5933 -0.3945
  480MOL0     H63324  10.169   1.038   5.395 -1.9387  0.2600 -0.2021
  480MOL0     H63325  10.391   1.136   5.373 -0.4120 -0.5755  0.1442
  480MOL0     H63326  10.565   1.211   5.276 -3.4761  0.7521 -2.8667
  480MOL0     H63327  10.562   1.320   5.408 -1.5574  1.1036  0.3010
  480MOL0     H63328  10.770   1.360   5.297 -1.4405 -1.8955  1.3963
  480MOL0     H63329  10.665   1.502   5.284  0.5044 -0.6846  0.2281
  480MOL0     H63330  10.776   1.484   5.074 -0.9550  0.6198 -1.5391
  480MOL0     H63331  10.612   1.437   5.045  1.3276 -0.1586 -2.9040
  480MOL0     H63332  10.663   1.195   5.041 -3.8966  4.6280  2.4816
  480MOL0     H63333  10.759   1.289   4.927 -0.0485  1.5059  0.8875
  480MOL0     H63334  10.869   1.202   5.193  0.1212 -0.4553  0.2911
  480MOL0     H63335  10.962   1.293   5.062 -0.2071 -0.4098 -0.7513
  480MOL0     H63336  10.947   1.120   4.908 -0.5847  2.5417  0.3034
  480MOL0     H63337  10.844   1.018   5.004  0.1270 -0.0168  1.3567
  480MOL0     H63338  11.137   1.103   5.059  2.3627 -1.7173  1.7717
  480MOL0     H63339  11.034   1.064   5.193 -1.4335  0.4671  0.7592
  480MOL0     H63340  10.994   0.831   5.104  1.2013 -1.0337 -0.1971
  480MOL0     H63341  11.171   0.884   5.120  0.0702  1.4154  0.9276
  480MOL0     H63342  10.220   1.486   5.217 -2.7928  1.3614  1.2703
  480MOL0     H63343  10.000   1.402   5.239  0.5934  0.0669  3.1786
  480MOL0     H63344   9.671   1.249   5.432  1.9193 -0.6810  2.8064
  480MOL0     H63345   9.447   1.242   5.374  2.6218  2.0010 -1.3755
  480MOL0     H63346   9.611   0.788   4.524 -0.8422  3.0106 -2.3743
  480MOL0     H63347   9.854   0.845   4.546  2.1579 -0.9710 -0.3061
  480MOL0     H63348  10.273   0.768   4.418  1.0764  1.5783  3.9423
  480MOL0     H63349  10.505   0.822   4.424 -0.7485  0.4287  0.6123
  480MOL0     H63350  10.809   0.997   4.323  1.1666 -1.9510  2.0284
  480MOL0     H63351  10.711   0.859   4.338 -0.2583  0.4092 -0.8223
  480MOL0     H63352  10.645   1.059   4.564  0.2629  0.3439  0.2425
  480MOL0     H63353  10.641   0.884   4.556 -3.1522  1.6731 -0.3539
  480MOL0     H63354  10.835   0.997   4.687  0.9149  1.9579  0.2404
  480MOL0     H63355  10.884   1.070   4.529 -2.6524 -0.5266 -3.7339
  480MOL0     H63356  10.920   0.837   4.434  0.9772 -0.3294  0.7021
  480MOL0     H63357  11.028   0.893   4.564  0.2408 -0.1620  1.7385
  480MOL0     H63358  10.880   0.515   4.677 -0.1121 -0.4065 -1.0637
  480MOL0     H63359  10.453   1.155   4.177  1.6770 -2.2785 -2.0716
  480MOL0     H63360  10.199   1.109   4.158 -3.2145 -1.9209  0.3214
  481MOL0     O63361   3.314   4.737   3.562  0.1578  0.3546  0.4399
  481MOL0     C63362   3.380   4.636   3.575 -0.1411  0.2896 -0.3470
  481MOL0     O63363   3.361   4.514   3.517  0.4296 -0.4097 -0.0196
  481MOL0     C63364   3.242   4.491   3.447  0.0985  0.1462  0.4701
  481MOL0     C63365   3.127   4.444   3.524  0.6298  0.0495  0.0101
  481MOL0     C63366   3.010   4.415   3.454  0.3991 -0.1172  0.4078
  481MOL0     C63367   2.997   4.438   3.321  0.0696  0.4347  0.1586
  481MOL0     O63368   2.870   4.404   3.269 -0.6240  0.1027  0.0745
  481MOL0     C63369   2.842   4.414   3.126 -0.2748 -0.8193 -0.1180
  481MOL0     C63370   2.767   4.548   3.091 -0.7189 -0.4599 -0.2340
  481MOL0     C63371   2.619   4.565   3.132 -0.3133 -0.0033  0.7310
  481MOL0     C63372   2.592   4.549   3.285  0.2949  0.5215  0.1016
  481MOL0     C63373   2.440   4.542   3.332 -0.0639  0.0792  0.9228
  481MOL0     C63374   2.359   4.658   3.282 -0.9852  1.1905  0.3187
  481MOL0     C63375   2.211   4.639   3.318  1.2390  0.4270 -0.3403
  481MOL0     C63376   2.133   4.507   3.282 -0.0200  0.7600 -0.2847
  481MOL0     N63377   1.995   4.521   3.318  0.1850  0.4914 -1.0687
  481MOL0     C63378   1.957   4.509   3.445  0.2157 -0.1072 -1.0182
  481MOL0     C63379   1.823   4.497   3.444 -0.2702  0.6402  0.1939
  481MOL0     C63380   1.740   4.480   3.567 -0.0148 -0.8210 -0.4166
  481MOL0     C63381   1.609   4.394   3.549 -0.4160 -0.4491 -0.5997
  481MOL0     C63382   1.480   4.473   3.529  0.3098 -0.8215 -0.3332
  481MOL0     C63383   1.365   4.378   3.489  0.1571 -0.1802 -0.7586
  481MOL0     O63384   1.239   4.425   3.548 -0.9261  0.1081 -0.2806
  481MOL0     C63385   1.184   4.358   3.656  0.1541  0.5101 -0.2143
  481MOL0     C63386   1.230   4.260   3.743 -0.2405 -0.9268  0.7460
  481MOL0     C63387   1.149   4.206   3.844  1.2546  0.2533 -0.7704
  481MOL0     C63388   1.020   4.254   3.872  0.5528  0.8023 -0.1174
  481MOL0     C63389   0.940   4.217   3.986  0.2673 -0.0728  1.0882
  481MOL0     O63390   0.977   4.108   4.054  0.1252 -0.1398 -0.2762
  481MOL0     C63391   0.917   4.063   4.164 -0.6275  0.1191  0.2319
  481MOL0     C63392   0.822   4.140   4.245  0.9834  0.6057 -0.0804
  481MOL0     C63393   0.778   4.085   4.371 -0.4848  0.0261  0.3479
  481MOL0     C63394   0.820   3.961   4.422  0.6387  0.1212  0.0570
  481MOL0     O63395   0.778   3.913   4.543  0.7038  0.7482 -0.2503
  481MOL0     C63396   0.639   3.937   4.587 -0.4768  0.3133 -0.2838
  481MOL0     C63397   0.625   3.868   4.718  0.7257 -0.6027 -0.8253
  481MOL0     C63398   0.476   3.897   4.768 -0.9211  0.4113  0.1620
  481MOL0     C63399   0.362   3.875   4.667  0.1346 -0.3620  0.5969
  481MOL0     C63400   0.331   3.732   4.626 -0.4358 -0.5125  0.6329
  481MOL0     C63401   0.200   3.749   4.542 -0.1166 -0.2271 -0.3987
  481MOL0     C63402   0.153   3.615   4.493  0.1946  0.0407 -0.5009
  481MOL0     C63403   0.014   3.618   4.431  1.4429  0.0312 -0.0253
  481MOL0    Cl63404  -0.115   3.649   4.561  0.1328  0.2992  0.4250
  481MOL0     C63405   0.913   3.889   4.352 -1.1687  0.3755  0.8428
  481MOL0     C63406   0.953   3.943   4.225  0.4256  0.7747  0.2499
  481MOL0     O63407   0.845   4.292   4.011  0.4877 -0.0902  0.0179
  481MOL0     C63408   0.968   4.355   3.780  0.3948  0.3510 -0.5500
  481MOL0     C63409   1.053   4.408   3.682 -1.0931 -0.1567  0.2333
  481MOL0     N63410   1.785   4.513   3.309 -0.0614 -0.3205 -0.5906
  481MOL0     N63411   1.889   4.520   3.233 -0.2021 -0.5627 -0.6166
  481MOL0     C63412   3.107   4.476   3.250 -0.2560 -0.8616 -0.2199
  481MOL0     C63413   3.227   4.511   3.313  0.3282 -0.2982 -0.3240
  481MOL0     C63414   3.511   4.641   3.648  0.1304  0.0892 -0.3703
  481MOL0     C63415   3.611   4.546   3.628 -0.4892 -0.3214 -0.8656
  481MOL0     C63416   3.728   4.567   3.701 -0.0655 -0.3501  0.0083
  481MOL0     C63417   3.752   4.662   3.803  0.8532 -1.2103  1.2056
  481MOL0     O63418   3.870   4.671   3.869  0.3390 -0.3728  0.8496
  481MOL0     C63419   3.956   4.784   3.848  0.7310 -0.6415  0.8860
  481MOL0     C63420   4.085   4.748   3.904 -0.2637  0.7644  0.0735
  481MOL0     C63421   4.189   4.866   3.888  0.2671  0.3306 -0.0345
  481MOL0     C63422   4.154   4.993   3.968 -0.2305 -0.4322  1.0965
  481MOL0     C63423   4.277   5.072   3.986 -0.9227  0.4742  0.3230
  481MOL0     C63424   4.382   5.131   3.994  0.7114 -0.4518 -0.3493
  481MOL0     C63425   3.650   4.750   3.823 -0.6254  0.1106 -0.5113
  481MOL0     C63426   3.539   4.751   3.743 -0.3624  1.0408  0.4264
  481MOL0     H63427   3.123   4.423   3.630  2.1501 -0.8754 -0.0939
  481MOL0     H63428   2.924   4.376   3.508  1.8176 -3.1102  0.6733
  481MOL0     H63429   2.765   4.340   3.104 -1.5325  0.4614 -0.1464
  481MOL0     H63430   2.935   4.406   3.069  0.1648  2.5457 -0.0860
  481MOL0     H63431   2.774   4.564   2.983  0.4054 -0.5018 -0.1822
  481MOL0     H63432   2.813   4.631   3.145 -3.9855  0.1715  1.8801
  481MOL0     H63433   2.557   4.494   3.077  2.2265 -0.5829 -1.6099
  481MOL0     H63434   2.577   4.661   3.098 -1.7978 -0.4596  1.1806
  481MOL0     H63435   2.634   4.455   3.321 -2.2626 -1.0500 -0.7323
  481MOL0     H63436   2.652   4.625   3.336 -0.1609  0.7790  0.2582
  481MOL0     H63437   2.440   4.547   3.441 -1.2478  2.1956  0.8820
  481MOL0     H63438   2.402   4.446   3.297  0.4469  0.8041 -1.9110
  481MOL0     H63439   2.374   4.654   3.174  1.0079 -1.3167  0.5831
  481MOL0     H63440   2.396   4.754   3.319 -0.5490  0.9392  0.5531
  481MOL0     H63441   2.199   4.680   3.418 -0.2965 -0.2792 -0.2057
  481MOL0     H63442   2.157   4.715   3.260  1.0413 -0.2073 -1.0126
  481MOL0     H63443   2.177   4.415   3.321  1.3130  1.4472 -0.1073
  481MOL0     H63444   2.137   4.505   3.173 -2.9380  3.1969 -0.5877
  481MOL0     H63445   2.027   4.509   3.528 -0.9032  0.8944 -0.0321
  481MOL0     H63446   1.719   4.572   3.623 -0.0489 -0.8786 -0.3342
  481MOL0     H63447   1.795   4.414   3.634 -2.2335 -1.4731  0.8698
  481MOL0     H63448   1.598   4.336   3.640  1.9359 -0.6748 -0.4042
  481MOL0     H63449   1.631   4.318   3.473  1.0215 -3.2782  2.4113
  481MOL0     H63450   1.443   4.527   3.616 -1.1635 -0.2923 -1.2450
  481MOL0     H63451   1.487   4.550   3.452  0.6492  1.4263  1.8386
  481MOL0     H63452   1.376   4.274   3.521 -1.2009 -0.3154 -0.6889
  481MOL0     H63453   1.352   4.372   3.381 -3.2243  1.8637 -0.6070
  481MOL0     H63454   1.325   4.210   3.726 -0.8046 -1.9584  0.5350
  481MOL0     H63455   1.192   4.127   3.905 -1.6406  0.4468  1.7278
  481MOL0     H63456   0.787   4.241   4.232  0.0096  0.5207  1.5534
  481MOL0     H63457   0.715   4.146   4.435 -0.1481 -0.1154  0.8196
  481MOL0     H63458   0.571   3.892   4.515  0.7787  0.9883 -1.9449
  481MOL0     H63459   0.618   4.042   4.610  2.7137  0.6518  1.7509
  481MOL0     H63460   0.702   3.905   4.787  0.2515 -0.1407 -0.5377
  481MOL0     H63461   0.633   3.761   4.695  0.4657 -1.4319  2.4678
  481MOL0     H63462   0.474   4.000   4.806  1.6789  0.9689 -0.9629
  481MOL0     H63463   0.458   3.835   4.856  0.2840 -2.1036 -1.2546
  481MOL0     H63464   0.272   3.914   4.716 -0.5125  1.2033 -1.6589
  481MOL0     H63465   0.382   3.946   4.586  0.7512 -0.9028  0.2705
  481MOL0     H63466   0.324   3.666   4.713 -1.3841 -0.7129  0.4227
  481MOL0     H63467   0.408   3.712   4.551 -0.3366  0.4897  0.4509
  481MOL0     H63468   0.214   3.823   4.462  2.6887  3.5710  3.1599
  481MOL0     H63469   0.115   3.782   4.602 -0.1756 -0.8316 -0.1463
  481MOL0     H63470   0.224   3.567   4.425 -0.2442 -0.3198 -0.7127
  481MOL0     H63471   0.155   3.544   4.577  3.4180  2.3669  1.5945
  481MOL0     H63472  -0.003   3.527   4.372 -1.6682  0.9530 -0.7293
  481MOL0     H63473   0.009   3.693   4.352  3.2239  0.1985 -0.0209
  481MOL0     H63474   0.951   3.798   4.397  3.9415  0.1878 -3.0480
  481MOL0     H63475   1.026   3.887   4.167 -1.7452  0.9325 -2.8707
  481MOL0     H63476   0.874   4.407   3.789 -0.4725 -1.2202 -0.1616
  481MOL0     H63477   1.015   4.487   3.620  1.3995 -1.0719 -2.7215
  481MOL0     H63478   3.109   4.479   3.141 -0.9136  2.3879 -0.2496
  481MOL0     H63479   3.311   4.548   3.255  0.4759 -0.8139 -0.4466
  481MOL0     H63480   3.608   4.469   3.551 -1.3615 -1.7756  0.5699
  481MOL0     H63481   3.805   4.492   3.686  1.9936  1.4117  1.1797
  481MOL0     H63482   3.914   4.869   3.903 -0.7548 -1.1352  0.5561
  481MOL0     H63483   3.968   4.794   3.740 -1.2677  1.4495  0.7831
  481MOL0     H63484   4.066   4.725   4.009  2.2291  1.5676  0.7883
  481MOL0     H63485   4.116   4.658   3.850 -1.3528 -0.2470  1.0911
  481MOL0     H63486   4.203   4.899   3.785  1.3266  2.8937  0.8516
  481MOL0     H63487   4.282   4.827   3.931 -2.0023 -3.4383  1.9642
  481MOL0     H63488   4.088   5.065   3.919  0.9858 -0.1196 -0.1504
  481MOL0     H63489   4.103   4.968   4.062 -0.5856 -0.7027  0.8313
  481MOL0     H63490   4.480   5.176   3.995 -1.2593  4.5644  0.2507
  481MOL0     H63491   3.652   4.836   3.890  0.3685  1.6099 -2.3560
  481MOL0     H63492   3.460   4.825   3.753  1.2935  3.1765 -1.3051
  482MOL0     O63493  10.499   8.794   7.215  0.3995 -0.9199 -0.1288
  482MOL0     C63494  10.562   8.861   7.132  0.2711 -0.8328 -0.3326
  482MOL0     O63495  10.508   8.950   7.042  0.2045 -0.3391 -0.1274
  482MOL0     C63496  10.372   8.949   7.020  0.6704  0.7724  0.0280
  482MOL0     C63497  10.309   8.877   6.920 -0.5748 -1.2125  0.4857
  482MOL0     C63498  10.169   8.860   6.898  0.9223 -0.5581  0.6730
  482MOL0     C63499  10.087   8.943   6.973  0.5232 -0.1055  0.5486
  482MOL0     O63500   9.953   8.953   6.949  0.2685 -0.2823 -0.0311
  482MOL0     C63501   9.866   8.951   7.069  0.8692 -0.5971  0.0118
  482MOL0     C63502   9.859   8.802   7.116 -0.1694  0.2927 -0.0303
  482MOL0     C63503   9.828   8.700   7.008  0.1031  0.2357  0.5656
  482MOL0     C63504   9.800   8.560   7.044  0.0528 -0.1952  0.1627
  482MOL0     C63505   9.777   8.464   6.922 -1.2466 -0.4792 -0.1549
  482MOL0     C63506   9.779   8.318   6.966 -0.1231 -0.1872 -0.6426
  482MOL0     C63507   9.671   8.279   7.062  0.0338  0.0635  0.1259
  482MOL0     C63508   9.690   8.130   7.106 -0.4337 -0.0842  0.1846
  482MOL0     N63509   9.656   8.030   7.003 -0.5318 -0.5973  0.2246
  482MOL0     C63510   9.686   7.893   7.006 -0.7044 -0.5616 -0.7156
  482MOL0     C63511   9.614   7.844   6.907  0.0699  0.4033 -0.4648
  482MOL0     C63512   9.585   7.700   6.886 -1.3345 -0.0490  0.6131
  482MOL0     C63513   9.604   7.665   6.744 -0.1146  0.1990 -0.1283
  482MOL0     C63514   9.619   7.520   6.717 -0.4067 -0.1511 -0.2035
  482MOL0     C63515   9.495   7.444   6.757 -0.2486  0.2385 -0.6637
  482MOL0     O63516   9.502   7.409   6.893 -0.1512  0.4769  0.5008
  482MOL0     C63517   9.404   7.328   6.938  0.3412  0.1991  1.1078
  482MOL0     C63518   9.415   7.257   7.056  0.2245  0.8022 -0.0721
  482MOL0     C63519   9.313   7.175   7.108  0.4248  0.3292  0.4688
  482MOL0     C63520   9.184   7.174   7.041 -0.3038  0.1735 -0.6378
  482MOL0     C63521   9.072   7.107   7.111  0.1242 -0.3233 -0.8967
  482MOL0     O63522   8.975   7.055   7.034 -0.6714  0.5865  0.0013
  482MOL0     C63523   8.853   7.018   7.091 -0.2618 -0.2836  0.0242
  482MOL0     C63524   8.733   7.045   7.024  0.5408 -0.7368 -0.1984
  482MOL0     C63525   8.605   7.015   7.079 -0.2408 -1.1823 -1.0833
  482MOL0     C63526   8.601   6.945   7.196  0.0255 -0.2475  0.8226
  482MOL0     O63527   8.473   6.915   7.236  0.7346 -0.6092 -1.0257
  482MOL0     C63528   8.437   6.979   7.360  0.5027  0.5696 -0.1472
  482MOL0     C63529   8.290   6.927   7.376  0.0222 -0.4461  0.4804
  482MOL0     C63530   8.228   6.987   7.501  0.8114 -0.3556 -0.9844
  482MOL0     C63531   8.090   6.929   7.524  0.6177  0.6678 -0.4968
  482MOL0     C63532   8.027   7.010   7.640  0.1754 -0.1100 -0.3421
  482MOL0     C63533   7.897   6.945   7.703  0.2852 -0.7855  0.2337
  482MOL0     C63534   7.772   6.996   7.617 -0.4799 -0.9865 -0.8140
  482MOL0     C63535   7.646   6.930   7.671 -0.4917  0.5813 -0.3257
  482MOL0    Cl63536   7.540   6.891   7.538  0.6864  0.2021  0.0005
  482MOL0     C63537   8.725   6.910   7.267  0.1502 -0.1407 -0.3557
  482MOL0     C63538   8.846   6.945   7.213  0.7936  0.5632 -0.1196
  482MOL0     O63539   9.069   7.116   7.236  0.1536  0.0720 -0.1932
  482MOL0     C63540   9.176   7.253   6.926 -0.2788 -0.5225  0.1134
  482MOL0     C63541   9.279   7.327   6.879 -0.2191  0.1656 -0.6198
  482MOL0     N63542   9.561   7.952   6.833 -0.1027  0.7948 -0.8323
  482MOL0     N63543   9.584   8.060   6.889 -0.2471 -0.4494 -0.1960
  482MOL0     C63544  10.148   9.013   7.074 -0.0399 -0.4134  0.2421
  482MOL0     C63545  10.288   9.018   7.099 -0.6536 -0.3768  0.0112
  482MOL0     C63546  10.709   8.876   7.142 -0.1411 -0.8794  0.1172
  482MOL0     C63547  10.781   8.828   7.251 -0.2715  0.0953  0.0216
  482MOL0     C63548  10.915   8.854   7.279 -0.0537  1.0938 -0.7487
  482MOL0     C63549  10.993   8.921   7.177  0.8977 -0.4120 -0.7355
  482MOL0     O63550  11.123   8.945   7.202  0.3125  0.0941 -0.5622
  482MOL0     C63551  11.200   8.994   7.094  0.0477  0.6180 -0.3010
  482MOL0     C63552  11.344   8.982   7.158 -0.1962  0.4062 -0.2261
  482MOL0     C63553  11.444   9.030   7.051  0.0519  0.3417  0.6161
  482MOL0     C63554  11.578   9.074   7.101 -1.4774 -0.7915 -0.0588
  482MOL0     C63555  11.629   8.972   7.191 -0.2638 -0.1805 -0.5721
  482MOL0     C63556  11.675   8.902   7.277 -0.6193  0.0664 -0.4554
  482MOL0     C63557  10.922   8.974   7.064  0.7466 -0.0930  0.1059
  482MOL0     C63558  10.779   8.948   7.042 -0.4099 -0.2994 -0.4724
  482MOL0     H63559  10.375   8.822   6.853 -0.8759 -0.3511 -0.5514
  482MOL0     H63560  10.124   8.800   6.819 -3.9350  0.3221  2.4005
  482MOL0     H63561   9.767   8.990   7.041  0.1562  0.7146  3.7739
  482MOL0     H63562   9.899   9.011   7.155 -4.3024 -0.0428  1.9511
  482MOL0     H63563   9.785   8.802   7.196 -1.1059 -1.5474 -0.8494
  482MOL0     H63564   9.956   8.769   7.154 -2.6550 -4.9965  2.8342
  482MOL0     H63565   9.908   8.693   6.933  0.8606 -0.4824  1.4164
  482MOL0     H63566   9.745   8.748   6.954  0.8541  2.7668  1.4983
  482MOL0     H63567   9.879   8.522   7.109 -2.6493 -0.5795  3.4490
  482MOL0     H63568   9.706   8.560   7.100 -0.5771  2.8235 -0.6662
  482MOL0     H63569   9.862   8.477   6.854 -0.0055 -1.4711  1.1418
  482MOL0     H63570   9.677   8.486   6.886 -1.6210 -0.8829  0.5988
  482MOL0     H63571   9.881   8.296   6.999 -0.8927  0.1667  2.2075
  482MOL0     H63572   9.762   8.269   6.870 -1.5107  2.1227 -1.6590
  482MOL0     H63573   9.674   8.350   7.145 -0.8317  2.0433 -1.4433
  482MOL0     H63574   9.573   8.284   7.015 -0.9336 -3.0606  1.5226
  482MOL0     H63575   9.625   8.101   7.189 -1.0833 -1.7659 -0.8477
  482MOL0     H63576   9.791   8.121   7.146  1.0509  1.5241 -2.8707
  482MOL0     H63577   9.746   7.840   7.079 -0.6602  0.3625 -0.0624
  482MOL0     H63578   9.485   7.678   6.924 -1.1162 -0.0967  1.1671
  482MOL0     H63579   9.652   7.633   6.942 -0.6349 -1.6104 -1.9138
  482MOL0     H63580   9.687   7.720   6.699 -0.4142  0.3282 -0.5340
  482MOL0     H63581   9.522   7.705   6.683  0.2296 -0.8944 -1.3540
  482MOL0     H63582   9.632   7.513   6.608  2.4572  0.3506  0.0178
  482MOL0     H63583   9.707   7.489   6.774 -1.7409 -2.4505  0.7275
  482MOL0     H63584   9.489   7.352   6.699  2.1479 -1.8715  2.1670
  482MOL0     H63585   9.411   7.512   6.738 -1.3475 -1.1254 -0.8123
  482MOL0     H63586   9.514   7.263   7.101 -0.8942  1.5523  2.5141
  482MOL0     H63587   9.323   7.108   7.192  1.2777 -1.5007 -1.0153
  482MOL0     H63588   8.746   7.101   6.931  0.1258 -1.8798 -0.9742
  482MOL0     H63589   8.518   7.061   7.032  0.9212  0.3559 -1.8323
  482MOL0     H63590   8.447   7.088   7.355  2.1564  0.5092  1.0677
  482MOL0     H63591   8.507   6.934   7.431 -0.6675 -0.3652  0.4620
  482MOL0     H63592   8.294   6.818   7.388  0.6603 -0.1325  4.6189
  482MOL0     H63593   8.234   6.958   7.287  1.5442 -0.2967 -0.4561
  482MOL0     H63594   8.224   7.092   7.472 -1.7035  0.6704  2.4962
  482MOL0     H63595   8.292   6.968   7.588 -2.0779  1.3891  1.7115
  482MOL0     H63596   8.021   6.924   7.439 -0.1789  5.2761 -0.4019
  482MOL0     H63597   8.109   6.831   7.566  0.0794  0.5074 -0.6120
  482MOL0     H63598   8.005   7.113   7.608 -1.2271 -1.3122 -3.8373
  482MOL0     H63599   8.102   7.019   7.718 -1.2985 -0.7809  1.1987
  482MOL0     H63600   7.882   6.985   7.803  0.3387  2.2286 -0.8676
  482MOL0     H63601   7.905   6.836   7.711 -1.8490 -1.0145 -0.2022
  482MOL0     H63602   7.768   7.105   7.621  0.0901 -0.9873 -0.0256
  482MOL0     H63603   7.796   6.970   7.513  0.5707 -0.7320 -0.6508
  482MOL0     H63604   7.602   6.990   7.751  0.2426 -1.9279  2.1389
  482MOL0     H63605   7.662   6.829   7.709 -2.5207 -0.0763 -1.1124
  482MOL0     H63606   8.718   6.856   7.361  2.0815 -1.8827 -1.1548
  482MOL0     H63607   8.936   6.927   7.271  1.4921  0.0167 -1.3448
  482MOL0     H63608   9.076   7.265   6.887 -1.1002 -1.5054  1.8163
  482MOL0     H63609   9.252   7.387   6.793  0.1847 -0.6331 -1.3107
  482MOL0     H63610  10.095   9.073   7.147  0.5374 -2.2972  2.3272
  482MOL0     H63611  10.329   9.075   7.182 -2.6871 -1.1193  1.6432
  482MOL0     H63612  10.730   8.770   7.326 -1.6079 -0.3560 -1.1965
  482MOL0     H63613  10.968   8.821   7.368 -0.2293 -1.1543 -1.4344
  482MOL0     H63614  11.178   9.097   7.065  2.4887  1.7445  1.4918
  482MOL0     H63615  11.202   8.929   7.006  1.7927  1.8443 -1.2406
  482MOL0     H63616  11.356   9.054   7.240 -0.3375  0.2451 -0.0620
  482MOL0     H63617  11.354   8.881   7.199 -5.8545 -0.4302 -0.1159
  482MOL0     H63618  11.391   9.117   7.010 -2.9469 -1.2671  0.8035
  482MOL0     H63619  11.452   8.964   6.965 -0.9907 -0.4757  1.1273
  482MOL0     H63620  11.644   9.072   7.015 -0.4293 -1.6877  0.7397
  482MOL0     H63621  11.597   9.167   7.156  1.3122  0.0761 -2.2882
  482MOL0     H63622  11.705   8.841   7.360  0.2633  0.6267 -0.3536
  482MOL0     H63623  10.973   9.037   6.992  1.1606  0.5836  0.9770
  482MOL0     H63624  10.740   8.995   6.953  1.5927  2.8894  0.1629
  483MOL0     O63625   5.858   5.122   5.836  0.3788 -0.6787 -0.0723
  483MOL0     C63626   5.864   5.011   5.890 -0.3836 -1.2300  0.2344
  483MOL0     O63627   5.758   4.925   5.898 -0.1410 -0.0381 -0.4808
  483MOL0     C63628   5.632   4.956   5.856 -1.0948 -0.0769 -0.2937
  483MOL0     C63629   5.551   4.839   5.853  0.1499  0.4852 -0.1967
  483MOL0     C63630   5.418   4.841   5.833  0.0231 -0.4780 -0.2636
  483MOL0     C63631   5.358   4.959   5.795 -0.8298 -0.0540 -0.1961
  483MOL0     O63632   5.230   4.949   5.751 -0.0764 -0.3869 -0.3266
  483MOL0     C63633   5.171   5.076   5.710 -0.0085  0.0655  0.5335
  483MOL0     C63634   5.034   5.048   5.644  0.7144  0.2572  0.8899
  483MOL0     C63635   4.940   4.968   5.730 -0.1790 -0.2867 -0.7827
  483MOL0     C63636   4.803   4.966   5.668 -0.1077 -0.1859  0.7999
  483MOL0     C63637   4.706   4.883   5.748 -0.8268  0.3041 -0.5502
  483MOL0     C63638   4.570   4.904   5.683 -0.4062  0.2847  0.5079
  483MOL0     C63639   4.454   4.806   5.729 -0.6759 -0.7429  0.0258
  483MOL0     C63640   4.439   4.679   5.654  0.3329 -0.1940  2.1897
  483MOL0     N63641   4.383   4.568   5.721 -0.3637  0.5208 -0.3131
  483MOL0     C63642   4.263   4.563   5.793  0.0608  0.7940  1.1636
  483MOL0     C63643   4.261   4.438   5.843 -0.9136  0.1404 -0.0242
  483MOL0     C63644   4.155   4.395   5.932 -0.0261  0.1680  0.8949
  483MOL0     C63645   4.185   4.409   6.082 -0.7542  0.1277 -0.5217
  483MOL0     C63646   4.080   4.348   6.176 -0.6663  0.5955  0.0219
  483MOL0     C63647   3.943   4.405   6.159  0.0231  0.4399 -0.2930
  483MOL0     O63648   3.855   4.346   6.255 -0.0908 -0.3074 -0.2617
  483MOL0     C63649   3.726   4.380   6.245  0.1513 -0.3401 -0.2018
  483MOL0     C63650   3.651   4.307   6.337 -0.4013  0.6325  0.0628
  483MOL0     C63651   3.517   4.319   6.365 -0.1258 -0.1982  0.0452
  483MOL0     C63652   3.452   4.427   6.301 -0.6434 -0.1827  0.6561
  483MOL0     C63653   3.304   4.452   6.323 -0.6045  0.0409  0.0588
  483MOL0     O63654   3.258   4.390   6.441  0.4632 -0.0293  0.0406
  483MOL0     C63655   3.129   4.409   6.473  0.0604  0.6038 -0.5788
  483MOL0     C63656   3.023   4.374   6.391  0.1306 -0.0089 -0.2996
  483MOL0     C63657   2.897   4.372   6.446 -0.3044  0.4297 -0.0716
  483MOL0     C63658   2.871   4.429   6.571 -0.3856 -0.3960  0.5590
  483MOL0     O63659   2.731   4.439   6.609 -0.2491  0.0518 -0.1874
  483MOL0     C63660   2.717   4.471   6.747  0.1413 -0.6217 -0.1905
  483MOL0     C63661   2.568   4.502   6.782 -0.1707  0.5368 -0.2658
  483MOL0     C63662   2.497   4.371   6.816  0.1988  0.8352 -0.0205
  483MOL0     C63663   2.351   4.388   6.856  0.1810  0.1413 -0.1653
  483MOL0     C63664   2.289   4.248   6.878  0.1362 -0.0203  0.0123
  483MOL0     C63665   2.138   4.262   6.908  0.1341 -0.7723 -0.5243
  483MOL0     C63666   2.109   4.330   7.042  0.5586  0.1677 -0.1687
  483MOL0     C63667   1.969   4.405   7.044 -0.1512  0.4951 -0.6592
  483MOL0    Cl63668   1.965   4.547   6.934 -0.0380  0.2805 -0.0149
  483MOL0     C63669   2.974   4.476   6.646 -0.6803 -0.5088  0.5446
  483MOL0     C63670   3.103   4.455   6.599  0.2055 -0.7428  0.8578
  483MOL0     O63671   3.243   4.519   6.236 -0.6597  0.3805  0.0709
  483MOL0     C63672   3.528   4.511   6.220  0.0466  1.0806  0.1229
  483MOL0     C63673   3.655   4.492   6.188 -1.1930 -0.2504 -0.5292
  483MOL0     N63674   4.372   4.370   5.805  0.1629 -0.4757 -0.1045
  483MOL0     N63675   4.446   4.446   5.734 -0.2345 -0.7876  1.0998
  483MOL0     C63676   5.435   5.082   5.806  0.8642 -0.3616  0.7734
  483MOL0     C63677   5.567   5.082   5.840 -0.6877  0.3883 -0.7534
  483MOL0     C63678   5.993   4.967   5.950  0.1526 -0.1378 -0.0197
  483MOL0     C63679   6.007   4.833   6.000  0.6306 -0.1199 -0.3622
  483MOL0     C63680   6.113   4.795   6.079 -0.0296  0.1681 -0.4735
  483MOL0     C63681   6.215   4.888   6.092 -0.6353 -0.2602 -0.3076
  483MOL0     O63682   6.333   4.872   6.160 -0.2198  0.1509  0.5684
  483MOL0     C63683   6.364   4.757   6.230 -0.3532 -0.1160 -0.2201
  483MOL0     C63684   6.496   4.781   6.299 -0.6221  0.3383  0.9019
  483MOL0     C63685   6.620   4.760   6.216  0.5120  0.3735  0.1886
  483MOL0     C63686   6.622   4.813   6.071  0.1375 -0.0162 -0.2304
  483MOL0     C63687   6.597   4.953   6.060 -0.3117  0.4814 -0.2578
  483MOL0     C63688   6.580   5.075   6.045  0.4366  0.2137  0.1417
  483MOL0     C63689   6.194   5.020   6.053 -0.7642 -0.2234  1.1400
  483MOL0     C63690   6.085   5.064   5.989 -0.0134  0.1282  0.7605
  483MOL0     H63691   5.591   4.741   5.874 -0.0472  0.3034 -0.6490
  483MOL0     H63692   5.359   4.750   5.828 -3.4483  1.4009  1.9744
  483MOL0     H63693   5.234   5.129   5.638  0.6863 -1.2793  0.1252
  483MOL0     H63694   5.168   5.137   5.801  1.1482 -1.6640  1.7994
  483MOL0     H63695   5.051   4.989   5.554  1.7766 -0.5155  1.5670
  483MOL0     H63696   4.995   5.145   5.611 -1.6908 -0.1347  2.2884
  483MOL0     H63697   4.928   5.006   5.832  0.2068 -0.1280 -0.7941
  483MOL0     H63698   4.988   4.870   5.738  0.6670 -0.0306 -2.4475
  483MOL0     H63699   4.754   5.064   5.667 -2.4891 -1.2833 -0.7962
  483MOL0     H63700   4.805   4.928   5.565 -0.4042  2.7085 -0.3816
  483MOL0     H63701   4.717   4.903   5.855  2.0985 -0.4349 -0.6304
  483MOL0     H63702   4.729   4.779   5.728 -0.1879  0.6679 -1.8061
  483MOL0     H63703   4.579   4.900   5.574 -1.5433 -0.2941  0.4211
  483MOL0     H63704   4.540   5.005   5.714  0.3814  0.0349  2.1976
  483MOL0     H63705   4.475   4.792   5.835  1.0884  2.7908  0.2799
  483MOL0     H63706   4.357   4.855   5.724 -0.3342 -0.1192 -3.8124
  483MOL0     H63707   4.541   4.655   5.623 -0.6475 -1.5962 -0.2662
  483MOL0     H63708   4.385   4.696   5.560  1.6655  0.9491  1.5905
  483MOL0     H63709   4.183   4.634   5.812  0.7523  1.4713  1.6097
  483MOL0     H63710   4.121   4.293   5.914 -2.0988  1.0841 -0.9531
  483MOL0     H63711   4.067   4.456   5.906 -0.3717  0.2470  2.1909
  483MOL0     H63712   4.205   4.512   6.115  0.5489 -0.7132  1.5514
  483MOL0     H63713   4.277   4.354   6.106 -1.0751 -0.4507 -0.6104
  483MOL0     H63714   4.082   4.240   6.158  0.6591  0.1464  2.5036
  483MOL0     H63715   4.113   4.354   6.280 -0.4741  2.1700 -0.0988
  483MOL0     H63716   3.913   4.380   6.056  2.7917 -1.9046 -0.6411
  483MOL0     H63717   3.943   4.513   6.176 -2.1192  0.4242  0.1267
  483MOL0     H63718   3.707   4.222   6.374  0.3382  0.1390 -2.0371
  483MOL0     H63719   3.465   4.264   6.443  0.8346  0.9652  1.5833
  483MOL0     H63720   3.037   4.333   6.292  2.1604  0.6228 -0.3214
  483MOL0     H63721   2.826   4.323   6.380  1.4869 -3.5735  0.6828
  483MOL0     H63722   2.769   4.567   6.762 -3.5199  1.8623 -1.8198
  483MOL0     H63723   2.757   4.387   6.805  0.7673 -0.4832 -0.4125
  483MOL0     H63724   2.515   4.548   6.699  0.2107 -1.6914 -1.8331
  483MOL0     H63725   2.571   4.563   6.874 -1.2108 -1.6060  1.2701
  483MOL0     H63726   2.555   4.318   6.892 -3.9065 -1.3776  1.9473
  483MOL0     H63727   2.518   4.313   6.725  1.5381  1.4845 -0.1462
  483MOL0     H63728   2.351   4.445   6.949 -0.3376  3.1294 -1.8637
  483MOL0     H63729   2.293   4.451   6.788  0.8241 -0.3958 -1.2551
  483MOL0     H63730   2.341   4.205   6.964  2.3535 -1.9807 -2.1320
  483MOL0     H63731   2.299   4.185   6.789 -2.0278  1.3696 -1.3099
  483MOL0     H63732   2.087   4.166   6.900 -1.8028 -0.4036  4.2220
  483MOL0     H63733   2.089   4.317   6.827 -1.2438 -0.8802  0.1999
  483MOL0     H63734   2.103   4.259   7.125  3.2279  3.4918  3.2122
  483MOL0     H63735   2.193   4.395   7.070  1.8165 -1.2860 -0.3948
  483MOL0     H63736   1.946   4.437   7.146 -0.4421 -3.2456  0.6036
  483MOL0     H63737   1.892   4.330   7.023 -0.6481  0.8605 -0.1602
  483MOL0     H63738   2.966   4.517   6.746  0.8633  0.7118  0.2004
  483MOL0     H63739   3.185   4.480   6.665  2.5329  0.2087 -2.1427
  483MOL0     H63740   3.472   4.592   6.174 -1.2888 -1.2838 -2.7400
  483MOL0     H63741   3.715   4.567   6.137  2.6473 -0.6549  2.9263
  483MOL0     H63742   5.388   5.177   5.785 -0.7084 -0.8951  1.7191
  483MOL0     H63743   5.620   5.177   5.837  0.1903 -0.0810 -0.3314
  483MOL0     H63744   5.931   4.755   5.994 -0.7847  1.0439  1.4460
  483MOL0     H63745   6.112   4.701   6.133 -3.8385 -0.8762 -2.0455
  483MOL0     H63746   6.373   4.665   6.172 -0.9297  0.9691 -2.1002
  483MOL0     H63747   6.293   4.746   6.313  1.2564  2.6946  1.7164
  483MOL0     H63748   6.498   4.886   6.331  1.0203 -0.4143  3.6210
  483MOL0     H63749   6.505   4.723   6.391  0.8371 -1.4250 -0.3074
  483MOL0     H63750   6.654   4.656   6.217  2.8532  1.0824  0.3592
  483MOL0     H63751   6.707   4.810   6.259 -1.4425  3.2147  1.1356
  483MOL0     H63752   6.723   4.800   6.029  0.5825 -1.5487  1.1827
  483MOL0     H63753   6.561   4.746   6.010  3.1985 -1.0917 -2.3775
  483MOL0     H63754   6.569   5.181   6.041 -2.1177 -0.0173 -2.9230
  483MOL0     H63755   6.273   5.093   6.070  0.2563 -1.1244  0.4423
  483MOL0     H63756   6.083   5.166   5.951  0.9670  0.0051  0.3484
  484MOL0     O63757   6.042   7.601   1.648  0.5962  0.1271 -0.0645
  484MOL0     C63758   6.080   7.717   1.628  0.9422  0.8396 -0.3839
  484MOL0     O63759   5.999   7.825   1.624  0.6151 -0.4001  0.1516
  484MOL0     C63760   5.868   7.798   1.663 -0.2421  0.0536 -0.3179
  484MOL0     C63761   5.775   7.727   1.580 -0.5189 -0.2175  0.2312
  484MOL0     C63762   5.655   7.703   1.622  0.0919  0.2450 -0.7288
  484MOL0     C63763   5.615   7.743   1.755 -0.7759 -0.1622 -0.0905
  484MOL0     O63764   5.493   7.715   1.811 -0.8573 -0.2719  0.4935
  484MOL0     C63765   5.374   7.780   1.767  0.3194  0.4624 -0.1939
  484MOL0     C63766   5.349   7.913   1.843  0.0318  0.5818  0.8856
  484MOL0     C63767   5.220   7.988   1.785 -0.1487 -0.1648 -0.1597
  484MOL0     C63768   5.100   7.902   1.743  0.0245  0.3923  0.4178
  484MOL0     C63769   4.979   7.981   1.680  0.7146 -0.3228  0.6661
  484MOL0     C63770   4.857   7.894   1.698  0.8934 -0.2919  0.4715
  484MOL0     C63771   4.800   7.924   1.845 -0.1990 -0.1674  0.6866
  484MOL0     C63772   4.671   7.847   1.869  0.6105  0.4909  0.3234
  484MOL0     N63773   4.545   7.907   1.810 -0.0663  0.3664  0.4267
  484MOL0     C63774   4.483   8.028   1.857  0.5867  0.8178 -1.2539
  484MOL0     C63775   4.382   8.038   1.765 -0.4860  0.3668 -0.1493
  484MOL0     C63776   4.270   8.138   1.780  0.1298 -0.5023 -0.5264
  484MOL0     C63777   4.129   8.084   1.772  0.1985  0.0734  0.5617
  484MOL0     C63778   4.067   8.039   1.902 -0.4532  0.1627 -0.0605
  484MOL0     C63779   3.943   7.952   1.870  0.1437 -0.3565 -0.2769
  484MOL0     O63780   3.828   8.023   1.828 -0.2590 -0.5405 -0.1966
  484MOL0     C63781   3.730   8.049   1.920 -0.0690  0.5975  0.2885
  484MOL0     C63782   3.754   8.063   2.053  0.5568 -0.5595  0.9475
  484MOL0     C63783   3.649   8.103   2.137  0.1896 -0.6701 -0.4661
  484MOL0     C63784   3.519   8.122   2.089  0.1280  0.3913  1.0334
  484MOL0     C63785   3.409   8.178   2.168 -0.7384  0.2805 -0.5022
  484MOL0     O63786   3.440   8.228   2.293  0.2104 -0.1372 -0.0932
  484MOL0     C63787   3.330   8.277   2.363 -0.8788 -0.8832  0.7761
  484MOL0     C63788   3.319   8.419   2.393  0.0254  0.9516 -0.2735
  484MOL0     C63789   3.214   8.472   2.467 -0.4697 -0.4722  0.4701
  484MOL0     C63790   3.122   8.387   2.527  0.8766 -0.4205 -0.3244
  484MOL0     O63791   3.025   8.438   2.614  0.0251 -0.4497  0.3674
  484MOL0     C63792   2.977   8.576   2.603  0.1265 -0.0660 -0.5892
  484MOL0     C63793   2.851   8.613   2.678 -0.8766 -0.1159  0.2626
  484MOL0     C63794   2.750   8.496   2.692  0.9505 -0.1954 -0.0850
  484MOL0     C63795   2.616   8.544   2.750  0.0870 -0.7778 -0.0368
  484MOL0     C63796   2.530   8.410   2.761  0.1171 -0.7693  0.1077
  484MOL0     C63797   2.383   8.421   2.800  0.2238 -0.0212 -0.0383
  484MOL0     C63798   2.302   8.533   2.735 -0.4062  1.0434  0.5751
  484MOL0     C63799   2.151   8.524   2.773  0.1402  0.2526  0.7936
  484MOL0    Cl63800   2.073   8.389   2.691 -0.1317 -0.7267  0.1479
  484MOL0     C63801   3.128   8.246   2.512 -0.1841 -0.1771 -0.2573
  484MOL0     C63802   3.230   8.200   2.420 -0.1115  0.0184 -0.4264
  484MOL0     O63803   3.301   8.195   2.109  0.0033  0.2132 -0.0073
  484MOL0     C63804   3.502   8.113   1.947  0.3914  0.3386 -0.7797
  484MOL0     C63805   3.603   8.065   1.861  0.0031  0.0935  0.6669
  484MOL0     N63806   4.403   7.942   1.664 -0.0878 -0.9990  0.0525
  484MOL0     N63807   4.509   7.875   1.687 -0.4678 -0.6645  0.1085
  484MOL0     C63808   5.703   7.813   1.838 -0.2162  0.4365  0.3696
  484MOL0     C63809   5.832   7.830   1.795 -0.2040  0.0214  0.2112
  484MOL0     C63810   6.225   7.728   1.572 -0.4235  0.3113 -0.6327
  484MOL0     C63811   6.306   7.610   1.555 -0.1461  0.5173 -0.1893
  484MOL0     C63812   6.438   7.622   1.513 -0.2572  0.0844 -0.0349
  484MOL0     C63813   6.494   7.749   1.475  1.1707  0.3066  0.1637
  484MOL0     O63814   6.615   7.773   1.426 -0.1631 -0.2642  0.0602
  484MOL0     C63815   6.715   7.670   1.418  1.0629  0.0063  0.3413
  484MOL0     C63816   6.829   7.714   1.331 -0.1166 -0.4268 -0.1324
  484MOL0     C63817   6.765   7.756   1.198  0.9582 -0.2694 -0.4769
  484MOL0     C63818   6.863   7.832   1.105  0.6286  0.0556 -0.4165
  484MOL0     C63819   6.794   7.861   0.989  0.6179  0.1732 -0.0524
  484MOL0     C63820   6.718   7.885   0.897  0.1238 -0.7231  0.0504
  484MOL0     C63821   6.410   7.860   1.484  0.3506 -0.1384 -0.7742
  484MOL0     C63822   6.285   7.855   1.544  0.0946 -0.5023 -0.9254
  484MOL0     H63823   5.799   7.701   1.477 -2.6247 -3.5003  0.3957
  484MOL0     H63824   5.590   7.647   1.555 -0.4365  0.1002 -0.1064
  484MOL0     H63825   5.295   7.705   1.779  1.5738 -0.8702 -0.0165
  484MOL0     H63826   5.388   7.803   1.661  1.8536  0.6251  0.0234
  484MOL0     H63827   5.437   7.979   1.844  0.2148  0.3607  0.2222
  484MOL0     H63828   5.331   7.894   1.949 -1.1113  2.7238  1.1487
  484MOL0     H63829   5.246   8.047   1.697 -1.7112  0.1886 -0.4061
  484MOL0     H63830   5.186   8.060   1.861  0.9809  1.3747 -1.0467
  484MOL0     H63831   5.138   7.834   1.666  0.0035  2.2007 -1.2564
  484MOL0     H63832   5.055   7.853   1.830 -3.3863 -1.0225 -1.9214
  484MOL0     H63833   4.997   8.000   1.573 -0.1625 -0.8542  0.4119
  484MOL0     H63834   4.961   8.073   1.737 -0.0920 -2.2964  3.8259
  484MOL0     H63835   4.869   7.788   1.672 -2.4110 -0.2065 -2.0753
  484MOL0     H63836   4.778   7.927   1.629 -0.4984  0.1555  2.1974
  484MOL0     H63837   4.868   7.877   1.916 -0.0544 -2.6952 -0.9790
  484MOL0     H63838   4.788   8.029   1.871 -2.1044 -0.1202 -0.1925
  484MOL0     H63839   4.656   7.825   1.975  1.0931 -0.3764  0.2235
  484MOL0     H63840   4.695   7.746   1.835 -1.3427  1.1343 -3.4168
  484MOL0     H63841   4.504   8.089   1.944  1.1351 -0.0633 -0.7544
  484MOL0     H63842   4.284   8.212   1.700  0.1038 -0.8440 -0.8489
  484MOL0     H63843   4.272   8.198   1.872 -3.2413 -3.1093  1.5166
  484MOL0     H63844   4.122   8.007   1.695  2.0173 -0.3853  0.8051
  484MOL0     H63845   4.063   8.160   1.730 -1.5822 -1.3947  0.6257
  484MOL0     H63846   4.145   7.974   1.943  1.6815  1.1491 -2.2801
  484MOL0     H63847   4.061   8.133   1.959 -0.4506 -0.9176  1.7996
  484MOL0     H63848   3.918   7.881   1.950 -1.5900 -0.1564 -0.6149
  484MOL0     H63849   3.969   7.888   1.785  0.4061 -0.0964 -0.3927
  484MOL0     H63850   3.860   8.053   2.075  1.0520 -1.2832 -1.4633
  484MOL0     H63851   3.661   8.121   2.244 -0.8822 -0.3864 -0.3755
  484MOL0     H63852   3.395   8.480   2.343  1.9820 -1.1478 -0.0310
  484MOL0     H63853   3.193   8.578   2.473 -1.3422 -0.5768 -0.3954
  484MOL0     H63854   2.965   8.599   2.496  0.7014  2.6963 -0.1525
  484MOL0     H63855   3.056   8.645   2.636  0.4940 -0.0877 -1.3890
  484MOL0     H63856   2.800   8.692   2.622 -1.5376  1.2717  2.6606
  484MOL0     H63857   2.875   8.659   2.774  1.0446  2.6929 -1.4002
  484MOL0     H63858   2.790   8.405   2.737  0.9676  0.0152  0.3327
  484MOL0     H63859   2.723   8.470   2.589  0.8948 -0.0523 -0.1072
  484MOL0     H63860   2.622   8.596   2.846  0.2431 -0.5109 -0.1894
  484MOL0     H63861   2.568   8.613   2.679 -1.2545 -1.3891  0.2383
  484MOL0     H63862   2.584   8.353   2.837  3.6207 -0.6485 -2.0813
  484MOL0     H63863   2.532   8.361   2.663 -0.6500  0.0795 -0.3568
  484MOL0     H63864   2.385   8.443   2.907  0.1473 -0.8692  0.1510
  484MOL0     H63865   2.333   8.323   2.795 -1.1830  0.5061  2.2253
  484MOL0     H63866   2.340   8.629   2.772  3.5089 -0.2758  0.4297
  484MOL0     H63867   2.310   8.531   2.626 -1.8055  5.2188  0.2214
  484MOL0     H63868   2.109   8.620   2.741  1.8222  0.6539 -0.3471
  484MOL0     H63869   2.146   8.519   2.882  0.3357 -1.2133  0.7573
  484MOL0     H63870   3.061   8.181   2.567  1.1583 -0.7759  0.7202
  484MOL0     H63871   3.243   8.096   2.394 -0.5989  0.0896 -0.9744
  484MOL0     H63872   3.403   8.122   1.904  0.5334  0.4261 -1.0902
  484MOL0     H63873   3.587   8.045   1.756 -3.6918  0.2800  1.0614
  484MOL0     H63874   5.690   7.846   1.940 -1.4723 -1.2085  0.7905
  484MOL0     H63875   5.897   7.879   1.866 -2.5182  0.8672  1.8563
  484MOL0     H63876   6.271   7.508   1.565  1.0952 -0.1930 -2.4085
  484MOL0     H63877   6.501   7.535   1.498  0.3557  0.5113  0.0603
  484MOL0     H63878   6.676   7.576   1.377 -1.9579  1.2527  0.1178
  484MOL0     H63879   6.750   7.648   1.520 -2.9053  2.2488  2.4173
  484MOL0     H63880   6.877   7.796   1.385 -1.3164 -0.0462  0.3754
  484MOL0     H63881   6.904   7.636   1.314  1.5973  0.9560  0.7366
  484MOL0     H63882   6.680   7.824   1.209 -0.7707 -2.3320 -0.3741
  484MOL0     H63883   6.725   7.668   1.146 -0.4485 -0.0062  0.1099
  484MOL0     H63884   6.906   7.922   1.149  1.2812 -0.0005 -0.9194
  484MOL0     H63885   6.951   7.770   1.084  2.1897  2.4336 -1.2426
  484MOL0     H63886   6.639   7.890   0.825  1.2128  1.1709 -1.0937
  484MOL0     H63887   6.460   7.949   1.445  0.8728 -0.4376 -0.7935
  484MOL0     H63888   6.237   7.949   1.570  1.1746 -0.4479  1.1021
  485MOL0     O63889   1.770   4.948   0.828  0.7876  0.7492 -0.0378
  485MOL0     C63890   1.694   4.962   0.728 -0.0364  0.7172  0.9998
  485MOL0     O63891   1.555   4.960   0.725 -0.5272  0.7255  0.0880
  485MOL0     C63892   1.501   4.951   0.848 -1.5041 -0.5705 -0.2161
  485MOL0     C63893   1.486   4.828   0.916 -1.3352 -0.7462  0.4793
  485MOL0     C63894   1.423   4.831   1.038  0.2948  0.5816  0.3639
  485MOL0     C63895   1.364   4.942   1.087 -0.5645  0.4729 -0.1804
  485MOL0     O63896   1.310   4.921   1.208  0.7853  0.3092 -0.4997
  485MOL0     C63897   1.197   4.997   1.254  0.1358 -1.1449  0.0306
  485MOL0     C63898   1.126   4.925   1.373  0.3477  0.8508  0.5811
  485MOL0     C63899   1.207   4.919   1.503 -0.5425 -0.2458  0.1602
  485MOL0     C63900   1.153   4.819   1.615  0.9896 -0.8673  0.4042
  485MOL0     C63901   1.013   4.861   1.675  0.6384  0.5583  0.1133
  485MOL0     C63902   0.950   4.742   1.758 -0.5117 -0.7272 -1.0083
  485MOL0     C63903   0.809   4.780   1.796 -0.5334  0.0871  0.3657
  485MOL0     C63904   0.700   4.750   1.693  0.0232  0.0045  0.7297
  485MOL0     N63905   0.569   4.788   1.751  0.2306  0.8775  1.5302
  485MOL0     C63906   0.522   4.914   1.725  0.5232 -0.7243  0.1922
  485MOL0     C63907   0.397   4.907   1.777  0.6652 -0.1792  0.8646
  485MOL0     C63908   0.296   5.020   1.765  0.7176 -0.5952 -0.0160
  485MOL0     C63909   0.158   4.964   1.708  0.3758  0.1168 -0.8361
  485MOL0     C63910   0.087   5.075   1.630 -0.2573 -0.2909  0.0495
  485MOL0     C63911  -0.059   5.034   1.604  0.8534  0.1458 -0.4395
  485MOL0     O63912  -0.114   5.117   1.505 -0.2064  0.2423 -0.0631
  485MOL0     C63913  -0.231   5.058   1.456 -0.0124  0.1404  0.2069
  485MOL0     C63914  -0.341   5.058   1.531  0.9734  0.6901 -0.1645
  485MOL0     C63915  -0.469   5.018   1.488 -0.5298  0.3964 -0.2359
  485MOL0     C63916  -0.483   4.986   1.356  0.0363  0.3182 -0.0799
  485MOL0     C63917  -0.615   4.965   1.312 -0.8845  0.0524 -0.4027
  485MOL0     O63918  -0.719   5.002   1.397 -0.4623 -0.2616 -0.6836
  485MOL0     C63919  -0.847   4.981   1.355 -0.1902 -1.1269  0.6384
  485MOL0     C63920  -0.897   5.016   1.228  0.0370 -0.0927  0.2023
  485MOL0     C63921  -1.035   5.013   1.193 -0.0251  0.1425  0.3035
  485MOL0     C63922  -1.131   4.986   1.296  0.4382 -0.0544  0.8898
  485MOL0     O63923  -1.260   4.993   1.262 -0.5477 -0.7783  0.2585
  485MOL0     C63924  -1.347   4.896   1.331 -0.1007  0.2299  0.9185
  485MOL0     C63925  -1.497   4.911   1.295 -0.2330 -0.1915 -1.0336
  485MOL0     C63926  -1.511   4.910   1.141 -0.0306 -0.1031 -0.4613
  485MOL0     C63927  -1.650   4.970   1.101 -0.6324 -0.1760 -0.9225
  485MOL0     C63928  -1.637   5.010   0.957 -0.2319  0.0921  0.4957
  485MOL0     C63929  -1.773   5.026   0.888 -0.2936 -0.9823 -0.1581
  485MOL0     C63930  -1.858   4.898   0.888 -0.7340 -0.1064  0.1122
  485MOL0     C63931  -1.975   4.911   0.791  0.5333  0.6921  0.3554
  485MOL0    Cl63932  -2.064   5.067   0.824 -0.0675  0.2836 -0.0105
  485MOL0     C63933  -1.082   4.964   1.424 -0.0424 -0.2509 -0.4383
  485MOL0     C63934  -0.944   4.967   1.455  0.0736 -0.2402  0.1791
  485MOL0     O63935  -0.624   4.911   1.197  0.2673  0.5829 -0.3423
  485MOL0     C63936  -0.364   4.976   1.276  0.0145  0.6704 -0.7630
  485MOL0     C63937  -0.236   5.011   1.330  0.8681 -0.8019  0.3778
  485MOL0     N63938   0.374   4.779   1.833 -0.3687  0.2921 -0.1698
  485MOL0     N63939   0.475   4.707   1.808 -0.5934 -1.5258 -0.7166
  485MOL0     C63940   1.387   5.067   1.022  1.2210  0.7605 -0.6828
  485MOL0     C63941   1.457   5.069   0.907 -0.1482  0.3990  0.2597
  485MOL0     C63942   1.749   5.000   0.598  0.2407 -1.2712  0.1262
  485MOL0     C63943   1.659   5.035   0.493 -0.0173 -0.1912 -0.4246
  485MOL0     C63944   1.705   5.072   0.368 -0.4989  0.3406 -0.2635
  485MOL0     C63945   1.838   5.090   0.351  0.2688 -0.2779 -0.1339
  485MOL0     O63946   1.873   5.132   0.225  1.1503 -0.4887 -0.0296
  485MOL0     C63947   2.014   5.149   0.184  0.5436  1.1539 -0.1427
  485MOL0     C63948   2.021   5.178   0.035  0.1018 -0.3325 -0.1681
  485MOL0     C63949   2.019   5.327   0.008 -0.0195  0.3398  0.2438
  485MOL0     C63950   2.142   5.401   0.057 -0.7227  0.7433  0.4080
  485MOL0     C63951   2.188   5.520  -0.021 -0.2038  0.5586  0.0285
  485MOL0     C63952   2.218   5.623  -0.066  0.3532 -0.4959  0.0857
  485MOL0     C63953   1.931   5.063   0.453  0.7828 -0.4310 -0.6518
  485MOL0     C63954   1.885   5.028   0.583 -0.2198 -0.1045 -0.0969
  485MOL0     H63955   1.515   4.728   0.883  1.2602 -0.2721  1.0506
  485MOL0     H63956   1.396   4.739   1.089 -1.2862  0.5509 -0.4747
  485MOL0     H63957   1.126   5.012   1.172  0.2050  0.4678  0.2316
  485MOL0     H63958   1.226   5.095   1.293 -3.1003 -0.2255  0.3981
  485MOL0     H63959   1.098   4.824   1.340  0.5264  1.3059 -1.0476
  485MOL0     H63960   1.034   4.981   1.394 -0.8145 -0.4889 -0.7739
  485MOL0     H63961   1.231   5.022   1.532  0.1031 -0.0618 -0.9673
  485MOL0     H63962   1.307   4.887   1.473  0.1313 -2.0804  3.7687
  485MOL0     H63963   1.154   4.720   1.569 -0.1422  0.0217 -1.7282
  485MOL0     H63964   1.222   4.814   1.699  1.5795  0.4300  0.0308
  485MOL0     H63965   0.944   4.888   1.595 -1.6484 -1.3665  1.2882
  485MOL0     H63966   1.034   4.950   1.735  0.0323  1.5998 -1.1679
  485MOL0     H63967   1.002   4.728   1.853 -1.9984  1.6432  0.2604
  485MOL0     H63968   0.953   4.649   1.700  2.3657 -1.1814 -0.2916
  485MOL0     H63969   0.775   4.728   1.886 -0.2133 -1.2997 -0.2760
  485MOL0     H63970   0.813   4.889   1.806  0.0405  0.3375 -2.0962
  485MOL0     H63971   0.684   4.642   1.677 -3.0221  0.4424  0.0903
  485MOL0     H63972   0.716   4.796   1.595 -3.4213 -1.4891 -0.7221
  485MOL0     H63973   0.564   5.001   1.675 -1.2204  0.5751  0.8480
  485MOL0     H63974   0.346   5.101   1.711  1.1277  0.0664  1.3000
  485MOL0     H63975   0.278   5.058   1.866  0.0748 -0.1006 -0.3088
  485MOL0     H63976   0.097   4.932   1.792 -0.0290  2.1114 -0.3207
  485MOL0     H63977   0.172   4.881   1.638 -2.1661  1.7152 -3.4245
  485MOL0     H63978   0.089   5.166   1.690 -0.8813 -1.4669  1.9648
  485MOL0     H63979   0.132   5.089   1.531 -2.8274 -0.8749 -1.2755
  485MOL0     H63980  -0.119   5.044   1.695 -0.3306  1.2374 -1.2967
  485MOL0     H63981  -0.065   4.928   1.576 -1.2864  1.0866 -4.2749
  485MOL0     H63982  -0.338   5.083   1.637 -2.1653  0.5615  0.0410
  485MOL0     H63983  -0.548   5.039   1.560  2.1657  2.4723  2.3939
  485MOL0     H63984  -0.829   5.024   1.143 -1.5760 -1.7712 -1.3371
  485MOL0     H63985  -1.057   5.030   1.088 -3.0909 -0.0186  0.8259
  485MOL0     H63986  -1.333   4.904   1.439  0.5555 -1.4680  0.9881
  485MOL0     H63987  -1.307   4.798   1.301  1.4557  1.8136 -2.7369
  485MOL0     H63988  -1.548   4.998   1.339  0.5264 -0.4032  0.3123
  485MOL0     H63989  -1.549   4.828   1.343 -2.0726  0.4309 -1.8341
  485MOL0     H63990  -1.506   4.805   1.112  2.3997 -0.0210 -0.5061
  485MOL0     H63991  -1.424   4.956   1.094  0.2038 -0.8559 -0.7591
  485MOL0     H63992  -1.724   4.891   1.111 -0.3972 -0.4771 -1.5200
  485MOL0     H63993  -1.687   5.053   1.162 -0.5171 -1.2592  0.6858
  485MOL0     H63994  -1.576   4.941   0.898  2.5851  3.2691 -0.6296
  485MOL0     H63995  -1.589   5.107   0.947  0.3223 -0.3149 -0.9386
  485MOL0     H63996  -1.747   5.058   0.787 -0.9288 -0.8906 -0.2933
  485MOL0     H63997  -1.829   5.098   0.948  0.8343 -0.5436  0.4026
  485MOL0     H63998  -1.801   4.807   0.868 -1.3213 -0.8673  1.7864
  485MOL0     H63999  -1.897   4.890   0.990  3.0854  1.6563  1.9679
  485MOL0     H64000  -2.047   4.833   0.816 -0.0674  1.2014  0.2387
  485MOL0     H64001  -1.944   4.911   0.686  2.9837  2.2289  0.9976
  485MOL0     H64002  -1.145   4.957   1.512  2.5058 -1.0907  1.4384
  485MOL0     H64003  -0.904   4.951   1.555  0.2405  1.0020  0.3266
  485MOL0     H64004  -0.356   4.940   1.174 -2.9493  1.0964 -1.2496
  485MOL0     H64005  -0.142   5.019   1.275  1.7035  0.7164  1.9250
  485MOL0     H64006   1.350   5.153   1.078  0.7639  1.4897 -2.0653
  485MOL0     H64007   1.475   5.164   0.857  2.2648  0.3321  0.8539
  485MOL0     H64008   1.551   5.026   0.502 -0.0374  0.9281  0.7455
  485MOL0     H64009   1.624   5.097   0.300 -2.4702  1.3414  2.2662
  485MOL0     H64010   2.067   5.057   0.208  0.6468  2.1599  4.2495
  485MOL0     H64011   2.070   5.228   0.235  2.3737  0.0058 -0.3080
  485MOL0     H64012   2.116   5.134   0.001 -0.4719 -1.6619 -0.1119
  485MOL0     H64013   1.936   5.129  -0.012  0.5524 -1.1219 -0.1830
  485MOL0     H64014   1.927   5.376   0.042 -1.0218 -0.2365 -1.5096
  485MOL0     H64015   2.007   5.344  -0.099 -1.2641  1.3230  0.5142
  485MOL0     H64016   2.123   5.433   0.160  2.4110  0.7407  1.0746
  485MOL0     H64017   2.231   5.338   0.053 -1.7960 -0.8008 -3.3953
  485MOL0     H64018   2.261   5.717  -0.094 -0.3770 -0.1306  0.1734
  485MOL0     H64019   2.038   5.076   0.438  0.9425 -0.3402  0.4449
  485MOL0     H64020   1.959   5.019   0.662 -2.2886  0.0436  1.9512
  486MOL0     O64021   0.835  10.701   1.199  0.5426  0.0630  0.0054
  486MOL0     C64022   0.889  10.636   1.288  0.6163  0.1942  0.1847
  486MOL0     O64023   0.823  10.548   1.360  0.4192  0.5850 -0.2680
  486MOL0     C64024   0.686  10.524   1.346 -0.2268  0.4202  0.0932
  486MOL0     C64025   0.599  10.637   1.370  0.6963 -0.8386  1.2936
  486MOL0     C64026   0.463  10.630   1.336 -0.0959  0.2633 -0.6293
  486MOL0     C64027   0.408  10.512   1.276 -0.0933  0.7373 -0.6243
  486MOL0     O64028   0.276  10.512   1.247  0.0317  0.3963  1.0116
  486MOL0     C64029   0.218  10.406   1.169 -0.5816  0.0131 -0.4642
  486MOL0     C64030   0.069  10.440   1.129  0.0843  0.7196  0.2781
  486MOL0     C64031  -0.021  10.451   1.244  0.6386 -0.2718  1.6437
  486MOL0     C64032  -0.160  10.474   1.200  0.8390 -0.4953 -0.4884
  486MOL0     C64033  -0.236  10.506   1.321 -0.1570 -0.5975  1.0244
  486MOL0     C64034  -0.385  10.549   1.286 -0.4417 -0.0692  0.1058
  486MOL0     C64035  -0.457  10.581   1.416  0.1488 -0.1139 -0.8317
  486MOL0     C64036  -0.475  10.459   1.510 -0.0101 -0.1885 -0.5754
  486MOL0     N64037  -0.567  10.362   1.447 -0.0890 -0.9856  0.0350
  486MOL0     C64038  -0.528  10.243   1.398  0.0224 -0.5401  0.2316
  486MOL0     C64039  -0.647  10.178   1.370 -0.5777 -0.9723 -0.3219
  486MOL0     C64040  -0.658  10.034   1.322 -0.1320  0.3370 -0.8708
  486MOL0     C64041  -0.629  10.020   1.174  0.1792 -0.4937 -0.0939
  486MOL0     C64042  -0.684   9.895   1.125 -0.5997  0.0864  0.2504
  486MOL0     C64043  -0.631   9.875   0.979  0.7050 -0.3801  0.9199
  486MOL0     O64044  -0.673   9.749   0.916  0.3632 -0.3771 -0.2729
  486MOL0     C64045  -0.798   9.746   0.860  0.5038 -0.3208  0.8582
  486MOL0     C64046  -0.833   9.624   0.802  0.5868  0.7897  0.2714
  486MOL0     C64047  -0.968   9.607   0.761 -0.3796 -0.7285 -0.4490
  486MOL0     C64048  -1.061   9.706   0.778  0.5585  0.2688  0.8756
  486MOL0     C64049  -1.203   9.683   0.738  0.4711  0.2919 -0.5982
  486MOL0     O64050  -1.293   9.781   0.762  0.1284  0.0263 -0.0919
  486MOL0     C64051  -1.420   9.745   0.738  0.2243  0.7424  0.1104
  486MOL0     C64052  -1.495   9.715   0.850  0.1692 -0.0844 -0.7095
  486MOL0     C64053  -1.626   9.671   0.826  0.6039 -0.0193  0.3216
  486MOL0     C64054  -1.677   9.640   0.705  0.2264  0.6183  0.9755
  486MOL0     O64055  -1.811   9.603   0.690  0.7401  0.0826 -0.6223
  486MOL0     C64056  -1.837   9.490   0.612 -0.5587  1.0883  0.5962
  486MOL0     C64057  -1.979   9.451   0.657  0.8961  0.1312 -0.2005
  486MOL0     C64058  -2.040   9.320   0.595 -1.2517 -0.0442  0.2930
  486MOL0     C64059  -2.167   9.273   0.654 -0.2758  0.7157  0.5984
  486MOL0     C64060  -2.215   9.135   0.602 -0.2797 -0.6842  0.3470
  486MOL0     C64061  -2.314   9.080   0.707  0.2793 -0.3252  0.0031
  486MOL0     C64062  -2.386   8.953   0.658 -0.2773  0.0579  0.1286
  486MOL0     C64063  -2.472   8.873   0.756 -0.0573 -0.1529  0.3906
  486MOL0    Cl64064  -2.536   8.722   0.690  0.3806  0.1603  0.3997
  486MOL0     C64065  -1.598   9.665   0.590 -0.3450 -0.7428 -0.5975
  486MOL0     C64066  -1.471   9.711   0.614 -0.1980  0.7125 -0.2163
  486MOL0     O64067  -1.227   9.575   0.683  0.1266  0.1232 -0.1610
  486MOL0     C64068  -1.028   9.821   0.840 -0.6226  0.5241 -0.3306
  486MOL0     C64069  -0.898   9.844   0.888  0.3829  0.6301  0.5971
  486MOL0     N64070  -0.750  10.264   1.400  0.0782  1.0730  0.4258
  486MOL0     N64071  -0.702  10.375   1.447 -0.0592 -0.0760 -0.4619
  486MOL0     C64072   0.497  10.404   1.244 -0.1586  0.2289  0.3160
  486MOL0     C64073   0.636  10.411   1.283  0.2252 -0.2761  0.5149
  486MOL0     C64074   1.036  10.645   1.306  1.1410  0.1050  0.7371
  486MOL0     C64075   1.100  10.742   1.237 -0.2878 -0.8040 -0.0730
  486MOL0     C64076   1.238  10.760   1.262  0.1264 -0.4519  0.5370
  486MOL0     C64077   1.305  10.676   1.355 -0.6866  0.4037 -0.6004
  486MOL0     O64078   1.440  10.684   1.365 -0.6881  0.0862  0.2959
  486MOL0     C64079   1.505  10.560   1.368  0.5085 -0.6965 -0.5786
  486MOL0     C64080   1.657  10.569   1.348 -0.4734 -0.1842 -0.5045
  486MOL0     C64081   1.727  10.688   1.421  0.4846  0.5543  0.0591
  486MOL0     C64082   1.860  10.726   1.360  0.1028 -0.1777 -0.6166
  486MOL0     C64083   1.929  10.837   1.426 -0.2643  0.1495  0.5776
  486MOL0     C64084   1.992  10.928   1.486  0.1465  0.8006  0.1275
  486MOL0     C64085   1.233  10.568   1.406 -0.1600  0.1243  0.3385
  486MOL0     C64086   1.100  10.557   1.380  0.8589 -0.3710 -0.2077
  486MOL0     H64087   0.629  10.729   1.417  0.6416 -0.0906 -0.0876
  486MOL0     H64088   0.405  10.718   1.360  1.1534  0.6000  1.4614
  486MOL0     H64089   0.229  10.307   1.214  0.2895  0.3701  0.1231
  486MOL0     H64090   0.272  10.403   1.074 -0.2024  0.5790 -0.2728
  486MOL0     H64091   0.029  10.371   1.053  2.2233 -0.2251 -0.0638
  486MOL0     H64092   0.063  10.541   1.089  0.2315  1.1632  1.3619
  486MOL0     H64093   0.009  10.543   1.293 -1.0438  2.3716 -1.8433
  486MOL0     H64094  -0.015  10.368   1.315 -0.2735 -3.5130 -1.6891
  486MOL0     H64095  -0.172  10.562   1.136 -0.6346  1.2068  1.9080
  486MOL0     H64096  -0.208  10.396   1.141 -0.2117 -0.0239 -0.2837
  486MOL0     H64097  -0.189  10.583   1.383 -1.0416 -1.2222  2.5304
  486MOL0     H64098  -0.245  10.411   1.374  0.5258 -0.1901  1.8916
  486MOL0     H64099  -0.434  10.470   1.228 -0.4174  0.0373 -0.0610
  486MOL0     H64100  -0.372  10.633   1.217 -0.1503  1.9829  2.5079
  486MOL0     H64101  -0.392  10.655   1.464  1.1217 -1.1920 -0.4525
  486MOL0     H64102  -0.561  10.610   1.396 -0.0037  0.0551  0.1811
  486MOL0     H64103  -0.514  10.485   1.609  0.0428  1.1201 -0.8794
  486MOL0     H64104  -0.380  10.412   1.533  0.6948  1.0582 -0.8533
  486MOL0     H64105  -0.429  10.204   1.377  0.0008 -0.9123  0.7774
  486MOL0     H64106  -0.754   9.991   1.354  0.5011 -2.3889 -2.2688
  486MOL0     H64107  -0.575   9.981   1.370 -1.0918 -0.5536 -0.1309
  486MOL0     H64108  -0.526  10.042   1.144  0.3306  0.6962  1.2111
  486MOL0     H64109  -0.682  10.104   1.127  2.2088  1.3893  0.7814
  486MOL0     H64110  -0.643   9.814   1.186 -1.9809 -1.2514 -0.5016
  486MOL0     H64111  -0.792   9.885   1.140 -0.6603  0.7576  0.2794
  486MOL0     H64112  -0.522   9.885   0.986  0.7791 -0.2138 -0.2772
  486MOL0     H64113  -0.659   9.956   0.912  1.4062  1.4299  2.7190
  486MOL0     H64114  -0.766   9.539   0.793  0.3000  0.6402 -0.5115
  486MOL0     H64115  -0.995   9.505   0.737  1.4999 -1.9418  2.1599
  486MOL0     H64116  -1.468   9.729   0.954 -3.5535 -0.4319  0.4543
  486MOL0     H64117  -1.687   9.653   0.914  0.8664 -1.1728  0.2843
  486MOL0     H64118  -1.772   9.404   0.628 -0.2615  1.0924 -0.4813
  486MOL0     H64119  -1.836   9.519   0.506 -0.6127 -0.6724  0.0962
  486MOL0     H64120  -2.042   9.533   0.623  1.2242  0.7852  0.7284
  486MOL0     H64121  -1.983   9.442   0.766 -1.0398  2.5427  0.0057
  486MOL0     H64122  -1.961   9.244   0.594  2.1192  3.0067  3.8911
  486MOL0     H64123  -2.073   9.340   0.493 -1.3116 -1.2679  0.0608
  486MOL0     H64124  -2.169   9.270   0.763 -2.5418  1.5049  0.6252
  486MOL0     H64125  -2.242   9.350   0.635  0.5850  1.3727 -0.2456
  486MOL0     H64126  -2.123   9.076   0.591 -0.3120 -0.7175  0.2516
  486MOL0     H64127  -2.255   9.139   0.500  1.5129  0.5359 -0.3623
  486MOL0     H64128  -2.404   9.137   0.729 -1.7304 -2.4030 -2.1794
  486MOL0     H64129  -2.265   9.058   0.802 -0.0116 -2.3117 -0.2619
  486MOL0     H64130  -2.448   8.979   0.572  2.1469  4.6570 -0.5322
  486MOL0     H64131  -2.314   8.877   0.625 -0.9822 -0.8110  0.5250
  486MOL0     H64132  -2.559   8.935   0.781 -0.5799 -0.2464 -1.0597
  486MOL0     H64133  -2.422   8.842   0.848  1.0420  0.5214  0.0363
  486MOL0     H64134  -1.637   9.677   0.489  3.1517  0.4835 -1.9690
  486MOL0     H64135  -1.408   9.723   0.527 -1.8003  1.9860 -1.2595
  486MOL0     H64136  -1.105   9.896   0.856  0.5716  1.3280  2.1518
  486MOL0     H64137  -0.875   9.939   0.935  1.2991  0.1943  1.0508
  486MOL0     H64138   0.469  10.307   1.204  0.5564 -0.7095  1.9541
  486MOL0     H64139   0.701  10.325   1.270 -0.2054 -0.4083 -0.9399
  486MOL0     H64140   1.056  10.815   1.170 -0.5104 -0.2063  0.7094
  486MOL0     H64141   1.286  10.850   1.226 -3.2179  1.4128  0.3300
  486MOL0     H64142   1.462  10.502   1.286 -4.6241 -0.0079  1.2786
  486MOL0     H64143   1.490  10.515   1.466  0.0930  1.4283  0.4042
  486MOL0     H64144   1.699  10.475   1.383 -0.5694 -0.6256 -1.5356
  486MOL0     H64145   1.687  10.576   1.243  1.6170  0.5245  0.0796
  486MOL0     H64146   1.741  10.661   1.526  1.5203  1.3874  0.1574
  486MOL0     H64147   1.666  10.779   1.420  0.8112  0.7863  0.7939
  486MOL0     H64148   1.926  10.639   1.364  1.9560  1.1987  1.2379
  486MOL0     H64149   1.848  10.757   1.256  3.3718  1.1943 -0.7003
  486MOL0     H64150   2.048  11.008   1.529  1.2204  0.3451 -0.4002
  486MOL0     H64151   1.281  10.491   1.466  1.2487 -1.2280 -2.3600
  486MOL0     H64152   1.064  10.468   1.431  0.2503 -0.2002 -0.3403
  487MOL0     O64153   3.545   1.827   7.769  0.6270  1.0373  0.3061
  487MOL0     C64154   3.649   1.890   7.783 -0.3007  0.3902 -0.4145
  487MOL0     O64155   3.709   1.968   7.685  0.2880  0.5736  0.1929
  487MOL0     C64156   3.658   1.993   7.563 -0.3720 -0.0138 -0.1711
  487MOL0     C64157   3.609   1.894   7.478 -0.4451  0.7252 -0.1929
  487MOL0     C64158   3.558   1.925   7.351  0.3084 -0.5771  0.5233
  487MOL0     C64159   3.571   2.057   7.302  0.2878  0.4405  0.3365
  487MOL0     O64160   3.545   2.071   7.169  0.0148  0.0798  0.5182
  487MOL0     C64161   3.540   2.201   7.118 -0.2543 -0.4399  0.0885
  487MOL0     C64162   3.455   2.196   6.986 -0.0289 -0.2042 -0.2941
  487MOL0     C64163   3.430   2.346   6.946  0.2976 -0.7253 -0.3895
  487MOL0     C64164   3.349   2.364   6.817 -0.7115 -0.4788 -0.9862
  487MOL0     C64165   3.194   2.369   6.841 -0.0539  0.3326 -0.5649
  487MOL0     C64166   3.109   2.462   6.750  0.5987 -0.2440  0.1934
  487MOL0     C64167   3.153   2.438   6.608 -0.7140 -0.1064  0.9284
  487MOL0     C64168   3.056   2.513   6.511 -0.1181 -0.0590 -0.7142
  487MOL0     N64169   3.084   2.479   6.371  0.4222 -1.0542 -0.0122
  487MOL0     C64170   3.032   2.371   6.296 -0.6111 -0.4175 -0.4896
  487MOL0     C64171   3.110   2.362   6.187 -1.2336  0.5637  0.3082
  487MOL0     C64172   3.106   2.266   6.075 -0.7260 -0.8159  0.0083
  487MOL0     C64173   2.975   2.281   5.997 -0.5589 -0.5314  0.7336
  487MOL0     C64174   2.997   2.198   5.870  0.6252 -0.1487 -0.5818
  487MOL0     C64175   2.878   2.223   5.778  0.5899 -0.5752 -0.2055
  487MOL0     O64176   2.753   2.158   5.814 -0.6226  0.3076  0.4204
  487MOL0     C64177   2.638   2.178   5.734 -1.2099  0.3425  0.4963
  487MOL0     C64178   2.642   2.207   5.600 -0.1635 -0.5769  0.4147
  487MOL0     C64179   2.528   2.208   5.523  1.0642  0.4265  0.4010
  487MOL0     C64180   2.403   2.181   5.581 -0.1542  0.1642 -0.7060
  487MOL0     C64181   2.285   2.173   5.488  0.2098  0.6968 -0.0889
  487MOL0     O64182   2.168   2.117   5.534 -0.4615  0.4616 -0.0478
  487MOL0     C64183   2.052   2.099   5.460 -0.1937  1.3316 -0.3649
  487MOL0     C64184   1.957   2.033   5.531  0.1070 -0.0938 -0.3154
  487MOL0     C64185   1.836   2.009   5.477  0.5949 -0.3757  0.0634
  487MOL0     C64186   1.801   2.067   5.351 -0.9970  0.1837 -0.7254
  487MOL0     O64187   1.678   2.054   5.303 -0.1685  0.3990  0.4915
  487MOL0     C64188   1.617   2.179   5.257 -0.6128  1.1323 -0.8806
  487MOL0     C64189   1.589   2.279   5.369  0.4221  0.4952 -0.1134
  487MOL0     C64190   1.521   2.223   5.498  0.2715 -0.9260  0.7133
  487MOL0     C64191   1.426   2.320   5.562  0.2924  0.8378 -0.7104
  487MOL0     C64192   1.368   2.251   5.687 -0.5100  0.1748 -0.7871
  487MOL0     C64193   1.238   2.315   5.746 -0.1189 -0.2254 -0.3813
  487MOL0     C64194   1.194   2.215   5.861 -0.0174  0.3728 -0.5727
  487MOL0     C64195   1.115   2.287   5.962  0.6962 -0.0870  0.0437
  487MOL0    Cl64196   0.943   2.297   5.918 -0.0984  0.0456 -0.4927
  487MOL0     C64197   1.905   2.121   5.276  0.1405 -0.3513 -0.2628
  487MOL0     C64198   2.037   2.130   5.332  1.3844  0.0114  0.5202
  487MOL0     O64199   2.309   2.208   5.367 -0.0217  0.4831 -0.6575
  487MOL0     C64200   2.397   2.149   5.722 -0.3446  0.5271  0.8343
  487MOL0     C64201   2.521   2.154   5.798  0.6012  0.3974 -0.2227
  487MOL0     N64202   3.216   2.454   6.201 -0.1194 -0.2341 -0.2385
  487MOL0     N64203   3.196   2.520   6.311  0.4027 -0.8810 -0.1656
  487MOL0     C64204   3.629   2.161   7.377  0.2267  0.0462  0.3885
  487MOL0     C64205   3.668   2.122   7.502 -1.0304  0.3702  0.0661
  487MOL0     C64206   3.717   1.891   7.913  0.1207  0.1193 -0.1959
  487MOL0     C64207   3.684   1.790   8.007 -0.0499  0.3982 -0.1766
  487MOL0     C64208   3.737   1.792   8.136 -0.1926  0.1398 -0.0843
  487MOL0     C64209   3.838   1.884   8.166 -0.0990  0.5376  1.0622
  487MOL0     O64210   3.923   1.879   8.280  0.5007 -0.4463 -0.2859
  487MOL0     C64211   3.985   1.752   8.302  0.6355 -0.7859  0.1698
  487MOL0     C64212   4.124   1.768   8.348 -1.1024  0.9566 -0.6742
  487MOL0     C64213   4.128   1.839   8.483  0.6321 -0.1618 -0.9859
  487MOL0     C64214   4.260   1.818   8.559 -0.0537  0.0805  0.4162
  487MOL0     C64215   4.370   1.898   8.503 -0.4328  0.0714  0.0044
  487MOL0     C64216   4.462   1.970   8.474  0.0248 -0.2103  0.0674
  487MOL0     C64217   3.873   1.975   8.068  0.4376  0.6602  0.1934
  487MOL0     C64218   3.810   1.989   7.950  0.3292  0.2890  0.0322
  487MOL0     H64219   3.610   1.793   7.519 -1.4017  0.6903 -0.2347
  487MOL0     H64220   3.502   1.858   7.286 -2.6312 -1.8141  3.9892
  487MOL0     H64221   3.635   2.243   7.084  0.4381 -2.4495 -0.6279
  487MOL0     H64222   3.497   2.273   7.188  0.8477  1.5415 -1.1856
  487MOL0     H64223   3.360   2.144   7.004 -0.0009  0.4844  2.2562
  487MOL0     H64224   3.516   2.149   6.908  0.8330 -0.4176  0.4978
  487MOL0     H64225   3.523   2.403   6.933  0.5254 -0.7420  1.0061
  487MOL0     H64226   3.386   2.413   7.021  0.6286 -1.7120  0.7181
  487MOL0     H64227   3.368   2.461   6.771 -1.1851 -1.0717 -2.4878
  487MOL0     H64228   3.370   2.280   6.749  1.4417 -0.8970  0.1309
  487MOL0     H64229   3.188   2.400   6.946  1.9410 -1.7923  0.2689
  487MOL0     H64230   3.147   2.270   6.835  1.3052 -0.5359  1.8226
  487MOL0     H64231   3.119   2.567   6.778  0.8152 -0.3514  0.5357
  487MOL0     H64232   3.004   2.432   6.759  0.6945 -0.3483  1.0444
  487MOL0     H64233   3.254   2.469   6.581 -1.7661  3.6612  0.6645
  487MOL0     H64234   3.145   2.329   6.602 -1.0155 -0.1042  1.2451
  487MOL0     H64235   3.055   2.621   6.528 -0.8102 -0.0607 -0.7203
  487MOL0     H64236   2.953   2.482   6.531 -0.2393  1.1113  0.6211
  487MOL0     H64237   2.938   2.323   6.320 -0.0917 -2.6693 -2.4790
  487MOL0     H64238   3.123   2.166   6.117 -0.3084 -0.4873  0.6310
  487MOL0     H64239   3.200   2.280   6.022 -1.0074 -0.2497 -0.3439
  487MOL0     H64240   2.967   2.386   5.970  3.6011 -0.1471  0.4147
  487MOL0     H64241   2.890   2.243   6.056 -1.9206  0.7491 -0.3188
  487MOL0     H64242   3.092   2.224   5.823  0.9426 -0.5925 -0.2022
  487MOL0     H64243   2.984   2.092   5.896 -1.1160  0.3046  0.5772
  487MOL0     H64244   2.900   2.193   5.676 -1.0920  0.9865 -1.0879
  487MOL0     H64245   2.855   2.329   5.764  3.2241 -0.1757 -2.1855
  487MOL0     H64246   2.743   2.210   5.561  0.3577 -0.9384  1.6798
  487MOL0     H64247   2.549   2.213   5.417  4.8363 -4.9692  0.4830
  487MOL0     H64248   1.971   2.002   5.634 -2.5764  1.0638  0.5066
  487MOL0     H64249   1.765   1.960   5.542  1.5349  1.0559  2.2714
  487MOL0     H64250   1.527   2.144   5.206 -1.3570 -0.4363  1.3350
  487MOL0     H64251   1.667   2.217   5.168 -1.3061 -0.3528 -1.9397
  487MOL0     H64252   1.537   2.363   5.322  0.0584  0.9148  1.0065
  487MOL0     H64253   1.688   2.313   5.401  1.4322  0.4805 -2.9906
  487MOL0     H64254   1.603   2.195   5.564 -0.8183 -2.7041  1.3767
  487MOL0     H64255   1.473   2.130   5.467 -0.8215  0.1449 -0.9893
  487MOL0     H64256   1.476   2.414   5.590  2.2552 -0.8201  1.8596
  487MOL0     H64257   1.347   2.334   5.488  1.8889 -0.6747 -2.7940
  487MOL0     H64258   1.442   2.250   5.767  1.0248  0.2960 -2.1503
  487MOL0     H64259   1.342   2.145   5.675  1.2764 -0.1931 -1.8311
  487MOL0     H64260   1.165   2.333   5.667 -0.1648 -1.6164 -0.6753
  487MOL0     H64261   1.265   2.412   5.790  1.0867 -0.6828 -0.0651
  487MOL0     H64262   1.149   2.126   5.816  0.4935 -0.5803  0.7251
  487MOL0     H64263   1.284   2.181   5.914 -0.5259  0.3095  0.2777
  487MOL0     H64264   1.155   2.388   5.976  0.1860  0.1403 -0.0812
  487MOL0     H64265   1.125   2.229   6.054 -0.6590 -0.6890 -0.1650
  487MOL0     H64266   1.873   2.150   5.177 -0.9007  1.2995  0.5068
  487MOL0     H64267   2.112   2.159   5.260  0.7559  1.5499  0.4552
  487MOL0     H64268   2.296   2.132   5.758 -0.6914  0.4613 -0.1419
  487MOL0     H64269   2.540   2.126   5.901  2.9301 -0.0738 -0.7116
  487MOL0     H64270   3.622   2.265   7.346 -3.4201 -0.9948 -3.0788
  487MOL0     H64271   3.709   2.201   7.564  3.1328 -2.7553  1.7622
  487MOL0     H64272   3.608   1.719   7.974 -3.1446  2.7012  1.5163
  487MOL0     H64273   3.705   1.713   8.203  2.9978 -3.0281 -1.9513
  487MOL0     H64274   3.976   1.699   8.206 -4.3493  0.2867 -0.2189
  487MOL0     H64275   3.929   1.709   8.385 -2.4935 -1.9729 -2.3391
  487MOL0     H64276   4.165   1.666   8.346 -0.8291  1.0688 -0.9252
  487MOL0     H64277   4.189   1.823   8.280  1.4790  0.0958  0.9286
  487MOL0     H64278   4.054   1.800   8.553  2.2945 -0.9525  0.4019
  487MOL0     H64279   4.109   1.947   8.476 -0.7401 -0.3187 -0.1638
  487MOL0     H64280   4.250   1.851   8.663 -0.1287  3.0780 -0.4513
  487MOL0     H64281   4.299   1.716   8.556 -1.9849 -0.6807 -0.2178
  487MOL0     H64282   4.536   2.039   8.438  0.5811 -0.8217  0.0078
  487MOL0     H64283   3.943   2.052   8.098  3.3598  0.1154 -4.2828
  487MOL0     H64284   3.832   2.079   7.894  2.0473 -0.5616 -0.7638
  488MOL0     O64285   7.412   3.598   5.108  0.4979 -0.4603  0.3561
  488MOL0     C64286   7.466   3.580   5.211 -0.4351 -0.3684 -0.0574
  488MOL0     O64287   7.391   3.555   5.326  0.0693 -0.0847  0.2671
  488MOL0     C64288   7.258   3.545   5.325 -0.1190  0.7728 -1.0008
  488MOL0     C64289   7.189   3.432   5.269  0.5033  0.5126  0.7435
  488MOL0     C64290   7.049   3.431   5.277 -0.7075  0.3543  0.2444
  488MOL0     C64291   6.982   3.534   5.344 -0.4678  0.0931  0.8561
  488MOL0     O64292   6.852   3.540   5.353  0.0613 -0.5287 -0.7386
  488MOL0     C64293   6.771   3.422   5.359  0.1379  0.3228  0.9314
  488MOL0     C64294   6.627   3.465   5.401 -1.2023  0.2277  0.2168
  488MOL0     C64295   6.525   3.359   5.387  0.0273  0.2742 -0.4715
  488MOL0     C64296   6.387   3.418   5.373  0.2174  0.1417  0.5386
  488MOL0     C64297   6.301   3.299   5.360 -0.1532  0.5010  0.0441
  488MOL0     C64298   6.153   3.335   5.368 -0.2558  0.0024 -0.3529
  488MOL0     C64299   6.062   3.212   5.375  0.6004 -0.2066  0.2658
  488MOL0     C64300   5.921   3.254   5.407  0.1149  0.0650 -0.5059
  488MOL0     N64301   5.832   3.153   5.457  0.2395 -0.6393 -0.2395
  488MOL0     C64302   5.833   3.078   5.571 -0.0933 -0.5019 -0.2375
  488MOL0     C64303   5.743   2.978   5.553  1.0265 -0.9613 -0.1364
  488MOL0     C64304   5.695   2.867   5.642 -0.3450  0.5889  0.1305
  488MOL0     C64305   5.581   2.907   5.737  0.0493  0.0055  1.2209
  488MOL0     C64306   5.454   2.818   5.712 -0.1567  0.0935 -0.3630
  488MOL0     C64307   5.327   2.880   5.763 -0.0005  0.0924 -0.0414
  488MOL0     O64308   5.244   2.774   5.810 -0.1632 -0.0758 -0.6296
  488MOL0     C64309   5.118   2.810   5.849  0.1860  0.4923  0.6332
  488MOL0     C64310   5.040   2.923   5.810  1.2692 -0.5009  0.4862
  488MOL0     C64311   4.904   2.927   5.823 -0.0922  0.8614  0.8725
  488MOL0     C64312   4.840   2.816   5.884 -0.4436  0.7391  0.1884
  488MOL0     C64313   4.687   2.820   5.902  0.5593 -0.0082  1.0602
  488MOL0     O64314   4.631   2.891   5.802  0.1318  0.6145 -0.7668
  488MOL0     C64315   4.497   2.923   5.803 -0.0064  0.2548 -0.2207
  488MOL0     C64316   4.414   2.947   5.917 -0.0768 -0.0022  0.6804
  488MOL0     C64317   4.283   2.978   5.906 -0.0923  0.4406  1.1120
  488MOL0     C64318   4.223   2.984   5.782 -0.8338  0.5440 -0.3538
  488MOL0     O64319   4.084   3.011   5.774  0.3235 -0.9314  0.3640
  488MOL0     C64320   4.013   2.995   5.654  0.3661 -0.2467  0.5100
  488MOL0     C64321   3.867   2.989   5.704  1.3453 -0.3285 -0.2658
  488MOL0     C64322   3.790   3.114   5.673  0.2865 -0.3745  0.0892
  488MOL0     C64323   3.659   3.132   5.746  0.5026 -0.2557  0.1511
  488MOL0     C64324   3.551   3.029   5.758  0.1155 -0.3048  0.0274
  488MOL0     C64325   3.512   2.966   5.622 -0.2643 -0.3712 -0.3048
  488MOL0     C64326   3.394   2.879   5.647  0.3567  0.5875 -0.0798
  488MOL0     C64327   3.328   2.823   5.512 -0.8154 -0.3268 -0.2930
  488MOL0    Cl64328   3.415   2.670   5.467 -0.4803 -0.2053 -0.3443
  488MOL0     C64329   4.307   2.961   5.671  0.0997  0.5910  0.5652
  488MOL0     C64330   4.441   2.930   5.684  0.8654  0.2569  0.3906
  488MOL0     O64331   4.629   2.760   5.991  1.3041  0.2715 -0.0547
  488MOL0     C64332   4.918   2.705   5.933 -0.4075  0.2192 -0.2028
  488MOL0     C64333   5.055   2.700   5.913 -0.3635 -0.4581 -0.2022
  488MOL0     N64334   5.687   3.000   5.425  0.2475  0.0304 -0.6224
  488MOL0     N64335   5.735   3.109   5.376  0.2748  0.0113 -0.5811
  488MOL0     C64336   7.058   3.640   5.408  0.5934 -0.1164  0.4180
  488MOL0     C64337   7.192   3.638   5.409 -0.4023 -0.6610  0.1819
  488MOL0     C64338   7.613   3.590   5.219 -0.3726  0.1320 -0.1789
  488MOL0     C64339   7.677   3.606   5.344  0.1318 -0.1727  0.4849
  488MOL0     C64340   7.816   3.589   5.358  0.3969  0.4900 -1.1078
  488MOL0     C64341   7.893   3.560   5.244 -0.1954 -1.0168  0.3087
  488MOL0     O64342   8.026   3.546   5.252 -0.3105 -0.7367 -0.1726
  488MOL0     C64343   8.106   3.623   5.163  0.3488  0.1123 -0.0908
  488MOL0     C64344   8.246   3.648   5.224  0.1281 -0.4056 -0.5112
  488MOL0     C64345   8.321   3.524   5.285  0.5814 -0.4640  0.1485
  488MOL0     C64346   8.461   3.567   5.332 -0.5899  0.9909 -0.1777
  488MOL0     C64347   8.537   3.454   5.379  1.2211  0.3716  0.1152
  488MOL0     C64348   8.597   3.353   5.406  0.1827  0.3872 -0.4682
  488MOL0     C64349   7.833   3.553   5.116 -0.7568  0.4010  0.0249
  488MOL0     C64350   7.693   3.573   5.102  0.0847 -0.4743 -0.5111
  488MOL0     H64351   7.241   3.368   5.198 -2.8983  2.0475 -3.6193
  488MOL0     H64352   6.998   3.345   5.234  1.2352  0.0779 -1.6543
  488MOL0     H64353   6.803   3.342   5.428 -0.4848  0.6433  1.6072
  488MOL0     H64354   6.765   3.378   5.260 -2.0003  0.9002  0.7583
  488MOL0     H64355   6.594   3.552   5.344 -0.5039  0.6406  0.4295
  488MOL0     H64356   6.637   3.489   5.508  0.1667  1.4627 -0.1681
  488MOL0     H64357   6.533   3.297   5.476  0.1231 -1.8003 -1.8489
  488MOL0     H64358   6.544   3.294   5.301 -3.0246 -1.1770 -0.2103
  488MOL0     H64359   6.353   3.473   5.461  0.1436 -0.0212  0.6121
  488MOL0     H64360   6.378   3.483   5.286 -0.0322 -1.3851 -0.6095
  488MOL0     H64361   6.316   3.233   5.447 -1.4759  0.1290  0.0132
  488MOL0     H64362   6.324   3.243   5.269 -1.8618 -0.0484 -0.0772
  488MOL0     H64363   6.124   3.402   5.286 -1.3716  2.2251  1.7383
  488MOL0     H64364   6.140   3.397   5.457 -0.0168 -1.5804  0.8244
  488MOL0     H64365   6.057   3.163   5.277  0.7434  1.3985 -0.5754
  488MOL0     H64366   6.096   3.139   5.449 -1.2911  0.0340  1.4463
  488MOL0     H64367   5.875   3.295   5.316 -0.1026 -0.2211 -0.5254
  488MOL0     H64368   5.922   3.324   5.491  2.1547 -0.3156 -0.1755
  488MOL0     H64369   5.904   3.084   5.653  1.0287  0.7166 -1.2298
  488MOL0     H64370   5.772   2.831   5.711  1.1050  0.7264 -1.3757
  488MOL0     H64371   5.683   2.775   5.583  2.9479 -0.8330  1.4455
  488MOL0     H64372   5.551   3.008   5.707 -0.0886 -0.0848  1.0551
  488MOL0     H64373   5.596   2.900   5.845  0.5154  3.2813  1.4714
  488MOL0     H64374   5.434   2.802   5.606 -3.5366  0.9150  0.0401
  488MOL0     H64375   5.459   2.721   5.762  0.2034  0.0486 -0.4856
  488MOL0     H64376   5.286   2.945   5.685  1.3749  0.4029 -0.5203
  488MOL0     H64377   5.359   2.950   5.841  0.3938 -0.7183  0.5281
  488MOL0     H64378   5.080   3.010   5.760 -0.0602 -0.6308 -0.8539
  488MOL0     H64379   4.842   3.010   5.790 -0.6083  0.0058 -0.3955
  488MOL0     H64380   4.451   2.932   6.018  0.7329  5.0541  1.4033
  488MOL0     H64381   4.247   2.995   6.007  1.6509  1.8677  1.5377
  488MOL0     H64382   4.036   2.902   5.601 -0.7666  0.0045 -0.4699
  488MOL0     H64383   4.020   3.084   5.590 -1.1692 -0.5777 -0.1518
  488MOL0     H64384   3.866   2.977   5.812 -0.9921 -0.9535 -0.2978
  488MOL0     H64385   3.820   2.904   5.652  1.3547 -2.8968  3.5582
  488MOL0     H64386   3.775   3.112   5.565 -0.5673 -2.6331  0.1880
  488MOL0     H64387   3.856   3.194   5.707 -1.8135  1.1528  0.8042
  488MOL0     H64388   3.671   3.164   5.849 -0.2691  1.1520 -0.1649
  488MOL0     H64389   3.612   3.220   5.700 -1.7761 -1.6538 -0.3564
  488MOL0     H64390   3.465   3.085   5.797  1.6838  2.0058  0.3938
  488MOL0     H64391   3.585   2.944   5.818 -0.7740 -1.6702 -1.3392
  488MOL0     H64392   3.598   2.914   5.579 -0.2320 -0.1204 -0.5481
  488MOL0     H64393   3.498   3.055   5.560 -0.4197 -1.3461 -1.7056
  488MOL0     H64394   3.414   2.802   5.722  0.1233  2.3242  1.8470
  488MOL0     H64395   3.320   2.946   5.690  1.2687  1.8875 -0.4570
  488MOL0     H64396   3.325   2.893   5.428 -1.7174 -0.0719 -0.0584
  488MOL0     H64397   3.223   2.809   5.538 -0.4152 -1.6363  0.7396
  488MOL0     H64398   4.271   2.960   5.568  0.1937  1.1197  0.5233
  488MOL0     H64399   4.492   2.899   5.594 -1.0352 -0.6917 -0.4010
  488MOL0     H64400   4.870   2.622   5.985  2.1519 -0.3289  1.4488
  488MOL0     H64401   5.117   2.616   5.941  1.0330 -0.0744 -1.9473
  488MOL0     H64402   7.017   3.727   5.459  2.0324  0.2259  1.0496
  488MOL0     H64403   7.237   3.728   5.451 -4.1186  1.7163 -0.4272
  488MOL0     H64404   7.611   3.626   5.428 -0.7313  1.7672 -0.6060
  488MOL0     H64405   7.872   3.612   5.448  1.3308 -1.8917 -1.0261
  488MOL0     H64406   8.066   3.719   5.129  2.1976  1.4132  1.2005
  488MOL0     H64407   8.116   3.573   5.066  2.0010  0.4314 -0.1053
  488MOL0     H64408   8.300   3.694   5.141 -0.1451  0.9467  0.0281
  488MOL0     H64409   8.240   3.723   5.304 -1.1692  0.0288 -0.9969
  488MOL0     H64410   8.338   3.466   5.194 -1.1100  1.7993 -1.7466
  488MOL0     H64411   8.269   3.460   5.357  0.2155 -1.0388 -0.6161
  488MOL0     H64412   8.509   3.601   5.239 -0.0180  0.8829  0.0752
  488MOL0     H64413   8.458   3.647   5.407 -0.2386 -0.4787  1.4384
  488MOL0     H64414   8.644   3.263   5.441  1.5101  1.2375  0.0218
  488MOL0     H64415   7.888   3.526   5.027  3.1514 -0.4927  2.4808
  488MOL0     H64416   7.638   3.563   5.010 -2.0398 -0.4596  0.6985
  489MOL0     O64417   3.910   1.789   6.972 -0.6503 -0.2730  0.3932
  489MOL0     C64418   3.788   1.777   6.938  0.4667 -0.4958  0.4568
  489MOL0     O64419   3.701   1.686   6.983  0.0394  0.9390  0.2115
  489MOL0     C64420   3.730   1.623   7.103 -0.2904  0.2680 -0.0865
  489MOL0     C64421   3.634   1.620   7.207 -0.2887 -0.5251 -0.3691
  489MOL0     C64422   3.667   1.565   7.334  0.2068 -0.9414  1.0714
  489MOL0     C64423   3.791   1.519   7.363  0.8795  0.1829 -0.3094
  489MOL0     O64424   3.799   1.495   7.496  0.2553  0.2024 -0.6696
  489MOL0     C64425   3.891   1.392   7.552  0.1004 -0.0229  0.6476
  489MOL0     C64426   3.845   1.336   7.685  0.9155 -0.3362  0.1603
  489MOL0     C64427   3.718   1.255   7.656  0.1145  0.1225 -0.0677
  489MOL0     C64428   3.736   1.111   7.719 -0.5219  0.4624  0.6637
  489MOL0     C64429   3.746   1.113   7.873  0.7826  0.0302 -0.0333
  489MOL0     C64430   3.742   0.973   7.930  0.0653 -0.8076  0.0304
  489MOL0     C64431   3.698   0.976   8.076  0.3956  0.4398 -0.0040
  489MOL0     C64432   3.675   0.836   8.123  1.1247 -0.6827  0.4311
  489MOL0     N64433   3.796   0.750   8.135  0.8038  0.0590  0.0113
  489MOL0     C64434   3.799   0.612   8.115 -0.4432 -0.3875 -0.3412
  489MOL0     C64435   3.915   0.565   8.158 -0.3005 -0.3577 -0.4320
  489MOL0     C64436   3.961   0.424   8.146  0.3433  0.3079 -0.2155
  489MOL0     C64437   4.044   0.389   8.267  0.5688 -0.5695  0.5676
  489MOL0     C64438   4.078   0.244   8.281 -0.0041  0.6140  0.2864
  489MOL0     C64439   4.211   0.226   8.346 -0.2331  0.1339 -0.4549
  489MOL0     O64440   4.243   0.084   8.348 -0.3260 -0.1916 -0.3432
  489MOL0     C64441   4.371   0.050   8.311 -0.1076 -0.2627  0.4867
  489MOL0     C64442   4.438   0.088   8.196  1.0470  0.6841 -0.6373
  489MOL0     C64443   4.565   0.063   8.171  0.2594  0.1554  0.7456
  489MOL0     C64444   4.651   0.004   8.268 -0.2998 -0.4426  0.5344
  489MOL0     C64445   4.785  -0.052   8.234  0.2698  0.1657  0.6931
  489MOL0     O64446   4.807  -0.090   8.104 -0.6037 -0.1891 -0.3245
  489MOL0     C64447   4.936  -0.115   8.056  0.3803 -0.2942  0.5570
  489MOL0     C64448   5.050  -0.037   8.080  0.4740 -0.3805  0.2868
  489MOL0     C64449   5.164  -0.057   7.998 -0.0805  0.3934  0.5723
  489MOL0     C64450   5.179  -0.171   7.913  0.0237  0.6816 -0.1298
  489MOL0     O64451   5.298  -0.184   7.844 -0.1579  0.0046 -0.1483
  489MOL0     C64452   5.329  -0.308   7.780  0.1830 -0.4188  0.9704
  489MOL0     C64453   5.470  -0.294   7.738  0.5338  0.6896  0.2277
  489MOL0     C64454   5.483  -0.214   7.612  0.3164 -0.0049  0.3493
  489MOL0     C64455   5.630  -0.193   7.564  0.1534 -0.0906  0.1339
  489MOL0     C64456   5.633  -0.136   7.422 -0.1364 -0.7192  0.3635
  489MOL0     C64457   5.767  -0.130   7.358  0.5815 -0.7591  0.8393
  489MOL0     C64458   5.870  -0.038   7.436  0.3407 -0.2474  0.4170
  489MOL0     C64459   6.011  -0.039   7.365 -0.1689  0.4517 -0.9777
  489MOL0    Cl64460   6.078  -0.191   7.415  0.0557  0.2421 -0.2299
  489MOL0     C64461   5.063  -0.253   7.895  0.1062  0.2467  0.3729
  489MOL0     C64462   4.947  -0.222   7.961  0.2338 -0.0493 -0.0402
  489MOL0     O64463   4.874  -0.063   8.319 -0.2997  0.2305  0.2090
  489MOL0     C64464   4.583  -0.028   8.394 -0.8119 -0.9710  0.0711
  489MOL0     C64465   4.445  -0.011   8.409 -0.5055 -0.3756  0.2351
  489MOL0     N64466   3.979   0.673   8.219 -0.8514 -1.0747  0.9136
  489MOL0     N64467   3.903   0.778   8.203  0.2876 -0.2128 -1.1123
  489MOL0     C64468   3.886   1.502   7.261 -0.1735 -0.2717 -0.3349
  489MOL0     C64469   3.849   1.546   7.131 -0.1396 -0.7856 -0.2275
  489MOL0     C64470   3.730   1.867   6.829  0.4182  0.4175  0.0298
  489MOL0     C64471   3.595   1.870   6.786  0.2927 -0.0607  0.2487
  489MOL0     C64472   3.554   1.948   6.681  0.3349  0.0089  0.7904
  489MOL0     C64473   3.648   2.028   6.616 -0.5619 -0.4267  0.5808
  489MOL0     O64474   3.606   2.123   6.527 -0.5321 -0.5618  0.2508
  489MOL0     C64475   3.465   2.123   6.470  0.2461  0.0464 -1.0889
  489MOL0     C64476   3.465   2.222   6.356 -0.2475 -0.3037 -1.0686
  489MOL0     C64477   3.544   2.353   6.379 -0.5128  0.5144  0.5050
  489MOL0     C64478   3.527   2.447   6.258  0.3729 -0.2117 -0.0980
  489MOL0     C64479   3.646   2.533   6.267  0.3543 -0.4590  0.8838
  489MOL0     C64480   3.737   2.608   6.288  0.4146  0.3428  0.1518
  489MOL0     C64481   3.781   2.027   6.657 -0.5633  0.1005  0.8462
  489MOL0     C64482   3.824   1.942   6.763 -0.2589  0.6092 -0.3385
  489MOL0     H64483   3.549   1.687   7.195 -1.1367 -1.0755  2.1948
  489MOL0     H64484   3.590   1.575   7.410 -0.3182 -0.3908  0.4849
  489MOL0     H64485   3.984   1.448   7.551  1.1463 -1.6589  2.0407
  489MOL0     H64486   3.903   1.319   7.471 -1.9067  0.8164 -0.4824
  489MOL0     H64487   3.824   1.418   7.755  0.1344 -0.4857  0.1061
  489MOL0     H64488   3.930   1.275   7.716 -0.9802 -3.4985 -0.4582
  489MOL0     H64489   3.696   1.243   7.550  0.0286 -0.2593 -0.0083
  489MOL0     H64490   3.627   1.308   7.684 -0.3815  1.2686 -3.4260
  489MOL0     H64491   3.665   1.034   7.688 -0.8896  0.4823  1.4471
  489MOL0     H64492   3.835   1.075   7.688 -1.1203 -0.6070 -0.0778
  489MOL0     H64493   3.653   1.159   7.909 -0.4019 -0.9063 -1.7729
  489MOL0     H64494   3.831   1.170   7.913 -0.0952  2.2872 -1.1824
  489MOL0     H64495   3.840   0.929   7.913 -0.1300 -0.5363 -2.0623
  489MOL0     H64496   3.671   0.914   7.872  0.0927 -0.6706 -0.1418
  489MOL0     H64497   3.777   1.032   8.126  0.1067  2.3909 -1.6357
  489MOL0     H64498   3.610   1.038   8.094  0.9669  1.4853 -0.7343
  489MOL0     H64499   3.599   0.802   8.053 -2.5026  3.6631  1.8135
  489MOL0     H64500   3.625   0.837   8.221  0.8298  0.8008  0.2869
  489MOL0     H64501   3.711   0.555   8.086 -1.0742 -0.5559  1.7112
  489MOL0     H64502   4.024   0.414   8.057  1.3636 -2.6593  0.7362
  489MOL0     H64503   3.866   0.370   8.140  0.0562  0.8724 -1.0232
  489MOL0     H64504   3.997   0.429   8.358  2.0903  2.7887  0.0104
  489MOL0     H64505   4.136   0.445   8.249 -0.4525  1.4432  1.2358
  489MOL0     H64506   4.002   0.192   8.341 -0.3427  1.0666  0.2591
  489MOL0     H64507   4.084   0.210   8.177  0.2804  4.0917 -0.9636
  489MOL0     H64508   4.221   0.276   8.443  1.0802 -0.3367 -0.3337
  489MOL0     H64509   4.288   0.274   8.285  1.4209 -0.8497  0.7771
  489MOL0     H64510   4.364   0.133   8.130 -1.2192 -0.2036  1.1436
  489MOL0     H64511   4.608   0.073   8.072  2.5396 -1.3264  1.5005
  489MOL0     H64512   5.040   0.053   8.139  0.8299 -0.2717  0.1848
  489MOL0     H64513   5.242   0.018   8.002 -1.0906  1.6414 -1.2259
  489MOL0     H64514   5.261  -0.321   7.695 -2.9581 -0.3304  3.2798
  489MOL0     H64515   5.334  -0.397   7.844  2.2891  0.5964  2.3080
  489MOL0     H64516   5.507  -0.394   7.714  1.5024  0.8793  0.8960
  489MOL0     H64517   5.534  -0.251   7.815  0.2139  4.7104 -1.4990
  489MOL0     H64518   5.439  -0.114   7.619  0.2288  0.1418 -1.7725
  489MOL0     H64519   5.426  -0.263   7.533  0.4377  0.4879 -0.0471
  489MOL0     H64520   5.672  -0.114   7.627 -2.1497  0.6498  0.8447
  489MOL0     H64521   5.703  -0.275   7.571 -1.0699 -1.0876  2.3183
  489MOL0     H64522   5.590  -0.037   7.440  2.8312  0.2947  2.7802
  489MOL0     H64523   5.571  -0.197   7.355 -1.4802  0.3205  0.6148
  489MOL0     H64524   5.760  -0.084   7.259 -1.3401  2.2945  2.2287
  489MOL0     H64525   5.795  -0.235   7.349 -3.5653 -1.9580 -0.2946
  489MOL0     H64526   5.832   0.065   7.434 -0.0851 -0.4044 -1.3190
  489MOL0     H64527   5.880  -0.074   7.538 -1.1162 -1.7221  0.0809
  489MOL0     H64528   6.068   0.048   7.398  0.0815  0.2921 -0.9892
  489MOL0     H64529   6.005  -0.026   7.257 -0.2821 -2.4130 -1.3791
  489MOL0     H64530   5.058  -0.321   7.810 -1.1680  1.8466 -0.8954
  489MOL0     H64531   4.853  -0.270   7.936 -0.6059 -0.2134  3.1316
  489MOL0     H64532   4.654  -0.079   8.458  2.1189  1.2457 -1.1791
  489MOL0     H64533   4.403  -0.038   8.506 -2.8597 -2.6972 -1.2813
  489MOL0     H64534   3.984   1.459   7.281 -1.3942 -3.0246  0.1901
  489MOL0     H64535   3.927   1.537   7.056  1.3960  0.6057  1.1416
  489MOL0     H64536   3.533   1.817   6.857  1.8115  0.6768  2.2174
  489MOL0     H64537   3.447   1.958   6.671  0.3351 -2.2331 -3.7687
  489MOL0     H64538   3.398   2.153   6.551 -0.0475 -0.9541 -0.9448
  489MOL0     H64539   3.426   2.025   6.441  0.9008 -1.2741  2.0030
  489MOL0     H64540   3.505   2.167   6.270  0.1324 -1.2962 -0.2737
  489MOL0     H64541   3.361   2.245   6.332 -1.4208 -2.4533  1.4424
  489MOL0     H64542   3.648   2.318   6.388 -0.2099  0.9769 -0.9702
  489MOL0     H64543   3.519   2.416   6.464 -1.2775 -0.4487  1.0149
  489MOL0     H64544   3.515   2.386   6.168 -1.3075 -0.9246  0.5565
  489MOL0     H64545   3.441   2.515   6.267  1.7578  1.7657 -1.0203
  489MOL0     H64546   3.814   2.676   6.320  1.3438 -0.4698 -0.3325
  489MOL0     H64547   3.851   2.094   6.608 -0.6084 -0.0648  0.5516
  489MOL0     H64548   3.927   1.959   6.793  0.0747  1.5569 -1.9358
  490MOL0     O64549   3.226   7.813   9.184  0.2092  0.1235  0.3967
  490MOL0     C64550   3.240   7.740   9.087 -0.1295  0.6400 -0.2214
  490MOL0     O64551   3.139   7.665   9.028  0.3755  0.1132 -0.0699
  490MOL0     C64552   3.012   7.694   9.055  0.1484  0.6769 -0.0486
  490MOL0     C64553   2.955   7.821   9.049  0.0102  0.0115 -0.2364
  490MOL0     C64554   2.818   7.843   9.055  0.1788 -0.7352  0.0065
  490MOL0     C64555   2.731   7.733   9.074 -0.4460  0.4221 -0.2313
  490MOL0     O64556   2.593   7.764   9.081  0.3409 -0.2260  0.1121
  490MOL0     C64557   2.496   7.659   9.065 -0.4969  0.4901 -0.1648
  490MOL0     C64558   2.349   7.701   9.054  0.7803  0.3288  0.6660
  490MOL0     C64559   2.248   7.584   9.053  0.0698 -0.5433 -0.7542
  490MOL0     C64560   2.104   7.627   9.066 -0.6057 -0.0223  0.1520
  490MOL0     C64561   2.049   7.694   8.936  0.2523 -1.1574  0.5488
  490MOL0     C64562   2.097   7.834   8.894 -0.2989 -0.2273 -0.3590
  490MOL0     C64563   1.976   7.904   8.830  0.5984 -0.7283 -0.9684
  490MOL0     C64564   1.994   8.051   8.812 -0.3685  0.0957  0.5986
  490MOL0     N64565   2.117   8.079   8.738  0.0803  1.0290  0.1235
  490MOL0     C64566   2.160   8.025   8.619 -0.1036  0.1160  0.2779
  490MOL0     C64567   2.291   8.054   8.609  0.4510  0.4875 -0.5329
  490MOL0     C64568   2.388   7.996   8.513 -0.0424 -0.3249 -0.3451
  490MOL0     C64569   2.372   7.839   8.486 -0.3962 -0.4394 -0.2999
  490MOL0     C64570   2.474   7.767   8.579 -0.3913 -0.1975 -0.3634
  490MOL0     C64571   2.471   7.619   8.546  0.0221 -0.0187 -0.1713
  490MOL0     O64572   2.583   7.561   8.621  0.6623  0.0684 -0.0921
  490MOL0     C64573   2.708   7.552   8.558  0.3411 -0.7331 -0.2358
  490MOL0     C64574   2.737   7.571   8.428 -1.0771 -0.0865 -0.1576
  490MOL0     C64575   2.871   7.564   8.385 -1.0133 -0.5427  0.3785
  490MOL0     C64576   2.970   7.531   8.484 -0.1918 -0.2806  0.9214
  490MOL0     C64577   3.120   7.522   8.455 -0.2563 -0.2709 -0.5491
  490MOL0     O64578   3.217   7.480   8.549  0.6851 -0.3223  0.2805
  490MOL0     C64579   3.351   7.476   8.508  0.0008  0.7023 -0.1385
  490MOL0     C64580   3.425   7.569   8.429  0.8599  0.4608  0.3263
  490MOL0     C64581   3.564   7.548   8.430  0.0461 -0.0376  0.3223
  490MOL0     C64582   3.632   7.454   8.504  0.0984 -0.0309  0.1649
  490MOL0     O64583   3.768   7.448   8.516 -0.0738 -0.6966 -0.2728
  490MOL0     C64584   3.838   7.438   8.393 -0.0011 -0.2863 -0.5279
  490MOL0     C64585   3.987   7.422   8.422  0.2134  0.1803 -0.1026
  490MOL0     C64586   4.074   7.413   8.292  0.3482  0.9259  0.6163
  490MOL0     C64587   4.217   7.432   8.330 -0.9708 -1.0195  0.0095
  490MOL0     C64588   4.312   7.443   8.216  0.0441 -0.2510 -0.3432
  490MOL0     C64589   4.460   7.417   8.245 -0.5664 -0.4810 -0.6989
  490MOL0     C64590   4.475   7.280   8.301  0.1790  0.6384 -0.9752
  490MOL0     C64591   4.589   7.200   8.243  0.5725  0.0145 -0.2970
  490MOL0    Cl64592   4.745   7.302   8.255  0.0342  0.4500  0.5366
  490MOL0     C64593   3.560   7.368   8.587 -0.0324  0.4502  0.6731
  490MOL0     C64594   3.424   7.380   8.582  0.1577  0.7176 -0.3059
  490MOL0     O64595   3.150   7.548   8.341  0.6998  0.5458  0.8374
  490MOL0     C64596   2.933   7.518   8.622 -0.0586 -0.2498  0.1747
  490MOL0     C64597   2.800   7.527   8.653  0.1593 -0.1770 -0.0716
  490MOL0     N64598   2.321   8.130   8.724 -0.4658 -0.3190  0.9142
  490MOL0     N64599   2.220   8.150   8.799  0.1905 -0.8009  0.3641
  490MOL0     C64600   2.782   7.600   9.069  0.2009 -0.9348 -0.5263
  490MOL0     C64601   2.924   7.586   9.059  0.5450  0.1351 -0.3008
  490MOL0     C64602   3.375   7.714   9.044  0.4229 -0.5067 -0.0611
  490MOL0     C64603   3.406   7.606   8.974 -0.6731  0.2063  0.0637
  490MOL0     C64604   3.540   7.573   8.931  0.0592  0.4697  0.4476
  490MOL0     C64605   3.644   7.659   8.960 -0.9895 -0.0943  0.3560
  490MOL0     O64606   3.774   7.640   8.915 -0.3933 -0.0430 -0.5870
  490MOL0     C64607   3.800   7.532   8.823 -0.9509  0.1566 -0.1342
  490MOL0     C64608   3.881   7.417   8.882 -0.1196 -0.2918  0.7938
  490MOL0     C64609   3.970   7.340   8.778 -0.1602  0.2625  0.0864
  490MOL0     C64610   4.080   7.252   8.829 -0.6584  0.3476 -0.7436
  490MOL0     C64611   4.179   7.331   8.906 -0.1966  0.5007 -0.2219
  490MOL0     C64612   4.268   7.390   8.961 -0.1840 -0.0680 -0.5233
  490MOL0     C64613   3.612   7.764   9.037 -0.9335 -0.1928  0.0009
  490MOL0     C64614   3.484   7.797   9.084  0.0198 -0.0287 -0.0484
  490MOL0     H64615   3.010   7.914   9.038 -3.0973  1.7935 -2.6703
  490MOL0     H64616   2.774   7.942   9.050 -0.4368 -0.9307  1.2620
  490MOL0     H64617   2.502   7.593   9.152  0.4394 -0.8262 -1.1740
  490MOL0     H64618   2.518   7.595   8.979 -2.1606  0.4914 -0.6292
  490MOL0     H64619   2.331   7.756   8.961 -0.3045  0.3841  0.8979
  490MOL0     H64620   2.328   7.765   9.140 -0.2885  3.3610 -1.6520
  490MOL0     H64621   2.273   7.522   9.139 -1.4397 -0.9176 -0.5580
  490MOL0     H64622   2.256   7.522   8.963 -2.9254  1.3113 -2.4688
  490MOL0     H64623   2.035   7.541   9.072 -2.3851  1.0781 -2.3336
  490MOL0     H64624   2.087   7.694   9.150 -3.1298  0.7175 -0.8561
  490MOL0     H64625   1.940   7.692   8.940  0.2289 -2.1173 -0.1971
  490MOL0     H64626   2.080   7.629   8.854 -1.6033  2.1054 -3.0201
  490MOL0     H64627   2.187   7.829   8.832 -0.7758  1.7801 -1.3116
  490MOL0     H64628   2.127   7.888   8.984 -4.2474  0.9006  0.4708
  490MOL0     H64629   1.951   7.843   8.743 -1.0985  0.9615 -1.7213
  490MOL0     H64630   1.884   7.893   8.889  1.7504  0.8711  1.2712
  490MOL0     H64631   1.997   8.116   8.900  0.1215  2.3742 -1.0059
  490MOL0     H64632   1.911   8.087   8.750  1.7176  2.9545 -0.8046
  490MOL0     H64633   2.094   7.964   8.557 -0.3136 -0.8979  1.4670
  490MOL0     H64634   2.488   8.001   8.556  0.4062 -2.5489 -1.0011
  490MOL0     H64635   2.393   8.049   8.418 -1.1700 -1.5544 -1.1159
  490MOL0     H64636   2.389   7.811   8.381 -0.8773 -3.6864  0.3718
  490MOL0     H64637   2.266   7.813   8.486 -0.2692 -1.0407  1.4545
  490MOL0     H64638   2.576   7.807   8.576 -0.1402 -0.1292  3.9330
  490MOL0     H64639   2.439   7.787   8.680 -1.7907 -0.7132 -0.7203
  490MOL0     H64640   2.473   7.606   8.437 -0.2426 -1.2442 -0.0497
  490MOL0     H64641   2.378   7.577   8.586  1.2611 -3.6479 -0.7256
  490MOL0     H64642   2.682   7.595   8.337  4.5569  2.8529 -3.3353
  490MOL0     H64643   2.908   7.588   8.286  2.5621  0.6277  1.8433
  490MOL0     H64644   3.382   7.651   8.371 -0.2990 -0.0671  0.4137
  490MOL0     H64645   3.634   7.605   8.370  1.5737 -1.4592  0.6567
  490MOL0     H64646   3.822   7.526   8.330  1.2834 -0.8965 -1.7768
  490MOL0     H64647   3.801   7.354   8.333 -2.9566 -0.0065  0.7380
  490MOL0     H64648   3.995   7.339   8.492 -1.9614 -2.3541 -2.6158
  490MOL0     H64649   4.014   7.516   8.470  1.6673  0.8675 -2.1312
  490MOL0     H64650   4.036   7.482   8.216 -1.4641  1.3142  1.8264
  490MOL0     H64651   4.064   7.315   8.243  0.9348  2.2516 -2.3836
  490MOL0     H64652   4.222   7.526   8.387  0.1173 -0.5242 -0.8801
  490MOL0     H64653   4.248   7.355   8.401  1.4675  0.3320  0.5409
  490MOL0     H64654   4.295   7.548   8.192 -1.9117 -1.1408 -3.4910
  490MOL0     H64655   4.290   7.378   8.131 -0.3977  0.2299 -0.5978
  490MOL0     H64656   4.489   7.480   8.330  1.2257 -3.2106  0.8691
  490MOL0     H64657   4.521   7.441   8.157 -2.0321  0.4890 -1.4831
  490MOL0     H64658   4.474   7.285   8.410 -1.6994 -0.4348 -0.8871
  490MOL0     H64659   4.389   7.219   8.273 -0.5710  1.2536 -0.0746
  490MOL0     H64660   4.566   7.159   8.144  0.5579 -2.7875  0.7820
  490MOL0     H64661   4.615   7.112   8.301  2.7289  0.9734  0.2823
  490MOL0     H64662   3.607   7.288   8.642  0.8483 -1.5984 -2.7659
  490MOL0     H64663   3.373   7.310   8.647 -0.4312  0.0178 -1.4965
  490MOL0     H64664   3.005   7.504   8.702  2.3984  0.8601 -1.7069
  490MOL0     H64665   2.768   7.501   8.754 -5.2343  0.4446 -1.3229
  490MOL0     H64666   2.713   7.517   9.071  0.1456 -0.8811  0.4967
  490MOL0     H64667   2.964   7.485   9.058 -2.6570 -1.2712  0.8240
  490MOL0     H64668   3.321   7.547   8.943 -2.3217  2.5679 -0.1633
  490MOL0     H64669   3.558   7.483   8.873 -0.8921 -0.2352  1.2110
  490MOL0     H64670   3.873   7.571   8.752  0.8506 -0.9874  1.0074
  490MOL0     H64671   3.711   7.509   8.763 -0.9240  1.5480 -0.7466
  490MOL0     H64672   3.958   7.458   8.948 -0.3833  1.2005  0.2085
  490MOL0     H64673   3.819   7.348   8.940 -0.4848 -0.9466 -0.3383
  490MOL0     H64674   4.017   7.414   8.712 -1.2378  0.8348 -0.0663
  490MOL0     H64675   3.897   7.281   8.722 -1.4333 -0.2920  2.2117
  490MOL0     H64676   4.054   7.164   8.889  0.1334 -2.4475 -4.1808
  490MOL0     H64677   4.122   7.207   8.738  0.2349 -0.6706  0.1495
  490MOL0     H64678   4.344   7.451   9.005 -1.5944 -0.4636  2.8278
  490MOL0     H64679   3.695   7.821   9.077 -0.4892 -0.2341 -0.8467
  490MOL0     H64680   3.479   7.880   9.154  2.7473 -0.5074  0.8283
  491MOL0     O64681   9.544   1.254   8.647  0.3063  0.0754  0.3308
  491MOL0     C64682   9.497   1.333   8.571 -0.5034 -0.1831  0.7769
  491MOL0     O64683   9.367   1.370   8.563  0.0749 -1.2614 -1.1672
  491MOL0     C64684   9.276   1.287   8.620 -0.6043 -0.3471  0.6161
  491MOL0     C64685   9.268   1.158   8.586  0.4193  0.9949  0.1613
  491MOL0     C64686   9.164   1.081   8.628  0.0352  0.8017  0.3696
  491MOL0     C64687   9.053   1.132   8.692  0.1522 -0.9132  0.2712
  491MOL0     O64688   8.930   1.073   8.713 -0.4844  0.5531  0.6500
  491MOL0     C64689   8.849   1.042   8.600  0.5645 -1.0207  0.0250
  491MOL0     C64690   8.719   1.110   8.598  0.0973 -0.0924  0.1990
  491MOL0     C64691   8.625   1.049   8.481  0.4034 -0.4111 -0.8473
  491MOL0     C64692   8.473   1.105   8.497  0.5938  1.0493  0.2031
  491MOL0     C64693   8.368   1.031   8.413 -1.1367 -0.1249 -0.6707
  491MOL0     C64694   8.232   1.103   8.427  0.1692  0.9185  0.1554
  491MOL0     C64695   8.127   1.021   8.348  0.4286 -0.4717  0.0005
  491MOL0     C64696   8.035   1.115   8.269 -0.3214  0.3625  0.1261
  491MOL0     N64697   7.955   1.195   8.363  0.7654  0.3716  0.0698
  491MOL0     C64698   7.883   1.147   8.469  0.2118  0.0142 -0.2914
  491MOL0     C64699   7.821   1.248   8.529  0.9488 -0.2095  0.9224
  491MOL0     C64700   7.721   1.259   8.639 -0.1888  0.0457  0.2389
  491MOL0     C64701   7.611   1.153   8.626 -0.3847 -0.6526  0.0070
  491MOL0     C64702   7.536   1.128   8.763 -0.7925 -0.1773  0.4751
  491MOL0     C64703   7.409   1.039   8.750 -0.4684  0.0932 -0.1358
  491MOL0     O64704   7.311   1.119   8.678  0.4487  0.9850 -0.4127
  491MOL0     C64705   7.189   1.065   8.646 -1.1199 -0.9364  0.3954
  491MOL0     C64706   7.160   0.932   8.667 -0.1396 -0.4071 -0.4449
  491MOL0     C64707   7.023   0.897   8.654  0.5873  0.2591  0.2458
  491MOL0     C64708   6.920   0.979   8.607 -0.3106  0.0421  0.2244
  491MOL0     C64709   6.790   0.926   8.562  0.2639  0.0032 -0.1993
  491MOL0     O64710   6.781   0.793   8.575 -0.0289 -0.1580  0.0509
  491MOL0     C64711   6.658   0.725   8.596  1.0400 -0.7205  0.1005
  491MOL0     C64712   6.538   0.789   8.626 -0.0287 -0.2303 -0.9683
  491MOL0     C64713   6.418   0.727   8.622  0.4372 -0.3069  0.0072
  491MOL0     C64714   6.409   0.589   8.607 -0.4822 -1.2835  0.2343
  491MOL0     O64715   6.291   0.532   8.586 -0.1782  0.0960 -0.7879
  491MOL0     C64716   6.220   0.519   8.706  0.8808  0.8941  0.4820
  491MOL0     C64717   6.074   0.477   8.692  1.0174 -0.3389 -0.3577
  491MOL0     C64718   5.991   0.588   8.627  0.4209 -1.0448 -0.0245
  491MOL0     C64719   5.854   0.530   8.591  0.9600 -0.3070  0.5858
  491MOL0     C64720   5.749   0.643   8.556 -0.4332  0.4235 -0.2422
  491MOL0     C64721   5.685   0.696   8.679 -0.3082 -0.8172 -0.6122
  491MOL0     C64722   5.554   0.776   8.643 -0.4158  0.6648  0.2202
  491MOL0     C64723   5.428   0.709   8.590  0.2479 -0.3234  0.2045
  491MOL0    Cl64724   5.380   0.581   8.705 -0.0152 -0.2501  0.0145
  491MOL0     C64725   6.524   0.509   8.586 -0.0783 -0.3856 -0.5289
  491MOL0     C64726   6.651   0.584   8.575 -0.7428 -0.9885 -0.8739
  491MOL0     O64727   6.704   1.002   8.517 -0.4254 -0.5727  0.4970
  491MOL0     C64728   6.960   1.109   8.572 -0.8588 -0.5039  0.2573
  491MOL0     C64729   7.098   1.154   8.595  0.4576 -0.1997 -0.0804
  491MOL0     N64730   7.860   1.356   8.448 -0.2431  0.1301 -0.0258
  491MOL0     N64731   7.946   1.330   8.360 -0.0112 -0.4747 -0.9136
  491MOL0     C64732   9.056   1.275   8.726 -0.4493  1.5741 -1.0821
  491MOL0     C64733   9.175   1.347   8.697  0.6551  0.0285  0.2631
  491MOL0     C64734   9.594   1.392   8.474  0.0253 -0.5742  0.5157
  491MOL0     C64735   9.552   1.497   8.396 -0.5410 -0.3940  0.4358
  491MOL0     C64736   9.648   1.568   8.322 -0.5785 -0.4544  0.1849
  491MOL0     C64737   9.789   1.539   8.335  0.5193  1.0907 -0.4100
  491MOL0     O64738   9.888   1.602   8.259 -0.1890 -0.3074  0.6912
  491MOL0     C64739   9.908   1.743   8.300  0.4081 -0.4222 -0.6928
  491MOL0     C64740  10.003   1.816   8.201 -1.3714 -0.0898 -0.3790
  491MOL0     C64741   9.944   1.850   8.066  0.8189  0.6372  1.6223
  491MOL0     C64742  10.056   1.909   7.969  0.6438  0.6627  0.1413
  491MOL0     C64743  10.138   1.812   7.896 -0.1395  0.2962 -0.9004
  491MOL0     C64744  10.197   1.722   7.842  0.0347  0.2198  0.0962
  491MOL0     C64745   9.823   1.429   8.410 -0.2228 -0.1572 -0.2121
  491MOL0     C64746   9.730   1.344   8.471  0.5242 -0.6351  0.2135
  491MOL0     H64747   9.334   1.103   8.520 -0.8908 -2.3255  1.4439
  491MOL0     H64748   9.167   0.978   8.594  0.0582  0.8255  0.2985
  491MOL0     H64749   8.824   0.936   8.602 -5.5035  0.0398  2.8774
  491MOL0     H64750   8.896   1.067   8.505  0.7690  0.3830  0.4637
  491MOL0     H64751   8.738   1.217   8.587  4.4626 -0.8474 -1.6046
  491MOL0     H64752   8.670   1.087   8.693  0.6155 -0.2369  0.4331
  491MOL0     H64753   8.633   0.940   8.477  2.4658 -0.4334  1.5923
  491MOL0     H64754   8.671   1.075   8.385 -0.0894 -0.1557 -1.0202
  491MOL0     H64755   8.433   1.095   8.598 -1.4016 -1.8167 -0.7483
  491MOL0     H64756   8.463   1.211   8.473  0.2190  0.7811 -0.8854
  491MOL0     H64757   8.364   0.923   8.435  1.0432 -0.2387 -0.6062
  491MOL0     H64758   8.401   1.045   8.310 -2.9891 -0.3622 -1.3318
  491MOL0     H64759   8.230   1.203   8.384 -1.0403  0.5956 -0.6032
  491MOL0     H64760   8.199   1.105   8.531 -1.8689 -2.0253 -0.3133
  491MOL0     H64761   8.170   0.953   8.274 -0.6993 -0.0787 -1.0542
  491MOL0     H64762   8.075   0.956   8.420  0.4985 -2.6418 -1.7726
  491MOL0     H64763   7.972   1.052   8.205  1.0651 -0.0543 -0.8913
  491MOL0     H64764   8.094   1.174   8.198 -1.2291 -0.2548 -1.1886
  491MOL0     H64765   7.862   1.041   8.479 -2.5955  0.2402 -2.6154
  491MOL0     H64766   7.678   1.359   8.651 -1.4363 -0.2241 -1.4999
  491MOL0     H64767   7.774   1.234   8.731 -0.5312  4.2048  1.7839
  491MOL0     H64768   7.662   1.068   8.580  1.3042  1.0617 -1.4353
  491MOL0     H64769   7.541   1.193   8.552  0.8555 -0.4977 -1.1280
  491MOL0     H64770   7.602   1.068   8.826 -2.7456 -0.6083  2.2029
  491MOL0     H64771   7.514   1.222   8.815 -0.6308 -0.7488  1.5994
  491MOL0     H64772   7.380   1.008   8.851 -0.0635  0.0426 -0.0327
  491MOL0     H64773   7.419   0.951   8.686 -1.0461 -0.0137 -0.0858
  491MOL0     H64774   7.229   0.855   8.699  0.9181  0.4844 -0.5435
  491MOL0     H64775   7.001   0.792   8.665 -1.5228  0.6684  0.4465
  491MOL0     H64776   6.544   0.897   8.639  3.6257 -0.3266 -0.9379
  491MOL0     H64777   6.323   0.778   8.632  0.3134  0.5046 -3.8060
  491MOL0     H64778   6.213   0.616   8.756  0.8017  2.0267 -1.6218
  491MOL0     H64779   6.274   0.453   8.775 -0.4593  1.9824  2.6829
  491MOL0     H64780   6.023   0.459   8.787  0.3483  1.9693 -0.2286
  491MOL0     H64781   6.064   0.386   8.633 -1.9409 -0.1711 -0.2806
  491MOL0     H64782   6.044   0.636   8.545  0.5088  0.6700  0.9884
  491MOL0     H64783   5.968   0.663   8.704 -0.6990  0.0241 -1.3540
  491MOL0     H64784   5.863   0.462   8.506 -1.2069 -0.4193  0.3885
  491MOL0     H64785   5.815   0.459   8.664 -2.1945 -1.4816 -1.9766
  491MOL0     H64786   5.677   0.595   8.488 -0.2984  1.7494 -1.3614
  491MOL0     H64787   5.796   0.718   8.493  1.4676 -1.3392 -1.0580
  491MOL0     H64788   5.754   0.759   8.737 -0.0615 -0.7261 -0.9993
  491MOL0     H64789   5.664   0.615   8.750  0.9319 -0.9340 -0.3540
  491MOL0     H64790   5.506   0.820   8.731 -0.7626 -1.2743  1.0580
  491MOL0     H64791   5.587   0.856   8.576  1.6493  0.4629  0.9240
  491MOL0     H64792   5.444   0.677   8.486 -0.5408  0.7107 -0.2493
  491MOL0     H64793   5.346   0.780   8.577  0.6859 -0.1377 -1.8783
  491MOL0     H64794   6.517   0.401   8.590  0.5418 -0.3798  2.5266
  491MOL0     H64795   6.752   0.545   8.565  0.2739  0.3606  2.6445
  491MOL0     H64796   6.888   1.160   8.509  0.5495 -1.0818 -1.9478
  491MOL0     H64797   7.108   1.262   8.589 -1.6431  0.5820  5.1750
  491MOL0     H64798   8.977   1.317   8.788 -2.2821 -2.4958 -0.3259
  491MOL0     H64799   9.189   1.451   8.724  4.0247 -0.4604  0.7541
  491MOL0     H64800   9.453   1.540   8.400  0.1107  1.3815 -1.1706
  491MOL0     H64801   9.618   1.658   8.268 -1.4411 -0.1627  1.1097
  491MOL0     H64802   9.945   1.746   8.403 -0.8587 -1.4709 -0.1757
  491MOL0     H64803   9.812   1.794   8.313 -0.2636 -1.8915  0.4708
  491MOL0     H64804  10.038   1.909   8.247 -2.1046  1.2039 -2.3140
  491MOL0     H64805  10.085   1.747   8.185 -2.2420 -0.6749 -2.7983
  491MOL0     H64806   9.876   1.935   8.073  0.5778  0.8959 -2.0216
  491MOL0     H64807   9.907   1.757   8.021 -1.8498  1.9585  0.8852
  491MOL0     H64808  10.015   1.983   7.899 -0.2998 -0.4939 -0.5695
  491MOL0     H64809  10.124   1.968   8.032  1.1154 -0.3201  0.5727
  491MOL0     H64810  10.246   1.650   7.779  1.3746  2.5155 -1.6577
  491MOL0     H64811   9.929   1.407   8.417  0.1780  0.7146 -2.6251
  491MOL0     H64812   9.758   1.253   8.523 -0.3369 -1.2749 -0.4199
  492MOL0     O64813   7.806   3.157   3.154  0.2411 -0.1562 -0.0129
  492MOL0     C64814   7.830   3.051   3.211 -0.5813  0.4855  1.0272
  492MOL0     O64815   7.913   3.039   3.317  0.6505  0.0583 -0.5442
  492MOL0     C64816   7.984   3.145   3.361  0.1548  0.6877  0.4459
  492MOL0     C64817   8.110   3.106   3.406 -0.5103  0.9727  0.7760
  492MOL0     C64818   8.184   3.200   3.471  0.3421 -0.2691 -0.0233
  492MOL0     C64819   8.144   3.332   3.486 -0.1747 -0.6586 -0.0783
  492MOL0     O64820   8.229   3.438   3.517  0.1946  0.8508  0.5193
  492MOL0     C64821   8.367   3.427   3.507 -0.3786  0.4626  1.5050
  492MOL0     C64822   8.431   3.393   3.642 -0.2095 -0.3334 -0.3611
  492MOL0     C64823   8.583   3.418   3.634  0.0782 -0.0054  0.5225
  492MOL0     C64824   8.655   3.364   3.763 -0.9004 -1.1904  1.1026
  492MOL0     C64825   8.808   3.386   3.737 -0.4503 -0.5543  0.9016
  492MOL0     C64826   8.878   3.395   3.865  0.4607  1.0553 -0.1472
  492MOL0     C64827   9.028   3.438   3.864  0.1566 -0.0803  0.1837
  492MOL0     C64828   9.048   3.559   3.958  0.0350 -0.0106 -0.8319
  492MOL0     N64829   8.981   3.685   3.913 -0.6368 -0.3386  0.3022
  492MOL0     C64830   9.008   3.743   3.792  0.4174  0.5794  0.2150
  492MOL0     C64831   8.936   3.857   3.795 -0.6254  0.4500  0.2485
  492MOL0     C64832   8.943   3.961   3.686 -0.9116 -0.7015 -0.1782
  492MOL0     C64833   8.815   3.991   3.615  0.5906  0.1631 -0.3743
  492MOL0     C64834   8.757   3.870   3.540  0.1900 -0.6517  0.5589
  492MOL0     C64835   8.612   3.916   3.497  0.2266 -0.3672  1.2472
  492MOL0     O64836   8.542   3.825   3.414 -0.4702 -0.0254  0.5992
  492MOL0     C64837   8.409   3.840   3.387 -0.5338  0.3572  0.7498
  492MOL0     C64838   8.349   3.728   3.314 -0.4584 -0.1368  0.0837
  492MOL0     C64839   8.214   3.732   3.287  0.0713 -0.5279 -0.5568
  492MOL0     C64840   8.137   3.847   3.305 -0.6633 -0.7545 -0.3572
  492MOL0     C64841   7.995   3.854   3.268  0.4479 -0.0597  0.0771
  492MOL0     O64842   7.929   3.978   3.281 -0.2057 -0.0634  0.5023
  492MOL0     C64843   7.788   3.985   3.278  0.2136  0.7336  0.7112
  492MOL0     C64844   7.701   3.904   3.206  0.7639  0.4009  0.8284
  492MOL0     C64845   7.563   3.913   3.222  0.4274  0.0677 -0.1567
  492MOL0     C64846   7.503   3.996   3.321 -0.2566 -0.6937  0.1304
  492MOL0     O64847   7.369   3.989   3.359  0.1047 -0.3531  0.1061
  492MOL0     C64848   7.270   3.912   3.288  0.1779 -0.7500  0.1423
  492MOL0     C64849   7.178   4.009   3.209  0.6249 -0.3193 -0.4793
  492MOL0     C64850   7.058   3.946   3.139 -0.1928 -0.3547 -0.4237
  492MOL0     C64851   6.958   3.868   3.233 -0.3619 -0.3335 -0.2253
  492MOL0     C64852   6.864   3.783   3.137 -1.2348 -0.4778 -0.5902
  492MOL0     C64853   6.939   3.664   3.078  0.0171  0.9626  0.5768
  492MOL0     C64854   6.846   3.552   3.006 -0.6866  0.2823  0.8445
  492MOL0     C64855   6.922   3.495   2.894 -0.4462  0.9326  0.8080
  492MOL0    Cl64856   7.049   3.386   2.946  0.0402 -0.3265  0.4856
  492MOL0     C64857   7.589   4.080   3.394 -0.6634 -0.6387  0.1389
  492MOL0     C64858   7.725   4.078   3.370 -0.5454  0.3115  0.9753
  492MOL0     O64859   7.936   3.756   3.225  0.2121  0.5473 -0.1796
  492MOL0     C64860   8.195   3.959   3.369 -0.1316  0.1582 -0.0049
  492MOL0     C64861   8.330   3.951   3.413 -0.5323  0.0361  0.7149
  492MOL0     N64862   8.861   3.858   3.910 -0.9308  0.3786 -0.4573
  492MOL0     N64863   8.896   3.756   3.982  0.8470 -0.2420 -0.3072
  492MOL0     C64864   8.012   3.362   3.447 -0.0271  0.0233 -0.3740
  492MOL0     C64865   7.928   3.265   3.387 -0.4748  0.2373  0.4566
  492MOL0     C64866   7.761   2.929   3.142  0.4406 -0.3426  0.5979
  492MOL0     C64867   7.646   2.949   3.061 -0.0096 -0.2937  0.4244
  492MOL0     C64868   7.579   2.836   3.010  0.5267  0.2293 -0.4142
  492MOL0     C64869   7.623   2.707   3.034  0.4632 -0.4397 -0.1636
  492MOL0     O64870   7.576   2.588   2.989  0.0039 -0.0516  0.9026
  492MOL0     C64871   7.440   2.573   2.955  0.6876  0.8212  0.3101
  492MOL0     C64872   7.417   2.509   2.814 -0.4487  0.3426 -0.1068
  492MOL0     C64873   7.268   2.465   2.819 -0.6835 -0.2262  0.5356
  492MOL0     C64874   7.236   2.394   2.684  0.1004 -0.1820  0.5628
  492MOL0     C64875   7.291   2.258   2.683  0.1948  0.7896  0.7004
  492MOL0     C64876   7.351   2.156   2.701 -0.2995  0.4182 -0.2255
  492MOL0     C64877   7.733   2.687   3.115  0.2470 -0.2932 -0.7097
  492MOL0     C64878   7.805   2.796   3.167 -0.1365 -0.2607  0.0635
  492MOL0     H64879   8.146   3.006   3.386  0.6501  1.8251 -1.8900
  492MOL0     H64880   8.283   3.183   3.512 -0.6768 -2.7867  1.6262
  492MOL0     H64881   8.407   3.523   3.473  1.5082  0.0070  2.3260
  492MOL0     H64882   8.402   3.357   3.430  0.3530  0.6038  1.6981
  492MOL0     H64883   8.415   3.287   3.661  1.6555 -0.3300  1.6133
  492MOL0     H64884   8.371   3.444   3.718  0.5109 -2.4282  1.7153
  492MOL0     H64885   8.598   3.526   3.623  0.6641 -0.2223 -0.9633
  492MOL0     H64886   8.626   3.371   3.545  1.4031  0.6549  0.7784
  492MOL0     H64887   8.610   3.424   3.842 -2.6661 -1.7388  0.5509
  492MOL0     H64888   8.637   3.257   3.774 -0.4970 -1.3832 -0.0162
  492MOL0     H64889   8.814   3.481   3.683  0.5055 -1.2485 -0.2490
  492MOL0     H64890   8.845   3.309   3.669 -2.3311 -0.3322 -0.4508
  492MOL0     H64891   8.877   3.297   3.914 -2.5820  0.4811 -1.1632
  492MOL0     H64892   8.819   3.461   3.929 -0.9639 -0.6389  0.3645
  492MOL0     H64893   9.090   3.351   3.886  0.2337 -0.2222 -0.5630
  492MOL0     H64894   9.053   3.478   3.766 -2.0982 -1.7234 -1.1768
  492MOL0     H64895   9.151   3.597   3.954 -0.1911  0.7508  0.1499
  492MOL0     H64896   9.011   3.541   4.059  0.0648 -0.0418 -0.8265
  492MOL0     H64897   9.074   3.706   3.715 -0.2019 -1.1693  0.4845
  492MOL0     H64898   9.027   3.930   3.622 -2.6715 -1.4575 -2.2354
  492MOL0     H64899   8.976   4.056   3.728  0.8508 -1.0315 -0.6981
  492MOL0     H64900   8.845   4.070   3.545  0.1752  2.9707  2.3570
  492MOL0     H64901   8.745   4.045   3.679  1.1724  0.7058 -0.1807
  492MOL0     H64902   8.806   3.840   3.447  0.6874 -3.1557  1.5543
  492MOL0     H64903   8.757   3.778   3.599  1.3906 -1.6473 -0.8881
  492MOL0     H64904   8.616   4.005   3.433  0.5791  0.2052  2.0509
  492MOL0     H64905   8.553   3.941   3.586 -1.1195 -2.0142  0.8692
  492MOL0     H64906   8.408   3.639   3.295  1.7835  1.7026 -2.4199
  492MOL0     H64907   8.157   3.645   3.256 -2.4188  1.2032 -1.0664
  492MOL0     H64908   7.748   3.835   3.136  4.8292  0.8463  2.7828
  492MOL0     H64909   7.495   3.860   3.157 -0.1937 -3.1561  2.8406
  492MOL0     H64910   7.210   3.859   3.363 -0.5982 -0.6299 -0.3890
  492MOL0     H64911   7.305   3.839   3.214 -1.0963  2.5217 -4.0340
  492MOL0     H64912   7.236   4.070   3.139  0.6646  1.3835  0.9565
  492MOL0     H64913   7.139   4.069   3.291  1.8929 -2.2012  1.6083
  492MOL0     H64914   7.103   3.879   3.065 -0.9576 -1.6842  0.2853
  492MOL0     H64915   7.005   4.024   3.083  0.7962  1.9363  1.6260
  492MOL0     H64916   7.012   3.812   3.310  1.0524  1.0277 -0.1610
  492MOL0     H64917   6.896   3.943   3.283 -0.7981  0.6292 -2.1138
  492MOL0     H64918   6.807   3.835   3.060  0.1111 -0.7195 -1.7968
  492MOL0     H64919   6.779   3.740   3.191 -0.6000  0.2891  1.0876
  492MOL0     H64920   6.999   3.621   3.159  2.0664  1.0083 -0.8275
  492MOL0     H64921   7.011   3.702   3.004  3.2331  0.5198  3.2202
  492MOL0     H64922   6.821   3.473   3.078  2.4943 -1.6046  0.0729
  492MOL0     H64923   6.765   3.607   2.958 -0.8130 -1.7874 -1.5211
  492MOL0     H64924   6.962   3.577   2.832  0.7046  0.0516  0.3339
  492MOL0     H64925   6.861   3.436   2.826  0.1501  1.5118 -0.2661
  492MOL0     H64926   7.541   4.142   3.469 -1.3766 -3.6947  2.4223
  492MOL0     H64927   7.795   4.137   3.428 -0.2683  0.0383  0.9188
  492MOL0     H64928   8.140   4.044   3.406 -1.4428 -1.4783  2.0459
  492MOL0     H64929   8.369   4.038   3.465 -2.5401  2.7434 -1.9690
  492MOL0     H64930   7.978   3.465   3.444  0.4864  0.2111  0.0707
  492MOL0     H64931   7.824   3.287   3.364 -1.3043 -0.9796  2.7595
  492MOL0     H64932   7.607   3.049   3.047 -0.5360 -0.2579  1.9359
  492MOL0     H64933   7.503   2.858   2.936  0.0987  0.9129  0.2116
  492MOL0     H64934   7.388   2.669   2.945 -1.4291 -0.3470 -0.8051
  492MOL0     H64935   7.395   2.512   3.033 -0.3178  0.1820 -0.7237
  492MOL0     H64936   7.444   2.578   2.734 -3.1919  1.4412 -0.1745
  492MOL0     H64937   7.484   2.422   2.806 -0.4596  0.1489  1.6386
  492MOL0     H64938   7.217   2.562   2.811  4.0199  2.4533 -5.0492
  492MOL0     H64939   7.239   2.405   2.905 -3.3354  1.7165  1.1243
  492MOL0     H64940   7.127   2.389   2.676 -0.0588  3.3101 -2.0822
  492MOL0     H64941   7.265   2.457   2.599 -1.9440  0.0168 -0.0417
  492MOL0     H64942   7.390   2.057   2.712 -0.5936  0.3984  0.7921
  492MOL0     H64943   7.765   2.584   3.130  1.4446 -0.4864 -3.7961
  492MOL0     H64944   7.895   2.782   3.226 -1.0223 -0.9592  1.2993
  493MOL0     O64945   2.755   4.537   8.660  0.1268  0.2325 -0.0380
  493MOL0     C64946   2.818   4.441   8.694  0.1938 -0.0737 -0.2512
  493MOL0     O64947   2.816   4.313   8.635  0.7930 -0.1724  0.2964
  493MOL0     C64948   2.724   4.284   8.537 -0.0263 -0.0005 -0.8803
  493MOL0     C64949   2.764   4.210   8.434 -0.2228  0.8490 -0.1095
  493MOL0     C64950   2.673   4.163   8.340 -0.2077  1.2437 -0.3121
  493MOL0     C64951   2.540   4.208   8.347 -0.0966 -1.2585 -0.2366
  493MOL0     O64952   2.446   4.160   8.263  0.6907 -0.3799  1.0856
  493MOL0     C64953   2.481   4.174   8.130 -0.2007  0.1590 -0.1206
  493MOL0     C64954   2.368   4.135   8.040  0.0300  0.5418 -0.0140
  493MOL0     C64955   2.288   4.012   8.089 -0.5863  0.0592  0.8111
  493MOL0     C64956   2.167   3.988   8.002 -0.4706 -0.3100  0.3625
  493MOL0     C64957   2.082   3.864   8.044  0.2229  0.1238 -0.5740
  493MOL0     C64958   1.932   3.865   8.002 -0.2555  0.9445 -0.5234
  493MOL0     C64959   1.849   3.986   8.052  0.0364  0.9384 -0.3716
  493MOL0     C64960   1.700   3.975   8.034  0.0317  0.5640 -0.0214
  493MOL0     N64961   1.673   4.000   7.898  0.3373  0.1919  0.2759
  493MOL0     C64962   1.656   3.897   7.809  0.1719 -0.5290 -0.6973
  493MOL0     C64963   1.652   3.960   7.690 -0.6455  0.1737  0.8043
  493MOL0     C64964   1.611   3.900   7.551  0.0828  0.0138 -0.4259
  493MOL0     C64965   1.471   3.829   7.568 -0.4899  0.0264  0.7173
  493MOL0     C64966   1.364   3.942   7.535 -0.5686  0.1159  0.5581
  493MOL0     C64967   1.221   3.895   7.541  0.4395 -0.8697  0.0229
  493MOL0     O64968   1.144   3.990   7.464  0.4348 -0.4514  0.4821
  493MOL0     C64969   1.018   3.953   7.442 -0.5167 -0.1028 -0.1423
  493MOL0     C64970   0.960   3.848   7.511 -0.0118 -0.4822 -0.5642
  493MOL0     C64971   0.828   3.815   7.491  0.1815  0.4265  0.5140
  493MOL0     C64972   0.755   3.862   7.387  0.7923  0.5800 -0.8870
  493MOL0     C64973   0.617   3.825   7.366  0.6967  1.0203  0.1908
  493MOL0     O64974   0.541   3.905   7.288 -0.2872  0.3267  0.0769
  493MOL0     C64975   0.430   3.861   7.227 -0.5169  0.1246  0.0385
  493MOL0     C64976   0.418   3.742   7.151 -0.0623  1.1665 -0.1633
  493MOL0     C64977   0.294   3.712   7.090  0.8419 -0.7358  0.1737
  493MOL0     C64978   0.176   3.795   7.124 -0.1190 -0.2723  1.0822
  493MOL0     O64979   0.055   3.780   7.061 -0.4520 -0.1447  0.2468
  493MOL0     C64980   0.033   3.670   6.980  0.4641 -0.5426  0.0063
  493MOL0     C64981  -0.115   3.663   6.941  0.2187  0.2376  0.0704
  493MOL0     C64982  -0.146   3.517   6.884 -0.4629 -0.2777  0.0599
  493MOL0     C64983  -0.280   3.515   6.818 -0.6737  0.0982 -0.0421
  493MOL0     C64984  -0.325   3.375   6.782 -0.0496 -0.6737 -0.1908
  493MOL0     C64985  -0.443   3.385   6.677 -0.6341  0.0832 -0.8385
  493MOL0     C64986  -0.489   3.249   6.620 -0.0505  0.9101  0.4476
  493MOL0     C64987  -0.527   3.144   6.726 -0.3600  0.0654 -0.0234
  493MOL0    Cl64988  -0.671   3.198   6.817 -0.2400  0.2606 -0.0536
  493MOL0     C64989   0.189   3.913   7.205  0.4709  0.3404  1.0735
  493MOL0     C64990   0.321   3.946   7.257 -0.5632  0.2023 -0.8936
  493MOL0     O64991   0.585   3.708   7.402 -0.3597 -0.6676 -0.2853
  493MOL0     C64992   0.808   3.976   7.321 -0.3946  0.1925  1.0491
  493MOL0     C64993   0.935   4.020   7.351  0.1106 -0.1581 -0.2728
  493MOL0     N64994   1.686   4.089   7.704 -0.6611  0.4230 -1.3802
  493MOL0     N64995   1.705   4.113   7.830  0.1759 -0.9936  0.0608
  493MOL0     C64996   2.495   4.292   8.447  0.5679 -0.1669 -1.1877
  493MOL0     C64997   2.585   4.323   8.542 -0.3549 -0.2975  0.6392
  493MOL0     C64998   2.925   4.477   8.789 -0.1167  0.0099  0.1725
  493MOL0     C64999   3.026   4.386   8.825 -0.2092 -0.0072 -0.2974
  493MOL0     C65000   3.120   4.415   8.929  0.4100 -0.5248  0.9931
  493MOL0     C65001   3.128   4.543   8.985 -0.3338 -0.4193 -0.7364
  493MOL0     O65002   3.227   4.585   9.067  0.4963  0.3261  0.2060
  493MOL0     C65003   3.335   4.498   9.091  0.1073  0.0182  0.4206
  493MOL0     C65004   3.447   4.574   9.160  0.5092  0.0441 -0.0863
  493MOL0     C65005   3.423   4.598   9.304 -0.2558  0.0182  0.6892
  493MOL0     C65006   3.539   4.671   9.372 -0.0314  0.6065 -0.2254
  493MOL0     C65007   3.672   4.602   9.386  0.0035  0.4069  0.2725
  493MOL0     C65008   3.787   4.556   9.388  0.2852  0.1890 -0.2817
  493MOL0     C65009   3.032   4.640   8.948 -0.6804  0.3806 -0.0232
  493MOL0     C65010   2.933   4.606   8.851 -0.1231  0.4593 -0.6904
  493MOL0     H65011   2.870   4.185   8.428 -0.3527 -0.7950  2.6077
  493MOL0     H65012   2.713   4.081   8.281 -1.4143 -1.0460  1.8750
  493MOL0     H65013   2.563   4.107   8.103 -0.0267  0.3507 -0.0712
  493MOL0     H65014   2.508   4.277   8.105 -0.7890  0.1937 -0.6275
  493MOL0     H65015   2.404   4.136   7.937  0.7059 -0.2541  0.2013
  493MOL0     H65016   2.291   4.213   8.047 -3.5410 -2.6697  0.0981
  493MOL0     H65017   2.272   4.020   8.197 -1.2971 -0.9879  0.8015
  493MOL0     H65018   2.345   3.920   8.073 -0.9298  0.1755 -1.5000
  493MOL0     H65019   2.102   4.076   8.010  1.2701  1.1707 -0.8640
  493MOL0     H65020   2.190   3.980   7.895 -1.4436 -0.6869  0.1653
  493MOL0     H65021   2.101   3.842   8.149  1.3158  0.1151 -0.7684
  493MOL0     H65022   2.115   3.773   7.994  1.0866 -0.6847  1.3735
  493MOL0     H65023   1.884   3.780   8.052 -1.6703  1.6664 -0.6390
  493MOL0     H65024   1.928   3.838   7.896 -1.3599 -2.3674  0.2411
  493MOL0     H65025   1.864   3.999   8.159  0.6056  1.2990 -0.4866
  493MOL0     H65026   1.879   4.079   8.002 -1.3726  1.0740 -1.0256
  493MOL0     H65027   1.642   4.040   8.100 -0.6308  0.5571 -0.5779
  493MOL0     H65028   1.655   3.878   8.056 -1.3691  1.1609 -0.0976
  493MOL0     H65029   1.664   3.790   7.825 -0.7814 -0.4284  0.5664
  493MOL0     H65030   1.689   3.831   7.519  2.5867 -0.0638  4.8080
  493MOL0     H65031   1.608   3.979   7.476 -4.0192  0.6492  0.1575
  493MOL0     H65032   1.457   3.792   7.670  0.9990  1.0952  1.3543
  493MOL0     H65033   1.454   3.755   7.490 -0.8526  1.4907 -0.6600
  493MOL0     H65034   1.387   4.026   7.602  0.7684 -1.8011  2.6243
  493MOL0     H65035   1.389   3.987   7.439  1.5027  2.2169  1.9730
  493MOL0     H65036   1.193   3.897   7.647 -2.0008  2.0114 -0.5549
  493MOL0     H65037   1.219   3.793   7.501 -2.1355 -0.7449 -0.2899
  493MOL0     H65038   0.997   3.805   7.604 -5.0292  1.4575  2.7519
  493MOL0     H65039   0.785   3.743   7.559  2.5099 -0.7058  0.8763
  493MOL0     H65040   0.507   3.683   7.133  0.3687  0.0413  4.4117
  493MOL0     H65041   0.282   3.629   7.021  0.4858  0.2930 -1.0651
  493MOL0     H65042   0.068   3.580   7.033  2.9429 -0.8140 -1.8937
  493MOL0     H65043   0.093   3.687   6.890  2.1931 -0.1799  1.1762
  493MOL0     H65044  -0.143   3.737   6.866 -1.7146 -2.0924 -1.6491
  493MOL0     H65045  -0.164   3.669   7.039  4.0360  2.5274  2.0971
  493MOL0     H65046  -0.131   3.436   6.956 -0.6782  0.0467  0.4678
  493MOL0     H65047  -0.070   3.499   6.807 -0.9844 -1.6393 -0.1744
  493MOL0     H65048  -0.356   3.563   6.881  0.4792 -0.0412  1.5096
  493MOL0     H65049  -0.276   3.584   6.733  3.0898  0.6511  0.4039
  493MOL0     H65050  -0.343   3.316   6.872  1.6105 -3.1134 -1.3305
  493MOL0     H65051  -0.243   3.317   6.739 -1.5540 -0.9775 -2.8457
  493MOL0     H65052  -0.414   3.455   6.598 -0.8890 -0.6835 -1.6260
  493MOL0     H65053  -0.524   3.442   6.723 -1.3977 -1.6752  0.0925
  493MOL0     H65054  -0.584   3.266   6.570  1.4661  2.7983 -2.0007
  493MOL0     H65055  -0.410   3.213   6.554  0.8014  0.4715  1.6586
  493MOL0     H65056  -0.449   3.118   6.798 -1.1925 -0.2667  0.7739
  493MOL0     H65057  -0.556   3.051   6.674 -0.6867 -0.3109  0.8189
  493MOL0     H65058   0.096   3.965   7.223 -0.1898  0.2111 -1.5410
  493MOL0     H65059   0.340   4.035   7.316  1.4245 -1.9454  2.0201
  493MOL0     H65060   0.753   4.035   7.248 -0.7101  1.1235  2.0093
  493MOL0     H65061   0.976   4.112   7.311  0.9444  1.0543  3.0143
  493MOL0     H65062   2.389   4.314   8.458  0.3506 -0.8118 -1.9062
  493MOL0     H65063   2.551   4.384   8.625 -1.3594  0.7679 -0.5094
  493MOL0     H65064   3.027   4.287   8.781 -2.0488 -0.4139  0.4827
  493MOL0     H65065   3.197   4.340   8.943  1.6732  0.2886 -1.0380
  493MOL0     H65066   3.376   4.457   8.998  2.0954  0.6502  0.9820
  493MOL0     H65067   3.310   4.413   9.155 -0.3015 -0.5337 -0.4552
  493MOL0     H65068   3.544   4.524   9.146  0.2662 -0.0497 -1.4803
  493MOL0     H65069   3.458   4.668   9.106 -2.0571 -0.4278 -1.5716
  493MOL0     H65070   3.416   4.498   9.346 -2.8923  0.0742  0.5488
  493MOL0     H65071   3.327   4.652   9.310 -0.4262 -0.3210  1.0238
  493MOL0     H65072   3.549   4.770   9.326  4.8016  0.2016 -0.6487
  493MOL0     H65073   3.495   4.686   9.471 -0.8459  2.2119 -0.7962
  493MOL0     H65074   3.884   4.511   9.384  0.5393  0.7828 -1.0319
  493MOL0     H65075   3.035   4.744   8.980 -2.3891  0.1373  1.0530
  493MOL0     H65076   2.855   4.678   8.827 -1.1900 -0.4009  0.0231
  494MOL0     O65077   4.769   0.965   3.201 -0.0117  0.1699  0.5974
  494MOL0     C65078   4.836   1.054   3.154  0.2629 -0.6796  0.2529
  494MOL0     O65079   4.786   1.157   3.083 -0.0948 -0.7342  1.2191
  494MOL0     C65080   4.645   1.165   3.066 -0.1572 -0.1399  0.3428
  494MOL0     C65081   4.559   1.245   3.140  0.2645 -0.9277  0.0648
  494MOL0     C65082   4.422   1.261   3.117 -0.2602  0.3285  0.4775
  494MOL0     C65083   4.364   1.187   3.010 -0.0762  0.7474 -0.2018
  494MOL0     O65084   4.230   1.205   2.980  0.7493 -0.4524  0.4195
  494MOL0     C65085   4.179   1.105   2.895  0.1232  0.5405  0.1775
  494MOL0     C65086   4.021   1.103   2.911  0.5715  0.3899 -0.9250
  494MOL0     C65087   3.981   1.064   3.056  0.3227 -0.0541 -0.4911
  494MOL0     C65088   3.842   0.997   3.064  0.0483 -0.6840  0.3692
  494MOL0     C65089   3.817   0.944   3.206 -0.2576  0.0564 -1.1282
  494MOL0     C65090   3.677   0.871   3.229  0.6019 -0.0856  0.6362
  494MOL0     C65091   3.558   0.969   3.240 -0.1840  0.3791 -1.0723
  494MOL0     C65092   3.411   0.932   3.215  0.2779  0.1918 -0.0050
  494MOL0     N65093   3.328   1.050   3.214  0.3906 -0.1925  0.1924
  494MOL0     C65094   3.250   1.101   3.313 -0.0286  0.1649 -0.6180
  494MOL0     C65095   3.195   1.213   3.257  0.6175  0.1162  0.4477
  494MOL0     C65096   3.107   1.319   3.314 -0.6459 -0.7331  0.1601
  494MOL0     C65097   2.959   1.277   3.326 -0.5371  0.5336  0.6758
  494MOL0     C65098   2.880   1.406   3.312 -0.2701  0.0816 -0.6983
  494MOL0     C65099   2.734   1.385   3.348 -0.5922  0.6757  0.0172
  494MOL0     O65100   2.681   1.295   3.246 -0.0348 -0.3376 -0.2419
  494MOL0     C65101   2.543   1.291   3.227  0.4382  0.5105 -0.0156
  494MOL0     C65102   2.466   1.195   3.288  0.7063 -0.3311 -0.4834
  494MOL0     C65103   2.327   1.185   3.260 -0.2521 -0.0009 -0.6043
  494MOL0     C65104   2.270   1.273   3.162 -0.8684  0.3525  0.5752
  494MOL0     C65105   2.132   1.264   3.120 -0.4068 -0.7982  0.7791
  494MOL0     O65106   2.099   1.343   3.012 -0.3071  0.3815 -0.6361
  494MOL0     C65107   1.974   1.371   2.969  0.6666  0.7693  0.6230
  494MOL0     C65108   1.853   1.331   3.028  0.3299 -0.0739  0.3434
  494MOL0     C65109   1.725   1.348   2.973  0.8018  0.9131 -0.2123
  494MOL0     C65110   1.708   1.418   2.852 -0.1755 -0.3074  0.1589
  494MOL0     O65111   1.581   1.453   2.820 -0.5907 -0.7855  0.6922
  494MOL0     C65112   1.550   1.525   2.695  0.7662 -0.6308 -0.0565
  494MOL0     C65113   1.435   1.618   2.733 -0.8900  0.2785  0.6639
  494MOL0     C65114   1.453   1.677   2.878 -0.0796 -0.0404  0.0932
  494MOL0     C65115   1.354   1.786   2.911  0.4427  0.0912 -0.3408
  494MOL0     C65116   1.391   1.836   3.046  0.2036 -0.8217 -0.4815
  494MOL0     C65117   1.335   1.982   3.074  0.0073  0.4742 -0.2455
  494MOL0     C65118   1.392   2.024   3.206  1.5552  0.5189  0.3062
  494MOL0     C65119   1.414   2.168   3.204 -0.7247 -0.0350 -1.5641
  494MOL0    Cl65120   1.455   2.247   3.358 -0.0699 -0.3835 -0.3926
  494MOL0     C65121   1.824   1.462   2.786 -0.3951  0.0708  0.1968
  494MOL0     C65122   1.949   1.443   2.843 -0.4542  0.5089  0.5863
  494MOL0     O65123   2.049   1.200   3.176 -0.1444  0.5013 -0.2407
  494MOL0     C65124   2.352   1.383   3.118  0.0803  0.2292  0.2054
  494MOL0     C65125   2.482   1.380   3.147  0.1184 -0.0960  0.5561
  494MOL0     N65126   3.234   1.216   3.125  0.8177  0.4099 -0.9355
  494MOL0     N65127   3.314   1.119   3.102  0.8980 -0.0065 -0.0862
  494MOL0     C65128   4.453   1.099   2.940  0.5280 -0.0839 -0.6963
  494MOL0     C65129   4.585   1.085   2.965 -0.1278  0.2726  0.7105
  494MOL0     C65130   4.988   1.046   3.177 -0.0138 -0.3725  1.0983
  494MOL0     C65131   5.075   1.145   3.124  0.1488 -0.7046  0.3065
  494MOL0     C65132   5.212   1.136   3.162  0.3624 -0.0003 -0.5663
  494MOL0     C65133   5.267   1.032   3.240  0.7687 -0.4444  0.4004
  494MOL0     O65134   5.394   1.006   3.283  0.0784 -0.2674 -0.5152
  494MOL0     C65135   5.492   1.107   3.254 -0.1906 -0.0013  0.1347
  494MOL0     C65136   5.560   1.088   3.118  0.7372 -0.3915  0.4675
  494MOL0     C65137   5.655   1.208   3.082 -0.6652  0.8365 -0.8992
  494MOL0     C65138   5.726   1.178   2.949  0.7943 -0.1536  0.2958
  494MOL0     C65139   5.846   1.265   2.929 -0.1243  0.9329  0.2503
  494MOL0     C65140   5.951   1.326   2.911  0.0920  0.1803  0.2886
  494MOL0     C65141   5.180   0.933   3.278  0.5412 -0.4629  0.8671
  494MOL0     C65142   5.044   0.941   3.254  0.0518  0.2621 -0.1416
  494MOL0     H65143   4.600   1.316   3.211 -1.5176  1.5880 -1.2851
  494MOL0     H65144   4.352   1.324   3.171  0.7911  1.6352  0.3699
  494MOL0     H65145   4.214   1.004   2.915 -1.3589 -0.1406 -0.4601
  494MOL0     H65146   4.198   1.115   2.787  2.1530 -1.0899  0.3450
  494MOL0     H65147   3.991   1.026   2.839  0.6409  0.0633 -0.6068
  494MOL0     H65148   3.970   1.196   2.886 -1.8463  1.1201  5.1040
  494MOL0     H65149   3.983   1.152   3.120  2.7366 -1.8036  2.0747
  494MOL0     H65150   4.062   1.002   3.096  0.2562 -0.0431 -0.3410
  494MOL0     H65151   3.767   1.073   3.044  1.5631  0.3559 -1.7516
  494MOL0     H65152   3.822   0.922   2.987  0.2851 -0.8391  0.4553
  494MOL0     H65153   3.806   1.031   3.272  0.2126 -1.0081  0.4202
  494MOL0     H65154   3.899   0.887   3.250  0.6172  2.8534  1.2382
  494MOL0     H65155   3.681   0.813   3.322 -3.6838  1.6915  2.1721
  494MOL0     H65156   3.664   0.806   3.143  4.0090 -2.2023  1.5268
  494MOL0     H65157   3.556   1.001   3.345 -1.3537 -2.3311 -0.1683
  494MOL0     H65158   3.579   1.052   3.173 -0.0956 -0.2492 -1.8296
  494MOL0     H65159   3.377   0.865   3.295 -0.3495  0.7859  0.2378
  494MOL0     H65160   3.398   0.867   3.129  0.4897 -3.0965  2.2452
  494MOL0     H65161   3.244   1.074   3.418  1.3988  0.7033 -0.3740
  494MOL0     H65162   3.107   1.407   3.250 -1.8579 -2.5090 -2.4474
  494MOL0     H65163   3.149   1.337   3.413  0.9394 -2.3968 -0.1422
  494MOL0     H65164   2.933   1.226   3.419 -1.5081 -0.4177 -0.0882
  494MOL0     H65165   2.917   1.224   3.240 -2.3234 -0.7944  2.3027
  494MOL0     H65166   2.907   1.489   3.377 -1.4906  0.7120 -0.9692
  494MOL0     H65167   2.899   1.443   3.211  2.0127 -0.4911 -0.5373
  494MOL0     H65168   2.679   1.479   3.352  1.1224  1.6953  0.4409
  494MOL0     H65169   2.723   1.343   3.448 -3.3125  2.6940  0.6786
  494MOL0     H65170   2.513   1.130   3.361 -0.7072 -1.1457 -0.2655
  494MOL0     H65171   2.261   1.112   3.304 -0.1734 -0.2240 -0.8537
  494MOL0     H65172   1.845   1.270   3.118 -2.7332  1.5743  1.3119
  494MOL0     H65173   1.631   1.311   3.015  1.3037 -0.7726 -0.4906
  494MOL0     H65174   1.517   1.455   2.617 -2.5480  2.3013 -1.5695
  494MOL0     H65175   1.631   1.590   2.659 -1.6981  3.4397  1.1306
  494MOL0     H65176   1.339   1.566   2.727 -0.0115 -1.5260  1.3435
  494MOL0     H65177   1.432   1.698   2.660 -3.0383  0.2891  0.7181
  494MOL0     H65178   1.554   1.715   2.896 -1.1084  2.2198  1.4174
  494MOL0     H65179   1.433   1.592   2.944 -1.2947 -1.6561 -2.1973
  494MOL0     H65180   1.368   1.869   2.842  2.2269  0.7670  0.7827
  494MOL0     H65181   1.253   1.743   2.906  1.0220 -1.6677  1.6443
  494MOL0     H65182   1.495   1.838   3.077  0.0905 -0.8130 -0.0962
  494MOL0     H65183   1.337   1.768   3.113 -1.0486  1.2097  0.7092
  494MOL0     H65184   1.227   1.992   3.064 -0.1099 -1.2716 -1.1052
  494MOL0     H65185   1.369   2.056   3.000  0.3430  1.4039  0.8043
  494MOL0     H65186   1.311   1.990   3.272  0.6759  0.9752 -0.5134
  494MOL0     H65187   1.475   1.960   3.235 -0.1744 -1.5937  0.9270
  494MOL0     H65188   1.322   2.219   3.174 -1.3870  0.7328  1.4927
  494MOL0     H65189   1.500   2.191   3.139  0.2903 -1.8500 -0.9417
  494MOL0     H65190   1.812   1.509   2.689  2.8859 -2.1832 -1.4800
  494MOL0     H65191   2.036   1.487   2.795 -0.5417 -0.0363 -0.0743
  494MOL0     H65192   2.301   1.450   3.050 -1.0231 -1.5761 -0.8136
  494MOL0     H65193   2.542   1.454   3.096 -0.7073 -0.8012 -1.5827
  494MOL0     H65194   4.419   1.032   2.862  0.8370 -0.0487 -0.8633
  494MOL0     H65195   4.639   1.013   2.904  1.6110  2.0287  0.1024
  494MOL0     H65196   5.043   1.238   3.077  0.2491 -0.0082  1.5765
  494MOL0     H65197   5.285   1.210   3.132  1.4297 -0.7106  0.2429
  494MOL0     H65198   5.561   1.105   3.340 -0.1544  0.4819  0.1173
  494MOL0     H65199   5.444   1.205   3.256 -0.7237 -0.2622  1.1482
  494MOL0     H65200   5.614   0.993   3.111  2.4438  0.4954  1.2016
  494MOL0     H65201   5.473   1.083   3.052  0.7291 -1.8691  0.5542
  494MOL0     H65202   5.725   1.209   3.166 -0.7304 -0.7531 -0.8049
  494MOL0     H65203   5.607   1.306   3.074  1.7595  2.0570 -1.7246
  494MOL0     H65204   5.768   1.077   2.955  1.1392 -0.0174  0.2259
  494MOL0     H65205   5.661   1.177   2.861  0.0122 -2.5421  0.8265
  494MOL0     H65206   6.045   1.374   2.890  0.5282  0.8281  3.2324
  494MOL0     H65207   5.215   0.841   3.325 -1.8998 -1.4445  0.8846
  494MOL0     H65208   4.972   0.864   3.277 -1.4155  2.4016  3.1874
  495MOL0     O65209   2.512   3.215   7.953  0.0018  0.2397 -0.8865
  495MOL0     C65210   2.457   3.117   8.005 -0.2751 -0.0451  0.0381
  495MOL0     O65211   2.339   3.057   7.960  0.1916 -0.3519 -0.3079
  495MOL0     C65212   2.293   3.067   7.831  0.3378  0.0461  0.1203
  495MOL0     C65213   2.167   3.013   7.806  0.8145  0.1969  0.4484
  495MOL0     C65214   2.117   3.011   7.671 -0.3850  0.3020  0.4683
  495MOL0     C65215   2.194   3.051   7.560 -0.3106 -0.2151  0.2648
  495MOL0     O65216   2.138   3.062   7.429  0.0141  0.2648  0.3905
  495MOL0     C65217   2.056   2.949   7.373 -0.3102 -0.6626  0.8454
  495MOL0     C65218   1.920   3.008   7.327 -0.8294 -0.6552  0.3205
  495MOL0     C65219   1.846   2.913   7.240  0.3782  0.1845  0.1690
  495MOL0     C65220   1.803   2.798   7.315 -0.3288 -0.0578 -0.2494
  495MOL0     C65221   1.756   2.683   7.229  0.9772 -0.2684 -0.0083
  495MOL0     C65222   1.647   2.734   7.133 -0.1840 -0.7309 -0.1102
  495MOL0     C65223   1.602   2.625   7.036 -0.0983 -0.3349  0.2751
  495MOL0     C65224   1.490   2.680   6.947 -0.1235  0.0275  0.1458
  495MOL0     N65225   1.424   2.560   6.876 -0.6519  0.3608  0.2126
  495MOL0     C65226   1.311   2.494   6.917 -0.0410  0.2972 -0.3760
  495MOL0     C65227   1.269   2.421   6.807  0.9746  0.2833 -0.4750
  495MOL0     C65228   1.150   2.333   6.800 -0.0724  0.3559  0.8259
  495MOL0     C65229   1.018   2.404   6.745 -0.4656  0.5103  0.2854
  495MOL0     C65230   0.901   2.309   6.750  0.5409  1.2856  0.0704
  495MOL0     C65231   0.773   2.369   6.697  0.3193 -0.1631  0.5934
  495MOL0     O65232   0.729   2.482   6.772 -0.6879  0.3662  0.4233
  495MOL0     C65233   0.606   2.538   6.753  1.0106 -0.3133  0.2020
  495MOL0     C65234   0.518   2.496   6.649 -0.0239 -1.1304 -0.0548
  495MOL0     C65235   0.391   2.555   6.634  0.1293 -0.2653 -0.0839
  495MOL0     C65236   0.349   2.660   6.715 -0.6306  0.4729 -0.9644
  495MOL0     C65237   0.214   2.722   6.699 -0.3717 -0.0748  0.2371
  495MOL0     O65238   0.136   2.656   6.607  0.5786  0.2781 -0.8023
  495MOL0     C65239   0.029   2.718   6.551  0.3085 -0.3494  0.2124
  495MOL0     C65240  -0.070   2.809   6.605 -0.3429 -0.3398  0.3238
  495MOL0     C65241  -0.182   2.865   6.530  0.0329  0.2051  0.1223
  495MOL0     C65242  -0.195   2.822   6.396 -1.4369  0.2266 -0.0885
  495MOL0     O65243  -0.292   2.860   6.314 -0.4197  0.0322 -0.1553
  495MOL0     C65244  -0.394   2.940   6.365  0.9346 -0.7542 -0.2391
  495MOL0     C65245  -0.502   2.963   6.252  0.0975  0.4242 -0.8991
  495MOL0     C65246  -0.604   3.061   6.324 -0.9046 -0.6786  0.8138
  495MOL0     C65247  -0.701   3.117   6.216 -0.8849  0.3347  0.2638
  495MOL0     C65248  -0.811   3.195   6.278 -0.7409 -0.6770  0.3467
  495MOL0     C65249  -0.928   3.122   6.346 -0.5451 -0.6349 -0.8034
  495MOL0     C65250  -1.022   3.209   6.436  0.4901  0.1313  0.0650
  495MOL0     C65251  -1.148   3.130   6.476  0.0359 -0.0265 -0.4759
  495MOL0    Cl65252  -1.113   2.962   6.545 -0.7476 -0.1802  0.4036
  495MOL0     C65253  -0.100   2.740   6.350  0.2527  0.1391 -0.7873
  495MOL0     C65254   0.001   2.681   6.421  0.5753  0.2807 -0.3013
  495MOL0     O65255   0.185   2.824   6.762 -0.0661 -0.0119  0.1020
  495MOL0     C65256   0.440   2.715   6.816 -0.1438  1.0587  0.3835
  495MOL0     C65257   0.568   2.652   6.836  0.0990 -0.3510 -0.0053
  495MOL0     N65258   1.370   2.430   6.714 -0.1803  0.0764  0.4637
  495MOL0     N65259   1.460   2.511   6.759 -0.1151  0.1094  0.0537
  495MOL0     C65260   2.321   3.102   7.581 -0.0574 -0.6103  1.0035
  495MOL0     C65261   2.365   3.115   7.717 -0.2843 -0.4630  0.5845
  495MOL0     C65262   2.535   3.065   8.117 -0.6169 -0.4530  0.5710
  495MOL0     C65263   2.482   2.963   8.191 -0.6913 -0.3323 -0.6001
  495MOL0     C65264   2.541   2.917   8.303  0.2963 -0.8744 -0.4346
  495MOL0     C65265   2.656   2.978   8.350  0.1836 -0.5942 -0.4248
  495MOL0     O65266   2.696   2.924   8.471 -0.3943 -0.1730 -0.2724
  495MOL0     C65267   2.782   3.003   8.557 -0.2064 -0.3366  0.0028
  495MOL0     C65268   2.805   2.948   8.699  0.0985  0.6050 -0.3226
  495MOL0     C65269   2.908   3.022   8.798 -0.1760 -0.6052 -0.1146
  495MOL0     C65270   3.055   3.041   8.737  0.6038  0.0413 -0.4895
  495MOL0     C65271   3.160   3.020   8.841  1.1656 -0.1104  0.6639
  495MOL0     C65272   3.241   3.011   8.927  0.6439 -0.3687 -0.7577
  495MOL0     C65273   2.718   3.084   8.284  0.4039 -0.2759  0.3787
  495MOL0     C65274   2.655   3.130   8.165 -0.1914  0.3011  0.0216
  495MOL0     H65275   2.097   2.981   7.883 -0.8297  0.6511 -0.8089
  495MOL0     H65276   2.011   2.999   7.649  0.0234 -1.8139 -0.6311
  495MOL0     H65277   2.033   2.871   7.445 -1.6521 -1.6121 -0.5456
  495MOL0     H65278   2.104   2.903   7.286 -0.4102 -0.9712  0.9539
  495MOL0     H65279   1.942   3.102   7.276  1.9434  0.0457  2.5673
  495MOL0     H65280   1.861   3.031   7.417  0.7331 -3.7566  2.3272
  495MOL0     H65281   1.913   2.877   7.161  2.1979 -3.9787  3.2210
  495MOL0     H65282   1.766   2.970   7.192 -0.0396 -0.7145 -0.2202
  495MOL0     H65283   1.883   2.756   7.377 -1.6209 -0.3459  1.3060
  495MOL0     H65284   1.722   2.834   7.380  0.0188  1.0225 -0.4082
  495MOL0     H65285   1.717   2.602   7.291  0.8672 -0.3066 -0.1269
  495MOL0     H65286   1.839   2.645   7.169 -0.0781  1.0887 -2.4924
  495MOL0     H65287   1.687   2.818   7.075 -0.0758  1.9988  3.5793
  495MOL0     H65288   1.571   2.773   7.201  1.0175 -1.0810  1.5055
  495MOL0     H65289   1.688   2.593   6.977 -0.0537 -1.7518  1.0462
  495MOL0     H65290   1.560   2.541   7.092 -0.4322 -1.7514 -1.9538
  495MOL0     H65291   1.522   2.749   6.868  0.2970 -1.4558 -1.0392
  495MOL0     H65292   1.415   2.731   7.007 -0.9090  2.0994 -2.4145
  495MOL0     H65293   1.283   2.483   7.022  3.0115  2.2139  0.7716
  495MOL0     H65294   1.133   2.286   6.897 -1.8341 -3.6086 -1.1724
  495MOL0     H65295   1.170   2.245   6.739 -2.4693  0.6955 -0.5797
  495MOL0     H65296   1.039   2.436   6.643  3.5680 -1.9189  0.1125
  495MOL0     H65297   1.008   2.497   6.801  0.7511  1.5126 -1.1087
  495MOL0     H65298   0.925   2.227   6.681 -1.3169  2.4708 -2.1573
  495MOL0     H65299   0.882   2.264   6.847  0.0127 -0.9965 -1.0097
  495MOL0     H65300   0.694   2.293   6.700 -0.2405  0.4144  0.7677
  495MOL0     H65301   0.778   2.399   6.592 -3.1923  0.6706  0.5433
  495MOL0     H65302   0.543   2.434   6.564 -3.8824 -0.2211 -2.1109
  495MOL0     H65303   0.335   2.522   6.548 -0.6875  0.8920 -0.0131
  495MOL0     H65304  -0.083   2.832   6.710  0.4214  0.0582  0.3403
  495MOL0     H65305  -0.260   2.918   6.583  2.6150  1.0020  3.4478
  495MOL0     H65306  -0.349   3.032   6.403 -1.1137  0.6492 -1.0611
  495MOL0     H65307  -0.447   2.894   6.450  2.4213 -0.1520  1.0663
  495MOL0     H65308  -0.550   2.869   6.224  0.7139  0.5054 -2.3277
  495MOL0     H65309  -0.454   3.011   6.166  2.5972  0.5791  0.4908
  495MOL0     H65310  -0.555   3.151   6.360 -1.5449  3.1765 -6.2076
  495MOL0     H65311  -0.660   3.009   6.403  0.0942 -1.3190  1.1119
  495MOL0     H65312  -0.629   3.179   6.161  0.7323 -0.8186  1.0104
  495MOL0     H65313  -0.746   3.039   6.153 -2.8317  2.4097 -1.0910
  495MOL0     H65314  -0.848   3.256   6.194  2.1325 -0.6840 -1.0204
  495MOL0     H65315  -0.770   3.268   6.349 -2.5779  0.6214  0.1638
  495MOL0     H65316  -0.890   3.041   6.409 -0.0431 -0.5576 -1.0001
  495MOL0     H65317  -0.986   3.074   6.267 -0.5257 -0.2606 -1.0487
  495MOL0     H65318  -0.974   3.241   6.529  0.4527 -1.2528  0.5666
  495MOL0     H65319  -1.043   3.302   6.382 -2.2781 -0.2503  0.3696
  495MOL0     H65320  -1.205   3.115   6.384 -1.9411 -0.1762  0.7113
  495MOL0     H65321  -1.204   3.198   6.542  1.0191  1.1796 -0.8526
  495MOL0     H65322  -0.122   2.707   6.248  1.4617  1.4024 -1.4912
  495MOL0     H65323   0.069   2.609   6.378  2.2115  2.7342 -2.0486
  495MOL0     H65324   0.412   2.806   6.867 -0.3802  1.3813 -0.3107
  495MOL0     H65325   0.625   2.694   6.918 -1.5147  2.1765 -0.0906
  495MOL0     H65326   2.378   3.153   7.504 -1.7508 -0.1280  0.0228
  495MOL0     H65327   2.465   3.157   7.719 -0.4477  0.0949 -1.1017
  495MOL0     H65328   2.385   2.926   8.159 -0.7148  0.9499 -2.1216
  495MOL0     H65329   2.488   2.833   8.347 -2.9919  0.8042 -0.8786
  495MOL0     H65330   2.757   3.110   8.555 -1.4199 -0.6183 -0.9412
  495MOL0     H65331   2.878   2.997   8.505 -0.7585 -3.7172 -0.8488
  495MOL0     H65332   2.708   2.945   8.749 -0.4824 -2.2476 -1.4713
  495MOL0     H65333   2.843   2.846   8.698 -0.5102  0.3277  1.3253
  495MOL0     H65334   2.915   2.956   8.884 -2.7357  0.3515  0.9075
  495MOL0     H65335   2.856   3.116   8.820 -0.6816 -0.6850 -0.9326
  495MOL0     H65336   3.071   2.972   8.653 -0.3791  1.1164 -1.6094
  495MOL0     H65337   3.064   3.142   8.696  1.8774  0.3350  0.4566
  495MOL0     H65338   3.320   2.994   8.997  0.9706 -0.5380 -1.1628
  495MOL0     H65339   2.811   3.133   8.309  1.3614 -2.2220  0.8572
  495MOL0     H65340   2.689   3.216   8.109 -2.3897  0.5313 -1.0767
  496MOL0     O65341   3.533   6.384   5.170  0.3557 -0.2359  0.0209
  496MOL0     C65342   3.561   6.497   5.134  0.0619 -0.0519  0.5273
  496MOL0     O65343   3.472   6.600   5.103 -0.1577 -0.2803  0.0011
  496MOL0     C65344   3.335   6.580   5.102  0.2741  0.9025  0.6500
  496MOL0     C65345   3.254   6.578   4.983 -0.7164 -0.2399  0.1212
  496MOL0     C65346   3.113   6.559   4.981  0.8869 -0.1970  0.4380
  496MOL0     C65347   3.052   6.539   5.104 -0.6607 -0.0077 -0.0007
  496MOL0     O65348   2.913   6.514   5.124  0.2531 -0.3809 -0.4211
  496MOL0     C65349   2.841   6.437   5.023  0.4657 -0.1593 -1.0000
  496MOL0     C65350   2.759   6.324   5.098  0.0709  0.0954  0.3728
  496MOL0     C65351   2.644   6.374   5.184 -0.3129 -0.0576 -0.2094
  496MOL0     C65352   2.571   6.252   5.256 -0.5703 -0.5487  0.5796
  496MOL0     C65353   2.504   6.298   5.380  0.5464  0.5455  0.3003
  496MOL0     C65354   2.436   6.187   5.452 -0.3326 -0.1936 -0.5952
  496MOL0     C65355   2.351   6.242   5.574 -0.0807  0.2355 -0.0006
  496MOL0     C65356   2.427   6.225   5.706  0.1913 -0.4442  0.0985
  496MOL0     N65357   2.353   6.268   5.823 -0.6667 -0.4235  0.4903
  496MOL0     C65358   2.254   6.206   5.905 -0.1509  0.4143  1.2656
  496MOL0     C65359   2.222   6.299   6.002  0.3609  0.9550  0.4120
  496MOL0     C65360   2.123   6.262   6.114  0.3164  0.4181  0.4267
  496MOL0     C65361   2.005   6.364   6.124 -1.3967 -0.0042 -0.1145
  496MOL0     C65362   2.057   6.500   6.175  0.1696 -0.1191  1.5341
  496MOL0     C65363   1.949   6.605   6.161 -0.4010  1.4163 -0.0159
  496MOL0     O65364   1.853   6.576   6.264  0.4078  0.7837  0.0693
  496MOL0     C65365   1.729   6.624   6.266  0.5651  0.2493 -0.4483
  496MOL0     C65366   1.650   6.581   6.370 -0.5007  0.3029 -0.4852
  496MOL0     C65367   1.518   6.643   6.394  0.2182  0.9545  0.2757
  496MOL0     C65368   1.464   6.731   6.300 -0.5408 -0.3994 -0.1595
  496MOL0     C65369   1.336   6.797   6.306  0.4701 -0.4073  0.3992
  496MOL0     O65370   1.243   6.757   6.404 -0.1572  0.4832  0.1287
  496MOL0     C65371   1.124   6.809   6.432  0.5917 -0.0236 -0.8375
  496MOL0     C65372   1.074   6.926   6.379  0.0193  0.0502  0.6932
  496MOL0     C65373   0.953   6.975   6.429 -0.5691 -0.1781 -0.2528
  496MOL0     C65374   0.879   6.914   6.526 -1.4342 -0.2512  0.7973
  496MOL0     O65375   0.770   6.974   6.567  0.1032 -0.6114 -0.1445
  496MOL0     C65376   0.659   6.956   6.482  0.0033 -0.5961  0.9973
  496MOL0     C65377   0.520   6.936   6.556  0.0819 -0.1943 -0.2992
  496MOL0     C65378   0.532   6.802   6.639  0.0917  0.6852  0.1560
  496MOL0     C65379   0.418   6.795   6.738 -0.2799 -0.7599 -0.2676
  496MOL0     C65380   0.288   6.739   6.682  0.4294 -0.4826  0.8326
  496MOL0     C65381   0.163   6.751   6.780  0.1770  0.0798 -0.2152
  496MOL0     C65382   0.197   6.715   6.925 -0.2866 -0.2554  0.3059
  496MOL0     C65383   0.263   6.581   6.941 -0.2872  0.4387  0.3526
  496MOL0    Cl65384   0.158   6.450   6.861 -0.4572  0.1900 -0.2439
  496MOL0     C65385   0.922   6.794   6.575  0.3617 -0.0153  0.7033
  496MOL0     C65386   1.046   6.743   6.529  0.9366 -0.0771 -0.1821
  496MOL0     O65387   1.317   6.874   6.209  1.0745 -0.1449 -0.8348
  496MOL0     C65388   1.553   6.763   6.195  0.1785 -0.6622  0.5254
  496MOL0     C65389   1.680   6.712   6.179 -0.5231  0.0608 -0.2195
  496MOL0     N65390   2.294   6.416   5.972 -0.3082  0.8102  0.2235
  496MOL0     N65391   2.374   6.392   5.872  0.7843  0.6778 -0.2285
  496MOL0     C65392   3.125   6.549   5.219 -0.6321  1.4525  0.1876
  496MOL0     C65393   3.261   6.582   5.224 -0.3532  0.0842  1.0799
  496MOL0     C65394   3.703   6.522   5.100  0.4197 -0.0413 -0.3145
  496MOL0     C65395   3.742   6.656   5.066  0.5537  0.9311  0.2642
  496MOL0     C65396   3.876   6.675   5.035 -0.3208  0.2181 -0.2540
  496MOL0     C65397   3.968   6.572   5.026 -0.4140  0.6490 -0.3001
  496MOL0     O65398   4.097   6.602   4.998  0.3275  0.6604 -0.2371
  496MOL0     C65399   4.197   6.501   4.998  0.0391  0.5087 -0.9824
  496MOL0     C65400   4.333   6.557   5.009  0.2864 -0.3019  0.2928
  496MOL0     C65401   4.349   6.686   5.094 -0.2272  0.1119  0.2821
  496MOL0     C65402   4.494   6.727   5.108  0.1730 -0.3342  0.2839
  496MOL0     C65403   4.512   6.869   5.110 -0.0198  0.1345 -0.0539
  496MOL0     C65404   4.526   6.982   5.079 -0.5122 -0.1478  0.0013
  496MOL0     C65405   3.929   6.446   5.069 -0.4888  0.3954 -0.3086
  496MOL0     C65406   3.799   6.420   5.098  0.6174  0.2850  0.9156
  496MOL0     H65407   3.305   6.592   4.888  0.8678 -0.9381  0.8330
  496MOL0     H65408   3.063   6.566   4.885  1.7595 -0.2893 -0.0397
  496MOL0     H65409   2.901   6.382   4.950 -1.8809 -2.3904 -1.3710
  496MOL0     H65410   2.783   6.505   4.961  1.7495  0.0257 -2.0532
  496MOL0     H65411   2.835   6.270   5.156 -0.3211  1.5998  2.3870
  496MOL0     H65412   2.720   6.252   5.025  1.8994  1.1896 -1.8053
  496MOL0     H65413   2.574   6.434   5.125 -1.8006 -0.2517  1.3061
  496MOL0     H65414   2.692   6.434   5.262 -2.5604  0.0729  1.1482
  496MOL0     H65415   2.500   6.202   5.189  0.7252  0.2744 -1.5354
  496MOL0     H65416   2.652   6.180   5.273 -0.5539 -0.7843 -0.3970
  496MOL0     H65417   2.434   6.367   5.333  1.4713 -0.2314 -2.3563
  496MOL0     H65418   2.579   6.335   5.451 -0.1158 -0.5570  1.6395
  496MOL0     H65419   2.515   6.122   5.490  0.6436  1.2951 -0.0013
  496MOL0     H65420   2.375   6.127   5.383 -0.5630 -1.5179  0.7242
  496MOL0     H65421   2.327   6.348   5.558 -0.7441  0.3517  1.6039
  496MOL0     H65422   2.258   6.185   5.589  0.6702 -0.7570  1.0871
  496MOL0     H65423   2.515   6.287   5.692 -0.5723  0.3370 -1.5467
  496MOL0     H65424   2.458   6.121   5.717 -1.1664 -0.6037  3.5252
  496MOL0     H65425   2.205   6.109   5.894 -3.4357  2.1847 -1.8717
  496MOL0     H65426   2.166   6.247   6.213 -0.9211 -1.8923  0.6846
  496MOL0     H65427   2.080   6.167   6.082  1.0788  0.3625 -0.4677
  496MOL0     H65428   1.928   6.325   6.191 -2.2291  1.0226 -0.4470
  496MOL0     H65429   1.963   6.370   6.023 -2.5062 -1.5249  0.2167
  496MOL0     H65430   2.097   6.491   6.277  2.1774  1.2777  0.9243
  496MOL0     H65431   2.137   6.527   6.105 -1.4976  0.8195 -0.0698
  496MOL0     H65432   1.927   6.602   6.054 -0.7381 -2.3509  0.0342
  496MOL0     H65433   1.994   6.703   6.183  2.9200 -0.2805  1.5708
  496MOL0     H65434   1.695   6.536   6.458  0.5920  0.5979 -0.8832
  496MOL0     H65435   1.459   6.609   6.478  0.7891 -0.2528  0.2108
  496MOL0     H65436   1.130   6.985   6.307  0.4962 -2.4493 -1.1417
  496MOL0     H65437   0.915   7.071   6.397  1.3742  0.1148 -1.8153
  496MOL0     H65438   0.681   6.859   6.437  2.9265 -0.2448  1.4989
  496MOL0     H65439   0.661   7.039   6.411  1.4208 -0.7029  0.8889
  496MOL0     H65440   0.446   6.928   6.476 -1.0681  2.2460  0.4424
  496MOL0     H65441   0.503   7.024   6.617  0.9173  0.1667 -0.5657
  496MOL0     H65442   0.622   6.801   6.701 -1.3612  2.4466  2.4410
  496MOL0     H65443   0.528   6.714   6.574  0.1892  1.4241 -0.8704
  496MOL0     H65444   0.453   6.743   6.828 -1.5672  1.6911  1.7759
  496MOL0     H65445   0.390   6.895   6.772 -2.6000 -1.8539  1.3078
  496MOL0     H65446   0.295   6.634   6.654  0.1550  0.1719 -1.9111
  496MOL0     H65447   0.257   6.804   6.600 -3.0797  1.0745  3.1412
  496MOL0     H65448   0.078   6.693   6.742 -1.5969  2.0932  0.4723
  496MOL0     H65449   0.143   6.859   6.782  1.1207  0.2593  1.1167
  496MOL0     H65450   0.268   6.785   6.970 -0.6199  0.2082  0.1225
  496MOL0     H65451   0.100   6.717   6.976 -0.5761 -2.9876  0.0371
  496MOL0     H65452   0.283   6.551   7.044  3.8040 -2.7600 -1.1030
  496MOL0     H65453   0.361   6.589   6.893 -0.4510  2.1638  0.2269
  496MOL0     H65454   0.863   6.735   6.644  1.1188 -1.0814  0.4554
  496MOL0     H65455   1.073   6.645   6.569  1.0639 -0.7887 -1.9179
  496MOL0     H65456   1.526   6.840   6.123 -1.3336 -1.1685  0.5258
  496MOL0     H65457   1.735   6.756   6.097  1.3072 -0.6808  0.5546
  496MOL0     H65458   3.082   6.551   5.319 -0.4589  2.1103  0.2537
  496MOL0     H65459   3.311   6.595   5.320  1.7785 -0.7494  0.1330
  496MOL0     H65460   3.677   6.743   5.074 -3.9495 -1.7026 -2.6561
  496MOL0     H65461   3.912   6.776   5.016  0.2318 -0.4552 -3.2883
  496MOL0     H65462   4.179   6.435   4.913 -1.4994  0.6632 -0.8179
  496MOL0     H65463   4.193   6.443   5.091  1.3354  2.2653  0.2480
  496MOL0     H65464   4.397   6.476   5.045 -2.3759 -1.6327  2.3952
  496MOL0     H65465   4.360   6.580   4.905  2.0322  2.1985  1.2169
  496MOL0     H65466   4.308   6.666   5.194 -2.1536 -1.1251 -0.7086
  496MOL0     H65467   4.295   6.768   5.046 -0.3453 -0.5761 -0.7802
  496MOL0     H65468   4.548   6.699   5.199  1.4012  3.9212  1.0709
  496MOL0     H65469   4.548   6.694   5.019  0.0089 -0.0881  0.0942
  496MOL0     H65470   4.548   7.081   5.044 -1.6351  1.7265  4.0161
  496MOL0     H65471   4.001   6.365   5.071  2.5007  2.8699  0.9656
  496MOL0     H65472   3.770   6.316   5.108 -0.1880  0.6411  2.7951
  497MOL0     O65473   6.398   5.949   9.725  0.1585 -0.1651  0.1257
  497MOL0     C65474   6.483   5.860   9.709  0.4154  0.2481 -0.3851
  497MOL0     O65475   6.459   5.740   9.648 -0.5826 -0.2016  0.3172
  497MOL0     C65476   6.329   5.713   9.603 -0.2233  0.7974 -1.1495
  497MOL0     C65477   6.288   5.784   9.490 -0.0626  0.8716  0.3910
  497MOL0     C65478   6.165   5.753   9.432 -0.6927  0.9074 -0.7875
  497MOL0     C65479   6.082   5.652   9.494  0.4076  0.4212 -0.0154
  497MOL0     O65480   5.949   5.642   9.443  0.4293  0.4497  0.2606
  497MOL0     C65481   5.842   5.605   9.521 -0.0707 -0.6070 -0.7702
  497MOL0     C65482   5.721   5.704   9.496 -0.1671  0.0487  0.4325
  497MOL0     C65483   5.657   5.679   9.356 -0.0086  0.7976  0.3452
  497MOL0     C65484   5.552   5.780   9.331 -0.5864  0.7813  0.1774
  497MOL0     C65485   5.505   5.755   9.184 -0.0332 -0.1561 -0.3641
  497MOL0     C65486   5.402   5.861   9.150  0.6584  0.0184  0.7518
  497MOL0     C65487   5.365   5.839   9.000 -0.5265 -0.2111  0.7140
  497MOL0     C65488   5.232   5.900   8.968 -0.3806  0.0057  0.6795
  497MOL0     N65489   5.235   6.048   8.952  0.1081 -0.0222  0.3564
  497MOL0     C65490   5.232   6.115   8.833  0.4762  0.3915 -0.2658
  497MOL0     C65491   5.231   6.248   8.855 -0.4720  0.3664  0.5854
  497MOL0     C65492   5.216   6.359   8.748  0.4359  0.5413 -1.0314
  497MOL0     C65493   5.085   6.439   8.765  0.6226 -0.3928 -1.0033
  497MOL0     C65494   5.013   6.455   8.632  0.4467 -0.2455  0.0100
  497MOL0     C65495   4.972   6.325   8.561 -0.3103 -0.5103  0.7811
  497MOL0     O65496   4.834   6.306   8.605  0.0527 -0.0373  0.5129
  497MOL0     C65497   4.768   6.194   8.558 -0.2844 -0.0234  0.9933
  497MOL0     C65498   4.642   6.182   8.594 -0.2281  0.1648  0.2424
  497MOL0     C65499   4.558   6.084   8.541 -0.1212  0.1575  0.1301
  497MOL0     C65500   4.603   5.999   8.436  0.1923 -1.3485  0.6315
  497MOL0     C65501   4.507   5.913   8.367  0.4325 -0.0342  0.7676
  497MOL0     O65502   4.380   5.913   8.409 -0.5932  0.4312  0.6007
  497MOL0     C65503   4.279   5.829   8.358 -0.1019  0.0632  0.2320
  497MOL0     C65504   4.280   5.741   8.251  0.2565 -0.3468 -0.7445
  497MOL0     C65505   4.166   5.659   8.231  0.1827  0.3053  0.6301
  497MOL0     C65506   4.052   5.665   8.315 -0.0582  0.4139  0.1080
  497MOL0     O65507   3.939   5.578   8.304 -0.6229  0.3273  0.3607
  497MOL0     C65508   3.814   5.645   8.295 -0.0520  0.3476 -0.1539
  497MOL0     C65509   3.700   5.539   8.286 -0.6918  0.8318  0.1208
  497MOL0     C65510   3.683   5.470   8.150 -0.8403  0.2474 -0.0972
  497MOL0     C65511   3.633   5.323   8.162  0.5333 -0.1916 -0.2026
  497MOL0     C65512   3.503   5.313   8.227 -0.2644 -0.3288  0.7911
  497MOL0     C65513   3.394   5.404   8.165  0.4886 -0.0249  0.3613
  497MOL0     C65514   3.256   5.379   8.224 -0.1232  0.5289  0.2781
  497MOL0     C65515   3.144   5.455   8.155 -0.2445  0.2543  0.8806
  497MOL0    Cl65516   3.147   5.632   8.183  0.0882  0.2434  0.4439
  497MOL0     C65517   4.056   5.761   8.416  0.0887 -1.2994 -0.7022
  497MOL0     C65518   4.166   5.843   8.440 -0.0714  0.0112  0.0266
  497MOL0     O65519   4.550   5.835   8.278  0.8309  0.7363  0.9108
  497MOL0     C65520   4.734   6.018   8.397 -0.4492 -0.0853 -0.0869
  497MOL0     C65521   4.824   6.105   8.460 -0.9030 -0.4772  0.0819
  497MOL0     N65522   5.254   6.264   8.994  0.0388  0.2718  0.8665
  497MOL0     N65523   5.251   6.144   9.045 -0.1113 -0.1511 -0.2208
  497MOL0     C65524   6.126   5.576   9.599  0.5343  0.5743 -0.0823
  497MOL0     C65525   6.248   5.606   9.647  0.3526  0.3333 -0.1194
  497MOL0     C65526   6.627   5.896   9.743  1.3316  0.1557 -0.5138
  497MOL0     C65527   6.718   5.793   9.739  0.4944  0.7431  0.3616
  497MOL0     C65528   6.856   5.812   9.736  0.2036  0.3088 -0.3421
  497MOL0     C65529   6.910   5.942   9.736 -0.1341 -0.6315 -0.5006
  497MOL0     O65530   7.045   5.964   9.763  0.3255 -0.1796  0.4932
  497MOL0     C65531   7.113   6.016   9.650  0.2402  0.7305 -0.3726
  497MOL0     C65532   7.258   5.960   9.664 -0.7012  0.2225 -0.3063
  497MOL0     C65533   7.282   5.813   9.656  0.2993 -0.1216  0.5671
  497MOL0     C65534   7.436   5.793   9.697  0.7557  0.2040 -0.5239
  497MOL0     C65535   7.495   5.668   9.702  0.8194 -0.2935 -0.2909
  497MOL0     C65536   7.537   5.556   9.709  0.2082 -0.1126 -0.0629
  497MOL0     C65537   6.815   6.055   9.730 -0.3805  0.0094 -0.3862
  497MOL0     C65538   6.678   6.030   9.744 -0.8470  0.1692  0.5262
  497MOL0     H65539   6.356   5.857   9.447 -0.4648  0.5242 -0.8609
  497MOL0     H65540   6.111   5.807   9.355  0.7125  2.4265 -0.7735
  497MOL0     H65541   5.876   5.591   9.624 -0.4941  1.0202 -0.3719
  497MOL0     H65542   5.803   5.507   9.493  1.3029 -2.0597  2.0106
  497MOL0     H65543   5.756   5.807   9.500  1.8627 -0.2881 -3.5530
  497MOL0     H65544   5.645   5.686   9.573 -2.8568  0.3188 -2.0025
  497MOL0     H65545   5.623   5.575   9.345  0.9061  0.5774 -0.6043
  497MOL0     H65546   5.739   5.695   9.285  1.3042 -0.0267  1.6115
  497MOL0     H65547   5.467   5.777   9.400 -0.3429 -3.0566  0.5490
  497MOL0     H65548   5.593   5.881   9.337 -0.4938  0.7457  0.1501
  497MOL0     H65549   5.463   5.654   9.171  0.3042 -0.2334 -0.8985
  497MOL0     H65550   5.593   5.769   9.121  1.3422 -0.6124  1.3727
  497MOL0     H65551   5.444   5.962   9.155  4.2595 -1.3732  1.3750
  497MOL0     H65552   5.313   5.858   9.213 -1.5979 -0.0383 -2.1810
  497MOL0     H65553   5.443   5.886   8.940 -1.9904  0.7192 -0.5223
  497MOL0     H65554   5.360   5.732   8.975 -0.4317 -0.0910  0.1646
  497MOL0     H65555   5.163   5.869   9.047  0.2282  0.6666  1.4839
  497MOL0     H65556   5.186   5.855   8.880 -2.1483 -0.8635  1.9749
  497MOL0     H65557   5.224   6.054   8.743 -1.6788 -0.9984  0.7897
  497MOL0     H65558   5.227   6.311   8.651  0.7907 -1.6761  0.0466
  497MOL0     H65559   5.304   6.424   8.755  0.5491  0.3306 -0.4469
  497MOL0     H65560   5.097   6.542   8.802  3.3919 -0.1734 -2.2484
  497MOL0     H65561   5.016   6.386   8.831  1.1834  3.1777  2.8595
  497MOL0     H65562   4.930   6.526   8.635  2.1917  2.2569 -3.3841
  497MOL0     H65563   5.085   6.512   8.572 -1.6199  2.7077  0.0915
  497MOL0     H65564   5.038   6.241   8.586  1.2931 -0.2241 -2.1173
  497MOL0     H65565   4.973   6.328   8.452 -1.3876 -2.9933  0.6357
  497MOL0     H65566   4.598   6.247   8.668  0.3130 -0.0494  0.7535
  497MOL0     H65567   4.452   6.083   8.564  0.2217  1.6533  1.9527
  497MOL0     H65568   4.370   5.732   8.191  1.2095 -1.2082  0.7408
  497MOL0     H65569   4.173   5.589   8.149 -1.6701  1.9648 -1.0769
  497MOL0     H65570   3.815   5.719   8.214 -1.3424 -0.0986 -0.5970
  497MOL0     H65571   3.793   5.704   8.384  1.9925  0.1956  0.4853
  497MOL0     H65572   3.600   5.575   8.315 -1.5424 -1.0385 -0.3585
  497MOL0     H65573   3.733   5.459   8.353  1.1236  0.3136 -1.3411
  497MOL0     H65574   3.782   5.470   8.102  1.0069  2.7305  3.2702
  497MOL0     H65575   3.613   5.524   8.086 -1.0543  0.8159  0.5990
  497MOL0     H65576   3.605   5.291   8.061  0.6188 -0.0869 -0.2594
  497MOL0     H65577   3.710   5.253   8.196  1.5181  0.4051 -1.1356
  497MOL0     H65578   3.512   5.336   8.334  1.8594  0.2764  0.5189
  497MOL0     H65579   3.456   5.214   8.226  0.5975 -0.7627 -1.1757
  497MOL0     H65580   3.386   5.369   8.061 -1.5599 -0.2694  0.5588
  497MOL0     H65581   3.419   5.511   8.165  1.8845 -0.3329 -0.1041
  497MOL0     H65582   3.244   5.272   8.204  0.9598  0.3118  0.6985
  497MOL0     H65583   3.246   5.410   8.328 -0.3250  2.5680 -0.3133
  497MOL0     H65584   3.048   5.424   8.198 -2.7778  3.9442 -1.4857
  497MOL0     H65585   3.130   5.433   8.049  0.2697  0.7339  0.7113
  497MOL0     H65586   3.972   5.780   8.482  0.2125 -1.4046 -0.5159
  497MOL0     H65587   4.155   5.919   8.517  1.1955  2.3770 -1.9993
  497MOL0     H65588   4.767   5.950   8.319  0.6846  0.9181 -0.5186
  497MOL0     H65589   4.930   6.104   8.437  0.3851 -2.2228  4.9311
  497MOL0     H65590   6.070   5.503   9.656 -0.9376  0.2247 -1.8949
  497MOL0     H65591   6.296   5.553   9.729  2.2127  1.4494 -0.4232
  497MOL0     H65592   6.685   5.690   9.735 -3.3296  1.8557 -2.2349
  497MOL0     H65593   6.914   5.722   9.754 -0.0742  0.0944 -0.5292
  497MOL0     H65594   7.103   6.124   9.642 -0.7809  0.7715  1.0333
  497MOL0     H65595   7.063   5.969   9.565  0.7632  0.2674 -0.4300
  497MOL0     H65596   7.319   6.002   9.584  1.1507 -1.0231  0.3975
  497MOL0     H65597   7.302   6.004   9.754 -0.7869  1.3741 -0.8019
  497MOL0     H65598   7.249   5.763   9.565 -2.5702  0.4118  1.2157
  497MOL0     H65599   7.219   5.764   9.731  0.1813 -1.0339 -0.1060
  497MOL0     H65600   7.498   5.850   9.626 -0.2028  1.7895 -0.1381
  497MOL0     H65601   7.439   5.840   9.796 -0.6334  0.0284 -0.3846
  497MOL0     H65602   7.572   5.455   9.714  1.9372  0.3885 -1.2476
  497MOL0     H65603   6.866   6.150   9.719  0.9932 -0.6100  0.2725
  497MOL0     H65604   6.616   6.119   9.739  0.5184  1.4700  3.7235
  498MOL0     O65605   6.243   2.313   1.600 -0.4398 -0.2048 -0.4045
  498MOL0     C65606   6.363   2.323   1.576 -0.2362  0.3540 -0.0100
  498MOL0     O65607   6.417   2.351   1.447  0.6543  0.2953 -0.5224
  498MOL0     C65608   6.335   2.351   1.338 -0.2063 -0.2379  0.1573
  498MOL0     C65609   6.213   2.424   1.335  0.3305 -0.2537 -0.3178
  498MOL0     C65610   6.148   2.448   1.221  1.1932  0.4057  1.3479
  498MOL0     C65611   6.179   2.383   1.098 -0.5660  1.0766  1.2577
  498MOL0     O65612   6.128   2.406   0.967 -0.4679  0.0012 -0.1950
  498MOL0     C65613   6.027   2.509   0.969 -0.2037  0.4033  0.5768
  498MOL0     C65614   5.948   2.504   0.846 -0.3602 -0.2105  0.1181
  498MOL0     C65615   5.872   2.380   0.838  0.3072 -0.2270  0.1805
  498MOL0     C65616   5.773   2.367   0.719 -0.1543 -0.2836 -0.2039
  498MOL0     C65617   5.835   2.328   0.580 -0.9262  0.1160  0.2491
  498MOL0     C65618   5.732   2.326   0.468 -0.4085  0.5940  0.6227
  498MOL0     C65619   5.661   2.460   0.434 -0.4124  0.5719  0.2267
  498MOL0     C65620   5.577   2.451   0.309 -0.1281  0.5393  0.6609
  498MOL0     N65621   5.454   2.377   0.335  0.0527  0.0470 -0.9927
  498MOL0     C65622   5.435   2.244   0.344 -0.1937 -0.2267 -0.2838
  498MOL0     C65623   5.303   2.232   0.352  0.4915  1.1460  0.4860
  498MOL0     C65624   5.209   2.112   0.372 -0.7625 -0.2801  0.6466
  498MOL0     C65625   5.199   2.031   0.244  0.3294  0.0048  0.4252
  498MOL0     C65626   5.121   1.896   0.266 -0.3329 -0.8367 -0.6705
  498MOL0     C65627   4.970   1.915   0.302 -0.7334  0.2810 -0.4973
  498MOL0     O65628   4.889   1.945   0.188  0.6078 -0.3288  1.0293
  498MOL0     C65629   4.754   1.922   0.193  0.3518 -0.7271  0.3678
  498MOL0     C65630   4.683   1.889   0.310 -0.1348  0.2002  0.5949
  498MOL0     C65631   4.544   1.887   0.308  0.7222  0.5846  0.9066
  498MOL0     C65632   4.472   1.925   0.192  0.2135 -0.2096 -0.4537
  498MOL0     C65633   4.329   1.951   0.202  0.1308  0.6166  0.2962
  498MOL0     O65634   4.278   1.952   0.328  0.1456  1.3242  0.1432
  498MOL0     C65635   4.134   1.935   0.335  0.2215  0.1864  0.4605
  498MOL0     C65636   4.048   2.042   0.311  0.8984  0.3358  0.1282
  498MOL0     C65637   3.910   2.030   0.316  1.5674  1.1152 -0.6803
  498MOL0     C65638   3.843   1.907   0.349  0.2124  0.1211 -0.2959
  498MOL0     O65639   3.706   1.891   0.373 -0.2782  0.5148 -0.5749
  498MOL0     C65640   3.618   1.980   0.307 -0.7490  0.3607 -0.7812
  498MOL0     C65641   3.473   1.933   0.297  0.7400  0.9657 -0.5282
  498MOL0     C65642   3.457   1.813   0.208  0.6016 -0.1651 -0.1881
  498MOL0     C65643   3.313   1.795   0.153  0.7798 -0.3727 -0.3161
  498MOL0     C65644   3.315   1.681   0.048 -0.3618 -1.1513 -0.5727
  498MOL0     C65645   3.203   1.698  -0.049  0.7066 -0.2303 -0.1423
  498MOL0     C65646   3.058   1.720   0.021  1.4240  0.5823  1.2085
  498MOL0     C65647   2.945   1.740  -0.082  0.4217  0.2822 -0.3944
  498MOL0    Cl65648   2.787   1.729   0.006  0.3035 -1.0519  0.0287
  498MOL0     C65649   3.940   1.796   0.357  0.9953 -0.4578 -0.6539
  498MOL0     C65650   4.080   1.811   0.360  0.5057 -0.1974 -0.4717
  498MOL0     O65651   4.268   1.950   0.093  0.4722  0.6269 -0.2268
  498MOL0     C65652   4.548   1.941   0.072 -0.4946  0.4916 -0.6318
  498MOL0     C65653   4.690   1.939   0.071  0.2081  0.1154 -0.4989
  498MOL0     N65654   5.241   2.357   0.339  0.0057  0.2223  0.3160
  498MOL0     N65655   5.335   2.437   0.326 -0.8259 -0.2134  0.3855
  498MOL0     C65656   6.299   2.303   1.105 -0.4232 -0.2465  0.7632
  498MOL0     C65657   6.386   2.300   1.218  0.3935 -0.3285  0.2596
  498MOL0     C65658   6.467   2.308   1.681  0.1046  0.6738 -0.1167
  498MOL0     C65659   6.590   2.368   1.663 -0.0750  0.6135 -0.1954
  498MOL0     C65660   6.689   2.353   1.764  0.2901  0.0977 -0.0532
  498MOL0     C65661   6.670   2.269   1.881 -0.4363 -0.8942  0.1386
  498MOL0     O65662   6.760   2.225   1.976  0.3852 -0.6861  0.4541
  498MOL0     C65663   6.902   2.255   1.958  1.0286 -0.3857  0.0364
  498MOL0     C65664   6.936   2.404   2.006 -0.1407 -0.5627  0.9056
  498MOL0     C65665   6.940   2.411   2.152  0.3558  0.3539  0.1543
  498MOL0     C65666   6.965   2.553   2.211 -0.2036 -0.3153 -0.4572
  498MOL0     C65667   7.112   2.570   2.199  0.5680 -0.7238 -0.2770
  498MOL0     C65668   7.230   2.589   2.192 -0.4457 -0.4723  0.1719
  498MOL0     C65669   6.536   2.229   1.901 -0.2912  0.0181 -0.6050
  498MOL0     C65670   6.437   2.254   1.807  0.3401  0.2509 -0.7808
  498MOL0     H65671   6.189   2.487   1.420 -1.2813 -2.6045  1.1003
  498MOL0     H65672   6.075   2.528   1.220  1.9547  1.4635 -4.3359
  498MOL0     H65673   6.078   2.606   0.965  0.5678 -0.0045  0.1047
  498MOL0     H65674   5.955   2.507   1.051 -1.8168  1.6675 -0.7322
  498MOL0     H65675   6.010   2.505   0.756 -1.1511 -0.3624 -0.4409
  498MOL0     H65676   5.878   2.589   0.843 -0.7063 -0.5171 -0.6452
  498MOL0     H65677   5.818   2.366   0.932 -1.6370  1.2300 -0.6633
  498MOL0     H65678   5.939   2.294   0.827  2.4039  1.1097  1.6653
  498MOL0     H65679   5.704   2.286   0.743 -0.7062  0.6436  1.4743
  498MOL0     H65680   5.722   2.464   0.710  0.7021  0.1817 -0.2162
  498MOL0     H65681   5.891   2.234   0.584 -0.4538  0.3229 -1.1414
  498MOL0     H65682   5.909   2.407   0.564 -0.5137  0.1367  1.9990
  498MOL0     H65683   5.663   2.243   0.484  0.8504 -0.8903 -1.1893
  498MOL0     H65684   5.793   2.289   0.386 -2.0056 -0.6699 -0.0457
  498MOL0     H65685   5.586   2.484   0.510 -1.3795 -1.0452 -0.1572
  498MOL0     H65686   5.734   2.541   0.430 -0.3235  0.4887  0.1688
  498MOL0     H65687   5.624   2.394   0.229 -2.1672 -0.9318  0.4260
  498MOL0     H65688   5.557   2.549   0.266 -2.4711 -0.4678 -0.8087
  498MOL0     H65689   5.511   2.166   0.350 -0.8160 -0.7922  0.3994
  498MOL0     H65690   5.113   2.135   0.418 -0.5966 -3.8488  3.1566
  498MOL0     H65691   5.257   2.049   0.448 -0.1742 -1.1209 -0.3832
  498MOL0     H65692   5.299   2.014   0.204  0.7139  0.9699  0.9436
  498MOL0     H65693   5.150   2.088   0.165 -0.5323 -2.5296 -0.9667
  498MOL0     H65694   5.119   1.835   0.176 -0.1082  0.9223 -1.9252
  498MOL0     H65695   5.173   1.836   0.341 -0.0802 -3.2955 -2.6859
  498MOL0     H65696   4.961   1.995   0.375  2.0922  0.2424  0.0035
  498MOL0     H65697   4.941   1.820   0.347 -1.6939  1.8620  2.4555
  498MOL0     H65698   4.729   1.860   0.404 -0.9739  1.7737  1.5302
  498MOL0     H65699   4.492   1.863   0.401  1.7720 -3.7337  0.5659
  498MOL0     H65700   4.091   2.141   0.298  3.2209 -0.8254 -2.0193
  498MOL0     H65701   3.862   2.125   0.296  0.8240  0.6004 -1.3916
  498MOL0     H65702   3.646   1.997   0.203 -0.2662  1.8217 -0.4396
  498MOL0     H65703   3.622   2.074   0.363  0.9286  0.1375 -0.4997
  498MOL0     H65704   3.405   2.008   0.255  0.1849  1.1258  0.6032
  498MOL0     H65705   3.441   1.898   0.396  1.9305  1.3764  0.0192
  498MOL0     H65706   3.470   1.725   0.272  1.2680 -0.4590 -0.7197
  498MOL0     H65707   3.527   1.814   0.124  1.8655  1.3667  0.8498
  498MOL0     H65708   3.242   1.783   0.235 -2.0065  0.9405 -2.3897
  498MOL0     H65709   3.287   1.888   0.103 -1.7029 -0.9297 -0.2002
  498MOL0     H65710   3.307   1.584   0.099 -1.7023 -0.3310  0.8764
  498MOL0     H65711   3.410   1.688  -0.006 -0.6527  0.2177 -0.9433
  498MOL0     H65712   3.201   1.617  -0.122  0.1178 -0.1873 -0.1787
  498MOL0     H65713   3.216   1.787  -0.111 -3.2692  1.8144  1.6301
  498MOL0     H65714   3.028   1.636   0.085  0.2751  0.0884  0.0555
  498MOL0     H65715   3.055   1.809   0.085 -1.0050  0.8731  0.7800
  498MOL0     H65716   2.947   1.665  -0.161 -0.4009  2.7752 -2.9508
  498MOL0     H65717   2.968   1.830  -0.140  0.5369  0.3511 -0.2443
  498MOL0     H65718   3.892   1.698   0.365 -1.0927  0.6018  0.8203
  498MOL0     H65719   4.142   1.723   0.376 -0.4717 -0.5325  1.8097
  498MOL0     H65720   4.499   1.954  -0.024 -2.2372 -3.0007 -0.3783
  498MOL0     H65721   4.746   1.959  -0.019 -1.3987  3.1113 -0.9456
  498MOL0     H65722   6.334   2.252   1.016 -3.2308 -0.8404 -0.0886
  498MOL0     H65723   6.482   2.248   1.212  2.7118  3.6852 -1.9210
  498MOL0     H65724   6.618   2.427   1.576  1.8774  1.7482  1.1404
  498MOL0     H65725   6.786   2.401   1.756  0.9838 -1.3572 -0.7782
  498MOL0     H65726   6.931   2.238   1.854 -0.4869 -0.5828 -0.3659
  498MOL0     H65727   6.956   2.182   2.018 -0.1049  0.1261  1.7375
  498MOL0     H65728   7.030   2.419   1.953 -1.5389 -0.4144 -1.6903
  498MOL0     H65729   6.870   2.479   1.962 -1.0561 -3.3416 -2.9559
  498MOL0     H65730   7.020   2.342   2.181  1.0108 -0.3511 -2.9241
  498MOL0     H65731   6.843   2.378   2.189  1.1197 -1.4298  0.6645
  498MOL0     H65732   6.901   2.633   2.172  0.5789  1.6571  2.0398
  498MOL0     H65733   6.940   2.537   2.316  2.9867 -1.4532  0.2173
  498MOL0     H65734   7.335   2.608   2.204 -0.8112  1.1199  1.1732
  498MOL0     H65735   6.510   2.163   1.983  0.2372 -1.1433 -1.3568
  498MOL0     H65736   6.335   2.218   1.822 -0.0779  1.6032 -0.1864
  499MOL0     O65737   0.477   9.014   8.596  0.0437  0.5805  0.2280
  499MOL0     C65738   0.490   9.024   8.715 -0.0616 -0.4476 -0.6936
  499MOL0     O65739   0.545   9.141   8.778  0.0886 -0.0828 -0.5039
  499MOL0     C65740   0.600   9.250   8.712 -0.4182  0.3710  0.4296
  499MOL0     C65741   0.620   9.358   8.795 -0.0936 -0.5048 -0.5639
  499MOL0     C65742   0.682   9.472   8.752  0.2590 -0.2389 -0.9698
  499MOL0     C65743   0.712   9.489   8.619  0.0524 -0.7133  0.2552
  499MOL0     O65744   0.754   9.615   8.574 -0.6467  0.4136  0.5157
  499MOL0     C65745   0.750   9.651   8.432  0.1382 -0.0099 -1.0263
  499MOL0     C65746   0.786   9.803   8.398 -0.0957  0.0859 -0.7277
  499MOL0     C65747   0.842   9.839   8.257 -0.1813  0.8538  0.7955
  499MOL0     C65748   0.741   9.817   8.146 -0.3978 -0.5812 -0.3176
  499MOL0     C65749   0.646   9.939   8.138  0.6479 -0.4938 -0.5345
  499MOL0     C65750   0.536   9.903   8.039  0.5274  0.2033 -0.4460
  499MOL0     C65751   0.440  10.018   8.036  0.7581 -0.8522 -1.1081
  499MOL0     C65752   0.323  10.008   7.940 -0.1339  0.4281  0.3218
  499MOL0     N65753   0.234   9.905   7.997  0.1680 -1.2298 -0.2565
  499MOL0     C65754   0.145   9.913   8.107 -0.0558 -0.9823 -0.8367
  499MOL0     C65755   0.098   9.796   8.135 -0.3820 -0.0728  0.3435
  499MOL0     C65756   0.003   9.764   8.244  0.1608 -0.5819 -0.6784
  499MOL0     C65757  -0.136   9.833   8.200 -0.8662  0.6745  0.1035
  499MOL0     C65758  -0.199   9.787   8.063  0.1667 -0.2022  0.0321
  499MOL0     C65759  -0.329   9.857   8.051 -0.3819  0.3830 -0.3363
  499MOL0     O65760  -0.417   9.819   8.154 -0.1830 -0.2389  0.0948
  499MOL0     C65761  -0.544   9.778   8.130 -0.3793 -0.0977  0.3149
  499MOL0     C65762  -0.594   9.697   8.023 -1.0364  0.6616  0.3859
  499MOL0     C65763  -0.731   9.664   8.008  0.1679 -0.0630 -0.1758
  499MOL0     C65764  -0.822   9.690   8.111  0.0009 -0.5515  0.4395
  499MOL0     C65765  -0.958   9.640   8.106  0.4212  0.1862 -0.0886
  499MOL0     O65766  -0.987   9.554   7.997  0.1983  0.7412  0.0637
  499MOL0     C65767  -1.111   9.495   7.980  0.1019 -1.0515 -0.0330
  499MOL0     C65768  -1.122   9.358   8.026  0.8187  0.4013  0.3400
  499MOL0     C65769  -1.239   9.286   7.988  0.8417  0.2878  0.0103
  499MOL0     C65770  -1.341   9.335   7.910 -0.6752  0.0424 -0.2186
  499MOL0     O65771  -1.459   9.265   7.878 -0.8315 -0.1414  0.2145
  499MOL0     C65772  -1.474   9.129   7.914  0.1013  0.0171  0.8902
  499MOL0     C65773  -1.610   9.081   7.865 -0.5460 -0.2395 -0.1196
  499MOL0     C65774  -1.633   8.939   7.901 -0.0884  0.1459  0.2697
  499MOL0     C65775  -1.761   8.905   7.824 -0.3254  0.7035 -0.0238
  499MOL0     C65776  -1.805   8.761   7.859  0.2640 -0.5350 -0.3478
  499MOL0     C65777  -1.936   8.732   7.788 -0.4528 -0.4091 -0.2136
  499MOL0     C65778  -1.971   8.584   7.819 -0.1761 -0.1566  0.7149
  499MOL0     C65779  -2.119   8.557   7.799  0.5173  0.0167 -0.2089
  499MOL0    Cl65780  -2.231   8.624   7.929 -0.0430 -0.2754 -0.1738
  499MOL0     C65781  -1.334   9.474   7.883 -0.2052  0.8248 -0.0687
  499MOL0     C65782  -1.218   9.550   7.910  0.5087 -0.2880 -0.7250
  499MOL0     O65783  -1.040   9.659   8.192  0.3551 -0.2441  0.2465
  499MOL0     C65784  -0.768   9.750   8.230  0.4402  0.2125  0.4587
  499MOL0     C65785  -0.637   9.805   8.232 -0.0902  0.0453  0.0819
  499MOL0     N65786   0.154   9.709   8.038  0.1705  0.3211  0.2175
  499MOL0     N65787   0.214   9.779   7.951 -0.9575 -0.1604  0.4804
  499MOL0     C65788   0.691   9.377   8.535  0.5884  0.6317 -0.3717
  499MOL0     C65789   0.639   9.258   8.578  0.5428  0.3833 -0.4999
  499MOL0     C65790   0.431   8.912   8.801 -0.1304 -0.4117  0.0428
  499MOL0     C65791   0.421   8.924   8.939 -0.4949 -0.1201 -0.1926
  499MOL0     C65792   0.362   8.826   9.017 -0.4508 -0.0334 -0.1155
  499MOL0     C65793   0.324   8.702   8.964 -0.1335 -0.6471  0.1706
  499MOL0     O65794   0.268   8.599   9.034 -0.2876 -0.1717  1.2344
  499MOL0     C65795   0.204   8.629   9.162  0.3340 -0.5616  0.0324
  499MOL0     C65796   0.101   8.511   9.190  0.8955  0.1443 -0.0040
  499MOL0     C65797   0.179   8.378   9.228  0.3619  0.2471 -0.0994
  499MOL0     C65798   0.085   8.271   9.297 -0.1665  0.4428  0.1848
  499MOL0     C65799  -0.015   8.222   9.202  0.3389  0.3349  0.1731
  499MOL0     C65800  -0.076   8.164   9.114  0.1655 -0.5624 -0.0665
  499MOL0     C65801   0.331   8.692   8.827 -0.2723  0.1418 -0.3926
  499MOL0     C65802   0.389   8.790   8.741  0.3756 -0.3935  0.3117
  499MOL0     H65803   0.575   9.342   8.893 -1.9349  0.2190 -1.2430
  499MOL0     H65804   0.682   9.564   8.810  0.1625 -0.9023  0.0866
  499MOL0     H65805   0.665   9.612   8.376 -0.7325  0.3113  0.0325
  499MOL0     H65806   0.833   9.594   8.390  0.5948 -0.3548  0.2951
  499MOL0     H65807   0.870   9.820   8.466 -1.1541 -0.0176  0.6639
  499MOL0     H65808   0.699   9.865   8.423 -0.1939 -0.5584  0.6584
  499MOL0     H65809   0.930   9.780   8.229 -0.6911  0.9505 -1.1051
  499MOL0     H65810   0.874   9.944   8.259  0.8089  0.5779  0.0854
  499MOL0     H65811   0.791   9.790   8.053 -0.6946 -0.3980 -0.5302
  499MOL0     H65812   0.692   9.722   8.172 -0.6505 -1.5056 -3.7389
  499MOL0     H65813   0.704  10.027   8.107 -0.4620  1.2359  1.9369
  499MOL0     H65814   0.605   9.969   8.235  3.0249  3.4079 -0.5373
  499MOL0     H65815   0.487   9.809   8.069  0.1798  0.5739  0.1580
  499MOL0     H65816   0.587   9.893   7.943 -1.1344  1.4289 -1.5207
  499MOL0     H65817   0.404  10.043   8.136 -3.4754  0.5908 -2.7566
  499MOL0     H65818   0.488  10.110   8.000 -2.8449  1.2008 -1.1600
  499MOL0     H65819   0.362   9.986   7.841 -2.0448 -2.5723  0.1377
  499MOL0     H65820   0.268  10.103   7.931 -0.2963  0.3053  0.0279
  499MOL0     H65821   0.128  10.000   8.170  0.0670 -1.7734  0.3238
  499MOL0     H65822   0.045   9.800   8.338  0.2391  1.3119 -1.4067
  499MOL0     H65823  -0.014   9.656   8.253  0.0226 -0.5659 -0.7420
  499MOL0     H65824  -0.125   9.942   8.203  1.9486  0.5281 -1.4569
  499MOL0     H65825  -0.207   9.803   8.277  0.3817 -0.0899  0.9754
  499MOL0     H65826  -0.133   9.822   7.983  1.1851 -0.2565  0.8278
  499MOL0     H65827  -0.218   9.681   8.049 -1.2835 -0.2880  2.1334
  499MOL0     H65828  -0.378   9.830   7.957 -1.1364 -3.1463  0.9107
  499MOL0     H65829  -0.313   9.965   8.061  0.7737  0.0573  2.1289
  499MOL0     H65830  -0.528   9.668   7.942 -0.3701 -1.5943  1.6608
  499MOL0     H65831  -0.764   9.607   7.922 -1.4844 -0.0505  0.4280
  499MOL0     H65832  -1.055   9.304   8.092 -1.8309 -0.0959  2.8013
  499MOL0     H65833  -1.231   9.183   8.020  3.4104  0.0866 -1.0775
  499MOL0     H65834  -1.466   9.117   8.023 -1.1345 -0.4464  0.9400
  499MOL0     H65835  -1.391   9.073   7.869  0.1333  1.6942 -1.2837
  499MOL0     H65836  -1.600   9.102   7.758 -1.0407  0.8771  0.0451
  499MOL0     H65837  -1.683   9.151   7.906 -2.7193 -1.8871 -0.9552
  499MOL0     H65838  -1.637   8.925   8.009 -0.8593 -0.0483  0.2203
  499MOL0     H65839  -1.550   8.878   7.865 -0.7796 -0.4972 -0.2664
  499MOL0     H65840  -1.842   8.975   7.848  0.3620  1.9017 -1.0939
  499MOL0     H65841  -1.743   8.910   7.717  0.0388  0.6699  0.0326
  499MOL0     H65842  -1.803   8.755   7.969  1.2427 -1.7617 -0.4108
  499MOL0     H65843  -1.721   8.695   7.835  1.0307 -1.1525  3.3741
  499MOL0     H65844  -1.930   8.747   7.680 -1.1187 -0.5263 -0.2705
  499MOL0     H65845  -2.013   8.799   7.829 -0.6821 -0.7548 -0.0720
  499MOL0     H65846  -1.907   8.528   7.751  0.4537  2.1147 -0.6718
  499MOL0     H65847  -1.949   8.555   7.922  0.8414  1.0489  0.8704
  499MOL0     H65848  -2.137   8.449   7.793  0.7776 -0.2173  2.1478
  499MOL0     H65849  -2.146   8.603   7.703 -1.1049  0.2215  0.3045
  499MOL0     H65850  -1.429   9.515   7.849 -0.4912  0.2255 -0.0141
  499MOL0     H65851  -1.211   9.654   7.879  1.7235 -0.1977 -0.2060
  499MOL0     H65852  -0.818   9.755   8.327 -0.3419 -1.2795  0.1566
  499MOL0     H65853  -0.610   9.866   8.317 -1.0301  0.0150  0.4146
  499MOL0     H65854   0.697   9.393   8.428 -2.5664 -1.8929 -1.0770
  499MOL0     H65855   0.629   9.177   8.506 -0.2749  0.5016 -0.5261
  499MOL0     H65856   0.459   9.010   8.994 -1.2714 -0.0706  0.2857
  499MOL0     H65857   0.354   8.845   9.124  1.5398  1.4040 -0.1624
  499MOL0     H65858   0.147   8.722   9.153 -0.9574 -1.4374 -1.4082
  499MOL0     H65859   0.279   8.643   9.240 -0.3904 -0.6608  0.7644
  499MOL0     H65860   0.031   8.536   9.270 -2.0816 -0.9244 -2.1057
  499MOL0     H65861   0.046   8.495   9.097  0.8226 -1.2245  0.2519
  499MOL0     H65862   0.261   8.403   9.296 -0.7526 -0.9857  1.7983
  499MOL0     H65863   0.228   8.338   9.138  0.8435 -3.8844  1.7743
  499MOL0     H65864   0.150   8.188   9.324 -1.5043 -0.1693  1.6712
  499MOL0     H65865   0.025   8.310   9.380 -2.0858 -0.1103 -0.8853
  499MOL0     H65866  -0.127   8.111   9.037  0.7977  1.4787 -1.9850
  499MOL0     H65867   0.297   8.597   8.785  2.0460 -1.4036  1.0213
  499MOL0     H65868   0.393   8.772   8.634 -3.8616  1.9164 -0.4498
  500MOL0     O65869   3.191   8.967   5.219  0.8477  0.1402  0.5240
  500MOL0     C65870   3.263   9.015   5.309  0.4725  0.5608 -0.0437
  500MOL0     O65871   3.254   8.983   5.446 -0.0854  0.0857 -0.1164
  500MOL0     C65872   3.155   8.891   5.474  0.6806 -0.0146 -0.4571
  500MOL0     C65873   3.193   8.769   5.535  0.8329 -0.0649 -0.4981
  500MOL0     C65874   3.094   8.696   5.608 -0.1897  0.3220 -0.1154
  500MOL0     C65875   2.960   8.727   5.598 -0.1108  0.4657  0.4709
  500MOL0     O65876   2.878   8.628   5.640  0.6468  0.6227 -0.3975
  500MOL0     C65877   2.751   8.621   5.583 -0.1532 -0.1272 -0.0841
  500MOL0     C65878   2.676   8.505   5.649 -0.3428 -0.3172 -0.0598
  500MOL0     C65879   2.544   8.474   5.582 -0.0321 -0.3643  0.3062
  500MOL0     C65880   2.484   8.347   5.651 -0.1450 -0.4620 -0.1171
  500MOL0     C65881   2.338   8.348   5.627  1.1235  0.7891 -0.3182
  500MOL0     C65882   2.274   8.205   5.626 -0.6359 -0.5236 -0.3114
  500MOL0     C65883   2.120   8.198   5.655 -0.6409 -0.1135  0.1436
  500MOL0     C65884   2.055   8.065   5.610 -0.2286 -0.2068  0.3011
  500MOL0     N65885   1.916   8.068   5.657 -0.3140 -0.0041 -0.0057
  500MOL0     C65886   1.880   8.033   5.781  1.1253 -0.1579  0.7000
  500MOL0     C65887   1.741   8.069   5.785  0.1074 -0.3814  1.0501
  500MOL0     C65888   1.652   8.057   5.903 -0.3295 -0.4156 -0.3630
  500MOL0     C65889   1.563   7.934   5.900 -0.4003  0.8115 -0.1472
  500MOL0     C65890   1.462   7.933   5.786 -0.1010 -0.3449 -0.4052
  500MOL0     C65891   1.365   7.818   5.792  0.2184 -0.1328 -0.2821
  500MOL0     O65892   1.299   7.805   5.917  0.2407  0.1898 -0.0041
  500MOL0     C65893   1.166   7.772   5.914  0.0278 -0.4736  0.0025
  500MOL0     C65894   1.132   7.651   5.864 -0.1700  0.2169  0.2110
  500MOL0     C65895   0.998   7.608   5.850 -0.3526  0.0160  0.5196
  500MOL0     C65896   0.898   7.690   5.899 -0.2346  0.0831  0.1321
  500MOL0     C65897   0.763   7.633   5.919  0.7217  0.2505  0.5501
  500MOL0     O65898   0.662   7.722   5.913 -0.3892 -0.7866  0.2552
  500MOL0     C65899   0.558   7.680   5.987  0.2739  0.4516 -0.1813
  500MOL0     C65900   0.557   7.678   6.125 -0.0992 -0.3810 -0.6026
  500MOL0     C65901   0.444   7.635   6.199 -0.6940 -0.2384 -0.1282
  500MOL0     C65902   0.330   7.590   6.139  1.3847  1.0115 -0.8615
  500MOL0     O65903   0.228   7.529   6.209  0.6904 -0.1045 -0.0124
  500MOL0     C65904   0.263   7.449   6.326 -0.6016 -0.2655  0.3744
  500MOL0     C65905   0.131   7.386   6.361 -0.1924 -0.4260  0.0076
  500MOL0     C65906   0.132   7.310   6.498  0.2107 -0.1863 -0.7366
  500MOL0     C65907  -0.012   7.279   6.539  0.1268 -0.7916 -0.4132
  500MOL0     C65908  -0.064   7.150   6.462  0.5093 -0.2498  0.7034
  500MOL0     C65909  -0.203   7.104   6.523 -0.3079 -0.0016 -0.4373
  500MOL0     C65910  -0.278   6.991   6.455 -0.9094 -0.9281 -1.0717
  500MOL0     C65911  -0.206   6.928   6.351 -0.7332  0.1907  0.6604
  500MOL0    Cl65912  -0.312   6.801   6.281 -0.1790 -0.3299 -0.1602
  500MOL0     C65913   0.327   7.592   5.998 -0.9365 -0.2006  0.6415
  500MOL0     C65914   0.443   7.634   5.930 -0.3390 -0.4939  1.1589
  500MOL0     O65915   0.758   7.508   5.932  0.3770 -0.0432 -0.5242
  500MOL0     C65916   0.932   7.810   5.961  0.5689 -0.3831 -0.0807
  500MOL0     C65917   1.068   7.850   5.972  0.4601 -0.1445  0.1132
  500MOL0     N65918   1.702   8.110   5.655  0.1196  0.4223  0.1766
  500MOL0     N65919   1.806   8.099   5.579  0.2278 -0.0158  0.7383
  500MOL0     C65920   2.923   8.837   5.528  0.5018  0.2730  0.6491
  500MOL0     C65921   3.015   8.925   5.463  0.1048 -0.5154 -0.3830
  500MOL0     C65922   3.345   9.126   5.274 -0.5252 -0.1357  0.2058
  500MOL0     C65923   3.458   9.157   5.353  0.9405  0.2473  0.4007
  500MOL0     C65924   3.527   9.277   5.333 -0.2171 -0.0404 -0.2299
  500MOL0     C65925   3.489   9.359   5.219 -0.1758  0.1121  0.2800
  500MOL0     O65926   3.551   9.477   5.184  0.0932 -0.5624 -0.2941
  500MOL0     C65927   3.668   9.525   5.258 -0.3799 -0.3743 -0.1753
  500MOL0     C65928   3.724   9.640   5.177  0.4945  0.3995 -0.3827
  500MOL0     C65929   3.817   9.743   5.249 -0.3779  0.6243  1.0733
  500MOL0     C65930   3.752   9.869   5.318 -0.1289  0.7150  0.5749
  500MOL0     C65931   3.848   9.949   5.396 -0.3087  0.1483  0.2851
  500MOL0     C65932   3.922  10.017   5.457  1.0475  0.4858 -0.0651
  500MOL0     C65933   3.388   9.322   5.140  0.3951  0.0282  0.2147
  500MOL0     C65934   3.309   9.207   5.168  0.6603 -0.3343 -0.3445
  500MOL0     H65935   3.297   8.740   5.545  1.3293  2.3849  3.2032
  500MOL0     H65936   3.125   8.606   5.660 -1.0285  0.0352 -0.0960
  500MOL0     H65937   2.763   8.587   5.480  2.4784 -1.8479  0.7026
  500MOL0     H65938   2.689   8.711   5.590 -0.5089 -0.3308 -0.5517
  500MOL0     H65939   2.649   8.538   5.750 -2.1464 -0.3779 -0.4792
  500MOL0     H65940   2.733   8.413   5.655 -0.2010 -0.3533 -1.6455
  500MOL0     H65941   2.559   8.452   5.476  1.3744  3.7005 -0.5061
  500MOL0     H65942   2.477   8.559   5.599  3.8392  3.4100 -1.4471
  500MOL0     H65943   2.520   8.258   5.598 -2.8559 -0.7979 -1.5518
  500MOL0     H65944   2.507   8.341   5.758 -0.6326 -1.3751 -0.0557
  500MOL0     H65945   2.324   8.401   5.532 -1.8902  0.0228 -0.3988
  500MOL0     H65946   2.285   8.407   5.703 -1.5704 -1.8775  0.0711
  500MOL0     H65947   2.324   8.143   5.701  2.6698  1.0708 -1.0300
  500MOL0     H65948   2.296   8.158   5.530  0.3034  0.3060 -0.5200
  500MOL0     H65949   2.096   8.219   5.760 -1.3644  1.3772 -0.3016
  500MOL0     H65950   2.068   8.279   5.604 -1.1800 -1.1324 -0.9596
  500MOL0     H65951   2.115   7.984   5.651 -0.0342  0.1577  0.7405
  500MOL0     H65952   2.066   8.060   5.501  0.0313 -1.3921  0.3753
  500MOL0     H65953   1.938   7.999   5.866  0.5664  1.6265  1.8513
  500MOL0     H65954   1.601   8.153   5.917  1.7287  1.2790 -3.2217
  500MOL0     H65955   1.709   8.041   5.995 -2.3671  0.8531  1.1969
  500MOL0     H65956   1.505   7.922   5.992 -1.6929 -0.7444 -1.1138
  500MOL0     H65957   1.634   7.851   5.897  2.4783  2.9715  2.0244
  500MOL0     H65958   1.402   8.025   5.793  2.5073  1.7769 -3.2491
  500MOL0     H65959   1.509   7.921   5.688 -0.0596 -2.7692 -0.1575
  500MOL0     H65960   1.418   7.724   5.771 -3.9042 -2.5737 -0.9984
  500MOL0     H65961   1.301   7.837   5.706  0.6695 -2.0426 -1.1047
  500MOL0     H65962   1.211   7.586   5.829  0.2893  2.6019 -3.8781
  500MOL0     H65963   0.984   7.514   5.798 -2.4992  0.7471 -0.3405
  500MOL0     H65964   0.645   7.701   6.184 -0.2202  0.4415 -0.7284
  500MOL0     H65965   0.457   7.652   6.305 -0.3169  0.2409 -0.2502
  500MOL0     H65966   0.308   7.507   6.408 -1.2388 -0.2655  0.7351
  500MOL0     H65967   0.332   7.366   6.306 -2.6763 -1.7662 -0.9634
  500MOL0     H65968   0.101   7.324   6.276 -2.8165  0.0801  0.4788
  500MOL0     H65969   0.055   7.464   6.354 -1.1199 -1.1889  1.1038
  500MOL0     H65970   0.165   7.376   6.579 -3.4579  2.2820 -1.0465
  500MOL0     H65971   0.200   7.224   6.493  1.0020  0.5156 -3.3643
  500MOL0     H65972  -0.015   7.255   6.646  1.8846 -0.3404 -0.2256
  500MOL0     H65973  -0.069   7.369   6.517  0.9580 -0.3075 -0.6042
  500MOL0     H65974   0.013   7.073   6.474  1.5293  0.3483 -1.4148
  500MOL0     H65975  -0.075   7.169   6.354 -0.0167  0.1834  0.8308
  500MOL0     H65976  -0.266   7.194   6.515  1.4333  1.6681  2.5781
  500MOL0     H65977  -0.184   7.074   6.626 -0.4797  0.2051 -0.3425
  500MOL0     H65978  -0.294   6.913   6.529 -1.5070 -0.6555 -0.9130
  500MOL0     H65979  -0.376   7.035   6.432 -1.0286 -0.1546  0.7749
  500MOL0     H65980  -0.110   6.897   6.392 -0.0602 -1.0242 -1.6669
  500MOL0     H65981  -0.193   7.008   6.277 -1.6599 -0.3333 -0.0997
  500MOL0     H65982   0.242   7.547   5.948  0.5181 -2.3572 -0.0089
  500MOL0     H65983   0.436   7.623   5.823 -0.4673 -0.0647  1.1204
  500MOL0     H65984   0.858   7.877   6.002  1.8645  0.8097  0.4138
  500MOL0     H65985   1.085   7.950   6.010  0.9959  1.0881 -3.0109
  500MOL0     H65986   2.819   8.869   5.522  0.4997  0.0526 -1.1366
  500MOL0     H65987   2.980   9.020   5.425  1.6989  1.4880  2.7331
  500MOL0     H65988   3.482   9.083   5.429 -1.2149 -2.7152 -1.5352
  500MOL0     H65989   3.613   9.299   5.395  0.7835 -1.4521 -1.0643
  500MOL0     H65990   3.739   9.442   5.260 -0.3977 -0.3881 -0.1441
  500MOL0     H65991   3.644   9.558   5.360  2.0065  0.4159  0.1990
  500MOL0     H65992   3.778   9.593   5.095 -1.4731 -1.6080 -0.6177
  500MOL0     H65993   3.641   9.692   5.127  0.6149  0.5731 -0.4030
  500MOL0     H65994   3.895   9.781   5.183 -0.7551 -0.4891 -0.0604
  500MOL0     H65995   3.858   9.684   5.332  0.6846  1.0427  0.8589
  500MOL0     H65996   3.696   9.930   5.247  2.3083  0.9612 -1.2530
  500MOL0     H65997   3.680   9.838   5.395  0.7337 -0.3102  0.9960
  500MOL0     H65998   3.986  10.089   5.504  0.1179  0.2527  1.6619
  500MOL0     H65999   3.369   9.381   5.051  0.6441 -2.7012 -1.7847
  500MOL0     H66000   3.233   9.179   5.095  0.7415 -1.1949 -0.1139
  501MOL0     O66001   9.521   0.283   6.018 -0.5970  1.0146  0.7095
  501MOL0     C66002   9.517   0.268   5.893 -0.0734 -0.4662 -0.8141
  501MOL0     O66003   9.405   0.256   5.819 -0.1634 -0.2362  0.3088
  501MOL0     C66004   9.293   0.204   5.880 -0.2441  0.6102  0.0860
  501MOL0     C66005   9.292   0.105   5.985 -0.5505 -1.3222 -0.0935
  501MOL0     C66006   9.170   0.070   6.047 -0.3224 -0.2114  0.5396
  501MOL0     C66007   9.044   0.120   6.006 -0.4422 -0.7919  0.1116
  501MOL0     O66008   8.931   0.064   6.063  0.2058 -0.1908 -0.1479
  501MOL0     C66009   8.805   0.102   6.025  0.3041  0.4292  0.5306
  501MOL0     C66010   8.696   0.029   6.114 -0.6300 -0.6022  0.2436
  501MOL0     C66011   8.551   0.055   6.067  0.0786 -0.5099 -0.8254
  501MOL0     C66012   8.457  -0.015   6.165 -1.3411  0.6156  0.2190
  501MOL0     C66013   8.315  -0.017   6.106  0.1695 -0.1740 -0.9107
  501MOL0     C66014   8.266   0.123   6.103  0.4982 -0.5621  0.0765
  501MOL0     C66015   8.116   0.132   6.077 -0.0377 -0.1353  0.4797
  501MOL0     C66016   8.037   0.084   6.201 -0.2131  0.8401 -0.3572
  501MOL0     N66017   7.933   0.182   6.247 -0.1122 -0.0885  0.6599
  501MOL0     C66018   7.796   0.148   6.233 -0.1556 -0.2556  0.7927
  501MOL0     C66019   7.727   0.237   6.308  0.2380  0.1845 -0.2060
  501MOL0     C66020   7.582   0.238   6.334 -0.2401  0.6332 -0.0071
  501MOL0     C66021   7.505   0.327   6.239  1.0171  0.3083 -0.2523
  501MOL0     C66022   7.507   0.263   6.098 -0.3162  0.4508  0.1639
  501MOL0     C66023   7.397   0.327   6.011  0.1865  0.0540  0.9491
  501MOL0     O66024   7.392   0.271   5.882  0.0814  0.7179  0.5249
  501MOL0     C66025   7.471   0.323   5.776 -0.7982 -1.4501 -0.6321
  501MOL0     C66026   7.473   0.265   5.648  0.1684 -0.1801 -0.4761
  501MOL0     C66027   7.534   0.316   5.531 -0.0162  0.8850 -0.3475
  501MOL0     C66028   7.631   0.412   5.549 -0.4946 -0.4229 -0.2912
  501MOL0     C66029   7.719   0.461   5.432  0.0153  0.3310 -0.2711
  501MOL0     O66030   7.822   0.547   5.472 -0.2179 -0.3782  0.2611
  501MOL0     C66031   7.921   0.566   5.386 -0.1967 -0.2433  1.0226
  501MOL0     C66032   7.926   0.674   5.292 -0.2965  0.2402  0.5145
  501MOL0     C66033   8.040   0.688   5.216 -0.4093 -0.1044 -0.4222
  501MOL0     C66034   8.152   0.614   5.227 -0.7446  0.1274  0.3904
  501MOL0     O66035   8.259   0.655   5.149 -0.9381 -0.2258 -0.1899
  501MOL0     C66036   8.394   0.646   5.208  0.7634 -0.4217 -0.4907
  501MOL0     C66037   8.421   0.773   5.291 -0.1461  0.1845 -0.0974
  501MOL0     C66038   8.526   0.766   5.399 -0.2964 -0.1643  0.4154
  501MOL0     C66039   8.569   0.907   5.458 -0.0922 -0.1707 -0.2201
  501MOL0     C66040   8.666   0.881   5.586  0.7387 -0.3801  0.0043
  501MOL0     C66041   8.674   1.005   5.665 -0.1305 -0.8269 -0.1000
  501MOL0     C66042   8.766   1.112   5.601  0.1550 -0.5222 -0.8682
  501MOL0     C66043   8.793   1.223   5.708 -0.3532  0.3163  0.4204
  501MOL0    Cl66044   8.894   1.153   5.846 -0.1793 -0.2267  0.0100
  501MOL0     C66045   8.155   0.509   5.318  0.2004 -0.2780 -0.2540
  501MOL0     C66046   8.040   0.484   5.392 -1.5459 -0.1602 -0.2642
  501MOL0     O66047   7.707   0.406   5.323 -0.4392 -0.4481 -0.6551
  501MOL0     C66048   7.648   0.463   5.685 -0.6650  0.1661  0.3763
  501MOL0     C66049   7.565   0.424   5.793 -0.6043 -0.9195  1.0404
  501MOL0     N66050   7.818   0.321   6.359 -0.2718 -0.3355 -0.7519
  501MOL0     N66051   7.936   0.292   6.332 -0.7896 -0.7236 -0.2858
  501MOL0     C66052   9.052   0.220   5.901  0.1724 -0.5344 -0.5945
  501MOL0     C66053   9.173   0.259   5.847 -0.0341  0.5645 -0.5471
  501MOL0     C66054   9.644   0.262   5.821  0.7008  0.1537 -0.0571
  501MOL0     C66055   9.756   0.214   5.891 -0.0250 -0.2835 -0.9797
  501MOL0     C66056   9.878   0.195   5.829 -0.2357 -0.8146 -0.1477
  501MOL0     C66057   9.895   0.224   5.691  0.1695 -0.6065 -0.7158
  501MOL0     O66058  10.016   0.190   5.639  0.6631 -0.0541  0.6557
  501MOL0     C66059  10.056   0.267   5.520 -0.1455  0.0898 -0.0464
  501MOL0     C66060  10.038   0.174   5.395 -0.1331 -0.8128 -0.3245
  501MOL0     C66061  10.117   0.047   5.407  1.0508 -0.5132  0.0086
  501MOL0     C66062  10.109  -0.045   5.289 -0.4170 -0.4476 -0.3592
  501MOL0     C66063  10.218  -0.150   5.312  0.9440  0.1736 -0.5437
  501MOL0     C66064  10.297  -0.237   5.336 -0.1865 -0.4622 -0.5098
  501MOL0     C66065   9.784   0.251   5.615 -0.3769  0.4863 -0.1634
  501MOL0     C66066   9.665   0.280   5.681  0.2639  0.5262  0.8622
  501MOL0     H66067   9.392   0.068   6.009  0.7469 -0.1534 -3.2495
  501MOL0     H66068   9.180  -0.002   6.127  3.6173 -2.1853 -1.4368
  501MOL0     H66069   8.796   0.064   5.923 -0.6531  0.0269  0.7558
  501MOL0     H66070   8.797   0.211   6.020 -1.3705  0.3100  0.0726
  501MOL0     H66071   8.700   0.060   6.219  1.1876 -2.2218  0.7078
  501MOL0     H66072   8.715  -0.079   6.110 -2.0717 -0.8458 -1.3502
  501MOL0     H66073   8.531   0.025   5.964  1.2528  0.2608 -1.3115
  501MOL0     H66074   8.530   0.163   6.071 -0.0461 -0.4817 -1.8699
  501MOL0     H66075   8.493  -0.118   6.165  4.4776  2.3139 -0.2003
  501MOL0     H66076   8.464   0.034   6.263 -2.4588 -0.3033  0.7921
  501MOL0     H66077   8.259  -0.076   6.179  1.5140  1.7598  1.8608
  501MOL0     H66078   8.316  -0.056   6.004 -0.3520 -0.3715 -0.8420
  501MOL0     H66079   8.324   0.169   6.023  0.6633  2.2694  1.6794
  501MOL0     H66080   8.276   0.183   6.194  0.8636 -0.2699 -0.1527
  501MOL0     H66081   8.083   0.232   6.048  0.1012 -0.3689 -0.5251
  501MOL0     H66082   8.083   0.074   5.990 -2.3848  0.1221  1.1425
  501MOL0     H66083   8.105   0.079   6.287 -0.2116 -0.4802 -0.4239
  501MOL0     H66084   7.984  -0.010   6.183 -0.9851  0.9529  1.1935
  501MOL0     H66085   7.751   0.060   6.189 -0.9886 -0.3006  1.7038
  501MOL0     H66086   7.579   0.271   6.439  0.6992  2.6899 -0.5818
  501MOL0     H66087   7.537   0.139   6.318 -2.6485  1.8205 -1.0103
  501MOL0     H66088   7.530   0.431   6.261 -2.0922  0.7909  1.5926
  501MOL0     H66089   7.399   0.322   6.267  0.6526  3.3249 -0.7672
  501MOL0     H66090   7.602   0.296   6.054  1.5931 -2.4119  1.8083
  501MOL0     H66091   7.508   0.154   6.093 -0.8087  0.3619  1.5890
  501MOL0     H66092   7.406   0.435   6.005  0.0843 -0.0191 -1.4005
  501MOL0     H66093   7.301   0.298   6.054 -0.4772 -2.3000 -1.8012
  501MOL0     H66094   7.398   0.189   5.628 -0.5088  0.5148 -0.6445
  501MOL0     H66095   7.517   0.264   5.437  0.7556 -1.5128  0.7698
  501MOL0     H66096   7.845   0.745   5.283  1.3218  2.0526 -0.3994
  501MOL0     H66097   8.039   0.761   5.136  0.8260 -0.3905 -0.7128
  501MOL0     H66098   8.476   0.632   5.136  2.1424  1.5255  0.5841
  501MOL0     H66099   8.405   0.564   5.280  2.5099  2.1260  2.4283
  501MOL0     H66100   8.326   0.808   5.331 -0.0429  3.4860 -2.3308
  501MOL0     H66101   8.450   0.846   5.216 -0.9626 -0.0210 -0.6236
  501MOL0     H66102   8.616   0.725   5.353 -0.1409  1.2218 -0.5682
  501MOL0     H66103   8.486   0.700   5.477  3.4014  2.0298  4.5981
  501MOL0     H66104   8.617   0.956   5.373  0.7644 -0.8482 -0.1429
  501MOL0     H66105   8.484   0.965   5.495 -1.7481 -2.2884 -0.5176
  501MOL0     H66106   8.764   0.838   5.566  0.8724 -1.3046  2.4060
  501MOL0     H66107   8.622   0.804   5.648 -1.0103 -1.0347 -1.9241
  501MOL0     H66108   8.703   0.968   5.763 -1.6824  1.0160  1.1361
  501MOL0     H66109   8.577   1.057   5.668  0.7858  1.0666 -1.2289
  501MOL0     H66110   8.864   1.076   5.568  1.5359  2.8201 -0.7964
  501MOL0     H66111   8.724   1.157   5.511 -0.3123 -0.9521 -0.8699
  501MOL0     H66112   8.696   1.264   5.738 -0.8654 -0.3685 -0.2324
  501MOL0     H66113   8.855   1.301   5.663 -0.1599 -1.6829 -3.2279
  501MOL0     H66114   8.242   0.445   5.331 -0.7741 -1.1154  2.8148
  501MOL0     H66115   8.032   0.393   5.451 -1.6824  1.0903  1.7447
  501MOL0     H66116   7.733   0.525   5.711  1.4141 -2.1452 -0.5181
  501MOL0     H66117   7.586   0.460   5.893 -0.0263  0.0115  0.5992
  501MOL0     H66118   8.960   0.258   5.858  1.3391  0.7980 -2.0243
  501MOL0     H66119   9.163   0.337   5.772 -3.6744  1.1730  0.3650
  501MOL0     H66120   9.743   0.181   5.994  0.2834  2.1957 -0.0780
  501MOL0     H66121   9.956   0.135   5.877 -1.9539 -2.8366  0.2695
  501MOL0     H66122  10.158   0.303   5.529 -0.0836  0.3263 -1.3930
  501MOL0     H66123   9.998   0.359   5.516 -1.8039 -0.7784  2.1043
  501MOL0     H66124   9.933   0.145   5.391 -0.3447 -0.3801  1.4393
  501MOL0     H66125  10.067   0.229   5.304  3.9375 -3.6296 -0.9865
  501MOL0     H66126  10.095  -0.003   5.501  0.4379 -0.9851 -0.3785
  501MOL0     H66127  10.217   0.086   5.425  0.7812  0.0046  0.4195
  501MOL0     H66128  10.005  -0.079   5.282 -0.8899  0.5630  1.3283
  501MOL0     H66129  10.126   0.010   5.195 -4.1133  1.9511  0.1763
  501MOL0     H66130  10.385  -0.298   5.338 -0.1884 -0.5318 -1.9201
  501MOL0     H66131   9.788   0.254   5.507 -1.5418 -1.2896 -0.3107
  501MOL0     H66132   9.578   0.315   5.627  0.1804  0.6041  1.0490
  502MOL0     O66133   8.834   7.395   1.458  0.0943  0.0949 -0.0533
  502MOL0     C66134   8.919   7.480   1.481 -0.2617  0.6009 -0.1160
  502MOL0     O66135   8.904   7.620   1.478 -0.6736 -0.5108 -0.1910
  502MOL0     C66136   8.786   7.667   1.432  0.5196 -0.7952  0.1143
  502MOL0     C66137   8.766   7.679   1.289 -0.4703  0.0720 -1.0181
  502MOL0     C66138   8.634   7.708   1.243 -0.1991  0.1103  0.1738
  502MOL0     C66139   8.531   7.726   1.332 -0.2929  0.0293  0.6909
  502MOL0     O66140   8.400   7.753   1.316 -0.5526  0.7867  1.1455
  502MOL0     C66141   8.350   7.765   1.179 -0.5800  0.3548  0.5768
  502MOL0     C66142   8.314   7.630   1.131 -0.1923 -0.2415  0.0635
  502MOL0     C66143   8.257   7.630   0.989  0.6373 -1.3043 -1.0912
  502MOL0     C66144   8.189   7.490   0.980  0.1073 -0.1031 -0.7652
  502MOL0     C66145   8.151   7.443   0.842 -0.8798  0.6853  0.3446
  502MOL0     C66146   8.273   7.414   0.745 -0.3038 -0.5792  0.5353
  502MOL0     C66147   8.320   7.271   0.750 -0.6187  0.2561 -0.1850
  502MOL0     C66148   8.261   7.182   0.640 -0.6979 -0.1376  0.0084
  502MOL0     N66149   8.136   7.109   0.674 -0.2324 -0.5295  0.5286
  502MOL0     C66150   8.010   7.140   0.638  1.0418 -0.0912 -0.5516
  502MOL0     C66151   7.931   7.049   0.694  0.7760  0.9046 -0.2800
  502MOL0     C66152   7.781   7.073   0.706  0.6433  0.9090 -0.4913
  502MOL0     C66153   7.696   6.957   0.655  0.2985 -0.3929  0.0967
  502MOL0     C66154   7.553   6.975   0.683 -0.3601  0.9772  0.5153
  502MOL0     C66155   7.502   6.966   0.827 -0.0279  0.0664  0.2392
  502MOL0     O66156   7.397   7.060   0.842 -0.4439  0.3979 -0.0775
  502MOL0     C66157   7.275   7.031   0.783  0.8255  0.5971 -0.5495
  502MOL0     C66158   7.214   7.122   0.704 -0.1193  0.1515 -0.1019
  502MOL0     C66159   7.088   7.122   0.651 -0.3952  0.3435 -0.3944
  502MOL0     C66160   7.004   7.022   0.697  0.5135  0.6236  0.6226
  502MOL0     C66161   6.861   7.029   0.652  0.0195  0.7206 -1.0446
  502MOL0     O66162   6.773   6.968   0.730 -0.3756 -0.7400 -0.1060
  502MOL0     C66163   6.649   7.011   0.735  0.3859 -0.7519 -0.4360
  502MOL0     C66164   6.610   7.039   0.865  0.3481 -0.0463 -0.2929
  502MOL0     C66165   6.483   7.088   0.892  0.1132 -0.2763 -0.6767
  502MOL0     C66166   6.392   7.114   0.789  0.6543  0.9647  0.4259
  502MOL0     O66167   6.265   7.171   0.814 -0.0252  0.8166  0.6133
  502MOL0     C66168   6.253   7.259   0.933 -0.6262  0.0797  0.1038
  502MOL0     C66169   6.120   7.332   0.935 -0.0211  0.2892  0.1030
  502MOL0     C66170   6.109   7.438   0.828  0.6325 -0.6818  0.5731
  502MOL0     C66171   5.980   7.514   0.842  0.8804 -0.1596 -0.3305
  502MOL0     C66172   5.961   7.613   0.731 -0.0482  0.1558 -0.9161
  502MOL0     C66173   5.824   7.685   0.753  0.2326  0.3223  0.3625
  502MOL0     C66174   5.812   7.804   0.658  0.2938  0.3305 -0.6005
  502MOL0     C66175   5.689   7.887   0.699  0.8176  0.3010 -0.2070
  502MOL0    Cl66176   5.539   7.783   0.697 -0.1353  0.2156  0.1892
  502MOL0     C66177   6.428   7.079   0.664  0.7302 -0.5682 -0.1412
  502MOL0     C66178   6.554   7.029   0.633  0.4545  0.0912  0.0134
  502MOL0     O66179   6.831   7.100   0.557 -0.0307  0.0630 -0.2946
  502MOL0     C66180   7.057   6.920   0.778  1.2162  0.0148  1.0611
  502MOL0     C66181   7.191   6.924   0.822 -0.2620  0.0878 -0.0667
  502MOL0     N66182   8.009   6.962   0.769 -0.7471  0.5207  0.7185
  502MOL0     N66183   8.139   6.994   0.750  0.2459 -0.4074  0.2739
  502MOL0     C66184   8.562   7.735   1.467 -0.1076  0.1970 -0.8614
  502MOL0     C66185   8.681   7.702   1.522 -0.1698 -0.9199 -0.4073
  502MOL0     C66186   9.048   7.426   1.536  0.4038  0.2155  0.5607
  502MOL0     C66187   9.075   7.289   1.531  0.3689  0.2190  0.5959
  502MOL0     C66188   9.196   7.242   1.582  0.2102 -0.0166 -0.7751
  502MOL0     C66189   9.295   7.323   1.636 -0.1268 -0.6824  0.3805
  502MOL0     O66190   9.406   7.265   1.700  0.4316  0.1462 -0.2587
  502MOL0     C66191   9.517   7.347   1.738 -0.0207 -0.2407 -0.1557
  502MOL0     C66192   9.646   7.271   1.749 -0.2890  0.5701 -0.5182
  502MOL0     C66193   9.775   7.355   1.770  0.2937 -0.4127  0.0677
  502MOL0     C66194   9.827   7.409   1.633 -1.0348  0.6675  0.4682
  502MOL0     C66195   9.926   7.517   1.649  0.2726 -0.6099  0.1496
  502MOL0     C66196   9.997   7.619   1.649  0.7867  0.6627 -0.1323
  502MOL0     C66197   9.275   7.470   1.629  0.3877 -0.6803  0.1146
  502MOL0     C66198   9.156   7.513   1.569  0.3618 -0.0787 -0.5868
  502MOL0     H66199   8.850   7.676   1.222 -1.5751  2.0733 -2.6145
  502MOL0     H66200   8.611   7.724   1.138 -2.9171 -1.6855  0.3872
  502MOL0     H66201   8.426   7.815   1.119 -0.5662 -0.5327 -0.1663
  502MOL0     H66202   8.253   7.812   1.160 -1.4390  0.2057  3.8613
  502MOL0     H66203   8.243   7.592   1.205  1.1234  1.4567  2.3697
  502MOL0     H66204   8.405   7.569   1.125 -0.0294  0.1295 -1.4862
  502MOL0     H66205   8.325   7.661   0.910  1.4924  1.0660  0.4877
  502MOL0     H66206   8.183   7.711   0.987  0.3797 -1.5544 -2.4067
  502MOL0     H66207   8.262   7.415   1.012  0.0073 -0.2976 -0.9897
  502MOL0     H66208   8.093   7.488   1.031 -0.6106 -0.3590 -2.0746
  502MOL0     H66209   8.081   7.516   0.800  1.6899  4.5870  2.2457
  502MOL0     H66210   8.087   7.354   0.842 -2.1908  1.5895 -0.4594
  502MOL0     H66211   8.353   7.474   0.789 -0.6516 -0.5919  1.1957
  502MOL0     H66212   8.235   7.438   0.645 -1.4761 -0.9170  0.8800
  502MOL0     H66213   8.427   7.280   0.728 -0.4593  3.5571  1.3599
  502MOL0     H66214   8.320   7.237   0.854 -2.7598 -0.0168 -0.2215
  502MOL0     H66215   8.332   7.098   0.628 -0.9004 -0.7056  2.4056
  502MOL0     H66216   8.258   7.238   0.546 -1.3872 -0.7815 -0.3687
  502MOL0     H66217   7.973   7.233   0.595 -1.4528 -0.6722  0.1839
  502MOL0     H66218   7.759   7.156   0.638 -1.1176  1.2529  0.4221
  502MOL0     H66219   7.752   7.095   0.810  0.2982 -0.3367 -0.3081
  502MOL0     H66220   7.734   6.865   0.701  0.3641  0.7315  2.4269
  502MOL0     H66221   7.710   6.949   0.547  2.2994  0.9304  0.2139
  502MOL0     H66222   7.515   7.064   0.632  2.1303  1.9080  0.1816
  502MOL0     H66223   7.511   6.882   0.642  1.5011  0.6494 -0.7793
  502MOL0     H66224   7.591   6.988   0.887  2.0583 -0.8064 -2.3601
  502MOL0     H66225   7.465   6.865   0.848  2.9383 -1.0617  0.5941
  502MOL0     H66226   7.263   7.213   0.672 -1.8907  0.8908 -0.7898
  502MOL0     H66227   7.057   7.207   0.592 -0.1503  0.2027 -0.7279
  502MOL0     H66228   6.683   7.024   0.943  1.0915 -0.5046 -1.0665
  502MOL0     H66229   6.458   7.124   0.992  1.7841  1.0443 -0.6874
  502MOL0     H66230   6.340   7.325   0.938 -0.4309 -0.2777  2.3471
  502MOL0     H66231   6.257   7.206   1.029  2.2919  1.3711  0.8158
  502MOL0     H66232   6.088   7.358   1.037  0.8798  4.5013 -0.4898
  502MOL0     H66233   6.047   7.256   0.908  1.1396 -0.1285 -2.0507
  502MOL0     H66234   6.109   7.395   0.728 -0.4607 -1.6532  0.9657
  502MOL0     H66235   6.190   7.510   0.844  0.3404 -0.5719  1.6803
  502MOL0     H66236   5.897   7.444   0.829  1.0082 -0.2499 -0.6936
  502MOL0     H66237   5.971   7.557   0.942 -3.9515 -2.7837  0.6537
  502MOL0     H66238   5.958   7.573   0.629 -2.7577  1.1890 -1.3310
  502MOL0     H66239   6.046   7.682   0.734 -1.3119  1.7522 -0.0915
  502MOL0     H66240   5.814   7.711   0.859 -1.7397  1.1834  0.0037
  502MOL0     H66241   5.756   7.608   0.716  1.5120 -1.1277  0.9058
  502MOL0     H66242   5.902   7.867   0.666 -1.8250  3.4176  3.5085
  502MOL0     H66243   5.794   7.779   0.554 -0.3719  0.3579 -0.4988
  502MOL0     H66244   5.680   7.978   0.640 -1.0515 -1.9812 -3.7741
  502MOL0     H66245   5.693   7.908   0.807  0.3010  3.8552 -0.7599
  502MOL0     H66246   6.365   7.109   0.581 -0.5696 -4.1600 -0.6047
  502MOL0     H66247   6.580   7.015   0.529  2.5692 -1.9607  0.7072
  502MOL0     H66248   6.984   6.846   0.808 -2.0569  3.0054  1.1226
  502MOL0     H66249   7.231   6.856   0.896 -0.9337  0.4584  0.6486
  502MOL0     H66250   8.474   7.758   1.526  1.5141 -0.9086  2.1929
  502MOL0     H66251   8.689   7.711   1.630 -2.2121 -0.1521 -0.2737
  502MOL0     H66252   9.001   7.218   1.497 -1.4373  2.0227  0.5423
  502MOL0     H66253   9.202   7.134   1.593 -1.2767 -0.1361 -0.8870
  502MOL0     H66254   9.498   7.404   1.829 -0.6862 -0.7652  0.0468
  502MOL0     H66255   9.536   7.420   1.659  0.4442 -0.3751 -0.1708
  502MOL0     H66256   9.630   7.193   1.824  0.1601 -1.3931 -2.3727
  502MOL0     H66257   9.651   7.206   1.662  2.0001 -0.3326  0.2252
  502MOL0     H66258   9.856   7.297   1.817  0.4632  1.8026  2.7280
  502MOL0     H66259   9.750   7.439   1.835 -0.2966 -1.2995  1.0206
  502MOL0     H66260   9.872   7.329   1.574 -1.3770 -0.3769  1.5975
  502MOL0     H66261   9.736   7.445   1.584 -2.0683 -1.3795  0.7780
  502MOL0     H66262  10.042   7.716   1.650  2.5670 -0.1075 -1.2851
  502MOL0     H66263   9.336   7.552   1.665 -2.1253  0.9562  0.9957
  502MOL0     H66264   9.158   7.621   1.560  2.7503  0.0825  1.0199
  503MOL0     O66265   1.920   7.204   2.492  0.5125  1.4023 -0.0686
  503MOL0     C66266   1.822   7.240   2.543 -0.5967 -0.0287 -0.4714
  503MOL0     O66267   1.784   7.368   2.546  0.2635 -0.2183 -0.3669
  503MOL0     C66268   1.880   7.465   2.513  0.6194 -0.0713 -0.2782
  503MOL0     C66269   1.888   7.505   2.385  1.3344  0.8328 -0.3128
  503MOL0     C66270   1.967   7.612   2.345  0.3100  0.2738  0.6067
  503MOL0     C66271   2.050   7.667   2.435  0.3592 -0.1007  0.4921
  503MOL0     O66272   2.119   7.781   2.391 -0.1508  0.1504  0.4295
  503MOL0     C66273   2.219   7.852   2.463 -0.6510 -0.1047  0.5501
  503MOL0     C66274   2.245   7.987   2.393 -1.0941  0.3307  0.3680
  503MOL0     C66275   2.152   8.096   2.435  1.0975 -0.1777 -0.1148
  503MOL0     C66276   2.161   8.231   2.367 -0.0158  0.1649  1.1532
  503MOL0     C66277   2.302   8.293   2.361 -0.1858  0.0593 -0.4067
  503MOL0     C66278   2.308   8.434   2.302  0.5347  0.0053  0.0306
  503MOL0     C66279   2.445   8.504   2.317 -0.1231 -0.0239  0.6372
  503MOL0     C66280   2.443   8.663   2.297 -0.2426  0.5729 -0.3292
  503MOL0     N66281   2.389   8.746   2.409  0.1351  0.0847  0.5678
  503MOL0     C66282   2.261   8.792   2.432 -0.3207 -0.3366  0.4483
  503MOL0     C66283   2.261   8.835   2.566 -0.4095 -0.7055  0.3754
  503MOL0     C66284   2.146   8.902   2.633  0.0545  0.3739 -0.2492
  503MOL0     C66285   2.172   8.957   2.781  0.0700  0.3864 -0.8283
  503MOL0     C66286   2.054   8.993   2.858 -0.5462 -0.8173  0.8013
  503MOL0     C66287   1.945   9.062   2.778  0.1164 -0.5551 -1.1958
  503MOL0     O66288   1.863   9.115   2.876  0.3984 -0.3096  0.4859
  503MOL0     C66289   1.737   9.066   2.877  0.2596 -0.7680 -0.7765
  503MOL0     C66290   1.685   9.030   3.001  0.4452 -0.1158  0.5769
  503MOL0     C66291   1.556   8.971   3.012 -0.5293 -0.1717 -0.1588
  503MOL0     C66292   1.485   8.946   2.888  0.9910 -0.3982 -1.1765
  503MOL0     C66293   1.339   8.896   2.895 -0.6748 -0.3743  0.0757
  503MOL0     O66294   1.302   8.829   3.013  0.6008  0.2670 -0.0298
  503MOL0     C66295   1.190   8.751   3.018 -0.8953  0.8756 -0.2694
  503MOL0     C66296   1.198   8.614   3.038 -1.0895 -0.0310  0.3418
  503MOL0     C66297   1.088   8.538   3.036 -0.2352 -0.1545 -0.5328
  503MOL0     C66298   0.966   8.604   3.026  0.1325  0.0582  0.2354
  503MOL0     O66299   0.865   8.512   3.023 -0.0794 -0.2024 -0.5910
  503MOL0     C66300   0.730   8.558   3.052 -0.6726  0.2096  0.5483
  503MOL0     C66301   0.710   8.574   3.206  0.2048  0.9253  0.5957
  503MOL0     C66302   0.698   8.446   3.274  0.5279 -1.0980 -0.5194
  503MOL0     C66303   0.560   8.384   3.260  0.5832 -0.5606  0.0436
  503MOL0     C66304   0.562   8.235   3.306  0.1202 -0.1496  0.2830
  503MOL0     C66305   0.421   8.175   3.310 -0.2550  0.0614 -0.3345
  503MOL0     C66306   0.436   8.029   3.358  0.1034 -0.3566 -0.4879
  503MOL0     C66307   0.396   7.930   3.239 -0.1694 -0.4475 -1.1508
  503MOL0    Cl66308   0.460   7.756   3.263  0.7125 -0.3675  0.1447
  503MOL0     C66309   0.957   8.743   3.014  0.4911  0.4544 -0.5704
  503MOL0     C66310   1.068   8.813   3.016 -0.0485 -0.6848 -1.2945
  503MOL0     O66311   1.272   8.916   2.797 -0.1024 -0.4425  0.9172
  503MOL0     C66312   1.547   8.981   2.764 -0.3097  0.5126 -0.4113
  503MOL0     C66313   1.660   9.053   2.763 -0.9932  0.8926  0.0910
  503MOL0     N66314   2.391   8.821   2.618 -0.2363 -0.3296 -0.9826
  503MOL0     N66315   2.462   8.772   2.523  0.4636  0.6227  0.0861
  503MOL0     C66316   2.053   7.612   2.572 -0.1846 -0.1967  0.8503
  503MOL0     C66317   1.971   7.512   2.608  0.3290  1.3428 -0.1478
  503MOL0     C66318   1.732   7.134   2.571  0.6994  0.5518  0.3567
  503MOL0     C66319   1.762   7.000   2.556  0.2306  0.6565  0.2493
  503MOL0     C66320   1.670   6.896   2.575  0.3564 -0.3157  0.2202
  503MOL0     C66321   1.539   6.924   2.604 -0.2391  0.1454  0.2645
  503MOL0     O66322   1.457   6.815   2.610  0.1900 -0.8033 -0.5759
  503MOL0     C66323   1.319   6.857   2.633 -0.5897  0.8381  0.0752
  503MOL0     C66324   1.222   6.736   2.615 -0.4724 -0.4456  0.5753
  503MOL0     C66325   1.234   6.663   2.477  0.4587  0.5958  0.1553
  503MOL0     C66326   1.190   6.735   2.341 -0.5800 -0.5327 -0.7210
  503MOL0     C66327   1.057   6.807   2.351 -0.8661  0.0337 -0.4335
  503MOL0     C66328   0.951   6.865   2.341 -0.6704 -0.8620  0.4284
  503MOL0     C66329   1.512   7.060   2.636 -0.1578 -0.3296  0.4037
  503MOL0     C66330   1.606   7.156   2.617  0.1489  0.2106 -0.0319
  503MOL0     H66331   1.821   7.472   2.306  2.2149  0.1988 -0.8170
  503MOL0     H66332   1.957   7.658   2.248  1.7090 -3.4754 -1.5398
  503MOL0     H66333   2.306   7.788   2.476 -1.4344 -1.4037 -0.4186
  503MOL0     H66334   2.178   7.874   2.562 -0.0317  0.8378  0.6058
  503MOL0     H66335   2.252   7.966   2.286 -0.4101 -1.2376  0.6899
  503MOL0     H66336   2.344   8.020   2.427 -0.0903 -1.3566 -0.7430
  503MOL0     H66337   2.157   8.105   2.543 -2.8760  0.4863  0.1749
  503MOL0     H66338   2.054   8.055   2.409  0.8523  1.2298 -1.6025
  503MOL0     H66339   2.135   8.221   2.261  3.7769 -0.2661  0.1196
  503MOL0     H66340   2.082   8.290   2.414 -1.6616 -0.1212 -1.0955
  503MOL0     H66341   2.374   8.232   2.305 -0.3282 -1.3663  0.8941
  503MOL0     H66342   2.339   8.293   2.464  1.8775  1.3711 -1.0882
  503MOL0     H66343   2.229   8.492   2.352 -0.0806 -2.0960  1.6212
  503MOL0     H66344   2.283   8.428   2.196  0.0552 -1.0237  0.1960
  503MOL0     H66345   2.478   8.506   2.421  1.5489 -1.4961  0.1771
  503MOL0     H66346   2.521   8.445   2.266  0.6231  1.1206  0.4059
  503MOL0     H66347   2.385   8.702   2.213 -2.0016  2.7688  1.7733
  503MOL0     H66348   2.548   8.691   2.284  0.0045 -0.4762 -0.7241
  503MOL0     H66349   2.175   8.785   2.366  0.4664 -1.4899 -0.5094
  503MOL0     H66350   2.082   8.816   2.648 -1.2225  1.4583  0.7589
  503MOL0     H66351   2.091   8.971   2.569 -4.2770 -1.9411  0.6493
  503MOL0     H66352   2.236   9.045   2.777  1.0516 -0.0973  2.0745
  503MOL0     H66353   2.224   8.880   2.838  1.1204  1.0519 -0.8650
  503MOL0     H66354   2.000   8.906   2.895 -2.7331  1.5691  3.7323
  503MOL0     H66355   2.096   9.052   2.940  0.4977  3.5685 -2.4717
  503MOL0     H66356   1.898   8.992   2.709 -0.6226 -0.3735 -0.8835
  503MOL0     H66357   1.985   9.148   2.724 -0.1792  1.0221  0.9765
  503MOL0     H66358   1.743   9.035   3.093  0.2264 -5.2325  1.2652
  503MOL0     H66359   1.507   8.928   3.099 -2.5182 -3.2694 -2.5842
  503MOL0     H66360   1.294   8.566   3.051  0.8602  2.5174 -3.0645
  503MOL0     H66361   1.114   8.433   3.036 -2.3489 -0.7143 -0.7149
  503MOL0     H66362   0.665   8.480   3.010  2.3173 -0.9797 -2.3446
  503MOL0     H66363   0.707   8.646   2.992 -0.3212 -0.6676 -0.9197
  503MOL0     H66364   0.619   8.634   3.217 -1.0448 -0.9766  1.1308
  503MOL0     H66365   0.797   8.633   3.238  0.1913  0.8216  0.8263
  503MOL0     H66366   0.717   8.466   3.380  0.2172 -1.6612 -0.3536
  503MOL0     H66367   0.771   8.372   3.239 -0.4766 -3.3753  1.8683
  503MOL0     H66368   0.487   8.443   3.317 -0.5939  0.8923 -2.7415
  503MOL0     H66369   0.524   8.389   3.157 -3.5249 -3.9559  1.0575
  503MOL0     H66370   0.594   8.222   3.409  0.0744 -1.7954  0.1137
  503MOL0     H66371   0.626   8.179   3.237 -0.5328  1.1593 -1.4850
  503MOL0     H66372   0.370   8.181   3.213 -3.0217 -0.8280  0.9432
  503MOL0     H66373   0.347   8.231   3.368 -1.5680 -1.9438  0.0127
  503MOL0     H66374   0.539   8.014   3.389  0.3453  0.2062 -0.9998
  503MOL0     H66375   0.373   8.007   3.445  0.6873  1.6865  0.5209
  503MOL0     H66376   0.427   7.972   3.144 -1.0272  0.1591 -1.1726
  503MOL0     H66377   0.287   7.928   3.231 -0.2184 -0.2420 -0.5835
  503MOL0     H66378   0.867   8.801   3.000  0.7748  1.0225 -0.0490
  503MOL0     H66379   1.073   8.920   2.998 -1.1138 -0.7851 -2.3267
  503MOL0     H66380   1.494   8.982   2.669 -2.6423 -0.4741  0.7794
  503MOL0     H66381   1.689   9.106   2.673 -0.7765  1.2130  0.3466
  503MOL0     H66382   2.128   7.649   2.640  0.5670  1.6891 -0.8956
  503MOL0     H66383   1.974   7.471   2.708  2.1376 -1.4920 -1.2258
  503MOL0     H66384   1.858   6.968   2.519 -0.3151 -1.1476  0.3289
  503MOL0     H66385   1.696   6.791   2.561 -0.7149 -0.2183 -3.8157
  503MOL0     H66386   1.283   6.930   2.560  1.7873  1.3794 -0.6651
  503MOL0     H66387   1.309   6.911   2.727 -0.2896  3.8029 -1.4762
  503MOL0     H66388   1.242   6.670   2.700  0.8700 -0.6195  0.1584
  503MOL0     H66389   1.119   6.770   2.622 -0.5846 -0.7927  0.6443
  503MOL0     H66390   1.171   6.575   2.492  1.7412  0.1688  4.2749
  503MOL0     H66391   1.334   6.618   2.468 -0.3898 -1.0358 -2.1325
  503MOL0     H66392   1.274   6.802   2.322 -0.3215 -0.0956  1.6475
  503MOL0     H66393   1.177   6.659   2.264 -0.0891 -1.0061 -0.3471
  503MOL0     H66394   0.856   6.913   2.329 -0.1866  0.4771  1.6546
  503MOL0     H66395   1.414   7.090   2.672  0.3063  0.5108  1.0084
  503MOL0     H66396   1.582   7.260   2.636  2.2228  0.8822 -0.7658
  504MOL0     O66397   5.556   8.547  10.087  0.0775  0.0806 -0.8200
  504MOL0     C66398   5.554   8.603   9.977 -0.3289 -0.2534  1.4386
  504MOL0     O66399   5.483   8.709   9.942 -0.0655 -0.3906  0.0568
  504MOL0     C66400   5.387   8.767  10.016  0.3823  0.5959 -0.6537
  504MOL0     C66401   5.336   8.721  10.138  0.2764  0.5909 -0.4018
  504MOL0     C66402   5.233   8.781  10.212  0.4905 -0.4683  0.6583
  504MOL0     C66403   5.177   8.903  10.168 -0.3559  0.0994  0.1494
  504MOL0     O66404   5.087   8.961  10.255  0.0719 -0.6096  0.3573
  504MOL0     C66405   5.015   9.070  10.194 -0.6162 -0.5840 -1.4755
  504MOL0     C66406   4.909   9.122  10.297  0.0859 -0.4452  0.4531
  504MOL0     C66407   4.773   9.043  10.276  0.3456 -1.2657  0.2374
  504MOL0     C66408   4.666   9.083  10.378 -0.7405 -0.2261  0.0845
  504MOL0     C66409   4.532   9.018  10.360  0.9451 -0.4906 -0.0494
  504MOL0     C66410   4.476   9.055  10.226 -0.4551  0.1966  0.2290
  504MOL0     C66411   4.417   9.187  10.230 -0.2412 -0.4511  0.5588
  504MOL0     C66412   4.345   9.224  10.095 -0.9353 -0.5599 -1.1635
  504MOL0     N66413   4.264   9.350  10.108  0.3590  0.1652 -0.0594
  504MOL0     C66414   4.131   9.354  10.146  1.3277 -0.5547  0.8108
  504MOL0     C66415   4.093   9.481  10.143  0.0778 -0.6854  0.6720
  504MOL0     C66416   3.966   9.524  10.218  0.2090 -0.5430  0.0371
  504MOL0     C66417   3.848   9.507  10.121  1.3896  0.4804 -0.4166
  504MOL0     C66418   3.710   9.478  10.190  0.5793  0.5465 -0.1064
  504MOL0     C66419   3.666   9.568  10.299  0.3454  0.0010  0.1922
  504MOL0     O66420   3.540   9.526  10.349  0.4398 -0.7503 -0.3012
  504MOL0     C66421   3.462   9.620  10.418  0.6284  0.2174  0.0717
  504MOL0     C66422   3.321   9.593  10.431 -0.1747  0.4376 -0.0898
  504MOL0     C66423   3.243   9.686  10.495 -0.3270  1.1932  0.3809
  504MOL0     C66424   3.296   9.792  10.564 -0.3373 -0.2011 -0.1697
  504MOL0     C66425   3.201   9.880  10.642 -1.2119  0.5786  0.2784
  504MOL0     O66426   3.064   9.847  10.654 -0.2564  0.6142 -0.5570
  504MOL0     C66427   2.983   9.917  10.736 -0.5611 -0.2698 -0.3194
  504MOL0     C66428   3.019   9.968  10.866 -0.4707 -0.8779  0.1047
  504MOL0     C66429   2.922  10.033  10.940  0.0379 -0.1002  0.8727
  504MOL0     C66430   2.791  10.053  10.891 -0.4096 -0.0330 -0.3947
  504MOL0     O66431   2.685  10.120  10.959 -0.0322  0.2882  0.7060
  504MOL0     C66432   2.681  10.106  11.103  0.9751  0.1041 -0.5464
  504MOL0     C66433   2.541  10.135  11.169 -0.2836  0.6694 -0.6078
  504MOL0     C66434   2.485  10.270  11.126 -0.0668  0.1397  0.7187
  504MOL0     C66435   2.349  10.290  11.210  0.2255  0.8481  0.5845
  504MOL0     C66436   2.254  10.396  11.157 -0.9403 -0.2682 -0.7444
  504MOL0     C66437   2.138  10.424  11.252 -0.3337 -0.0677  0.3803
  504MOL0     C66438   2.063  10.541  11.199 -0.4578  0.3447 -0.5909
  504MOL0     C66439   1.935  10.564  11.268  0.7849 -0.0713  0.2434
  504MOL0    Cl66440   1.828  10.424  11.233 -0.5268  0.0691  0.4029
  504MOL0     C66441   2.755   9.993  10.770 -0.2877  1.1191 -0.0815
  504MOL0     C66442   2.856   9.934  10.690 -0.3030  0.5265  0.6841
  504MOL0     O66443   3.259   9.984  10.679  0.3349 -0.5044 -0.0684
  504MOL0     C66444   3.434   9.812  10.557  0.1220 -0.2329  0.2809
  504MOL0     C66445   3.514   9.732  10.481 -0.3007 -0.0659 -0.2256
  504MOL0     N66446   4.197   9.558  10.084  0.2870 -0.1806 -0.1460
  504MOL0     N66447   4.296   9.475  10.062  0.4567  0.5230  0.2520
  504MOL0     C66448   5.220   8.946  10.035 -0.2786 -0.2442  0.1154
  504MOL0     C66449   5.324   8.882   9.970  0.5841 -0.8576 -0.2355
  504MOL0     C66450   5.668   8.573   9.888 -0.2043  0.1593  0.5093
  504MOL0     C66451   5.738   8.453   9.895 -0.2711  0.3781 -0.3970
  504MOL0     C66452   5.840   8.418   9.808 -0.3332 -0.2936  0.0247
  504MOL0     C66453   5.879   8.513   9.710  0.2736  0.0688 -1.3528
  504MOL0     O66454   5.977   8.477   9.621  0.6613 -0.5718  0.3888
  504MOL0     C66455   6.092   8.422   9.679  0.1345  0.4914  0.5223
  504MOL0     C66456   6.214   8.505   9.635  0.1103  0.1797 -0.0229
  504MOL0     C66457   6.332   8.406   9.671  0.0467 -0.5569 -0.2216
  504MOL0     C66458   6.369   8.422   9.822  0.6340  0.2565 -0.0556
  504MOL0     C66459   6.503   8.351   9.835  0.7368  0.7089  0.9866
  504MOL0     C66460   6.612   8.301   9.841 -0.8294  0.3036  0.3934
  504MOL0     C66461   5.797   8.625   9.694 -0.9544 -0.3381 -0.1944
  504MOL0     C66462   5.702   8.665   9.789  0.6450  0.9902  0.6739
  504MOL0     H66463   5.372   8.637  10.196 -1.9503  0.3550  0.7250
  504MOL0     H66464   5.176   8.744  10.296  0.8302 -1.8697  0.2972
  504MOL0     H66465   4.950   9.034  10.113  0.2858  0.9677 -2.9498
  504MOL0     H66466   5.082   9.148  10.156 -3.8576  2.6095 -1.2104
  504MOL0     H66467   4.894   9.230  10.293  1.7825 -0.0948  2.2589
  504MOL0     H66468   4.941   9.102  10.400  1.2700 -1.5529 -0.0905
  504MOL0     H66469   4.794   8.936  10.289 -2.1859 -2.1059 -1.6335
  504MOL0     H66470   4.733   9.057  10.175 -1.8853  1.6549  1.3751
  504MOL0     H66471   4.696   9.055  10.479 -2.8670  1.0570  1.1572
  504MOL0     H66472   4.649   9.191  10.382  0.2673 -0.0545 -0.0238
  504MOL0     H66473   4.461   9.043  10.439  1.6915 -0.3482  0.5869
  504MOL0     H66474   4.538   8.909  10.367 -2.0425 -0.7683 -0.5394
  504MOL0     H66475   4.394   8.990  10.194  1.3112 -1.7923 -0.5244
  504MOL0     H66476   4.549   9.030  10.149  0.2457  1.0881  0.5956
  504MOL0     H66477   4.348   9.199  10.314 -0.0366  2.0900  0.4487
  504MOL0     H66478   4.495   9.259  10.258 -0.5721 -0.0641  0.5050
  504MOL0     H66479   4.267   9.148  10.101 -2.1081  0.6831  1.6664
  504MOL0     H66480   4.406   9.215  10.005  2.3955 -0.0441  0.8374
  504MOL0     H66481   4.069   9.276  10.189 -2.5253  1.3386 -0.7738
  504MOL0     H66482   3.979   9.631  10.236  2.0626 -0.3260 -2.2295
  504MOL0     H66483   3.953   9.472  10.314  1.3761 -1.7551 -0.4334
  504MOL0     H66484   3.872   9.421  10.058  0.9698  0.1242 -0.1050
  504MOL0     H66485   3.847   9.598  10.060  2.2482  0.9469  0.2532
  504MOL0     H66486   3.639   9.481  10.106 -0.0045  1.9142  0.4156
  504MOL0     H66487   3.717   9.376  10.228  0.8303  0.5782 -0.0693
  504MOL0     H66488   3.660   9.661  10.243  0.9915 -0.7920 -1.2385
  504MOL0     H66489   3.743   9.572  10.377 -0.0611  1.5227  0.5445
  504MOL0     H66490   3.271   9.514  10.375 -0.7560 -1.1499  2.4475
  504MOL0     H66491   3.140   9.654  10.483 -0.1949  0.7482  0.4185
  504MOL0     H66492   3.120   9.938  10.893  0.8705  0.7936 -2.5603
  504MOL0     H66493   2.947  10.080  11.035 -1.3300  1.1885  0.6298
  504MOL0     H66494   2.752  10.183  11.135  0.6160  0.6681 -1.0797
  504MOL0     H66495   2.716  10.007  11.133  1.4686  0.7691  1.1842
  504MOL0     H66496   2.547  10.128  11.278 -0.7066  2.6793 -0.4199
  504MOL0     H66497   2.472  10.057  11.134 -0.0507  0.7334 -1.2111
  504MOL0     H66498   2.453  10.273  11.022 -2.1314 -0.5862  1.2810
  504MOL0     H66499   2.547  10.357  11.148 -0.7403  0.4350  1.5374
  504MOL0     H66500   2.294  10.197  11.226  0.5401  0.7335  1.0165
  504MOL0     H66501   2.374  10.312  11.314 -3.3641 -3.2302  2.6428
  504MOL0     H66502   2.224  10.379  11.053  1.6563  0.2141 -1.6642
  504MOL0     H66503   2.309  10.490  11.142  0.3033 -0.8830 -0.2105
  504MOL0     H66504   2.162  10.445  11.357 -0.2020 -0.1055  0.3577
  504MOL0     H66505   2.073  10.336  11.252 -0.2858 -0.1031  0.5069
  504MOL0     H66506   2.125  10.630  11.216 -1.2201  1.0091 -1.1841
  504MOL0     H66507   2.056  10.546  11.090  0.8925  0.3110 -0.6920
  504MOL0     H66508   1.895  10.651  11.217  0.9046  0.2267  0.6550
  504MOL0     H66509   1.939  10.576  11.377 -1.0873  2.2304  0.1339
  504MOL0     H66510   2.653  10.008  10.737 -0.4485 -1.1031 -0.7848
  504MOL0     H66511   2.829   9.890  10.595  0.0844 -0.8375  1.1819
  504MOL0     H66512   3.479   9.894  10.613  2.9417 -1.4210 -0.0970
  504MOL0     H66513   3.621   9.750  10.480 -0.1409 -0.9303  0.3206
  504MOL0     H66514   5.186   9.028   9.972  0.0198 -0.8443 -0.8395
  504MOL0     H66515   5.363   8.915   9.874  3.1791 -1.1563  0.6337
  504MOL0     H66516   5.702   8.371   9.957 -1.5099  0.7459 -0.5960
  504MOL0     H66517   5.886   8.320   9.814 -0.2576 -0.2090  0.9666
  504MOL0     H66518   6.099   8.316   9.654  3.5385  0.4165  1.2285
  504MOL0     H66519   6.097   8.438   9.788 -1.2644  3.6304  0.2291
  504MOL0     H66520   6.213   8.520   9.526  0.0120  0.9825  0.0805
  504MOL0     H66521   6.226   8.598   9.691 -0.6454  1.0807 -1.3064
  504MOL0     H66522   6.421   8.438   9.617 -0.4364  0.7068 -0.3216
  504MOL0     H66523   6.311   8.301   9.647 -2.8962 -0.3486  0.9201
  504MOL0     H66524   6.383   8.530   9.839  2.3447  0.4191 -2.0848
  504MOL0     H66525   6.287   8.383   9.883  0.7060  0.3510  0.1045
  504MOL0     H66526   6.712   8.267   9.855  0.1050  2.9734  0.8401
  504MOL0     H66527   5.813   8.692   9.611 -0.8598 -0.7609 -0.5182
  504MOL0     H66528   5.653   8.762   9.779 -4.1824 -1.3285 -1.8820
  505MOL0     O66529   6.938   3.277   5.610 -0.7791 -0.2140 -0.2323
  505MOL0     C66530   6.950   3.369   5.686 -1.0938  0.1627 -0.3692
  505MOL0     O66531   6.851   3.446   5.733 -0.0513  0.2621  0.1006
  505MOL0     C66532   6.724   3.396   5.761 -0.3121  0.6390  0.3943
  505MOL0     C66533   6.644   3.488   5.823  0.3457  0.2894  0.0228
  505MOL0     C66534   6.507   3.469   5.838 -0.3578  1.1827 -0.5802
  505MOL0     C66535   6.444   3.354   5.780  0.0138 -0.0272  0.2817
  505MOL0     O66536   6.310   3.334   5.776  0.5942 -0.5390  0.9224
  505MOL0     C66537   6.220   3.440   5.747 -0.4856  0.4911  0.7577
  505MOL0     C66538   6.082   3.379   5.741  0.6759 -0.0442 -0.4319
  505MOL0     C66539   5.977   3.490   5.729 -0.8690  0.1706 -0.8538
  505MOL0     C66540   5.841   3.433   5.782  0.1933  0.5027 -0.0688
  505MOL0     C66541   5.721   3.504   5.710 -1.0546 -0.2957  0.1503
  505MOL0     C66542   5.595   3.444   5.747  0.1218  0.2356 -0.2300
  505MOL0     C66543   5.458   3.496   5.688 -0.3372 -0.0035  0.5994
  505MOL0     C66544   5.413   3.644   5.719 -0.1904 -0.0829  0.8413
  505MOL0     N66545   5.283   3.672   5.653  0.0708 -0.0871 -0.3442
  505MOL0     C66546   5.164   3.626   5.698  0.0559  0.1508 -0.5087
  505MOL0     C66547   5.067   3.651   5.602 -0.0719 -0.3132 -0.0728
  505MOL0     C66548   4.922   3.618   5.617 -0.6236 -0.0657 -0.2741
  505MOL0     C66549   4.841   3.741   5.601 -0.6157  0.2146 -0.8699
  505MOL0     C66550   4.687   3.705   5.599 -0.7316  0.0130  0.0173
  505MOL0     C66551   4.606   3.837   5.609 -0.1935  0.3041  1.1931
  505MOL0     O66552   4.477   3.779   5.611 -0.3314 -0.0911  0.2202
  505MOL0     C66553   4.372   3.863   5.609  0.3807 -0.3190 -0.4548
  505MOL0     C66554   4.378   4.002   5.610  0.2671 -0.0948  0.6406
  505MOL0     C66555   4.263   4.082   5.600 -0.2577  0.4321  0.0782
  505MOL0     C66556   4.141   4.025   5.596  0.2108 -0.3483  0.0737
  505MOL0     C66557   4.030   4.123   5.600 -0.0852 -0.0347 -0.0571
  505MOL0     O66558   4.053   4.257   5.622  0.6710 -0.4160  0.1048
  505MOL0     C66559   3.945   4.338   5.658  0.3275  0.2887  0.1464
  505MOL0     C66560   3.916   4.447   5.573 -0.5169  0.2694 -0.1154
  505MOL0     C66561   3.828   4.549   5.612  0.9529 -0.0721 -0.8193
  505MOL0     C66562   3.741   4.543   5.724 -0.3827 -0.8390 -0.4483
  505MOL0     O66563   3.646   4.634   5.770  0.1987 -0.1539 -0.5997
  505MOL0     C66564   3.618   4.733   5.667  0.1312 -0.1228 -0.2932
  505MOL0     C66565   3.525   4.826   5.732  0.3348 -1.0863 -0.0137
  505MOL0     C66566   3.393   4.757   5.776  0.8625 -0.1514 -1.0128
  505MOL0     C66567   3.294   4.861   5.834  0.4391 -0.3266 -0.6027
  505MOL0     C66568   3.166   4.796   5.885 -0.2115  1.3737 -0.4520
  505MOL0     C66569   3.063   4.783   5.773 -0.1806 -0.1078 -0.8321
  505MOL0     C66570   2.929   4.724   5.813  0.3112 -0.3310 -0.0189
  505MOL0     C66571   2.845   4.808   5.911  0.2041 -0.4196  0.9779
  505MOL0    Cl66572   2.729   4.711   5.992  0.1401 -0.0258 -0.0382
  505MOL0     C66573   3.760   4.421   5.798  0.0502  0.2358  0.0693
  505MOL0     C66574   3.860   4.322   5.769  0.1886 -0.2781 -1.0234
  505MOL0     O66575   3.921   4.068   5.586 -0.6975  0.7749 -0.0853
  505MOL0     C66576   4.127   3.884   5.585 -0.7980 -0.9211  0.2119
  505MOL0     C66577   4.250   3.808   5.591  0.7231  0.0757 -0.2990
  505MOL0     N66578   5.138   3.721   5.499 -0.6324 -0.0427  1.4735
  505MOL0     N66579   5.272   3.718   5.525 -0.5608 -0.4342 -0.3331
  505MOL0     C66580   6.525   3.257   5.719 -0.4850 -0.6013  0.4231
  505MOL0     C66581   6.662   3.280   5.707  0.1080 -0.4827  0.8406
  505MOL0     C66582   7.077   3.426   5.716 -0.6747 -0.1347 -0.1974
  505MOL0     C66583   7.101   3.529   5.809 -0.1040 -0.3640  0.2148
  505MOL0     C66584   7.226   3.587   5.828 -1.2122 -1.0209 -0.0772
  505MOL0     C66585   7.337   3.540   5.762 -0.5159  0.2881 -0.3961
  505MOL0     O66586   7.461   3.588   5.800  0.3484 -0.4759 -0.2183
  505MOL0     C66587   7.581   3.540   5.739  0.0344  0.4697  0.3068
  505MOL0     C66588   7.706   3.613   5.782 -0.1464  0.1074  0.3474
  505MOL0     C66589   7.723   3.589   5.930 -0.6080 -0.0710 -0.2550
  505MOL0     C66590   7.868   3.625   5.982  0.1817 -0.2633 -0.0724
  505MOL0     C66591   7.972   3.529   5.948 -0.4936  0.0846  0.7039
  505MOL0     C66592   8.055   3.454   5.916 -0.3200 -0.6697 -0.3219
  505MOL0     C66593   7.316   3.447   5.658 -0.6894  0.8172  0.9191
  505MOL0     C66594   7.188   3.388   5.639 -0.0113 -0.2005 -0.4066
  505MOL0     H66595   6.678   3.566   5.891  0.9652 -1.3892  1.7210
  505MOL0     H66596   6.457   3.552   5.887  1.5943  2.0999 -0.0567
  505MOL0     H66597   6.244   3.491   5.654  2.5137  0.2379  1.3055
  505MOL0     H66598   6.222   3.510   5.831 -1.3791  1.3649  0.0810
  505MOL0     H66599   6.066   3.323   5.833  0.8486 -0.6500 -0.7677
  505MOL0     H66600   6.065   3.306   5.662 -1.2296  0.3163 -0.4012
  505MOL0     H66601   5.972   3.511   5.622  1.0366 -2.7218 -1.5978
  505MOL0     H66602   6.000   3.578   5.790 -1.8558  1.1130 -1.7841
  505MOL0     H66603   5.834   3.325   5.767  2.0635  0.1416  1.2433
  505MOL0     H66604   5.838   3.448   5.890 -3.4641  0.3699 -0.0346
  505MOL0     H66605   5.739   3.496   5.602 -0.4101  0.1295  0.2219
  505MOL0     H66606   5.731   3.609   5.740 -1.3929 -0.8703  2.4379
  505MOL0     H66607   5.585   3.446   5.856 -0.2624 -0.3327 -0.2460
  505MOL0     H66608   5.611   3.339   5.721 -0.0311  0.4442 -1.1964
  505MOL0     H66609   5.478   3.489   5.581  2.7156  1.3422  0.9721
  505MOL0     H66610   5.373   3.433   5.717  1.1299 -1.9290  0.8997
  505MOL0     H66611   5.491   3.706   5.674 -0.5747 -2.1366 -3.1013
  505MOL0     H66612   5.401   3.658   5.827 -2.2624 -2.1402  0.9423
  505MOL0     H66613   5.150   3.580   5.795  1.0986  1.3160  0.2310
  505MOL0     H66614   4.903   3.572   5.715 -3.5882 -0.3944 -0.9055
  505MOL0     H66615   4.906   3.542   5.540  3.6810 -0.6767 -0.8209
  505MOL0     H66616   4.870   3.795   5.511 -0.0776  1.5528  0.0668
  505MOL0     H66617   4.850   3.805   5.690 -0.9027 -1.8127  0.6944
  505MOL0     H66618   4.676   3.649   5.505  1.1354 -0.5335  0.0672
  505MOL0     H66619   4.653   3.641   5.682  0.1436 -1.2158 -0.5292
  505MOL0     H66620   4.621   3.894   5.517 -0.2258 -0.4060  0.7454
  505MOL0     H66621   4.623   3.894   5.701  1.3214  0.6854  0.7111
  505MOL0     H66622   4.470   4.059   5.613  1.5774 -2.0178 -0.6932
  505MOL0     H66623   4.281   4.189   5.607  1.1192  0.3224 -1.1980
  505MOL0     H66624   3.958   4.451   5.473 -0.6320 -0.0447 -0.1785
  505MOL0     H66625   3.832   4.632   5.543 -1.9443  1.6267  0.8786
  505MOL0     H66626   3.571   4.688   5.580  1.2411 -0.9328 -0.4848
  505MOL0     H66627   3.710   4.783   5.634 -1.2463  2.4438 -0.5628
  505MOL0     H66628   3.504   4.916   5.673 -2.3182 -0.7131  1.3110
  505MOL0     H66629   3.577   4.854   5.824  0.9056 -3.1631  0.3435
  505MOL0     H66630   3.413   4.682   5.853 -0.3061 -0.6423 -1.1619
  505MOL0     H66631   3.347   4.708   5.689 -0.0082  0.0791 -0.6936
  505MOL0     H66632   3.337   4.904   5.925 -0.3445  2.1660 -1.3185
  505MOL0     H66633   3.265   4.941   5.764  0.1525 -0.6794 -0.8902
  505MOL0     H66634   3.134   4.865   5.965  1.3586 -0.8146  2.2358
  505MOL0     H66635   3.187   4.700   5.933 -0.0604  2.4144  1.6773
  505MOL0     H66636   3.109   4.711   5.705 -0.1374 -0.5029 -0.3899
  505MOL0     H66637   3.044   4.883   5.734  0.9186  0.2251 -0.5496
  505MOL0     H66638   2.870   4.705   5.723  0.1783 -1.2546  0.2482
  505MOL0     H66639   2.956   4.625   5.852 -0.7402 -0.7310 -0.2705
  505MOL0     H66640   2.784   4.885   5.862 -1.1160 -1.7248  0.4822
  505MOL0     H66641   2.911   4.853   5.985  1.7153 -1.7579  0.4901
  505MOL0     H66642   3.693   4.413   5.883 -0.4169  0.0011 -0.3145
  505MOL0     H66643   3.875   4.233   5.829 -2.6514  0.7440  1.3920
  505MOL0     H66644   4.029   3.839   5.578 -1.2240 -0.4381  2.3762
  505MOL0     H66645   4.237   3.700   5.585  0.8744 -0.1296  2.0057
  505MOL0     H66646   6.473   3.167   5.689  1.1219 -1.7749  0.9797
  505MOL0     H66647   6.726   3.205   5.660  0.4428 -1.5482  2.8753
  505MOL0     H66648   7.013   3.569   5.857 -1.2936 -0.4555 -1.7672
  505MOL0     H66649   7.223   3.672   5.897  1.6374  0.0745 -1.1067
  505MOL0     H66650   7.567   3.544   5.630 -1.7905 -0.5247  0.4648
  505MOL0     H66651   7.584   3.436   5.771 -0.3072 -0.0036 -1.1199
  505MOL0     H66652   7.793   3.574   5.729 -0.2062  0.0798  0.2703
  505MOL0     H66653   7.697   3.722   5.770 -0.7672  1.0528  6.3723
  505MOL0     H66654   7.683   3.492   5.960 -3.1074  0.9721  0.0270
  505MOL0     H66655   7.654   3.663   5.971  0.1483  0.0471  0.8461
  505MOL0     H66656   7.895   3.726   5.949  2.2637 -1.2854 -1.7636
  505MOL0     H66657   7.869   3.622   6.091  1.3121  0.1634 -0.0653
  505MOL0     H66658   8.139   3.398   5.879  0.3732 -0.5611  1.0495
  505MOL0     H66659   7.406   3.417   5.605 -1.3462  1.1196 -0.4123
  505MOL0     H66660   7.164   3.317   5.561 -1.1471 -1.3229  0.9277
  506MOL0     O66661   0.014   1.403   0.745  1.2877 -0.3458 -0.0117
  506MOL0     C66662   0.028   1.284   0.737  0.1922 -0.3574  0.4645
  506MOL0     O66663  -0.068   1.200   0.692  0.7251 -0.1125 -0.6951
  506MOL0     C66664  -0.185   1.271   0.655 -0.2099  0.8831 -0.2722
  506MOL0     C66665  -0.272   1.322   0.754  0.4042 -0.9522 -0.2766
  506MOL0     C66666  -0.393   1.376   0.709 -0.4377 -0.5631 -0.5239
  506MOL0     C66667  -0.440   1.358   0.581 -0.6791  0.6092  0.3821
  506MOL0     O66668  -0.570   1.398   0.563  0.0182  0.6261 -0.3353
  506MOL0     C66669  -0.588   1.475   0.444 -0.2741 -0.3610  0.8431
  506MOL0     C66670  -0.735   1.523   0.450  0.9297  0.0939 -0.1515
  506MOL0     C66671  -0.766   1.609   0.571  0.6019  0.0542  0.4459
  506MOL0     C66672  -0.917   1.631   0.590 -0.0076 -0.5067  0.1561
  506MOL0     C66673  -0.952   1.774   0.529  0.3090  0.0226 -0.1151
  506MOL0     C66674  -1.094   1.817   0.571  0.1089 -0.2804 -0.3773
  506MOL0     C66675  -1.144   1.952   0.510  0.6364 -0.9004  0.3957
  506MOL0     C66676  -1.266   2.010   0.592 -0.0721  0.1071 -0.0619
  506MOL0     N66677  -1.375   1.909   0.582  0.7472 -0.7647  0.0231
  506MOL0     C66678  -1.461   1.893   0.474 -0.5545 -0.5981  0.0166
  506MOL0     C66679  -1.549   1.799   0.496  0.9697 -0.4229  0.1557
  506MOL0     C66680  -1.659   1.739   0.407  0.1375  0.5032  0.0459
  506MOL0     C66681  -1.612   1.667   0.273  0.2954 -0.4284 -0.0852
  506MOL0     C66682  -1.527   1.547   0.311  0.3774 -0.0907 -0.7346
  506MOL0     C66683  -1.493   1.472   0.184 -0.0980  0.9850  0.3011
  506MOL0     O66684  -1.445   1.553   0.078  0.6672 -0.3334 -0.4897
  506MOL0     C66685  -1.313   1.546   0.060 -0.1848 -0.3477 -1.6595
  506MOL0     C66686  -1.226   1.621   0.141 -0.4924 -0.8341  0.2112
  506MOL0     C66687  -1.088   1.607   0.139 -0.0573  0.5183 -0.0438
  506MOL0     C66688  -1.032   1.508   0.054  0.5113 -0.5660  0.5067
  506MOL0     C66689  -0.881   1.480   0.052  0.0884 -1.0739  0.5281
  506MOL0     O66690  -0.825   1.428  -0.065 -0.2757  0.7995  0.2887
  506MOL0     C66691  -0.690   1.403  -0.062 -0.1248  0.4381  0.5078
  506MOL0     C66692  -0.639   1.321   0.044  0.5469 -0.0030 -0.0657
  506MOL0     C66693  -0.503   1.302   0.052 -0.7374  0.1898 -0.6647
  506MOL0     C66694  -0.413   1.368  -0.026 -0.5355  0.0622 -0.1222
  506MOL0     O66695  -0.278   1.334  -0.034 -0.3970 -1.0648  0.2228
  506MOL0     C66696  -0.209   1.293   0.084 -0.0840 -0.8173  0.0283
  506MOL0     C66697  -0.062   1.337   0.072  1.0386 -0.0711  0.6404
  506MOL0     C66698  -0.009   1.335   0.214 -0.4776  0.9355 -0.7096
  506MOL0     C66699   0.129   1.409   0.235  0.6693  0.4412  0.7823
  506MOL0     C66700   0.162   1.405   0.382 -0.0698  0.5936  0.5963
  506MOL0     C66701   0.287   1.482   0.404 -0.0669  0.0531 -0.4257
  506MOL0     C66702   0.267   1.635   0.388  0.5477 -0.1108  0.6678
  506MOL0     C66703   0.358   1.711   0.303  0.3446 -0.7946 -0.0074
  506MOL0    Cl66704   0.525   1.656   0.319 -0.2358 -0.0023  0.1676
  506MOL0     C66705  -0.455   1.453  -0.129 -0.2320  0.1733  0.6764
  506MOL0     C66706  -0.594   1.464  -0.154  0.0941  0.5003 -0.7141
  506MOL0     O66707  -0.819   1.532   0.145 -0.4827  0.0986  0.2109
  506MOL0     C66708  -1.119   1.443  -0.036 -0.2405  0.3532  0.6251
  506MOL0     C66709  -1.256   1.467  -0.040 -0.8413 -0.0986  0.2162
  506MOL0     N66710  -1.515   1.763   0.626  0.5551  0.2646 -0.0335
  506MOL0     N66711  -1.411   1.827   0.677 -0.0133  0.4560 -0.2907
  506MOL0     C66712  -0.357   1.305   0.482  0.3720  0.4692 -0.0748
  506MOL0     C66713  -0.233   1.260   0.521  0.1140  0.4278 -0.0766
  506MOL0     C66714   0.160   1.217   0.762 -0.0155 -0.0981  0.4125
  506MOL0     C66715   0.183   1.082   0.749  0.5572 -0.2217  0.3317
  506MOL0     C66716   0.311   1.024   0.766 -0.1418  0.2055  0.0855
  506MOL0     C66717   0.427   1.100   0.793  0.0323 -0.2540  0.5573
  506MOL0     O66718   0.556   1.063   0.800  0.0644 -0.1849 -0.6629
  506MOL0     C66719   0.593   0.950   0.727  0.1097  0.3199 -0.1198
  506MOL0     C66720   0.735   0.925   0.767 -0.4057 -0.2149  0.2461
  506MOL0     C66721   0.802   0.817   0.676 -0.6382  1.4451 -0.0298
  506MOL0     C66722   0.906   0.724   0.739  0.2347 -0.3055  1.2937
  506MOL0     C66723   0.969   0.627   0.637 -0.1124  0.1035 -0.0540
  506MOL0     C66724   1.027   0.549   0.562 -0.2107  0.3101  0.3518
  506MOL0     C66725   0.401   1.228   0.821  0.5216  0.1978  0.1957
  506MOL0     C66726   0.279   1.290   0.809 -0.5703  0.5740 -0.0724
  506MOL0     H66727  -0.235   1.335   0.856 -2.7909 -0.6210  0.9707
  506MOL0     H66728  -0.454   1.424   0.784  2.3019  2.3705  0.0270
  506MOL0     H66729  -0.580   1.426   0.346 -2.2820  1.8441 -0.5360
  506MOL0     H66730  -0.524   1.563   0.447  1.3469 -1.5070  1.0207
  506MOL0     H66731  -0.794   1.431   0.448  1.8677 -0.5476  0.7062
  506MOL0     H66732  -0.764   1.584   0.364  1.3929  2.0148  0.9875
  506MOL0     H66733  -0.717   1.705   0.553  2.4072 -0.7052  1.0387
  506MOL0     H66734  -0.714   1.567   0.658 -1.1066 -1.8883  0.6055
  506MOL0     H66735  -0.971   1.546   0.548 -0.1151 -2.1295  3.2762
  506MOL0     H66736  -0.938   1.633   0.697 -1.6614  0.6853 -0.1500
  506MOL0     H66737  -0.943   1.770   0.420  1.0284 -0.0112 -0.0636
  506MOL0     H66738  -0.887   1.855   0.565  0.0726  1.6063 -2.8982
  506MOL0     H66739  -1.097   1.832   0.679  0.9522  1.6711 -0.5898
  506MOL0     H66740  -1.161   1.732   0.556  0.4916 -0.3624 -1.7309
  506MOL0     H66741  -1.070   2.032   0.523 -4.0593  4.0564  0.5554
  506MOL0     H66742  -1.175   1.937   0.406 -3.6001  1.2211  1.0962
  506MOL0     H66743  -1.307   2.103   0.551 -1.1328 -0.5252 -0.4910
  506MOL0     H66744  -1.231   2.023   0.695  0.7618 -1.3649 -0.1341
  506MOL0     H66745  -1.445   1.946   0.380  1.5046 -1.2282 -0.0417
  506MOL0     H66746  -1.734   1.815   0.385 -1.4479 -0.1898  2.6240
  506MOL0     H66747  -1.709   1.666   0.471 -2.2875  0.8873 -1.2777
  506MOL0     H66748  -1.551   1.733   0.210 -1.9036  1.0599 -0.7534
  506MOL0     H66749  -1.702   1.634   0.220 -0.7153  2.3915 -0.3351
  506MOL0     H66750  -1.432   1.584   0.351 -0.0960 -0.1990  0.5279
  506MOL0     H66751  -1.580   1.480   0.379 -1.6576  0.1554 -1.9992
  506MOL0     H66752  -1.591   1.432   0.156  0.6120 -0.3858 -0.3155
  506MOL0     H66753  -1.425   1.392   0.213 -0.0581  0.9461  0.1067
  506MOL0     H66754  -1.262   1.690   0.216  2.0951 -0.6911  1.4407
  506MOL0     H66755  -1.029   1.656   0.216 -2.9921  1.6223  1.6780
  506MOL0     H66756  -0.700   1.253   0.102  1.8864 -0.0827  1.3162
  506MOL0     H66757  -0.474   1.227   0.125 -1.4977 -0.7264 -1.2845
  506MOL0     H66758  -0.216   1.184   0.091 -1.1576 -0.8931 -1.6454
  506MOL0     H66759  -0.254   1.342   0.170 -0.5897 -0.5927 -0.3581
  506MOL0     H66760  -0.072   1.440   0.038  0.0291 -0.2666  0.3272
  506MOL0     H66761   0.000   1.286  -0.002 -0.0935 -0.8493  0.2003
  506MOL0     H66762   0.004   1.228   0.234 -0.3217  0.2882 -3.8503
  506MOL0     H66763  -0.083   1.357   0.292  1.1627  2.4217  0.5161
  506MOL0     H66764   0.217   1.362   0.189  0.5602  0.0847  0.9291
  506MOL0     H66765   0.117   1.510   0.196  0.4004 -0.3351 -1.3230
  506MOL0     H66766   0.182   1.301   0.412 -2.9913  0.3030  1.9063
  506MOL0     H66767   0.080   1.446   0.442 -2.0627  0.6277 -1.9926
  506MOL0     H66768   0.365   1.446   0.336 -0.9977 -3.0154 -0.0115
  506MOL0     H66769   0.322   1.465   0.505  0.0758  2.5592  0.0192
  506MOL0     H66770   0.163   1.661   0.367 -0.1432 -1.6612  1.9227
  506MOL0     H66771   0.282   1.671   0.491 -2.0850  2.7344  0.2070
  506MOL0     H66772   0.342   1.817   0.324 -1.0587 -0.3317 -2.8398
  506MOL0     H66773   0.335   1.706   0.196 -0.9742 -1.3310  0.2761
  506MOL0     H66774  -0.381   1.495  -0.196 -1.3691  1.3576  0.1282
  506MOL0     H66775  -0.624   1.532  -0.234  1.1479  1.2298 -0.5176
  506MOL0     H66776  -1.075   1.399  -0.125  1.9367  0.8954  1.3735
  506MOL0     H66777  -1.330   1.427  -0.108 -1.3712  0.8136  0.2355
  506MOL0     H66778  -0.381   1.298   0.377  1.5553 -3.1076 -0.2406
  506MOL0     H66779  -0.170   1.208   0.450  0.8157  1.3087 -0.1191
  506MOL0     H66780   0.107   1.007   0.729 -0.5577  0.7112  0.9501
  506MOL0     H66781   0.315   0.915   0.774 -1.3166  0.2885  2.9765
  506MOL0     H66782   0.582   0.979   0.622  0.2358  1.3741  0.1428
  506MOL0     H66783   0.530   0.862   0.744  1.0635 -1.0009 -2.8251
  506MOL0     H66784   0.800   1.013   0.773  0.9713 -1.1778 -0.0992
  506MOL0     H66785   0.725   0.896   0.872 -1.1233  1.3536  0.6451
  506MOL0     H66786   0.840   0.864   0.584  1.2230 -0.0818 -0.1108
  506MOL0     H66787   0.725   0.752   0.633  0.9741 -1.9387  1.7811
  506MOL0     H66788   0.986   0.781   0.787  1.5918  1.9585 -3.1086
  506MOL0     H66789   0.867   0.673   0.827 -0.6011 -2.7304 -0.3649
  506MOL0     H66790   1.052   0.486   0.479  0.5523 -1.5247  1.9039
  506MOL0     H66791   0.477   1.291   0.867 -1.2759  1.8907  0.9762
  506MOL0     H66792   0.273   1.396   0.832  3.0600  0.2995  3.1035
  507MOL0     O66793   3.489   9.971   9.093  0.1618 -0.4962  0.6483
  507MOL0     C66794   3.539  10.087   9.104 -0.5912  0.1801 -0.0946
  507MOL0     O66795   3.491  10.197   9.178 -0.4008 -0.4165 -0.1379
  507MOL0     C66796   3.383  10.192   9.265  0.3532 -0.5407  0.5378
  507MOL0     C66797   3.361  10.321   9.325  0.0439  0.3399  0.3781
  507MOL0     C66798   3.265  10.345   9.424 -0.0786 -0.7111 -0.3383
  507MOL0     C66799   3.192  10.237   9.473  0.4030 -0.1384  0.2555
  507MOL0     O66800   3.078  10.251   9.556 -0.3700  0.0289 -0.1068
  507MOL0     C66801   3.026  10.383   9.589 -0.3138  0.3412  0.3178
  507MOL0     C66802   2.885  10.369   9.642 -0.0960  0.6118  0.2006
  507MOL0     C66803   2.817  10.502   9.675 -1.2632  0.8657 -0.2363
  507MOL0     C66804   2.668  10.469   9.707 -0.1797 -0.0124 -0.3733
  507MOL0     C66805   2.602  10.595   9.746 -0.1494  0.0644  0.3006
  507MOL0     C66806   2.459  10.570   9.784  0.1238 -0.8590 -0.0315
  507MOL0     C66807   2.390  10.710   9.781  0.2902  0.0471  0.9511
  507MOL0     C66808   2.335  10.746   9.643  0.5349  0.1038 -0.2065
  507MOL0     N66809   2.210  10.677   9.606  0.3548 -0.2481 -0.1021
  507MOL0     C66810   2.082  10.710   9.657 -0.1769 -0.0200  0.3438
  507MOL0     C66811   2.003  10.628   9.574  0.5844 -0.6757 -0.1452
  507MOL0     C66812   1.846  10.622   9.585 -0.6250  0.7061 -0.4951
  507MOL0     C66813   1.777  10.506   9.502 -0.3197 -1.2170 -0.0458
  507MOL0     C66814   1.633  10.489   9.531 -0.1000  0.3117  0.4043
  507MOL0     C66815   1.562  10.370   9.468  0.0305  0.0194 -0.2683
  507MOL0     O66816   1.471  10.328   9.575 -0.1218 -0.2803  0.4414
  507MOL0     C66817   1.346  10.396   9.595  0.0629 -0.3450 -0.1319
  507MOL0     C66818   1.306  10.514   9.543 -0.0156  0.2301  0.0235
  507MOL0     C66819   1.173  10.559   9.563  0.5532 -0.8764  0.2565
  507MOL0     C66820   1.082  10.496   9.656 -0.0971 -0.5210 -0.3285
  507MOL0     C66821   0.953  10.553   9.692  0.3458  0.4204 -0.5928
  507MOL0     O66822   0.911  10.514   9.820  0.0717 -0.0689 -0.0543
  507MOL0     C66823   0.836  10.603   9.893 -0.0284 -0.7075 -0.5363
  507MOL0     C66824   0.771  10.549  10.000 -0.7172 -0.0817  0.0436
  507MOL0     C66825   0.677  10.607  10.080  0.4182 -0.2400  0.0329
  507MOL0     C66826   0.646  10.748  10.056 -0.2227  0.9771 -0.8848
  507MOL0     O66827   0.543  10.797  10.133 -0.4076 -0.3647  1.0198
  507MOL0     C66828   0.529  10.941  10.131  0.4345 -0.7050  0.7496
  507MOL0     C66829   0.409  10.977  10.214 -0.5258  0.2758  0.3408
  507MOL0     C66830   0.371  11.118  10.178  0.8475  0.0747  0.1048
  507MOL0     C66831   0.245  11.168  10.248 -0.0593  0.0709 -0.6500
  507MOL0     C66832   0.133  11.085  10.188  0.0749 -0.1105 -0.3234
  507MOL0     C66833  -0.003  11.157  10.182  0.5285  0.1543  0.1747
  507MOL0     C66834  -0.087  11.165  10.313 -0.3996 -0.0078  0.3102
  507MOL0     C66835  -0.040  11.281  10.398  0.8492 -0.0747 -0.5123
  507MOL0    Cl66836  -0.044  11.431  10.315 -0.1446 -0.5701  0.2679
  507MOL0     C66837   0.730  10.812   9.957  0.1572  0.2792  0.2417
  507MOL0     C66838   0.820  10.737   9.871 -0.6121  0.9003 -0.1995
  507MOL0     O66839   0.906  10.631   9.620  0.6379  0.0284  0.1787
  507MOL0     C66840   1.139  10.381   9.723 -0.6039 -0.0996 -0.5461
  507MOL0     C66841   1.265  10.333   9.686  0.5725  0.1446  1.0986
  507MOL0     N66842   2.078  10.551   9.488  0.3249  0.1953  0.1964
  507MOL0     N66843   2.202  10.584   9.507  0.0701 -0.5787 -0.1266
  507MOL0     C66844   3.202  10.103   9.414 -0.6507 -0.3004  0.5249
  507MOL0     C66845   3.316  10.091   9.320  0.2398 -0.1886  0.0246
  507MOL0     C66846   3.667  10.090   9.037  0.0608 -0.2436 -0.3335
  507MOL0     C66847   3.735   9.977   8.992  0.5895 -0.4097 -0.3594
  507MOL0     C66848   3.865   9.987   8.942  0.0240 -0.4789 -0.1249
  507MOL0     C66849   3.940  10.109   8.950  0.5395 -0.0825  0.0409
  507MOL0     O66850   4.068  10.130   8.895 -0.4935 -0.3241  0.1187
  507MOL0     C66851   4.174  10.042   8.931  0.1344 -0.5466 -0.3029
  507MOL0     C66852   4.182   9.932   8.820  0.2991  0.1145  0.1142
  507MOL0     C66853   4.271   9.818   8.848 -0.5745 -0.5657 -0.0893
  507MOL0     C66854   4.209   9.723   8.953 -0.0744  0.1040  0.0412
  507MOL0     C66855   4.290   9.604   8.969 -0.0564 -0.4145 -0.0565
  507MOL0     C66856   4.368   9.513   8.977 -0.2120 -0.3847  1.0206
  507MOL0     C66857   3.866  10.224   8.985  0.2298 -0.4370 -0.5604
  507MOL0     C66858   3.735  10.218   9.032  0.5975 -0.1111  0.4667
  507MOL0     H66859   3.423  10.406   9.300  0.1932  0.0158 -0.3951
  507MOL0     H66860   3.249  10.448   9.455  1.4246 -0.6028  0.1539
  507MOL0     H66861   3.025  10.431   9.491  0.2860 -1.2406 -0.5087
  507MOL0     H66862   3.089  10.443   9.655  0.3925 -0.2856  0.2315
  507MOL0     H66863   2.899  10.316   9.736  1.2329  0.0581 -0.2823
  507MOL0     H66864   2.829  10.303   9.575  0.8459  1.0305 -1.0416
  507MOL0     H66865   2.827  10.570   9.590 -0.4404  0.8676 -0.1401
  507MOL0     H66866   2.872  10.545   9.759 -0.8812  0.0495 -0.0555
  507MOL0     H66867   2.618  10.419   9.624 -2.3390 -0.0945  0.9109
  507MOL0     H66868   2.663  10.401   9.792  0.4634  0.5244  0.1007
  507MOL0     H66869   2.605  10.663   9.660 -3.3218  0.3191  0.2764
  507MOL0     H66870   2.648  10.635   9.836 -0.3685 -0.8103  0.8117
  507MOL0     H66871   2.465  10.526   9.884  1.4273  0.6122  0.5732
  507MOL0     H66872   2.405  10.509   9.711  2.4891 -2.7776 -0.3048
  507MOL0     H66873   2.303  10.715   9.847 -0.4362 -2.9286  0.3441
  507MOL0     H66874   2.464  10.785   9.810  2.7904 -1.3506 -1.3918
  507MOL0     H66875   2.416  10.731   9.571  1.1568 -0.4813  0.5958
  507MOL0     H66876   2.310  10.853   9.642 -3.4037 -0.6630 -0.6095
  507MOL0     H66877   2.071  10.782   9.738  2.7961  1.0627 -0.0695
  507MOL0     H66878   1.811  10.720   9.549  0.7156  0.2456 -3.3366
  507MOL0     H66879   1.814  10.610   9.689  2.5423  1.1393  0.6363
  507MOL0     H66880   1.830  10.412   9.519 -3.1595 -2.8664  0.1193
  507MOL0     H66881   1.792  10.539   9.399 -1.6484 -1.5991 -0.3710
  507MOL0     H66882   1.625  10.481   9.640  1.8696  0.1640  0.5714
  507MOL0     H66883   1.584  10.577   9.489  1.0306  0.5437 -0.4901
  507MOL0     H66884   1.642  10.299   9.446  1.3985  1.7929 -1.2666
  507MOL0     H66885   1.522  10.395   9.369  4.6526  2.1762 -1.8711
  507MOL0     H66886   1.367  10.567   9.470 -0.6346  1.6184  0.4738
  507MOL0     H66887   1.141  10.633   9.490  1.4548 -0.9003 -0.1782
  507MOL0     H66888   0.777  10.442  10.021  1.0607 -0.1629 -0.7241
  507MOL0     H66889   0.616  10.562  10.157 -2.0572 -2.6684 -3.0202
  507MOL0     H66890   0.515  10.976  10.028  0.8024  2.2188  1.6307
  507MOL0     H66891   0.615  11.002  10.162 -1.3399  1.4168  1.7538
  507MOL0     H66892   0.418  10.955  10.321  0.5687 -0.4030  0.1283
  507MOL0     H66893   0.333  10.909  10.174 -1.9355  3.3043 -2.6132
  507MOL0     H66894   0.363  11.131  10.070 -0.1789  1.6727  0.3377
  507MOL0     H66895   0.451  11.179  10.221  0.6540 -0.5121  1.3614
  507MOL0     H66896   0.246  11.148  10.355  0.8819  1.7634 -0.3010
  507MOL0     H66897   0.221  11.274  10.238 -1.8030 -0.3857 -1.6039
  507MOL0     H66898   0.121  10.992  10.245  4.0579 -0.0685  0.8965
  507MOL0     H66899   0.159  11.055  10.086  0.5898  1.6701 -0.7546
  507MOL0     H66900  -0.063  11.096  10.114  2.4012 -0.0258 -1.4005
  507MOL0     H66901   0.014  11.254  10.134  2.7351  0.1880  0.9199
  507MOL0     H66902  -0.190  11.177  10.279 -0.4584 -0.8550  0.1689
  507MOL0     H66903  -0.088  11.071  10.370  0.8446  0.5832  1.3466
  507MOL0     H66904   0.052  11.243  10.443 -0.3085 -1.2661  0.9302
  507MOL0     H66905  -0.106  11.296  10.484  0.2200 -0.0853 -0.9848
  507MOL0     H66906   0.707  10.915   9.931  1.0487  0.3689 -0.2253
  507MOL0     H66907   0.878  10.793   9.799  0.1340 -1.1503 -1.2691
  507MOL0     H66908   1.082  10.323   9.795 -1.0456 -0.3787 -1.1115
  507MOL0     H66909   1.292  10.234   9.720  1.4736 -0.4376 -1.1244
  507MOL0     H66910   3.140  10.017   9.435 -1.6840 -0.9493 -4.0397
  507MOL0     H66911   3.330   9.989   9.285 -1.5232 -1.3034  2.2821
  507MOL0     H66912   3.685   9.880   8.989 -3.9133  1.6470 -1.3306
  507MOL0     H66913   3.905   9.898   8.894 -0.3421 -0.1429 -1.0745
  507MOL0     H66914   4.139   9.996   9.024  3.0597 -0.0647  1.1581
  507MOL0     H66915   4.272  10.088   8.951  0.3637 -0.9587 -0.4662
  507MOL0     H66916   4.081   9.899   8.795  0.3370 -0.0968  0.2404
  507MOL0     H66917   4.214   9.990   8.732 -1.2305  0.6275 -0.1386
  507MOL0     H66918   4.365   9.856   8.889  0.3567 -2.0810 -0.6944
  507MOL0     H66919   4.291   9.762   8.756 -0.3845  0.2066 -0.5260
  507MOL0     H66920   4.199   9.777   9.047  1.0717  2.6515 -1.2175
  507MOL0     H66921   4.109   9.694   8.920 -0.2729  0.2192  0.5364
  507MOL0     H66922   4.430   9.425   8.978 -0.8478 -0.8373  1.3079
  507MOL0     H66923   3.906  10.324   8.978 -0.7622 -0.0028 -0.2176
  507MOL0     H66924   3.689  10.303   9.082  0.4847 -1.7583  3.3533
  508MOL0     O66925   4.173   9.478   2.515 -0.6386 -0.6087  0.6952
  508MOL0     C66926   4.225   9.568   2.574 -1.3371  0.3547  0.3044
  508MOL0     O66927   4.157   9.661   2.652 -1.3182  0.4021  0.3171
  508MOL0     C66928   4.033   9.632   2.704 -0.2910 -0.3922 -0.2656
  508MOL0     C66929   3.989   9.504   2.738 -0.4001 -0.2757 -0.0475
  508MOL0     C66930   3.863   9.478   2.779 -0.7277 -0.3278 -0.0820
  508MOL0     C66931   3.774   9.578   2.814  0.0397  0.6773  0.2253
  508MOL0     O66932   3.640   9.566   2.851 -0.1069  0.6683  0.7009
  508MOL0     C66933   3.612   9.438   2.902 -0.5824 -0.5042  0.4152
  508MOL0     C66934   3.474   9.444   2.946 -0.1808  0.0121  0.7676
  508MOL0     C66935   3.365   9.436   2.843 -0.8524  0.5376  0.0972
  508MOL0     C66936   3.230   9.439   2.913  0.1280 -0.0492  1.0817
  508MOL0     C66937   3.123   9.457   2.808  0.8093  0.8325 -0.0644
  508MOL0     C66938   2.987   9.428   2.847  0.3584 -0.0605  0.1943
  508MOL0     C66939   2.928   9.525   2.951  0.0748  0.1699 -0.1689
  508MOL0     C66940   2.787   9.502   2.973 -0.3571 -0.1277  0.2865
  508MOL0     N66941   2.745   9.364   3.002  0.0559 -0.4674  0.3201
  508MOL0     C66942   2.621   9.309   2.967  0.0174  0.1454 -0.0878
  508MOL0     C66943   2.611   9.193   3.039 -0.2819  0.2369 -0.2713
  508MOL0     C66944   2.513   9.080   3.008 -0.1521  0.2325 -0.0501
  508MOL0     C66945   2.376   9.130   3.036  1.1643  0.5542 -0.0252
  508MOL0     C66946   2.358   9.194   3.176  1.0129 -0.2604 -0.2453
  508MOL0     C66947   2.214   9.196   3.229 -0.0406  0.0112 -0.0042
  508MOL0     O66948   2.169   9.061   3.217  0.4454 -0.2428 -0.7134
  508MOL0     C66949   2.041   9.029   3.257  0.2838  0.0140 -0.3368
  508MOL0     C66950   1.942   9.109   3.306 -0.8097  0.0158  0.5176
  508MOL0     C66951   1.821   9.051   3.344 -1.1995  0.5615  0.2902
  508MOL0     C66952   1.795   8.915   3.330  0.0653  0.8020  0.8586
  508MOL0     C66953   1.657   8.859   3.358  0.3585  0.5773  0.5150
  508MOL0     O66954   1.639   8.723   3.365  0.0146 -0.0805 -0.0893
  508MOL0     C66955   1.523   8.667   3.405 -0.0807  0.0239  0.3892
  508MOL0     C66956   1.393   8.703   3.346 -0.9187 -1.2356  0.8427
  508MOL0     C66957   1.271   8.646   3.385 -0.2131  1.3434  0.0384
  508MOL0     C66958   1.283   8.554   3.487 -0.5125  0.5196  0.0315
  508MOL0     O66959   1.172   8.485   3.531 -0.4114  0.0831 -0.3745
  508MOL0     C66960   1.055   8.475   3.453  0.0154  0.1275  1.1238
  508MOL0     C66961   1.057   8.373   3.334 -0.2191 -0.8651  0.4387
  508MOL0     C66962   1.022   8.230   3.385  0.4335 -0.2152  0.1428
  508MOL0     C66963   1.002   8.132   3.279 -0.4941  0.2057  0.5963
  508MOL0     C66964   0.907   8.015   3.318 -0.1143  0.1606  0.3409
  508MOL0     C66965   0.965   7.930   3.429  0.5550  0.2668 -0.3771
  508MOL0     C66966   0.913   7.784   3.425 -0.2293 -0.4604 -0.1402
  508MOL0     C66967   0.760   7.767   3.455  0.3663  0.0531  0.7534
  508MOL0    Cl66968   0.705   7.605   3.449  0.2712 -0.5109  0.0083
  508MOL0     C66969   1.403   8.508   3.542 -1.0317 -0.5255  0.1735
  508MOL0     C66970   1.524   8.561   3.501 -0.0560  0.4978  0.0679
  508MOL0     O66971   1.568   8.943   3.374 -0.6530  0.3557  0.4977
  508MOL0     C66972   1.897   8.835   3.274  0.4536 -0.1142 -0.0208
  508MOL0     C66973   2.019   8.894   3.247  0.7626  0.1669  0.0640
  508MOL0     N66974   2.718   9.194   3.136 -0.5323  0.0530 -0.0837
  508MOL0     N66975   2.795   9.295   3.106  0.3528  0.6101 -0.3908
  508MOL0     C66976   3.821   9.710   2.797  0.8966 -0.0791 -0.4150
  508MOL0     C66977   3.946   9.739   2.747 -0.3345  0.9937 -0.0156
  508MOL0     C66978   4.364   9.604   2.532  0.2881 -0.5912 -0.6547
  508MOL0     C66979   4.416   9.722   2.570 -0.1316  0.0718 -1.0056
  508MOL0     C66980   4.549   9.760   2.529  0.0512 -0.2983 -0.4625
  508MOL0     C66981   4.621   9.671   2.451  0.1717 -0.2202  0.6628
  508MOL0     O66982   4.742   9.706   2.400 -0.3116 -0.7653 -0.0297
  508MOL0     C66983   4.820   9.603   2.337 -0.3782 -0.2912  0.3472
  508MOL0     C66984   4.888   9.512   2.447  0.8547 -0.2048  1.1022
  508MOL0     C66985   4.974   9.399   2.390  0.3293  0.0379 -0.3518
  508MOL0     C66986   5.060   9.326   2.499 -0.5862 -0.4112  0.4770
  508MOL0     C66987   5.193   9.384   2.522 -0.3468  0.4608  0.1780
  508MOL0     C66988   5.299   9.433   2.542 -1.0003 -0.5006  0.3882
  508MOL0     C66989   4.552   9.559   2.407  0.3466 -0.6556 -0.7302
  508MOL0     C66990   4.425   9.526   2.442 -0.9362 -0.3430  0.3701
  508MOL0     H66991   4.051   9.415   2.730 -1.8374 -1.2770 -0.5460
  508MOL0     H66992   3.844   9.371   2.787  0.3977 -0.5586 -0.3043
  508MOL0     H66993   3.673   9.412   2.989 -0.9826  0.7689  1.1007
  508MOL0     H66994   3.625   9.360   2.826 -2.0265 -0.8541  0.4986
  508MOL0     H66995   3.465   9.538   3.001 -1.4724  0.8744 -0.8204
  508MOL0     H66996   3.451   9.354   3.004 -2.9812 -1.5699 -2.4271
  508MOL0     H66997   3.365   9.344   2.784  0.2019  1.2097 -0.9828
  508MOL0     H66998   3.385   9.515   2.770  1.5485  0.4744  0.6008
  508MOL0     H66999   3.226   9.353   2.979  3.3441 -0.7494  0.5393
  508MOL0     H67000   3.209   9.523   2.980 -2.1110 -0.2113  0.6449
  508MOL0     H67001   3.147   9.392   2.723  0.3451 -2.4140  2.1296
  508MOL0     H67002   3.118   9.560   2.771 -0.3072  1.0671  0.7059
  508MOL0     H67003   2.991   9.323   2.878 -1.2792 -0.3688 -0.5384
  508MOL0     H67004   2.922   9.441   2.760 -0.8009 -1.7597  0.7452
  508MOL0     H67005   2.978   9.501   3.045 -0.1580  0.0717 -0.0690
  508MOL0     H67006   2.954   9.628   2.927  1.1832 -0.1102 -0.2376
  508MOL0     H67007   2.734   9.528   2.880 -2.0294 -2.3790  0.5034
  508MOL0     H67008   2.746   9.573   3.045  1.6492  1.4269 -0.0201
  508MOL0     H67009   2.552   9.331   2.886  0.8930  1.0392 -0.6173
  508MOL0     H67010   2.542   9.001   3.078 -1.3985 -0.5997 -0.4487
  508MOL0     H67011   2.528   9.038   2.908  0.2521 -1.2803  0.6227
  508MOL0     H67012   2.310   9.044   3.022  0.6724  0.5687  2.0156
  508MOL0     H67013   2.334   9.203   2.965 -1.7481 -0.1877  0.7780
  508MOL0     H67014   2.423   9.143   3.248  1.2888  1.9871  1.2137
  508MOL0     H67015   2.397   9.297   3.173  0.4689  0.0852  2.2113
  508MOL0     H67016   2.152   9.257   3.162 -1.4368 -1.8939 -0.5466
  508MOL0     H67017   2.197   9.230   3.332 -1.0316 -0.2833 -0.0607
  508MOL0     H67018   1.964   9.212   3.332  0.9272 -0.0960 -0.3659
  508MOL0     H67019   1.755   9.121   3.394 -0.9503 -0.3455  1.9370
  508MOL0     H67020   1.408   8.768   3.260  4.0957 -2.8749  0.1702
  508MOL0     H67021   1.181   8.663   3.327 -0.8208 -0.1073  0.5075
  508MOL0     H67022   1.016   8.573   3.423  0.2537  0.0039  0.3825
  508MOL0     H67023   0.985   8.439   3.529 -1.1412 -0.2838 -0.0911
  508MOL0     H67024   1.155   8.370   3.285 -0.3206 -0.8945  0.2377
  508MOL0     H67025   0.975   8.404   3.269 -0.3879 -1.5213  0.3279
  508MOL0     H67026   0.924   8.240   3.433 -1.1701  1.4055 -3.1047
  508MOL0     H67027   1.095   8.202   3.461  0.9436 -0.3326 -0.3806
  508MOL0     H67028   0.965   8.179   3.187  2.9119  0.9708 -0.5288
  508MOL0     H67029   1.102   8.095   3.255 -1.1570 -1.9759  0.9671
  508MOL0     H67030   0.905   7.945   3.234  1.2902  0.0960  0.3343
  508MOL0     H67031   0.802   8.044   3.330  0.1751  0.9941  0.9414
  508MOL0     H67032   0.954   7.968   3.531 -1.6923  1.9767 -1.1792
  508MOL0     H67033   1.073   7.925   3.413  0.6369  0.1311  0.1905
  508MOL0     H67034   0.930   7.733   3.330 -1.1551 -1.3915  0.1820
  508MOL0     H67035   0.981   7.733   3.494  0.6125 -1.6869 -1.8090
  508MOL0     H67036   0.710   7.820   3.373  0.2050 -3.4849 -1.6705
  508MOL0     H67037   0.733   7.807   3.553 -0.0570 -0.9529  1.0611
  508MOL0     H67038   1.410   8.427   3.614  1.9841 -0.7934 -0.2830
  508MOL0     H67039   1.620   8.545   3.550  0.4040  0.7327 -0.7495
  508MOL0     H67040   1.872   8.730   3.258  0.6823 -0.0781 -0.6414
  508MOL0     H67041   2.095   8.835   3.196  1.2688 -0.0452  1.0428
  508MOL0     H67042   3.747   9.788   2.806  1.0346 -0.0986  1.0409
  508MOL0     H67043   3.985   9.840   2.738 -1.0812  1.1838 -1.4782
  508MOL0     H67044   4.354   9.793   2.624 -3.0907 -0.8365 -2.9601
  508MOL0     H67045   4.587   9.857   2.562  2.3264 -1.4600  0.5865
  508MOL0     H67046   4.900   9.643   2.274 -0.1900 -1.0292  0.1044
  508MOL0     H67047   4.755   9.550   2.267  2.4537 -1.0173 -1.8793
  508MOL0     H67048   4.954   9.583   2.498 -0.7461  1.9778  0.3073
  508MOL0     H67049   4.813   9.470   2.515 -2.0097  1.5384 -0.7569
  508MOL0     H67050   5.038   9.442   2.311 -0.6566  1.9505 -0.1731
  508MOL0     H67051   4.907   9.329   2.339  1.9836 -0.2996 -2.2020
  508MOL0     H67052   5.007   9.320   2.594  2.7318 -1.5260  2.4403
  508MOL0     H67053   5.076   9.227   2.456 -0.9842 -0.6031  0.7760
  508MOL0     H67054   5.395   9.473   2.566 -1.2526  0.1617  0.3228
  508MOL0     H67055   4.594   9.496   2.330  1.6343 -1.7365  0.7912
  508MOL0     H67056   4.392   9.427   2.412 -1.5370  0.3189 -1.2603
  509MOL0     O67057   2.564   2.175  10.043  0.1650 -0.6040  0.0911
  509MOL0     C67058   2.473   2.096  10.059  0.2865  0.0728 -0.5850
  509MOL0     O67059   2.482   1.969  10.111  0.7158 -0.2945 -0.2752
  509MOL0     C67060   2.599   1.917  10.153 -0.1326  0.9959  0.1236
  509MOL0     C67061   2.716   1.979  10.208 -0.0574 -1.3169 -0.1099
  509MOL0     C67062   2.826   1.907  10.244  0.2545  0.8689 -0.0574
  509MOL0     C67063   2.823   1.764  10.238  0.2934  0.4995  0.1154
  509MOL0     O67064   2.924   1.677  10.276 -0.8778  0.7783 -0.3674
  509MOL0     C67065   3.047   1.731  10.318  0.2899 -0.6963  0.1994
  509MOL0     C67066   3.156   1.615  10.352  0.5555  0.5126  0.4190
  509MOL0     C67067   3.293   1.668  10.377  0.0625 -0.6425  0.5836
  509MOL0     C67068   3.368   1.697  10.252  0.0545  1.0394  0.4896
  509MOL0     C67069   3.520   1.726  10.266 -0.1092  0.0449  0.6398
  509MOL0     C67070   3.604   1.602  10.298  0.7605 -0.3335  0.3313
  509MOL0     C67071   3.752   1.641  10.307  0.0966 -0.0291 -0.2538
  509MOL0     C67072   3.788   1.702  10.446 -0.5400 -0.1351  0.0407
  509MOL0     N67073   3.931   1.742  10.436 -0.6538  0.7437 -0.3117
  509MOL0     C67074   3.986   1.851  10.378 -0.1980 -0.4047  0.5840
  509MOL0     C67075   4.117   1.830  10.372  0.1388  0.5179 -0.5830
  509MOL0     C67076   4.217   1.927  10.314  0.2439  0.1269  0.2817
  509MOL0     C67077   4.170   2.070  10.360 -0.4910 -0.3740 -0.6213
  509MOL0     C67078   4.110   2.141  10.238 -0.2212  0.6281  0.8426
  509MOL0     C67079   4.022   2.272  10.271 -0.1317 -0.1602 -0.4907
  509MOL0     O67080   3.904   2.223  10.334  0.3447 -0.1498 -0.2458
  509MOL0     C67081   3.777   2.259  10.281  0.8957  0.5779  0.3901
  509MOL0     C67082   3.703   2.359  10.345  0.1625 -0.0125 -0.8341
  509MOL0     C67083   3.577   2.386  10.296  0.5941  0.3867 -0.7731
  509MOL0     C67084   3.527   2.327  10.178  0.5140 -0.1117  0.0089
  509MOL0     C67085   3.398   2.372  10.112  0.0491 -0.0326  0.4756
  509MOL0     O67086   3.374   2.320   9.988  0.7242 -0.2605  0.5664
  509MOL0     C67087   3.242   2.325   9.954  0.0146 -0.1461  0.0983
  509MOL0     C67088   3.140   2.265  10.028 -0.3255  0.3917 -0.7338
  509MOL0     C67089   3.013   2.263   9.980 -0.0684 -0.2451 -0.3207
  509MOL0     C67090   2.975   2.325   9.860 -0.2234 -0.6423 -0.1066
  509MOL0     O67091   2.840   2.333   9.832 -0.4265  0.2639  0.1066
  509MOL0     C67092   2.797   2.413   9.726  0.2694  0.7820 -0.0457
  509MOL0     C67093   2.647   2.449   9.748 -0.2395 -0.6630  1.0791
  509MOL0     C67094   2.593   2.523   9.621  0.2052  0.9309  0.8328
  509MOL0     C67095   2.649   2.662   9.597  0.6251  0.0428 -0.3119
  509MOL0     C67096   2.552   2.741   9.508  0.5849  0.5180 -0.3516
  509MOL0     C67097   2.588   2.890   9.466 -0.1090  1.3425  0.1951
  509MOL0     C67098   2.707   2.893   9.363  0.5347  0.6245 -1.4888
  509MOL0     C67099   2.763   3.031   9.349  0.4448  0.2483  0.4307
  509MOL0    Cl67100   2.895   3.030   9.221  0.0498 -0.2576  0.2475
  509MOL0     C67101   3.075   2.379   9.788  0.5471  0.2099 -0.4969
  509MOL0     C67102   3.205   2.392   9.835  0.0131 -0.3126  0.2708
  509MOL0     O67103   3.323   2.452  10.166  0.0090 -0.1783  0.8440
  509MOL0     C67104   3.592   2.220  10.117  0.4018 -0.5517 -0.4128
  509MOL0     C67105   3.722   2.188  10.166 -0.6669 -0.9108 -0.7093
  509MOL0     N67106   4.140   1.708  10.427  0.1254 -0.5244 -0.0477
  509MOL0     N67107   4.031   1.657  10.464 -1.5671  0.4660  0.6012
  509MOL0     C67108   2.715   1.702  10.183  0.6177  1.0802 -0.5326
  509MOL0     C67109   2.604   1.781  10.144  0.1992 -0.0728 -0.4479
  509MOL0     C67110   2.334   2.122  10.001  1.0404  0.2981 -0.1024
  509MOL0     C67111   2.309   2.241   9.916 -0.1533  0.0382 -0.0499
  509MOL0     C67112   2.184   2.244   9.852 -0.3282  0.5615 -0.2453
  509MOL0     C67113   2.091   2.142   9.857  0.1159 -0.4364  0.2054
  509MOL0     O67114   1.960   2.139   9.801  0.3214 -0.3654 -0.3294
  509MOL0     C67115   1.945   2.219   9.686 -0.8431  0.2317 -0.4243
  509MOL0     C67116   1.830   2.170   9.600 -0.6064  0.4025  0.4711
  509MOL0     C67117   1.830   2.229   9.453 -0.2343  0.6169 -0.8635
  509MOL0     C67118   1.706   2.178   9.389  0.7819 -0.5954  0.2138
  509MOL0     C67119   1.701   2.036   9.366  0.2172 -0.2983 -0.2494
  509MOL0     C67120   1.699   1.922   9.325  0.0027 -0.8149  0.1693
  509MOL0     C67121   2.118   2.033   9.943 -0.1850  0.3137 -0.4278
  509MOL0     C67122   2.232   2.022  10.013 -0.5862 -0.4010  0.1303
  509MOL0     H67123   2.719   2.086  10.224  0.5044 -1.3899  0.2975
  509MOL0     H67124   2.916   1.959  10.275  0.3520  0.0676  1.0808
  509MOL0     H67125   3.039   1.801  10.401 -1.9585 -1.0601  0.3333
  509MOL0     H67126   3.095   1.780  10.232  0.3244 -0.7709  0.1765
  509MOL0     H67127   3.145   1.544  10.270 -0.4222 -0.5927  1.4797
  509MOL0     H67128   3.120   1.573  10.446 -1.6056  4.0013  1.3522
  509MOL0     H67129   3.353   1.598  10.437  2.5114  0.4711 -0.4695
  509MOL0     H67130   3.275   1.754  10.442 -0.5005 -1.5093  1.6189
  509MOL0     H67131   3.356   1.614  10.182  1.7754 -0.1424  1.5234
  509MOL0     H67132   3.316   1.779  10.201 -1.2557  0.5283  0.9467
  509MOL0     H67133   3.535   1.796  10.348 -0.5252 -0.4050  1.1079
  509MOL0     H67134   3.554   1.769  10.171  0.9186 -0.7961  0.5975
  509MOL0     H67135   3.583   1.530  10.218  0.0600  1.5559 -1.2809
  509MOL0     H67136   3.567   1.565  10.394 -0.7364  2.0493  0.7650
  509MOL0     H67137   3.808   1.549  10.325 -0.8605 -0.4198  0.8946
  509MOL0     H67138   3.786   1.697  10.220 -2.1769 -0.0071 -1.2153
  509MOL0     H67139   3.783   1.627  10.525  0.9328  0.9066  1.1772
  509MOL0     H67140   3.738   1.797  10.468 -0.0969  0.0974  0.0490
  509MOL0     H67141   3.940   1.944  10.348  1.4448  0.8879  1.8773
  509MOL0     H67142   4.228   1.924  10.206  0.5903  0.0768  0.3167
  509MOL0     H67143   4.318   1.906  10.351  1.1646  3.0579 -0.2896
  509MOL0     H67144   4.261   2.122  10.392 -1.2813  0.1962  0.7626
  509MOL0     H67145   4.104   2.068  10.447 -1.2366 -0.9980 -1.1877
  509MOL0     H67146   4.185   2.175  10.167  0.9495  0.6129  2.0302
  509MOL0     H67147   4.043   2.067  10.195  0.0963  0.2953  0.9190
  509MOL0     H67148   4.001   2.317  10.174 -0.8602 -0.3925 -0.4525
  509MOL0     H67149   4.072   2.344  10.336  0.4045 -1.3202  0.4241
  509MOL0     H67150   3.748   2.407  10.431 -1.2343 -0.5041  0.2196
  509MOL0     H67151   3.512   2.458  10.347  0.2898 -1.1166  1.0663
  509MOL0     H67152   3.171   2.215  10.119  2.4604  2.3450 -0.5007
  509MOL0     H67153   2.927   2.224  10.033  0.5247  1.3943  1.9792
  509MOL0     H67154   2.811   2.347   9.639 -1.5103 -0.1888  0.3632
  509MOL0     H67155   2.861   2.501   9.714  0.6240  1.7466  5.9066
  509MOL0     H67156   2.647   2.521   9.831  3.8453  0.2665  0.5009
  509MOL0     H67157   2.579   2.365   9.760  1.0402 -2.0427 -0.7947
  509MOL0     H67158   2.487   2.547   9.634  0.3359  2.4892 -0.5709
  509MOL0     H67159   2.606   2.462   9.531  3.1229  1.0202  1.0854
  509MOL0     H67160   2.664   2.721   9.688  1.2022 -0.0722 -0.3245
  509MOL0     H67161   2.750   2.651   9.556  0.5308  1.2443 -0.9072
  509MOL0     H67162   2.463   2.756   9.569  1.0467  0.9124  0.2395
  509MOL0     H67163   2.539   2.684   9.416  1.1296 -0.8440  0.3912
  509MOL0     H67164   2.619   2.938   9.559  1.0577 -1.1683  1.2140
  509MOL0     H67165   2.496   2.926   9.421 -0.6989 -1.0410 -0.6935
  509MOL0     H67166   2.792   2.838   9.406  1.0880  0.3688 -2.8544
  509MOL0     H67167   2.672   2.855   9.266 -2.5880  0.1566 -0.2770
  509MOL0     H67168   2.802   3.077   9.441 -0.7657  3.6134 -0.5693
  509MOL0     H67169   2.686   3.104   9.323 -2.5952 -1.7564  3.0193
  509MOL0     H67170   3.052   2.424   9.692 -0.5772 -0.9215 -0.7735
  509MOL0     H67171   3.281   2.441   9.775 -2.0949  1.3450 -1.1813
  509MOL0     H67172   3.556   2.165  10.031 -0.3684  1.1682 -1.2268
  509MOL0     H67173   3.779   2.109  10.118 -0.3682 -0.2083 -1.5434
  509MOL0     H67174   2.717   1.596  10.161  1.0750  0.7205  1.1133
  509MOL0     H67175   2.514   1.742  10.097  0.5537 -2.3689  0.6165
  509MOL0     H67176   2.380   2.323   9.916 -1.3598  1.1246  1.0960
  509MOL0     H67177   2.164   2.333   9.794 -2.3603  0.5109  0.3143
  509MOL0     H67178   2.034   2.204   9.624 -0.1267 -0.5782  0.7669
  509MOL0     H67179   1.938   2.324   9.713 -0.7953 -0.1795  1.3194
  509MOL0     H67180   1.840   2.061   9.589 -0.6381  0.5937 -1.9805
  509MOL0     H67181   1.732   2.178   9.647 -0.1796 -1.6934  1.8723
  509MOL0     H67182   1.923   2.198   9.404 -0.5996 -3.5583  0.6742
  509MOL0     H67183   1.830   2.338   9.451 -1.0601  0.6151 -2.1947
  509MOL0     H67184   1.613   2.206   9.439  0.5832 -1.7497  0.5240
  509MOL0     H67185   1.689   2.218   9.288  0.5202  1.9378  1.2112
  509MOL0     H67186   1.688   1.833   9.266 -1.1587 -0.6403  0.0989
  509MOL0     H67187   2.041   1.963   9.972 -0.3443  0.6749  0.0302
  509MOL0     H67188   2.236   1.951  10.095 -0.9242 -0.8903 -0.2711
  510MOL0     O67189   7.781   4.563  11.240  0.4417  0.0592  0.0934
  510MOL0     C67190   7.884   4.560  11.172 -1.1437  0.0729  0.0770
  510MOL0     O67191   7.888   4.573  11.030  0.7131  0.0817  0.0250
  510MOL0     C67192   7.777   4.576  10.947 -0.6557 -1.0682 -0.7313
  510MOL0     C67193   7.808   4.593  10.811 -0.2931 -0.7604 -0.4111
  510MOL0     C67194   7.711   4.582  10.715 -0.6140 -0.2750  0.5746
  510MOL0     C67195   7.576   4.558  10.749 -0.1140  0.9393 -0.6031
  510MOL0     O67196   7.489   4.532  10.647 -0.2995  0.2449 -0.2423
  510MOL0     C67197   7.353   4.553  10.679  0.1016  0.2969 -0.6910
  510MOL0     C67198   7.265   4.547  10.554  0.5759 -0.3700  0.8396
  510MOL0     C67199   7.119   4.599  10.585  0.9462 -0.0413 -0.2273
  510MOL0     C67200   7.048   4.626  10.449 -0.0200  0.1291 -0.2599
  510MOL0     C67201   6.899   4.642  10.461  0.5634 -0.2778  0.4618
  510MOL0     C67202   6.830   4.722  10.340  0.3458 -0.7461  0.1942
  510MOL0     C67203   6.678   4.745  10.357  0.5654 -0.3367  0.0722
  510MOL0     C67204   6.584   4.626  10.370 -1.1005 -0.4621 -0.1743
  510MOL0     N67205   6.451   4.666  10.327 -0.4921 -0.0293 -0.5941
  510MOL0     C67206   6.393   4.643  10.203 -0.1817  0.0548 -0.5085
  510MOL0     C67207   6.281   4.711  10.211  0.3367 -0.2222  0.5048
  510MOL0     C67208   6.178   4.731  10.103 -0.1824  0.9453 -0.3333
  510MOL0     C67209   6.099   4.603  10.078  0.8559 -0.2056 -0.4500
  510MOL0     C67210   6.006   4.621   9.954 -0.1884  0.2787 -0.6846
  510MOL0     C67211   6.065   4.663   9.819  0.6875  0.3891 -0.8076
  510MOL0     O67212   6.045   4.803   9.797  0.6476  0.6653 -0.0925
  510MOL0     C67213   5.928   4.857   9.733 -0.2377  0.2354 -0.7282
  510MOL0     C67214   5.818   4.789   9.696  0.3381 -0.7152 -0.5016
  510MOL0     C67215   5.707   4.858   9.660  0.8222  0.2554 -0.6663
  510MOL0     C67216   5.696   4.992   9.643 -0.9701  0.2223  0.8321
  510MOL0     C67217   5.578   5.062   9.593 -0.2755 -0.7926  0.5802
  510MOL0     O67218   5.592   5.191   9.542  0.6459  0.4462  0.4708
  510MOL0     C67219   5.491   5.254   9.470 -0.0054  0.8788 -0.4043
  510MOL0     C67220   5.460   5.382   9.512 -0.1098  1.1469 -0.0842
  510MOL0     C67221   5.369   5.461   9.442 -0.4238  0.2262 -0.1401
  510MOL0     C67222   5.298   5.410   9.339  0.8491 -1.1198  0.4761
  510MOL0     O67223   5.200   5.497   9.284  0.4120 -0.2321  0.2906
  510MOL0     C67224   5.129   5.457   9.168 -1.3196 -0.2787  0.1204
  510MOL0     C67225   5.054   5.568   9.111  0.1963 -0.1015  0.9234
  510MOL0     C67226   4.947   5.529   8.999  0.7532  0.3838 -0.4798
  510MOL0     C67227   4.830   5.426   9.034 -0.3055  0.3570 -0.7609
  510MOL0     C67228   4.715   5.423   8.927  1.1043  0.6718 -0.0347
  510MOL0     C67229   4.613   5.526   8.947 -0.1280 -0.3147 -0.0622
  510MOL0     C67230   4.539   5.540   9.077 -0.3281 -0.0408  0.0465
  510MOL0     C67231   4.470   5.411   9.105 -0.2921  0.0637  0.5341
  510MOL0    Cl67232   4.381   5.398   9.253 -0.0198 -0.3909  0.3476
  510MOL0     C67233   5.322   5.279   9.294  0.2881 -0.0007 -0.4256
  510MOL0     C67234   5.416   5.205   9.359 -0.2449  0.1866  0.4547
  510MOL0     O67235   5.471   4.999   9.580 -0.3374 -0.2000 -0.0344
  510MOL0     C67236   5.817   5.065   9.674  0.4269  0.1611 -0.0056
  510MOL0     C67237   5.935   4.996   9.718 -0.3666  0.7538 -0.7249
  510MOL0     N67238   6.274   4.765  10.340 -0.0675  0.2744  0.6424
  510MOL0     N67239   6.363   4.719  10.410 -0.0793  0.0694  0.3936
  510MOL0     C67240   7.553   4.540  10.882 -0.1634 -0.9931 -0.6723
  510MOL0     C67241   7.651   4.550  10.982  1.3286  0.6836 -0.7444
  510MOL0     C67242   8.016   4.580  11.246 -0.2859 -0.4275  0.4959
  510MOL0     C67243   8.125   4.645  11.190 -0.3273 -0.1052 -0.2032
  510MOL0     C67244   8.229   4.681  11.278 -0.0465  0.0641 -0.5808
  510MOL0     C67245   8.238   4.648  11.412  0.5129 -0.4629  0.4061
  510MOL0     O67246   8.344   4.690  11.483  0.0804 -0.6689 -0.3764
  510MOL0     C67247   8.438   4.588  11.515  0.3031 -0.5452  0.0605
  510MOL0     C67248   8.479   4.598  11.663  0.0565  0.0708  0.8990
  510MOL0     C67249   8.622   4.536  11.703  0.1138  0.1620  0.0910
  510MOL0     C67250   8.622   4.523  11.858  0.2352 -0.1956  1.4477
  510MOL0     C67251   8.740   4.447  11.905  0.7287 -0.8525  0.7413
  510MOL0     C67252   8.825   4.369  11.924  0.3095  0.8169  0.1208
  510MOL0     C67253   8.133   4.571  11.463  0.1612 -0.6782  0.8666
  510MOL0     C67254   8.026   4.535  11.380  0.5795 -0.5433 -0.8269
  510MOL0     H67255   7.905   4.616  10.768 -0.9089  0.4772 -1.1967
  510MOL0     H67256   7.739   4.583  10.610  1.3382 -1.1398  1.0569
  510MOL0     H67257   7.343   4.652  10.725  2.2929  0.0301  0.5094
  510MOL0     H67258   7.311   4.483  10.752 -1.6749 -0.1677 -2.0771
  510MOL0     H67259   7.285   4.455  10.499  1.4243  2.1110 -3.4815
  510MOL0     H67260   7.300   4.624  10.484 -3.3549  1.3455  0.4619
  510MOL0     H67261   7.130   4.687  10.649  3.2224 -1.4811  1.5030
  510MOL0     H67262   7.061   4.527  10.645  2.4322 -0.7509  0.3967
  510MOL0     H67263   7.093   4.721  10.419  1.4319 -0.7065 -0.8340
  510MOL0     H67264   7.066   4.551  10.372 -2.3843 -1.3736  0.5055
  510MOL0     H67265   6.888   4.703  10.551  2.8698 -0.9713  1.2936
  510MOL0     H67266   6.847   4.549  10.482  1.0385 -0.0876  2.7857
  510MOL0     H67267   6.859   4.682  10.242  0.8397  2.4835 -1.0931
  510MOL0     H67268   6.875   4.821  10.345  1.4276 -1.2708  1.7153
  510MOL0     H67269   6.659   4.791  10.455  1.0947 -1.0357  0.5045
  510MOL0     H67270   6.640   4.802  10.272 -0.7670  0.7647  1.3525
  510MOL0     H67271   6.581   4.606  10.478  3.0422 -1.6538 -0.0983
  510MOL0     H67272   6.617   4.539  10.314  3.0717 -0.5883  2.0328
  510MOL0     H67273   6.416   4.571  10.124 -0.2111 -2.7242  1.8372
  510MOL0     H67274   6.222   4.764  10.008 -0.9752 -0.4127 -1.2035
  510MOL0     H67275   6.116   4.812  10.142  3.3661  2.3535  3.0572
  510MOL0     H67276   6.036   4.592  10.166  0.3008  0.6559 -0.7268
  510MOL0     H67277   6.168   4.519  10.067  0.1891 -1.1842  2.1132
  510MOL0     H67278   5.963   4.523   9.931  1.2134 -0.0033 -2.3770
  510MOL0     H67279   5.922   4.680   9.990  0.5987  0.2754  1.2459
  510MOL0     H67280   6.022   4.592   9.747  0.1155 -3.2476  2.7896
  510MOL0     H67281   6.172   4.645   9.831  0.5490  0.3761  0.5254
  510MOL0     H67282   5.810   4.681   9.695  1.8072 -0.8636 -2.6783
  510MOL0     H67283   5.621   4.799   9.629  0.4635  1.3567 -1.8367
  510MOL0     H67284   5.524   5.436   9.581  2.4504 -1.5793 -0.1367
  510MOL0     H67285   5.358   5.565   9.472 -0.2903  1.2874 -3.3609
  510MOL0     H67286   5.056   5.383   9.203 -2.5090  1.7646  2.2679
  510MOL0     H67287   5.190   5.418   9.086 -1.2459 -2.5982  1.1969
  510MOL0     H67288   5.125   5.637   9.064  1.0085 -0.5629  1.4508
  510MOL0     H67289   5.007   5.625   9.192  0.0775 -4.0899  3.9400
  510MOL0     H67290   5.009   5.486   8.919  0.8956  0.9147 -0.6593
  510MOL0     H67291   4.906   5.624   8.964  2.8012  1.1276 -0.9606
  510MOL0     H67292   4.857   5.321   9.050  0.2647  0.5642 -0.3310
  510MOL0     H67293   4.792   5.447   9.134  0.7710 -0.9255 -0.0583
  510MOL0     H67294   4.670   5.324   8.940 -1.4309  1.8825  1.0989
  510MOL0     H67295   4.746   5.436   8.822 -1.4524  1.6506 -0.7498
  510MOL0     H67296   4.550   5.514   8.858  2.5009  1.2003 -2.3067
  510MOL0     H67297   4.675   5.617   8.946  1.7671 -1.5218  1.0444
  510MOL0     H67298   4.606   5.576   9.156 -1.9994  1.0989  1.0067
  510MOL0     H67299   4.450   5.603   9.065 -1.4550 -1.5557  0.2122
  510MOL0     H67300   4.552   5.338   9.113 -2.4735 -2.6550 -0.3128
  510MOL0     H67301   4.403   5.381   9.024  0.4133 -1.0067  0.3198
  510MOL0     H67302   5.260   5.232   9.219 -1.1735 -1.5626  1.6764
  510MOL0     H67303   5.456   5.110   9.324  1.3624  1.4439 -1.3797
  510MOL0     H67304   5.814   5.173   9.671 -2.4639  0.3245  2.8856
  510MOL0     H67305   6.024   5.053   9.740 -1.4369  1.2987  2.8708
  510MOL0     H67306   7.457   4.499  10.910 -2.2589  1.1072 -4.0450
  510MOL0     H67307   7.626   4.536  11.087  3.7157  1.4209 -0.0101
  510MOL0     H67308   8.114   4.655  11.082  0.7729  1.0380 -0.2366
  510MOL0     H67309   8.314   4.736  11.239  0.7291 -0.3488  0.4734
  510MOL0     H67310   8.525   4.601  11.451 -0.0392  1.2719 -0.0927
  510MOL0     H67311   8.393   4.489  11.506 -0.1039 -0.5124  1.4541
  510MOL0     H67312   8.490   4.705  11.681  1.0131 -0.1933  2.0110
  510MOL0     H67313   8.402   4.553  11.725 -3.4902 -0.1089 -3.1774
  510MOL0     H67314   8.708   4.599  11.678 -0.8568  1.6514  0.4257
  510MOL0     H67315   8.636   4.435  11.664  3.8856 -0.9028  3.4431
  510MOL0     H67316   8.605   4.617  11.912 -1.4595  0.4195 -0.0189
  510MOL0     H67317   8.543   4.459  11.898 -0.7759 -1.5166 -2.2430
  510MOL0     H67318   8.904   4.298  11.940 -1.2697 -1.1781 -0.4936
  510MOL0     H67319   8.124   4.544  11.568 -2.4987 -1.0041  0.6385
  510MOL0     H67320   7.947   4.469  11.414 -0.1483  0.4657 -0.5272
  511MOL0     O67321  10.674   7.372   6.396 -0.1263  0.1875 -0.4259
  511MOL0     C67322  10.745   7.466   6.356 -0.6556  0.0794 -0.3818
  511MOL0     O67323  10.729   7.595   6.389  0.0019  0.4123 -0.7306
  511MOL0     C67324  10.601   7.639   6.430  0.3273 -0.4099 -0.2357
  511MOL0     C67325  10.591   7.680   6.559  0.5886  0.2285 -0.2145
  511MOL0     C67326  10.460   7.698   6.608 -0.4296 -0.7130 -0.0163
  511MOL0     C67327  10.350   7.698   6.528  0.7395 -0.0361  1.1248
  511MOL0     O67328  10.218   7.697   6.579  0.4989 -1.1760  0.7639
  511MOL0     C67329  10.198   7.675   6.716 -0.3711 -0.2183 -0.3674
  511MOL0     C67330  10.045   7.687   6.731  0.1496 -0.3179  0.0815
  511MOL0     C67331  10.025   7.663   6.876 -0.3759 -0.0485 -0.8719
  511MOL0     C67332  10.100   7.754   6.968 -0.7259 -0.2626 -0.0911
  511MOL0     C67333  10.042   7.748   7.108 -0.2234  0.1138 -0.3340
  511MOL0     C67334  10.125   7.804   7.230  0.1738  0.0117  0.5516
  511MOL0     C67335  10.177   7.944   7.203  0.2610  0.1591 -0.3891
  511MOL0     C67336  10.058   8.030   7.178  1.1065  0.1180 -0.6787
  511MOL0     N67337  10.084   8.162   7.229  0.7169 -0.0618  0.1190
  511MOL0     C67338  10.157   8.267   7.175 -0.5439 -0.2893  0.4066
  511MOL0     C67339  10.143   8.368   7.259  0.0362  0.3214  0.2053
  511MOL0     C67340  10.207   8.502   7.244  0.4376  0.4165  0.3865
  511MOL0     C67341  10.359   8.481   7.258  0.1618 -0.0386 -0.0005
  511MOL0     C67342  10.403   8.465   7.400  0.2270 -0.4099  0.0586
  511MOL0     C67343  10.552   8.476   7.399 -0.0727 -0.1128 -0.4648
  511MOL0     O67344  10.603   8.457   7.525  0.0963  0.0677 -0.3458
  511MOL0     C67345  10.740   8.469   7.552  0.7972  0.2103  0.7042
  511MOL0     C67346  10.768   8.425   7.679 -0.9193 -1.1727 -0.5127
  511MOL0     C67347  10.908   8.441   7.718 -0.0592  0.1674 -0.0732
  511MOL0     C67348  11.008   8.478   7.623 -0.0543  0.1325 -0.9423
  511MOL0     C67349  11.149   8.482   7.659  0.2992 -0.6610  0.2104
  511MOL0     O67350  11.180   8.505   7.793  0.8926 -0.1720 -0.4403
  511MOL0     C67351  11.313   8.497   7.831  0.4040  0.0177 -0.8164
  511MOL0     C67352  11.405   8.401   7.784  0.4184 -0.0695  0.0420
  511MOL0     C67353  11.536   8.396   7.815 -0.3357 -0.1058 -0.2503
  511MOL0     C67354  11.575   8.485   7.921 -0.1766  0.3335 -0.4668
  511MOL0     O67355  11.703   8.469   7.969 -0.0657 -0.5595 -0.5582
  511MOL0     C67356  11.815   8.453   7.886  0.1638 -0.1554 -0.4021
  511MOL0     C67357  11.943   8.460   7.978  0.2873 -0.4233 -0.5056
  511MOL0     C67358  12.058   8.380   7.909  0.4532 -0.1465 -0.6000
  511MOL0     C67359  12.198   8.413   7.961  0.2255 -0.7765 -0.8460
  511MOL0     C67360  12.301   8.314   7.911 -0.0443  0.0985 -0.0894
  511MOL0     C67361  12.442   8.328   7.978  0.5415  0.2209 -0.0652
  511MOL0     C67362  12.532   8.440   7.933 -1.1239  0.2565  0.7115
  511MOL0     C67363  12.622   8.415   7.804 -0.1638  0.6701  0.3793
  511MOL0    Cl67364  12.718   8.564   7.762  0.2973 -0.1777  0.1519
  511MOL0     C67365  11.480   8.567   7.992 -0.0753 -0.0334 -0.0996
  511MOL0     C67366  11.349   8.565   7.946  0.0522  0.1781 -0.0240
  511MOL0     O67367  11.228   8.493   7.569  0.2023  0.2746 -0.0428
  511MOL0     C67368  10.967   8.512   7.493 -0.1541  0.6026  0.2206
  511MOL0     C67369  10.830   8.505   7.456  0.9653  0.2196 -0.1021
  511MOL0     N67370  10.045   8.343   7.353  0.1322  0.1506 -0.3728
  511MOL0     N67371  10.014   8.219   7.329  0.0817  0.1680 -0.9496
  511MOL0     C67372  10.363   7.665   6.393  0.2758  0.6563  0.8623
  511MOL0     C67373  10.490   7.627   6.344  0.4500  0.0411  0.2111
  511MOL0     C67374  10.865   7.436   6.269 -0.1352  0.4667  0.0232
  511MOL0     C67375  10.893   7.301   6.248 -0.0548  0.2378 -0.4549
  511MOL0     C67376  11.000   7.255   6.169 -0.1794 -1.1685 -0.3996
  511MOL0     C67377  11.084   7.350   6.116  0.4172  0.1600  0.0821
  511MOL0     O67378  11.186   7.298   6.041  0.2376  0.1192  0.3308
  511MOL0     C67379  11.251   7.382   5.945  0.4545 -0.0722  0.6615
  511MOL0     C67380  11.363   7.293   5.872 -0.3883 -0.2423 -0.1329
  511MOL0     C67381  11.417   7.349   5.739  0.0362 -0.9156  0.5481
  511MOL0     C67382  11.538   7.283   5.678  0.1648 -0.2108  0.1858
  511MOL0     C67383  11.504   7.143   5.646  0.1676 -0.2179  0.0603
  511MOL0     C67384  11.484   7.022   5.636 -0.0592  0.1993  0.7242
  511MOL0     C67385  11.062   7.484   6.141  0.4631 -0.6491 -0.4206
  511MOL0     C67386  10.954   7.527   6.214 -0.3517 -0.0591  0.0992
  511MOL0     H67387  10.682   7.706   6.612 -0.3429  2.5388  0.3903
  511MOL0     H67388  10.449   7.730   6.711  0.5860  4.1430 -1.1784
  511MOL0     H67389  10.258   7.746   6.773  0.4530 -0.3091 -1.1085
  511MOL0     H67390  10.233   7.577   6.751  2.7224  0.1727 -2.0197
  511MOL0     H67391   9.992   7.608   6.676  2.1915  0.1079 -2.7370
  511MOL0     H67392  10.019   7.791   6.708 -1.4566  0.0913  3.2265
  511MOL0     H67393  10.052   7.561   6.903  0.4524  1.2228  4.0438
  511MOL0     H67394   9.920   7.685   6.899 -0.6747 -0.1997 -2.0051
  511MOL0     H67395  10.206   7.726   6.971 -0.3162  1.2609  0.3315
  511MOL0     H67396  10.098   7.857   6.933  1.5965 -0.5816 -1.3755
  511MOL0     H67397  10.025   7.642   7.130 -2.6546  0.0999 -1.9442
  511MOL0     H67398   9.944   7.796   7.114  1.2659  3.3464  0.3892
  511MOL0     H67399  10.208   7.734   7.245 -0.4689 -1.1989 -1.1436
  511MOL0     H67400  10.060   7.805   7.318  0.2868 -1.4991  0.6802
  511MOL0     H67401  10.233   7.977   7.291 -0.0743 -1.3309  0.4231
  511MOL0     H67402  10.251   7.948   7.122  2.3957 -1.3706  1.3624
  511MOL0     H67403   9.970   7.991   7.230  1.8119 -0.9274 -0.2355
  511MOL0     H67404  10.038   8.042   7.071  0.2249  0.8209 -0.4501
  511MOL0     H67405  10.221   8.250   7.088 -2.3668 -3.5287 -0.4611
  511MOL0     H67406  10.171   8.572   7.320 -0.4058  1.6235 -1.0534
  511MOL0     H67407  10.183   8.546   7.146  3.1498  4.0882  1.1436
  511MOL0     H67408  10.401   8.571   7.213 -0.9144  0.6255  0.2833
  511MOL0     H67409  10.387   8.388   7.206 -1.1785 -0.7908  0.5758
  511MOL0     H67410  10.363   8.547   7.460  1.2894 -1.1658  1.8729
  511MOL0     H67411  10.376   8.367   7.441  1.2079 -0.0532  1.6058
  511MOL0     H67412  10.584   8.571   7.358  1.0327 -1.6026 -3.3409
  511MOL0     H67413  10.592   8.406   7.325  1.8638  0.3735  0.0523
  511MOL0     H67414  10.691   8.381   7.742  0.5639  0.7847  2.9341
  511MOL0     H67415  10.929   8.406   7.819  0.0432 -0.2560 -0.2401
  511MOL0     H67416  11.372   8.326   7.713  0.8195  0.4151 -0.6782
  511MOL0     H67417  11.605   8.332   7.763 -1.5178 -0.3073 -1.6499
  511MOL0     H67418  11.819   8.531   7.810 -0.6633 -1.1127 -1.4613
  511MOL0     H67419  11.813   8.360   7.829  0.2592  0.6155 -1.7184
  511MOL0     H67420  11.927   8.409   8.074  0.3370 -0.4836 -0.5290
  511MOL0     H67421  11.964   8.561   8.015 -2.9784 -0.0964  0.8399
  511MOL0     H67422  12.060   8.399   7.801 -0.5203 -1.8707 -0.9677
  511MOL0     H67423  12.033   8.274   7.913  0.4142 -0.2875 -3.2192
  511MOL0     H67424  12.227   8.512   7.925 -0.0402 -1.2643 -2.4393
  511MOL0     H67425  12.200   8.417   8.071 -2.3065 -1.0991 -0.7419
  511MOL0     H67426  12.303   8.321   7.802  1.1270 -0.1271 -0.0990
  511MOL0     H67427  12.266   8.212   7.931 -2.4861  0.5865 -1.4893
  511MOL0     H67428  12.495   8.236   7.950  1.2483 -0.2765  2.6789
  511MOL0     H67429  12.446   8.327   8.087 -1.1769  0.4809  0.0319
  511MOL0     H67430  12.472   8.530   7.919  0.4530  1.7889  2.9875
  511MOL0     H67431  12.608   8.466   8.008  0.1984 -1.5046  0.0676
  511MOL0     H67432  12.563   8.390   7.715  0.6880 -0.0973  0.0162
  511MOL0     H67433  12.689   8.331   7.822  2.1901  2.2112 -0.7268
  511MOL0     H67434  11.499   8.615   8.088  0.0459  1.2818 -0.7615
  511MOL0     H67435  11.271   8.613   8.004 -0.2996 -1.2230  0.7165
  511MOL0     H67436  11.030   8.524   7.405 -0.8345 -1.2808 -0.5823
  511MOL0     H67437  10.809   8.538   7.355  2.4381 -0.7213 -0.7366
  511MOL0     H67438  10.276   7.650   6.329  1.5001  1.9875 -1.2142
  511MOL0     H67439  10.505   7.595   6.242  0.4477  2.1055 -0.4823
  511MOL0     H67440  10.824   7.224   6.282 -0.7547  1.2119  0.4045
  511MOL0     H67441  11.008   7.149   6.145 -0.4788 -1.6640  1.4861
  511MOL0     H67442  11.294   7.462   6.006 -1.6870  1.7448 -0.0609
  511MOL0     H67443  11.185   7.423   5.868  0.4951 -3.2582 -1.2232
  511MOL0     H67444  11.444   7.271   5.943 -0.0469 -1.6706 -0.9286
  511MOL0     H67445  11.324   7.193   5.851 -0.2076 -0.2625 -0.3767
  511MOL0     H67446  11.441   7.455   5.751  1.0914 -1.0560 -0.1752
  511MOL0     H67447  11.339   7.340   5.662  1.3397 -1.5792 -0.7383
  511MOL0     H67448  11.558   7.339   5.586 -1.4550  3.5764  1.9347
  511MOL0     H67449  11.624   7.293   5.746  0.8440 -0.9027 -0.5483
  511MOL0     H67450  11.481   6.917   5.617  2.2290 -0.0896  1.6033
  511MOL0     H67451  11.135   7.559   6.112  1.0829 -1.1157 -0.0812
  511MOL0     H67452  10.950   7.635   6.226  2.2438  0.2744 -1.3847
  512MOL0     O67453   8.779   1.521   5.804  0.0375  0.3002 -0.6397
  512MOL0     C67454   8.836   1.624   5.839  0.0472 -0.3770  0.1900
  512MOL0     O67455   8.970   1.630   5.874  0.2214  0.0047 -0.8601
  512MOL0     C67456   9.037   1.521   5.840 -1.3332  1.2351 -0.0141
  512MOL0     C67457   9.066   1.418   5.931 -1.4749 -0.5851  0.3828
  512MOL0     C67458   9.146   1.318   5.890 -0.3409  0.2865 -1.0007
  512MOL0     C67459   9.190   1.300   5.761 -0.4077  0.0648  0.5194
  512MOL0     O67460   9.264   1.196   5.712 -0.2983  0.0076 -0.6412
  512MOL0     C67461   9.314   1.098   5.809  0.2751  0.1867  0.1195
  512MOL0     C67462   9.441   1.042   5.751 -0.0425 -0.4198  0.0875
  512MOL0     C67463   9.563   1.123   5.795  0.7126 -0.4541  0.5513
  512MOL0     C67464   9.695   1.049   5.775 -0.1580  0.1142  0.2100
  512MOL0     C67465   9.820   1.141   5.769  0.6699  0.8244  0.0738
  512MOL0     C67466   9.949   1.062   5.773 -0.3853  0.4270  0.1273
  512MOL0     C67467  10.077   1.155   5.787 -0.5823  0.5373 -0.5233
  512MOL0     C67468  10.201   1.080   5.734 -0.2422  0.1887  1.6346
  512MOL0     N67469  10.325   1.153   5.768  1.0695 -0.7750 -0.8675
  512MOL0     C67470  10.373   1.173   5.895  0.3227  0.5721 -0.2452
  512MOL0     C67471  10.497   1.228   5.875 -0.5341 -0.6136 -0.4802
  512MOL0     C67472  10.597   1.245   5.985 -0.1778  0.2027  0.5375
  512MOL0     C67473  10.604   1.388   6.058  0.0705  0.1126  1.0780
  512MOL0     C67474  10.598   1.505   5.953 -0.0006  0.2474  0.0656
  512MOL0     C67475  10.461   1.543   5.884 -0.7004 -0.2071 -0.5782
  512MOL0     O67476  10.379   1.581   6.000  0.2299  0.1533 -0.7903
  512MOL0     C67477  10.244   1.559   6.008 -0.5402  0.0223  0.0123
  512MOL0     C67478  10.167   1.506   5.907 -1.2386 -0.5050 -0.6280
  512MOL0     C67479  10.032   1.479   5.917  0.0723  0.5159 -0.2782
  512MOL0     C67480   9.971   1.493   6.045 -0.3132 -0.8538  0.4372
  512MOL0     C67481   9.828   1.461   6.060 -0.6921 -0.0322  1.1343
  512MOL0     O67482   9.778   1.469   6.187 -0.5912 -0.2231  0.1621
  512MOL0     C67483   9.643   1.438   6.214  0.3278  0.4012  0.5755
  512MOL0     C67484   9.533   1.456   6.125  0.2258  0.2105 -0.0080
  512MOL0     C67485   9.402   1.424   6.167 -0.4672 -0.3819 -0.0319
  512MOL0     C67486   9.375   1.372   6.288 -0.5754 -0.0143 -0.1922
  512MOL0     O67487   9.243   1.337   6.296 -0.2778 -0.3116 -0.3230
  512MOL0     C67488   9.194   1.254   6.408  1.2305 -0.3295 -0.7341
  512MOL0     C67489   9.055   1.193   6.380 -0.5147 -0.4322 -0.4217
  512MOL0     C67490   8.938   1.285   6.393  0.0288 -0.4597  0.3051
  512MOL0     C67491   8.966   1.439   6.383 -0.7753 -0.1320 -0.2393
  512MOL0     C67492   8.833   1.528   6.379 -0.0804 -0.1676 -0.0808
  512MOL0     C67493   8.860   1.682   6.400  0.0508 -0.2789  0.3744
  512MOL0     C67494   8.914   1.750   6.271  0.1336  0.0800  0.0442
  512MOL0     C67495   8.966   1.892   6.301  0.0304 -0.4904 -0.7499
  512MOL0    Cl67496   9.083   1.941   6.163 -0.2976  0.1717  0.3255
  512MOL0     C67497   9.482   1.364   6.376  0.0003  0.7113 -0.0719
  512MOL0     C67498   9.610   1.401   6.345 -0.5907  0.1432 -0.6346
  512MOL0     O67499   9.765   1.416   5.959  0.7220 -0.5804  0.0806
  512MOL0     C67500  10.053   1.532   6.155  0.3151 -0.1642  0.6090
  512MOL0     C67501  10.182   1.575   6.134  0.5992 -0.0132  0.3986
  512MOL0     N67502  10.523   1.231   5.735 -0.3593  0.5806  0.0065
  512MOL0     N67503  10.411   1.202   5.674  0.4895 -0.0180  0.2280
  512MOL0     C67504   9.151   1.391   5.667 -0.2744 -0.4467 -0.0958
  512MOL0     C67505   9.072   1.502   5.705  0.6593 -0.5451  0.0402
  512MOL0     C67506   8.757   1.751   5.867 -0.6016  0.7026  0.3364
  512MOL0     C67507   8.837   1.855   5.922  0.4916  0.1451 -0.1830
  512MOL0     C67508   8.775   1.968   5.968 -0.0609 -0.2133  0.3102
  512MOL0     C67509   8.638   1.983   5.963  0.6212 -0.0406 -0.5430
  512MOL0     O67510   8.604   2.109   6.008  0.1806  0.0660 -0.7881
  512MOL0     C67511   8.461   2.126   6.017  0.6786  0.8531  0.7780
  512MOL0     C67512   8.428   2.253   6.088 -0.2057 -0.2505  0.5412
  512MOL0     C67513   8.276   2.279   6.113 -0.7292 -0.0237 -0.0107
  512MOL0     C67514   8.256   2.338   6.256  1.0949  0.1307 -0.0036
  512MOL0     C67515   8.112   2.381   6.274 -0.7882 -0.1663  0.2073
  512MOL0     C67516   8.000   2.420   6.294 -0.7210  0.1012  0.9970
  512MOL0     C67517   8.552   1.882   5.898 -0.5969  0.2171 -0.3019
  512MOL0     C67518   8.611   1.757   5.853  0.1108 -0.6908 -0.5037
  512MOL0     H67519   9.027   1.420   6.032 -0.7764  0.0101  0.6472
  512MOL0     H67520   9.167   1.239   5.962 -0.4830  1.8402  0.8347
  512MOL0     H67521   9.244   1.016   5.828 -0.6125  0.7552 -0.5636
  512MOL0     H67522   9.342   1.137   5.907 -3.1105  1.7646  0.6114
  512MOL0     H67523   9.429   1.036   5.642  0.2734 -1.5822  0.0946
  512MOL0     H67524   9.460   0.949   5.805  2.9821  1.2767  2.2440
  512MOL0     H67525   9.560   1.136   5.904  1.1671  1.5762  0.3690
  512MOL0     H67526   9.571   1.222   5.749  0.1881  1.0203  3.3957
  512MOL0     H67527   9.716   0.970   5.848  2.6258  1.1099  0.5965
  512MOL0     H67528   9.685   0.995   5.681 -2.5320  2.4346 -0.9705
  512MOL0     H67529   9.823   1.199   5.861 -1.3732  0.3876  0.4661
  512MOL0     H67530   9.822   1.216   5.690 -1.2088  1.5956  0.6933
  512MOL0     H67531   9.963   1.002   5.682  0.5994  1.7397 -0.6276
  512MOL0     H67532   9.943   0.988   5.853  4.1095 -1.5708 -1.0467
  512MOL0     H67533  10.068   1.250   5.734  1.4701  1.2147  0.2350
  512MOL0     H67534  10.092   1.167   5.895 -0.2753 -0.0406 -0.4990
  512MOL0     H67535  10.191   1.077   5.626  0.2804  0.9681  1.5552
  512MOL0     H67536  10.207   0.977   5.773 -0.8289 -0.4257  0.1526
  512MOL0     H67537  10.322   1.136   5.983  1.0734  0.1274  0.0062
  512MOL0     H67538  10.698   1.224   5.947  1.4029  1.5556  3.6260
  512MOL0     H67539  10.585   1.180   6.072 -1.2684  1.0235  1.0137
  512MOL0     H67540  10.694   1.407   6.117  0.3900  1.1893  0.2755
  512MOL0     H67541  10.522   1.398   6.131 -1.8752  2.7730 -1.2357
  512MOL0     H67542  10.636   1.595   6.002  1.6860 -0.5663  0.3214
  512MOL0     H67543  10.670   1.490   5.873  1.9556  2.9746  1.1560
  512MOL0     H67544  10.419   1.465   5.820  2.8610 -1.6185 -1.4224
  512MOL0     H67545  10.475   1.631   5.822 -1.5060  0.8280  0.6600
  512MOL0     H67546  10.204   1.500   5.805  0.7285  2.8887 -0.2680
  512MOL0     H67547   9.967   1.462   5.831  2.5919  3.8831 -3.1508
  512MOL0     H67548   9.548   1.497   6.025 -0.7659 -0.2053 -0.3444
  512MOL0     H67549   9.327   1.443   6.092 -0.4077  0.3716  0.0878
  512MOL0     H67550   9.191   1.303   6.506  0.2807 -3.1136  0.7160
  512MOL0     H67551   9.262   1.171   6.426  1.4553 -0.0963 -0.4933
  512MOL0     H67552   9.041   1.103   6.440  0.8659 -0.9581 -0.8422
  512MOL0     H67553   9.046   1.147   6.281 -2.9293  0.6148 -0.7515
  512MOL0     H67554   8.881   1.273   6.486 -1.3938  0.7359 -0.3660
  512MOL0     H67555   8.861   1.269   6.317 -2.0199 -2.5978  2.6632
  512MOL0     H67556   9.027   1.472   6.468  1.8118 -1.3891 -1.5139
  512MOL0     H67557   9.030   1.463   6.298  1.0177 -1.4832  0.6642
  512MOL0     H67558   8.762   1.505   6.459 -1.5749 -1.4798 -1.7088
  512MOL0     H67559   8.792   1.524   6.277 -0.2907  3.3661 -0.2642
  512MOL0     H67560   8.926   1.703   6.484 -3.8734  1.5494  3.3249
  512MOL0     H67561   8.768   1.738   6.422 -0.9891 -1.0625 -1.6331
  512MOL0     H67562   8.995   1.690   6.228  1.2550  2.8565 -2.0252
  512MOL0     H67563   8.832   1.758   6.200 -0.4553  0.5785  0.7590
  512MOL0     H67564   9.004   1.890   6.403  0.0351  0.4862 -0.7256
  512MOL0     H67565   8.890   1.969   6.289  1.4301  0.7134 -2.5113
  512MOL0     H67566   9.453   1.348   6.479 -1.0260  0.3802 -0.4012
  512MOL0     H67567   9.687   1.396   6.421 -1.0574  0.8790 -0.0886
  512MOL0     H67568  10.017   1.535   6.257  2.1227  1.1094  1.2533
  512MOL0     H67569  10.242   1.602   6.220  1.5842 -1.4772  0.2076
  512MOL0     H67570   9.186   1.365   5.567  2.0444 -3.0320  1.2500
  512MOL0     H67571   9.043   1.571   5.626  0.5652 -0.1051  0.4510
  512MOL0     H67572   8.946   1.856   5.924  0.6676 -0.6926 -3.5235
  512MOL0     H67573   8.829   2.055   6.004  0.2813 -0.9510  1.6582
  512MOL0     H67574   8.436   2.037   6.075  0.4773  0.7414  0.5230
  512MOL0     H67575   8.405   2.112   5.924  0.8466  1.4941  0.5754
  512MOL0     H67576   8.481   2.260   6.183 -1.7390 -2.3369  1.6287
  512MOL0     H67577   8.464   2.333   6.023 -0.6880  0.1077  0.7053
  512MOL0     H67578   8.221   2.185   6.111 -1.2179  0.2549  0.3192
  512MOL0     H67579   8.227   2.338   6.035 -3.1583 -2.8889 -0.8237
  512MOL0     H67580   8.273   2.261   6.332 -3.1572 -1.0204  0.0125
  512MOL0     H67581   8.314   2.428   6.277  0.4350 -0.0907  3.3617
  512MOL0     H67582   7.905   2.467   6.309 -0.8618  0.4922 -0.8259
  512MOL0     H67583   8.444   1.892   5.900 -0.5046  1.8890 -1.5572
  512MOL0     H67584   8.542   1.681   5.818 -0.8747  0.2862 -0.7463
  513MOL0     O67585   1.662   4.141   9.078 -0.1118 -0.2530 -0.6774
  513MOL0     C67586   1.679   4.132   9.199  0.6749 -0.3928  0.0752
  513MOL0     O67587   1.578   4.143   9.292  0.0417  0.1235 -0.1761
  513MOL0     C67588   1.460   4.196   9.250 -0.2582 -0.3257  0.5972
  513MOL0     C67589   1.385   4.138   9.149 -1.3344 -0.3108  0.0037
  513MOL0     C67590   1.268   4.208   9.095 -0.1842  0.0924  0.9800
  513MOL0     C67591   1.221   4.325   9.155 -0.9876 -0.7635 -0.3534
  513MOL0     O67592   1.110   4.379   9.106  0.2112 -0.4896  0.0723
  513MOL0     C67593   1.076   4.369   8.964 -0.7872 -0.0835 -0.0919
  513MOL0     C67594   0.983   4.475   8.911  0.6886 -0.0251 -0.6467
  513MOL0     C67595   0.853   4.492   8.994 -0.4855 -0.1730  0.1753
  513MOL0     C67596   0.760   4.588   8.917  0.0595 -0.2015 -0.2457
  513MOL0     C67597   0.637   4.633   9.005 -0.3573 -0.4838  0.0929
  513MOL0     C67598   0.688   4.740   9.104  1.0684 -0.3523  1.0114
  513MOL0     C67599   0.567   4.792   9.186  0.0568  0.4313  0.8107
  513MOL0     C67600   0.542   4.713   9.315  0.1949 -0.2628 -0.0209
  513MOL0     N67601   0.418   4.764   9.365  0.3469 -0.0155  0.6474
  513MOL0     C67602   0.401   4.859   9.461 -0.1500  0.3741 -0.2803
  513MOL0     C67603   0.265   4.866   9.486 -0.1390  0.1598  0.4349
  513MOL0     C67604   0.193   4.951   9.586 -0.1905 -0.5825 -0.2920
  513MOL0     C67605   0.052   4.895   9.610  0.8019  0.4357  0.0386
  513MOL0     C67606  -0.051   4.918   9.497  0.5407  0.4154 -0.4487
  513MOL0     C67607  -0.186   4.855   9.526 -0.3120 -0.4527  0.5947
  513MOL0     O67608  -0.283   4.907   9.429 -0.4197  0.6818 -0.3994
  513MOL0     C67609  -0.408   4.855   9.427  0.0587 -0.4075  0.2085
  513MOL0     C67610  -0.495   4.917   9.329 -0.3674  0.2267 -0.8539
  513MOL0     C67611  -0.633   4.888   9.333 -0.2994  0.0223  0.3200
  513MOL0     C67612  -0.697   4.797   9.422  0.5976 -0.1736  0.5807
  513MOL0     C67613  -0.850   4.793   9.415 -0.9093 -0.0894 -0.8213
  513MOL0     O67614  -0.905   4.856   9.307  0.2164  0.4364  0.0771
  513MOL0     C67615  -1.036   4.847   9.295  0.1996  0.3026  0.0630
  513MOL0     C67616  -1.099   4.733   9.232 -0.2349 -0.8473 -0.3508
  513MOL0     C67617  -1.241   4.738   9.223 -0.4919  0.4879 -0.0768
  513MOL0     C67618  -1.323   4.843   9.273 -0.0605  0.4695  1.0902
  513MOL0     O67619  -1.461   4.835   9.271  0.1439  0.2787  0.8462
  513MOL0     C67620  -1.513   4.890   9.145 -0.1179 -0.6007  0.2519
  513MOL0     C67621  -1.642   4.825   9.106  0.2946  0.2533  0.2342
  513MOL0     C67622  -1.764   4.848   9.201  0.1587  0.0138 -0.0990
  513MOL0     C67623  -1.878   4.759   9.157  0.3739 -0.2549 -0.0096
  513MOL0     C67624  -2.016   4.787   9.226 -0.7529 -0.6918  0.6184
  513MOL0     C67625  -2.122   4.726   9.140  0.6343 -0.5767 -0.6313
  513MOL0     C67626  -2.123   4.581   9.163 -0.3631 -0.3445 -0.6931
  513MOL0     C67627  -2.178   4.511   9.044 -0.4655  0.5445 -0.7897
  513MOL0    Cl67628  -2.109   4.564   8.888  0.0549 -0.0329 -0.3192
  513MOL0     C67629  -1.261   4.950   9.335 -0.1139 -0.2738 -0.7027
  513MOL0     C67630  -1.122   4.944   9.345  0.1289  0.7668  0.1317
  513MOL0     O67631  -0.906   4.737   9.511 -0.7335  0.7176 -0.4663
  513MOL0     C67632  -0.610   4.731   9.512  0.4486  0.3096  0.9708
  513MOL0     C67633  -0.466   4.759   9.509 -0.4517  1.1745 -0.3266
  513MOL0     N67634   0.208   4.781   9.389 -0.3047 -0.2340  0.9599
  513MOL0     N67635   0.300   4.718   9.313  0.6549 -0.4780 -0.2348
  513MOL0     C67636   1.307   4.389   9.246  0.5509  0.3107  0.5708
  513MOL0     C67637   1.419   4.322   9.296 -0.4084 -0.6725 -1.1112
  513MOL0     C67638   1.811   4.094   9.244  0.0460  0.4578  0.5245
  513MOL0     C67639   1.818   4.031   9.369 -0.1612  0.2826  0.2518
  513MOL0     C67640   1.942   4.003   9.416 -0.5945 -0.1604 -0.8599
  513MOL0     C67641   2.057   4.023   9.345  0.2003 -0.2785  1.1024
  513MOL0     O67642   2.182   3.982   9.377  0.1034 -0.3270 -0.4270
  513MOL0     C67643   2.220   3.923   9.506 -0.4076 -0.6134 -0.6677
  513MOL0     C67644   2.269   4.030   9.607  0.1887 -0.3746 -0.0281
  513MOL0     C67645   2.398   4.100   9.547 -0.1103 -0.1197  0.1045
  513MOL0     C67646   2.495   4.149   9.660 -0.5723 -0.2147 -0.0896
  513MOL0     C67647   2.552   4.039   9.729 -0.8767  0.1230 -0.5317
  513MOL0     C67648   2.605   3.935   9.765 -0.0908  0.9361 -0.7857
  513MOL0     C67649   2.045   4.076   9.213 -0.0475 -0.0032  0.3746
  513MOL0     C67650   1.920   4.097   9.166  0.5243 -0.6137 -0.3803
  513MOL0     H67651   1.424   4.045   9.110  0.1794 -0.1854  1.1315
  513MOL0     H67652   1.216   4.164   9.011 -3.0536  2.9804  1.0665
  513MOL0     H67653   1.036   4.267   8.957  2.6767 -1.4551 -2.0878
  513MOL0     H67654   1.168   4.369   8.906 -0.7187 -0.6098  0.0053
  513MOL0     H67655   0.957   4.445   8.809  2.8067 -2.7605 -0.4876
  513MOL0     H67656   1.027   4.575   8.905  1.7183 -0.4425 -0.2692
  513MOL0     H67657   0.876   4.527   9.095 -1.8057  0.6661  0.2176
  513MOL0     H67658   0.803   4.396   9.008 -1.7562  0.3977 -0.2589
  513MOL0     H67659   0.819   4.670   8.876  1.9097 -1.2051  0.2905
  513MOL0     H67660   0.709   4.531   8.839  1.4585 -0.1544 -1.2330
  513MOL0     H67661   0.584   4.552   9.056 -0.3395  0.1220  1.0956
  513MOL0     H67662   0.576   4.687   8.932  2.0838  0.4997 -1.3319
  513MOL0     H67663   0.738   4.827   9.061 -1.5275  0.8036  0.1390
  513MOL0     H67664   0.759   4.692   9.172  2.1975  0.5237  0.4773
  513MOL0     H67665   0.590   4.897   9.208  1.9938  1.0518 -3.1688
  513MOL0     H67666   0.478   4.786   9.123  1.0152 -0.1959 -0.5175
  513MOL0     H67667   0.629   4.736   9.378  1.6505 -0.0019 -2.0404
  513MOL0     H67668   0.534   4.604   9.315  0.1213 -0.3227  2.6167
  513MOL0     H67669   0.467   4.932   9.507 -2.0009  0.9972  1.5516
  513MOL0     H67670   0.199   5.049   9.538  0.1393 -0.0581  0.7844
  513MOL0     H67671   0.243   4.959   9.683  1.4400  0.1832 -1.1599
  513MOL0     H67672   0.020   4.928   9.709 -0.9461 -3.3019  0.8997
  513MOL0     H67673   0.052   4.787   9.622  3.5857 -0.1213 -3.0977
  513MOL0     H67674  -0.070   5.025   9.484 -0.3134  0.0874 -2.1899
  513MOL0     H67675  -0.020   4.876   9.400  3.2594 -0.7517  0.8071
  513MOL0     H67676  -0.216   4.894   9.624  0.1295  0.6953  0.2939
  513MOL0     H67677  -0.174   4.747   9.526 -0.3553 -0.4572 -0.1318
  513MOL0     H67678  -0.457   5.000   9.269 -2.1506  1.4918 -0.2873
  513MOL0     H67679  -0.689   4.944   9.259 -2.1398 -0.9984  0.8891
  513MOL0     H67680  -1.046   4.645   9.199  0.0621 -1.2209  1.0757
  513MOL0     H67681  -1.288   4.649   9.186  2.5506 -3.1335  3.7036
  513MOL0     H67682  -1.438   4.878   9.067  1.1177 -0.6101  1.4111
  513MOL0     H67683  -1.539   4.996   9.152 -3.1424 -0.9673 -2.7436
  513MOL0     H67684  -1.622   4.717   9.106  0.8840  0.3605 -0.1160
  513MOL0     H67685  -1.662   4.850   9.001 -1.3028  1.0515  0.6879
  513MOL0     H67686  -1.782   4.956   9.194  2.1304  0.2891 -2.0817
  513MOL0     H67687  -1.732   4.826   9.304 -0.6109 -1.3180 -0.1199
  513MOL0     H67688  -1.897   4.757   9.049  0.5913 -2.3224 -0.0495
  513MOL0     H67689  -1.849   4.658   9.185 -0.4899 -0.1040  1.5391
  513MOL0     H67690  -2.027   4.896   9.235  0.7635 -0.6861  3.2987
  513MOL0     H67691  -2.025   4.747   9.327  0.3822  1.9460  1.8611
  513MOL0     H67692  -2.130   4.755   9.035 -1.4472 -3.0653 -1.2846
  513MOL0     H67693  -2.215   4.764   9.183  1.7651  0.8152  0.6738
  513MOL0     H67694  -2.024   4.536   9.176 -0.0993 -0.1106 -1.7253
  513MOL0     H67695  -2.173   4.551   9.255  0.0091 -1.8124 -0.9326
  513MOL0     H67696  -2.287   4.521   9.039 -0.3926  1.8836 -0.1804
  513MOL0     H67697  -2.143   4.409   9.061 -1.9783  0.1231  0.0349
  513MOL0     H67698  -1.318   5.033   9.376 -2.6513 -1.8640 -0.7916
  513MOL0     H67699  -1.076   5.035   9.384  0.1391  1.1120 -0.6594
  513MOL0     H67700  -0.647   4.649   9.572 -0.0874  0.5697  1.0021
  513MOL0     H67701  -0.414   4.708   9.590 -1.2013 -1.1984 -1.2472
  513MOL0     H67702   1.284   4.489   9.282  0.4758  0.8078 -0.7947
  513MOL0     H67703   1.480   4.367   9.375 -0.1713 -3.0422  0.1392
  513MOL0     H67704   1.735   4.014   9.437  1.0038  3.7265  2.8257
  513MOL0     H67705   1.957   3.960   9.514  0.3709 -1.9368 -1.7308
  513MOL0     H67706   2.305   3.854   9.498  1.7167  1.3464  2.6146
  513MOL0     H67707   2.138   3.868   9.553 -0.7745  3.2433  3.8902
  513MOL0     H67708   2.193   4.106   9.629 -0.5763 -0.6569 -1.5541
  513MOL0     H67709   2.292   3.981   9.701  0.4846 -1.3779 -0.6138
  513MOL0     H67710   2.362   4.184   9.487 -2.3196 -2.6704 -2.4302
  513MOL0     H67711   2.453   4.034   9.479 -0.0360  1.1971 -1.1733
  513MOL0     H67712   2.582   4.207   9.627  1.5979 -2.3524  1.5395
  513MOL0     H67713   2.436   4.199   9.738 -1.0669 -0.5745 -0.2255
  513MOL0     H67714   2.657   3.845   9.792 -0.3113  1.1083  0.2854
  513MOL0     H67715   2.135   4.087   9.153 -0.5121  1.4926 -0.1022
  513MOL0     H67716   1.907   4.149   9.071 -1.7477  1.6113  1.0031
  514MOL0     O67717   9.217   2.152   9.295  0.5194 -0.2611 -0.4342
  514MOL0     C67718   9.211   2.274   9.312 -0.1123 -0.3645 -0.2764
  514MOL0     O67719   9.094   2.349   9.331 -0.5515  0.7340  0.2306
  514MOL0     C67720   8.962   2.293   9.317  0.4075  0.5237 -0.6153
  514MOL0     C67721   8.864   2.380   9.362  0.3065 -0.2686  0.1353
  514MOL0     C67722   8.725   2.341   9.369 -0.6111  0.3714  0.6591
  514MOL0     C67723   8.687   2.212   9.326  0.0216 -0.7613 -0.7368
  514MOL0     O67724   8.559   2.176   9.330  0.2518  0.3786 -0.0851
  514MOL0     C67725   8.461   2.266   9.398 -0.2785 -0.3464 -0.2288
  514MOL0     C67726   8.317   2.220   9.367 -0.1183 -0.2820  0.5943
  514MOL0     C67727   8.243   2.278   9.251  0.2281 -0.0539  0.5090
  514MOL0     C67728   8.102   2.211   9.269  1.0335 -0.2629 -0.5942
  514MOL0     C67729   7.989   2.256   9.178 -0.2751  0.2574  0.2705
  514MOL0     C67730   7.857   2.199   9.236  0.2219 -0.5137 -0.9163
  514MOL0     C67731   7.844   2.047   9.255  0.7508  0.1498 -0.7901
  514MOL0     C67732   7.703   2.013   9.311  0.2954  0.6303 -0.8970
  514MOL0     N67733   7.656   1.881   9.278  0.1099  0.6193  0.2183
  514MOL0     C67734   7.734   1.766   9.287  0.0049 -0.6834 -0.1189
  514MOL0     C67735   7.648   1.670   9.242  0.6397  0.5125 -0.0093
  514MOL0     C67736   7.688   1.522   9.232  0.2310 -0.5339  0.1569
  514MOL0     C67737   7.661   1.482   9.078 -0.5836  0.0009 -0.3197
  514MOL0     C67738   7.676   1.332   9.061  0.2233 -0.1232 -0.1304
  514MOL0     C67739   7.563   1.251   9.125  0.6698 -1.0565  0.6138
  514MOL0     O67740   7.444   1.291   9.057  0.0036  0.3763 -0.6140
  514MOL0     C67741   7.334   1.216   9.102 -0.2765 -0.5496  0.2539
  514MOL0     C67742   7.309   1.173   9.232 -0.0847 -0.0002  0.2113
  514MOL0     C67743   7.208   1.076   9.248 -0.0480 -0.1855  0.6401
  514MOL0     C67744   7.125   1.033   9.147 -0.1704 -0.7943  0.1617
  514MOL0     C67745   7.015   0.938   9.176  0.2834 -0.4714 -0.0494
  514MOL0     O67746   7.021   0.863   9.291  0.6035  0.6359  0.2514
  514MOL0     C67747   6.902   0.808   9.325  1.0147  0.6132 -0.2935
  514MOL0     C67748   6.832   0.847   9.441 -0.2607 -1.3263 -0.2395
  514MOL0     C67749   6.712   0.795   9.469  0.6147 -0.6790 -0.5428
  514MOL0     C67750   6.642   0.709   9.390 -0.3214 -1.6355 -0.0345
  514MOL0     O67751   6.508   0.690   9.425 -0.0772  0.6493 -0.2243
  514MOL0     C67752   6.441   0.573   9.372 -0.1891  0.3885 -0.4618
  514MOL0     C67753   6.462   0.449   9.456 -0.3279  0.0798  0.1246
  514MOL0     C67754   6.356   0.423   9.572 -0.0410  0.8001  0.4155
  514MOL0     C67755   6.228   0.386   9.512 -0.5192 -0.0956  0.3677
  514MOL0     C67756   6.119   0.330   9.619 -0.3441  0.1445  0.4020
  514MOL0     C67757   6.003   0.258   9.551 -0.1925 -0.0090 -1.1871
  514MOL0     C67758   5.890   0.236   9.660 -0.8822 -0.3862  0.2130
  514MOL0     C67759   5.770   0.172   9.600 -0.2479  0.1129 -0.4587
  514MOL0    Cl67760   5.691   0.278   9.486  0.6770  0.5372 -0.0353
  514MOL0     C67761   6.705   0.665   9.272  0.0970 -0.2284  0.4983
  514MOL0     C67762   6.833   0.712   9.241 -0.3319 -0.8187 -1.0120
  514MOL0     O67763   6.916   0.956   9.107 -0.3322 -0.6956  0.3429
  514MOL0     C67764   7.137   1.101   9.027 -0.0399 -0.8072  0.2875
  514MOL0     C67765   7.235   1.194   9.003 -0.4619  0.1429 -0.2980
  514MOL0     N67766   7.517   1.724   9.228 -0.8588 -0.0355  1.0733
  514MOL0     N67767   7.526   1.854   9.240  0.0521 -0.0368  0.2442
  514MOL0     C67768   8.789   2.130   9.280 -0.4056 -0.2296  1.2538
  514MOL0     C67769   8.926   2.167   9.275  0.1369 -0.1816 -0.3586
  514MOL0     C67770   9.340   2.351   9.294 -0.0288  0.5661  0.3394
  514MOL0     C67771   9.336   2.488   9.293 -0.6733 -0.3704  0.2276
  514MOL0     C67772   9.458   2.571   9.265  0.4102  0.6314 -0.1685
  514MOL0     C67773   9.584   2.505   9.238  0.1788 -0.2860  1.3964
  514MOL0     O67774   9.699   2.575   9.205  0.2619  0.5192  0.4284
  514MOL0     C67775   9.674   2.714   9.157  0.3483  0.2833 -0.4319
  514MOL0     C67776   9.810   2.770   9.123  0.3264 -0.4354  0.5847
  514MOL0     C67777   9.911   2.800   9.229  0.2592  0.2947 -0.1176
  514MOL0     C67778  10.040   2.846   9.167  0.7679  0.4535  0.0837
  514MOL0     C67779  10.129   2.906   9.273  0.1462 -1.1171  1.1684
  514MOL0     C67780  10.205   2.954   9.357  0.0437 -0.6095  0.8863
  514MOL0     C67781   9.585   2.361   9.236  0.0922 -0.0108 -0.9735
  514MOL0     C67782   9.470   2.287   9.267 -0.0707 -0.2236  1.7382
  514MOL0     H67783   8.905   2.476   9.392 -1.1674  0.4806 -0.1543
  514MOL0     H67784   8.655   2.419   9.398  1.3898  0.7134  5.6861
  514MOL0     H67785   8.474   2.370   9.369  2.7350 -0.1328  1.4675
  514MOL0     H67786   8.474   2.254   9.506 -2.0223 -5.3771 -0.2746
  514MOL0     H67787   8.261   2.237   9.460  2.4638  1.5161  1.9641
  514MOL0     H67788   8.325   2.113   9.348  3.7635 -0.1083  0.5147
  514MOL0     H67789   8.288   2.268   9.152  0.1385  0.2573  0.4364
  514MOL0     H67790   8.228   2.385   9.267 -0.7981 -0.1034 -0.0617
  514MOL0     H67791   8.104   2.104   9.247 -0.4443 -0.0951 -1.7017
  514MOL0     H67792   8.066   2.220   9.372 -0.0902  1.6008 -1.0951
  514MOL0     H67793   8.016   2.213   9.081  2.6940  0.1150  1.0720
  514MOL0     H67794   7.989   2.364   9.159  0.0314  0.0486 -1.0392
  514MOL0     H67795   7.770   2.221   9.174 -0.7096 -0.0937  0.4858
  514MOL0     H67796   7.843   2.245   9.334 -0.8615 -0.2735 -1.1695
  514MOL0     H67797   7.851   1.994   9.159  0.4045 -0.8954 -0.2590
  514MOL0     H67798   7.915   2.000   9.323 -2.7302 -4.2227  0.3093
  514MOL0     H67799   7.629   2.087   9.277  1.8456  2.7532  0.0777
  514MOL0     H67800   7.703   2.016   9.420 -0.6512  1.8190 -0.9023
  514MOL0     H67801   7.836   1.765   9.325  0.0016 -0.4096 -0.1021
  514MOL0     H67802   7.623   1.465   9.300  4.2668 -2.6635  2.5989
  514MOL0     H67803   7.791   1.503   9.262  1.3769  0.6138 -2.7000
  514MOL0     H67804   7.744   1.526   9.021 -0.5490 -0.2826 -0.4889
  514MOL0     H67805   7.564   1.511   9.039 -0.3598 -1.1778 -1.8135
  514MOL0     H67806   7.666   1.310   8.954 -1.1747  1.4214 -0.3621
  514MOL0     H67807   7.769   1.297   9.106  1.1714  2.4598  0.0530
  514MOL0     H67808   7.564   1.273   9.233  0.0745  1.3609  0.1784
  514MOL0     H67809   7.568   1.143   9.113 -4.1989 -1.2758 -1.2255
  514MOL0     H67810   7.376   1.202   9.312  0.6411  1.0901 -0.7525
  514MOL0     H67811   7.195   1.035   9.348 -0.8423  0.1185  0.6696
  514MOL0     H67812   6.874   0.924   9.504  0.3404 -1.3966 -0.5390
  514MOL0     H67813   6.659   0.822   9.559 -0.5159 -3.2257 -0.3649
  514MOL0     H67814   6.472   0.559   9.268  2.1425  0.9366  0.1018
  514MOL0     H67815   6.333   0.589   9.376 -0.6041 -1.8201 -1.4232
  514MOL0     H67816   6.561   0.465   9.500  0.0962 -4.2100  1.1167
  514MOL0     H67817   6.485   0.364   9.392 -0.2886  1.4589 -1.8034
  514MOL0     H67818   6.346   0.507   9.641  0.0767  1.0565  0.1232
  514MOL0     H67819   6.407   0.352   9.638 -0.9674 -3.3158 -2.8754
  514MOL0     H67820   6.179   0.460   9.448  1.1716  2.6393  2.0782
  514MOL0     H67821   6.244   0.299   9.447 -1.9725 -0.8641  0.9755
  514MOL0     H67822   6.078   0.418   9.669  0.6971  0.5327  0.5929
  514MOL0     H67823   6.170   0.261   9.687  2.2731 -1.0541 -2.5270
  514MOL0     H67824   6.028   0.162   9.505  2.5896 -0.0148  0.1229
  514MOL0     H67825   5.967   0.328   9.475  2.4526  1.7811 -0.9131
  514MOL0     H67826   5.932   0.163   9.731 -0.4894 -2.2833 -1.8519
  514MOL0     H67827   5.854   0.324   9.714 -0.9367 -0.5887  0.5144
  514MOL0     H67828   5.705   0.157   9.687 -0.2057 -1.4517 -0.6710
  514MOL0     H67829   5.795   0.076   9.555  0.1646 -1.0006  1.9743
  514MOL0     H67830   6.639   0.613   9.203 -0.0097  2.2510 -1.3997
  514MOL0     H67831   6.885   0.676   9.153 -2.0686 -2.2487 -1.5165
  514MOL0     H67832   7.068   1.076   8.947 -1.7126 -1.4582  1.8440
  514MOL0     H67833   7.237   1.242   8.906 -0.4428 -1.6652 -1.2497
  514MOL0     H67834   8.756   2.039   9.231  0.1325  0.5710 -0.6635
  514MOL0     H67835   9.007   2.103   9.240  1.7880  0.9130  1.2569
  514MOL0     H67836   9.245   2.544   9.315 -1.4150 -1.1692 -0.7499
  514MOL0     H67837   9.446   2.678   9.280 -0.7248  0.5937 -0.7308
  514MOL0     H67838   9.643   2.777   9.240 -2.6516 -0.2265 -1.0356
  514MOL0     H67839   9.599   2.730   9.078 -1.7168 -1.9605  0.9401
  514MOL0     H67840   9.851   2.704   9.046  0.0644 -1.9355  1.7135
  514MOL0     H67841   9.793   2.862   9.065 -0.3141 -1.9873 -1.8318
  514MOL0     H67842   9.932   2.707   9.283  2.2218  0.0025 -1.2849
  514MOL0     H67843   9.873   2.878   9.296 -1.5465  0.5717 -1.3771
  514MOL0     H67844  10.093   2.776   9.102 -1.2344 -1.5490  0.4416
  514MOL0     H67845  10.018   2.928   9.098 -1.4734 -1.0661 -1.1320
  514MOL0     H67846  10.238   3.014   9.439 -0.2665 -0.3779  0.8421
  514MOL0     H67847   9.680   2.315   9.212  1.7076  2.2325  0.6997
  514MOL0     H67848   9.482   2.179   9.276  2.8300  0.1161  3.0938
  515MOL0     O67849   6.128   3.396   0.067 -0.5143 -0.3356  0.2920
  515MOL0     C67850   6.138   3.279   0.096 -0.3476  0.9128  0.3833
  515MOL0     O67851   6.047   3.182   0.063 -0.1890 -0.1167 -0.1162
  515MOL0     C67852   5.940   3.219  -0.015  0.6191 -0.1126  0.8469
  515MOL0     C67853   5.926   3.144  -0.135  0.2786  1.0601  0.2248
  515MOL0     C67854   5.813   3.174  -0.218 -0.2893 -0.5006  0.2172
  515MOL0     C67855   5.717   3.268  -0.178 -0.8262  0.1791 -0.3241
  515MOL0     O67856   5.602   3.289  -0.258 -0.5103  0.8110  0.1548
  515MOL0     C67857   5.486   3.342  -0.190 -0.7581  0.0446  0.0892
  515MOL0     C67858   5.375   3.352  -0.287 -0.9586  0.1315  0.3566
  515MOL0     C67859   5.243   3.415  -0.238 -0.3310 -0.1211  0.1180
  515MOL0     C67860   5.137   3.422  -0.347  0.2964 -0.4884  0.2807
  515MOL0     C67861   5.007   3.484  -0.291  0.3921 -0.0102 -0.2799
  515MOL0     C67862   4.904   3.492  -0.400  0.3910 -0.2829  0.5620
  515MOL0     C67863   4.770   3.574  -0.359 -0.8411 -0.1915 -0.2593
  515MOL0     C67864   4.667   3.600  -0.468 -0.7053 -0.4252 -0.7684
  515MOL0     N67865   4.560   3.693  -0.420  0.6127 -0.8226  0.5877
  515MOL0     C67866   4.567   3.827  -0.420  0.0270 -0.6506  0.6589
  515MOL0     C67867   4.441   3.861  -0.377 -1.0490 -0.4181  0.2027
  515MOL0     C67868   4.394   3.995  -0.340  0.8647 -0.4121 -0.1506
  515MOL0     C67869   4.238   4.011  -0.324  1.0730 -0.5795 -0.4690
  515MOL0     C67870   4.183   4.158  -0.299 -0.7332 -1.4627  0.6904
  515MOL0     C67871   4.027   4.163  -0.315 -0.2833 -0.6464  0.0586
  515MOL0     O67872   3.958   4.048  -0.251  0.2746 -0.5126 -0.0126
  515MOL0     C67873   3.822   4.034  -0.267  0.0215 -0.0338 -0.7254
  515MOL0     C67874   3.765   3.915  -0.226  0.2917 -0.0513  0.0382
  515MOL0     C67875   3.629   3.897  -0.229  0.2204 -0.4326 -0.1221
  515MOL0     C67876   3.539   4.002  -0.263  0.7408  0.1151 -0.5779
  515MOL0     C67877   3.390   3.977  -0.261 -0.3952  0.2883  0.6679
  515MOL0     O67878   3.309   4.085  -0.275  0.5825  0.4092  0.9375
  515MOL0     C67879   3.174   4.064  -0.250  0.3592  0.3887 -0.2886
  515MOL0     C67880   3.131   4.056  -0.123  0.1499  0.3981 -0.3329
  515MOL0     C67881   3.001   4.070  -0.093  0.2712  0.0843  0.8365
  515MOL0     C67882   2.900   4.081  -0.197 -0.8650 -0.9222 -0.1525
  515MOL0     O67883   2.763   4.090  -0.171  0.0349  0.2532 -0.4671
  515MOL0     C67884   2.676   4.029  -0.262 -0.6066  0.5915 -0.1325
  515MOL0     C67885   2.556   3.957  -0.184  0.2025  0.6957  0.2740
  515MOL0     C67886   2.450   4.041  -0.107 -0.3410  0.2386  0.4293
  515MOL0     C67887   2.389   4.154  -0.203 -0.8062  0.0376 -0.0159
  515MOL0     C67888   2.307   4.252  -0.124  0.1158 -0.5621  0.7077
  515MOL0     C67889   2.236   4.353  -0.227 -0.1936 -0.0323  0.2004
  515MOL0     C67890   2.125   4.435  -0.155 -0.2276  0.5555 -0.3390
  515MOL0     C67891   2.036   4.487  -0.263  0.4567  1.0239 -0.5132
  515MOL0    Cl67892   1.929   4.350  -0.312  0.0041 -0.0658  0.0038
  515MOL0     C67893   2.944   4.091  -0.326  0.5448  0.6174 -0.0099
  515MOL0     C67894   3.079   4.074  -0.362  0.0097 -0.1031 -0.2738
  515MOL0     O67895   3.357   3.862  -0.238  0.5474  0.3873  1.0229
  515MOL0     C67896   3.589   4.122  -0.302  0.1706 -0.1365  0.6382
  515MOL0     C67897   3.735   4.143  -0.307  0.7489  0.2096 -0.5104
  515MOL0     N67898   4.359   3.755  -0.368 -0.5202 -0.2908  0.2638
  515MOL0     N67899   4.435   3.653  -0.391 -0.0666  0.1565  1.4524
  515MOL0     C67900   5.738   3.343  -0.055 -0.3830  0.1820 -0.8499
  515MOL0     C67901   5.849   3.318   0.024 -0.4630  0.1723  0.0077
  515MOL0     C67902   6.261   3.243   0.172 -0.2439 -0.0668  0.7442
  515MOL0     C67903   6.342   3.343   0.231 -0.1800 -0.1260  0.0577
  515MOL0     C67904   6.465   3.316   0.290  0.4890  0.2564  0.4831
  515MOL0     C67905   6.510   3.181   0.285 -0.9150  0.1175 -0.2405
  515MOL0     O67906   6.628   3.160   0.353  0.2172 -0.7058  0.3499
  515MOL0     C67907   6.698   3.035   0.345  0.2864  0.0042 -0.0037
  515MOL0     C67908   6.837   3.054   0.399 -0.5330  0.9428 -0.0508
  515MOL0     C67909   6.910   3.174   0.331 -0.3572  0.4027 -0.0744
  515MOL0     C67910   7.044   3.193   0.402 -0.1457  0.1423  0.4939
  515MOL0     C67911   7.136   3.086   0.372  0.5166  0.0631  1.3298
  515MOL0     C67912   7.199   2.991   0.327 -0.6590 -0.1136 -0.3299
  515MOL0     C67913   6.429   3.081   0.223  0.3425 -0.2743 -0.0467
  515MOL0     C67914   6.304   3.114   0.169 -0.3146 -0.5057 -0.3563
  515MOL0     H67915   6.007   3.081  -0.169 -0.3201  2.1576 -3.7152
  515MOL0     H67916   5.791   3.118  -0.308 -1.8628  0.2782  0.0918
  515MOL0     H67917   5.514   3.443  -0.159 -0.0808 -0.4285  1.0500
  515MOL0     H67918   5.458   3.282  -0.103  1.8504 -1.6719 -0.1748
  515MOL0     H67919   5.359   3.251  -0.326  2.8876 -0.2856 -0.6243
  515MOL0     H67920   5.406   3.412  -0.374 -2.5307  2.2107  1.1732
  515MOL0     H67921   5.256   3.511  -0.186 -1.8778 -0.6841  1.6275
  515MOL0     H67922   5.205   3.347  -0.161  1.8792 -0.9758  0.5040
  515MOL0     H67923   5.167   3.488  -0.429 -2.9790 -2.6506 -2.9874
  515MOL0     H67924   5.124   3.323  -0.391 -2.5739  0.0961 -0.4459
  515MOL0     H67925   5.033   3.582  -0.250  1.4679 -0.4665  0.1480
  515MOL0     H67926   4.964   3.432  -0.204  1.5126  0.4683  0.5766
  515MOL0     H67927   4.867   3.396  -0.436 -1.4326  0.0788  1.3479
  515MOL0     H67928   4.943   3.546  -0.487  0.7871 -0.8314  0.3932
  515MOL0     H67929   4.729   3.514  -0.277 -2.5075 -1.4490 -1.9375
  515MOL0     H67930   4.807   3.672  -0.328  1.3710  0.4952 -4.4103
  515MOL0     H67931   4.623   3.504  -0.498  0.0911 -0.7585 -0.9008
  515MOL0     H67932   4.716   3.653  -0.550 -2.9150 -0.7891 -2.4490
  515MOL0     H67933   4.649   3.891  -0.451 -2.3866  0.7958 -3.5967
  515MOL0     H67934   4.432   4.062  -0.418  0.6746 -1.1469 -0.8906
  515MOL0     H67935   4.448   4.019  -0.248  2.2084  0.6025 -1.1525
  515MOL0     H67936   4.196   3.943  -0.249  1.0908 -1.2532 -1.0702
  515MOL0     H67937   4.195   3.988  -0.422 -1.8686  2.4810 -0.0973
  515MOL0     H67938   4.204   4.188  -0.197  0.0174 -1.2210  0.4725
  515MOL0     H67939   4.224   4.241  -0.357  0.3004 -0.0043  3.3495
  515MOL0     H67940   3.981   4.172  -0.414 -3.3703  1.6124  1.5324
  515MOL0     H67941   3.993   4.256  -0.269  0.6764  0.9343 -2.3082
  515MOL0     H67942   3.816   3.826  -0.190 -0.6853  0.5114  3.0385
  515MOL0     H67943   3.581   3.801  -0.218 -1.8961  0.1742 -2.8640
  515MOL0     H67944   3.197   4.038  -0.039  1.7573  1.7623 -1.2524
  515MOL0     H67945   2.948   4.068   0.001  0.2033 -0.5179  0.7862
  515MOL0     H67946   2.721   3.953  -0.326  0.5705  0.8875  0.3184
  515MOL0     H67947   2.645   4.107  -0.331 -0.2778  2.5967  1.8454
  515MOL0     H67948   2.605   3.897  -0.107 -0.1754 -0.0719 -0.0738
  515MOL0     H67949   2.507   3.888  -0.254  0.7237 -1.3353  1.7959
  515MOL0     H67950   2.508   4.089  -0.028  0.7581 -0.6518  0.1825
  515MOL0     H67951   2.377   3.978  -0.054  1.0869 -1.1093  0.8539
  515MOL0     H67952   2.474   4.204  -0.251 -1.1877  1.0294  0.3033
  515MOL0     H67953   2.336   4.120  -0.292  0.1998  2.6395 -1.7265
  515MOL0     H67954   2.374   4.309  -0.059  1.2747 -1.7365  0.5837
  515MOL0     H67955   2.243   4.200  -0.052  0.3806  1.8398  2.8333
  515MOL0     H67956   2.198   4.306  -0.318  2.8124  2.0752 -2.3663
  515MOL0     H67957   2.313   4.419  -0.267 -1.0349 -0.6478 -2.6735
  515MOL0     H67958   2.071   4.361  -0.096  5.2272 -1.4640  2.9227
  515MOL0     H67959   2.158   4.514  -0.086 -0.3093  2.0987 -2.0006
  515MOL0     H67960   2.090   4.510  -0.355 -0.8994 -2.7012 -2.4490
  515MOL0     H67961   1.980   4.571  -0.219  2.1774  1.1097  1.6907
  515MOL0     H67962   2.875   4.106  -0.407  0.4566 -0.4758 -0.1601
  515MOL0     H67963   3.118   4.078  -0.464  2.6743  1.5659  0.7063
  515MOL0     H67964   3.521   4.204  -0.320 -0.1783  0.0739  2.6641
  515MOL0     H67965   3.764   4.243  -0.338 -1.5646  1.4437  1.0546
  515MOL0     H67966   5.668   3.417  -0.017  0.5796 -0.3945  2.3093
  515MOL0     H67967   5.873   3.367   0.118  0.9633  1.4298 -0.9680
  515MOL0     H67968   6.309   3.446   0.224 -1.7845 -0.3977  2.4299
  515MOL0     H67969   6.529   3.392   0.332 -0.3970  3.0550 -2.7438
  515MOL0     H67970   6.706   2.996   0.243 -2.9028 -2.7275  0.6185
  515MOL0     H67971   6.641   2.958   0.397  1.4530 -0.5885  0.4458
  515MOL0     H67972   6.821   3.063   0.507 -2.0576  1.1752 -0.2683
  515MOL0     H67973   6.889   2.958   0.391 -2.1759  0.1088 -1.6145
  515MOL0     H67974   6.842   3.259   0.339  0.6499  1.1658  0.4528
  515MOL0     H67975   6.921   3.160   0.223 -2.4001  1.1386 -0.4157
  515MOL0     H67976   7.080   3.292   0.372 -3.7375  0.6429 -3.1529
  515MOL0     H67977   7.031   3.196   0.510 -1.1479 -1.1909  0.4365
  515MOL0     H67978   7.250   2.905   0.286 -1.0113 -0.4221 -0.1276
  515MOL0     H67979   6.467   2.979   0.223 -1.3443 -0.9617 -1.8344
  515MOL0     H67980   6.247   3.041   0.112  1.6394 -0.7424 -2.1191
  516MOL0     O67981  10.032   7.781   1.353 -0.0448 -0.5851  0.3507
  516MOL0     C67982  10.007   7.674   1.313 -0.4266 -0.0140  0.6185
  516MOL0     O67983   9.883   7.625   1.287 -1.0544  0.0754  0.1204
  516MOL0     C67984   9.766   7.674   1.328  0.0827  0.4829 -0.0261
  516MOL0     C67985   9.655   7.603   1.273 -0.3484 -0.6583 -0.1535
  516MOL0     C67986   9.520   7.634   1.299 -0.3489 -0.2826  0.1533
  516MOL0     C67987   9.497   7.734   1.391 -0.0068 -0.7924  0.3907
  516MOL0     O67988   9.373   7.761   1.436  0.4731  0.0003  0.1598
  516MOL0     C67989   9.300   7.837   1.341 -0.7845 -0.3460 -0.0841
  516MOL0     C67990   9.188   7.900   1.415  0.1766  0.6443 -0.7493
  516MOL0     C67991   9.095   7.972   1.320 -0.4716 -0.2291  0.1752
  516MOL0     C67992   8.979   8.015   1.400 -0.6498 -0.7326 -0.6571
  516MOL0     C67993   8.875   8.065   1.304 -0.3168 -0.2583  0.2210
  516MOL0     C67994   8.748   8.111   1.378  0.6878 -0.2362  0.1749
  516MOL0     C67995   8.641   8.156   1.283  0.8041  0.5835 -0.6383
  516MOL0     C67996   8.503   8.123   1.343 -0.1918 -0.4386  0.8905
  516MOL0     N67997   8.383   8.160   1.265  0.6644 -0.4709  0.1551
  516MOL0     C67998   8.317   8.275   1.260 -0.4446 -0.7354  0.7042
  516MOL0     C67999   8.233   8.267   1.156  0.4177  0.0137 -0.4603
  516MOL0     C68000   8.135   8.377   1.115  0.6406 -0.3575 -0.4043
  516MOL0     C68001   7.986   8.355   1.159 -0.8318 -0.8843 -0.5439
  516MOL0     C68002   7.915   8.259   1.064  0.1388  0.1070 -0.1956
  516MOL0     C68003   7.767   8.262   1.105  0.0186 -0.2306  0.7254
  516MOL0     O68004   7.697   8.395   1.084  0.2830 -0.1850 -0.2443
  516MOL0     C68005   7.574   8.410   1.137  0.1002  1.8845  0.0652
  516MOL0     C68006   7.557   8.433   1.269 -0.3068 -0.1621 -0.7250
  516MOL0     C68007   7.424   8.467   1.317 -0.4235 -0.4807  0.5343
  516MOL0     C68008   7.315   8.476   1.218  0.1326 -0.3221 -0.3781
  516MOL0     C68009   7.172   8.513   1.269 -0.4169 -0.2939 -0.7011
  516MOL0     O68010   7.075   8.527   1.175  0.6920 -0.3010 -0.2491
  516MOL0     C68011   6.967   8.603   1.203  0.1201  0.8773 -0.6389
  516MOL0     C68012   6.840   8.548   1.212  0.5335  0.2339 -0.2910
  516MOL0     C68013   6.723   8.628   1.218  0.8985  0.1418 -0.0637
  516MOL0     C68014   6.738   8.763   1.253  0.4633  0.1122  0.4030
  516MOL0     O68015   6.619   8.831   1.278  0.1825 -0.6164 -0.0298
  516MOL0     C68016   6.626   8.970   1.253  0.4908 -0.4799 -0.6251
  516MOL0     C68017   6.494   9.044   1.258  0.7357 -0.7566  0.1116
  516MOL0     C68018   6.398   8.991   1.366 -0.3828 -0.1662  0.0200
  516MOL0     C68019   6.272   9.078   1.368 -0.1494  0.8618  0.1187
  516MOL0     C68020   6.158   9.006   1.445 -0.1973  0.3142 -0.1537
  516MOL0     C68021   6.042   9.105   1.449  0.2541 -0.4123 -0.1323
  516MOL0     C68022   5.911   9.054   1.406 -0.5176  0.5344  0.4247
  516MOL0     C68023   5.794   9.154   1.419  0.2415 -0.6972 -0.1594
  516MOL0    Cl68024   5.825   9.304   1.338  0.1534 -0.2403  0.0868
  516MOL0     C68025   6.871   8.824   1.261  0.4481  0.2938 -1.2295
  516MOL0     C68026   6.979   8.746   1.232  0.2453  0.1411 -0.2592
  516MOL0     O68027   7.155   8.522   1.394  0.9080 -0.5476  0.4111
  516MOL0     C68028   7.343   8.447   1.086 -0.7750  0.7728  1.1119
  516MOL0     C68029   7.474   8.427   1.049  0.1764 -0.0872  0.0991
  516MOL0     N68030   8.263   8.154   1.087 -0.3267 -0.2628  0.3155
  516MOL0     N68031   8.353   8.089   1.153  0.3001 -0.2535 -0.7403
  516MOL0     C68032   9.608   7.805   1.446 -0.7634  0.0971  0.1267
  516MOL0     C68033   9.741   7.775   1.423  0.8352 -0.3012 -0.1850
  516MOL0     C68034  10.128   7.594   1.269 -0.5578 -0.3337 -0.4579
  516MOL0     C68035  10.108   7.458   1.237 -0.2598  0.4059 -0.0659
  516MOL0     C68036  10.217   7.368   1.234  0.4146  0.5290  0.7780
  516MOL0     C68037  10.347   7.414   1.237  0.0913  0.3834 -0.7743
  516MOL0     O68038  10.449   7.316   1.221  0.3206  0.1491 -0.2193
  516MOL0     C68039  10.580   7.366   1.182 -0.1193  0.1022  0.3617
  516MOL0     C68040  10.682   7.267   1.232 -0.6197  0.7127  0.1739
  516MOL0     C68041  10.817   7.316   1.200  0.4215  0.0676  0.8818
  516MOL0     C68042  10.924   7.235   1.270  0.3020  0.1047  0.1098
  516MOL0     C68043  11.056   7.279   1.245  0.6642 -0.3624  0.4071
  516MOL0     C68044  11.162   7.338   1.230 -0.6721  0.9193  0.4392
  516MOL0     C68045  10.363   7.558   1.252 -0.1854 -0.1392  0.0859
  516MOL0     C68046  10.256   7.647   1.263 -0.2422  0.6084 -0.4174
  516MOL0     H68047   9.681   7.515   1.215 -0.0846 -0.7921  0.1596
  516MOL0     H68048   9.451   7.568   1.248  0.1213 -1.4208  0.9383
  516MOL0     H68049   9.269   7.757   1.274  0.0510 -1.7860  1.1770
  516MOL0     H68050   9.363   7.909   1.288  1.1337 -1.7049  0.2549
  516MOL0     H68051   9.232   7.975   1.482 -1.0405  1.1887 -0.5250
  516MOL0     H68052   9.134   7.825   1.473 -0.2644  1.1864 -0.4499
  516MOL0     H68053   9.066   7.896   1.246 -0.6203  1.6283 -1.7818
  516MOL0     H68054   9.152   8.051   1.271  1.2609 -0.7605  1.2342
  516MOL0     H68055   8.936   7.943   1.470  0.3028 -0.3929  0.2990
  516MOL0     H68056   9.016   8.094   1.465  0.5746 -1.4605 -0.4251
  516MOL0     H68057   8.861   7.996   1.220  0.6469  1.1302 -1.1515
  516MOL0     H68058   8.918   8.152   1.254 -1.1650  0.1809  0.2397
  516MOL0     H68059   8.764   8.197   1.444  1.2400  1.9930 -2.6362
  516MOL0     H68060   8.706   8.027   1.433 -1.1650  1.0185  0.7948
  516MOL0     H68061   8.648   8.262   1.261 -5.6742  1.6222  0.3232
  516MOL0     H68062   8.653   8.095   1.193  0.7690  1.5962 -1.3380
  516MOL0     H68063   8.506   8.179   1.437  1.4617  2.0541 -0.5126
  516MOL0     H68064   8.499   8.020   1.378  0.3592 -0.5090  0.7599
  516MOL0     H68065   8.329   8.366   1.318  0.5679 -0.7946  0.6010
  516MOL0     H68066   8.139   8.402   1.009  3.5251 -0.3016 -0.3528
  516MOL0     H68067   8.173   8.465   1.168  2.9930 -0.7991 -1.2218
  516MOL0     H68068   7.939   8.454   1.162 -1.5161 -1.1949  2.5368
  516MOL0     H68069   7.985   8.316   1.262  0.0325 -2.4889 -1.1019
  516MOL0     H68070   7.921   8.297   0.962 -0.0587 -0.3189 -0.3648
  516MOL0     H68071   7.960   8.159   1.071 -0.1497 -0.2792 -2.8599
  516MOL0     H68072   7.775   8.228   1.208 -0.5746 -0.1896  0.7856
  516MOL0     H68073   7.713   8.189   1.044 -0.1266 -0.7220  1.4420
  516MOL0     H68074   7.637   8.424   1.342 -0.1216  1.1992 -0.7388
  516MOL0     H68075   7.406   8.487   1.422  1.0212  1.4611  0.4674
  516MOL0     H68076   6.829   8.440   1.215  2.0092  0.0845  0.8010
  516MOL0     H68077   6.630   8.572   1.214  3.0233 -3.6979 -0.7055
  516MOL0     H68078   6.670   9.000   1.158 -1.4991 -2.3979 -2.2431
  516MOL0     H68079   6.686   9.018   1.331 -1.2848 -1.4018  1.4082
  516MOL0     H68080   6.449   9.035   1.158 -1.8632  0.4271  1.0635
  516MOL0     H68081   6.511   9.150   1.278 -0.3712 -0.4610 -0.3954
  516MOL0     H68082   6.453   8.992   1.460  0.0990 -0.3821 -0.2508
  516MOL0     H68083   6.375   8.885   1.347  2.3266 -0.7957 -0.1822
  516MOL0     H68084   6.302   9.176   1.406  0.8210  0.7556 -0.3306
  516MOL0     H68085   6.231   9.086   1.267 -1.3735 -1.9565  0.2968
  516MOL0     H68086   6.188   8.989   1.549  1.6442  0.6233 -0.5912
  516MOL0     H68087   6.125   8.916   1.393  0.7653 -0.4828  0.5834
  516MOL0     H68088   6.067   9.198   1.396 -0.0154  0.3807  1.1075
  516MOL0     H68089   6.029   9.136   1.552  1.3816  2.1394 -0.6896
  516MOL0     H68090   5.934   9.022   1.304  1.7438  0.9757  0.7300
  516MOL0     H68091   5.888   8.964   1.464 -2.1124  2.2278  2.5882
  516MOL0     H68092   5.767   9.184   1.521 -0.5223  0.0369 -0.5737
  516MOL0     H68093   5.708   9.111   1.368 -0.1458 -0.3219  0.1729
  516MOL0     H68094   6.897   8.928   1.283  0.8547  0.5960 -3.0337
  516MOL0     H68095   7.077   8.792   1.228 -0.6917  2.5633  2.0334
  516MOL0     H68096   7.275   8.436   1.002 -1.4456 -0.0452  1.7402
  516MOL0     H68097   7.505   8.418   0.945 -0.5701  1.6857 -0.3109
  516MOL0     H68098   9.582   7.859   1.537 -0.3553 -0.2340  0.4512
  516MOL0     H68099   9.817   7.829   1.478  1.0510  2.0270 -2.6123
  516MOL0     H68100  10.010   7.410   1.238  0.8235 -2.0009 -1.0724
  516MOL0     H68101  10.196   7.262   1.223  0.9767  0.6284 -2.0704
  516MOL0     H68102  10.584   7.467   1.224 -2.9336  0.3510  0.2251
  516MOL0     H68103  10.588   7.373   1.073 -0.3404  0.6296  0.3798
  516MOL0     H68104  10.668   7.251   1.340  2.1112 -1.1595  0.3445
  516MOL0     H68105  10.672   7.170   1.182  2.8828 -0.8818  2.1791
  516MOL0     H68106  10.834   7.422   1.219  0.1049  0.3942 -0.5400
  516MOL0     H68107  10.823   7.306   1.091  2.1300  2.1273  0.7123
  516MOL0     H68108  10.898   7.214   1.374 -1.5055  0.3164 -0.2493
  516MOL0     H68109  10.934   7.134   1.227  0.3741  0.7647 -1.4937
  516MOL0     H68110  11.262   7.376   1.240 -0.2222 -0.6628  2.3656
  516MOL0     H68111  10.457   7.613   1.249 -0.7556  0.8200 -1.6034
  516MOL0     H68112  10.265   7.755   1.265 -3.2990  0.9471 -0.0330
  517MOL0     O68113   3.562   3.408   3.530  0.1206 -0.5781  0.0707
  517MOL0     C68114   3.625   3.314   3.473 -0.6166  0.5737  0.2130
  517MOL0     O68115   3.575   3.195   3.429 -0.4750  0.3964 -0.3134
  517MOL0     C68116   3.444   3.197   3.409  0.0297 -0.2692 -1.5297
  517MOL0     C68117   3.396   3.204   3.273  0.6790  0.3013  0.5365
  517MOL0     C68118   3.259   3.214   3.243 -0.5503 -0.5742  0.1236
  517MOL0     C68119   3.169   3.217   3.349  0.1219 -0.5153 -0.8155
  517MOL0     O68120   3.034   3.202   3.330  0.0728 -0.8053 -0.7057
  517MOL0     C68121   2.974   3.188   3.198 -1.3499  0.4471  0.0011
  517MOL0     C68122   2.824   3.210   3.189 -0.0339 -0.9307  0.8739
  517MOL0     C68123   2.786   3.337   3.269  0.5859  0.6855  0.6488
  517MOL0     C68124   2.637   3.374   3.261  0.7562 -0.3075  0.0567
  517MOL0     C68125   2.606   3.472   3.373 -0.1607 -0.7671  0.2782
  517MOL0     C68126   2.461   3.514   3.369  0.1703 -0.3521 -0.8558
  517MOL0     C68127   2.439   3.611   3.487 -1.6265 -0.6335  0.7248
  517MOL0     C68128   2.392   3.542   3.610 -0.4377 -0.0884 -0.4009
  517MOL0     N68129   2.258   3.481   3.614 -0.6430 -0.9610  0.1937
  517MOL0     C68130   2.155   3.507   3.526 -0.1802 -0.1600  0.0196
  517MOL0     C68131   2.081   3.396   3.521 -0.4211  0.1441 -0.5208
  517MOL0     C68132   1.965   3.356   3.434  0.2720  0.7061 -0.3864
  517MOL0     C68133   1.902   3.463   3.349  0.4251  0.1851 -0.2253
  517MOL0     C68134   1.798   3.395   3.249 -0.2425  0.3488  0.0990
  517MOL0     C68135   1.726   3.490   3.144  0.0563 -0.0759 -0.4841
  517MOL0     O68136   1.603   3.553   3.203 -0.4117  0.1330 -0.3045
  517MOL0     C68137   1.481   3.551   3.148  0.2118  0.7886  1.1408
  517MOL0     C68138   1.383   3.612   3.228 -0.0535  0.1500  0.0891
  517MOL0     C68139   1.246   3.594   3.200  0.0061  0.1777  0.1034
  517MOL0     C68140   1.209   3.514   3.092 -0.5742 -0.5461  0.4023
  517MOL0     C68141   1.071   3.494   3.052  0.0991 -0.7955 -0.6720
  517MOL0     O68142   0.974   3.592   3.072 -0.3809  0.3512  0.1193
  517MOL0     C68143   0.840   3.558   3.047  0.0885  0.0568 -0.1843
  517MOL0     C68144   0.790   3.557   2.918  0.5354 -0.3754  0.1792
  517MOL0     C68145   0.655   3.512   2.895 -0.7271 -0.4615  0.2851
  517MOL0     C68146   0.568   3.493   3.005  0.2758 -0.6166  0.7965
  517MOL0     O68147   0.442   3.469   2.972  0.1713 -0.5265  0.4507
  517MOL0     C68148   0.350   3.563   3.030 -0.2225  0.7576  0.7957
  517MOL0     C68149   0.234   3.486   3.080 -1.0853 -0.1721 -0.1185
  517MOL0     C68150   0.122   3.577   3.122  0.1073 -0.5845 -1.2498
  517MOL0     C68151   0.002   3.502   3.177  0.8658 -0.1138  0.2901
  517MOL0     C68152  -0.122   3.600   3.214  0.3829 -0.5820 -0.2614
  517MOL0     C68153  -0.263   3.534   3.203 -0.1468 -0.0804 -0.4760
  517MOL0     C68154  -0.314   3.525   3.067 -0.8364 -0.2559 -0.7064
  517MOL0     C68155  -0.415   3.409   3.051  0.5751  0.0088 -0.7545
  517MOL0    Cl68156  -0.560   3.434   3.149 -0.3877 -0.2704 -0.2662
  517MOL0     C68157   0.615   3.493   3.137  0.1227 -0.0566  0.4687
  517MOL0     C68158   0.749   3.533   3.156  0.0500 -0.3643  0.8356
  517MOL0     O68159   1.047   3.395   2.989 -0.7291  0.0778  0.0800
  517MOL0     C68160   1.309   3.462   3.009  0.0955 -0.4132  0.4403
  517MOL0     C68161   1.445   3.482   3.034 -0.6482  0.0385 -0.5877
  517MOL0     N68162   2.125   3.309   3.614  0.6152 -0.7121  0.1133
  517MOL0     N68163   2.225   3.363   3.677 -0.0898  0.5136 -1.0399
  517MOL0     C68164   3.214   3.207   3.482  0.9543 -1.3721 -0.5907
  517MOL0     C68165   3.350   3.198   3.512 -0.8120 -0.3700 -0.0722
  517MOL0     C68166   3.767   3.331   3.477  0.0853 -0.7356 -1.1547
  517MOL0     C68167   3.827   3.452   3.517  0.2020 -0.0532 -0.4727
  517MOL0     C68168   3.967   3.462   3.543  0.4152 -0.0802 -0.3033
  517MOL0     C68169   4.046   3.357   3.492 -1.2873  0.1409  0.1140
  517MOL0     O68170   4.185   3.359   3.496  0.2535 -0.0139  0.2002
  517MOL0     C68171   4.237   3.493   3.503 -0.2746 -1.1035 -0.4693
  517MOL0     C68172   4.392   3.489   3.492  0.4148 -0.5036 -0.0713
  517MOL0     C68173   4.435   3.616   3.424  0.5383 -0.8053  0.2989
  517MOL0     C68174   4.581   3.632   3.392 -0.9926 -0.1563 -0.7956
  517MOL0     C68175   4.651   3.558   3.283  0.0132 -0.0671 -0.5293
  517MOL0     C68176   4.709   3.505   3.189 -0.4091  0.2268 -1.0668
  517MOL0     C68177   3.982   3.241   3.451  0.5594  0.5189 -0.2011
  517MOL0     C68178   3.840   3.224   3.454  0.0281 -0.2793 -0.0414
  517MOL0     H68179   3.469   3.183   3.195  1.5613  1.2845  1.0750
  517MOL0     H68180   3.228   3.204   3.140 -2.2522  0.2457  0.5185
  517MOL0     H68181   2.984   3.087   3.156 -2.5753  1.7937 -4.0265
  517MOL0     H68182   3.035   3.252   3.133  2.2458 -1.0271  1.6437
  517MOL0     H68183   2.770   3.125   3.233  0.6811 -0.4421  2.7845
  517MOL0     H68184   2.796   3.217   3.083 -0.6316  4.3939  1.1096
  517MOL0     H68185   2.851   3.416   3.230  1.5339  0.0262  0.8680
  517MOL0     H68186   2.810   3.328   3.375  1.1826  0.0230  0.4598
  517MOL0     H68187   2.608   3.411   3.162  2.7308 -3.6027 -1.9740
  517MOL0     H68188   2.577   3.285   3.284  0.0139  0.5636  1.6326
  517MOL0     H68189   2.667   3.561   3.357 -0.1000 -0.7178  0.7547
  517MOL0     H68190   2.628   3.442   3.476  1.3653 -0.3691  0.0924
  517MOL0     H68191   2.404   3.422   3.382  3.3728 -2.4342 -0.4919
  517MOL0     H68192   2.431   3.567   3.278 -1.7301 -0.3382 -0.2772
  517MOL0     H68193   2.536   3.661   3.498 -2.2016  1.5478 -2.6957
  517MOL0     H68194   2.369   3.686   3.450 -0.5669 -0.5334 -1.2032
  517MOL0     H68195   2.391   3.623   3.683  1.1674  0.9367 -1.4683
  517MOL0     H68196   2.467   3.471   3.645 -2.2769 -2.4372 -0.8981
  517MOL0     H68197   2.145   3.592   3.459 -4.4692  0.6594  1.4141
  517MOL0     H68198   1.893   3.301   3.495  1.9461 -0.3066  0.7439
  517MOL0     H68199   1.996   3.285   3.357 -0.1019  2.0466 -1.8290
  517MOL0     H68200   1.981   3.516   3.296 -0.2414 -0.2358 -1.7054
  517MOL0     H68201   1.837   3.532   3.402 -0.0869 -0.6217  0.2233
  517MOL0     H68202   1.849   3.317   3.191  1.2265  1.3640 -0.0031
  517MOL0     H68203   1.726   3.353   3.320 -2.6356  2.3131 -0.9884
  517MOL0     H68204   1.696   3.434   3.055 -3.2176 -1.6292  1.4040
  517MOL0     H68205   1.792   3.573   3.116  0.0927 -0.3730 -1.2756
  517MOL0     H68206   1.427   3.655   3.317  1.9259  0.7860 -1.1470
  517MOL0     H68207   1.171   3.651   3.255  0.6644  2.5046 -1.2717
  517MOL0     H68208   0.849   3.574   2.829 -0.3338 -0.1779 -0.3642
  517MOL0     H68209   0.613   3.514   2.795  0.5930  1.2674 -0.2805
  517MOL0     H68210   0.301   3.620   2.951  1.2359 -0.4016 -1.0108
  517MOL0     H68211   0.378   3.626   3.115 -2.6475  2.0128  0.7497
  517MOL0     H68212   0.259   3.433   3.173  2.9494  2.2608  0.4711
  517MOL0     H68213   0.206   3.415   3.002  0.2934 -1.3549  0.4078
  517MOL0     H68214   0.087   3.635   3.036  3.2354  1.0042 -1.6028
  517MOL0     H68215   0.156   3.645   3.200  1.4831  0.7214 -2.9023
  517MOL0     H68216  -0.023   3.426   3.102  1.3588  0.5258 -0.5519
  517MOL0     H68217   0.021   3.455   3.273 -1.9774 -0.2171  0.8998
  517MOL0     H68218  -0.116   3.687   3.148  2.9465  0.1502  0.8230
  517MOL0     H68219  -0.112   3.636   3.317 -1.4136  0.3753 -0.3863
  517MOL0     H68220  -0.330   3.590   3.268  2.9314  0.3213  2.6439
  517MOL0     H68221  -0.271   3.436   3.251 -1.7897  0.3740  0.2533
  517MOL0     H68222  -0.353   3.622   3.036  1.1169  1.2354  1.2165
  517MOL0     H68223  -0.228   3.505   3.003 -0.0294 -1.7510  0.7669
  517MOL0     H68224  -0.369   3.315   3.083 -2.5500 -1.4929 -0.2401
  517MOL0     H68225  -0.437   3.399   2.945  3.1954 -2.2400 -1.2084
  517MOL0     H68226   0.547   3.476   3.220  1.0299  0.7465  1.4016
  517MOL0     H68227   0.787   3.536   3.258 -0.7941  1.8088  1.1389
  517MOL0     H68228   1.272   3.398   2.929  0.0487 -2.6977  2.1848
  517MOL0     H68229   1.514   3.438   2.964 -3.0430 -0.9220 -2.4875
  517MOL0     H68230   3.139   3.192   3.559  2.2083 -1.7246  0.6001
  517MOL0     H68231   3.368   3.192   3.619 -3.1211  1.4500  0.4985
  517MOL0     H68232   3.770   3.542   3.533 -0.9312 -0.0957 -3.5503
  517MOL0     H68233   4.002   3.547   3.600 -0.4455 -0.6901  1.1868
  517MOL0     H68234   4.211   3.548   3.594  3.4600 -0.0390  0.1464
  517MOL0     H68235   4.197   3.552   3.420  1.0592  1.9009  0.8577
  517MOL0     H68236   4.437   3.480   3.591 -1.3832 -0.1933  0.8161
  517MOL0     H68237   4.426   3.408   3.427  1.1427  0.5059 -0.9902
  517MOL0     H68238   4.409   3.704   3.484  1.6053 -0.3311  0.0809
  517MOL0     H68239   4.386   3.619   3.327  1.7327 -0.8825 -0.3170
  517MOL0     H68240   4.607   3.737   3.373  0.7802 -0.4325 -0.1178
  517MOL0     H68241   4.631   3.609   3.487 -2.5093  1.7951  0.5627
  517MOL0     H68242   4.778   3.460   3.121 -0.1286 -1.1502  0.0729
  517MOL0     H68243   4.047   3.156   3.433 -0.5673 -0.4221  0.0216
  517MOL0     H68244   3.798   3.124   3.441  0.5483 -0.6132  0.7598
  518MOL0     O68245   8.209   5.719   3.225  0.0746 -0.3905 -0.4914
  518MOL0     C68246   8.228   5.786   3.121 -0.8796 -0.0375  0.4837
  518MOL0     O68247   8.350   5.807   3.070  0.1404  0.8519 -0.2348
  518MOL0     C68248   8.460   5.768   3.135  0.8720  0.1322  0.3517
  518MOL0     C68249   8.530   5.850   3.224 -1.4211 -0.2880 -0.0400
  518MOL0     C68250   8.641   5.797   3.287 -0.7475 -0.2812  0.9767
  518MOL0     C68251   8.695   5.676   3.260  0.0579  0.1248 -0.5114
  518MOL0     O68252   8.816   5.641   3.316 -0.2030  0.1661  0.4133
  518MOL0     C68253   8.894   5.528   3.268  0.3823  0.0047 -0.1837
  518MOL0     C68254   9.023   5.496   3.349  0.6976 -0.7058 -0.3114
  518MOL0     C68255   9.010   5.388   3.458  0.4721  0.0280 -0.5114
  518MOL0     C68256   9.131   5.348   3.549 -0.2324  0.3749  1.0331
  518MOL0     C68257   9.252   5.281   3.486  0.2258  0.1185 -0.3112
  518MOL0     C68258   9.211   5.162   3.390 -0.3122 -0.4003 -0.4266
  518MOL0     C68259   9.333   5.116   3.308  0.3549 -0.1410 -0.0837
  518MOL0     C68260   9.426   5.029   3.395  0.3406 -0.8830 -1.1338
  518MOL0     N68261   9.525   4.972   3.309 -0.1190 -0.7894  0.3594
  518MOL0     C68262   9.653   4.997   3.324 -0.7534 -0.0606 -0.1042
  518MOL0     C68263   9.722   4.915   3.237  0.1093  0.5972 -0.0019
  518MOL0     C68264   9.865   4.898   3.225 -0.2671  0.0485 -0.3504
  518MOL0     C68265   9.934   5.012   3.149 -0.0494 -0.4084  0.3707
  518MOL0     C68266   9.880   5.027   3.000 -0.0621  0.5134  0.3642
  518MOL0     C68267   9.809   5.158   2.977  0.0906 -0.1023 -0.6093
  518MOL0     O68268   9.815   5.184   2.827 -0.0471  0.0593 -0.5208
  518MOL0     C68269   9.700   5.147   2.763 -0.0135 -0.0465  0.4988
  518MOL0     C68270   9.711   5.050   2.660 -0.4203  0.1316  0.4731
  518MOL0     C68271   9.601   5.026   2.577 -0.9274  0.7143  0.8667
  518MOL0     C68272   9.486   5.090   2.604 -1.4098 -0.5284  0.1972
  518MOL0     C68273   9.373   5.057   2.515 -0.0199 -1.2206  0.5510
  518MOL0     O68274   9.389   4.969   2.411  1.1499 -0.6555 -0.0473
  518MOL0     C68275   9.284   4.940   2.322  0.8399  0.2462  0.1133
  518MOL0     C68276   9.309   4.819   2.255  0.7785  0.6732  0.4134
  518MOL0     C68277   9.220   4.775   2.160 -0.1837  0.2702 -0.7608
  518MOL0     C68278   9.096   4.843   2.135 -0.5085 -0.3127  0.5510
  518MOL0     O68279   9.008   4.802   2.038  0.8041 -0.2815 -0.1120
  518MOL0     C68280   9.027   4.667   1.988  0.1838  0.5294 -0.4277
  518MOL0     C68281   8.953   4.572   2.080  0.2256  0.1284  0.0387
  518MOL0     C68282   8.803   4.588   2.038 -0.7572 -0.0342  0.2130
  518MOL0     C68283   8.722   4.484   2.110  0.0409  0.5913 -0.5872
  518MOL0     C68284   8.580   4.516   2.103  0.2461  0.3607  0.3450
  518MOL0     C68285   8.492   4.415   2.178  0.5768  0.9064 -0.8691
  518MOL0     C68286   8.355   4.463   2.202  0.9217 -0.1301  0.5965
  518MOL0     C68287   8.250   4.362   2.170 -0.3316  0.7050 -0.0934
  518MOL0    Cl68288   8.099   4.445   2.212 -0.5818  0.2181  0.0585
  518MOL0     C68289   9.064   4.960   2.206  0.3012  0.4323  0.0273
  518MOL0     C68290   9.155   5.003   2.303  0.0051  0.2569 -0.8093
  518MOL0     O68291   9.265   5.113   2.543 -0.4351  0.0155 -0.5792
  518MOL0     C68292   9.474   5.182   2.710  0.4497 -0.4598 -0.2201
  518MOL0     C68293   9.581   5.203   2.798 -0.1865  0.0091  0.3733
  518MOL0     N68294   9.618   4.843   3.170 -0.0450  0.1569 -0.0326
  518MOL0     N68295   9.498   4.871   3.218 -0.1732 -0.3385  0.5208
  518MOL0     C68296   8.622   5.588   3.182  0.3599 -0.8782 -0.0219
  518MOL0     C68297   8.513   5.639   3.111  0.2195  0.0134 -0.4063
  518MOL0     C68298   8.106   5.829   3.063  0.5369  0.0498 -0.7277
  518MOL0     C68299   8.109   5.933   2.963  0.8264  0.8002 -0.3428
  518MOL0     C68300   7.994   5.978   2.905 -0.0607  0.1287  0.8760
  518MOL0     C68301   7.869   5.923   2.938 -0.0723 -0.8647 -0.0814
  518MOL0     O68302   7.754   5.978   2.879  0.0951  0.3814 -1.2725
  518MOL0     C68303   7.642   5.996   2.978  0.5730 -0.3031  0.7230
  518MOL0     C68304   7.536   6.064   2.892  0.1167  0.9169 -1.4666
  518MOL0     C68305   7.395   6.059   2.958  0.2275 -0.0993  0.0989
  518MOL0     C68306   7.290   6.134   2.873  0.0800  0.0795 -0.5149
  518MOL0     C68307   7.165   6.157   2.946 -0.3271  0.7432 -0.1651
  518MOL0     C68308   7.091   6.194   3.043 -0.4515  0.3556  0.3130
  518MOL0     C68309   7.861   5.831   3.040  0.0495  0.4233  0.1813
  518MOL0     C68310   7.976   5.770   3.095  0.8091 -0.3617 -0.2958
  518MOL0     H68311   8.502   5.953   3.242  0.9941  0.7208 -1.6483
  518MOL0     H68312   8.694   5.872   3.345  0.1980 -1.2144  1.3470
  518MOL0     H68313   8.926   5.541   3.164 -0.6435  0.9846 -0.3982
  518MOL0     H68314   8.829   5.440   3.268  0.6644 -0.2128 -0.9278
  518MOL0     H68315   9.067   5.583   3.398  1.9263 -1.6797  0.3779
  518MOL0     H68316   9.093   5.460   3.274 -0.0971 -2.2367 -0.3696
  518MOL0     H68317   8.966   5.298   3.414 -0.2941 -0.4694  1.2147
  518MOL0     H68318   8.936   5.428   3.528  0.6590 -1.4543  0.5679
  518MOL0     H68319   9.173   5.434   3.602  1.5810  0.6693 -0.7490
  518MOL0     H68320   9.094   5.273   3.620  0.0291 -0.2509  0.5230
  518MOL0     H68321   9.322   5.250   3.563  2.8627  0.2622 -2.4897
  518MOL0     H68322   9.314   5.355   3.435  0.6874 -0.4971 -0.6589
  518MOL0     H68323   9.133   5.200   3.322  1.5225  2.1921 -1.2706
  518MOL0     H68324   9.169   5.080   3.448 -1.7487  0.8864  0.4241
  518MOL0     H68325   9.292   5.056   3.226 -3.0893  0.3845  1.0778
  518MOL0     H68326   9.396   5.194   3.266 -1.4594  1.4474 -0.0148
  518MOL0     H68327   9.387   4.947   3.455  0.2906  0.0943  0.2237
  518MOL0     H68328   9.465   5.088   3.478 -2.2990 -0.3697 -0.1407
  518MOL0     H68329   9.699   5.063   3.397 -0.8007  0.6149 -0.6680
  518MOL0     H68330   9.881   4.799   3.183 -1.3249 -0.9603  1.5119
  518MOL0     H68331   9.911   4.894   3.324 -0.8028 -0.4358 -0.1138
  518MOL0     H68332  10.042   4.995   3.157  0.0321 -0.0170  0.1350
  518MOL0     H68333   9.906   5.102   3.204  2.0367  0.5915 -0.0919
  518MOL0     H68334   9.969   5.024   2.936  0.0418  1.1187  0.4702
  518MOL0     H68335   9.821   4.941   2.968  0.9635 -0.5213  1.1682
  518MOL0     H68336   9.860   5.241   3.028 -1.7205  1.2488 -0.8931
  518MOL0     H68337   9.710   5.139   3.021  1.2802 -2.1354  1.3905
  518MOL0     H68338   9.808   5.007   2.639 -0.6145 -1.0618  1.8365
  518MOL0     H68339   9.607   4.962   2.490 -3.9052  1.1079  0.2429
  518MOL0     H68340   9.400   4.762   2.268  0.5662  0.6570  2.0601
  518MOL0     H68341   9.263   4.697   2.099  1.7827  0.2273  0.5822
  518MOL0     H68342   9.130   4.630   1.984  0.8097  1.8541  1.7201
  518MOL0     H68343   8.976   4.667   1.891  0.5489  2.5889 -0.6721
  518MOL0     H68344   8.965   4.607   2.183 -1.3661 -0.5828  0.5076
  518MOL0     H68345   8.994   4.471   2.071  1.0403  0.4928 -0.3488
  518MOL0     H68346   8.787   4.573   1.930  3.2801  0.6343 -0.6434
  518MOL0     H68347   8.759   4.686   2.058 -0.0417  0.0999  1.2186
  518MOL0     H68348   8.745   4.383   2.073 -0.7759  1.2051 -2.9767
  518MOL0     H68349   8.743   4.480   2.217  0.7006 -3.4623 -0.6911
  518MOL0     H68350   8.549   4.510   1.998  2.0783 -1.3354 -0.1502
  518MOL0     H68351   8.572   4.621   2.135 -2.0849  0.7469 -1.2568
  518MOL0     H68352   8.539   4.420   2.276 -0.9512 -2.6691  0.1957
  518MOL0     H68353   8.504   4.314   2.138 -2.4053 -0.3119  0.9900
  518MOL0     H68354   8.343   4.491   2.307  1.0086  0.3082  0.4946
  518MOL0     H68355   8.333   4.543   2.130  0.4377  0.5453  1.4818
  518MOL0     H68356   8.263   4.267   2.222 -0.6730  1.3055  1.1200
  518MOL0     H68357   8.254   4.338   2.063 -1.0526 -0.5801  0.1504
  518MOL0     H68358   8.969   5.006   2.183 -0.2831  0.3695  2.0517
  518MOL0     H68359   9.113   5.095   2.341 -0.9051  2.2736 -5.8753
  518MOL0     H68360   9.375   5.226   2.709  0.3198 -0.7373 -1.4902
  518MOL0     H68361   9.567   5.282   2.872 -0.3095 -0.0436  0.4059
  518MOL0     H68362   8.661   5.488   3.165  0.7419 -1.0173  1.4992
  518MOL0     H68363   8.456   5.567   3.053 -2.1077 -2.5178  4.4042
  518MOL0     H68364   8.206   5.979   2.946  2.0254 -0.2930  2.7898
  518MOL0     H68365   8.011   6.064   2.840  0.1585 -0.6699 -0.1334
  518MOL0     H68366   7.666   6.048   3.071  1.1126 -0.9310  0.9405
  518MOL0     H68367   7.597   5.901   3.008  0.4323  0.3877  2.8341
  518MOL0     H68368   7.568   6.168   2.874 -1.4016  2.3284  2.6508
  518MOL0     H68369   7.532   6.007   2.799  0.7130  0.2671 -1.1086
  518MOL0     H68370   7.399   6.107   3.057  1.9413  0.9039 -0.4151
  518MOL0     H68371   7.360   5.956   2.965 -0.9779  0.1444 -1.7059
  518MOL0     H68372   7.335   6.230   2.845  2.7315 -0.6075  1.0441
  518MOL0     H68373   7.267   6.070   2.788  0.9505 -0.4709 -0.3523
  518MOL0     H68374   7.026   6.231   3.119 -0.5487  3.3895 -1.0872
  518MOL0     H68375   7.764   5.785   3.050  1.5400 -3.4434 -1.4128
  518MOL0     H68376   7.965   5.682   3.158  0.9915 -1.6852 -2.0459
  519MOL0     O68377   7.663   8.748   1.934  0.6820  0.0015 -0.3256
  519MOL0     C68378   7.632   8.626   1.948  0.2992 -0.6076  0.4353
  519MOL0     O68379   7.503   8.570   1.966 -0.3274 -0.2855  0.9135
  519MOL0     C68380   7.387   8.628   1.991  0.3227 -0.6248  1.0285
  519MOL0     C68381   7.364   8.770   1.964 -1.1987  0.2367  0.3062
  519MOL0     C68382   7.234   8.825   1.979  0.1337  0.5422  0.5432
  519MOL0     C68383   7.132   8.746   2.033  0.9765 -0.4446 -0.9231
  519MOL0     O68384   7.008   8.790   2.046 -0.0985 -0.1509 -0.5192
  519MOL0     C68385   6.993   8.922   2.111 -0.4444  0.3971 -0.6263
  519MOL0     C68386   6.846   8.974   2.097  0.5262  0.3157  0.5910
  519MOL0     C68387   6.759   8.877   2.173  0.6408  0.2024 -0.6905
  519MOL0     C68388   6.606   8.891   2.148  0.2564  0.1115 -0.2652
  519MOL0     C68389   6.521   8.820   2.259  0.5454  0.5681  0.1719
  519MOL0     C68390   6.373   8.834   2.235  0.4712 -0.4624 -0.5112
  519MOL0     C68391   6.299   8.792   2.368 -0.4677  0.3491 -0.0425
  519MOL0     C68392   6.154   8.832   2.348  0.2605 -0.5334  0.5255
  519MOL0     N68393   6.090   8.854   2.480  0.6954  0.2002  0.0596
  519MOL0     C68394   6.030   8.759   2.562  0.1913 -0.2111 -0.9276
  519MOL0     C68395   5.979   8.836   2.668  0.4008 -0.1046  0.5389
  519MOL0     C68396   5.898   8.778   2.778 -0.8880 -0.3565  0.0980
  519MOL0     C68397   5.746   8.792   2.767  0.2160  0.3426  0.2687
  519MOL0     C68398   5.677   8.715   2.651  0.0495  0.2331 -0.0093
  519MOL0     C68399   5.519   8.717   2.649 -0.0729  0.2671  0.2735
  519MOL0     O68400   5.476   8.855   2.642  0.4024  0.6219 -0.3009
  519MOL0     C68401   5.344   8.873   2.655  0.8445  0.2417 -0.7219
  519MOL0     C68402   5.290   9.003   2.652 -0.2567  0.1371 -0.5781
  519MOL0     C68403   5.158   9.024   2.679  0.0937  0.9499  1.1653
  519MOL0     C68404   5.068   8.917   2.703 -0.2275  0.4832  0.6254
  519MOL0     C68405   4.926   8.944   2.714 -1.0400 -0.1271 -1.3197
  519MOL0     O68406   4.886   9.081   2.725 -0.8138  0.2515  0.1331
  519MOL0     C68407   4.750   9.109   2.706 -0.5466 -0.5505  0.1694
  519MOL0     C68408   4.659   9.065   2.802  0.1335 -0.3828 -0.2496
  519MOL0     C68409   4.531   9.061   2.774 -0.2601 -0.5612  0.5196
  519MOL0     C68410   4.471   9.098   2.658 -0.8297  0.5070 -0.4663
  519MOL0     O68411   4.337   9.061   2.645 -0.5169 -0.2637  0.6536
  519MOL0     C68412   4.266   9.140   2.550  0.2787  0.4291  1.2974
  519MOL0     C68413   4.109   9.150   2.572 -1.2181  0.3514  0.3022
  519MOL0     C68414   4.040   9.020   2.611 -0.7049  0.7208 -0.1944
  519MOL0     C68415   3.890   9.031   2.602 -0.2866  0.1163 -0.0656
  519MOL0     C68416   3.808   8.921   2.671  0.3168  0.1824 -0.6450
  519MOL0     C68417   3.654   8.939   2.648  0.9242 -0.4790  0.1759
  519MOL0     C68418   3.575   8.845   2.733 -0.0635 -1.0666  0.5181
  519MOL0     C68419   3.430   8.855   2.734  0.9904 -0.1121 -0.4503
  519MOL0    Cl68420   3.364   8.807   2.566 -0.3591  0.0898  0.3738
  519MOL0     C68421   4.556   9.150   2.555 -0.6899 -0.1765  0.4842
  519MOL0     C68422   4.698   9.150   2.578  0.8585  0.4659  1.0459
  519MOL0     O68423   4.854   8.845   2.728 -0.5587  0.6912 -0.2150
  519MOL0     C68424   5.117   8.786   2.697 -0.1198  0.3401 -0.3540
  519MOL0     C68425   5.255   8.769   2.696  0.5222  0.3506 -0.1347
  519MOL0     N68426   5.999   8.975   2.645 -1.3234  0.0132 -0.2182
  519MOL0     N68427   6.067   8.980   2.532  0.5911  0.6905 -0.1254
  519MOL0     C68428   7.157   8.602   2.059  0.6112 -0.6159 -1.1239
  519MOL0     C68429   7.283   8.548   2.040  0.2192  1.0173  0.5164
  519MOL0     C68430   7.743   8.525   1.946 -0.5983 -0.3386 -0.0797
  519MOL0     C68431   7.747   8.398   1.992 -0.4433  0.0466 -0.2426
  519MOL0     C68432   7.853   8.314   1.991 -0.2794  0.2939 -0.4942
  519MOL0     C68433   7.977   8.357   1.940  0.0796  0.0986  0.3713
  519MOL0     O68434   8.080   8.265   1.949  0.6340  0.2546 -0.0530
  519MOL0     C68435   8.217   8.305   1.926  1.2074  0.4265 -0.2505
  519MOL0     C68436   8.274   8.401   2.032  0.1889  0.4891 -0.6837
  519MOL0     C68437   8.432   8.396   2.039 -0.2973 -0.1648 -0.0256
  519MOL0     C68438   8.474   8.473   2.171 -0.0404 -0.4194 -0.3231
  519MOL0     C68439   8.619   8.478   2.150 -0.3363 -0.5884 -0.2614
  519MOL0     C68440   8.743   8.494   2.140  1.4374 -0.1636 -0.7587
  519MOL0     C68441   7.985   8.489   1.893  0.6665  0.2504  0.6687
  519MOL0     C68442   7.865   8.570   1.891 -0.4192 -0.3862 -0.1819
  519MOL0     H68443   7.437   8.842   1.927 -0.0787  0.5266  2.8594
  519MOL0     H68444   7.225   8.925   1.940  0.0069 -0.0608 -1.0424
  519MOL0     H68445   7.059   8.995   2.064  0.5222  1.4598  2.1763
  519MOL0     H68446   7.021   8.926   2.217  1.3332 -1.0438 -0.9991
  519MOL0     H68447   6.809   8.970   1.993 -0.6001 -1.7062  1.0095
  519MOL0     H68448   6.830   9.079   2.122 -3.1336  1.1803 -3.8408
  519MOL0     H68449   6.771   8.892   2.281  0.3825 -3.1624 -0.0692
  519MOL0     H68450   6.800   8.779   2.145  2.2612  1.2580 -2.1576
  519MOL0     H68451   6.575   8.995   2.132  0.1991 -0.2859 -3.2247
  519MOL0     H68452   6.569   8.844   2.056 -0.3147  0.7277 -0.3612
  519MOL0     H68453   6.536   8.871   2.354 -2.5681  1.7234  0.1487
  519MOL0     H68454   6.549   8.714   2.260 -2.0044 -0.2975 -2.8237
  519MOL0     H68455   6.345   8.794   2.137 -0.2681  0.3108 -0.6277
  519MOL0     H68456   6.350   8.941   2.225 -2.0950 -0.7705  1.2911
  519MOL0     H68457   6.298   8.683   2.370 -0.9065  0.3601  1.7661
  519MOL0     H68458   6.340   8.831   2.462 -1.1607 -1.4985  1.0728
  519MOL0     H68459   6.109   8.748   2.292 -2.7136  1.5584 -0.4924
  519MOL0     H68460   6.148   8.930   2.301  0.1908  0.9132  3.3273
  519MOL0     H68461   6.021   8.652   2.543 -1.8417 -0.8996  2.9394
  519MOL0     H68462   5.937   8.827   2.868 -2.6098 -0.8360  1.1579
  519MOL0     H68463   5.921   8.672   2.793  4.6034  0.7969  2.5306
  519MOL0     H68464   5.723   8.895   2.740  0.2616 -0.4756 -3.4355
  519MOL0     H68465   5.702   8.764   2.863  0.0244 -1.2336 -0.2459
  519MOL0     H68466   5.718   8.759   2.559 -0.7875 -2.1185 -1.6083
  519MOL0     H68467   5.713   8.612   2.650  1.0398  0.5588 -1.7056
  519MOL0     H68468   5.483   8.663   2.737  1.8452 -0.0268  0.9136
  519MOL0     H68469   5.487   8.669   2.556  1.6447 -1.0165  0.2900
  519MOL0     H68470   5.356   9.085   2.627 -1.3044  2.4037  3.2471
  519MOL0     H68471   5.127   9.128   2.673  1.9362  1.4689 -0.9919
  519MOL0     H68472   4.697   9.003   2.883  3.4664  0.7415 -0.8008
  519MOL0     H68473   4.472   9.014   2.852  2.6141  0.1714  3.3476
  519MOL0     H68474   4.288   9.074   2.466  3.1349 -0.0244  2.3033
  519MOL0     H68475   4.303   9.242   2.540 -0.2885  0.7104  1.9562
  519MOL0     H68476   4.059   9.192   2.485 -4.0930 -2.3334  0.4691
  519MOL0     H68477   4.107   9.217   2.659  5.1796 -0.9579  1.9900
  519MOL0     H68478   4.057   9.000   2.717  2.8146 -0.9355 -0.9503
  519MOL0     H68479   4.074   8.935   2.552 -1.1781 -0.1960  0.8304
  519MOL0     H68480   3.865   9.129   2.644  2.2986  0.6475  0.4117
  519MOL0     H68481   3.858   9.049   2.499 -1.3661  3.1073  0.6633
  519MOL0     H68482   3.821   8.933   2.779 -1.5869  0.7528 -0.4350
  519MOL0     H68483   3.830   8.824   2.625 -1.2733 -0.5640  0.0954
  519MOL0     H68484   3.642   8.906   2.545  0.3776 -0.0413  0.0969
  519MOL0     H68485   3.627   9.045   2.652 -1.2916 -1.0353  2.1265
  519MOL0     H68486   3.608   8.746   2.700  0.9305 -1.4907  2.6264
  519MOL0     H68487   3.600   8.858   2.839 -0.1472 -3.1541  0.8487
  519MOL0     H68488   3.404   8.956   2.768  3.2682  0.0049  1.2009
  519MOL0     H68489   3.383   8.787   2.805 -0.8689  1.1361 -0.4134
  519MOL0     H68490   4.518   9.178   2.458 -2.0446 -0.7908  0.8086
  519MOL0     H68491   4.759   9.186   2.495  0.0734  1.2068  0.7705
  519MOL0     H68492   5.040   8.712   2.714 -0.3354  0.9682  1.6833
  519MOL0     H68493   5.279   8.667   2.722 -1.2618 -0.1897 -0.4859
  519MOL0     H68494   7.074   8.550   2.106 -0.3649  1.3913 -0.5244
  519MOL0     H68495   7.284   8.440   2.039 -0.2629  0.9769 -1.9791
  519MOL0     H68496   7.662   8.346   2.035  0.8238 -1.9052  0.0500
  519MOL0     H68497   7.842   8.210   2.020  0.1437  0.3235 -0.2111
  519MOL0     H68498   8.231   8.343   1.825  1.2915  3.3885  0.7720
  519MOL0     H68499   8.269   8.211   1.946 -1.1700 -0.8096  0.5379
  519MOL0     H68500   8.238   8.502   2.012  0.4590  0.4029 -1.6510
  519MOL0     H68501   8.232   8.369   2.128 -1.2555 -1.5337 -1.8950
  519MOL0     H68502   8.493   8.436   1.958  2.9779  2.0457  3.2117
  519MOL0     H68503   8.447   8.288   2.047  0.8143  0.0551  1.2401
  519MOL0     H68504   8.419   8.568   2.173 -2.2192 -1.6457  1.1819
  519MOL0     H68505   8.447   8.419   2.262 -1.8560  3.2574  1.5678
  519MOL0     H68506   8.850   8.502   2.133  1.7352 -1.2577  1.5308
  519MOL0     H68507   8.075   8.524   1.845 -0.6780  1.5367 -1.0771
  519MOL0     H68508   7.875   8.666   1.841  1.7005 -0.7048 -0.4781
  520MOL0     O68509   5.711   0.924   5.931  0.4132  0.1847  0.2576
  520MOL0     C68510   5.757   0.994   5.842 -0.9283 -0.2695  0.7823
  520MOL0     O68511   5.683   1.053   5.747 -0.4471  0.3297 -0.6400
  520MOL0     C68512   5.551   1.052   5.763 -0.4564  0.1276  0.4948
  520MOL0     C68513   5.490   1.150   5.836 -0.1022  0.0495  0.0317
  520MOL0     C68514   5.348   1.171   5.841  0.2007  0.0678  0.2215
  520MOL0     C68515   5.265   1.083   5.770 -0.1803 -0.1041  0.8388
  520MOL0     O68516   5.133   1.097   5.756  0.2419 -0.6198 -0.0950
  520MOL0     C68517   5.058   1.178   5.855  0.2293  0.0183 -0.3772
  520MOL0     C68518   4.905   1.188   5.831 -0.2658  0.0075 -0.0400
  520MOL0     C68519   4.830   1.046   5.832 -0.9358 -0.0234  0.4167
  520MOL0     C68520   4.708   1.047   5.746 -0.7047 -0.5051 -0.2879
  520MOL0     C68521   4.663   0.897   5.729 -0.9195 -0.0962  0.3758
  520MOL0     C68522   4.516   0.871   5.729  0.3469  1.0320 -0.5145
  520MOL0     C68523   4.439   0.876   5.868  0.0436  0.8927  0.7138
  520MOL0     C68524   4.293   0.846   5.849  1.4179 -0.1407  0.2354
  520MOL0     N68525   4.205   0.952   5.787  0.8384  0.5584 -0.0894
  520MOL0     C68526   4.096   1.010   5.846  0.5696 -0.4083 -0.3130
  520MOL0     C68527   4.044   1.093   5.755 -0.0745 -0.9023  0.3956
  520MOL0     C68528   3.914   1.173   5.761  0.0147  0.9994  0.1151
  520MOL0     C68529   3.777   1.102   5.748 -0.4546  0.9719 -0.0290
  520MOL0     C68530   3.770   1.013   5.617 -0.1568  0.2773  0.5393
  520MOL0     C68531   3.638   0.950   5.594  0.7731 -0.4459 -0.5867
  520MOL0     O68532   3.601   0.873   5.713 -0.2334 -0.2994  0.2779
  520MOL0     C68533   3.477   0.828   5.731 -0.6743 -0.4566  0.1601
  520MOL0     C68534   3.363   0.841   5.650 -0.6969 -0.0976 -0.7143
  520MOL0     C68535   3.243   0.780   5.678  0.2737 -0.0249  0.5596
  520MOL0     C68536   3.226   0.709   5.798 -0.0705  0.3221  1.2991
  520MOL0     C68537   3.098   0.646   5.834  0.3432 -0.1765  0.2905
  520MOL0     O68538   2.982   0.697   5.774 -0.2443  0.1017  0.3919
  520MOL0     C68539   2.860   0.648   5.803  0.5041  0.0169  0.2707
  520MOL0     C68540   2.755   0.732   5.769  0.0631  0.6198  0.0668
  520MOL0     C68541   2.625   0.689   5.774  0.3192 -0.2044  0.3683
  520MOL0     C68542   2.600   0.562   5.813  0.5465  0.5079  0.6012
  520MOL0     O68543   2.466   0.537   5.835 -0.4094 -0.2363 -0.1699
  520MOL0     C68544   2.432   0.431   5.928  0.1542  0.2150 -0.1644
  520MOL0     C68545   2.277   0.434   5.949 -0.2606  0.4264  0.0362
  520MOL0     C68546   2.190   0.432   5.821 -0.1645  1.2580  0.2175
  520MOL0     C68547   2.036   0.405   5.845 -0.3548 -0.1503  0.5936
  520MOL0     C68548   1.972   0.397   5.708  0.3708 -0.2683 -0.3487
  520MOL0     C68549   1.830   0.359   5.717  0.0555  0.0415  0.8883
  520MOL0     C68550   1.761   0.476   5.792 -0.1592 -0.1736  0.0216
  520MOL0     C68551   1.618   0.472   5.778  0.1118 -0.4038  0.1449
  520MOL0    Cl68552   1.573   0.493   5.601  0.3677  0.0023 -0.4542
  520MOL0     C68553   2.702   0.471   5.848  0.1792 -0.2400 -0.5685
  520MOL0     C68554   2.831   0.513   5.841 -0.3352 -0.3115 -0.6760
  520MOL0     O68555   3.096   0.568   5.927  0.3749 -0.7093 -0.3487
  520MOL0     C68556   3.337   0.692   5.884 -0.1890 -0.5894  0.3015
  520MOL0     C68557   3.458   0.746   5.842 -0.2454  0.4656 -0.1992
  520MOL0     N68558   4.111   1.077   5.636 -0.2304 -0.2387  0.1180
  520MOL0     N68559   4.216   1.003   5.662  0.9486 -0.1740  0.9442
  520MOL0     C68560   5.325   0.974   5.703 -0.0245  0.0716  0.2602
  520MOL0     C68561   5.465   0.966   5.699  0.2133  1.7717 -0.7838
  520MOL0     C68562   5.898   1.013   5.820 -0.7136  0.0443  0.5147
  520MOL0     C68563   6.001   0.981   5.912  0.4830  0.5785  0.3333
  520MOL0     C68564   6.139   0.985   5.881 -0.1907  0.2867 -1.0746
  520MOL0     C68565   6.180   1.041   5.766  0.7903  0.6281 -0.3608
  520MOL0     O68566   6.312   1.050   5.751  0.4816 -0.4442  0.0073
  520MOL0     C68567   6.360   1.124   5.640 -0.3474  0.3166 -1.5579
  520MOL0     C68568   6.508   1.112   5.612 -0.8780 -0.1289 -0.2121
  520MOL0     C68569   6.598   1.154   5.730  0.5257 -0.4408 -0.2073
  520MOL0     C68570   6.746   1.105   5.723 -0.6735 -0.3360  0.3326
  520MOL0     C68571   6.802   1.128   5.587 -0.0747  0.2049  0.2789
  520MOL0     C68572   6.844   1.154   5.474  0.4604  0.6521 -0.3054
  520MOL0     C68573   6.081   1.083   5.677  0.6216  0.2268  0.6474
  520MOL0     C68574   5.948   1.075   5.703 -0.6801  0.0881  0.0232
  520MOL0     H68575   5.550   1.221   5.891 -0.5788  0.7607 -0.3599
  520MOL0     H68576   5.305   1.261   5.884 -1.0885 -0.1959 -0.4852
  520MOL0     H68577   5.104   1.277   5.855  3.1226 -1.2189 -0.8455
  520MOL0     H68578   5.077   1.129   5.951  0.2110 -1.0776 -0.9163
  520MOL0     H68579   4.887   1.228   5.731  0.5955  1.1714  0.2527
  520MOL0     H68580   4.860   1.263   5.897 -3.0924 -0.4522 -1.2873
  520MOL0     H68581   4.794   1.023   5.933  0.5579  0.0126  0.9735
  520MOL0     H68582   4.894   0.965   5.796 -0.3594  0.3880  0.5068
  520MOL0     H68583   4.645   1.106   5.812  0.1533 -0.7648  0.7864
  520MOL0     H68584   4.720   1.095   5.648  0.3961 -1.3140 -0.5771
  520MOL0     H68585   4.710   0.840   5.809 -0.7521 -1.1659 -0.4587
  520MOL0     H68586   4.704   0.855   5.636  1.5995  1.1443  0.8607
  520MOL0     H68587   4.497   0.775   5.681  2.1229  2.0681 -3.5922
  520MOL0     H68588   4.476   0.945   5.658  2.0787 -0.4690 -3.2465
  520MOL0     H68589   4.493   0.809   5.936  0.4053  0.0994 -0.3235
  520MOL0     H68590   4.465   0.976   5.904  0.0467  0.7776  1.0297
  520MOL0     H68591   4.248   0.824   5.946  1.2027 -0.2500  0.1123
  520MOL0     H68592   4.287   0.748   5.799  2.8750 -0.5485  0.8088
  520MOL0     H68593   4.068   0.984   5.947  1.4254 -3.5246 -0.7374
  520MOL0     H68594   3.915   1.220   5.662  1.7969  0.1871 -0.3026
  520MOL0     H68595   3.915   1.245   5.844 -1.3123  0.4171  0.6525
  520MOL0     H68596   3.695   1.174   5.738 -1.2927  0.3380  1.7913
  520MOL0     H68597   3.751   1.036   5.831  0.0045 -1.4243 -1.7047
  520MOL0     H68598   3.780   1.087   5.537 -0.0006  0.2107  0.4989
  520MOL0     H68599   3.846   0.934   5.616 -2.6741 -2.4444  3.4012
  520MOL0     H68600   3.638   0.888   5.503  1.3858  0.8071 -1.4784
  520MOL0     H68601   3.566   1.031   5.583  0.9145 -0.1852  0.3342
  520MOL0     H68602   3.389   0.903   5.565  1.9361  1.7672  1.2663
  520MOL0     H68603   3.165   0.791   5.603  0.6514 -1.9398 -0.1666
  520MOL0     H68604   2.784   0.834   5.743  0.7495  0.1135 -1.2492
  520MOL0     H68605   2.536   0.749   5.760  0.5427  0.6519  2.3040
  520MOL0     H68606   2.486   0.433   6.023  0.9583  1.0037 -0.6289
  520MOL0     H68607   2.467   0.340   5.878  0.8418  0.8201 -0.7928
  520MOL0     H68608   2.246   0.511   6.020  0.8167 -1.7247  3.0129
  520MOL0     H68609   2.253   0.345   6.007 -3.3920  0.9669 -0.2763
  520MOL0     H68610   2.230   0.348   5.764  1.9635  2.8149 -0.6905
  520MOL0     H68611   2.199   0.521   5.758 -1.3754 -0.2558 -2.2640
  520MOL0     H68612   2.038   0.316   5.908  1.9116  1.1089  2.4677
  520MOL0     H68613   1.995   0.484   5.909 -0.8980 -0.4170  0.5800
  520MOL0     H68614   2.035   0.326   5.652 -0.7209 -0.3458 -1.5322
  520MOL0     H68615   1.979   0.492   5.655  0.9790 -0.9107 -1.4731
  520MOL0     H68616   1.824   0.266   5.774  0.4547 -1.7218 -1.7757
  520MOL0     H68617   1.777   0.341   5.623  0.4356  0.7767  0.5264
  520MOL0     H68618   1.792   0.476   5.897 -0.3786  1.2898  0.1183
  520MOL0     H68619   1.796   0.569   5.745  1.6538 -0.6062  0.4417
  520MOL0     H68620   1.579   0.553   5.840 -1.2753  0.5782 -1.8959
  520MOL0     H68621   1.568   0.379   5.806 -2.1264  0.1430 -1.6647
  520MOL0     H68622   2.696   0.369   5.885  0.7547  0.2070  0.8143
  520MOL0     H68623   2.911   0.446   5.869  1.3633  1.7795 -0.2089
  520MOL0     H68624   3.337   0.628   5.972  1.4179 -2.0809 -0.7065
  520MOL0     H68625   3.543   0.724   5.906 -0.4980 -2.4288 -0.7056
  520MOL0     H68626   5.261   0.908   5.646  0.5751 -1.0581  0.8658
  520MOL0     H68627   5.499   0.888   5.632  0.9652  1.1609  0.2825
  520MOL0     H68628   5.971   0.929   6.002 -2.5591 -0.0995 -0.9453
  520MOL0     H68629   6.208   0.951   5.958 -1.1704  0.5172 -0.0700
  520MOL0     H68630   6.337   1.229   5.662  3.0508  1.2911 -1.9938
  520MOL0     H68631   6.312   1.095   5.546 -0.4182  3.2818 -2.5445
  520MOL0     H68632   6.543   1.012   5.583  0.1572  0.1078  0.1907
  520MOL0     H68633   6.530   1.172   5.523  0.8834 -0.7682 -0.2273
  520MOL0     H68634   6.548   1.129   5.824  2.6347 -4.4004  0.1262
  520MOL0     H68635   6.601   1.263   5.728  1.4817 -0.4614 -0.5588
  520MOL0     H68636   6.803   1.155   5.802  0.1003  1.1033 -1.0783
  520MOL0     H68637   6.774   1.001   5.741 -0.2462 -0.2298  0.2895
  520MOL0     H68638   6.880   1.195   5.382  1.2005  0.3727 -0.1503
  520MOL0     H68639   6.112   1.116   5.578 -0.6780 -1.0194 -0.2084
  520MOL0     H68640   5.881   1.102   5.623  0.3291  4.3996  0.3962
  521MOL0     O68641   8.393   1.067   2.752  0.3131  0.0499  0.1079
  521MOL0     C68642   8.479   1.008   2.815 -0.2588  0.6415  0.2584
  521MOL0     O68643   8.483   0.868   2.837  0.1837  0.1066 -0.5227
  521MOL0     C68644   8.389   0.795   2.780 -0.7517  0.4689 -0.2008
  521MOL0     C68645   8.433   0.715   2.668 -0.0821  0.0811  0.2694
  521MOL0     C68646   8.343   0.633   2.597  0.0226  0.1746 -0.0358
  521MOL0     C68647   8.212   0.636   2.635  0.3989 -0.0328 -0.1560
  521MOL0     O68648   8.122   0.563   2.549  0.5989 -0.2888 -0.4361
  521MOL0     C68649   7.981   0.568   2.582 -0.3945  0.7642  0.0073
  521MOL0     C68650   7.911   0.455   2.507  0.5643 -0.0967  0.5855
  521MOL0     C68651   7.761   0.462   2.507  0.5708  0.2446  0.5742
  521MOL0     C68652   7.700   0.345   2.423 -0.2715 -0.2785  0.7112
  521MOL0     C68653   7.551   0.339   2.393  0.9834  0.0219  0.0399
  521MOL0     C68654   7.510   0.204   2.317  0.7547  0.6320 -0.3214
  521MOL0     C68655   7.355   0.178   2.314  0.0793  0.0350 -0.0822
  521MOL0     C68656   7.292   0.271   2.214 -0.0214  0.1682  0.3911
  521MOL0     N68657   7.157   0.216   2.183  0.3739 -0.3796  0.1239
  521MOL0     C68658   7.027   0.275   2.178 -0.3529 -0.5763  0.4092
  521MOL0     C68659   6.951   0.196   2.109  0.5054 -0.3273 -0.8030
  521MOL0     C68660   6.816   0.231   2.046  0.5039 -0.2648 -0.0016
  521MOL0     C68661   6.704   0.129   2.000  1.1825 -0.1974 -0.2834
  521MOL0     C68662   6.677   0.023   2.099  0.4932 -0.1196 -0.1925
  521MOL0     C68663   6.600   0.082   2.222 -0.0447 -0.3135 -0.2733
  521MOL0     O68664   6.632   0.018   2.345 -0.1141  0.3380 -0.0968
  521MOL0     C68665   6.719   0.088   2.428  0.3710  0.0827 -0.3650
  521MOL0     C68666   6.857   0.064   2.431 -0.2258 -0.4717 -0.1858
  521MOL0     C68667   6.948   0.148   2.507 -0.1226 -0.6121  0.0006
  521MOL0     C68668   6.896   0.248   2.601  0.0931  0.1739  0.0404
  521MOL0     C68669   6.977   0.338   2.671 -0.0996  0.1588 -1.5777
  521MOL0     O68670   7.104   0.314   2.658  0.1641  0.5237 -0.3757
  521MOL0     C68671   7.195   0.406   2.714 -0.1399 -0.5772 -0.0226
  521MOL0     C68672   7.245   0.376   2.843  0.2552 -0.4059  0.1106
  521MOL0     C68673   7.348   0.452   2.899 -0.5330  1.0133  0.0107
  521MOL0     C68674   7.395   0.556   2.827 -0.1029 -1.1404 -0.0074
  521MOL0     O68675   7.508   0.622   2.871 -0.5151 -0.7435 -0.6840
  521MOL0     C68676   7.569   0.737   2.803 -0.1351  0.2214 -0.1137
  521MOL0     C68677   7.673   0.790   2.900  0.4488 -0.4588 -0.2055
  521MOL0     C68678   7.776   0.688   2.952  0.2265  0.5327 -0.7939
  521MOL0     C68679   7.858   0.771   3.053 -1.0350  0.0883  0.0351
  521MOL0     C68680   7.982   0.690   3.105  0.4837 -0.0120 -0.1641
  521MOL0     C68681   8.075   0.772   3.186 -0.6648 -0.4866  0.0525
  521MOL0     C68682   8.021   0.816   3.324  0.8693  1.0879  0.2615
  521MOL0     C68683   8.020   0.970   3.353 -0.3580 -0.0626  0.0497
  521MOL0    Cl68684   8.180   1.047   3.342  0.5942  0.6665  0.2186
  521MOL0     C68685   7.344   0.594   2.696 -0.4692  0.5236 -0.6367
  521MOL0     C68686   7.245   0.516   2.642 -0.6908  0.4475  0.5123
  521MOL0     O68687   6.932   0.422   2.749 -0.2368  0.3079 -0.3827
  521MOL0     C68688   6.749   0.261   2.599 -0.2446 -0.0877 -0.1280
  521MOL0     C68689   6.663   0.186   2.510  0.3372 -0.3902 -0.3172
  521MOL0     N68690   7.026   0.100   2.047  0.6403 -0.6148 -0.2756
  521MOL0     N68691   7.146   0.100   2.100 -0.4512 -0.4527 -0.3459
  521MOL0     C68692   8.164   0.708   2.751  1.0128 -0.1312  0.2219
  521MOL0     C68693   8.254   0.793   2.825 -0.2493  0.6807  0.2642
  521MOL0     C68694   8.572   1.089   2.899 -0.6671 -0.0315  0.5308
  521MOL0     C68695   8.661   1.038   2.992 -0.7645  0.1531  1.1426
  521MOL0     C68696   8.759   1.108   3.054 -0.0635 -0.1489 -0.0343
  521MOL0     C68697   8.757   1.251   3.036 -0.6293  0.6297 -0.9549
  521MOL0     O68698   8.837   1.343   3.084 -0.1080 -0.2931  0.5394
  521MOL0     C68699   8.948   1.309   3.171  0.0111  0.2166 -0.2973
  521MOL0     C68700   9.016   1.428   3.242 -0.8683  0.0034  0.9312
  521MOL0     C68701   8.916   1.536   3.297  0.0107  0.2562 -0.0252
  521MOL0     C68702   8.809   1.477   3.389  1.0742  0.3133 -0.4449
  521MOL0     C68703   8.736   1.586   3.457 -0.5558  0.2604 -0.2298
  521MOL0     C68704   8.679   1.677   3.513 -0.5306  0.0351  0.9651
  521MOL0     C68705   8.659   1.305   2.945 -0.4056  0.0770 -0.5536
  521MOL0     C68706   8.565   1.225   2.881 -0.6341 -0.4994 -0.0302
  521MOL0     H68707   8.539   0.728   2.652 -0.1467  1.7606  0.9460
  521MOL0     H68708   8.382   0.587   2.507  0.8530 -0.7058  0.7539
  521MOL0     H68709   7.935   0.666   2.563 -0.9295  0.3680 -0.8179
  521MOL0     H68710   7.969   0.546   2.688  0.8413 -0.4038 -0.0721
  521MOL0     H68711   7.939   0.356   2.544  1.2161  0.0504  0.5102
  521MOL0     H68712   7.936   0.455   2.401 -0.0300  0.0029  0.4457
  521MOL0     H68713   7.722   0.552   2.459 -2.2756 -1.5155 -0.7019
  521MOL0     H68714   7.719   0.463   2.608  0.4933  3.8966  0.6165
  521MOL0     H68715   7.761   0.322   2.335 -1.4076 -0.5589 -0.0110
  521MOL0     H68716   7.724   0.254   2.479  2.8454 -1.6625 -2.4685
  521MOL0     H68717   7.526   0.429   2.336  0.0102 -1.0016 -1.1989
  521MOL0     H68718   7.501   0.340   2.490 -2.8858 -2.8650 -1.6941
  521MOL0     H68719   7.552   0.122   2.376  0.0067  0.7138  0.3315
  521MOL0     H68720   7.553   0.202   2.216  2.0576  0.4280  0.2143
  521MOL0     H68721   7.330   0.076   2.286  1.0331 -1.2639  3.3157
  521MOL0     H68722   7.311   0.178   2.414 -1.3151  0.9245 -0.6558
  521MOL0     H68723   7.342   0.256   2.118 -1.3749  3.1954 -0.9078
  521MOL0     H68724   7.285   0.376   2.242 -1.2812  0.2441 -0.1486
  521MOL0     H68725   7.013   0.380   2.198  2.1343 -0.2051  0.5484
  521MOL0     H68726   6.841   0.297   1.963 -2.0166 -0.9533 -1.3850
  521MOL0     H68727   6.758   0.301   2.107  2.2432  0.7570  0.5629
  521MOL0     H68728   6.739   0.091   1.904 -2.2333  1.2082 -2.2734
  521MOL0     H68729   6.607   0.175   1.975  0.2238 -2.6046 -1.2828
  521MOL0     H68730   6.619  -0.061   2.060  1.1595 -0.2214 -0.9823
  521MOL0     H68731   6.766  -0.030   2.137 -0.3649 -1.8470 -0.4828
  521MOL0     H68732   6.492   0.064   2.212 -0.4879  2.9562 -4.8192
  521MOL0     H68733   6.605   0.190   2.236  0.6490 -0.3859  0.0720
  521MOL0     H68734   6.909  -0.011   2.372  1.1306 -0.0644  0.4578
  521MOL0     H68735   7.054   0.128   2.502 -0.3079 -1.7916  0.4974
  521MOL0     H68736   7.207   0.287   2.891  1.6216 -2.8138 -2.9239
  521MOL0     H68737   7.393   0.440   2.997  0.3291  0.2740 -0.4625
  521MOL0     H68738   7.494   0.811   2.777 -1.2371 -0.1222  1.8669
  521MOL0     H68739   7.623   0.700   2.715 -0.5380 -1.0028  0.1281
  521MOL0     H68740   7.617   0.823   2.988  1.3109 -3.1458  1.4910
  521MOL0     H68741   7.729   0.871   2.853  0.6266 -0.5372 -0.1286
  521MOL0     H68742   7.837   0.653   2.868 -1.3220 -2.9177 -0.6463
  521MOL0     H68743   7.723   0.610   3.007 -1.5755  1.0361 -1.7250
  521MOL0     H68744   7.893   0.865   3.008 -0.9815 -0.0628 -0.2447
  521MOL0     H68745   7.800   0.805   3.139  2.0089 -0.8207  2.6086
  521MOL0     H68746   8.034   0.649   3.018 -1.0833  1.2594 -1.7643
  521MOL0     H68747   7.945   0.609   3.169  1.3968 -0.0702  0.3052
  521MOL0     H68748   8.100   0.862   3.130 -0.6647 -0.0704  0.7077
  521MOL0     H68749   8.167   0.714   3.195  1.5819  2.6913 -0.7297
  521MOL0     H68750   7.919   0.782   3.347  1.3672 -1.1114 -0.4949
  521MOL0     H68751   8.086   0.767   3.397  0.0199 -1.4218 -0.5426
  521MOL0     H68752   7.988   0.976   3.457  1.3062  0.8533  0.5425
  521MOL0     H68753   7.943   1.022   3.295 -0.6661  1.3105  1.6331
  521MOL0     H68754   7.396   0.675   2.646  2.5532 -1.7339 -1.4764
  521MOL0     H68755   7.214   0.532   2.539  1.4171 -0.3969 -0.3052
  521MOL0     H68756   6.703   0.337   2.662 -0.3544 -1.1342  1.0906
  521MOL0     H68757   6.557   0.206   2.499  0.2439  0.1025  1.2326
  521MOL0     H68758   8.063   0.699   2.792  1.9560 -1.2532  2.4988
  521MOL0     H68759   8.219   0.856   2.906  1.7890  1.8143  0.3340
  521MOL0     H68760   8.661   0.931   3.009  2.9124 -0.4002 -1.1194
  521MOL0     H68761   8.828   1.064   3.126 -2.0072 -0.5224  1.7112
  521MOL0     H68762   9.022   1.251   3.116  1.1213 -1.4873  2.7790
  521MOL0     H68763   8.895   1.246   3.243 -2.1407  0.4865 -1.5341
  521MOL0     H68764   9.085   1.393   3.320  0.1712 -3.1973 -1.1849
  521MOL0     H68765   9.077   1.472   3.163  1.0681 -2.4621  0.9160
  521MOL0     H68766   8.869   1.591   3.215  2.9644  0.9734 -1.3591
  521MOL0     H68767   8.971   1.611   3.354  1.6481 -1.1145  0.2506
  521MOL0     H68768   8.733   1.423   3.332  0.2211  0.2782  0.6974
  521MOL0     H68769   8.847   1.409   3.466  1.8162  2.0270  0.7595
  521MOL0     H68770   8.637   1.769   3.548 -2.4026  0.3761 -1.7977
  521MOL0     H68771   8.668   1.411   2.923 -1.1382 -0.0243 -1.4130
  521MOL0     H68772   8.521   1.277   2.797  1.9065  1.1416 -0.4549
  522MOL0     O68773   4.813   8.826   9.567  0.6944  0.8875  0.1205
  522MOL0     C68774   4.744   8.912   9.511  0.5424 -0.2904 -0.2910
  522MOL0     O68775   4.788   8.987   9.409 -0.2407  0.1683  0.5863
  522MOL0     C68776   4.880   8.928   9.326 -0.8115  0.1584 -0.4023
  522MOL0     C68777   5.015   8.970   9.329  0.3473 -0.2528  0.0923
  522MOL0     C68778   5.110   8.902   9.260 -0.5123  0.2906  0.0943
  522MOL0     C68779   5.068   8.803   9.171  0.1895  0.2778  0.1190
  522MOL0     O68780   5.164   8.745   9.088 -0.3623 -0.2288 -0.0468
  522MOL0     C68781   5.131   8.622   9.034 -0.2175  0.1084  0.0297
  522MOL0     C68782   5.240   8.578   8.930  0.4801 -0.5255 -0.3474
  522MOL0     C68783   5.386   8.589   8.972  0.4501 -0.0987  0.8864
  522MOL0     C68784   5.483   8.557   8.852 -0.0787 -0.8452 -0.0429
  522MOL0     C68785   5.632   8.554   8.897 -0.0740  0.6711  0.2439
  522MOL0     C68786   5.736   8.564   8.779 -0.3072 -0.5155 -0.0933
  522MOL0     C68787   5.730   8.696   8.699  0.0507  0.6091 -0.3709
  522MOL0     C68788   5.870   8.729   8.642  0.2829 -0.8105  1.0939
  522MOL0     N68789   5.977   8.721   8.738  1.1506 -0.0607 -0.6874
  522MOL0     C68790   5.975   8.780   8.860 -0.8293 -0.2025 -0.1096
  522MOL0     C68791   6.091   8.750   8.921 -0.4093 -0.3200  1.2363
  522MOL0     C68792   6.150   8.796   9.051 -0.6569 -1.0906 -0.4197
  522MOL0     C68793   6.137   8.685   9.169  0.4235 -0.1290  1.2294
  522MOL0     C68794   5.988   8.642   9.206 -0.5240  0.8098  0.2183
  522MOL0     C68795   5.892   8.765   9.217  0.9293  0.4625 -0.2249
  522MOL0     O68796   5.765   8.711   9.259  0.1523 -0.4153 -0.4825
  522MOL0     C68797   5.682   8.788   9.340  0.1631 -0.2414  0.6909
  522MOL0     C68798   5.730   8.883   9.430  0.7019 -0.6184 -0.3758
  522MOL0     C68799   5.635   8.958   9.508  0.1264  0.2189  1.2100
  522MOL0     C68800   5.497   8.934   9.498  0.5261  0.2401 -0.1804
  522MOL0     C68801   5.404   9.001   9.591  0.0689 -0.2847  0.5597
  522MOL0     O68802   5.271   8.997   9.577  0.3651 -0.3820 -0.0698
  522MOL0     C68803   5.188   9.072   9.656  0.5733  0.3299  0.8515
  522MOL0     C68804   5.210   9.200   9.712 -0.0634 -0.5577 -0.3407
  522MOL0     C68805   5.112   9.262   9.784  0.2499 -0.7051  0.4081
  522MOL0     C68806   4.987   9.206   9.802  0.1485  0.1281 -0.5538
  522MOL0     O68807   4.892   9.267   9.882 -0.0755  0.3318 -0.1603
  522MOL0     C68808   4.818   9.367   9.809  0.1366 -0.0092 -0.1398
  522MOL0     C68809   4.691   9.412   9.880  0.6179 -0.0450  0.7501
  522MOL0     C68810   4.572   9.464   9.800 -0.0667 -0.0654  0.2245
  522MOL0     C68811   4.614   9.595   9.725 -0.8126 -0.7653 -0.3352
  522MOL0     C68812   4.524   9.638   9.599  0.6886  0.2264  0.6563
  522MOL0     C68813   4.374   9.657   9.635 -0.0899  0.3225  0.1488
  522MOL0     C68814   4.344   9.779   9.724  0.3947  0.2070 -0.6429
  522MOL0     C68815   4.202   9.788   9.767  0.4966  0.1596  0.0154
  522MOL0    Cl68816   4.087   9.765   9.631 -0.5617 -0.2157 -0.0815
  522MOL0     C68817   4.952   9.086   9.738  0.3427 -0.0199  0.0441
  522MOL0     C68818   5.052   9.017   9.673  0.2955  0.3266 -0.5239
  522MOL0     O68819   5.462   9.057   9.683 -0.1610 -0.1865  0.6039
  522MOL0     C68820   5.450   8.840   9.407 -0.4009  0.1523 -0.8607
  522MOL0     C68821   5.542   8.772   9.327 -0.5505  0.3922  1.2211
  522MOL0     N68822   6.161   8.673   8.832  0.4364  0.1461 -0.6965
  522MOL0     N68823   6.094   8.654   8.722  0.2220  1.2455 -0.5755
  522MOL0     C68824   4.930   8.767   9.166 -1.2119  0.3870  0.3754
  522MOL0     C68825   4.842   8.821   9.252  1.2391 -1.5823 -0.2380
  522MOL0     C68826   4.623   8.953   9.584 -0.3625 -0.4565  0.4808
  522MOL0     C68827   4.507   9.028   9.524 -1.0783 -0.4522  0.4111
  522MOL0     C68828   4.396   9.062   9.598 -0.3897 -0.4344 -0.0604
  522MOL0     C68829   4.382   9.023   9.731  0.1701 -0.8555  0.2059
  522MOL0     O68830   4.277   9.055   9.806  0.0509  0.4410 -0.1635
  522MOL0     C68831   4.199   9.163   9.768  0.1109 -0.7169  0.4526
  522MOL0     C68832   4.077   9.119   9.687 -0.4436  0.3570 -0.4088
  522MOL0     C68833   4.010   9.232   9.606  0.2162  0.0999 -0.3507
  522MOL0     C68834   3.962   9.338   9.709 -0.1811 -0.1597  0.8476
  522MOL0     C68835   3.864   9.283   9.797 -0.0030  0.5501  0.1632
  522MOL0     C68836   3.781   9.239   9.876  0.2495  0.2724 -0.1165
  522MOL0     C68837   4.485   8.945   9.787  0.9388 -0.2357 -0.5094
  522MOL0     C68838   4.599   8.916   9.719  0.3825 -0.1643  0.0377
  522MOL0     H68839   5.033   9.054   9.396 -3.6083  0.5093  0.4783
  522MOL0     H68840   5.217   8.912   9.275 -0.2825 -0.0337 -1.1536
  522MOL0     H68841   5.031   8.622   8.988  0.1929  0.6368 -0.8973
  522MOL0     H68842   5.140   8.547   9.113  0.8989 -0.8218 -0.9190
  522MOL0     H68843   5.232   8.642   8.842 -1.3919 -1.9211 -1.2510
  522MOL0     H68844   5.213   8.477   8.898 -3.4892  0.4000 -0.4392
  522MOL0     H68845   5.409   8.513   9.048 -0.2503 -0.9065  0.3165
  522MOL0     H68846   5.409   8.689   9.011 -1.5688  1.2226 -1.0960
  522MOL0     H68847   5.458   8.467   8.795  1.6538 -0.7831 -0.9783
  522MOL0     H68848   5.483   8.645   8.786  1.2193  0.0687  1.1082
  522MOL0     H68849   5.649   8.460   8.951 -0.6171 -1.0780 -2.4110
  522MOL0     H68850   5.647   8.632   8.972 -0.2751 -1.4524  2.6388
  522MOL0     H68851   5.706   8.485   8.709  0.5366  0.1195 -1.2128
  522MOL0     H68852   5.836   8.532   8.812  0.0884  3.3944  3.2801
  522MOL0     H68853   5.659   8.683   8.616 -3.1575 -0.0837  2.2429
  522MOL0     H68854   5.701   8.767   8.777  0.5707 -0.2394  0.6131
  522MOL0     H68855   5.861   8.831   8.604  1.1563 -0.7386  1.0735
  522MOL0     H68856   5.906   8.663   8.563  0.3371  0.6479 -0.1305
  522MOL0     H68857   5.901   8.845   8.905 -1.3648 -1.5645  1.0444
  522MOL0     H68858   6.113   8.897   9.070 -2.4415 -1.6264 -0.9390
  522MOL0     H68859   6.259   8.808   9.045 -0.6765  0.2337  1.1852
  522MOL0     H68860   6.192   8.728   9.253  0.8113  1.4756  0.2077
  522MOL0     H68861   6.188   8.596   9.134 -0.2029 -0.2394  0.5628
  522MOL0     H68862   5.946   8.569   9.136  2.3080 -0.7382 -0.0178
  522MOL0     H68863   5.982   8.584   9.299  0.1280 -0.5893 -0.5686
  522MOL0     H68864   5.873   8.816   9.122  0.8871 -2.4500 -1.9058
  522MOL0     H68865   5.937   8.838   9.284 -1.2337 -0.6654  2.6791
  522MOL0     H68866   5.832   8.915   9.446  0.7882 -1.0276 -0.0850
  522MOL0     H68867   5.684   9.018   9.584  1.3694  0.4036  0.3002
  522MOL0     H68868   5.309   9.243   9.700 -1.4446  2.2731 -3.3361
  522MOL0     H68869   5.137   9.349   9.844  2.0460 -1.3720  0.6916
  522MOL0     H68870   4.783   9.337   9.710 -1.1805 -0.6878  0.4912
  522MOL0     H68871   4.876   9.459   9.801 -0.7103  0.5361 -0.1596
  522MOL0     H68872   4.713   9.504   9.935  1.8750  0.4957 -0.5862
  522MOL0     H68873   4.654   9.341   9.955 -0.9168  2.0324  2.0576
  522MOL0     H68874   4.496   9.488   9.876  0.5994 -0.2321  0.9560
  522MOL0     H68875   4.534   9.385   9.734  2.0123 -0.0957 -1.0278
  522MOL0     H68876   4.617   9.680   9.793  0.9501  2.1292 -3.7300
  522MOL0     H68877   4.716   9.574   9.690 -0.3602  0.7485  0.0235
  522MOL0     H68878   4.526   9.560   9.522 -3.1577  1.7726 -1.3058
  522MOL0     H68879   4.555   9.737   9.562  0.5594 -0.5505 -1.7225
  522MOL0     H68880   4.338   9.567   9.687  0.8890 -1.7244 -2.4716
  522MOL0     H68881   4.324   9.669   9.538  1.8103 -0.0454 -0.9376
  522MOL0     H68882   4.398   9.770   9.818 -0.2849 -2.2999 -0.4274
  522MOL0     H68883   4.373   9.872   9.673 -0.0676  1.2854  0.9983
  522MOL0     H68884   4.183   9.881   9.820  0.3484  0.6042 -0.8070
  522MOL0     H68885   4.186   9.714   9.847 -0.9874 -0.3795 -0.7498
  522MOL0     H68886   4.857   9.039   9.759 -0.1433 -0.1750 -2.1940
  522MOL0     H68887   5.034   8.921   9.626 -0.8111 -0.7953  1.9972
  522MOL0     H68888   5.343   8.822   9.401 -0.9029  1.8301  1.7878
  522MOL0     H68889   5.508   8.706   9.248  0.2390 -0.1523  1.3155
  522MOL0     H68890   4.892   8.691   9.099  2.5227 -0.8275 -0.5825
  522MOL0     H68891   4.735   8.800   9.249  1.0498 -0.6221 -0.7055
  522MOL0     H68892   4.517   9.068   9.424 -1.6725 -0.9405  0.1511
  522MOL0     H68893   4.319   9.118   9.547 -0.1338 -1.4388 -1.6285
  522MOL0     H68894   4.255   9.245   9.723  1.5916 -2.5031 -1.1275
  522MOL0     H68895   4.160   9.200   9.863  0.9959 -2.1748  1.4113
  522MOL0     H68896   4.100   9.038   9.616 -0.3443  1.8137 -2.1137
  522MOL0     H68897   4.014   9.061   9.755  1.9240 -1.1087  0.6581
  522MOL0     H68898   3.927   9.191   9.547  0.0988  2.6313 -2.0876
  522MOL0     H68899   4.090   9.272   9.543  0.7086  2.8495  1.8398
  522MOL0     H68900   4.046   9.362   9.774  0.5262  0.5037 -0.2666
  522MOL0     H68901   3.924   9.429   9.660  1.5945  0.9416  1.4103
  522MOL0     H68902   3.709   9.178   9.926  0.7383  0.9766  1.5555
  522MOL0     H68903   4.466   8.901   9.884 -0.1585 -1.0159 -1.0587
  522MOL0     H68904   4.678   8.865   9.772  1.4590  0.4552 -0.9241
  523MOL0     O68905   6.348   7.580   7.366  0.3558 -0.1170 -0.2683
  523MOL0     C68906   6.442   7.647   7.408  0.4841 -0.2560  0.2377
  523MOL0     O68907   6.432   7.755   7.492  0.2649  1.0027  0.4294
  523MOL0     C68908   6.316   7.782   7.560 -0.5128 -0.1308 -1.3021
  523MOL0     C68909   6.255   7.694   7.652  0.8618 -0.4974  0.4232
  523MOL0     C68910   6.143   7.736   7.736 -0.9526 -0.2093 -0.3253
  523MOL0     C68911   6.092   7.877   7.723  0.3533  0.8826  1.1024
  523MOL0     O68912   5.976   7.919   7.772 -0.3965  0.0328  0.6348
  523MOL0     C68913   5.923   7.854   7.884  0.1400 -0.1094 -0.6046
  523MOL0     C68914   5.799   7.929   7.926 -0.1633  0.6426  0.0972
  523MOL0     C68915   5.673   7.844   7.888 -0.1885  0.9898 -0.2377
  523MOL0     C68916   5.534   7.912   7.917 -0.4848  0.1118 -0.2988
  523MOL0     C68917   5.423   7.830   7.851  0.0183 -1.8407  0.1723
  523MOL0     C68918   5.411   7.682   7.906  0.2876  0.0298 -0.9723
  523MOL0     C68919   5.376   7.652   8.048  0.8193 -0.2686 -0.0024
  523MOL0     C68920   5.276   7.530   8.054 -0.8477 -0.3377 -0.4489
  523MOL0     N68921   5.271   7.476   8.195  0.5080 -0.0296 -0.3497
  523MOL0     C68922   5.367   7.395   8.254  0.4402 -1.1333  0.0678
  523MOL0     C68923   5.320   7.380   8.380  0.6411 -0.5889  0.4965
  523MOL0     C68924   5.399   7.302   8.479  0.8769 -0.3514 -0.4482
  523MOL0     C68925   5.474   7.400   8.572 -0.4097 -0.5549 -0.7494
  523MOL0     C68926   5.573   7.328   8.662  0.8799 -0.0707 -0.0136
  523MOL0     C68927   5.508   7.240   8.779 -1.3975 -0.0603  0.2146
  523MOL0     O68928   5.606   7.195   8.872 -0.6583  0.1751 -0.3321
  523MOL0     C68929   5.695   7.106   8.818 -0.0213  1.2503 -0.1529
  523MOL0     C68930   5.672   7.027   8.700 -0.0586 -0.3432 -0.7530
  523MOL0     C68931   5.760   6.929   8.658 -0.7179  0.6018 -0.8832
  523MOL0     C68932   5.884   6.900   8.721  0.2733  0.1742 -0.0286
  523MOL0     C68933   5.986   6.817   8.665 -0.0655 -0.0160  0.0146
  523MOL0     O68934   6.119   6.854   8.679  0.2285  0.2598  0.2430
  523MOL0     C68935   6.214   6.779   8.613 -1.0862 -0.2368 -0.7731
  523MOL0     C68936   6.193   6.752   8.472 -0.4131  0.4078 -0.3507
  523MOL0     C68937   6.293   6.682   8.396  0.5221 -0.0600  0.1716
  523MOL0     C68938   6.407   6.634   8.459 -0.3652 -0.1323  1.5289
  523MOL0     O68939   6.488   6.567   8.371  0.4387  0.5387 -0.3640
  523MOL0     C68940   6.630   6.585   8.376  0.3767 -0.2859  0.4054
  523MOL0     C68941   6.708   6.468   8.438  1.1660  0.8253 -0.1493
  523MOL0     C68942   6.686   6.337   8.354  0.1463  0.3896  0.1343
  523MOL0     C68943   6.788   6.236   8.408 -0.4079 -0.6291  0.2975
  523MOL0     C68944   6.790   6.119   8.319  0.0169  0.5964 -0.5635
  523MOL0     C68945   6.848   6.001   8.396  0.7730  0.4545  0.2190
  523MOL0     C68946   6.856   5.875   8.314 -0.1905 -0.4726 -0.1770
  523MOL0     C68947   6.963   5.893   8.201  0.1565  0.1081 -0.5904
  523MOL0    Cl68948   6.941   5.757   8.088  0.0503  0.3438  0.0723
  523MOL0     C68949   6.434   6.673   8.591  0.7035 -0.9081  0.2492
  523MOL0     C68950   6.339   6.739   8.674 -0.3438  0.1306  0.1120
  523MOL0     O68951   5.945   6.722   8.596 -0.1348 -0.2286  0.9879
  523MOL0     C68952   5.907   6.973   8.844 -0.2654  0.2793  0.6863
  523MOL0     C68953   5.810   7.069   8.889  0.1641  0.3841  0.1571
  523MOL0     N68954   5.203   7.457   8.397 -0.1542  0.4369  0.7995
  523MOL0     N68955   5.170   7.507   8.283  0.3143  0.0165  0.1306
  523MOL0     C68956   6.161   7.957   7.629 -1.0035 -0.5003 -0.5119
  523MOL0     C68957   6.266   7.911   7.547 -0.2138  0.3415 -0.1037
  523MOL0     C68958   6.573   7.606   7.365 -0.0861  0.5921 -0.1159
  523MOL0     C68959   6.593   7.506   7.267 -0.3083  0.2424  0.6544
  523MOL0     C68960   6.716   7.450   7.249  0.0851  0.5390 -1.0813
  523MOL0     C68961   6.822   7.483   7.333  0.2381  1.0753  0.7310
  523MOL0     O68962   6.940   7.417   7.310 -0.4245 -0.4732  0.3869
  523MOL0     C68963   7.054   7.452   7.387  0.0567  0.8025  0.1638
  523MOL0     C68964   7.170   7.382   7.322  0.1237 -0.7494  0.2196
  523MOL0     C68965   7.176   7.227   7.340 -0.0492 -0.0614 -0.3856
  523MOL0     C68966   7.313   7.177   7.290 -0.0739 -0.0739  0.9856
  523MOL0     C68967   7.419   7.194   7.385  0.1932  0.9134 -0.1078
  523MOL0     C68968   7.493   7.200   7.477  0.4977 -0.7534 -0.7638
  523MOL0     C68969   6.799   7.586   7.426 -0.1673 -0.4857  0.6720
  523MOL0     C68970   6.675   7.642   7.445 -0.2677 -0.4247  0.3305
  523MOL0     H68971   6.305   7.598   7.652 -0.4110 -1.1870  1.4361
  523MOL0     H68972   6.108   7.658   7.804  1.5081 -2.8111 -1.8304
  523MOL0     H68973   5.986   7.848   7.973 -2.3601  2.1661  1.5104
  523MOL0     H68974   5.896   7.753   7.850 -3.7557  1.8933 -4.3662
  523MOL0     H68975   5.808   8.033   7.894  2.9062  0.3608 -0.2869
  523MOL0     H68976   5.806   7.919   8.035  2.4519 -4.4989 -0.2213
  523MOL0     H68977   5.687   7.751   7.945 -1.5917  1.4378  0.8758
  523MOL0     H68978   5.668   7.818   7.781 -1.4438 -1.1899  0.2887
  523MOL0     H68979   5.507   7.923   8.022  0.3801  1.8070 -0.2150
  523MOL0     H68980   5.534   8.013   7.875 -1.5993 -0.8390 -2.7602
  523MOL0     H68981   5.440   7.829   7.743 -0.7822 -0.1566  0.0015
  523MOL0     H68982   5.325   7.877   7.863  0.0330 -1.8370  0.2820
  523MOL0     H68983   5.501   7.622   7.890 -0.4371 -1.2757 -0.3191
  523MOL0     H68984   5.328   7.641   7.849 -1.9710 -0.3524  2.3055
  523MOL0     H68985   5.472   7.635   8.099  0.2400 -0.0315  1.1913
  523MOL0     H68986   5.327   7.738   8.095 -1.1939 -1.2980 -0.1141
  523MOL0     H68987   5.306   7.454   7.981 -1.4956  2.9617 -4.5767
  523MOL0     H68988   5.178   7.561   8.016 -0.1930  4.0343  0.8705
  523MOL0     H68989   5.447   7.350   8.196  1.3681  1.0947 -0.4915
  523MOL0     H68990   5.473   7.240   8.427  0.9104 -1.8293  1.2933
  523MOL0     H68991   5.342   7.231   8.539  1.5799 -1.9654 -1.6130
  523MOL0     H68992   5.409   7.464   8.633  2.5896  1.2411  0.7857
  523MOL0     H68993   5.524   7.478   8.514 -1.1236  2.5875  2.4935
  523MOL0     H68994   5.633   7.264   8.597  0.9677  0.8382 -0.8543
  523MOL0     H68995   5.644   7.396   8.711  3.7648 -1.4768 -1.9313
  523MOL0     H68996   5.449   7.158   8.737  1.3897 -3.0272  1.6618
  523MOL0     H68997   5.438   7.310   8.825 -1.6519 -0.7717  0.9399
  523MOL0     H68998   5.579   7.042   8.646  0.1804  2.8793 -0.4679
  523MOL0     H68999   5.739   6.888   8.559 -0.5694 -2.0716  0.1047
  523MOL0     H69000   6.102   6.789   8.423  0.7058  3.1470 -0.5498
  523MOL0     H69001   6.268   6.644   8.297  0.6474 -0.5477  0.3219
  523MOL0     H69002   6.662   6.671   8.436 -0.4901  0.9020 -0.7827
  523MOL0     H69003   6.668   6.604   8.276  0.0094 -3.8567 -0.5583
  523MOL0     H69004   6.662   6.437   8.533  1.4309 -1.2116 -0.6352
  523MOL0     H69005   6.812   6.501   8.446  0.5592  3.1884 -1.1704
  523MOL0     H69006   6.700   6.344   8.245 -1.3781  0.5917 -0.0755
  523MOL0     H69007   6.582   6.308   8.369  0.2239  0.3224  0.5353
  523MOL0     H69008   6.892   6.271   8.417 -0.3904 -0.6730  0.2685
  523MOL0     H69009   6.758   6.205   8.509 -1.9187  4.6644  1.8230
  523MOL0     H69010   6.868   6.151   8.249  1.0815  1.7336  1.0748
  523MOL0     H69011   6.690   6.100   8.277 -2.4337 -1.4939  5.1481
  523MOL0     H69012   6.783   5.975   8.480  0.8755  1.9333  0.7827
  523MOL0     H69013   6.943   6.020   8.446  0.4792 -1.3458  1.5593
  523MOL0     H69014   6.876   5.789   8.379 -2.9475  0.3013  1.8866
  523MOL0     H69015   6.758   5.862   8.267 -0.5986 -0.6077  0.7000
  523MOL0     H69016   7.064   5.875   8.239  0.6330 -1.0791 -2.3008
  523MOL0     H69017   6.952   5.986   8.145 -0.8023  0.6178  0.4125
  523MOL0     H69018   6.532   6.651   8.632  0.2058  0.9521  2.6694
  523MOL0     H69019   6.364   6.761   8.778  1.9500  1.4233 -0.6563
  523MOL0     H69020   6.002   6.956   8.894  0.3870  2.5727  0.3360
  523MOL0     H69021   5.820   7.112   8.988 -0.2301  2.2395 -0.5795
  523MOL0     H69022   6.115   8.054   7.613 -0.8308 -0.5411 -1.2967
  523MOL0     H69023   6.306   7.967   7.463 -1.9665 -1.2092 -2.0746
  523MOL0     H69024   6.517   7.471   7.198 -0.3986 -2.2857  1.8904
  523MOL0     H69025   6.729   7.362   7.186 -0.6230 -3.0996  3.2940
  523MOL0     H69026   7.032   7.411   7.486 -2.5897  2.2811  0.2912
  523MOL0     H69027   7.067   7.560   7.389  0.0425  0.8229 -0.5091
  523MOL0     H69028   7.178   7.419   7.219  1.2504  2.1564  1.2382
  523MOL0     H69029   7.257   7.426   7.372 -0.3692  0.4077  0.1068
  523MOL0     H69030   7.094   7.181   7.284 -1.2888 -0.3192  1.5395
  523MOL0     H69031   7.173   7.198   7.445 -0.7298  0.7992 -0.1569
  523MOL0     H69032   7.313   7.070   7.267  1.3921  0.5622 -2.6302
  523MOL0     H69033   7.333   7.217   7.190 -0.2543 -0.1398  0.9231
  523MOL0     H69034   7.551   7.192   7.566 -1.6503  2.3434  1.1283
  523MOL0     H69035   6.877   7.603   7.500  0.6751 -1.0350 -0.0713
  523MOL0     H69036   6.665   7.711   7.529 -2.8926 -0.0856 -0.1786
  524MOL0     O69037   6.268   5.626   4.162  0.1216  0.7342 -1.0493
  524MOL0     C69038   6.328   5.670   4.260 -0.2528  0.1655  0.5109
  524MOL0     O69039   6.281   5.692   4.390 -0.4594 -0.2539  0.1303
  524MOL0     C69040   6.159   5.647   4.432 -0.8308 -0.5348 -0.7798
  524MOL0     C69041   6.051   5.603   4.349 -0.0119 -0.5724  0.1449
  524MOL0     C69042   5.928   5.566   4.410  0.6947  0.6043 -0.3565
  524MOL0     C69043   5.914   5.571   4.554 -0.0876  0.0139 -0.6790
  524MOL0     O69044   5.796   5.541   4.622 -0.0533  0.8655 -0.1513
  524MOL0     C69045   5.703   5.452   4.567 -0.0729  0.4507  0.1490
  524MOL0     C69046   5.762   5.314   4.554 -0.1233  0.7802 -0.8912
  524MOL0     C69047   5.654   5.196   4.541  0.2283 -0.4657 -0.9979
  524MOL0     C69048   5.725   5.078   4.487  0.5360  0.8875  0.0873
  524MOL0     C69049   5.626   4.981   4.426 -0.2423  0.0786  0.3209
  524MOL0     C69050   5.515   4.920   4.523 -0.0653 -0.9272 -0.3798
  524MOL0     C69051   5.416   4.823   4.460  0.6172 -0.6133  0.4456
  524MOL0     C69052   5.305   4.793   4.554 -0.7892  0.1892  0.3947
  524MOL0     N69053   5.199   4.717   4.489 -0.4303  0.1517 -0.2178
  524MOL0     C69054   5.182   4.583   4.490  0.3009 -0.1151  0.2554
  524MOL0     C69055   5.062   4.564   4.419 -1.1817  0.0124 -0.2362
  524MOL0     C69056   5.006   4.427   4.384 -0.6895 -0.0040 -0.4596
  524MOL0     C69057   4.854   4.426   4.358  0.4887 -0.0562  0.7382
  524MOL0     C69058   4.802   4.290   4.379 -0.0296  0.0312  0.7457
  524MOL0     C69059   4.662   4.278   4.433 -1.5449  0.1921  0.0395
  524MOL0     O69060   4.566   4.333   4.341  1.9681 -0.3265 -0.4568
  524MOL0     C69061   4.431   4.315   4.371 -0.4115  1.2008 -0.4226
  524MOL0     C69062   4.347   4.345   4.261  0.2395  0.0246 -0.3168
  524MOL0     C69063   4.216   4.319   4.274  0.0836 -0.2151  0.3126
  524MOL0     C69064   4.163   4.251   4.391 -0.0706  0.6739 -0.1406
  524MOL0     C69065   4.020   4.214   4.398 -0.2430  1.0972 -0.4175
  524MOL0     O69066   3.962   4.214   4.520  0.3182 -0.5194 -0.0765
  524MOL0     C69067   3.828   4.232   4.528 -0.2939 -0.4151  0.0668
  524MOL0     C69068   3.746   4.124   4.540 -0.1848  0.4214 -0.3457
  524MOL0     C69069   3.605   4.128   4.543 -0.4528 -0.0946  0.0732
  524MOL0     C69070   3.553   4.260   4.537  0.0583  0.3041 -0.0055
  524MOL0     O69071   3.415   4.264   4.542  0.1597 -0.1939  0.3965
  524MOL0     C69072   3.350   4.354   4.449  0.1195 -0.1887 -0.5648
  524MOL0     C69073   3.240   4.433   4.525  0.4724 -0.5060  0.2409
  524MOL0     C69074   3.301   4.540   4.612  0.0902 -0.3751  0.4340
  524MOL0     C69075   3.338   4.494   4.748  0.0556  0.4552 -0.3431
  524MOL0     C69076   3.405   4.606   4.828  0.6104 -0.0958 -0.1727
  524MOL0     C69077   3.468   4.553   4.963  0.2368  0.1181 -0.4275
  524MOL0     C69078   3.505   4.662   5.060 -1.0489  1.0403 -0.0631
  524MOL0     C69079   3.527   4.615   5.202 -0.5966  0.5114 -0.4226
  524MOL0    Cl69080   3.603   4.750   5.289  0.2011  0.0156  0.0302
  524MOL0     C69081   3.635   4.376   4.546 -0.8651 -0.4277 -0.3464
  524MOL0     C69082   3.770   4.361   4.543 -0.0224  0.8860 -0.9666
  524MOL0     O69083   3.971   4.205   4.287 -0.4774 -0.3282  0.2935
  524MOL0     C69084   4.247   4.230   4.493  0.5000 -0.4859  0.6830
  524MOL0     C69085   4.377   4.259   4.486 -0.5807  0.3005 -0.2850
  524MOL0     N69086   5.028   4.682   4.364 -0.1142  0.0005  0.1453
  524MOL0     N69087   5.096   4.777   4.414 -0.3379  0.4688 -0.2886
  524MOL0     C69088   6.023   5.599   4.634 -0.4112 -0.6525 -0.8862
  524MOL0     C69089   6.141   5.632   4.572  0.0227 -0.1850 -1.1635
  524MOL0     C69090   6.462   5.714   4.233 -0.7496 -0.0753 -0.4139
  524MOL0     C69091   6.502   5.756   4.105  0.9906 -0.5064  0.4731
  524MOL0     C69092   6.626   5.803   4.075 -0.3843 -0.6204  0.0905
  524MOL0     C69093   6.719   5.808   4.169  0.3633  0.0114 -0.2968
  524MOL0     O69094   6.842   5.858   4.132 -0.0992 -0.3672  0.5634
  524MOL0     C69095   6.906   5.956   4.220 -0.5884 -1.4666 -0.3952
  524MOL0     C69096   7.024   6.036   4.158  0.4098  0.3063 -0.0746
  524MOL0     C69097   6.983   6.119   4.044  0.6465 -0.7455 -0.0861
  524MOL0     C69098   7.102   6.168   3.962 -1.2099 -0.4351 -0.4191
  524MOL0     C69099   7.227   6.220   4.029 -0.0225  0.6852  1.6317
  524MOL0     C69100   7.320   6.267   4.081  0.3644  0.6038 -0.6384
  524MOL0     C69101   6.691   5.770   4.304 -0.5874 -0.3713 -0.3791
  524MOL0     C69102   6.565   5.721   4.330  0.2115 -0.8099 -0.3433
  524MOL0     H69103   6.058   5.595   4.241  1.1866 -3.0106  0.3366
  524MOL0     H69104   5.838   5.543   4.355  2.0859 -0.5359 -2.3063
  524MOL0     H69105   5.658   5.480   4.471 -2.5104 -2.0549  0.4343
  524MOL0     H69106   5.613   5.439   4.629  0.1340 -0.0105  0.3586
  524MOL0     H69107   5.825   5.285   4.638  1.4741 -2.3557 -2.9338
  524MOL0     H69108   5.835   5.316   4.472  1.4925 -2.3236  0.2795
  524MOL0     H69109   5.572   5.227   4.475 -0.2724 -1.7298 -0.9883
  524MOL0     H69110   5.610   5.181   4.640 -1.5652  1.7997 -1.3597
  524MOL0     H69111   5.791   5.106   4.404  0.2503  2.6381  0.4147
  524MOL0     H69112   5.778   5.041   4.575 -0.2250  3.5882  1.7979
  524MOL0     H69113   5.684   4.894   4.392  0.1690 -0.3414  1.9834
  524MOL0     H69114   5.578   5.031   4.342 -0.4299  1.7051  1.3465
  524MOL0     H69115   5.457   5.005   4.561  1.3216 -0.0461 -0.1453
  524MOL0     H69116   5.574   4.870   4.600  0.9283  0.5997 -0.0970
  524MOL0     H69117   5.384   4.864   4.364  2.9270 -3.3270 -1.6508
  524MOL0     H69118   5.466   4.734   4.422  1.1371  0.5271 -1.6948
  524MOL0     H69119   5.265   4.883   4.602  0.8601  1.5105 -0.5775
  524MOL0     H69120   5.346   4.740   4.640 -0.5581  0.2271  0.3094
  524MOL0     H69121   5.243   4.514   4.547 -1.6953 -1.1191  1.2594
  524MOL0     H69122   5.029   4.361   4.468  0.5451  1.6218  0.5568
  524MOL0     H69123   5.057   4.378   4.300  1.6897 -4.6419  3.2460
  524MOL0     H69124   4.840   4.457   4.254 -0.1704 -1.6600  0.3294
  524MOL0     H69125   4.797   4.497   4.419  0.8908  0.2381  0.7812
  524MOL0     H69126   4.815   4.238   4.283 -1.0216 -0.9672  1.1349
  524MOL0     H69127   4.864   4.236   4.451 -0.5382  1.8975  2.6972
  524MOL0     H69128   4.668   4.346   4.518  0.1687  2.1235 -1.5317
  524MOL0     H69129   4.622   4.178   4.456 -0.2004 -0.5110 -0.5487
  524MOL0     H69130   4.392   4.391   4.173 -0.3223  0.2424 -0.4948
  524MOL0     H69131   4.145   4.355   4.200 -0.0878 -3.3480 -1.2132
  524MOL0     H69132   3.794   4.026   4.541  1.3974  1.1657  0.0180
  524MOL0     H69133   3.547   4.037   4.554  0.3877 -0.4009  2.7268
  524MOL0     H69134   3.291   4.302   4.372 -0.0624 -1.2744  0.2695
  524MOL0     H69135   3.418   4.417   4.392  2.8520 -1.6949  0.8559
  524MOL0     H69136   3.174   4.363   4.578  1.6713 -1.6042  0.3431
  524MOL0     H69137   3.189   4.482   4.442  2.6918 -0.8386 -1.4143
  524MOL0     H69138   3.233   4.621   4.640  1.0885 -0.3550  3.0327
  524MOL0     H69139   3.388   4.573   4.554 -0.9777  1.9208  0.0591
  524MOL0     H69140   3.251   4.444   4.793 -0.0777  1.8483  0.9864
  524MOL0     H69141   3.403   4.407   4.733  2.5432  2.0824  0.3460
  524MOL0     H69142   3.329   4.684   4.837 -0.0115 -0.8182  1.1921
  524MOL0     H69143   3.483   4.654   4.770 -1.2137  2.2833 -0.8023
  524MOL0     H69144   3.551   4.486   4.942  0.7684 -0.3020  2.5271
  524MOL0     H69145   3.393   4.490   5.012 -1.8561  2.5804 -0.2544
  524MOL0     H69146   3.598   4.706   5.024 -1.4867  1.8284 -0.2545
  524MOL0     H69147   3.427   4.738   5.057  0.3258  2.5912  1.4768
  524MOL0     H69148   3.593   4.528   5.208 -1.2248  0.0837  0.7543
  524MOL0     H69149   3.431   4.581   5.242 -0.0528 -0.8787 -0.2491
  524MOL0     H69150   3.588   4.474   4.551  0.9600  0.4678  0.2776
  524MOL0     H69151   3.835   4.448   4.551  0.9690  0.4516 -3.6110
  524MOL0     H69152   4.202   4.191   4.584 -0.3484  0.5199  0.7250
  524MOL0     H69153   4.440   4.255   4.574 -0.2407  0.2336 -0.5318
  524MOL0     H69154   5.998   5.587   4.739  0.7116 -0.5088 -0.5957
  524MOL0     H69155   6.227   5.648   4.636 -1.7841 -1.3326  1.7483
  524MOL0     H69156   6.438   5.739   4.019 -1.4659 -0.1972  2.1480
  524MOL0     H69157   6.660   5.821   3.973 -1.0038 -1.9166 -0.3728
  524MOL0     H69158   6.950   5.900   4.302  1.4604 -0.0871 -0.4783
  524MOL0     H69159   6.828   6.020   4.263 -2.2855 -2.4421 -1.8382
  524MOL0     H69160   7.060   6.102   4.237 -2.4952 -0.4175  2.0211
  524MOL0     H69161   7.103   5.964   4.137 -0.3859  0.0490 -2.4805
  524MOL0     H69162   6.944   6.213   4.084  0.7342  0.0227 -1.7458
  524MOL0     H69163   6.909   6.078   3.975  0.4743  2.0970 -1.7067
  524MOL0     H69164   7.132   6.084   3.898 -0.9176  0.1554 -1.0771
  524MOL0     H69165   7.065   6.244   3.893  1.4099  1.3558  0.0049
  524MOL0     H69166   7.401   6.325   4.121 -0.3518  1.4331 -0.3456
  524MOL0     H69167   6.759   5.781   4.388 -3.4630  1.0746  1.9198
  524MOL0     H69168   6.554   5.698   4.436  0.3245  2.3855  0.4576
  525MOL0     O69169   4.764   4.897   8.269 -0.2161 -0.2197 -0.3263
  525MOL0     C69170   4.861   4.847   8.212 -0.5114  1.0752 -0.3897
  525MOL0     O69171   4.945   4.763   8.274 -0.3018  0.2618  0.1896
  525MOL0     C69172   4.916   4.707   8.402  0.1177 -0.9569  0.2134
  525MOL0     C69173   4.972   4.750   8.520  0.2187  0.5982  0.5396
  525MOL0     C69174   4.931   4.687   8.641 -0.7389 -0.2057 -0.0540
  525MOL0     C69175   4.842   4.579   8.654  0.3813  0.3286  0.7236
  525MOL0     O69176   4.806   4.547   8.784  0.2115 -0.4046 -0.2912
  525MOL0     C69177   4.681   4.486   8.816  0.0593 -0.1482  0.3790
  525MOL0     C69178   4.642   4.523   8.964 -0.5982  0.2516  0.4804
  525MOL0     C69179   4.636   4.672   8.981  0.0259 -0.6395  0.6148
  525MOL0     C69180   4.612   4.699   9.126  0.0382 -0.9600 -0.2668
  525MOL0     C69181   4.562   4.844   9.131 -0.6500 -0.3042 -0.1493
  525MOL0     C69182   4.533   4.887   9.271  0.7760 -0.4013  0.8312
  525MOL0     C69183   4.480   5.030   9.268 -0.1585  1.0731  0.9489
  525MOL0     C69184   4.524   5.113   9.388 -0.0491 -0.2142 -0.4939
  525MOL0     N69185   4.666   5.145   9.394 -0.0703  0.1455 -0.0028
  525MOL0     C69186   4.771   5.074   9.455 -0.5961 -0.7717  1.2972
  525MOL0     C69187   4.888   5.140   9.444  0.0143 -0.3937  0.3016
  525MOL0     C69188   5.035   5.099   9.482  0.1514 -0.2850  0.7153
  525MOL0     C69189   5.086   5.158   9.610 -0.8784  0.4119 -0.2933
  525MOL0     C69190   5.067   5.316   9.620  0.3023  0.4563 -1.2046
  525MOL0     C69191   5.073   5.345   9.771 -0.6050  0.0089  0.4373
  525MOL0     O69192   5.185   5.283   9.829 -0.3783  0.0346 -0.1793
  525MOL0     C69193   5.307   5.339   9.830 -0.0688  0.0251 -0.3269
  525MOL0     C69194   5.342   5.472   9.802  1.5099 -0.5183  0.7790
  525MOL0     C69195   5.467   5.520   9.813 -0.6849 -1.0473  0.4276
  525MOL0     C69196   5.573   5.433   9.853  0.4293 -0.2729  0.2323
  525MOL0     C69197   5.716   5.482   9.847  0.0218  0.1527 -0.9760
  525MOL0     O69198   5.816   5.396   9.895 -0.1130 -0.6789 -0.3512
  525MOL0     C69199   5.943   5.441   9.909  0.5398 -0.4413  0.9753
  525MOL0     C69200   5.992   5.569   9.950 -0.3251 -0.3801 -1.3683
  525MOL0     C69201   6.127   5.589   9.980 -0.3451  0.2614 -0.3645
  525MOL0     C69202   6.222   5.490   9.970  0.0288  0.8918 -0.6035
  525MOL0     O69203   6.351   5.529  10.008 -0.0167 -0.0089 -0.6789
  525MOL0     C69204   6.459   5.433   9.997 -0.5796  0.4463 -0.3064
  525MOL0     C69205   6.585   5.502  10.041  0.2021 -0.3651 -0.4053
  525MOL0     C69206   6.710   5.465   9.956  0.1122 -0.3375  0.0177
  525MOL0     C69207   6.833   5.534  10.018  0.3952 -0.4669 -0.1247
  525MOL0     C69208   6.966   5.494   9.950  0.3925  0.4226  0.2356
  525MOL0     C69209   7.080   5.598   9.989 -0.3962  0.5877 -0.2556
  525MOL0     C69210   7.223   5.545   9.944  0.6507  0.3282 -0.5643
  525MOL0     C69211   7.272   5.441  10.063  0.4092 -0.9410  0.4625
  525MOL0    Cl69212   7.423   5.382  10.012 -0.0980 -0.3287 -0.2709
  525MOL0     C69213   6.182   5.366   9.909  0.1134  0.4154 -0.3350
  525MOL0     C69214   6.045   5.342   9.883  0.6081 -0.2249 -0.5645
  525MOL0     O69215   5.728   5.600   9.820 -0.0540 -0.2427  0.0158
  525MOL0     C69216   5.535   5.307   9.905 -0.4773 -0.3411 -0.0478
  525MOL0     C69217   5.406   5.258   9.884 -0.0934 -0.2142 -0.5857
  525MOL0     N69218   4.856   5.245   9.356 -0.6614  0.3155  0.2523
  525MOL0     N69219   4.726   5.246   9.316 -0.3582  0.5620 -1.0075
  525MOL0     C69220   4.794   4.536   8.534  0.3942  0.2096  0.0521
  525MOL0     C69221   4.834   4.598   8.412  0.2882 -0.0144  0.0082
  525MOL0     C69222   4.861   4.854   8.070 -0.9407 -0.4531 -0.3149
  525MOL0     C69223   4.954   4.775   7.993  0.0672  0.5116  0.5440
  525MOL0     C69224   4.964   4.789   7.856 -0.8143 -0.4433  0.4216
  525MOL0     C69225   4.895   4.888   7.787  0.2132 -0.0822 -0.0831
  525MOL0     O69226   4.911   4.891   7.652 -0.3619 -0.3608  0.4034
  525MOL0     C69227   4.836   4.980   7.571  0.5181 -0.7137  0.9579
  525MOL0     C69228   4.874   4.978   7.424 -0.0545 -0.0725 -0.2151
  525MOL0     C69229   4.778   4.932   7.316 -0.0801  0.4873  0.3795
  525MOL0     C69230   4.670   5.034   7.278 -0.1631  0.4840 -0.1124
  525MOL0     C69231   4.727   5.133   7.196  0.1256 -0.0811  1.2161
  525MOL0     C69232   4.779   5.207   7.116  0.0387 -0.2090  1.0117
  525MOL0     C69233   4.798   4.958   7.861 -0.9843  0.0935 -1.1853
  525MOL0     C69234   4.780   4.940   7.999  0.0781  0.7835  0.1650
  525MOL0     H69235   5.042   4.832   8.517 -1.4079  2.0444 -2.6667
  525MOL0     H69236   4.977   4.729   8.730 -0.2499  2.4966 -1.4821
  525MOL0     H69237   4.714   4.382   8.811  1.3331  0.2468  0.1849
  525MOL0     H69238   4.608   4.503   8.736  0.2184 -0.8469  0.0729
  525MOL0     H69239   4.722   4.489   9.030  0.8972  5.6350  1.8886
  525MOL0     H69240   4.548   4.473   8.990 -1.1601  0.6537 -0.7108
  525MOL0     H69241   4.558   4.708   8.913 -0.0828  1.9788  1.9826
  525MOL0     H69242   4.726   4.718   8.938 -0.8017 -1.5395 -2.3078
  525MOL0     H69243   4.540   4.628   9.169 -0.0176  0.1239  1.5016
  525MOL0     H69244   4.711   4.689   9.171  0.9935  0.7827 -1.8381
  525MOL0     H69245   4.474   4.856   9.067 -1.0090  1.0892  0.5677
  525MOL0     H69246   4.649   4.899   9.094  0.6604 -1.3301  1.2749
  525MOL0     H69247   4.615   4.873   9.342  0.1974  1.1962  1.8686
  525MOL0     H69248   4.456   4.825   9.318  1.5162  0.1252  2.8435
  525MOL0     H69249   4.512   5.078   9.175 -0.7883  0.2202  0.2760
  525MOL0     H69250   4.371   5.027   9.270 -0.1469  1.2035  1.8898
  525MOL0     H69251   4.498   5.069   9.484  1.7047 -0.1169  0.0588
  525MOL0     H69252   4.466   5.206   9.389  0.4539  0.1862  3.0161
  525MOL0     H69253   4.757   4.977   9.502 -0.8870 -0.8441  1.0649
  525MOL0     H69254   5.102   5.135   9.402 -1.4217  1.2029  0.0110
  525MOL0     H69255   5.036   4.990   9.492 -0.3553 -0.3129  0.4859
  525MOL0     H69256   5.192   5.132   9.611 -0.6870  0.8836 -2.6405
  525MOL0     H69257   5.032   5.120   9.697  1.6345 -2.4923  0.1298
  525MOL0     H69258   5.154   5.361   9.571 -0.6460  3.9862  0.1026
  525MOL0     H69259   4.982   5.359   9.566  0.0115  0.3647 -0.8226
  525MOL0     H69260   4.985   5.298   9.816  1.2178 -4.1168  0.1365
  525MOL0     H69261   5.077   5.452   9.794 -0.0141  0.3410 -1.0953
  525MOL0     H69262   5.263   5.539   9.770  0.1037 -1.9261  1.1822
  525MOL0     H69263   5.476   5.624   9.781 -1.0367 -0.8962  0.8111
  525MOL0     H69264   5.924   5.646   9.986  0.2086 -1.7809  3.3998
  525MOL0     H69265   6.154   5.688  10.016 -3.0422  1.4074 -1.2439
  525MOL0     H69266   6.475   5.396   9.895 -0.6568 -5.0072  1.3479
  525MOL0     H69267   6.446   5.350  10.067  2.1274  0.4013  0.2438
  525MOL0     H69268   6.609   5.492  10.147 -1.9953  3.4278  0.6237
  525MOL0     H69269   6.571   5.610  10.033 -0.4668 -0.5760 -3.2263
  525MOL0     H69270   6.687   5.500   9.854 -2.5096 -1.8897  0.0074
  525MOL0     H69271   6.721   5.357   9.945 -1.2131 -0.4990  0.0694
  525MOL0     H69272   6.827   5.643  10.020  0.5660 -0.4321 -1.0517
  525MOL0     H69273   6.837   5.504  10.124 -1.6338  1.4653  0.5920
  525MOL0     H69274   6.940   5.489   9.844 -2.4916 -0.4464  0.9195
  525MOL0     H69275   6.999   5.392   9.971 -2.2766 -0.9681 -1.7141
  525MOL0     H69276   7.086   5.600  10.098 -0.6791 -0.9637 -0.1903
  525MOL0     H69277   7.055   5.697   9.951  2.7394  1.4736 -0.2644
  525MOL0     H69278   7.206   5.497   9.847 -2.8553 -1.1937  0.6436
  525MOL0     H69279   7.290   5.631   9.932 -1.2573  2.0292  0.3160
  525MOL0     H69280   7.206   5.354  10.071  0.8271 -1.5605 -2.0605
  525MOL0     H69281   7.276   5.495  10.158 -2.2426 -1.0702  0.7294
  525MOL0     H69282   6.252   5.283   9.904  0.3592  0.5544  0.5475
  525MOL0     H69283   6.013   5.242   9.855  0.3611 -1.1905  2.7686
  525MOL0     H69284   5.611   5.247   9.954 -0.7407  0.0673  0.8954
  525MOL0     H69285   5.383   5.158   9.919  2.2322 -0.8385 -0.6633
  525MOL0     H69286   4.729   4.449   8.532  0.5752  0.0693 -2.0050
  525MOL0     H69287   4.789   4.549   8.327 -0.6237  1.0102 -0.1267
  525MOL0     H69288   5.011   4.694   8.037 -0.0185  0.0808 -0.1267
  525MOL0     H69289   5.031   4.723   7.802 -2.0952 -2.4202  1.1407
  525MOL0     H69290   4.817   5.081   7.607  0.0790 -0.4626  0.0566
  525MOL0     H69291   4.734   4.939   7.575 -0.2333  0.4531 -2.5320
  525MOL0     H69292   4.899   5.083   7.403 -1.2137  0.2937  0.1492
  525MOL0     H69293   4.968   4.923   7.415  1.0225  1.9115 -2.1943
  525MOL0     H69294   4.731   4.842   7.358 -0.3820 -0.2757 -1.4730
  525MOL0     H69295   4.829   4.899   7.225  2.5264  0.9424  1.6016
  525MOL0     H69296   4.599   4.982   7.214  1.4667 -0.9759 -0.8178
  525MOL0     H69297   4.616   5.080   7.361 -2.3943 -3.0562  0.5688
  525MOL0     H69298   4.820   5.289   7.061 -1.7329  1.0769  1.5191
  525MOL0     H69299   4.720   5.007   7.803  1.3245  5.4132 -0.3939
  525MOL0     H69300   4.698   4.991   8.049 -1.6650 -2.7184  1.2387
  526MOL0     O69301   5.474   1.985   4.084  0.3051 -0.1553 -0.1828
  526MOL0     C69302   5.460   2.107   4.071 -0.5191 -0.9889  0.1958
  526MOL0     O69303   5.343   2.161   4.041  0.6027  0.6905  0.5568
  526MOL0     C69304   5.234   2.073   4.027 -0.4443 -0.1234  0.2912
  526MOL0     C69305   5.225   1.958   3.942  1.0526 -0.3074  0.5334
  526MOL0     C69306   5.121   1.866   3.950  0.2264 -0.2723  0.4063
  526MOL0     C69307   5.001   1.911   4.019  0.4451 -0.2533 -0.3398
  526MOL0     O69308   4.880   1.841   4.018 -0.1609  0.2648  0.3060
  526MOL0     C69309   4.908   1.692   4.029 -0.0271 -0.3389  0.0791
  526MOL0     C69310   4.797   1.627   4.100  0.0369  0.5254 -1.0042
  526MOL0     C69311   4.796   1.672   4.252  0.0694 -0.9362 -0.2331
  526MOL0     C69312   4.665   1.644   4.321 -0.8110  1.0829  0.0319
  526MOL0     C69313   4.683   1.677   4.470 -0.5783  0.1668  0.4056
  526MOL0     C69314   4.547   1.651   4.537 -0.0854 -0.3247 -0.5485
  526MOL0     C69315   4.554   1.705   4.678  0.3335 -0.4492 -0.0998
  526MOL0     C69316   4.434   1.666   4.761 -0.3892 -0.1592 -0.2433
  526MOL0     N69317   4.297   1.697   4.714  0.4241  0.3092  0.9593
  526MOL0     C69318   4.182   1.652   4.777  0.3667 -0.2876 -0.6561
  526MOL0     C69319   4.082   1.698   4.703  0.8663  0.0946  0.7603
  526MOL0     C69320   3.938   1.660   4.722  0.7909 -0.1689  0.0847
  526MOL0     C69321   3.908   1.568   4.607 -0.3162  0.0099 -0.1914
  526MOL0     C69322   3.756   1.573   4.587 -0.1795 -0.0959 -0.0521
  526MOL0     C69323   3.715   1.705   4.527 -0.1551 -0.6910  0.0132
  526MOL0     O69324   3.585   1.702   4.462  0.2323  1.3253  0.3227
  526MOL0     C69325   3.471   1.650   4.523  0.0009  0.3282  0.0115
  526MOL0     C69326   3.376   1.610   4.436  0.4972  1.1383  0.3178
  526MOL0     C69327   3.244   1.583   4.477  0.4233  0.8222  0.1982
  526MOL0     C69328   3.216   1.584   4.613 -0.0442  0.8754 -0.0248
  526MOL0     C69329   3.090   1.523   4.664  0.5208  0.0592  0.3768
  526MOL0     O69330   3.005   1.469   4.572 -0.2442  0.5072  0.0160
  526MOL0     C69331   2.883   1.430   4.603 -1.0291 -0.0034  1.0914
  526MOL0     C69332   2.835   1.321   4.529 -0.0829  0.8921 -0.0733
  526MOL0     C69333   2.702   1.290   4.535  0.4390 -0.9840  0.8400
  526MOL0     C69334   2.607   1.371   4.604 -0.7394  0.3224  0.4699
  526MOL0     O69335   2.478   1.337   4.581  0.8395  0.1583  0.3241
  526MOL0     C69336   2.372   1.400   4.659  0.1922  0.0556 -0.2241
  526MOL0     C69337   2.243   1.321   4.645  0.2214 -0.1980 -0.0014
  526MOL0     C69338   2.123   1.368   4.731 -0.5557 -0.4756  0.4350
  526MOL0     C69339   1.992   1.306   4.701  0.1926  0.7916  0.1043
  526MOL0     C69340   1.880   1.396   4.768 -0.5010 -0.0171  0.7373
  526MOL0     C69341   1.750   1.338   4.719  0.0406  0.7672  0.2398
  526MOL0     C69342   1.622   1.384   4.786 -0.5792 -0.6054 -0.4765
  526MOL0     C69343   1.504   1.286   4.771  0.1011  0.6431  0.0442
  526MOL0    Cl69344   1.456   1.288   4.597  0.1010 -0.1941 -0.0719
  526MOL0     C69345   2.644   1.485   4.675  0.5232 -0.2670  0.1327
  526MOL0     C69346   2.786   1.507   4.672  0.5640 -0.3207 -0.7494
  526MOL0     O69347   3.071   1.527   4.785 -0.2293  0.1559  0.7045
  526MOL0     C69348   3.308   1.625   4.705 -0.3927 -0.2836  0.8204
  526MOL0     C69349   3.433   1.661   4.659  0.5427  0.1885 -0.0062
  526MOL0     N69350   4.131   1.785   4.607 -0.2441  0.0576  0.4450
  526MOL0     N69351   4.262   1.786   4.616  0.1212  0.4189 -0.0599
  526MOL0     C69352   5.001   2.021   4.110  0.7972 -0.0130  0.6647
  526MOL0     C69353   5.125   2.094   4.114  0.4506  0.1363  0.4479
  526MOL0     C69354   5.577   2.204   4.072 -0.2750  0.0719  0.0982
  526MOL0     C69355   5.704   2.152   4.096 -0.0993 -0.0229  0.2738
  526MOL0     C69356   5.820   2.230   4.093 -0.1514 -0.2670  0.4877
  526MOL0     C69357   5.799   2.363   4.067  0.4698  0.0738  0.2007
  526MOL0     O69358   5.912   2.445   4.057 -0.0267 -0.1752 -0.9527
  526MOL0     C69359   5.981   2.468   4.185  1.0630  0.5021  0.2218
  526MOL0     C69360   6.123   2.420   4.171 -0.1465  0.3120 -0.0525
  526MOL0     C69361   6.214   2.507   4.083 -1.1027  0.1736  0.3841
  526MOL0     C69362   6.211   2.660   4.094 -0.0622 -0.5103 -0.2522
  526MOL0     C69363   6.233   2.703   4.228  0.1257  0.7718  0.1566
  526MOL0     C69364   6.259   2.719   4.344  0.1625 -0.3849  0.4771
  526MOL0     C69365   5.670   2.417   4.041 -0.0736 -0.3120  1.1744
  526MOL0     C69366   5.564   2.339   4.042 -0.6661 -0.6763 -0.2508
  526MOL0     H69367   5.311   1.935   3.880 -0.3866 -1.8939 -0.9688
  526MOL0     H69368   5.112   1.784   3.880 -1.6359 -0.1548  0.4447
  526MOL0     H69369   5.006   1.684   4.077  1.6351  0.0026 -3.0278
  526MOL0     H69370   4.905   1.652   3.928 -0.0692  3.3347 -1.5342
  526MOL0     H69371   4.811   1.519   4.093  1.8675  0.7590 -1.3170
  526MOL0     H69372   4.694   1.647   4.068 -1.4525  2.6845  4.0185
  526MOL0     H69373   4.814   1.780   4.247 -1.2689 -0.7416 -3.3546
  526MOL0     H69374   4.881   1.631   4.308  2.9839  2.9536 -1.3253
  526MOL0     H69375   4.588   1.705   4.275 -2.1149  0.9826  1.9419
  526MOL0     H69376   4.649   1.537   4.306  2.4228  0.6749 -1.3831
  526MOL0     H69377   4.705   1.784   4.475 -0.0194  0.0705  0.0709
  526MOL0     H69378   4.764   1.621   4.517  0.6085  2.1569  0.8630
  526MOL0     H69379   4.530   1.544   4.544 -0.5542 -0.1893  0.6118
  526MOL0     H69380   4.460   1.693   4.486 -0.7598 -1.1299 -0.0761
  526MOL0     H69381   4.646   1.672   4.728  0.6646  1.0617  0.3670
  526MOL0     H69382   4.567   1.814   4.675 -2.0676 -0.0800  0.7856
  526MOL0     H69383   4.444   1.718   4.857  1.7503  3.1882 -2.0733
  526MOL0     H69384   4.448   1.558   4.766  3.2175  0.2320  1.6866
  526MOL0     H69385   4.184   1.583   4.861  2.6110  0.4882 -0.0075
  526MOL0     H69386   3.883   1.754   4.720  1.2057  0.0828 -2.9022
  526MOL0     H69387   3.932   1.605   4.817  4.5375 -2.5520 -0.8467
  526MOL0     H69388   3.947   1.472   4.643 -1.0468  0.5270  2.1787
  526MOL0     H69389   3.962   1.610   4.521  0.2594  0.8361  0.5550
  526MOL0     H69390   3.734   1.490   4.519 -0.8540  1.6417 -2.0663
  526MOL0     H69391   3.698   1.566   4.680 -0.3803  1.0932 -0.0708
  526MOL0     H69392   3.784   1.733   4.447  0.3610  3.2726  1.6136
  526MOL0     H69393   3.712   1.776   4.610 -0.2359 -1.1101  0.3738
  526MOL0     H69394   3.396   1.621   4.330 -2.0847  2.4193 -0.1038
  526MOL0     H69395   3.181   1.543   4.398  0.5479 -1.1917  1.0575
  526MOL0     H69396   2.907   1.264   4.471  0.8425  0.4318  1.4767
  526MOL0     H69397   2.669   1.204   4.477  2.3956 -2.1021  1.2873
  526MOL0     H69398   2.347   1.502   4.627 -0.7060  0.8084  2.5279
  526MOL0     H69399   2.402   1.402   4.764 -1.8388 -3.3519  0.5659
  526MOL0     H69400   2.262   1.216   4.670 -1.8922  0.2045  4.1418
  526MOL0     H69401   2.224   1.324   4.537  0.3976  0.5215 -0.0174
  526MOL0     H69402   2.110   1.474   4.711 -2.4052 -0.2251  2.6352
  526MOL0     H69403   2.145   1.356   4.838  2.8755 -1.9163 -0.2743
  526MOL0     H69404   1.977   1.294   4.593  0.3513  0.7721  0.0850
  526MOL0     H69405   1.981   1.207   4.746  0.8855 -0.1495 -1.7153
  526MOL0     H69406   1.874   1.499   4.732  0.8012  0.6310  2.2421
  526MOL0     H69407   1.890   1.404   4.877  1.2237 -0.1134  0.6065
  526MOL0     H69408   1.759   1.231   4.738  2.9985  0.6887 -1.0506
  526MOL0     H69409   1.748   1.359   4.611  0.8837  2.0667  0.4545
  526MOL0     H69410   1.647   1.394   4.892  3.0128 -1.9979 -1.0662
  526MOL0     H69411   1.591   1.486   4.760 -0.3930  0.2166  2.2472
  526MOL0     H69412   1.426   1.331   4.833  0.5526  2.6546 -0.7658
  526MOL0     H69413   1.529   1.181   4.787 -3.1522 -0.7105 -2.4890
  526MOL0     H69414   2.589   1.566   4.722  1.9382  2.6068 -2.7376
  526MOL0     H69415   2.816   1.600   4.719  0.4673 -1.1956  1.1244
  526MOL0     H69416   3.292   1.624   4.812 -2.2024 -1.8782  0.5749
  526MOL0     H69417   3.508   1.683   4.734  3.2275  0.4261 -2.5567
  526MOL0     H69418   4.911   2.058   4.158 -1.0826  0.1312 -2.6595
  526MOL0     H69419   5.136   2.187   4.169  0.5268 -0.1575  0.9402
  526MOL0     H69420   5.710   2.044   4.113 -0.2933 -0.4320 -1.9501
  526MOL0     H69421   5.921   2.188   4.095  0.0092 -0.0772 -1.6563
  526MOL0     H69422   5.938   2.417   4.272  0.5088  0.4610 -0.0733
  526MOL0     H69423   5.971   2.574   4.208 -0.8383  0.2467  0.8006
  526MOL0     H69424   6.169   2.405   4.268 -0.0192 -2.4746 -0.4553
  526MOL0     H69425   6.116   2.314   4.143  0.1626  0.4317 -0.6073
  526MOL0     H69426   6.188   2.479   3.980  0.3058 -0.3153  0.1384
  526MOL0     H69427   6.314   2.464   4.094 -2.5760 -3.5349  0.5014
  526MOL0     H69428   6.286   2.694   4.023  1.0751 -2.4049 -0.0316
  526MOL0     H69429   6.117   2.704   4.060  0.7709  1.0047 -0.7037
  526MOL0     H69430   6.272   2.746   4.447 -0.6690 -0.1732  0.5312
  526MOL0     H69431   5.679   2.519   4.006 -0.0162 -0.8970 -0.6392
  526MOL0     H69432   5.470   2.386   4.016  1.2274  3.0312 -1.0460
  527MOL0     O69433  10.828   3.569   0.056 -0.3310  1.0626  0.2346
  527MOL0     C69434  10.891   3.600   0.158  1.0348  0.0874  0.9280
  527MOL0     O69435  10.827   3.646   0.270 -0.3908 -0.1925  0.5218
  527MOL0     C69436  10.699   3.673   0.273  0.5865  0.3829  0.4605
  527MOL0     C69437  10.626   3.618   0.374 -0.4093 -0.5904 -0.1591
  527MOL0     C69438  10.490   3.655   0.403  0.2513 -0.0838  0.8792
  527MOL0     C69439  10.425   3.745   0.326  0.0630 -0.9291 -0.9490
  527MOL0     O69440  10.296   3.777   0.350  0.7189  0.2790  0.3088
  527MOL0     C69441  10.266   3.915   0.320  0.1875  0.4022 -0.2605
  527MOL0     C69442  10.124   3.922   0.269  0.7448 -0.0653  0.4122
  527MOL0     C69443  10.030   3.869   0.378  0.8923  0.0512 -0.3066
  527MOL0     C69444   9.889   3.860   0.317  0.3034 -0.0182 -0.5840
  527MOL0     C69445   9.786   3.834   0.431 -0.6028 -0.4451 -0.2354
  527MOL0     C69446   9.655   3.765   0.403  0.3533 -0.3683  0.6756
  527MOL0     C69447   9.652   3.639   0.311  0.0637  1.0895  0.1110
  527MOL0     C69448   9.526   3.562   0.335 -0.1549  0.0222  0.7488
  527MOL0     N69449   9.408   3.643   0.306 -0.2377  0.4004 -0.2506
  527MOL0     C69450   9.321   3.622   0.198 -0.2096  0.1986 -0.3771
  527MOL0     C69451   9.200   3.664   0.253 -0.1477  0.0775 -0.5808
  527MOL0     C69452   9.073   3.672   0.177  0.2393 -0.6941 -0.1600
  527MOL0     C69453   9.030   3.537   0.110  0.4991 -0.2135 -0.0368
  527MOL0     C69454   8.940   3.577  -0.008  0.6637  0.3383 -0.2895
  527MOL0     C69455   8.834   3.472  -0.037  0.5282 -0.3092  0.4765
  527MOL0     O69456   8.729   3.483   0.055  0.5604 -0.5625  0.3773
  527MOL0     C69457   8.617   3.411   0.029 -0.3332 -0.3735  0.3844
  527MOL0     C69458   8.610   3.318  -0.082  0.1358  0.1843 -0.4628
  527MOL0     C69459   8.499   3.241  -0.096  0.9349 -0.4503 -0.5525
  527MOL0     C69460   8.390   3.249  -0.007 -0.4852  0.7421  0.0585
  527MOL0     C69461   8.278   3.165  -0.029  0.3858 -0.2350  0.8901
  527MOL0     O69462   8.192   3.145   0.071  0.2660  0.0452 -0.3060
  527MOL0     C69463   8.101   3.039   0.076 -0.2221 -0.1721 -0.0854
  527MOL0     C69464   8.098   2.922   0.002 -0.1103 -0.0228  0.1027
  527MOL0     C69465   8.017   2.816   0.046 -0.2484  0.0099 -0.1595
  527MOL0     C69466   7.936   2.827   0.156 -0.1367 -0.7296  0.3032
  527MOL0     O69467   7.840   2.739   0.204  0.1922  0.1216  0.1237
  527MOL0     C69468   7.830   2.612   0.141 -0.8966  0.0176  0.1218
  527MOL0     C69469   7.727   2.523   0.196  0.0826 -0.0208  0.0300
  527MOL0     C69470   7.725   2.495   0.347  0.0177  0.1719 -0.0537
  527MOL0     C69471   7.584   2.470   0.387 -1.1001  0.3602 -0.8180
  527MOL0     C69472   7.503   2.596   0.428 -0.3360  0.0567  0.0638
  527MOL0     C69473   7.367   2.546   0.469 -0.3717  0.3963  0.4107
  527MOL0     C69474   7.264   2.661   0.486 -0.0525  0.5476 -0.1110
  527MOL0     C69475   7.126   2.609   0.535 -0.1896  0.0576  0.7297
  527MOL0    Cl69476   7.031   2.759   0.554 -0.1634  0.1621  0.1993
  527MOL0     C69477   7.944   2.941   0.237  0.2051  0.1705  0.1735
  527MOL0     C69478   8.028   3.042   0.198 -0.5139 -0.0856  1.1592
  527MOL0     O69479   8.266   3.122  -0.147  0.7807 -0.5654  0.1648
  527MOL0     C69480   8.386   3.341   0.098  0.3957 -0.1262  0.0703
  527MOL0     C69481   8.500   3.419   0.114  0.1647  0.3399 -0.1768
  527MOL0     N69482   9.222   3.712   0.386  0.2643  0.4494  1.0562
  527MOL0     N69483   9.344   3.702   0.411  0.1223 -0.5916  0.0672
  527MOL0     C69484  10.498   3.796   0.216 -0.5182  0.0820  0.6453
  527MOL0     C69485  10.631   3.755   0.177  0.1101 -0.2451 -0.0522
  527MOL0     C69486  11.037   3.569   0.153  0.4796  0.0259 -0.8226
  527MOL0     C69487  11.094   3.503   0.046 -0.1893  0.1294  0.1389
  527MOL0     C69488  11.230   3.469   0.039 -0.8061 -0.4912  0.0480
  527MOL0     C69489  11.321   3.504   0.145  0.4208  0.2136 -0.4999
  527MOL0     O69490  11.452   3.483   0.143 -0.4367  0.2114 -0.1273
  527MOL0     C69491  11.489   3.365   0.081 -0.2015 -0.0339  0.5894
  527MOL0     C69492  11.631   3.324   0.135  0.6354  0.2475  0.1917
  527MOL0     C69493  11.742   3.426   0.091  0.0631  1.0492 -0.8714
  527MOL0     C69494  11.757   3.448  -0.058  0.1763 -0.7825 -0.8260
  527MOL0     C69495  11.872   3.534  -0.082  0.3091  0.4048 -0.6216
  527MOL0     C69496  11.969   3.597  -0.101 -0.9253 -0.5284  0.0373
  527MOL0     C69497  11.260   3.563   0.249  0.4928  0.3969  0.0459
  527MOL0     C69498  11.124   3.591   0.259  0.2252 -0.4421 -0.6177
  527MOL0     H69499  10.688   3.567   0.447 -1.1006 -0.4829  0.5142
  527MOL0     H69500  10.438   3.612   0.488  1.3274  1.3078  2.3051
  527MOL0     H69501  10.334   3.968   0.253 -0.3075 -2.1309 -2.9660
  527MOL0     H69502  10.265   3.973   0.413 -1.8799  2.0061 -1.1880
  527MOL0     H69503  10.117   3.875   0.170 -1.5969  0.9014  0.0523
  527MOL0     H69504  10.101   4.027   0.249 -0.6752 -0.6740 -1.4810
  527MOL0     H69505  10.029   3.923   0.473  1.7661 -2.4030  1.1985
  527MOL0     H69506  10.062   3.767   0.400  1.3390  0.2153 -0.1830
  527MOL0     H69507   9.875   3.938   0.241  2.8054  0.8703 -0.2603
  527MOL0     H69508   9.878   3.769   0.258 -3.5116 -0.0659 -0.0646
  527MOL0     H69509   9.775   3.919   0.499  0.3968  3.4296 -4.3966
  527MOL0     H69510   9.846   3.758   0.482 -1.5420 -2.7392 -2.2935
  527MOL0     H69511   9.605   3.841   0.342  1.8770  1.1597  1.2300
  527MOL0     H69512   9.614   3.747   0.503  1.5105  0.0257  1.2485
  527MOL0     H69513   9.672   3.667   0.207  1.0755 -0.9773 -0.3014
  527MOL0     H69514   9.730   3.571   0.344 -2.1156 -0.1906  3.0230
  527MOL0     H69515   9.523   3.521   0.436 -0.5853  2.7649  1.9306
  527MOL0     H69516   9.519   3.486   0.256  0.2324  0.7013  0.0441
  527MOL0     H69517   9.330   3.565   0.106  0.4872 -1.6546  0.7821
  527MOL0     H69518   9.081   3.754   0.104  1.4413 -1.2519 -0.6902
  527MOL0     H69519   9.004   3.714   0.251  2.7587  1.5495  1.1155
  527MOL0     H69520   8.976   3.470   0.178  2.4842 -2.4686 -0.5409
  527MOL0     H69521   9.111   3.484   0.059 -0.0911  1.0969 -2.4690
  527MOL0     H69522   8.885   3.666   0.023 -0.3725 -0.2510 -0.4085
  527MOL0     H69523   8.988   3.604  -0.103 -0.7310 -0.9649 -1.4168
  527MOL0     H69524   8.889   3.378  -0.039 -0.2100 -0.7513 -0.7913
  527MOL0     H69525   8.808   3.489  -0.142 -0.0357  0.7201  0.7654
  527MOL0     H69526   8.680   3.326  -0.164 -0.2331 -0.8944 -0.8963
  527MOL0     H69527   8.489   3.180  -0.186  1.2969 -2.6373  0.8195
  527MOL0     H69528   8.160   2.919  -0.088 -0.0098 -2.2169  0.2076
  527MOL0     H69529   8.004   2.730  -0.019 -1.8859  1.9300 -2.5765
  527MOL0     H69530   7.933   2.575   0.143  0.0852  2.5152 -0.4046
  527MOL0     H69531   7.807   2.627   0.035  0.7912  1.8901 -0.0503
  527MOL0     H69532   7.740   2.435   0.133 -2.4484 -0.0284 -0.5835
  527MOL0     H69533   7.629   2.565   0.172 -0.8759 -2.2127 -0.1311
  527MOL0     H69534   7.767   2.580   0.401  1.0927  0.3620 -1.1416
  527MOL0     H69535   7.784   2.404   0.363  0.6219 -0.0224 -2.8433
  527MOL0     H69536   7.527   2.410   0.314  1.9999 -3.9838 -0.1073
  527MOL0     H69537   7.601   2.409   0.476 -0.4521  1.8010  0.0788
  527MOL0     H69538   7.501   2.670   0.347  1.5335  3.0805  2.5348
  527MOL0     H69539   7.555   2.644   0.512  0.3538  1.6463 -1.2190
  527MOL0     H69540   7.376   2.493   0.565  1.2793 -1.2848 -0.6047
  527MOL0     H69541   7.329   2.475   0.395 -2.1842  3.4630 -1.8343
  527MOL0     H69542   7.299   2.722   0.570  1.0726 -0.2987  0.0640
  527MOL0     H69543   7.244   2.719   0.396 -1.5182 -0.1158 -0.2304
  527MOL0     H69544   7.125   2.562   0.633  1.8313  2.5931  2.0941
  527MOL0     H69545   7.088   2.543   0.457 -2.0092  0.3390  1.3439
  527MOL0     H69546   7.881   2.949   0.325 -0.8937 -2.0883 -0.3515
  527MOL0     H69547   8.035   3.135   0.254  2.7240 -0.7908  2.1441
  527MOL0     H69548   8.306   3.336   0.171 -0.5535 -0.9552 -0.9938
  527MOL0     H69549   8.499   3.464   0.212 -1.8052  1.2319 -0.5675
  527MOL0     H69550  10.457   3.869   0.146 -1.4263  0.1926  1.2789
  527MOL0     H69551  10.672   3.804   0.089 -0.2283 -0.6023 -0.4188
  527MOL0     H69552  11.029   3.490  -0.040  0.2153  1.0967 -0.3368
  527MOL0     H69553  11.267   3.424  -0.052 -1.7261  1.5141 -1.4084
  527MOL0     H69554  11.492   3.386  -0.026 -2.5890 -0.6917  0.3306
  527MOL0     H69555  11.419   3.285   0.106  2.2697 -2.6338 -0.2011
  527MOL0     H69556  11.634   3.313   0.244  3.6913  0.3573  0.2206
  527MOL0     H69557  11.667   3.229   0.095  2.8838  2.0648 -2.4909
  527MOL0     H69558  11.835   3.385   0.132 -1.2241 -0.7677  0.4065
  527MOL0     H69559  11.731   3.518   0.149  3.0703  1.0560 -0.1244
  527MOL0     H69560  11.751   3.351  -0.109  1.5368  0.4748 -3.5421
  527MOL0     H69561  11.672   3.509  -0.091  0.2777  0.3827  0.9376
  527MOL0     H69562  12.054   3.660  -0.114 -0.3353 -1.5299 -1.1898
  527MOL0     H69563  11.313   3.585   0.341 -3.6286  1.0620  2.5697
  527MOL0     H69564  11.081   3.625   0.353 -0.4147 -1.6758 -0.4434
  528MOL0     O69565  10.017   8.913   3.478 -0.0070  0.0420  0.1908
  528MOL0     C69566  10.054   8.819   3.553  0.0059 -0.4297 -0.6333
  528MOL0     O69567   9.968   8.731   3.617  0.6358 -0.5634 -0.4525
  528MOL0     C69568   9.840   8.714   3.560  0.1690 -0.0265 -0.2339
  528MOL0     C69569   9.817   8.694   3.422  0.3429  0.2954  0.0454
  528MOL0     C69570   9.686   8.686   3.367 -0.3601  0.7677 -0.1572
  528MOL0     C69571   9.574   8.696   3.452  0.6925  0.3143  0.4400
  528MOL0     O69572   9.442   8.695   3.413  0.2630 -0.1572 -0.1675
  528MOL0     C69573   9.418   8.595   3.310  0.2869  0.7096 -0.3914
  528MOL0     C69574   9.275   8.554   3.319 -0.1943  0.5843  0.6569
  528MOL0     C69575   9.243   8.432   3.236 -0.8150 -0.0599 -0.1182
  528MOL0     C69576   9.104   8.377   3.273  0.2642 -0.0913 -0.4453
  528MOL0     C69577   9.058   8.279   3.177  0.1147  0.0119  0.3907
  528MOL0     C69578   8.921   8.216   3.209  0.4657 -0.9283  0.5984
  528MOL0     C69579   8.814   8.322   3.178  0.4766 -0.4546  0.9443
  528MOL0     C69580   8.671   8.264   3.157 -0.3140  0.1734  0.5468
  528MOL0     N69581   8.617   8.170   3.255 -0.0841 -0.8278 -0.4681
  528MOL0     C69582   8.577   8.046   3.233  0.0005  0.0388  0.3195
  528MOL0     C69583   8.529   7.995   3.349 -0.2350 -0.2475 -0.5468
  528MOL0     C69584   8.496   7.844   3.351  0.0540 -0.3765  0.1423
  528MOL0     C69585   8.343   7.826   3.375 -0.9965 -0.6339  0.8423
  528MOL0     C69586   8.259   7.871   3.258 -0.9983  0.3539 -0.3692
  528MOL0     C69587   8.112   7.834   3.264 -0.2132 -0.3883  0.3539
  528MOL0     O69588   8.041   7.948   3.314 -0.6196  0.1787 -0.0494
  528MOL0     C69589   7.907   7.933   3.332  0.8833  0.9753  0.3294
  528MOL0     C69590   7.828   8.045   3.331  0.1820 -0.4390  1.0911
  528MOL0     C69591   7.690   8.036   3.341  0.5498  0.1164  0.3435
  528MOL0     C69592   7.622   7.911   3.350 -0.5798 -0.1304 -1.3331
  528MOL0     C69593   7.471   7.921   3.361 -0.1249 -0.2238 -1.7078
  528MOL0     O69594   7.410   8.042   3.332 -0.0513  0.5368  0.2794
  528MOL0     C69595   7.281   8.072   3.367  0.4376 -1.0401 -0.8844
  528MOL0     C69596   7.259   8.203   3.381 -0.3349  0.7114 -0.4737
  528MOL0     C69597   7.126   8.248   3.405  0.3257 -0.6742  0.2427
  528MOL0     C69598   7.021   8.157   3.411 -1.1451  0.0939  0.3115
  528MOL0     O69599   6.889   8.199   3.426  0.5239  0.3104 -0.2893
  528MOL0     C69600   6.869   8.297   3.529 -0.2084  0.3259 -0.5713
  528MOL0     C69601   6.764   8.254   3.636  0.1086  0.6157  0.3248
  528MOL0     C69602   6.624   8.274   3.589  0.4341 -0.6549  0.1180
  528MOL0     C69603   6.521   8.223   3.694 -0.6379 -0.0750  0.0119
  528MOL0     C69604   6.375   8.236   3.651 -0.6530  0.0155  0.4890
  528MOL0     C69605   6.276   8.183   3.746  0.3910  0.2770  0.5384
  528MOL0     C69606   6.308   8.041   3.785 -1.2735  0.2026 -0.2210
  528MOL0     C69607   6.183   7.971   3.830  0.5489 -0.3963 -0.0795
  528MOL0    Cl69608   6.222   7.818   3.917 -0.2686  0.0349  0.2218
  528MOL0     C69609   7.044   8.017   3.388 -0.0610 -0.2333 -0.4347
  528MOL0     C69610   7.177   7.976   3.366  0.3405 -0.2366  0.5128
  528MOL0     O69611   7.405   7.827   3.409 -0.3265  0.9545  0.2058
  528MOL0     C69612   7.698   7.797   3.366 -0.1575  0.0769 -0.2151
  528MOL0     C69613   7.842   7.803   3.351  0.8828  0.1219  0.1738
  528MOL0     N69614   8.553   8.094   3.439  0.9032  0.0050  0.3742
  528MOL0     N69615   8.602   8.196   3.391  0.6850 -0.1491  0.6648
  528MOL0     C69616   9.600   8.708   3.594  0.2443  0.0992  0.0088
  528MOL0     C69617   9.723   8.720   3.643  0.5207 -0.0590 -0.4227
  528MOL0     C69618  10.194   8.817   3.587 -0.0557  0.9046 -1.1031
  528MOL0     C69619  10.277   8.917   3.544 -0.0958  0.3526 -0.1972
  528MOL0     C69620  10.411   8.930   3.581 -0.5537 -0.9848  0.8971
  528MOL0     C69621  10.477   8.825   3.648 -0.4713 -1.0656  0.3291
  528MOL0     O69622  10.602   8.846   3.698  0.0607  0.4151 -0.4598
  528MOL0     C69623  10.703   8.873   3.597  0.2838  0.8987  0.5936
  528MOL0     C69624  10.827   8.929   3.669  0.6704 -0.2682  0.1202
  528MOL0     C69625  10.874   8.849   3.792 -0.6247 -0.0132  0.2542
  528MOL0     C69626  10.985   8.927   3.855 -0.2873 -0.2488 -0.2163
  528MOL0     C69627  11.110   8.909   3.793 -0.6115 -0.1053  0.0307
  528MOL0     C69628  11.218   8.878   3.745 -0.0529  0.0155 -0.6560
  528MOL0     C69629  10.399   8.721   3.687 -0.0682 -0.3892  0.4008
  528MOL0     C69630  10.259   8.715   3.658 -0.4755  0.4070  0.5501
  528MOL0     H69631   9.905   8.686   3.360 -0.3567 -1.4217 -0.8056
  528MOL0     H69632   9.678   8.664   3.261  0.8513  0.9370 -0.2951
  528MOL0     H69633   9.486   8.511   3.325  0.6680  0.2763 -3.7015
  528MOL0     H69634   9.435   8.644   3.213  1.1240  0.3724 -0.4226
  528MOL0     H69635   9.207   8.635   3.291  0.7537  0.8891 -0.8849
  528MOL0     H69636   9.252   8.520   3.420 -0.3593 -0.4554  0.2768
  528MOL0     H69637   9.323   8.358   3.241 -1.9149 -1.3482 -0.9937
  528MOL0     H69638   9.238   8.470   3.134 -0.7492  3.8988  1.1555
  528MOL0     H69639   9.123   8.326   3.367  0.3812 -1.9700 -1.4464
  528MOL0     H69640   9.024   8.449   3.290 -1.1377 -2.0225  1.7223
  528MOL0     H69641   9.129   8.195   3.176 -0.7674 -0.7695 -1.4916
  528MOL0     H69642   9.055   8.316   3.075 -0.4817 -1.7698 -0.2855
  528MOL0     H69643   8.914   8.174   3.310  1.3643  1.0557  1.5215
  528MOL0     H69644   8.912   8.134   3.136  1.2534 -0.9503  0.5233
  528MOL0     H69645   8.816   8.398   3.257  2.2809  3.2590 -2.3672
  528MOL0     H69646   8.835   8.382   3.089  0.9243 -1.2032  0.5358
  528MOL0     H69647   8.687   8.203   3.067  1.8925  0.0306  0.9952
  528MOL0     H69648   8.601   8.348   3.147  1.7255  1.8865  0.0712
  528MOL0     H69649   8.589   8.002   3.135  1.1215  0.0970  0.4170
  528MOL0     H69650   8.542   7.797   3.438 -2.3456 -2.0677  0.5971
  528MOL0     H69651   8.519   7.797   3.255  0.9816  3.3805 -1.6670
  528MOL0     H69652   8.308   7.872   3.468  2.8933 -1.7353  3.1236
  528MOL0     H69653   8.329   7.718   3.388 -1.4996 -0.2898  4.0509
  528MOL0     H69654   8.266   7.979   3.243  4.5021  0.7615  2.5205
  528MOL0     H69655   8.309   7.828   3.171  0.0545 -2.8798  1.6538
  528MOL0     H69656   8.093   7.747   3.327  0.5406 -0.4484  0.5184
  528MOL0     H69657   8.077   7.812   3.163  1.2500 -0.6291 -0.1318
  528MOL0     H69658   7.876   8.142   3.319 -1.2172  0.3169  1.2868
  528MOL0     H69659   7.632   8.123   3.312 -1.1277 -1.5713 -1.6709
  528MOL0     H69660   7.342   8.271   3.368  0.1439 -0.0587 -1.6444
  528MOL0     H69661   7.103   8.349   3.435 -0.5188 -1.2091  1.4641
  528MOL0     H69662   6.826   8.382   3.475 -2.3925 -1.0606 -1.1570
  528MOL0     H69663   6.954   8.329   3.589  0.3806 -1.6620 -0.2821
  528MOL0     H69664   6.784   8.316   3.724 -0.4525 -2.4299  2.7688
  528MOL0     H69665   6.772   8.148   3.662  3.8208  0.2664 -1.5678
  528MOL0     H69666   6.595   8.225   3.495 -2.3124  1.9692 -0.5586
  528MOL0     H69667   6.613   8.379   3.562 -0.9903 -1.0998 -1.1898
  528MOL0     H69668   6.545   8.123   3.729 -2.9499 -0.6396  0.1865
  528MOL0     H69669   6.529   8.288   3.782 -2.2694 -1.9477  1.6320
  528MOL0     H69670   6.361   8.191   3.552 -0.6221 -0.8201  0.8574
  528MOL0     H69671   6.344   8.340   3.637 -1.1159 -0.1649  0.1095
  528MOL0     H69672   6.177   8.191   3.700 -0.4864  0.7876  2.4065
  528MOL0     H69673   6.270   8.239   3.840 -0.4650  2.1678 -0.5702
  528MOL0     H69674   6.349   7.981   3.703 -2.0198 -1.0476  0.2872
  528MOL0     H69675   6.384   8.036   3.864 -1.3571 -0.8091 -0.1907
  528MOL0     H69676   6.118   7.943   3.746 -0.2894 -1.9314  1.0385
  528MOL0     H69677   6.121   8.031   3.898  2.8128  2.0272  0.0246
  528MOL0     H69678   6.969   7.939   3.380  0.0501 -0.3812 -0.0190
  528MOL0     H69679   7.189   7.870   3.345 -1.1334 -0.8858  2.5387
  528MOL0     H69680   7.634   7.711   3.379 -0.2802  0.2845  0.6212
  528MOL0     H69681   7.900   7.712   3.358  0.8907  0.2426  2.4459
  528MOL0     H69682   9.516   8.717   3.662  0.4055  0.9941  0.0972
  528MOL0     H69683   9.736   8.745   3.747 -1.4056 -0.3969 -0.0531
  528MOL0     H69684  10.233   9.000   3.490 -1.2943  1.8752  2.8626
  528MOL0     H69685  10.463   9.021   3.553 -1.0761 -0.6060  1.1249
  528MOL0     H69686  10.665   8.949   3.528  0.2268 -0.5472 -1.0135
  528MOL0     H69687  10.728   8.778   3.550 -1.0900 -0.1869  1.9455
  528MOL0     H69688  10.908   8.937   3.597 -0.6820  1.1188 -1.3261
  528MOL0     H69689  10.806   9.028   3.709  2.6249  0.1858  0.0945
  528MOL0     H69690  10.901   8.746   3.767  0.1656 -0.5061  2.8715
  528MOL0     H69691  10.784   8.847   3.854 -2.2404 -2.2633 -1.9455
  528MOL0     H69692  10.965   9.034   3.859 -1.7434 -0.5152  0.2207
  528MOL0     H69693  10.991   8.894   3.959 -1.2202 -2.1269 -0.7044
  528MOL0     H69694  11.306   8.844   3.695  0.3459  2.5544 -1.8413
  528MOL0     H69695  10.440   8.645   3.753  2.9603  0.1246 -0.6912
  528MOL0     H69696  10.203   8.626   3.687  1.2875 -1.8945 -2.3793
  529MOL0     O69697   7.763   6.715   4.102 -0.1088 -0.1317  0.5615
  529MOL0     C69698   7.688   6.815   4.103  0.2436  0.8096 -0.7979
  529MOL0     O69699   7.725   6.946   4.129 -0.0695 -0.7951  0.1011
  529MOL0     C69700   7.854   6.999   4.129  1.9190 -0.3017  0.5180
  529MOL0     C69701   7.964   6.926   4.081  0.6711 -0.5452 -0.0628
  529MOL0     C69702   8.095   6.986   4.073  0.0130 -1.0992 -0.5260
  529MOL0     C69703   8.112   7.122   4.120  0.2700 -0.0661 -0.2338
  529MOL0     O69704   8.230   7.193   4.108 -0.2934 -0.1445 -0.3650
  529MOL0     C69705   8.324   7.155   4.005  0.1798  0.1418 -0.4742
  529MOL0     C69706   8.421   7.056   4.090 -0.1857 -0.2863 -0.8652
  529MOL0     C69707   8.538   7.010   4.003 -0.2412 -0.4657 -0.2611
  529MOL0     C69708   8.664   6.968   4.071  0.4485 -0.6705  0.3273
  529MOL0     C69709   8.639   6.839   4.140  0.3566  0.2051  0.0734
  529MOL0     C69710   8.770   6.793   4.216 -0.7030 -0.0429  0.3823
  529MOL0     C69711   8.869   6.710   4.128 -0.2326  0.2936 -0.3665
  529MOL0     C69712   9.008   6.711   4.195  0.4934 -0.2437 -0.6142
  529MOL0     N69713   9.100   6.653   4.097  0.3428  0.3113 -0.0251
  529MOL0     C69714   9.118   6.518   4.069 -0.2006  0.2563 -0.5424
  529MOL0     C69715   9.222   6.522   3.976  1.3687  0.1146  0.0420
  529MOL0     C69716   9.266   6.403   3.896 -0.1649 -0.8336 -0.0283
  529MOL0     C69717   9.310   6.417   3.751 -0.8389 -0.7054 -0.3494
  529MOL0     C69718   9.201   6.378   3.642 -0.2900 -0.4838 -0.6383
  529MOL0     C69719   9.065   6.404   3.684 -0.5159 -0.3588 -0.3028
  529MOL0     O69720   9.028   6.292   3.766 -0.0571 -0.8498  0.4544
  529MOL0     C69721   8.912   6.295   3.843  1.2903  0.0690  0.5570
  529MOL0     C69722   8.814   6.400   3.855  0.0486  0.5669 -0.0455
  529MOL0     C69723   8.706   6.386   3.946  0.1851 -0.2743  0.3345
  529MOL0     C69724   8.683   6.259   4.004  0.1988 -0.3349  0.1294
  529MOL0     C69725   8.562   6.234   4.087 -0.8154 -0.2068  0.2974
  529MOL0     O69726   8.549   6.116   4.153  0.0801  0.0850  0.6973
  529MOL0     C69727   8.424   6.094   4.208 -0.0761 -0.1379 -0.1592
  529MOL0     C69728   8.393   6.123   4.341 -0.5813  0.0823 -0.4651
  529MOL0     C69729   8.270   6.087   4.399 -0.3979  0.4222 -0.6773
  529MOL0     C69730   8.172   6.023   4.322 -1.2802  0.6862 -0.1012
  529MOL0     O69731   8.049   5.986   4.378 -0.8590 -0.2676  0.3340
  529MOL0     C69732   7.973   5.885   4.313  0.4448  0.3034  0.0257
  529MOL0     C69733   7.871   5.844   4.409  0.2527  0.0862 -0.6882
  529MOL0     C69734   7.774   5.737   4.358 -0.0847  0.0010 -0.5165
  529MOL0     C69735   7.681   5.679   4.468 -0.3683  0.4331  0.1320
  529MOL0     C69736   7.532   5.698   4.427  0.1802  0.4618 -0.3656
  529MOL0     C69737   7.482   5.619   4.302  0.4337  0.2713  0.3967
  529MOL0     C69738   7.325   5.630   4.285 -0.9573 -0.8298 -0.0318
  529MOL0     C69739   7.278   5.537   4.171 -0.1210 -0.1438 -0.9697
  529MOL0    Cl69740   7.108   5.595   4.137  0.2424 -0.0625  0.0465
  529MOL0     C69741   8.201   5.997   4.185 -0.2344  0.3918 -0.1089
  529MOL0     C69742   8.327   6.032   4.135 -0.1161 -0.5991  0.2327
  529MOL0     O69743   8.478   6.319   4.078 -0.0029 -0.1818 -0.2331
  529MOL0     C69744   8.776   6.162   3.986  0.6099 -0.0718  0.6507
  529MOL0     C69745   8.890   6.177   3.909 -0.1844  0.4589 -0.2305
  529MOL0     N69746   9.273   6.649   3.968  1.1270 -0.3073  0.0450
  529MOL0     N69747   9.193   6.721   4.039 -0.7551  0.6067  0.6348
  529MOL0     C69748   7.998   7.188   4.165  0.3592 -0.5370 -0.1433
  529MOL0     C69749   7.876   7.129   4.175  0.0937  0.7137  0.4075
  529MOL0     C69750   7.548   6.784   4.063 -0.0923 -0.2026  0.3113
  529MOL0     C69751   7.515   6.650   4.011 -0.0745 -0.5184 -0.5316
  529MOL0     C69752   7.377   6.628   3.984 -0.3296  0.1489  0.6592
  529MOL0     C69753   7.275   6.717   4.018  0.2356 -0.6606 -0.0130
  529MOL0     O69754   7.139   6.696   4.016  0.1935 -0.8849  0.7935
  529MOL0     C69755   7.082   6.593   3.942 -1.5049  0.1411  0.4545
  529MOL0     C69756   6.934   6.610   3.907  0.3852 -0.4860  0.8392
  529MOL0     C69757   6.841   6.599   4.034 -0.0154  0.5596 -0.5047
  529MOL0     C69758   6.704   6.570   3.984  0.3949 -0.3952 -1.2763
  529MOL0     C69759   6.697   6.436   3.937  0.4928  0.1036  1.3024
  529MOL0     C69760   6.712   6.325   3.891 -0.4515 -0.3020  0.4192
  529MOL0     C69761   7.314   6.839   4.076  0.3071  0.2843  0.9457
  529MOL0     C69762   7.445   6.870   4.090  0.5249 -0.3814  0.0234
  529MOL0     H69763   7.954   6.823   4.048 -5.0183 -0.9808  1.9159
  529MOL0     H69764   8.175   6.932   4.023 -0.3597 -0.0223 -2.4173
  529MOL0     H69765   8.380   7.245   3.976  0.3537  0.2330  0.1089
  529MOL0     H69766   8.274   7.102   3.925  0.3616 -1.2057  0.2710
  529MOL0     H69767   8.381   6.969   4.143  0.3504 -1.5615 -2.4805
  529MOL0     H69768   8.460   7.122   4.169 -3.0226  3.8881 -2.5810
  529MOL0     H69769   8.568   7.088   3.933 -1.9606 -0.9265 -1.5827
  529MOL0     H69770   8.505   6.924   3.945  1.8459  0.2213 -2.6676
  529MOL0     H69771   8.744   6.962   3.996  1.6721  0.0577  1.5192
  529MOL0     H69772   8.695   7.054   4.131 -2.8738 -1.8363  4.1733
  529MOL0     H69773   8.611   6.765   4.064  0.8256 -0.3575  0.4395
  529MOL0     H69774   8.559   6.857   4.212  2.4821 -2.2565  3.3331
  529MOL0     H69775   8.731   6.740   4.303 -0.0602  0.2425  0.8466
  529MOL0     H69776   8.820   6.887   4.243 -0.1413  1.3638 -4.4874
  529MOL0     H69777   8.831   6.610   4.106  0.2106 -0.2172  1.1099
  529MOL0     H69778   8.873   6.758   4.029 -0.2776 -1.3644 -1.2045
  529MOL0     H69779   9.005   6.641   4.278  0.4598 -1.9678 -2.0164
  529MOL0     H69780   9.042   6.806   4.237 -1.9730 -1.1154  3.9575
  529MOL0     H69781   9.045   6.441   4.091 -2.4331  2.1003 -1.1285
  529MOL0     H69782   9.210   6.312   3.920  1.7337 -2.4656 -1.4540
  529MOL0     H69783   9.362   6.375   3.940 -0.1593 -1.0396 -0.1698
  529MOL0     H69784   9.392   6.351   3.720  1.1713  1.6676 -0.3370
  529MOL0     H69785   9.342   6.520   3.735 -1.2998 -0.6726 -1.0872
  529MOL0     H69786   9.228   6.442   3.557 -0.6303  0.5929  0.0363
  529MOL0     H69787   9.212   6.272   3.619  0.6970 -1.1577  2.4678
  529MOL0     H69788   8.988   6.415   3.607  1.0627 -0.8331 -2.0074
  529MOL0     H69789   9.064   6.497   3.743  0.2620  0.1098 -1.0052
  529MOL0     H69790   8.842   6.497   3.814  0.1213  0.2585 -0.7421
  529MOL0     H69791   8.639   6.470   3.959 -1.1980 -0.5574 -3.5918
  529MOL0     H69792   8.469   6.170   4.401 -0.4148 -2.4266  1.4217
  529MOL0     H69793   8.253   6.105   4.504  0.0089  2.3328 -0.9002
  529MOL0     H69794   8.033   5.796   4.296  2.3451  1.8216 -1.6546
  529MOL0     H69795   7.938   5.924   4.217  0.2896  1.1410  0.4097
  529MOL0     H69796   7.813   5.935   4.430  2.2602  1.6447 -1.5146
  529MOL0     H69797   7.920   5.814   4.502 -0.5017  1.8954  0.3462
  529MOL0     H69798   7.816   5.647   4.313  0.4701  0.9004 -1.8773
  529MOL0     H69799   7.712   5.784   4.281 -2.2074 -1.4632  0.2227
  529MOL0     H69800   7.704   5.572   4.481  2.2507  0.6258 -1.8773
  529MOL0     H69801   7.709   5.734   4.558  2.1914  1.1588 -0.9953
  529MOL0     H69802   7.509   5.802   4.401 -1.8100  0.4698  1.1593
  529MOL0     H69803   7.472   5.667   4.513  0.8833  2.3738  0.8825
  529MOL0     H69804   7.513   5.514   4.304  1.6599  0.6273  0.6894
  529MOL0     H69805   7.516   5.661   4.207 -1.7481 -1.1792 -1.1409
  529MOL0     H69806   7.266   5.601   4.373 -1.7767 -0.8856 -0.5838
  529MOL0     H69807   7.287   5.728   4.258 -1.1998 -0.3477  1.9285
  529MOL0     H69808   7.277   5.430   4.190  1.2139 -0.3877 -2.0876
  529MOL0     H69809   7.332   5.558   4.078  0.1867 -1.8116 -1.1904
  529MOL0     H69810   8.130   5.942   4.125 -1.5678 -0.8015  2.4016
  529MOL0     H69811   8.358   6.011   4.033  0.7034  1.1987  0.0802
  529MOL0     H69812   8.760   6.059   4.016  0.0351 -0.3993 -0.7051
  529MOL0     H69813   8.957   6.092   3.896 -2.9471 -2.1154  1.0151
  529MOL0     H69814   8.000   7.282   4.220 -1.3363 -0.8529  0.5265
  529MOL0     H69815   7.793   7.185   4.217  1.2241  3.3023 -0.5734
  529MOL0     H69816   7.584   6.571   3.981 -2.2503 -1.5936 -3.1174
  529MOL0     H69817   7.350   6.534   3.938  0.0452 -0.3609  1.4574
  529MOL0     H69818   7.096   6.497   3.993  0.9009 -0.1962 -0.7088
  529MOL0     H69819   7.134   6.582   3.846 -0.3675 -2.8479  1.2997
  529MOL0     H69820   6.916   6.711   3.870 -0.2680  2.1421  7.0058
  529MOL0     H69821   6.922   6.531   3.833  1.1553 -0.0299  0.2173
  529MOL0     H69822   6.831   6.686   4.101  2.3960 -0.7345  1.7045
  529MOL0     H69823   6.868   6.511   4.093 -3.5284 -0.1934  0.2064
  529MOL0     H69824   6.633   6.583   4.067  0.7737  0.1885 -1.0423
  529MOL0     H69825   6.682   6.648   3.911 -1.2302  2.4150  1.9161
  529MOL0     H69826   6.723   6.232   3.839  1.5559 -0.8490  1.7109
  529MOL0     H69827   7.242   6.916   4.103 -0.3654  0.4755 -1.1884
  529MOL0     H69828   7.477   6.965   4.132 -2.2976  0.1547  1.2191
  530MOL0     O69829   4.921   8.404   5.249  0.1429  0.2055  0.4115
  530MOL0     C69830   4.884   8.468   5.351 -0.5088 -0.3020 -0.1742
  530MOL0     O69831   4.758   8.469   5.401  0.6069  0.4457  0.2478
  530MOL0     C69832   4.657   8.392   5.342 -0.5792 -0.4509 -0.4326
  530MOL0     C69833   4.658   8.276   5.262 -0.2682 -0.1914 -0.8703
  530MOL0     C69834   4.552   8.203   5.229 -0.1979 -0.0219  0.7062
  530MOL0     C69835   4.426   8.255   5.260  0.1343  0.1222 -0.1328
  530MOL0     O69836   4.319   8.211   5.202  0.0563  0.6612  0.1632
  530MOL0     C69837   4.311   8.066   5.188 -0.0290 -0.4621 -0.5706
  530MOL0     C69838   4.164   8.010   5.168  0.1705  0.9515 -0.6014
  530MOL0     C69839   4.177   7.864   5.168 -0.0065 -0.1314  0.3157
  530MOL0     C69840   4.164   7.799   5.023 -0.4513  0.5385  0.0981
  530MOL0     C69841   4.169   7.639   5.039  0.3766 -1.0364 -0.0805
  530MOL0     C69842   4.174   7.570   4.899 -0.7798  0.3524 -0.4052
  530MOL0     C69843   4.200   7.419   4.928 -0.0525  0.3560 -0.1660
  530MOL0     C69844   4.127   7.344   4.819  0.9242 -0.1996  0.2352
  530MOL0     N69845   4.133   7.196   4.825  0.6642  0.0477  0.2874
  530MOL0     C69846   4.220   7.118   4.758 -0.6289  0.1876 -0.4138
  530MOL0     C69847   4.203   6.992   4.811 -0.7130  0.3560  0.3494
  530MOL0     C69848   4.293   6.872   4.778 -1.0473 -0.3168  0.6610
  530MOL0     C69849   4.324   6.841   4.622 -0.1987 -0.5411  0.4110
  530MOL0     C69850   4.413   6.709   4.609 -0.1566  0.6493 -0.0598
  530MOL0     C69851   4.556   6.723   4.662 -0.6059  0.3072  0.4845
  530MOL0     O69852   4.636   6.797   4.565 -0.4450 -0.4370 -0.0555
  530MOL0     C69853   4.757   6.832   4.610 -0.6463  0.5621  0.1455
  530MOL0     C69854   4.833   6.931   4.546  0.3670 -0.3209 -0.3489
  530MOL0     C69855   4.965   6.962   4.587  0.2010 -0.1966  0.2261
  530MOL0     C69856   5.025   6.886   4.687 -0.1409 -1.1780  0.6381
  530MOL0     C69857   5.173   6.893   4.705 -0.2278  0.7193 -0.0141
  530MOL0     O69858   5.226   6.826   4.811 -0.1752 -0.4175  0.0248
  530MOL0     C69859   5.360   6.811   4.831  0.6829 -1.0739  0.2857
  530MOL0     C69860   5.435   6.924   4.857  1.2873  0.1808  0.1397
  530MOL0     C69861   5.575   6.913   4.869  0.2440 -0.3002  0.7393
  530MOL0     C69862   5.641   6.789   4.850 -0.7370  1.0177 -0.2673
  530MOL0     O69863   5.778   6.774   4.855  0.0461 -0.2521 -0.5945
  530MOL0     C69864   5.868   6.884   4.868  0.3177 -0.2385  0.4534
  530MOL0     C69865   6.020   6.837   4.865  0.6642 -0.4921  0.1277
  530MOL0     C69866   6.116   6.957   4.841  0.8737  1.0457  0.5517
  530MOL0     C69867   6.255   6.898   4.858  0.5283 -0.1403  0.0659
  530MOL0     C69868   6.376   7.001   4.840  0.0907 -0.6515 -0.3836
  530MOL0     C69869   6.507   6.926   4.882  0.4343  0.4625  0.2059
  530MOL0     C69870   6.635   6.995   4.834  0.0338  0.0668 -0.4907
  530MOL0     C69871   6.748   6.971   4.928  0.1237  0.5215  0.1160
  530MOL0    Cl69872   6.892   7.066   4.906  0.1778  0.2619 -0.6296
  530MOL0     C69873   5.561   6.678   4.837 -0.4754 -0.1846 -0.3621
  530MOL0     C69874   5.420   6.688   4.829  0.6340 -0.6375  0.1363
  530MOL0     O69875   5.241   6.967   4.635 -0.3598  1.0962 -0.8260
  530MOL0     C69876   4.953   6.785   4.754  0.1959 -0.5407 -0.3290
  530MOL0     C69877   4.821   6.761   4.717  0.0383 -0.2002  0.1872
  530MOL0     N69878   4.086   6.987   4.886  0.4688 -0.1271 -0.7065
  530MOL0     N69879   4.047   7.114   4.889 -0.2534 -0.6299 -0.6074
  530MOL0     C69880   4.419   8.366   5.338 -0.2051 -0.1469 -0.4481
  530MOL0     C69881   4.530   8.438   5.382 -0.3301  0.0625 -0.3920
  530MOL0     C69882   4.991   8.541   5.415 -0.1536 -0.7526  0.1620
  530MOL0     C69883   4.956   8.654   5.491 -0.5211 -0.5183 -0.3674
  530MOL0     C69884   5.054   8.727   5.567 -0.3446  0.0785  1.1184
  530MOL0     C69885   5.190   8.690   5.559 -0.4769  0.5094  0.5294
  530MOL0     O69886   5.279   8.756   5.638  0.0928  0.0966  0.0626
  530MOL0     C69887   5.303   8.890   5.597 -0.3674  0.1662 -0.0680
  530MOL0     C69888   5.455   8.911   5.567  0.4815 -0.2554  0.5931
  530MOL0     C69889   5.492   9.056   5.596  0.6958 -0.5275  0.0693
  530MOL0     C69890   5.522   9.082   5.746  0.9362  0.0686  0.3467
  530MOL0     C69891   5.561   9.224   5.760 -0.3500 -0.5639 -0.3503
  530MOL0     C69892   5.587   9.339   5.785 -0.2754 -0.0987  0.0781
  530MOL0     C69893   5.229   8.580   5.476  0.6734 -0.7183 -0.6216
  530MOL0     C69894   5.131   8.501   5.416  0.6023  0.0267 -0.5470
  530MOL0     H69895   4.748   8.231   5.220  1.1116  1.5073  0.1304
  530MOL0     H69896   4.555   8.116   5.164  1.1254 -0.4422  1.2960
  530MOL0     H69897   4.366   8.018   5.269 -0.6878 -0.1982  0.0441
  530MOL0     H69898   4.367   8.043   5.096 -1.7289  1.5800 -2.2230
  530MOL0     H69899   4.114   8.046   5.078 -1.9724  1.2155  0.6261
  530MOL0     H69900   4.110   8.051   5.254 -0.4939  0.5106 -0.8057
  530MOL0     H69901   4.094   7.826   5.229  0.1039 -3.2950 -1.2648
  530MOL0     H69902   4.268   7.833   5.220  0.2785  0.1787  0.0047
  530MOL0     H69903   4.069   7.824   4.975 -0.7277  0.0210  0.3650
  530MOL0     H69904   4.246   7.829   4.958 -1.2322  0.9515 -0.7216
  530MOL0     H69905   4.093   7.603   5.108  0.0589  3.8785  2.5601
  530MOL0     H69906   4.258   7.627   5.102 -0.6216 -0.5792  1.4591
  530MOL0     H69907   4.264   7.605   4.847  0.7960 -1.3154  1.0844
  530MOL0     H69908   4.085   7.592   4.840 -0.1844 -2.4372 -2.5630
  530MOL0     H69909   4.305   7.389   4.925 -0.1341  0.1389 -2.3876
  530MOL0     H69910   4.164   7.387   5.026  0.6792  1.6332  0.5422
  530MOL0     H69911   4.178   7.377   4.728 -0.4284  0.5793 -0.2696
  530MOL0     H69912   4.020   7.366   4.816  1.3176  1.9314 -2.5387
  530MOL0     H69913   4.296   7.142   4.685  1.4568 -3.2483  0.4090
  530MOL0     H69914   4.256   6.783   4.830 -2.3311 -0.8444 -1.0619
  530MOL0     H69915   4.393   6.894   4.817 -0.4395 -0.7824 -0.5546
  530MOL0     H69916   4.383   6.921   4.577  2.3004 -1.9181  1.0581
  530MOL0     H69917   4.225   6.834   4.576 -0.1303  0.5867  0.0718
  530MOL0     H69918   4.377   6.625   4.668 -2.2584  0.4476 -1.4969
  530MOL0     H69919   4.413   6.671   4.506  2.0190  2.5455 -0.8595
  530MOL0     H69920   4.598   6.624   4.679  0.8978  1.1834  2.1437
  530MOL0     H69921   4.551   6.777   4.757 -0.3574 -0.3414  0.8735
  530MOL0     H69922   4.784   7.004   4.482  2.0137 -1.1639 -2.7444
  530MOL0     H69923   5.013   7.042   4.532 -0.6285  0.2022  0.0677
  530MOL0     H69924   5.403   7.026   4.876  0.1460 -0.2827  0.7973
  530MOL0     H69925   5.611   7.012   4.892 -0.3843 -0.5858  3.2792
  530MOL0     H69926   5.840   6.940   4.957 -0.7148  0.6583 -0.4071
  530MOL0     H69927   5.852   6.949   4.781  3.4520  0.3267  0.1871
  530MOL0     H69928   6.045   6.756   4.796  2.9768 -0.7467  1.1604
  530MOL0     H69929   6.032   6.800   4.967  1.1325 -1.1303 -0.1477
  530MOL0     H69930   6.096   7.039   4.910 -0.1098  0.2774  1.2103
  530MOL0     H69931   6.113   6.988   4.736 -1.7846  0.9463  0.5387
  530MOL0     H69932   6.262   6.859   4.961 -4.3393 -2.3309 -0.1861
  530MOL0     H69933   6.261   6.809   4.795 -0.1260 -0.0403 -0.1423
  530MOL0     H69934   6.360   7.089   4.903  0.7001 -1.8536  1.5381
  530MOL0     H69935   6.394   7.032   4.737  0.3565  0.2296 -0.0780
  530MOL0     H69936   6.502   6.830   4.830  1.1769  1.7307 -2.4322
  530MOL0     H69937   6.515   6.914   4.990  2.8106 -0.3209  0.0026
  530MOL0     H69938   6.664   6.959   4.735 -0.0990  3.1416 -1.7440
  530MOL0     H69939   6.612   7.102   4.835  0.0065  0.0705  1.1885
  530MOL0     H69940   6.778   6.868   4.906 -1.0696  0.9418 -4.5890
  530MOL0     H69941   6.719   6.975   5.033 -1.4754  2.4695 -0.3307
  530MOL0     H69942   5.611   6.582   4.842  1.7595  0.9919  1.3943
  530MOL0     H69943   5.354   6.602   4.820 -1.3639  0.7497  0.8599
  530MOL0     H69944   4.991   6.726   4.836 -2.4673 -1.0587  0.6320
  530MOL0     H69945   4.771   6.681   4.770 -0.9532 -0.9257 -1.7306
  530MOL0     H69946   4.320   8.400   5.366 -0.4998  1.4004 -3.0185
  530MOL0     H69947   4.521   8.520   5.452 -1.1690  0.5226 -1.0167
  530MOL0     H69948   4.854   8.689   5.498 -0.3686 -0.4336  3.2280
  530MOL0     H69949   5.013   8.810   5.622  2.3559  1.8721  0.5902
  530MOL0     H69950   5.268   8.953   5.680 -0.1277 -0.6836  0.6902
  530MOL0     H69951   5.257   8.912   5.500 -0.5438  3.1377  0.5912
  530MOL0     H69952   5.505   8.846   5.640  1.4270  0.6637  0.7855
  530MOL0     H69953   5.477   8.883   5.464  0.3992  0.3304  0.4188
  530MOL0     H69954   5.402   9.111   5.566  0.2654 -0.4744  1.3889
  530MOL0     H69955   5.578   9.089   5.538  0.7018  1.5486  1.1325
  530MOL0     H69956   5.431   9.062   5.803  2.1082 -0.3508  2.1627
  530MOL0     H69957   5.598   9.015   5.788 -0.1471 -1.9248 -0.7372
  530MOL0     H69958   5.630   9.437   5.787 -2.7491  1.2731 -3.6166
  530MOL0     H69959   5.331   8.543   5.468  0.7030 -0.5806 -0.8816
  530MOL0     H69960   5.166   8.406   5.376  2.6804  0.1105  0.8871
  531MOL0     O69961   5.179   5.566   7.590 -0.3621 -0.4993  0.2287
  531MOL0     C69962   5.144   5.650   7.508  0.2638 -0.3341 -0.8223
  531MOL0     O69963   5.219   5.762   7.468  0.8655 -1.1156 -0.4652
  531MOL0     C69964   5.346   5.792   7.520  0.8503 -0.2961 -0.2878
  531MOL0     C69965   5.413   5.886   7.447  0.5702 -0.3131  0.1165
  531MOL0     C69966   5.526   5.944   7.502  0.0848 -0.0852  0.0708
  531MOL0     C69967   5.584   5.899   7.622 -0.9183  0.5319 -0.4841
  531MOL0     O69968   5.707   5.962   7.655 -0.1664 -0.4207 -0.6683
  531MOL0     C69969   5.806   5.886   7.727  0.5287  0.1274  0.2647
  531MOL0     C69970   5.923   5.963   7.735 -0.8371 -0.7198  0.0933
  531MOL0     C69971   5.923   6.098   7.807  0.6030  0.0859  0.0916
  531MOL0     C69972   6.067   6.155   7.802  0.2209  0.7720  0.5854
  531MOL0     C69973   6.124   6.193   7.935 -0.1389 -0.4082  0.0779
  531MOL0     C69974   6.235   6.301   7.922  0.1604 -0.1488  0.1171
  531MOL0     C69975   6.338   6.319   8.039 -0.5844  0.4860 -0.5171
  531MOL0     C69976   6.393   6.457   8.081 -0.3890 -0.8934  0.4936
  531MOL0     N69977   6.416   6.549   7.967 -0.5228  0.6365  0.2195
  531MOL0     C69978   6.333   6.643   7.928 -0.0117  0.7448 -0.1753
  531MOL0     C69979   6.376   6.678   7.802  0.4436  0.0480 -0.4404
  531MOL0     C69980   6.298   6.762   7.709  0.0232 -0.1556  0.2469
  531MOL0     C69981   6.167   6.713   7.669 -0.0677  0.5384  0.9124
  531MOL0     C69982   6.168   6.565   7.609 -0.6811 -1.4579  0.5095
  531MOL0     C69983   6.049   6.532   7.507  0.6062 -0.3305 -0.8614
  531MOL0     O69984   5.930   6.535   7.591  0.3038 -0.1096  0.1815
  531MOL0     C69985   5.824   6.449   7.557 -0.7016  0.4347 -0.4385
  531MOL0     C69986   5.804   6.432   7.417  0.3196 -0.0730  0.3836
  531MOL0     C69987   5.686   6.384   7.368  0.3086  0.8319  0.8919
  531MOL0     C69988   5.588   6.338   7.453  0.6492 -0.2129 -0.7564
  531MOL0     C69989   5.469   6.291   7.383 -0.6629  0.3851  0.4659
  531MOL0     O69990   5.353   6.282   7.463  0.2175 -0.0761  0.6245
  531MOL0     C69991   5.237   6.220   7.400  0.4387  0.3922  0.1770
  531MOL0     C69992   5.167   6.125   7.481 -0.0909  0.1791 -0.0922
  531MOL0     C69993   5.050   6.049   7.442  0.2132 -0.6889 -0.3290
  531MOL0     C69994   4.998   6.076   7.314  0.5123 -0.1467  0.2007
  531MOL0     O69995   4.891   5.999   7.275  0.0265 -0.4233 -0.6404
  531MOL0     C69996   4.783   6.075   7.208 -0.4977  0.4647 -0.3999
  531MOL0     C69997   4.675   5.971   7.165  0.7964  0.7661  0.7135
  531MOL0     C69998   4.558   6.036   7.105 -0.6279  0.1591  0.6360
  531MOL0     C69999   4.434   5.945   7.090 -0.8935  0.4031 -0.8956
  531MOL0     C70000   4.317   6.014   7.010 -0.6522 -0.0816 -0.0494
  531MOL0     C70001   4.193   5.915   6.989 -0.0704  0.0217 -0.3103
  531MOL0     C70002   4.069   6.012   6.969  0.3823  0.1393  1.2192
  531MOL0     C70003   3.945   5.919   6.972 -0.1377 -0.5104 -0.5539
  531MOL0    Cl70004   3.899   5.834   6.831  0.1504 -0.0059  0.1643
  531MOL0     C70005   5.077   6.156   7.226  0.3278 -0.5972  0.6703
  531MOL0     C70006   5.194   6.230   7.270 -0.1307  0.1982  0.5514
  531MOL0     O70007   5.477   6.249   7.262  0.2853  0.8280 -0.3576
  531MOL0     C70008   5.604   6.353   7.597  0.0174 -0.4857  0.3191
  531MOL0     C70009   5.724   6.406   7.646  0.1272 -0.5142  0.2923
  531MOL0     N70010   6.489   6.610   7.772  0.1182  0.5669 -0.1178
  531MOL0     N70011   6.514   6.543   7.879  0.0109 -0.1598  0.2821
  531MOL0     C70012   5.509   5.810   7.700  0.3632 -0.0351 -0.6211
  531MOL0     C70013   5.389   5.752   7.652  0.2281 -0.3471 -0.2612
  531MOL0     C70014   5.007   5.631   7.452 -0.1356 -0.3484  0.4529
  531MOL0     C70015   4.920   5.537   7.514  0.6094 -0.4283 -0.2125
  531MOL0     C70016   4.795   5.524   7.454 -0.0231  0.1992  0.0463
  531MOL0     C70017   4.752   5.595   7.343  0.4439  0.2842  0.1041
  531MOL0     O70018   4.631   5.592   7.291  0.2304 -0.2858  0.1921
  531MOL0     C70019   4.545   5.477   7.302  0.0953  0.2948 -1.0263
  531MOL0     C70020   4.456   5.443   7.183  0.0052 -0.0478 -0.2878
  531MOL0     C70021   4.399   5.574   7.119 -0.1428 -0.3686  0.6002
  531MOL0     C70022   4.288   5.554   7.013 -0.9328  0.6350  0.5586
  531MOL0     C70023   4.352   5.505   6.887 -0.6230 -0.7445  0.3861
  531MOL0     C70024   4.393   5.438   6.794  0.1977 -0.2973  0.7408
  531MOL0     C70025   4.837   5.687   7.287  0.5721  0.7092  1.0550
  531MOL0     C70026   4.966   5.700   7.336  0.1580 -0.4011 -0.9868
  531MOL0     H70027   5.381   5.922   7.350  2.2479  3.4821  0.7522
  531MOL0     H70028   5.588   6.017   7.451  0.7895  0.0520  1.0910
  531MOL0     H70029   5.820   5.792   7.674 -2.4973 -1.6692  2.3235
  531MOL0     H70030   5.773   5.873   7.830  2.7269 -2.4310  0.7593
  531MOL0     H70031   5.949   5.983   7.631 -1.1613 -1.4567 -0.1374
  531MOL0     H70032   6.007   5.909   7.779  0.7418 -0.1301 -2.0732
  531MOL0     H70033   5.894   6.100   7.912  2.1654  3.6558  0.6166
  531MOL0     H70034   5.851   6.160   7.753  1.7285 -0.1622 -1.7987
  531MOL0     H70035   6.137   6.088   7.751 -0.1332  2.4733 -2.3744
  531MOL0     H70036   6.060   6.249   7.746  0.7673  2.0431  2.5573
  531MOL0     H70037   6.159   6.106   7.992  3.7595  1.8784  1.5703
  531MOL0     H70038   6.044   6.235   7.997 -0.8213  1.6377 -2.0740
  531MOL0     H70039   6.190   6.398   7.901  2.1019  0.9364  0.7341
  531MOL0     H70040   6.299   6.295   7.834  1.7073  1.1647  1.0943
  531MOL0     H70041   6.288   6.285   8.130  2.1662  1.9392  1.6904
  531MOL0     H70042   6.412   6.242   8.015 -0.9047 -0.5766  1.6155
  531MOL0     H70043   6.474   6.436   8.152  0.4580 -2.1201 -0.7719
  531MOL0     H70044   6.318   6.510   8.140  0.4839  1.6733 -0.5335
  531MOL0     H70045   6.236   6.662   7.973 -1.5030 -2.3991 -1.7335
  531MOL0     H70046   6.373   6.784   7.633  1.0537 -0.0819  1.2538
  531MOL0     H70047   6.287   6.858   7.761  1.2070 -0.1993  0.6197
  531MOL0     H70048   6.129   6.784   7.595 -1.0311  0.8842  1.7243
  531MOL0     H70049   6.110   6.705   7.762  2.7269 -1.7663  2.6034
  531MOL0     H70050   6.264   6.547   7.561 -0.8914 -1.4017  0.0647
  531MOL0     H70051   6.157   6.488   7.686 -2.9330 -1.7757 -0.0581
  531MOL0     H70052   6.073   6.435   7.462  3.5577  1.3380 -3.2622
  531MOL0     H70053   6.037   6.603   7.424 -0.8964 -1.5173 -1.7253
  531MOL0     H70054   5.880   6.465   7.347  0.4485  0.1672  0.6346
  531MOL0     H70055   5.661   6.377   7.263 -1.6026 -2.5112  1.4225
  531MOL0     H70056   5.208   6.120   7.581  0.6097  0.3935 -0.3676
  531MOL0     H70057   4.999   5.985   7.513 -1.0844  1.4884  0.8412
  531MOL0     H70058   4.813   6.132   7.119  1.8007  2.9144  1.7793
  531MOL0     H70059   4.725   6.136   7.278 -2.8183 -0.9282 -0.9909
  531MOL0     H70060   4.652   5.915   7.256  0.3171 -2.0424 -1.0176
  531MOL0     H70061   4.719   5.898   7.097  0.8758  2.0383 -0.6529
  531MOL0     H70062   4.594   6.084   7.013  4.3367 -0.3196  2.0669
  531MOL0     H70063   4.529   6.116   7.173  1.9807  2.5368 -0.8299
  531MOL0     H70064   4.468   5.846   7.057 -0.6460 -0.9618  2.8958
  531MOL0     H70065   4.402   5.919   7.192 -0.2125  1.6647 -0.3440
  531MOL0     H70066   4.347   6.053   6.913 -0.8432 -0.9561 -0.4697
  531MOL0     H70067   4.279   6.102   7.062 -2.0080 -0.9776  0.5490
  531MOL0     H70068   4.184   5.844   7.072 -2.3909 -0.8974 -1.2931
  531MOL0     H70069   4.214   5.847   6.906 -0.8254 -0.1647 -0.3482
  531MOL0     H70070   4.072   6.084   7.051 -0.4052  0.0027  1.3724
  531MOL0     H70071   4.075   6.068   6.875  1.3287 -0.6186  0.8162
  531MOL0     H70072   3.859   5.983   6.992  0.4420 -0.5565  2.6120
  531MOL0     H70073   3.942   5.850   7.057 -0.4046  1.6582  1.2861
  531MOL0     H70074   5.057   6.146   7.120 -0.6459 -0.0350  0.7822
  531MOL0     H70075   5.256   6.286   7.202 -0.5545 -0.6093 -0.5192
  531MOL0     H70076   5.522   6.336   7.666  0.5187 -0.0009  1.0556
  531MOL0     H70077   5.751   6.411   7.751  1.8665 -3.3214  0.1059
  531MOL0     H70078   5.542   5.806   7.803  0.7114  2.1265 -0.6156
  531MOL0     H70079   5.333   5.690   7.722 -1.7691  0.6404 -0.8991
  531MOL0     H70080   4.939   5.474   7.600  0.7674  1.6154  1.3358
  531MOL0     H70081   4.710   5.469   7.495 -3.2980  2.3538 -3.2242
  531MOL0     H70082   4.486   5.490   7.393 -0.8768 -1.0328 -1.4307
  531MOL0     H70083   4.601   5.384   7.317  0.3454  0.9610  4.0808
  531MOL0     H70084   4.510   5.376   7.115 -0.0724 -0.5684  0.1554
  531MOL0     H70085   4.368   5.391   7.223 -0.7693  0.8832 -0.7543
  531MOL0     H70086   4.485   5.625   7.075 -1.3469 -1.8585 -4.0252
  531MOL0     H70087   4.366   5.641   7.200  2.2469  1.9277 -0.1756
  531MOL0     H70088   4.210   5.487   7.049 -0.1990 -0.5424  0.0278
  531MOL0     H70089   4.241   5.651   6.995  0.6512  1.5515  1.1687
  531MOL0     H70090   4.409   5.366   6.716 -2.3487  1.1477 -1.2982
  531MOL0     H70091   4.804   5.723   7.190 -1.5975 -3.7912 -0.1706
  531MOL0     H70092   5.018   5.783   7.288 -0.5090 -0.4878 -1.8747
  532MOL0     O70093  10.388   9.054   8.353 -0.6585  0.2124 -0.2598
  532MOL0     C70094  10.307   9.144   8.348 -0.9626  0.4190  0.6367
  532MOL0     O70095  10.198   9.142   8.277 -0.3197 -0.3394 -0.2590
  532MOL0     C70096  10.153   9.030   8.213 -0.1663 -0.9276  0.4071
  532MOL0     C70097  10.022   9.023   8.212  0.3248  0.4163  0.2321
  532MOL0     C70098   9.956   8.909   8.156 -0.4043 -0.2606 -0.4741
  532MOL0     C70099  10.027   8.808   8.096 -0.1325 -0.0718 -0.5623
  532MOL0     O70100   9.955   8.705   8.052 -0.6856 -0.3295 -0.0568
  532MOL0     C70101   9.997   8.572   8.083  0.1387  0.0925  0.8831
  532MOL0     C70102   9.900   8.477   8.006 -0.0291  0.5773 -0.3398
  532MOL0     C70103   9.743   8.494   8.036 -0.0522 -0.2504 -0.1976
  532MOL0     C70104   9.708   8.484   8.185  0.2015  0.5116 -0.3420
  532MOL0     C70105   9.689   8.336   8.230 -0.3966  0.6927 -0.7213
  532MOL0     C70106   9.557   8.312   8.312  0.0532  0.3086 -0.5626
  532MOL0     C70107   9.553   8.166   8.352  0.2573  0.2813  0.2291
  532MOL0     C70108   9.438   8.130   8.439 -0.3318  0.3956 -0.0583
  532MOL0     N70109   9.461   7.984   8.482  0.2257 -0.2311 -0.2465
  532MOL0     C70110   9.383   7.880   8.448  0.2231 -1.4674  0.1453
  532MOL0     C70111   9.419   7.787   8.534 -0.2196  0.5563 -0.4990
  532MOL0     C70112   9.350   7.654   8.528  0.2230 -0.2448 -0.5084
  532MOL0     C70113   9.222   7.660   8.601 -0.0865 -0.0631  0.4644
  532MOL0     C70114   9.161   7.521   8.603 -0.2909 -0.6840  0.6968
  532MOL0     C70115   9.018   7.531   8.670 -0.0618 -0.9120 -1.1475
  532MOL0     O70116   8.924   7.579   8.570  0.4936  0.0925  0.6954
  532MOL0     C70117   8.787   7.559   8.602  0.1849  0.1751  0.1206
  532MOL0     C70118   8.726   7.526   8.730 -0.3743  0.1706  0.8517
  532MOL0     C70119   8.586   7.518   8.749  0.7404 -0.2687  0.1233
  532MOL0     C70120   8.502   7.550   8.646  1.1007  0.0506 -0.3573
  532MOL0     C70121   8.352   7.556   8.669  0.3503  0.6006  0.0858
  532MOL0     O70122   8.299   7.505   8.783  0.2187 -0.3741 -0.2016
  532MOL0     C70123   8.163   7.481   8.799  0.5624 -1.1434 -0.5233
  532MOL0     C70124   8.091   7.569   8.867 -0.3953 -0.0570  0.1285
  532MOL0     C70125   7.953   7.548   8.894 -0.1134 -0.4303 -0.6192
  532MOL0     C70126   7.888   7.435   8.844 -0.3891  0.5405  0.0656
  532MOL0     O70127   7.752   7.418   8.860  0.0552 -0.0076 -0.1506
  532MOL0     C70128   7.661   7.522   8.918 -0.7196  0.5863 -0.2113
  532MOL0     C70129   7.521   7.468   8.911  0.6084 -0.3296 -0.2452
  532MOL0     C70130   7.433   7.479   8.787  0.8567  0.9073 -0.5380
  532MOL0     C70131   7.282   7.435   8.807 -0.2845 -0.0392  1.1275
  532MOL0     C70132   7.250   7.299   8.868  0.9687  0.1305 -0.4822
  532MOL0     C70133   7.105   7.248   8.840  0.3410  0.6367 -0.6919
  532MOL0     C70134   7.097   7.099   8.913 -0.3026 -0.6964  0.3570
  532MOL0     C70135   6.960   7.049   8.941  0.0229 -0.0694 -0.6915
  532MOL0    Cl70136   6.880   7.174   9.045 -0.1581 -0.1665 -0.4442
  532MOL0     C70137   7.965   7.340   8.773  0.0117 -0.0089 -0.3797
  532MOL0     C70138   8.102   7.363   8.746  0.5670 -0.4152  0.0548
  532MOL0     O70139   8.287   7.604   8.579 -0.0217 -0.2273  0.8314
  532MOL0     C70140   8.560   7.593   8.523  0.3562 -0.9127  0.1907
  532MOL0     C70141   8.698   7.601   8.504  0.2544 -0.4159 -0.0583
  532MOL0     N70142   9.525   7.824   8.617  0.4522  0.0471  0.2347
  532MOL0     N70143   9.548   7.946   8.576 -0.4264  0.7685  0.1456
  532MOL0     C70144  10.162   8.819   8.094  0.1527 -1.3534  0.0919
  532MOL0     C70145  10.228   8.932   8.147  0.0107  0.2959 -0.2148
  532MOL0     C70146  10.333   9.274   8.426 -0.8219  0.1168  0.4449
  532MOL0     C70147  10.252   9.386   8.419 -0.8872 -0.8648 -0.0053
  532MOL0     C70148  10.293   9.501   8.486 -0.3690 -0.1920  0.0621
  532MOL0     C70149  10.402   9.511   8.568  0.6843  0.6907 -0.1127
  532MOL0     O70150  10.413   9.628   8.637  0.1729 -0.1993  0.3548
  532MOL0     C70151  10.379   9.622   8.772 -0.2398 -0.2282 -0.4600
  532MOL0     C70152  10.498   9.626   8.865  0.0099 -0.4824 -0.0522
  532MOL0     C70153  10.446   9.625   9.010 -0.1862  0.6521 -0.0898
  532MOL0     C70154  10.553   9.667   9.117  0.7744 -0.7698 -0.4130
  532MOL0     C70155  10.666   9.581   9.106 -0.5983  0.1690  0.0690
  532MOL0     C70156  10.762   9.495   9.104  0.1993 -0.4736  0.1934
  532MOL0     C70157  10.489   9.403   8.573 -0.4962 -0.6892  0.2573
  532MOL0     C70158  10.463   9.289   8.494 -0.7903 -0.0535  0.0915
  532MOL0     H70159   9.951   9.096   8.250  0.8206  0.5573  0.9062
  532MOL0     H70160   9.847   8.905   8.159 -0.4550  0.1793 -1.4637
  532MOL0     H70161   9.990   8.552   8.191  1.6956  1.3646  1.2580
  532MOL0     H70162  10.101   8.554   8.054 -0.9333 -0.7609 -2.9204
  532MOL0     H70163   9.942   8.377   8.021 -0.6930 -0.0506 -2.3751
  532MOL0     H70164   9.919   8.487   7.899 -4.4664  0.5526 -1.3331
  532MOL0     H70165   9.685   8.419   7.982 -0.4916  1.1744 -1.8107
  532MOL0     H70166   9.705   8.592   8.006 -1.3369 -0.2278  1.3821
  532MOL0     H70167   9.785   8.528   8.250  0.7283  1.1247 -1.3490
  532MOL0     H70168   9.610   8.532   8.199 -0.2574 -0.2532 -0.8799
  532MOL0     H70169   9.767   8.312   8.303 -0.9903  3.4339  0.9277
  532MOL0     H70170   9.696   8.263   8.148  0.7418  0.6153 -0.5704
  532MOL0     H70171   9.472   8.331   8.247  0.4438  0.1351 -1.1275
  532MOL0     H70172   9.558   8.373   8.403  3.1969  0.3350 -0.5135
  532MOL0     H70173   9.568   8.089   8.275  4.4432 -2.0316  3.0023
  532MOL0     H70174   9.646   8.142   8.403  1.6510 -0.5489 -2.4898
  532MOL0     H70175   9.340   8.140   8.393 -1.1723  0.1829  1.5927
  532MOL0     H70176   9.441   8.197   8.526 -1.2956  1.1447 -0.5916
  532MOL0     H70177   9.320   7.886   8.359  1.7027  0.0922 -0.8646
  532MOL0     H70178   9.406   7.573   8.576 -0.3134 -0.2921  0.0435
  532MOL0     H70179   9.324   7.625   8.426  1.0868 -0.3660 -0.7096
  532MOL0     H70180   9.148   7.719   8.547  0.1721 -0.0112  0.1671
  532MOL0     H70181   9.233   7.689   8.706  0.0502 -2.2987  1.1289
  532MOL0     H70182   9.138   7.478   8.505  0.3427  1.6046 -0.5323
  532MOL0     H70183   9.230   7.453   8.652  1.6862  1.5241  1.1684
  532MOL0     H70184   9.024   7.602   8.753 -0.0013 -0.8750 -1.1839
  532MOL0     H70185   8.984   7.432   8.698 -1.8811 -0.6365 -2.2556
  532MOL0     H70186   8.789   7.510   8.817  0.0725  1.8250  0.8720
  532MOL0     H70187   8.540   7.486   8.843 -0.2369  1.4693  0.2618
  532MOL0     H70188   8.144   7.655   8.907  0.8065 -0.8303  0.2487
  532MOL0     H70189   7.910   7.635   8.943 -2.5968 -1.1510 -1.3790
  532MOL0     H70190   7.682   7.616   8.866  0.8752  0.0028 -0.6893
  532MOL0     H70191   7.699   7.542   9.018  0.8953  2.7770 -1.1793
  532MOL0     H70192   7.468   7.529   8.986 -2.0742  0.1092 -2.3379
  532MOL0     H70193   7.524   7.363   8.943  2.7546  0.2605  1.7507
  532MOL0     H70194   7.481   7.423   8.707  1.4927 -0.5962  0.8418
  532MOL0     H70195   7.439   7.586   8.766  1.0926  1.5301  2.2730
  532MOL0     H70196   7.245   7.511   8.877  5.5963  3.2401  1.3587
  532MOL0     H70197   7.229   7.435   8.711 -3.2418  1.7634  2.6269
  532MOL0     H70198   7.275   7.294   8.975  0.4535  0.1532 -0.3585
  532MOL0     H70199   7.316   7.229   8.817  1.3307  0.6847 -0.7872
  532MOL0     H70200   7.094   7.225   8.734  0.8798  0.1552 -0.6502
  532MOL0     H70201   7.028   7.316   8.877 -1.5966 -1.6330 -0.2720
  532MOL0     H70202   7.150   7.022   8.856 -0.2888 -1.4509  1.3556
  532MOL0     H70203   7.151   7.105   9.007 -2.2586 -1.4143  1.5820
  532MOL0     H70204   6.979   6.951   8.984  1.2138  0.1008 -0.7963
  532MOL0     H70205   6.906   7.038   8.847 -0.3889 -0.3610 -0.4261
  532MOL0     H70206   7.915   7.255   8.729 -1.2135  1.6058 -2.2592
  532MOL0     H70207   8.152   7.294   8.679 -2.0595  2.0518 -5.0869
  532MOL0     H70208   8.498   7.633   8.444  0.5300 -2.2836 -0.6776
  532MOL0     H70209   8.732   7.633   8.406  0.9458 -1.3937 -0.1522
  532MOL0     H70210  10.214   8.736   8.046 -0.2771 -2.4221  1.3986
  532MOL0     H70211  10.334   8.945   8.130  0.7538  0.8397  3.8257
  532MOL0     H70212  10.177   9.392   8.341 -0.0803  0.7482 -0.7176
  532MOL0     H70213  10.230   9.586   8.465 -1.4870 -0.6289  1.4874
  532MOL0     H70214  10.317   9.536   8.797  2.1165 -1.5539  1.1968
  532MOL0     H70215  10.308   9.704   8.792  0.4349  0.2568  0.0062
  532MOL0     H70216  10.562   9.539   8.846  2.7027  1.3685 -0.0530
  532MOL0     H70217  10.560   9.710   8.831 -0.3020  0.0771  0.7474
  532MOL0     H70218  10.416   9.524   9.037  0.4243  0.6877  0.7638
  532MOL0     H70219  10.363   9.695   9.017 -0.1637  1.1007 -3.0309
  532MOL0     H70220  10.583   9.772   9.110 -0.4035 -0.3811  0.0298
  532MOL0     H70221  10.514   9.651   9.218  3.5694 -0.6859  0.7675
  532MOL0     H70222  10.842   9.425   9.096 -1.3956 -2.2060 -1.3500
  532MOL0     H70223  10.587   9.408   8.619 -0.9024  3.2789  0.9696
  532MOL0     H70224  10.543   9.217   8.486 -0.6795  0.2451 -2.1452
  533MOL0     O70225   4.062   9.141   0.468 -0.1710  0.2427  0.2979
  533MOL0     C70226   4.124   9.047   0.420 -0.7112 -1.0080  0.1792
  533MOL0     O70227   4.070   8.935   0.363 -0.5991 -0.1861  0.0967
  533MOL0     C70228   3.934   8.923   0.383  0.2075 -0.2704 -0.2427
  533MOL0     C70229   3.890   8.810   0.449 -0.1635 -0.9488  0.2437
  533MOL0     C70230   3.757   8.808   0.491  0.8155 -0.2096  0.4315
  533MOL0     C70231   3.663   8.904   0.459 -0.4199  0.6347  0.3246
  533MOL0     O70232   3.541   8.916   0.509  0.4835  0.2779 -0.2357
  533MOL0     C70233   3.467   8.796   0.510  0.4301 -0.0438  0.3624
  533MOL0     C70234   3.322   8.842   0.526  0.8685  0.8080 -0.9240
  533MOL0     C70235   3.222   8.757   0.459  0.1469  0.1640 -0.3481
  533MOL0     C70236   3.078   8.814   0.469 -0.9382  0.5168 -0.0263
  533MOL0     C70237   2.964   8.707   0.445 -0.1684 -0.5402 -0.3792
  533MOL0     C70238   2.960   8.662   0.296 -0.4204  0.9115 -0.1915
  533MOL0     C70239   2.829   8.586   0.257 -0.6525  0.6609 -0.0230
  533MOL0     C70240   2.810   8.461   0.335 -0.1795  0.9565  0.5017
  533MOL0     N70241   2.679   8.408   0.297 -0.0977 -0.6277  0.5030
  533MOL0     C70242   2.648   8.301   0.215 -1.0589 -0.7182  0.4483
  533MOL0     C70243   2.512   8.289   0.213 -0.5306 -1.2647 -0.3520
  533MOL0     C70244   2.424   8.191   0.137  0.0139  0.1692 -0.6709
  533MOL0     C70245   2.294   8.253   0.082 -0.3676  0.3357 -0.9981
  533MOL0     C70246   2.214   8.160   0.003  0.2290 -0.8976  0.1725
  533MOL0     C70247   2.074   8.222  -0.031  0.3533  0.1315  0.2472
  533MOL0     O70248   1.984   8.150  -0.126  0.3799  0.2295 -0.7131
  533MOL0     C70249   1.851   8.200  -0.129  0.2437  0.5858 -1.1616
  533MOL0     C70250   1.792   8.280  -0.027 -0.3661 -0.1305 -0.8035
  533MOL0     C70251   1.658   8.320  -0.039  0.2736 -0.1076  0.8280
  533MOL0     C70252   1.586   8.300  -0.158 -0.0524 -0.2110  0.2334
  533MOL0     C70253   1.449   8.346  -0.180 -0.3249 -0.3828 -0.0206
  533MOL0     O70254   1.399   8.313  -0.297  0.2023  0.4971 -0.5592
  533MOL0     C70255   1.268   8.339  -0.323 -0.5964  0.2523  0.5871
  533MOL0     C70256   1.167   8.308  -0.227  0.0202 -0.2586 -0.7435
  533MOL0     C70257   1.034   8.315  -0.272 -0.1462  0.5543  0.0317
  533MOL0     C70258   1.001   8.344  -0.405 -0.1112 -0.5166  0.3792
  533MOL0     O70259   0.867   8.359  -0.416 -0.2366 -0.2982  0.3159
  533MOL0     C70260   0.828   8.404  -0.547  1.1966  0.5845 -0.6161
  533MOL0     C70261   0.686   8.448  -0.540 -1.0689 -0.7781 -0.3706
  533MOL0     C70262   0.587   8.334  -0.531 -0.1035  0.0981  0.6052
  533MOL0     C70263   0.457   8.390  -0.538 -0.2087  0.0429 -0.5021
  533MOL0     C70264   0.346   8.279  -0.535 -1.2976 -0.5576  0.3096
  533MOL0     C70265   0.206   8.331  -0.556 -0.5233 -0.0441  1.0539
  533MOL0     C70266   0.102   8.211  -0.531  0.0471  0.0474  0.4502
  533MOL0     C70267  -0.041   8.251  -0.575 -0.4878 -0.5089  0.3382
  533MOL0    Cl70268  -0.153   8.120  -0.568  0.0938 -0.3693 -0.2225
  533MOL0     C70269   1.107   8.384  -0.494  0.8584 -0.1640  0.2927
  533MOL0     C70270   1.242   8.385  -0.450  0.2853  0.2673  0.0837
  533MOL0     O70271   1.404   8.433  -0.102 -0.1494 -0.5881  0.3779
  533MOL0     C70272   1.658   8.239  -0.264 -0.4376 -0.5549 -1.3776
  533MOL0     C70273   1.781   8.180  -0.245 -0.2158  0.2273  0.1960
  533MOL0     N70274   2.465   8.395   0.293  0.3280  0.3325 -0.7116
  533MOL0     N70275   2.567   8.458   0.343 -0.0839  0.0973 -1.1164
  533MOL0     C70276   3.709   9.017   0.396 -0.7322 -0.0709  0.3378
  533MOL0     C70277   3.838   9.022   0.345  0.0058  0.5231  0.5799
  533MOL0     C70278   4.272   9.062   0.426  0.2248  0.4747  0.1603
  533MOL0     C70279   4.352   8.958   0.379  1.1994 -0.7361  0.1294
  533MOL0     C70280   4.485   8.985   0.371  0.0577 -0.2355  0.3372
  533MOL0     C70281   4.548   9.097   0.425  0.1105  0.1827  1.0798
  533MOL0     O70282   4.684   9.100   0.432  0.5835 -0.2611  0.0004
  533MOL0     C70283   4.756   9.146   0.317  0.3634 -0.0758  0.2783
  533MOL0     C70284   4.884   9.075   0.287 -0.6088  0.5077 -0.0003
  533MOL0     C70285   4.944   9.140   0.167  1.1361 -0.7678 -0.4273
  533MOL0     C70286   5.049   9.052   0.097  0.5608 -0.1327 -0.1378
  533MOL0     C70287   5.160   9.011   0.184  0.4872  0.1124  0.0470
  533MOL0     C70288   5.261   8.981   0.255  0.2411 -0.2222  0.0655
  533MOL0     C70289   4.464   9.191   0.490  0.5081 -0.5373  0.8801
  533MOL0     C70290   4.329   9.176   0.481 -1.0210  0.0225  0.6921
  533MOL0     H70291   3.956   8.730   0.478  2.0766  0.8192  0.2915
  533MOL0     H70292   3.717   8.726   0.550  2.4979 -1.5941 -0.2652
  533MOL0     H70293   3.492   8.726   0.590  0.6791  2.9859  3.1440
  533MOL0     H70294   3.475   8.738   0.417  2.0343  0.4435  0.1773
  533MOL0     H70295   3.300   8.942   0.487 -1.0566  1.0772  0.6766
  533MOL0     H70296   3.313   8.837   0.635  1.8842  1.5801 -0.7840
  533MOL0     H70297   3.225   8.652   0.488  0.7378  0.3334  0.2272
  533MOL0     H70298   3.252   8.752   0.354 -1.0247 -1.1200 -0.6515
  533MOL0     H70299   3.067   8.843   0.574  1.4981 -0.6746  0.6513
  533MOL0     H70300   3.070   8.906   0.410 -1.1471 -0.3650 -1.4203
  533MOL0     H70301   2.868   8.752   0.473  0.9527  0.4019  2.2491
  533MOL0     H70302   2.980   8.622   0.511  0.5705 -0.1617 -0.0555
  533MOL0     H70303   3.045   8.597   0.273 -1.6047 -0.5206 -0.6276
  533MOL0     H70304   2.968   8.752   0.234 -3.4227 -0.2588 -2.4691
  533MOL0     H70305   2.739   8.645   0.273 -1.3251 -0.5055  0.6000
  533MOL0     H70306   2.830   8.571   0.148  2.4379  0.1787 -0.0424
  533MOL0     H70307   2.821   8.484   0.441  3.3820 -3.2210  1.3238
  533MOL0     H70308   2.886   8.388   0.307 -1.1970  0.1443 -0.2364
  533MOL0     H70309   2.713   8.230   0.164  1.7612  1.7887  0.2323
  533MOL0     H70310   2.410   8.109   0.208 -0.1159 -0.1539 -1.0634
  533MOL0     H70311   2.492   8.149   0.062  2.9080 -0.1864  1.9570
  533MOL0     H70312   2.318   8.347   0.032 -1.8156  0.4295 -1.5506
  533MOL0     H70313   2.245   8.283   0.175  1.1459  0.5560 -0.2385
  533MOL0     H70314   2.274   8.141  -0.087 -1.4131  2.2638 -1.7634
  533MOL0     H70315   2.208   8.065   0.057 -1.0331 -0.8774  0.1054
  533MOL0     H70316   2.090   8.315  -0.087 -1.2930 -0.8542 -2.0121
  533MOL0     H70317   2.023   8.241   0.064 -0.7144 -0.6442 -0.1488
  533MOL0     H70318   1.849   8.309   0.061 -0.2492  1.9372 -1.4964
  533MOL0     H70319   1.603   8.385   0.029 -1.6563  1.6642 -2.2067
  533MOL0     H70320   1.190   8.287  -0.123 -5.0822  3.4433  1.5399
  533MOL0     H70321   0.952   8.302  -0.203 -0.7920 -0.9645 -0.9672
  533MOL0     H70322   0.825   8.321  -0.618  1.4512  2.3872 -2.8712
  533MOL0     H70323   0.886   8.490  -0.581  0.9281  2.2427  2.7493
  533MOL0     H70324   0.665   8.513  -0.625 -1.3818 -0.1595  0.1727
  533MOL0     H70325   0.672   8.520  -0.459 -0.9849 -0.0117 -1.0235
  533MOL0     H70326   0.610   8.293  -0.432  3.7668  3.4304  1.3361
  533MOL0     H70327   0.595   8.265  -0.616 -1.1311 -0.1842  0.7180
  533MOL0     H70328   0.446   8.471  -0.465  1.4580  0.1693 -0.3685
  533MOL0     H70329   0.445   8.439  -0.635  0.8508  2.1907  0.3773
  533MOL0     H70330   0.351   8.243  -0.431 -1.3900 -0.0769  0.4808
  533MOL0     H70331   0.375   8.200  -0.605 -0.3452  0.5387 -0.5759
  533MOL0     H70332   0.210   8.361  -0.661 -0.9570 -1.6354  0.5555
  533MOL0     H70333   0.186   8.407  -0.479 -0.1644 -0.4411  1.5467
  533MOL0     H70334   0.135   8.119  -0.582  0.4107  1.1874 -1.4558
  533MOL0     H70335   0.105   8.186  -0.424  2.7728  3.1818  1.2580
  533MOL0     H70336  -0.042   8.285  -0.679  1.9847  0.6310  0.6271
  533MOL0     H70337  -0.089   8.335  -0.525 -1.2447 -2.0210  2.2973
  533MOL0     H70338   1.083   8.416  -0.595  2.3340  1.2367  0.3567
  533MOL0     H70339   1.318   8.412  -0.523 -0.6229  1.3751 -0.4779
  533MOL0     H70340   1.606   8.208  -0.355 -1.0156 -4.1749  0.0192
  533MOL0     H70341   1.826   8.126  -0.328  0.6714  0.1317  0.7307
  533MOL0     H70342   3.638   9.095   0.372 -0.9947 -0.5181 -0.3695
  533MOL0     H70343   3.864   9.081   0.258  3.3012 -1.1615  0.2561
  533MOL0     H70344   4.308   8.872   0.329  0.5903  1.2019 -2.9601
  533MOL0     H70345   4.550   8.905   0.338 -2.1600 -2.8371  1.8602
  533MOL0     H70346   4.785   9.252   0.325  0.0498 -0.0896  2.0826
  533MOL0     H70347   4.694   9.131   0.228 -1.3690  1.9898  1.0356
  533MOL0     H70348   4.951   9.081   0.373  1.6491  3.3667 -1.7791
  533MOL0     H70349   4.849   8.974   0.261  2.5120 -0.5735 -0.3635
  533MOL0     H70350   4.986   9.236   0.199 -0.0350  0.9937 -3.7752
  533MOL0     H70351   4.866   9.154   0.092 -0.5696 -2.3770  0.9348
  533MOL0     H70352   5.016   8.958   0.052  3.1299 -1.8867  1.3770
  533MOL0     H70353   5.093   9.114   0.019  0.9959  0.1002  0.2862
  533MOL0     H70354   5.343   8.959   0.320  0.1276 -0.0945  0.2503
  533MOL0     H70355   4.501   9.279   0.540 -0.7813  1.4174 -1.3871
  533MOL0     H70356   4.273   9.254   0.531 -1.4287  0.7064 -0.7601
  534MOL0     O70357   6.015  10.827   0.098 -0.6583 -0.0710 -0.3597
  534MOL0     C70358   6.087  10.728   0.115 -0.3312 -0.0256  0.7818
  534MOL0     O70359   6.052  10.615   0.193 -0.3547  0.1231  0.2127
  534MOL0     C70360   5.917  10.603   0.214  1.5511 -0.3398  0.2220
  534MOL0     C70361   5.842  10.537   0.113 -0.3145  1.1698 -0.8352
  534MOL0     C70362   5.710  10.512   0.133  0.0396  0.2477 -1.2002
  534MOL0     C70363   5.657  10.552   0.256  0.4418  0.1636 -0.6933
  534MOL0     O70364   5.532  10.500   0.275  0.7203 -1.3533  0.4922
  534MOL0     C70365   5.457  10.531   0.392 -0.1738  0.5120 -1.2140
  534MOL0     C70366   5.470  10.407   0.488  0.1307 -0.0702 -0.8942
  534MOL0     C70367   5.442  10.463   0.623 -0.0671  0.9104 -0.1558
  534MOL0     C70368   5.455  10.356   0.740  0.1048 -0.0051  0.1192
  534MOL0     C70369   5.400  10.408   0.876 -0.4690 -0.6394  0.7945
  534MOL0     C70370   5.249  10.444   0.873  0.4582 -1.0763  0.4985
  534MOL0     C70371   5.183  10.481   1.009 -0.2871  0.4194  0.0579
  534MOL0     C70372   5.241  10.608   1.069 -0.2585 -0.5557 -0.6935
  534MOL0     N70373   5.152  10.640   1.180 -0.3630  0.5133 -1.0762
  534MOL0     C70374   5.036  10.716   1.158  0.0787  0.3008 -0.3437
  534MOL0     C70375   4.987  10.734   1.284  0.2585 -0.5725  0.2969
  534MOL0     C70376   4.843  10.780   1.310  0.5876  0.6861  0.6145
  534MOL0     C70377   4.752  10.668   1.269 -0.2852  0.1959  0.0902
  534MOL0     C70378   4.660  10.621   1.380  0.0881 -0.0852 -0.2744
  534MOL0     C70379   4.540  10.715   1.395  0.4592 -0.2761 -0.7767
  534MOL0     O70380   4.578  10.833   1.467 -0.1759  0.0748 -0.6951
  534MOL0     C70381   4.472  10.925   1.506 -0.8869  0.4785 -0.5019
  534MOL0     C70382   4.508  11.038   1.585  0.5772 -0.1952  0.1058
  534MOL0     C70383   4.408  11.129   1.627 -0.1366 -0.6444 -0.0186
  534MOL0     C70384   4.278  11.119   1.589  0.7687  0.6638  0.3361
  534MOL0     C70385   4.168  11.209   1.629  0.1261  0.0718  0.6979
  534MOL0     O70386   4.039  11.160   1.622  0.5558  0.0728 -0.1400
  534MOL0     C70387   3.947  11.182   1.724  0.4855 -0.2736  0.2981
  534MOL0     C70388   3.967  11.228   1.854 -0.6559  0.4864 -0.9325
  534MOL0     C70389   3.862  11.231   1.945 -0.0043  0.4268 -0.0034
  534MOL0     C70390   3.729  11.184   1.913  0.7757 -0.2692  0.5539
  534MOL0     O70391   3.621  11.166   2.005 -1.0577  0.0931 -0.4502
  534MOL0     C70392   3.618  11.250   2.123  0.4907 -0.2508 -0.0554
  534MOL0     C70393   3.519  11.209   2.235 -0.3403 -0.4034  0.4189
  534MOL0     C70394   3.382  11.233   2.207  0.0140  0.2868  0.2232
  534MOL0     C70395   3.293  11.151   2.301 -0.6436  0.1721  0.4343
  534MOL0     C70396   3.299  11.202   2.444 -0.8398  0.0571  0.1553
  534MOL0     C70397   3.172  11.167   2.518  0.1060  0.3813 -0.5819
  534MOL0     C70398   3.152  11.015   2.529  0.0624 -0.8256  0.2923
  534MOL0     C70399   3.029  10.978   2.596  1.5958 -0.0380 -0.1113
  534MOL0    Cl70400   2.874  11.023   2.511 -0.0554  0.2289 -0.1656
  534MOL0     C70401   3.705  11.145   1.783 -0.7621  0.5848 -0.2013
  534MOL0     C70402   3.817  11.150   1.691  0.2354 -1.1094 -0.3084
  534MOL0     O70403   4.195  11.321   1.675  0.7406 -0.2390  0.0202
  534MOL0     C70404   4.243  11.008   1.514  0.3942 -0.1334 -0.3403
  534MOL0     C70405   4.334  10.907   1.476 -0.0935 -0.8082  0.6395
  534MOL0     N70406   5.081  10.699   1.385  0.9954  0.6568  0.2966
  534MOL0     N70407   5.178  10.626   1.323  0.2611  0.3869  0.0508
  534MOL0     C70408   5.732  10.610   0.364  0.2556 -0.1591 -1.1202
  534MOL0     C70409   5.862  10.637   0.338 -0.1748 -1.0263  1.1804
  534MOL0     C70410   6.229  10.741   0.078 -0.2259 -0.0926 -0.5958
  534MOL0     C70411   6.328  10.655   0.129  0.3890  0.5925  0.1406
  534MOL0     C70412   6.460  10.682   0.094 -1.2994 -0.0959  0.3896
  534MOL0     C70413   6.499  10.780   0.005 -0.2275 -1.1947 -0.4796
  534MOL0     O70414   6.628  10.811  -0.026  0.3916 -0.3676  0.6358
  534MOL0     C70415   6.684  10.735  -0.145 -0.3473 -0.3607  0.5507
  534MOL0     C70416   6.814  10.668  -0.093 -0.1767 -0.4403 -0.5436
  534MOL0     C70417   6.787  10.573   0.024 -0.1729 -0.3570  0.3053
  534MOL0     C70418   6.909  10.497   0.069 -0.5274  0.1100  0.1413
  534MOL0     C70419   7.028  10.575   0.102 -0.9869  0.1553  0.0897
  534MOL0     C70420   7.127  10.636   0.147  0.1762 -0.3771 -0.2153
  534MOL0     C70421   6.399  10.854  -0.058 -0.2947  0.0086 -0.0236
  534MOL0     C70422   6.261  10.827  -0.030 -0.5120 -0.6353 -0.7649
  534MOL0     H70423   5.893  10.513   0.020  0.1406 -0.2443 -0.2444
  534MOL0     H70424   5.641  10.460   0.067  0.9083 -2.8863  0.1792
  534MOL0     H70425   5.355  10.540   0.353  0.5002  1.4519 -2.8733
  534MOL0     H70426   5.489  10.629   0.429 -0.8739  2.2351 -4.7450
  534MOL0     H70427   5.570  10.365   0.500  0.3951  1.1384  1.9367
  534MOL0     H70428   5.395  10.330   0.466 -0.1682  0.3440 -1.3394
  534MOL0     H70429   5.349  10.519   0.633 -0.4104  0.8428 -2.4330
  534MOL0     H70430   5.519  10.536   0.649 -0.6046  0.7832  2.0011
  534MOL0     H70431   5.405  10.262   0.713  1.0524 -0.0213 -1.7516
  534MOL0     H70432   5.560  10.326   0.740  0.5430  1.4720 -0.5138
  534MOL0     H70433   5.452  10.500   0.905 -4.8720  1.7185  2.1851
  534MOL0     H70434   5.405  10.330   0.952 -1.5661 -1.6495 -0.1178
  534MOL0     H70435   5.196  10.360   0.828  2.1487 -2.1937  0.4726
  534MOL0     H70436   5.247  10.525   0.799  3.1382 -1.3376  0.0266
  534MOL0     H70437   5.075  10.499   1.001 -0.1846  1.8882  1.6041
  534MOL0     H70438   5.206  10.400   1.079 -0.8121  0.9575  0.8730
  534MOL0     H70439   5.230  10.693   1.000 -0.0654  0.3228  0.3333
  534MOL0     H70440   5.348  10.607   1.091 -0.5865 -0.0296  1.1003
  534MOL0     H70441   4.990  10.758   1.069 -1.3890  1.9851  1.1314
  534MOL0     H70442   4.821  10.870   1.252  1.0403  1.8338  2.1519
  534MOL0     H70443   4.831  10.825   1.408  0.1146  3.7252 -0.7194
  534MOL0     H70444   4.817  10.586   1.235  0.9490  1.1512  0.0802
  534MOL0     H70445   4.683  10.697   1.189  1.3207 -0.0131 -1.4286
  534MOL0     H70446   4.632  10.516   1.365  2.1516 -0.9922  1.6056
  534MOL0     H70447   4.717  10.616   1.473 -0.4248 -3.1066 -0.0176
  534MOL0     H70448   4.458  10.662   1.446 -0.2402 -0.1865 -1.7872
  534MOL0     H70449   4.494  10.738   1.298 -1.0545  1.2445  0.2283
  534MOL0     H70450   4.608  11.071   1.611  1.4205 -1.0223 -1.8795
  534MOL0     H70451   4.436  11.202   1.702  1.1624 -1.4167  0.2790
  534MOL0     H70452   4.064  11.271   1.877  0.8479 -1.6222 -2.8635
  534MOL0     H70453   3.880  11.273   2.043  0.8286 -0.9799  0.4715
  534MOL0     H70454   3.581  11.348   2.092 -0.2502 -0.2230  0.8527
  534MOL0     H70455   3.718  11.264   2.164  1.1603  1.0554 -2.0273
  534MOL0     H70456   3.555  11.261   2.325 -1.7092  1.7071 -0.1867
  534MOL0     H70457   3.528  11.100   2.245 -1.8340 -0.6625 -0.7074
  534MOL0     H70458   3.367  11.204   2.103 -1.7691  1.6336  0.0671
  534MOL0     H70459   3.351  11.338   2.211  3.2168  1.4549 -1.6398
  534MOL0     H70460   3.188  11.155   2.270 -0.4196  2.7335 -0.2335
  534MOL0     H70461   3.320  11.046   2.300 -1.7999 -0.1444 -0.5554
  534MOL0     H70462   3.303  11.311   2.457  0.5164 -0.0137  0.5303
  534MOL0     H70463   3.395  11.171   2.487 -1.8284  0.3144  2.6855
  534MOL0     H70464   3.085  11.220   2.476 -0.5267 -1.0925 -1.2102
  534MOL0     H70465   3.178  11.213   2.617 -0.6126  0.7919 -0.7173
  534MOL0     H70466   3.153  10.970   2.429  0.5586 -1.6668  0.6730
  534MOL0     H70467   3.229  10.971   2.592 -1.6741 -0.8546  2.5257
  534MOL0     H70468   3.025  11.019   2.697  0.5859  2.5464 -1.1079
  534MOL0     H70469   3.041  10.869   2.603  0.6725 -0.1311  0.1509
  534MOL0     H70470   3.606  11.119   1.749 -0.0631 -1.9550 -0.5499
  534MOL0     H70471   3.808  11.119   1.587 -0.3847  1.2163 -1.0022
  534MOL0     H70472   4.140  10.985   1.488  0.3402 -0.1189 -0.1338
  534MOL0     H70473   4.303  10.828   1.408 -1.3036  1.0859 -1.1314
  534MOL0     H70474   5.689  10.624   0.463  0.6785 -0.6187 -0.8674
  534MOL0     H70475   5.931  10.678   0.410 -0.2099  1.7846 -0.2410
  534MOL0     H70476   6.317  10.565   0.189  0.1939 -0.4784 -1.4424
  534MOL0     H70477   6.547  10.626   0.127 -1.3643 -0.5913 -0.2536
  534MOL0     H70478   6.697  10.781  -0.243  0.0304  1.6055  1.4680
  534MOL0     H70479   6.622  10.648  -0.169  2.6034 -3.2427  2.4741
  534MOL0     H70480   6.851  10.617  -0.182 -1.0043 -0.8040 -0.6928
  534MOL0     H70481   6.869  10.755  -0.057  0.4406 -0.3329 -1.7251
  534MOL0     H70482   6.714  10.498  -0.007  2.4701 -2.7610 -0.6333
  534MOL0     H70483   6.758  10.631   0.112 -2.2093 -1.6651  0.5640
  534MOL0     H70484   6.885  10.422   0.145 -0.3657  1.8138  1.9603
  534MOL0     H70485   6.954  10.444  -0.015  0.1515 -0.3555  0.7854
  534MOL0     H70486   7.194  10.687   0.212 -2.3207  2.3839  0.3805
  534MOL0     H70487   6.428  10.936  -0.122  0.4117  0.2028  0.5306
  534MOL0     H70488   6.193  10.893  -0.083  0.3262  0.7855 -0.1553
  535MOL0     O70489   6.803   1.585   4.381  0.0187  0.5304 -0.8149
  535MOL0     C70490   6.806   1.607   4.264  0.2464  0.0537  0.3570
  535MOL0     O70491   6.688   1.623   4.188 -0.1533  0.4477 -0.1912
  535MOL0     C70492   6.568   1.584   4.240  0.6540  0.2466  0.5290
  535MOL0     C70493   6.453   1.636   4.182 -0.0818  0.1428 -0.3935
  535MOL0     C70494   6.322   1.584   4.214  0.0203 -0.5335  0.9308
  535MOL0     C70495   6.309   1.481   4.307 -1.1458 -0.0300  0.0919
  535MOL0     O70496   6.185   1.424   4.312 -0.7338 -0.0029 -0.0496
  535MOL0     C70497   6.167   1.319   4.410  0.4203 -0.1004  0.1168
  535MOL0     C70498   6.020   1.280   4.413  0.3848  0.8073  0.2434
  535MOL0     C70499   5.996   1.197   4.284 -0.4429  0.0755 -0.8319
  535MOL0     C70500   5.949   1.057   4.329  0.9085  0.7697 -0.5496
  535MOL0     C70501   5.894   0.979   4.203  0.2136  0.5983 -0.2708
  535MOL0     C70502   5.855   0.836   4.242  0.6358  0.3798 -0.7216
  535MOL0     C70503   5.816   0.739   4.129  0.1935  0.0007  0.1020
  535MOL0     C70504   5.670   0.760   4.072  0.3569 -0.1020 -0.5367
  535MOL0     N70505   5.566   0.757   4.172 -0.5534 -0.5098  0.0543
  535MOL0     C70506   5.474   0.851   4.191 -0.5086  0.3024 -0.0152
  535MOL0     C70507   5.395   0.801   4.282  0.1764  0.6630  0.6867
  535MOL0     C70508   5.279   0.875   4.331  0.2631  0.6878 -0.3234
  535MOL0     C70509   5.168   0.895   4.235  0.1789  0.4251  0.0515
  535MOL0     C70510   5.116   0.763   4.164 -0.4729  0.6883  0.0588
  535MOL0     C70511   5.064   0.658   4.264  0.2794  1.1254  0.6644
  535MOL0     O70512   4.969   0.702   4.362  0.4991 -0.1519  0.2429
  535MOL0     C70513   4.838   0.685   4.347  0.7500  0.0583 -0.5214
  535MOL0     C70514   4.795   0.549   4.372  0.2552 -0.1256 -0.5657
  535MOL0     C70515   4.659   0.520   4.348 -0.3391 -0.2663 -0.4308
  535MOL0     C70516   4.566   0.618   4.316 -1.1713 -1.1412 -0.0154
  535MOL0     C70517   4.424   0.588   4.296  0.0962  1.1078  0.0341
  535MOL0     O70518   4.382   0.450   4.315  0.5021  0.1055  0.5516
  535MOL0     C70519   4.258   0.399   4.265 -0.1434  0.2470  0.1071
  535MOL0     C70520   4.187   0.322   4.357 -0.3167  0.5211  0.0142
  535MOL0     C70521   4.057   0.270   4.323  0.0937  0.3269 -0.1743
  535MOL0     C70522   4.013   0.290   4.192  0.5157  0.5617  0.7108
  535MOL0     O70523   3.896   0.227   4.137 -0.0379  0.0665 -0.0174
  535MOL0     C70524   3.789   0.213   4.237 -0.1336 -0.5053  0.4269
  535MOL0     C70525   3.654   0.173   4.177 -0.0625 -0.4184 -0.7364
  535MOL0     C70526   3.530   0.212   4.259  0.1339 -0.3435  0.0207
  535MOL0     C70527   3.404   0.217   4.177 -0.0302  0.4632  0.2391
  535MOL0     C70528   3.367   0.066   4.143  0.9661  0.3146  0.8708
  535MOL0     C70529   3.242   0.051   4.045 -0.2720  0.2583 -0.5502
  535MOL0     C70530   3.134   0.153   4.083 -0.1760 -0.0689 -0.0560
  535MOL0     C70531   2.997   0.126   4.022 -0.8497  0.1266  0.4864
  535MOL0    Cl70532   2.932  -0.027   4.077 -0.0003  0.3456 -0.0501
  535MOL0     C70533   4.094   0.357   4.102  0.3129  0.6063 -0.0437
  535MOL0     C70534   4.214   0.420   4.130  0.8498 -0.0438  1.1668
  535MOL0     O70535   4.355   0.684   4.266  0.3047 -0.0263 -0.2636
  535MOL0     C70536   4.613   0.756   4.298  0.0005 -0.0170  0.1892
  535MOL0     C70537   4.750   0.779   4.315 -0.4787 -0.6851 -0.6099
  535MOL0     N70538   5.441   0.679   4.323 -0.3055 -0.1131 -0.7829
  535MOL0     N70539   5.542   0.653   4.255 -0.0360  0.5420  0.2551
  535MOL0     C70540   6.427   1.441   4.374 -1.0992 -0.0267 -1.2343
  535MOL0     C70541   6.556   1.478   4.342  1.0358 -0.5197  0.0604
  535MOL0     C70542   6.935   1.638   4.204  0.1505 -0.2028  0.0407
  535MOL0     C70543   6.936   1.662   4.065  0.0423  0.5164 -0.6824
  535MOL0     C70544   7.057   1.691   4.007 -0.2856  0.1918  0.2402
  535MOL0     C70545   7.176   1.700   4.079 -0.9920 -0.1610  0.2425
  535MOL0     O70546   7.289   1.741   4.015 -0.5949  0.1595  0.1069
  535MOL0     C70547   7.409   1.744   4.093  0.5759 -0.4724  0.2847
  535MOL0     C70548   7.521   1.802   4.015 -0.1618 -1.0662 -0.1244
  535MOL0     C70549   7.542   1.735   3.871  0.0805  0.2588 -0.7285
  535MOL0     C70550   7.659   1.769   3.785 -0.3518  0.1434  0.3786
  535MOL0     C70551   7.660   1.903   3.720 -0.8527  0.0444  0.4353
  535MOL0     C70552   7.671   2.003   3.647  1.4438  0.1842 -0.1210
  535MOL0     C70553   7.172   1.669   4.221 -0.5900 -0.4867  0.4048
  535MOL0     C70554   7.054   1.646   4.276  0.0334 -0.1598 -0.1053
  535MOL0     H70555   6.461   1.714   4.107 -1.2747  0.0710 -0.6251
  535MOL0     H70556   6.232   1.607   4.159 -0.9424 -5.7889 -0.2771
  535MOL0     H70557   6.190   1.367   4.506  1.8161  2.3729 -1.3636
  535MOL0     H70558   6.222   1.226   4.392  0.1546 -0.7726  2.4187
  535MOL0     H70559   5.957   1.368   4.396  1.9677  1.8581 -0.3621
  535MOL0     H70560   5.987   1.225   4.501  2.2134 -1.0262 -0.1431
  535MOL0     H70561   6.079   1.178   4.216  0.8454 -4.9563  1.6959
  535MOL0     H70562   5.903   1.232   4.239 -2.3123 -1.0367  1.9115
  535MOL0     H70563   6.030   1.006   4.384  0.9192  0.3231 -0.9717
  535MOL0     H70564   5.865   1.067   4.398  0.0261  0.1550 -1.5192
  535MOL0     H70565   5.972   0.974   4.127 -0.8568  4.3954 -1.8276
  535MOL0     H70566   5.807   1.027   4.158 -0.9422 -2.1231 -1.1814
  535MOL0     H70567   5.771   0.837   4.312  0.6012  0.1510 -0.7598
  535MOL0     H70568   5.947   0.793   4.284  0.3969  2.1576  1.7792
  535MOL0     H70569   5.881   0.750   4.043 -0.3120 -0.8713 -0.4035
  535MOL0     H70570   5.829   0.633   4.152 -2.0265 -0.2077  0.6465
  535MOL0     H70571   5.649   0.691   3.989  1.6235  2.0543 -2.7987
  535MOL0     H70572   5.670   0.853   4.014 -2.0541  0.0061 -0.4756
  535MOL0     H70573   5.462   0.943   4.135  2.1984  0.7861  0.0537
  535MOL0     H70574   5.315   0.969   4.374 -1.8196  0.9912  0.9050
  535MOL0     H70575   5.251   0.821   4.422  1.0309  0.8515  0.0183
  535MOL0     H70576   5.207   0.954   4.152  2.7315 -1.3465 -0.1300
  535MOL0     H70577   5.086   0.939   4.292 -3.1177 -3.1546 -1.4162
  535MOL0     H70578   5.038   0.778   4.090  1.0760 -1.2664 -2.1123
  535MOL0     H70579   5.201   0.723   4.107 -1.8185  0.4809 -1.9127
  535MOL0     H70580   5.149   0.615   4.319  2.4783  3.6897 -0.5311
  535MOL0     H70581   5.020   0.583   4.197 -1.7145  1.3201  1.6729
  535MOL0     H70582   4.862   0.474   4.413  3.8220  2.1990 -1.6273
  535MOL0     H70583   4.623   0.419   4.364  0.9692 -1.1356 -2.5327
  535MOL0     H70584   4.241   0.302   4.449 -0.2873  3.8238  0.8255
  535MOL0     H70585   4.001   0.213   4.396 -1.3076  2.1079  0.2100
  535MOL0     H70586   3.765   0.313   4.275 -0.1903 -0.5733  0.5708
  535MOL0     H70587   3.818   0.151   4.323  1.4369 -0.7565 -0.2414
  535MOL0     H70588   3.651   0.064   4.173 -1.4390 -0.3769 -1.7108
  535MOL0     H70589   3.648   0.223   4.080 -1.8305  3.0783  0.9703
  535MOL0     H70590   3.557   0.311   4.297  1.9653 -0.2269 -1.4279
  535MOL0     H70591   3.522   0.153   4.350  0.5522  0.1020  0.3491
  535MOL0     H70592   3.324   0.277   4.222  0.6244  1.4632  0.0990
  535MOL0     H70593   3.422   0.268   4.082 -4.6226  0.0220 -1.1195
  535MOL0     H70594   3.339   0.020   4.238  0.9854  1.4017  1.4234
  535MOL0     H70595   3.448   0.009   4.095  0.9153 -0.0555  1.2245
  535MOL0     H70596   3.209  -0.052   4.030 -0.3243  0.1753  0.1367
  535MOL0     H70597   3.288   0.076   3.948  1.0978 -0.4505 -0.1076
  535MOL0     H70598   3.129   0.170   4.191  1.6769  3.1473 -0.3118
  535MOL0     H70599   3.169   0.246   4.035 -1.6793 -0.6933 -2.5303
  535MOL0     H70600   2.993   0.130   3.912 -2.4078 -1.1753  0.4637
  535MOL0     H70601   2.931   0.207   4.054  0.2530  0.2164  2.7380
  535MOL0     H70602   4.055   0.368   4.002  0.3767  3.0981  0.1546
  535MOL0     H70603   4.275   0.476   4.060  1.1709 -1.3657  0.3618
  535MOL0     H70604   4.550   0.842   4.278 -1.1816 -0.5003  1.6622
  535MOL0     H70605   4.784   0.882   4.305  0.4488 -0.9405 -0.2318
  535MOL0     H70606   6.418   1.360   4.446 -2.6155  0.4878 -0.8142
  535MOL0     H70607   6.647   1.431   4.377  0.3468 -1.9406  0.0064
  535MOL0     H70608   6.842   1.672   4.012 -0.5581 -0.4324  0.1646
  535MOL0     H70609   7.063   1.705   3.900  1.5077 -0.4698  0.2162
  535MOL0     H70610   7.439   1.642   4.120  1.4024 -0.2363  0.2856
  535MOL0     H70611   7.394   1.811   4.178 -0.8072  5.1467 -3.8039
  535MOL0     H70612   7.509   1.910   4.006 -0.2394 -1.1835 -1.7048
  535MOL0     H70613   7.614   1.790   4.072 -1.5182 -0.1116  2.4150
  535MOL0     H70614   7.451   1.763   3.818 -0.8560 -0.9528  0.1755
  535MOL0     H70615   7.546   1.628   3.894  1.8839  0.6810  1.3339
  535MOL0     H70616   7.754   1.763   3.838  1.4073 -0.4337 -2.6181
  535MOL0     H70617   7.663   1.688   3.711 -1.9386 -1.3893  1.8619
  535MOL0     H70618   7.684   2.094   3.592 -1.1507  3.0415  3.4731
  535MOL0     H70619   7.251   1.679   4.295 -1.5142 -2.2919  1.7223
  535MOL0     H70620   7.057   1.633   4.384  3.2160 -1.3075 -0.2237
  536MOL0     O70621   9.222   3.457   2.791  0.1811 -0.4241  0.3105
  536MOL0     C70622   9.225   3.407   2.680  0.3728  0.0096 -0.3362
  536MOL0     O70623   9.148   3.442   2.572  0.2116  0.0624  0.2181
  536MOL0     C70624   9.023   3.501   2.580 -0.6008 -0.1129 -0.9466
  536MOL0     C70625   8.948   3.508   2.698  0.3993 -0.7011  0.1359
  536MOL0     C70626   8.820   3.563   2.703 -0.2620 -0.6913  0.1329
  536MOL0     C70627   8.767   3.624   2.591  0.2934  0.5215  0.5395
  536MOL0     O70628   8.651   3.702   2.593  0.0749  0.1272  0.2883
  536MOL0     C70629   8.553   3.674   2.490  1.0250 -0.2852 -0.2024
  536MOL0     C70630   8.424   3.741   2.534 -0.4157 -0.0150  1.2825
  536MOL0     C70631   8.324   3.740   2.419  1.0590 -0.0075 -0.1501
  536MOL0     C70632   8.189   3.794   2.478 -1.5596  0.2399 -0.8968
  536MOL0     C70633   8.073   3.769   2.387  0.4732 -0.5048  0.3571
  536MOL0     C70634   7.932   3.809   2.439 -0.7548  0.9808  0.2366
  536MOL0     C70635   7.819   3.809   2.329  0.0859  0.0585  0.3619
  536MOL0     C70636   7.806   3.940   2.259 -0.3558  0.1976  0.4794
  536MOL0     N70637   7.670   3.929   2.187 -0.5861 -1.0389  0.3318
  536MOL0     C70638   7.556   3.994   2.227  0.3263  0.7114 -0.2506
  536MOL0     C70639   7.476   4.000   2.117  0.2868  0.9248 -0.5448
  536MOL0     C70640   7.340   4.073   2.110  0.2829  0.0879 -0.0463
  536MOL0     C70641   7.342   4.230   2.118  0.1340  0.8973  0.4332
  536MOL0     C70642   7.325   4.301   1.981  0.7965  0.2652  0.1561
  536MOL0     C70643   7.309   4.456   1.999  0.4094 -0.4136 -0.3164
  536MOL0     O70644   7.232   4.510   2.108  0.3179  0.0513 -0.4739
  536MOL0     C70645   7.100   4.520   2.101 -0.3621 -0.5829  0.0890
  536MOL0     C70646   7.013   4.461   2.002  0.2294  0.1969 -0.9229
  536MOL0     C70647   6.877   4.494   2.007  0.0653 -1.0376  0.1112
  536MOL0     C70648   6.821   4.580   2.104  0.5285 -0.4218 -0.5961
  536MOL0     C70649   6.674   4.592   2.110 -0.0436 -0.0375  0.2095
  536MOL0     O70650   6.607   4.528   2.009  0.6668 -0.9545  0.3847
  536MOL0     C70651   6.469   4.526   2.014  0.1224 -0.0090  1.2718
  536MOL0     C70652   6.394   4.491   2.128 -0.0386  0.5939 -0.2846
  536MOL0     C70653   6.253   4.488   2.114  0.0864 -0.1731  0.7906
  536MOL0     C70654   6.184   4.501   1.997  0.0205 -0.5254  0.0529
  536MOL0     O70655   6.053   4.480   1.972  0.3395  0.6770  0.5390
  536MOL0     C70656   5.966   4.478   2.084  0.0524 -1.1701  0.0394
  536MOL0     C70657   5.826   4.447   2.029 -0.1622 -0.3742  0.4356
  536MOL0     C70658   5.714   4.415   2.126 -0.3694  0.5381  0.2430
  536MOL0     C70659   5.579   4.409   2.053  0.1512  0.2221 -0.2756
  536MOL0     C70660   5.511   4.544   2.032 -0.8551 -0.0163 -0.2872
  536MOL0     C70661   5.377   4.529   1.965  0.9794 -0.2701  0.9108
  536MOL0     C70662   5.321   4.666   1.934  0.4622  0.3330  1.4049
  536MOL0     C70663   5.376   4.726   1.808 -0.0807  0.4116  0.2709
  536MOL0    Cl70664   5.260   4.842   1.743  0.3854 -0.1479  0.4825
  536MOL0     C70665   6.253   4.533   1.883 -0.7402  0.1475  0.5984
  536MOL0     C70666   6.398   4.546   1.898 -0.4012  0.2529 -0.0079
  536MOL0     O70667   6.627   4.650   2.197 -0.7967 -0.6209 -0.3685
  536MOL0     C70668   6.914   4.640   2.199  0.9973  0.0141  0.3479
  536MOL0     C70669   7.049   4.624   2.186 -0.9426 -0.0751  0.4545
  536MOL0     N70670   7.537   3.936   2.014  0.1858 -0.1953 -0.4155
  536MOL0     N70671   7.657   3.895   2.053 -0.4069  0.1585  0.3709
  536MOL0     C70672   8.835   3.622   2.477  0.2482 -0.1539  0.2288
  536MOL0     C70673   8.960   3.555   2.467 -0.1793  0.2834 -0.3127
  536MOL0     C70674   9.333   3.319   2.658 -0.1120  0.7310  0.2433
  536MOL0     C70675   9.431   3.270   2.757  0.2028 -0.7723  0.6075
  536MOL0     C70676   9.516   3.164   2.729  0.7725  0.5163 -0.5682
  536MOL0     C70677   9.513   3.104   2.606  0.3707 -0.3890  0.2016
  536MOL0     O70678   9.589   2.997   2.568 -0.9024 -0.0411 -0.4259
  536MOL0     C70679   9.686   2.947   2.652 -0.0057 -0.0324 -0.4283
  536MOL0     C70680   9.789   2.870   2.577  0.1068 -1.1613  0.1999
  536MOL0     C70681   9.744   2.744   2.504  0.5114  0.2993 -0.5265
  536MOL0     C70682   9.846   2.687   2.402  0.6946  0.0446  0.0584
  536MOL0     C70683   9.953   2.620   2.466 -0.2864  0.4076 -0.3274
  536MOL0     C70684  10.021   2.535   2.523  0.1033 -0.9204 -0.4974
  536MOL0     C70685   9.428   3.150   2.506  0.1009  0.4145  0.5621
  536MOL0     C70686   9.350   3.263   2.530  0.0097  0.0458 -0.0577
  536MOL0     H70687   8.986   3.468   2.791  1.9383 -0.3266 -0.3047
  536MOL0     H70688   8.760   3.563   2.793  1.1598 -0.8179  1.1059
  536MOL0     H70689   8.546   3.565   2.486  2.2428 -0.4136  0.5852
  536MOL0     H70690   8.585   3.719   2.395 -3.8968  0.1761 -1.9391
  536MOL0     H70691   8.449   3.843   2.563  0.7634 -0.0116  0.3402
  536MOL0     H70692   8.389   3.682   2.619  0.0642 -0.9472  0.8447
  536MOL0     H70693   8.326   3.640   2.374  5.3140 -1.0635  1.8157
  536MOL0     H70694   8.348   3.811   2.340 -0.7861 -0.3255 -1.0417
  536MOL0     H70695   8.174   3.742   2.573 -2.8786  0.7751 -0.7968
  536MOL0     H70696   8.199   3.900   2.499  1.0920  0.1177 -1.2023
  536MOL0     H70697   8.064   3.662   2.367 -0.5594 -0.5579  1.0423
  536MOL0     H70698   8.081   3.834   2.299 -1.2801 -0.7410 -0.0068
  536MOL0     H70699   7.946   3.906   2.488 -0.9986  1.4096 -0.5217
  536MOL0     H70700   7.906   3.734   2.513  0.3800 -0.8876 -1.1826
  536MOL0     H70701   7.837   3.727   2.259  0.2417  0.3278  0.0905
  536MOL0     H70702   7.739   3.794   2.402  1.6732 -4.6993  1.4767
  536MOL0     H70703   7.887   3.958   2.188 -1.4666  2.2834 -0.3690
  536MOL0     H70704   7.823   4.028   2.323  0.1708  1.5269 -1.3938
  536MOL0     H70705   7.524   4.008   2.330  1.0366 -1.4166  0.3072
  536MOL0     H70706   7.285   4.049   2.202  1.4235  0.2691  0.7174
  536MOL0     H70707   7.282   4.048   2.021 -0.9649  2.6226 -0.0170
  536MOL0     H70708   7.445   4.251   2.149  0.7027 -4.0100  2.8600
  536MOL0     H70709   7.259   4.260   2.182  0.6251  0.9753  1.0451
  536MOL0     H70710   7.407   4.282   1.911  0.0649  1.7183 -1.1474
  536MOL0     H70711   7.234   4.259   1.937  0.7400  0.9684 -0.4231
  536MOL0     H70712   7.271   4.511   1.913  0.4287  0.7857  0.4233
  536MOL0     H70713   7.403   4.502   2.029  0.8320 -0.9370 -0.8239
  536MOL0     H70714   7.044   4.380   1.936  0.7883 -0.7642  0.4524
  536MOL0     H70715   6.814   4.465   1.924 -0.8759  1.3478 -0.0748
  536MOL0     H70716   6.447   4.456   2.215  0.5969 -2.8584 -1.9043
  536MOL0     H70717   6.202   4.451   2.202 -1.1848 -1.4810 -0.4232
  536MOL0     H70718   5.958   4.569   2.145 -4.7314  0.5189 -2.5443
  536MOL0     H70719   6.001   4.404   2.157 -0.3072 -0.1754  1.2685
  536MOL0     H70720   5.832   4.370   1.952  0.6678  1.5638 -1.5151
  536MOL0     H70721   5.794   4.529   1.966 -1.0208 -1.8484 -1.1302
  536MOL0     H70722   5.718   4.493   2.202 -0.1712 -0.7207  1.5700
  536MOL0     H70723   5.735   4.317   2.171 -0.0349  0.4625 -0.0699
  536MOL0     H70724   5.592   4.357   1.958  0.8232 -0.0375 -0.0409
  536MOL0     H70725   5.506   4.352   2.111 -1.3790  1.9484 -0.3906
  536MOL0     H70726   5.582   4.603   1.973 -0.1512 -2.8849 -2.5667
  536MOL0     H70727   5.501   4.596   2.128  0.0929 -0.6853  0.1941
  536MOL0     H70728   5.308   4.481   2.035 -1.1766 -0.0859 -0.9793
  536MOL0     H70729   5.375   4.462   1.878 -0.5946 -1.1219  1.5823
  536MOL0     H70730   5.214   4.656   1.912  0.7726 -0.8348  0.3815
  536MOL0     H70731   5.328   4.736   2.019  1.5141  0.7132  1.0154
  536MOL0     H70732   5.400   4.648   1.734  1.7826  2.1548 -1.0744
  536MOL0     H70733   5.471   4.777   1.829  0.7836 -0.9443 -0.1675
  536MOL0     H70734   6.206   4.559   1.788 -2.7442  1.1021  1.7827
  536MOL0     H70735   6.453   4.591   1.816  0.3152 -0.4522  0.0720
  536MOL0     H70736   6.885   4.717   2.269 -0.7296 -0.5278  0.2797
  536MOL0     H70737   7.105   4.677   2.261  0.6543  0.2188 -0.8931
  536MOL0     H70738   8.792   3.677   2.395 -1.6628 -1.6834  0.1233
  536MOL0     H70739   9.005   3.557   2.368  1.5968 -2.6742  0.3091
  536MOL0     H70740   9.426   3.313   2.856  0.3131 -0.4719  0.4828
  536MOL0     H70741   9.585   3.124   2.803  3.1030 -1.1401 -3.4071
  536MOL0     H70742   9.643   2.885   2.731  2.7865 -2.8593 -0.9072
  536MOL0     H70743   9.740   3.028   2.701 -0.8291 -1.0981  2.4591
  536MOL0     H70744   9.813   2.942   2.498  0.2418  1.8991  2.8238
  536MOL0     H70745   9.879   2.843   2.633  1.0755  0.7100 -0.3623
  536MOL0     H70746   9.658   2.759   2.439  0.3530 -1.2278 -0.7159
  536MOL0     H70747   9.712   2.663   2.570 -0.8113 -2.1456 -3.8657
  536MOL0     H70748   9.792   2.624   2.331 -2.3226  2.9648 -0.4521
  536MOL0     H70749   9.882   2.780   2.358  0.9100  0.3677  0.9110
  536MOL0     H70750  10.067   2.459   2.583  3.7018  3.3311  2.8939
  536MOL0     H70751   9.424   3.090   2.415 -0.1005 -0.8388  1.3774
  536MOL0     H70752   9.285   3.283   2.446  1.0261 -2.3697 -1.5462
  537MOL0     O70753   5.555   2.832   8.346  0.7732  0.0373 -0.0531
  537MOL0     C70754   5.616   2.937   8.358 -0.3180 -0.0286  1.1213
  537MOL0     O70755   5.560   3.055   8.385  0.3510 -0.4858  0.5224
  537MOL0     C70756   5.420   3.047   8.397 -0.5603  0.3894 -0.1239
  537MOL0     C70757   5.348   2.967   8.489  0.6412 -0.6179  0.0319
  537MOL0     C70758   5.206   2.976   8.491  0.4056 -0.8326 -0.1428
  537MOL0     C70759   5.129   3.063   8.420 -0.6109 -0.6530  0.5507
  537MOL0     O70760   5.000   3.072   8.419  0.4599 -0.5587 -0.2938
  537MOL0     C70761   4.913   2.961   8.445 -0.0762  0.1319  0.2120
  537MOL0     C70762   4.772   3.018   8.426  0.3645 -0.2128 -0.1663
  537MOL0     C70763   4.671   2.909   8.456  0.0687  0.1812 -0.2908
  537MOL0     C70764   4.527   2.951   8.426 -0.3699  0.1506  0.0412
  537MOL0     C70765   4.422   2.835   8.433  0.2009  0.3372 -0.5938
  537MOL0     C70766   4.310   2.860   8.337 -0.7232  0.6128 -0.1744
  537MOL0     C70767   4.194   2.761   8.354  0.5723  0.1683  0.2694
  537MOL0     C70768   4.130   2.709   8.219 -0.4269  0.2658 -0.8694
  537MOL0     N70769   4.219   2.626   8.135 -0.3622  0.4046  0.4690
  537MOL0     C70770   4.270   2.503   8.188 -0.6153 -0.6411 -0.0857
  537MOL0     C70771   4.354   2.461   8.090  0.2781  0.1917 -1.1076
  537MOL0     C70772   4.437   2.338   8.079  0.0587 -0.3936  0.8216
  537MOL0     C70773   4.390   2.217   8.168 -0.1946  0.0594 -0.1055
  537MOL0     C70774   4.251   2.162   8.120 -0.4232  0.7111 -0.6699
  537MOL0     C70775   4.253   2.090   7.987  0.6932 -0.0972  0.1054
  537MOL0     O70776   4.290   1.949   7.989 -0.0321 -0.7585 -0.4691
  537MOL0     C70777   4.422   1.931   7.944 -0.0030  0.5281  0.6161
  537MOL0     C70778   4.457   1.963   7.814 -0.2284  0.1514  0.1656
  537MOL0     C70779   4.582   1.931   7.762 -0.1220 -0.3493  0.2750
  537MOL0     C70780   4.688   1.887   7.847  0.2585 -0.4534 -0.3825
  537MOL0     C70781   4.819   1.840   7.807 -0.0834 -0.0802 -1.1866
  537MOL0     O70782   4.912   1.808   7.904 -0.0875  0.3283  0.2685
  537MOL0     C70783   5.041   1.770   7.872  0.4240  0.8168  0.3226
  537MOL0     C70784   5.085   1.645   7.928 -0.0626 -0.7280  0.3783
  537MOL0     C70785   5.226   1.621   7.928  0.0832 -0.4147 -0.1232
  537MOL0     C70786   5.313   1.706   7.852  0.3648 -0.1052  0.2024
  537MOL0     O70787   5.448   1.674   7.860  0.7417  0.0153 -0.1844
  537MOL0     C70788   5.538   1.731   7.756  0.3419 -0.5795 -0.3629
  537MOL0     C70789   5.679   1.671   7.786  0.2576  0.6614 -0.7778
  537MOL0     C70790   5.786   1.760   7.726  0.3865  0.2478 -0.4340
  537MOL0     C70791   5.913   1.760   7.809  0.1683  0.2414 -0.1874
  537MOL0     C70792   6.029   1.823   7.739  0.4847 -0.2267  0.7239
  537MOL0     C70793   6.114   1.718   7.656  0.1251 -0.1758  0.6300
  537MOL0     C70794   6.211   1.786   7.567 -0.7188  0.0617  0.6231
  537MOL0     C70795   6.252   1.692   7.447  0.2747  0.4247  0.4850
  537MOL0    Cl70796   6.361   1.560   7.501 -0.3596  0.3206  0.3244
  537MOL0     C70797   5.258   1.815   7.778 -0.1730 -0.2491 -0.3734
  537MOL0     C70798   5.123   1.837   7.786 -0.3913 -0.2313 -0.4171
  537MOL0     O70799   4.834   1.815   7.691  0.4365 -0.0834 -0.1028
  537MOL0     C70800   4.651   1.858   7.985  0.1454 -0.1520  0.2097
  537MOL0     C70801   4.527   1.887   8.030  0.4925 -0.7798 -0.3178
  537MOL0     N70802   4.347   2.550   7.987 -0.4841 -0.2024 -0.7067
  537MOL0     N70803   4.270   2.650   8.010 -0.0658 -0.8205  1.1866
  537MOL0     C70804   5.203   3.144   8.336 -0.0073  0.8873  0.5735
  537MOL0     C70805   5.345   3.130   8.320  0.5807 -0.4031 -0.0582
  537MOL0     C70806   5.758   2.938   8.336 -0.6784 -0.0687  0.4558
  537MOL0     C70807   5.839   2.825   8.304  0.0630 -0.1414  0.4371
  537MOL0     C70808   5.976   2.833   8.279  0.0436 -0.5425  0.0577
  537MOL0     C70809   6.035   2.959   8.277 -0.3215  0.0259  0.0130
  537MOL0     O70810   6.166   2.984   8.243 -0.1260  0.2734 -0.0101
  537MOL0     C70811   6.258   2.872   8.223 -0.3158  0.4423  0.4479
  537MOL0     C70812   6.404   2.921   8.238 -0.0377  0.1513  0.1022
  537MOL0     C70813   6.509   2.814   8.246 -0.2663 -0.6979  0.9129
  537MOL0     C70814   6.521   2.732   8.116  0.5436  0.2632 -0.4703
  537MOL0     C70815   6.436   2.613   8.107  0.6906 -0.4888 -0.2977
  537MOL0     C70816   6.363   2.521   8.102 -0.3924 -1.1874 -0.4850
  537MOL0     C70817   5.966   3.071   8.313  0.6951  0.3675 -0.4376
  537MOL0     C70818   5.831   3.060   8.340  0.5755  0.1620 -0.2803
  537MOL0     H70819   5.393   2.910   8.570 -1.1298  0.1780  1.6750
  537MOL0     H70820   5.147   2.917   8.561 -0.4562  0.2327  0.0409
  537MOL0     H70821   4.927   2.926   8.548 -0.6019 -1.0340 -0.0999
  537MOL0     H70822   4.918   2.881   8.371 -1.8275  1.8692 -1.9271
  537MOL0     H70823   4.749   3.057   8.326 -2.0553  2.4322  1.2819
  537MOL0     H70824   4.761   3.096   8.502  4.9888  0.3214  0.2241
  537MOL0     H70825   4.678   2.895   8.564 -0.7826 -2.1371 -0.4762
  537MOL0     H70826   4.693   2.818   8.399 -1.6209  1.2505 -2.8333
  537MOL0     H70827   4.497   3.034   8.491  0.7828  2.1329 -1.8071
  537MOL0     H70828   4.523   3.003   8.330  0.5323  0.9246  0.4143
  537MOL0     H70829   4.384   2.832   8.536  1.6348 -2.4604 -0.0294
  537MOL0     H70830   4.458   2.733   8.415 -0.1877  0.2492 -0.8721
  537MOL0     H70831   4.360   2.848   8.241  1.3803 -0.0672  0.9336
  537MOL0     H70832   4.270   2.961   8.347 -1.1547  0.7226 -2.4746
  537MOL0     H70833   4.222   2.672   8.412  0.9951 -1.2723 -2.0374
  537MOL0     H70834   4.115   2.808   8.413  1.0858  0.4908  0.7120
  537MOL0     H70835   4.116   2.805   8.169  1.9795  1.8166  1.1775
  537MOL0     H70836   4.033   2.660   8.235 -0.3831  0.5360  0.3632
  537MOL0     H70837   4.262   2.451   8.283 -0.0001 -0.8982 -0.1714
  537MOL0     H70838   4.542   2.365   8.095 -0.0929  1.9191 -1.5390
  537MOL0     H70839   4.437   2.309   7.973  1.6947 -1.3480  1.0488
  537MOL0     H70840   4.393   2.258   8.270  0.1794 -0.4546  0.0937
  537MOL0     H70841   4.466   2.138   8.170  3.7557  3.4744  0.3881
  537MOL0     H70842   4.206   2.096   8.196 -4.3789  1.4404 -2.1720
  537MOL0     H70843   4.178   2.243   8.117  0.6367  1.9626  2.4103
  537MOL0     H70844   4.305   2.153   7.914 -1.4903  1.2254 -0.3756
  537MOL0     H70845   4.146   2.091   7.968  0.1398  2.6096  2.6766
  537MOL0     H70846   4.381   1.983   7.739 -0.9782 -2.0043  0.2912
  537MOL0     H70847   4.600   1.938   7.655 -1.1832  1.9062  0.1943
  537MOL0     H70848   5.029   1.566   7.976  2.2329 -3.4657 -1.1949
  537MOL0     H70849   5.265   1.523   7.955  2.2399  0.6237  0.6901
  537MOL0     H70850   5.529   1.839   7.771 -1.6818 -0.6864 -0.5899
  537MOL0     H70851   5.499   1.709   7.657  1.7332 -1.1859 -0.7999
  537MOL0     H70852   5.695   1.571   7.746  0.5571 -0.1402  1.2578
  537MOL0     H70853   5.706   1.675   7.892 -1.2745  1.1263 -0.3824
  537MOL0     H70854   5.751   1.864   7.722  0.6368  0.6960  3.9527
  537MOL0     H70855   5.807   1.720   7.626  0.2423 -2.5843  0.5627
  537MOL0     H70856   5.897   1.823   7.897 -0.6861  0.7698 -0.7134
  537MOL0     H70857   5.934   1.659   7.847 -0.1429 -0.2137 -1.1847
  537MOL0     H70858   6.102   1.859   7.812  3.2970 -2.5455 -0.7453
  537MOL0     H70859   6.003   1.907   7.674 -3.3246  0.4908  2.8367
  537MOL0     H70860   6.047   1.653   7.599 -1.7496  0.5660  1.8468
  537MOL0     H70861   6.168   1.649   7.722  1.9848 -0.4516 -1.1060
  537MOL0     H70862   6.171   1.880   7.528 -0.5652  0.3460  1.1462
  537MOL0     H70863   6.304   1.785   7.625  0.0198 -2.3497 -0.4586
  537MOL0     H70864   6.316   1.741   7.373  0.6923 -1.4170 -0.4511
  537MOL0     H70865   6.165   1.647   7.400  0.4309  1.1632 -0.5438
  537MOL0     H70866   5.320   1.877   7.715 -0.6889  1.0218  0.3290
  537MOL0     H70867   5.075   1.902   7.714 -1.1240 -1.1852 -0.8079
  537MOL0     H70868   4.719   1.809   8.054 -0.2667  0.2263  0.9051
  537MOL0     H70869   4.483   1.872   8.128 -0.8715 -1.8577 -1.0444
  537MOL0     H70870   5.158   3.225   8.278  1.2657  0.4936 -1.0610
  537MOL0     H70871   5.401   3.192   8.250  1.6638 -0.7726  0.4564
  537MOL0     H70872   5.790   2.728   8.304  1.6670 -1.0380  2.4606
  537MOL0     H70873   6.040   2.754   8.241  2.4666  1.8931 -1.3141
  537MOL0     H70874   6.249   2.820   8.128 -2.6549 -0.8415  1.2975
  537MOL0     H70875   6.244   2.792   8.296 -1.1616 -2.4310 -2.6215
  537MOL0     H70876   6.425   2.994   8.160 -0.3464 -0.5133 -0.6099
  537MOL0     H70877   6.403   2.977   8.332 -2.1781 -1.3011  1.0264
  537MOL0     H70878   6.505   2.743   8.329  2.7384 -0.5452  1.3075
  537MOL0     H70879   6.605   2.865   8.264 -0.8663 -0.4859  4.2167
  537MOL0     H70880   6.512   2.799   8.030 -2.3197 -0.7225 -1.0503
  537MOL0     H70881   6.622   2.690   8.117 -0.3890 -2.1196  0.5167
  537MOL0     H70882   6.301   2.434   8.109 -1.5254 -0.2750  2.0427
  537MOL0     H70883   6.024   3.162   8.303 -0.6581  1.2128 -0.9279
  537MOL0     H70884   5.776   3.153   8.345  0.3060  0.3484 -3.9268
  538MOL0     O70885   4.540   1.489   2.596  0.6851 -0.3407 -0.1248
  538MOL0     C70886   4.593   1.377   2.624 -0.0581 -0.2581  0.3112
  538MOL0     O70887   4.522   1.261   2.628 -0.4785 -0.4495 -0.0227
  538MOL0     C70888   4.394   1.252   2.572 -0.1191  0.7470  0.7601
  538MOL0     C70889   4.296   1.340   2.621 -1.3205 -0.2269 -0.0724
  538MOL0     C70890   4.165   1.313   2.584 -0.7939 -0.4632 -0.7703
  538MOL0     C70891   4.135   1.214   2.489  0.3078 -0.1530  0.5311
  538MOL0     O70892   4.016   1.189   2.443  0.8852 -0.9323  0.1142
  538MOL0     C70893   3.909   1.182   2.531  0.4878  0.1310  0.5334
  538MOL0     C70894   3.796   1.104   2.460 -0.1799 -0.8554 -0.9024
  538MOL0     C70895   3.689   1.058   2.561 -0.0659 -0.1258  0.4211
  538MOL0     C70896   3.636   1.158   2.664 -0.5063  0.4098  0.1543
  538MOL0     C70897   3.507   1.100   2.727 -0.0996  1.1716  0.9180
  538MOL0     C70898   3.379   1.107   2.636 -0.4860 -0.5075  0.2374
  538MOL0     C70899   3.262   1.082   2.744  0.9332  0.4056 -0.7787
  538MOL0     C70900   3.116   1.067   2.684 -0.9841  0.0851  0.9375
  538MOL0     N70901   3.009   1.022   2.776  1.0366 -0.3046 -0.5960
  538MOL0     C70902   3.016   1.006   2.914 -0.5343  0.2415  0.6910
  538MOL0     C70903   2.889   0.983   2.956 -0.0853  0.4947 -0.3143
  538MOL0     C70904   2.855   0.962   3.102 -0.0351  0.4504 -0.6260
  538MOL0     C70905   2.707   0.969   3.133  0.6394 -0.5864 -0.0889
  538MOL0     C70906   2.630   0.840   3.113 -0.2180  0.5149  0.2176
  538MOL0     C70907   2.483   0.872   3.108  0.6806  0.1529  0.1323
  538MOL0     O70908   2.411   0.755   3.065 -0.1250 -0.4939  0.3525
  538MOL0     C70909   2.279   0.774   3.037  0.7654  0.5028  0.3675
  538MOL0     C70910   2.200   0.873   3.098  0.5926  0.0247  1.4175
  538MOL0     C70911   2.064   0.866   3.096  0.1316 -0.2095  1.0593
  538MOL0     C70912   2.001   0.765   3.033  0.6007 -0.8884 -0.1507
  538MOL0     C70913   1.847   0.757   3.031  0.1205 -0.5389 -0.1752
  538MOL0     O70914   1.797   0.666   2.946 -0.8061  0.3479  0.4935
  538MOL0     C70915   1.672   0.604   2.966  0.0782  0.3183 -0.5238
  538MOL0     C70916   1.643   0.494   2.882 -0.9793 -0.0501 -0.1257
  538MOL0     C70917   1.515   0.423   2.899  0.6534  0.4577 -0.4541
  538MOL0     C70918   1.423   0.462   3.002 -0.6442 -0.7635 -0.5285
  538MOL0     O70919   1.309   0.394   3.028  0.0704 -0.2959  0.0161
  538MOL0     C70920   1.184   0.469   3.066  0.4004 -0.2498 -0.1242
  538MOL0     C70921   1.054   0.389   3.019  0.2451 -0.4524  0.1360
  538MOL0     C70922   1.043   0.244   3.073  0.2125 -0.1083 -0.1802
  538MOL0     C70923   0.932   0.176   2.996  0.0294  0.5323  0.0270
  538MOL0     C70924   0.942   0.022   3.024 -0.6786  0.3665 -0.5117
  538MOL0     C70925   0.835  -0.050   2.946  0.2565  0.0961 -1.0975
  538MOL0     C70926   0.766  -0.167   3.023 -0.4372 -0.5095  0.6905
  538MOL0     C70927   0.684  -0.247   2.914 -1.3627 -0.6392 -1.0499
  538MOL0    Cl70928   0.609  -0.386   2.973 -0.1607 -0.0778 -0.3069
  538MOL0     C70929   1.460   0.568   3.077  0.7877  0.0602  0.2061
  538MOL0     C70930   1.578   0.638   3.063  0.0043 -0.5449  0.1535
  538MOL0     O70931   1.791   0.840   3.096  0.2290 -0.1359 -0.1497
  538MOL0     C70932   2.081   0.676   2.952 -0.8536 -0.0221 -0.0318
  538MOL0     C70933   2.219   0.680   2.951  0.6399  0.8087 -0.0049
  538MOL0     N70934   2.809   0.967   2.846  0.2714  0.1139 -0.2807
  538MOL0     N70935   2.879   0.990   2.738 -0.2495  0.1624 -0.1562
  538MOL0     C70936   4.232   1.134   2.443 -0.4881 -1.0271  0.5988
  538MOL0     C70937   4.366   1.149   2.483 -0.4019 -0.2882 -0.0001
  538MOL0     C70938   4.736   1.377   2.651 -0.4514 -0.7967 -0.2914
  538MOL0     C70939   4.784   1.273   2.727  0.1225  0.6225 -0.3689
  538MOL0     C70940   4.919   1.275   2.772  0.0048 -0.9454 -0.7135
  538MOL0     C70941   5.010   1.367   2.718  0.6685 -0.1184  0.8890
  538MOL0     O70942   5.140   1.346   2.744  0.2146  0.2990 -0.2691
  538MOL0     C70943   5.234   1.430   2.689 -0.3922 -0.7875  0.0773
  538MOL0     C70944   5.371   1.384   2.744  0.6443  0.2680 -1.0487
  538MOL0     C70945   5.460   1.502   2.775  0.2771  0.3420 -0.0834
  538MOL0     C70946   5.611   1.470   2.759 -0.0337 -0.4025  0.4828
  538MOL0     C70947   5.694   1.593   2.780 -0.6603 -0.3295  0.7728
  538MOL0     C70948   5.743   1.704   2.798  0.1321 -0.6060 -0.4051
  538MOL0     C70949   4.957   1.482   2.651  0.4113 -0.3201 -0.2424
  538MOL0     C70950   4.816   1.493   2.634 -0.4526  0.4863  0.7828
  538MOL0     H70951   4.314   1.427   2.682 -2.8486  1.3062 -1.6966
  538MOL0     H70952   4.077   1.361   2.626 -0.1014 -0.5168  0.8356
  538MOL0     H70953   3.867   1.281   2.550  0.7334 -0.1458  2.7431
  538MOL0     H70954   3.928   1.128   2.624 -0.4296 -0.1116  0.5907
  538MOL0     H70955   3.851   1.015   2.430 -2.5168 -2.7123  0.0095
  538MOL0     H70956   3.749   1.163   2.381  1.0264  2.9881  0.9879
  538MOL0     H70957   3.737   0.970   2.604  2.4383  0.4342 -0.9974
  538MOL0     H70958   3.601   1.020   2.507 -1.6765  0.8620  2.2423
  538MOL0     H70959   3.713   1.175   2.739  0.0403 -2.5771  0.3792
  538MOL0     H70960   3.606   1.256   2.626 -0.2717  0.9964  1.4145
  538MOL0     H70961   3.479   1.152   2.819 -1.4871  0.1298  1.1120
  538MOL0     H70962   3.528   0.996   2.755 -3.3775  0.1455  0.0368
  538MOL0     H70963   3.394   1.030   2.559  0.2326  0.0272 -0.1742
  538MOL0     H70964   3.384   1.207   2.590 -0.4037  0.4694  2.2570
  538MOL0     H70965   3.287   0.986   2.790 -0.1727 -0.1026 -1.2181
  538MOL0     H70966   3.259   1.153   2.826  0.5513 -0.9673  0.4399
  538MOL0     H70967   3.127   0.997   2.601  2.7522  0.8777  0.5555
  538MOL0     H70968   3.092   1.168   2.648  0.9784  0.5000  0.6750
  538MOL0     H70969   3.112   1.011   2.964  0.5497  1.5530 -1.3939
  538MOL0     H70970   2.914   1.028   3.166 -0.8444 -0.7526  1.4520
  538MOL0     H70971   2.886   0.862   3.135 -0.0507  0.4085 -0.7374
  538MOL0     H70972   2.662   1.052   3.078 -0.0197 -0.5890  0.4418
  538MOL0     H70973   2.700   0.996   3.238  2.3704  2.0296 -0.5441
  538MOL0     H70974   2.663   0.776   3.031 -0.5376  1.1724 -0.4305
  538MOL0     H70975   2.657   0.774   3.197  4.1253 -0.4637 -1.6381
  538MOL0     H70976   2.467   0.957   3.040  0.2472  1.4126  1.7222
  538MOL0     H70977   2.439   0.901   3.205  0.0846 -0.0623 -0.0677
  538MOL0     H70978   2.247   0.954   3.154 -1.3883  1.6353  0.8583
  538MOL0     H70979   2.011   0.927   3.169 -1.0214 -3.9867  3.7030
  538MOL0     H70980   1.721   0.460   2.814 -2.5276 -1.7509 -1.1228
  538MOL0     H70981   1.498   0.340   2.831  0.0961 -1.5330  1.9621
  538MOL0     H70982   1.189   0.562   3.010  1.2050  1.0560  1.9894
  538MOL0     H70983   1.170   0.483   3.174  0.2542 -2.6353  0.2292
  538MOL0     H70984   1.063   0.383   2.911 -0.7199  0.6931 -0.0214
  538MOL0     H70985   0.962   0.441   3.046 -0.6105 -2.0918  0.4887
  538MOL0     H70986   1.024   0.231   3.180 -1.0253 -0.0236 -0.3710
  538MOL0     H70987   1.145   0.206   3.059  1.9946  3.1152  2.5377
  538MOL0     H70988   0.830   0.209   3.021 -1.2011 -0.6575 -2.9930
  538MOL0     H70989   0.927   0.202   2.890 -3.3586  4.1222  0.8035
  538MOL0     H70990   0.914   0.000   3.127 -0.0181  2.1108  0.0717
  538MOL0     H70991   1.040  -0.026   3.020 -2.2751 -3.3447  0.9089
  538MOL0     H70992   0.892  -0.080   2.858  1.8683  2.3181 -0.8930
  538MOL0     H70993   0.755   0.019   2.917 -0.0688  0.1585 -0.0824
  538MOL0     H70994   0.840  -0.232   3.071  0.3096 -0.3268 -0.1797
  538MOL0     H70995   0.707  -0.122   3.104  1.4471 -1.6123  2.8080
  538MOL0     H70996   0.756  -0.284   2.840  0.4882 -0.2604  0.4892
  538MOL0     H70997   0.616  -0.179   2.861 -0.9185  0.5736 -0.0959
  538MOL0     H70998   1.405   0.610   3.161  0.4311  0.1620 -0.0796
  538MOL0     H70999   1.600   0.722   3.128 -0.6689 -0.2392 -0.0083
  538MOL0     H71000   2.035   0.594   2.898 -0.5841 -0.5952  0.5936
  538MOL0     H71001   2.276   0.608   2.894  0.7041  1.4037 -0.7129
  538MOL0     H71002   4.195   1.059   2.374  1.3380 -1.0406 -0.4607
  538MOL0     H71003   4.444   1.082   2.448  0.7016  1.7414 -1.6217
  538MOL0     H71004   4.726   1.184   2.745  2.8267 -2.0436 -3.5101
  538MOL0     H71005   4.950   1.192   2.835  0.1957 -0.8247 -0.6471
  538MOL0     H71006   5.219   1.536   2.711 -1.0778 -0.1801 -2.8117
  538MOL0     H71007   5.239   1.411   2.581  1.4663 -1.5073  0.2560
  538MOL0     H71008   5.359   1.323   2.834  0.7333  0.5492 -0.8438
  538MOL0     H71009   5.421   1.317   2.673 -2.6987 -2.1139 -1.3628
  538MOL0     H71010   5.431   1.541   2.873  0.5079 -1.4869  0.7464
  538MOL0     H71011   5.444   1.585   2.706  1.6908  0.2343 -0.5601
  538MOL0     H71012   5.640   1.406   2.843 -0.0911 -3.1036 -1.4622
  538MOL0     H71013   5.627   1.426   2.661 -0.0998 -0.3986  0.4696
  538MOL0     H71014   5.803   1.791   2.816  2.1605 -2.0886  0.4645
  538MOL0     H71015   5.013   1.568   2.616 -0.1324 -0.7864 -2.4055
  538MOL0     H71016   4.767   1.580   2.593 -0.5418  0.5587  1.0442
  539MOL0     O71017   6.996   6.631   1.295  0.4100 -0.1819  0.3585
  539MOL0     C71018   7.030   6.728   1.226  0.6242 -0.0314  0.6232
  539MOL0     O71019   6.947   6.821   1.159 -0.3443 -0.0911  0.8437
  539MOL0     C71020   6.809   6.801   1.162 -0.5900 -0.6824  0.1208
  539MOL0     C71021   6.730   6.901   1.220  0.5906 -1.1460  0.8504
  539MOL0     C71022   6.597   6.893   1.231 -0.7365 -0.4573  0.3952
  539MOL0     C71023   6.533   6.783   1.191  0.0863 -0.4580 -0.1744
  539MOL0     O71024   6.394   6.778   1.205  0.8030 -0.7754 -0.1393
  539MOL0     C71025   6.321   6.698   1.111 -0.1833  0.2726 -0.3011
  539MOL0     C71026   6.185   6.774   1.104 -0.1736  0.2832  0.0239
  539MOL0     C71027   6.129   6.768   0.961 -0.9972  1.6041 -0.1159
  539MOL0     C71028   6.186   6.866   0.872  0.3704  0.6933  0.0445
  539MOL0     C71029   6.165   6.849   0.725 -0.2566  0.1374 -0.6163
  539MOL0     C71030   6.023   6.866   0.671  0.3283  0.0829 -0.0005
  539MOL0     C71031   5.958   6.996   0.723  0.3951 -0.0672  0.3585
  539MOL0     C71032   5.819   7.013   0.659  0.8937 -0.1280 -0.4896
  539MOL0     N71033   5.762   7.143   0.700 -0.4980 -0.3021  0.7309
  539MOL0     C71034   5.706   7.233   0.609  0.6889  0.2654 -0.5388
  539MOL0     C71035   5.652   7.325   0.684  0.3010 -0.7269 -0.1628
  539MOL0     C71036   5.590   7.444   0.614 -0.1164  0.0818  0.8259
  539MOL0     C71037   5.444   7.420   0.565 -0.2864  0.6122 -0.1749
  539MOL0     C71038   5.347   7.396   0.679 -0.3689 -0.2668  0.0331
  539MOL0     C71039   5.212   7.348   0.637  0.3716  0.4279  0.1447
  539MOL0     O71040   5.166   7.452   0.547  0.0456  0.4395 -0.2375
  539MOL0     C71041   5.034   7.460   0.508  0.3167 -0.6026  0.8566
  539MOL0     C71042   5.005   7.563   0.413  0.1708  0.5483 -0.6044
  539MOL0     C71043   4.877   7.604   0.377  0.2382 -0.3778  0.1780
  539MOL0     C71044   4.774   7.519   0.418 -0.5750  0.3889  0.4040
  539MOL0     C71045   4.629   7.545   0.366 -0.8437  0.4959  0.5191
  539MOL0     O71046   4.538   7.435   0.382  0.7769 -0.0580 -0.6094
  539MOL0     C71047   4.412   7.458   0.335  0.4716  0.3281  0.2895
  539MOL0     C71048   4.304   7.418   0.413  0.0083  0.0941 -0.7685
  539MOL0     C71049   4.172   7.433   0.368 -0.2266 -0.1636 -0.0260
  539MOL0     C71050   4.146   7.494   0.241  1.1410 -0.1752 -0.1549
  539MOL0     O71051   4.010   7.513   0.215  0.0065 -0.1071  0.1194
  539MOL0     C71052   3.982   7.563   0.088  0.0322 -0.5351 -0.0984
  539MOL0     C71053   3.836   7.592   0.081  0.8513 -0.0570  0.7534
  539MOL0     C71054   3.749   7.462   0.116 -0.2525  0.1149  0.1520
  539MOL0     C71055   3.593   7.477   0.115 -0.5876  0.5387 -0.1780
  539MOL0     C71056   3.524   7.339   0.117 -0.2692 -0.6482 -0.5409
  539MOL0     C71057   3.371   7.346   0.116 -0.4555 -0.0243  0.0876
  539MOL0     C71058   3.314   7.263   0.228  0.6713  0.0898  0.9338
  539MOL0     C71059   3.173   7.210   0.207 -0.6231 -0.2040  0.2533
  539MOL0    Cl71060   3.068   7.356   0.220  0.1891 -0.5170 -0.3161
  539MOL0     C71061   4.258   7.553   0.171  0.6112 -0.0921 -0.1761
  539MOL0     C71062   4.387   7.530   0.219  0.4270 -1.3303  0.4282
  539MOL0     O71063   4.607   7.657   0.312  0.9673 -0.7391  0.4999
  539MOL0     C71064   4.797   7.407   0.505 -0.2449 -0.7898  0.2624
  539MOL0     C71065   4.923   7.376   0.547  0.5528  0.2428  0.1620
  539MOL0     N71066   5.675   7.293   0.823  0.1009  0.1325 -0.1287
  539MOL0     N71067   5.751   7.186   0.826 -0.3225 -0.5901  0.2738
  539MOL0     C71068   6.605   6.690   1.117  0.8747  0.1679  0.2733
  539MOL0     C71069   6.742   6.697   1.091 -0.8754 -0.0924 -0.6198
  539MOL0     C71070   7.170   6.766   1.234 -0.6503  0.1386  0.0158
  539MOL0     C71071   7.270   6.685   1.298  0.1498  0.1843  0.2286
  539MOL0     C71072   7.405   6.714   1.302 -0.4949 -0.0642  0.4485
  539MOL0     C71073   7.451   6.837   1.251 -0.1672  0.3714  0.6784
  539MOL0     O71074   7.574   6.884   1.290  0.1025  0.3189 -0.2238
  539MOL0     C71075   7.658   6.926   1.175  0.1345 -0.1600 -0.4331
  539MOL0     C71076   7.802   6.962   1.224  0.0382  0.2292 -0.8913
  539MOL0     C71077   7.884   7.039   1.123 -0.5555  0.2887  0.4297
  539MOL0     C71078   8.014   7.084   1.179 -0.1775 -0.8418 -0.4708
  539MOL0     C71079   8.011   7.224   1.222 -0.1216 -0.2888  0.3970
  539MOL0     C71080   8.008   7.332   1.271  0.4328 -0.5269 -0.4155
  539MOL0     C71081   7.354   6.920   1.182  0.3296 -0.0484  0.3813
  539MOL0     C71082   7.216   6.888   1.171  0.2425  0.6556 -0.5074
  539MOL0     H71083   6.774   6.993   1.257 -0.2385 -0.7256  0.8009
  539MOL0     H71084   6.540   6.974   1.277  0.1182  0.9819 -0.9609
  539MOL0     H71085   6.299   6.594   1.136 -2.0441  0.7835  0.3551
  539MOL0     H71086   6.371   6.703   1.014  0.4451 -1.0009 -0.0651
  539MOL0     H71087   6.191   6.878   1.136  0.1443  1.1609 -2.6229
  539MOL0     H71088   6.099   6.727   1.153 -1.2339  1.6155 -0.4915
  539MOL0     H71089   6.020   6.781   0.955 -1.6432 -2.4237  0.1179
  539MOL0     H71090   6.157   6.665   0.937 -0.8242  1.4323  0.7849
  539MOL0     H71091   6.147   6.964   0.902  0.8481  0.4152  1.6198
  539MOL0     H71092   6.294   6.857   0.881  0.2480 -0.2320  0.7737
  539MOL0     H71093   6.187   6.749   0.685 -0.8321 -0.5057  0.6369
  539MOL0     H71094   6.225   6.923   0.671  0.6985 -0.3904 -0.2820
  539MOL0     H71095   5.959   6.785   0.706  2.7287 -2.9799 -2.1115
  539MOL0     H71096   6.028   6.867   0.561  1.5593  2.5704 -0.0084
  539MOL0     H71097   5.941   6.998   0.831 -1.4737  0.2852  0.0964
  539MOL0     H71098   6.024   7.082   0.708  3.2444 -1.6223  2.8693
  539MOL0     H71099   5.753   6.936   0.701 -3.0774  4.0703  2.0049
  539MOL0     H71100   5.828   7.022   0.551  2.2507 -1.7099 -0.5332
  539MOL0     H71101   5.700   7.232   0.501  1.2450 -0.1865 -0.5663
  539MOL0     H71102   5.659   7.483   0.539  0.6868  1.7345  2.3493
  539MOL0     H71103   5.577   7.529   0.681 -1.1362  2.3912 -2.0595
  539MOL0     H71104   5.438   7.324   0.512 -0.7909 -1.0705  2.7009
  539MOL0     H71105   5.407   7.514   0.524  2.8290  2.2077  0.3658
  539MOL0     H71106   5.388   7.326   0.753  2.6640  0.4283 -0.8543
  539MOL0     H71107   5.332   7.493   0.728 -0.2535  0.1946 -0.8214
  539MOL0     H71108   5.136   7.329   0.713  0.6713 -0.3253  0.2716
  539MOL0     H71109   5.228   7.261   0.571  0.9124 -0.0736  0.9189
  539MOL0     H71110   5.088   7.617   0.367  0.3352 -0.6575 -1.7845
  539MOL0     H71111   4.864   7.684   0.305  2.1774  0.8963  1.1378
  539MOL0     H71112   4.329   7.370   0.507 -3.0115 -1.7210 -0.7627
  539MOL0     H71113   4.083   7.399   0.421 -2.2264  2.7485 -1.2227
  539MOL0     H71114   4.013   7.485   0.017  1.9862 -0.6942  0.8664
  539MOL0     H71115   4.027   7.661   0.068  0.2841  0.2295  3.5733
  539MOL0     H71116   3.806   7.611  -0.022  1.0825 -1.6990  0.3469
  539MOL0     H71117   3.807   7.675   0.146 -2.6259 -1.2911  1.0176
  539MOL0     H71118   3.780   7.421   0.212  1.3825 -1.2059 -0.8654
  539MOL0     H71119   3.781   7.382   0.049 -1.5811  1.0692 -1.7302
  539MOL0     H71120   3.567   7.532   0.206  0.6802  1.1987 -0.1805
  539MOL0     H71121   3.576   7.536   0.024  0.6017  1.3855  0.1089
  539MOL0     H71122   3.560   7.284   0.205 -0.0062 -0.6696 -0.6609
  539MOL0     H71123   3.561   7.288   0.027 -0.2382 -1.6504  0.0230
  539MOL0     H71124   3.345   7.316   0.013  4.2679  1.8945 -1.9475
  539MOL0     H71125   3.358   7.452   0.141 -0.5650 -0.3848  1.6484
  539MOL0     H71126   3.373   7.172   0.243 -1.3251 -1.2791  0.8798
  539MOL0     H71127   3.312   7.326   0.317 -0.2916  1.3438  0.0493
  539MOL0     H71128   3.135   7.140   0.282 -1.2369  1.6263  1.7087
  539MOL0     H71129   3.166   7.156   0.111  0.5142  2.5038 -1.4552
  539MOL0     H71130   4.237   7.615   0.085  2.1449 -1.4042 -1.5452
  539MOL0     H71131   4.466   7.562   0.151  1.6947 -1.6729  1.6966
  539MOL0     H71132   4.717   7.337   0.531 -0.5510 -0.0958  1.2620
  539MOL0     H71133   4.933   7.301   0.624 -1.6606  1.3956  1.6813
  539MOL0     H71134   6.548   6.606   1.078  1.0731  0.2365 -0.1614
  539MOL0     H71135   6.791   6.614   1.040 -0.7918 -0.4807  0.0827
  539MOL0     H71136   7.248   6.589   1.344  2.7812  0.0478  1.3963
  539MOL0     H71137   7.464   6.637   1.350 -0.6432  1.9526  4.2039
  539MOL0     H71138   7.610   7.012   1.129  0.7542  0.0566 -0.6823
  539MOL0     H71139   7.659   6.849   1.097  1.5570 -0.9384  0.3130
  539MOL0     H71140   7.798   7.029   1.311 -0.1953 -1.1610  0.2004
  539MOL0     H71141   7.847   6.868   1.258 -1.9166 -0.0337  1.2311
  539MOL0     H71142   7.835   7.130   1.089  0.1432  0.3960 -0.3035
  539MOL0     H71143   7.900   6.970   1.039 -0.6841  0.9572 -0.1516
  539MOL0     H71144   8.038   7.017   1.262 -0.1845 -1.6413 -1.1060
  539MOL0     H71145   8.092   7.072   1.103  0.6793  0.2750  0.1980
  539MOL0     H71146   8.034   7.429   1.309 -0.3227  0.1267 -1.5150
  539MOL0     H71147   7.385   7.014   1.137 -0.3209  0.6920  1.4223
  539MOL0     H71148   7.158   6.958   1.111  2.4004  1.6437 -1.5581
  540MOL0     O71149   7.113   6.793   8.767  0.4162 -0.0245 -0.0262
  540MOL0     C71150   7.082   6.691   8.710  0.4834 -0.1096 -0.0957
  540MOL0     O71151   6.962   6.658   8.663 -0.3522 -0.4898 -0.7651
  540MOL0     C71152   6.866   6.755   8.663 -0.4252  0.4263 -0.0131
  540MOL0     C71153   6.772   6.774   8.767  0.1728 -0.9865 -0.7136
  540MOL0     C71154   6.693   6.886   8.781 -0.1136 -0.6417  0.7534
  540MOL0     C71155   6.692   6.981   8.682  0.4896  0.3447  0.1215
  540MOL0     O71156   6.615   7.094   8.685 -0.6906  0.9402 -0.3409
  540MOL0     C71157   6.483   7.062   8.635 -0.2321 -0.8782  0.2389
  540MOL0     C71158   6.431   7.182   8.551  0.2989 -0.6301 -0.7718
  540MOL0     C71159   6.289   7.136   8.528  1.1285  0.4137  0.7293
  540MOL0     C71160   6.206   7.232   8.441 -0.1765  0.8422 -0.4709
  540MOL0     C71161   6.054   7.216   8.455 -0.3942 -0.2031  0.5101
  540MOL0     C71162   6.026   7.073   8.409  0.3766  0.3987 -0.2680
  540MOL0     C71163   5.897   7.068   8.336 -0.4699 -0.3268  0.4711
  540MOL0     C71164   5.846   6.929   8.292 -0.0842 -0.1677 -0.8812
  540MOL0     N71165   5.873   6.893   8.150  0.8574  0.5769  0.2089
  540MOL0     C71166   5.800   6.926   8.041  0.1324  0.5276 -0.3046
  540MOL0     C71167   5.875   6.889   7.933  0.2363  0.0999 -0.4242
  540MOL0     C71168   5.854   6.930   7.797  0.3270 -0.1040  0.0793
  540MOL0     C71169   5.736   6.848   7.735 -0.2512  0.1745 -0.0469
  540MOL0     C71170   5.745   6.861   7.578 -0.0495  0.8810  0.4061
  540MOL0     C71171   5.647   6.780   7.490  0.6614  0.5788 -0.3273
  540MOL0     O71172   5.510   6.804   7.533 -0.1344 -0.0488 -0.0236
  540MOL0     C71173   5.406   6.770   7.448 -1.2693  0.9616 -0.7965
  540MOL0     C71174   5.337   6.871   7.382 -0.1732  0.4732  0.0390
  540MOL0     C71175   5.229   6.850   7.291 -0.2987 -0.1254 -0.7896
  540MOL0     C71176   5.188   6.718   7.274  0.0532  0.9374 -0.0497
  540MOL0     C71177   5.071   6.699   7.199 -0.4879 -0.5483  0.1919
  540MOL0     O71178   5.064   6.589   7.113  0.5106  0.2780  0.6294
  540MOL0     C71179   4.935   6.551   7.082  0.3781  0.4939 -0.0713
  540MOL0     C71180   4.871   6.594   6.969 -0.2422 -0.2405  0.1118
  540MOL0     C71181   4.747   6.541   6.925 -1.4073 -0.1299  0.3686
  540MOL0     C71182   4.689   6.438   7.000 -0.2591  0.0945 -0.4466
  540MOL0     O71183   4.585   6.365   6.960 -0.0577 -0.0065  0.5043
  540MOL0     C71184   4.511   6.399   6.838 -0.1131  0.1808 -0.8014
  540MOL0     C71185   4.429   6.519   6.867 -0.1368  0.3626  0.5368
  540MOL0     C71186   4.358   6.525   7.001  0.7940 -0.3850  0.3532
  540MOL0     C71187   4.231   6.444   7.001  0.1752 -0.2875 -0.2487
  540MOL0     C71188   4.135   6.481   7.113 -0.0238  0.5397  0.8909
  540MOL0     C71189   4.036   6.365   7.136  0.1816  0.0554  0.1730
  540MOL0     C71190   3.909   6.390   7.225  0.4529 -0.4238 -0.8280
  540MOL0     C71191   3.799   6.290   7.195 -0.9565  0.0312  0.0118
  540MOL0    Cl71192   3.825   6.127   7.249 -0.1283 -0.2418 -0.3353
  540MOL0     C71193   4.739   6.406   7.125 -0.0610 -0.4343  0.9020
  540MOL0     C71194   4.865   6.459   7.161  0.1830  0.7223  0.0948
  540MOL0     O71195   4.973   6.771   7.226 -0.1589  0.6777  0.4326
  540MOL0     C71196   5.251   6.611   7.340 -0.0322  0.0616  0.3728
  540MOL0     C71197   5.357   6.638   7.431  0.0234 -0.0223 -0.5899
  540MOL0     N71198   5.988   6.825   7.973 -0.0894  0.1101  0.2369
  540MOL0     N71199   5.987   6.827   8.107  0.4375 -0.0995 -0.2194
  540MOL0     C71200   6.794   6.976   8.576  0.7026 -0.2080 -0.6286
  540MOL0     C71201   6.874   6.859   8.573  0.3400  0.4067  0.2235
  540MOL0     C71202   7.183   6.587   8.692 -1.0319  0.8361  0.2528
  540MOL0     C71203   7.156   6.456   8.655  0.4303  0.7373  0.5857
  540MOL0     C71204   7.260   6.368   8.627  0.1762  0.0391 -0.4354
  540MOL0     C71205   7.389   6.417   8.606  0.2967 -0.1710  0.3184
  540MOL0     O71206   7.492   6.330   8.564 -0.1996 -0.1930 -0.1773
  540MOL0     C71207   7.465   6.260   8.443  0.2805  0.7083  0.3348
  540MOL0     C71208   7.591   6.192   8.377  0.1106  0.5536 -0.1396
  540MOL0     C71209   7.692   6.296   8.303  0.2645  0.5301  0.1852
  540MOL0     C71210   7.791   6.233   8.210 -0.6501 -0.2285  0.0885
  540MOL0     C71211   7.733   6.184   8.080  0.0010 -0.0656 -0.2297
  540MOL0     C71212   7.695   6.146   7.973 -0.1119  0.6830  0.2569
  540MOL0     C71213   7.413   6.544   8.638 -0.4593 -0.7932 -0.2021
  540MOL0     C71214   7.323   6.628   8.690  0.1370  0.6176 -0.2610
  540MOL0     H71215   6.777   6.695   8.841 -2.1652 -0.5543 -0.0179
  540MOL0     H71216   6.630   6.893   8.869  0.4119 -2.9772  1.4002
  540MOL0     H71217   6.418   7.050   8.722 -1.0066 -0.4889 -0.2720
  540MOL0     H71218   6.485   6.974   8.569  2.8693  0.7755 -2.1148
  540MOL0     H71219   6.472   7.196   8.450  3.6743  1.9874  0.7422
  540MOL0     H71220   6.453   7.270   8.612  1.2477 -1.0870 -0.4372
  540MOL0     H71221   6.239   7.136   8.626 -0.4654  1.5530 -0.0322
  540MOL0     H71222   6.281   7.034   8.490 -2.3118  0.0387  2.1010
  540MOL0     H71223   6.231   7.332   8.478  2.4559  0.1692 -0.1923
  540MOL0     H71224   6.231   7.224   8.335  0.2477 -1.0034 -0.2676
  540MOL0     H71225   6.008   7.291   8.391 -0.2737 -1.0338 -0.5860
  540MOL0     H71226   6.016   7.240   8.554 -2.2938  0.7460 -0.3879
  540MOL0     H71227   6.027   7.010   8.499  2.4180 -0.8540 -1.0863
  540MOL0     H71228   6.104   7.032   8.343  1.0166 -0.1057  0.7846
  540MOL0     H71229   5.818   7.124   8.386 -1.8526  0.2401 -2.1719
  540MOL0     H71230   5.909   7.123   8.242  0.3880 -2.2350 -0.6072
  540MOL0     H71231   5.739   6.931   8.312 -0.5054  0.4318 -2.9094
  540MOL0     H71232   5.895   6.858   8.359 -0.1454  0.6710  0.0642
  540MOL0     H71233   5.703   6.973   8.027  0.8683  1.7783 -1.4250
  540MOL0     H71234   5.946   6.909   7.742  1.1123  0.1263  1.2671
  540MOL0     H71235   5.855   7.039   7.792  0.3938 -0.1398 -0.7988
  540MOL0     H71236   5.631   6.868   7.757 -0.7348 -0.9646 -1.1885
  540MOL0     H71237   5.751   6.744   7.765  0.4209  0.8812  2.3072
  540MOL0     H71238   5.754   6.965   7.546  0.4448  0.3913 -1.1093
  540MOL0     H71239   5.840   6.818   7.545  1.7475  3.0621  2.3417
  540MOL0     H71240   5.674   6.674   7.493  1.8933  0.9050  1.4883
  540MOL0     H71241   5.658   6.799   7.383  0.6294 -0.8066 -0.5964
  540MOL0     H71242   5.378   6.970   7.402 -0.2143 -0.0615  3.3077
  540MOL0     H71243   5.178   6.938   7.254 -0.7189  0.4023  0.9362
  540MOL0     H71244   4.918   6.661   6.898 -1.3081  2.6230  1.9297
  540MOL0     H71245   4.706   6.580   6.833  0.4560  3.4395  0.8680
  540MOL0     H71246   4.446   6.313   6.817 -1.4615  0.8766  0.3902
  540MOL0     H71247   4.579   6.407   6.752 -2.1352 -0.7123 -2.5817
  540MOL0     H71248   4.358   6.536   6.785 -0.7737 -3.4795  0.0971
  540MOL0     H71249   4.499   6.603   6.862  2.1608 -1.4904 -0.6809
  540MOL0     H71250   4.325   6.630   7.003 -0.6903 -0.7434 -1.7958
  540MOL0     H71251   4.416   6.507   7.092 -0.1743  1.9855  1.5247
  540MOL0     H71252   4.175   6.450   6.907 -2.1739  1.6112  1.1453
  540MOL0     H71253   4.258   6.338   7.003 -0.2686 -0.3907  0.2400
  540MOL0     H71254   4.080   6.567   7.075  0.4023 -0.9137 -3.6156
  540MOL0     H71255   4.205   6.498   7.196  1.3350 -2.0120  0.3911
  540MOL0     H71256   4.097   6.287   7.184  1.3420  0.2714 -0.8889
  540MOL0     H71257   4.017   6.322   7.037 -2.3816 -0.1244  0.6992
  540MOL0     H71258   3.943   6.374   7.328 -2.7050  2.5357  0.8664
  540MOL0     H71259   3.876   6.494   7.229 -1.4594 -1.0352  1.0180
  540MOL0     H71260   3.779   6.276   7.088 -1.7450 -0.7896  0.2534
  540MOL0     H71261   3.704   6.321   7.239 -0.4944  0.1368  0.9461
  540MOL0     H71262   4.675   6.345   7.187 -3.5062  0.1243 -1.7873
  540MOL0     H71263   4.890   6.439   7.265 -0.7244  1.0901  0.3893
  540MOL0     H71264   5.217   6.508   7.331  2.0534 -0.6106 -0.2966
  540MOL0     H71265   5.395   6.554   7.489 -0.7610  0.7064  1.0447
  540MOL0     H71266   6.784   7.060   8.509 -1.8593 -0.9784 -1.3483
  540MOL0     H71267   6.938   6.851   8.486 -0.7317  0.7249 -0.6126
  540MOL0     H71268   7.052   6.424   8.654  0.4903  0.4349  2.0851
  540MOL0     H71269   7.238   6.265   8.600  4.1456 -1.5002  1.3940
  540MOL0     H71270   7.420   6.327   8.371 -2.7248 -1.3806  0.0951
  540MOL0     H71271   7.392   6.179   8.451  1.0987  0.0093  1.0418
  540MOL0     H71272   7.639   6.126   8.450 -0.4048 -1.2226 -1.3522
  540MOL0     H71273   7.560   6.124   8.298 -0.5937 -0.0570  0.6508
  540MOL0     H71274   7.754   6.344   8.379 -0.9855  0.9155  0.9924
  540MOL0     H71275   7.632   6.370   8.249 -0.3130  1.5733  2.1599
  540MOL0     H71276   7.872   6.305   8.198 -1.6547  1.5146  2.7278
  540MOL0     H71277   7.853   6.159   8.263  0.1547 -0.2866 -0.9047
  540MOL0     H71278   7.637   6.108   7.891 -3.2199  0.8425  2.2220
  540MOL0     H71279   7.514   6.579   8.617  0.4990 -1.9123  2.0733
  540MOL0     H71280   7.356   6.730   8.705  1.0618  0.2942  0.0004
  541MOL0     O71281   4.767   7.190   3.776  0.1388 -0.2686 -0.6958
  541MOL0     C71282   4.713   7.291   3.725  0.2411 -0.0896 -0.2735
  541MOL0     O71283   4.776   7.412   3.690  0.3296  0.1480 -0.4467
  541MOL0     C71284   4.904   7.404   3.727 -0.6136  0.0195 -0.3600
  541MOL0     C71285   5.003   7.379   3.635 -0.2575 -0.4979 -0.9236
  541MOL0     C71286   5.143   7.370   3.665  0.6668  0.3147  0.6917
  541MOL0     C71287   5.187   7.390   3.789 -0.4871  0.1606 -0.0011
  541MOL0     O71288   5.329   7.387   3.812 -0.4164 -0.2547  0.0390
  541MOL0     C71289   5.377   7.423   3.945 -0.1266  0.1552  0.9311
  541MOL0     C71290   5.528   7.436   3.939  0.5107 -0.1506  0.3427
  541MOL0     C71291   5.570   7.583   3.907 -0.3984  0.5859  0.8689
  541MOL0     C71292   5.706   7.592   3.978 -0.7236 -0.8499  0.3687
  541MOL0     C71293   5.798   7.696   3.920 -0.6286  0.0202 -0.2737
  541MOL0     C71294   5.733   7.839   3.915  0.6210  0.0309 -0.5821
  541MOL0     C71295   5.789   7.934   3.806  0.4563 -1.1975  0.6178
  541MOL0     C71296   5.747   7.889   3.662  0.5918  0.0292  0.7031
  541MOL0     N71297   5.664   7.986   3.590 -0.0848 -0.9370  0.6805
  541MOL0     C71298   5.539   7.961   3.535 -0.7289 -0.3874  1.0027
  541MOL0     C71299   5.501   8.078   3.482  0.2105 -0.4477  0.4093
  541MOL0     C71300   5.377   8.095   3.408 -0.0372  0.0891  0.1497
  541MOL0     C71301   5.267   8.151   3.500  0.8876  0.4728 -0.1196
  541MOL0     C71302   5.301   8.292   3.550  0.3194 -0.1834 -1.1781
  541MOL0     C71303   5.190   8.343   3.641  0.3613 -0.4721 -0.1882
  541MOL0     O71304   5.070   8.344   3.565  0.1865  0.0947  0.3011
  541MOL0     C71305   4.948   8.305   3.626 -0.5282 -0.8884  0.2932
  541MOL0     C71306   4.916   8.359   3.748 -0.0616 -0.2804  0.6937
  541MOL0     C71307   4.798   8.320   3.807  0.2072  0.2110 -0.2672
  541MOL0     C71308   4.702   8.235   3.750  0.2526 -0.4037 -0.2201
  541MOL0     C71309   4.570   8.202   3.814  0.5918 -0.3954 -0.2440
  541MOL0     O71310   4.477   8.124   3.746 -0.0879  0.7132  0.0745
  541MOL0     C71311   4.363   8.088   3.815  0.2475 -0.2386 -0.3322
  541MOL0     C71312   4.351   8.011   3.930  0.0513 -0.2932 -0.0948
  541MOL0     C71313   4.223   7.983   3.984 -0.3431  0.2841  0.2978
  541MOL0     C71314   4.108   8.046   3.939 -0.1958  0.0464 -0.2624
  541MOL0     O71315   3.982   8.019   3.989 -0.7452 -0.7198 -0.4530
  541MOL0     C71316   3.962   7.926   4.103  0.7099 -0.5846 -0.7070
  541MOL0     C71317   3.813   7.908   4.137 -0.3197  0.1982  0.0413
  541MOL0     C71318   3.775   8.039   4.200  1.1504 -0.0159 -0.2688
  541MOL0     C71319   3.628   8.019   4.245 -0.4344  0.7190  0.1829
  541MOL0     C71320   3.574   8.145   4.317  0.0446  0.3344 -0.3294
  541MOL0     C71321   3.425   8.133   4.351  0.1341 -0.3294  0.6018
  541MOL0     C71322   3.366   8.270   4.381  0.0738  0.1716  0.1014
  541MOL0     C71323   3.416   8.344   4.509 -0.1845 -0.1303 -0.0903
  541MOL0    Cl71324   3.403   8.244   4.668 -0.1727  0.4360  0.6794
  541MOL0     C71325   4.121   8.137   3.834 -0.8709 -0.6906  0.4327
  541MOL0     C71326   4.246   8.159   3.778  0.5185 -0.3242  0.0966
  541MOL0     O71327   4.555   8.238   3.932 -0.4000 -1.5108 -0.5938
  541MOL0     C71328   4.741   8.177   3.630  0.5845 -0.2685 -0.9694
  541MOL0     C71329   4.858   8.216   3.563 -0.1207  0.0883 -0.1661
  541MOL0     N71330   5.602   8.166   3.506  0.6598 -0.3950 -0.0260
  541MOL0     N71331   5.704   8.118   3.571 -0.3281 -0.0297 -0.2367
  541MOL0     C71332   5.086   7.417   3.886  0.5697 -0.2323  0.2207
  541MOL0     C71333   4.946   7.422   3.857  0.1614  0.4807 -0.5438
  541MOL0     C71334   4.571   7.288   3.709 -1.2132  0.4935  0.3299
  541MOL0     C71335   4.514   7.163   3.724  0.3595  0.1704 -1.2143
  541MOL0     C71336   4.370   7.151   3.705 -0.1697  0.1834 -0.2197
  541MOL0     C71337   4.299   7.261   3.662  0.7935 -0.0775  0.0655
  541MOL0     O71338   4.167   7.251   3.635  0.1085  0.9131  0.1803
  541MOL0     C71339   4.090   7.133   3.647 -0.6800  0.0449 -0.9141
  541MOL0     C71340   3.994   7.115   3.768  0.6171 -0.2745 -0.6630
  541MOL0     C71341   3.940   7.249   3.827 -0.4926  0.0527 -0.5672
  541MOL0     C71342   3.840   7.224   3.940 -0.3138  0.0612  0.6109
  541MOL0     C71343   3.708   7.198   3.884  0.3246 -0.0215  0.0382
  541MOL0     C71344   3.598   7.185   3.827 -1.0633  0.1887  0.2775
  541MOL0     C71345   4.358   7.381   3.641  0.2439 -0.3909  0.4075
  541MOL0     C71346   4.489   7.397   3.670  0.1654 -0.2280 -0.5587
  541MOL0     H71347   4.972   7.368   3.532 -1.6933 -0.0243 -0.5654
  541MOL0     H71348   5.218   7.361   3.587  0.0895  3.0118 -0.2724
  541MOL0     H71349   5.358   7.338   4.013  1.5973 -0.7416  0.3652
  541MOL0     H71350   5.325   7.511   3.982 -1.2327 -0.1949  0.2248
  541MOL0     H71351   5.573   7.362   3.872  0.2379 -0.7497  0.8107
  541MOL0     H71352   5.553   7.419   4.044 -0.9042  0.8705  0.8787
  541MOL0     H71353   5.502   7.661   3.944  1.9681  2.0329  2.4732
  541MOL0     H71354   5.576   7.588   3.798 -2.1129 -4.6770  0.2465
  541MOL0     H71355   5.695   7.613   4.085  0.9613  0.5223  0.3143
  541MOL0     H71356   5.770   7.504   3.972  0.5168 -0.1034  2.0081
  541MOL0     H71357   5.820   7.663   3.818  1.5287  1.0702 -0.1944
  541MOL0     H71358   5.895   7.711   3.968 -1.2216 -2.9853  2.1429
  541MOL0     H71359   5.770   7.888   4.006 -0.2877  2.5172 -1.4568
  541MOL0     H71360   5.624   7.833   3.914  0.6478 -0.7759  0.2238
  541MOL0     H71361   5.755   8.036   3.826 -1.5516 -1.4542 -1.1934
  541MOL0     H71362   5.896   7.939   3.830  0.0833  0.9958  2.1418
  541MOL0     H71363   5.690   7.796   3.671  0.3128  0.0214 -0.8305
  541MOL0     H71364   5.833   7.862   3.599  0.4906 -1.4235  1.1406
  541MOL0     H71365   5.490   7.865   3.530  1.9174 -1.7963  0.0051
  541MOL0     H71366   5.345   7.996   3.374 -0.7721 -0.2952  1.8487
  541MOL0     H71367   5.394   8.163   3.324 -1.5112  2.3082  1.5610
  541MOL0     H71368   5.254   8.069   3.570  0.5881 -1.2428 -2.0870
  541MOL0     H71369   5.182   8.168   3.433  0.1419 -1.3728  0.3090
  541MOL0     H71370   5.394   8.288   3.607 -1.7916 -0.7629  2.5458
  541MOL0     H71371   5.310   8.354   3.461  0.3937  2.9177  0.8525
  541MOL0     H71372   5.208   8.445   3.676  2.4393 -1.2320  1.1491
  541MOL0     H71373   5.170   8.275   3.724  0.1894 -1.0078 -0.6604
  541MOL0     H71374   4.968   8.447   3.786 -0.1253  0.5787 -1.0937
  541MOL0     H71375   4.763   8.379   3.892 -0.9608 -0.4993 -0.2441
  541MOL0     H71376   4.450   7.972   3.951  0.3888 -0.7844 -2.3133
  541MOL0     H71377   4.208   7.906   4.059 -2.3727  1.1404  0.8350
  541MOL0     H71378   4.018   7.964   4.189 -0.1599 -4.1559  1.6738
  541MOL0     H71379   4.008   7.828   4.085  2.1847 -0.7809  3.1056
  541MOL0     H71380   3.806   7.827   4.210  1.5637 -0.7341 -0.7385
  541MOL0     H71381   3.761   7.879   4.045 -2.0922  1.2615  0.6467
  541MOL0     H71382   3.778   8.122   4.129 -0.1249  1.1795  1.0249
  541MOL0     H71383   3.843   8.068   4.280  0.5243  3.2635 -0.7830
  541MOL0     H71384   3.572   8.016   4.151  3.4271 -2.4120 -2.3155
  541MOL0     H71385   3.614   7.929   4.307 -2.7150 -0.1885 -1.4842
  541MOL0     H71386   3.584   8.240   4.264  1.9544  0.8905  0.9281
  541MOL0     H71387   3.615   8.167   4.416 -0.4762  3.4173 -0.7108
  541MOL0     H71388   3.412   8.056   4.428  0.6753  1.3073  2.4041
  541MOL0     H71389   3.375   8.082   4.267 -1.0968 -0.6140  1.4707
  541MOL0     H71390   3.377   8.340   4.298 -1.9457  0.2556 -0.1402
  541MOL0     H71391   3.258   8.259   4.395  0.0732 -1.0550 -0.7370
  541MOL0     H71392   3.348   8.429   4.512  0.3118  0.3005 -0.8043
  541MOL0     H71393   3.521   8.365   4.488  0.4086 -1.6740  1.0699
  541MOL0     H71394   4.031   8.193   3.810 -1.3476 -1.6065 -0.0102
  541MOL0     H71395   4.258   8.234   3.700 -2.4146  0.4189  0.2338
  541MOL0     H71396   4.674   8.100   3.592 -0.7474 -1.2223  2.8932
  541MOL0     H71397   4.893   8.160   3.477  0.5624 -1.7594  1.2464
  541MOL0     H71398   5.122   7.424   3.988  1.4249 -0.6845 -0.0407
  541MOL0     H71399   4.872   7.449   3.932  0.0216  0.7464 -0.7745
  541MOL0     H71400   4.568   7.073   3.751 -0.5990 -0.4934 -1.4157
  541MOL0     H71401   4.333   7.052   3.733  2.2362 -1.2439 -1.7136
  541MOL0     H71402   4.148   7.040   3.649  1.3900  1.3030  0.1363
  541MOL0     H71403   4.032   7.127   3.554 -2.0913  2.8259 -0.3094
  541MOL0     H71404   3.912   7.051   3.736 -0.4887  0.0828  1.3022
  541MOL0     H71405   4.044   7.061   3.849 -1.7439  0.9784  1.8004
  541MOL0     H71406   3.887   7.320   3.762 -3.2205  1.2131  2.6090
  541MOL0     H71407   4.022   7.304   3.875  0.3874 -1.5237 -0.2090
  541MOL0     H71408   3.881   7.137   3.991 -1.3051 -0.5295  0.4273
  541MOL0     H71409   3.834   7.307   4.011  4.3332  0.7407  0.4959
  541MOL0     H71410   3.505   7.209   3.781 -1.0211  0.3382  0.2716
  541MOL0     H71411   4.322   7.466   3.583  1.1181 -0.9261 -0.9704
  541MOL0     H71412   4.536   7.494   3.663  0.0613  0.1544  2.6982
  542MOL0     O71413   1.427   5.340   6.316 -0.4172 -0.0107 -0.2520
  542MOL0     C71414   1.497   5.307   6.414 -0.7021  0.6905 -0.2997
  542MOL0     O71415   1.450   5.267   6.533  0.6511  0.3797  0.5844
  542MOL0     C71416   1.310   5.281   6.561 -0.7817 -0.2614 -0.3871
  542MOL0     C71417   1.245   5.171   6.607  0.0575 -0.0835 -0.1582
  542MOL0     C71418   1.126   5.180   6.677 -0.1815  0.4328 -0.1790
  542MOL0     C71419   1.061   5.307   6.690  1.0244 -0.2566  0.0666
  542MOL0     O71420   0.946   5.317   6.765 -0.0880 -0.5687  0.2014
  542MOL0     C71421   0.831   5.363   6.696  0.7520 -0.4555  0.1228
  542MOL0     C71422   0.738   5.250   6.674  0.0830 -0.2648  0.0611
  542MOL0     C71423   0.673   5.209   6.810 -0.1688 -0.0232  0.4499
  542MOL0     C71424   0.555   5.293   6.854 -0.6901  0.1535 -0.4225
  542MOL0     C71425   0.438   5.305   6.756  0.3765  0.2958  0.3252
  542MOL0     C71426   0.310   5.329   6.840  0.2626  0.8163  0.4846
  542MOL0     C71427   0.176   5.324   6.763 -0.8541  0.0634 -0.0215
  542MOL0     C71428   0.056   5.329   6.856 -0.2174  0.4554  0.1272
  542MOL0     N71429  -0.064   5.304   6.783  0.5306 -0.1862 -0.1292
  542MOL0     C71430  -0.120   5.386   6.693  0.0485 -0.5859  0.5975
  542MOL0     C71431  -0.224   5.312   6.643 -0.1567  0.0060  0.0828
  542MOL0     C71432  -0.307   5.357   6.531  0.6098  0.5472  0.0502
  542MOL0     C71433  -0.452   5.328   6.553 -0.3162  0.1564 -0.5782
  542MOL0     C71434  -0.504   5.446   6.640 -0.3185 -0.5229 -0.5701
  542MOL0     C71435  -0.658   5.437   6.654  0.0113  0.9314  0.0124
  542MOL0     O71436  -0.680   5.328   6.749 -0.6216  0.1300 -0.3796
  542MOL0     C71437  -0.800   5.268   6.735  0.7496  0.4069 -0.9486
  542MOL0     C71438  -0.798   5.136   6.777 -0.1409  0.3640  0.3946
  542MOL0     C71439  -0.898   5.044   6.756 -0.6731  0.3576 -0.1112
  542MOL0     C71440  -1.022   5.095   6.698 -0.9677 -0.0656 -0.7251
  542MOL0     C71441  -1.139   5.007   6.678 -0.4138 -0.4768 -0.0844
  542MOL0     O71442  -1.114   4.875   6.698  0.7060  0.2188  0.1486
  542MOL0     C71443  -1.211   4.790   6.660 -0.4261 -0.2349 -0.0541
  542MOL0     C71444  -1.263   4.792   6.529  0.1354  0.1536  0.0262
  542MOL0     C71445  -1.361   4.692   6.495  0.3430  0.0825 -0.4196
  542MOL0     C71446  -1.415   4.606   6.590 -0.4426 -0.9440  0.0639
  542MOL0     O71447  -1.510   4.512   6.565  0.6652 -0.7935  0.0442
  542MOL0     C71448  -1.575   4.513   6.436  0.1903 -0.0691 -0.0591
  542MOL0     C71449  -1.665   4.389   6.429  0.3740  0.1346 -0.0105
  542MOL0     C71450  -1.770   4.368   6.540  0.4022 -0.0733  0.2587
  542MOL0     C71451  -1.872   4.264   6.489 -0.0096  0.0500 -0.4969
  542MOL0     C71452  -2.002   4.288   6.566 -0.3781 -0.2249  0.2013
  542MOL0     C71453  -2.116   4.195   6.535 -0.2821 -0.2310  0.1317
  542MOL0     C71454  -2.169   4.216   6.396  0.1363 -0.3881  0.9377
  542MOL0     C71455  -2.315   4.154   6.401  0.0056  0.4687  1.2069
  542MOL0    Cl71456  -2.426   4.225   6.515 -0.0088 -0.0998  0.4352
  542MOL0     C71457  -1.360   4.603   6.714  0.5372  0.3623 -0.4312
  542MOL0     C71458  -1.257   4.689   6.749 -0.0203 -0.1922  0.6372
  542MOL0     O71459  -1.246   5.059   6.655 -0.2454 -0.4134 -0.2964
  542MOL0     C71460  -1.023   5.236   6.662 -0.4339 -0.8288 -0.1200
  542MOL0     C71461  -0.914   5.320   6.679  0.2904 -0.0824  0.2523
  542MOL0     N71462  -0.240   5.193   6.718  0.1819  0.6639 -0.3321
  542MOL0     N71463  -0.146   5.195   6.803  0.0737 -0.4853  0.7200
  542MOL0     C71464   1.116   5.418   6.625 -0.5629 -0.2521 -0.3492
  542MOL0     C71465   1.246   5.410   6.571 -0.4534  0.7551  0.1743
  542MOL0     C71466   1.644   5.326   6.401  0.0713  0.2661 -0.2570
  542MOL0     C71467   1.708   5.324   6.277  1.2515 -0.4966  0.0859
  542MOL0     C71468   1.843   5.348   6.266 -0.9536 -0.3299  0.5353
  542MOL0     C71469   1.923   5.373   6.376 -0.4108 -0.5698 -0.2216
  542MOL0     O71470   2.054   5.426   6.366  0.3772  0.0254 -0.7715
  542MOL0     C71471   2.111   5.477   6.236 -0.0196 -0.1998 -0.2061
  542MOL0     C71472   2.251   5.531   6.249 -0.6980  0.9498  0.5929
  542MOL0     C71473   2.358   5.432   6.317 -0.8803  0.6010 -0.3884
  542MOL0     C71474   2.499   5.493   6.301 -0.3277 -0.1616  0.9472
  542MOL0     C71475   2.609   5.416   6.377  0.0168 -0.2101  1.0203
  542MOL0     C71476   2.693   5.352   6.435 -0.1499  0.4599 -0.4926
  542MOL0     C71477   1.863   5.370   6.501  0.6150 -0.6595 -0.2442
  542MOL0     C71478   1.724   5.351   6.516  0.1313  0.9689 -0.3775
  542MOL0     H71479   1.293   5.074   6.594  0.0796 -0.1912  0.6953
  542MOL0     H71480   1.073   5.095   6.719 -3.9438  0.2861 -4.4368
  542MOL0     H71481   0.844   5.405   6.596 -0.2502  3.3834  1.4261
  542MOL0     H71482   0.798   5.448   6.755  1.6246 -1.0538  1.5172
  542MOL0     H71483   0.794   5.159   6.650  2.6550  1.1338  0.3236
  542MOL0     H71484   0.658   5.273   6.604  0.7082 -0.7625 -0.8308
  542MOL0     H71485   0.753   5.195   6.883 -1.0836  0.9225  1.6607
  542MOL0     H71486   0.638   5.106   6.801  1.1620 -0.3756 -1.5825
  542MOL0     H71487   0.530   5.237   6.944 -2.4740 -2.3962 -2.3407
  542MOL0     H71488   0.585   5.395   6.879 -2.2357  0.9644 -1.6376
  542MOL0     H71489   0.428   5.208   6.706 -2.0856 -0.2204  1.6644
  542MOL0     H71490   0.461   5.388   6.689  3.0741  1.1943  2.1957
  542MOL0     H71491   0.320   5.429   6.883  0.2680  0.2801  1.7707
  542MOL0     H71492   0.301   5.250   6.915 -2.9560 -3.1764 -3.5531
  542MOL0     H71493   0.174   5.409   6.694 -1.7010 -1.8459 -2.5113
  542MOL0     H71494   0.185   5.229   6.710  0.3632 -0.2391  0.6867
  542MOL0     H71495   0.053   5.427   6.904 -0.2031  0.0328  0.9981
  542MOL0     H71496   0.071   5.248   6.928 -0.6420 -0.4347 -0.7550
  542MOL0     H71497  -0.080   5.479   6.654  2.1365 -1.4016  0.6067
  542MOL0     H71498  -0.271   5.294   6.449  1.4451 -0.8591  1.4495
  542MOL0     H71499  -0.293   5.460   6.496 -1.8087  1.4116  1.4160
  542MOL0     H71500  -0.477   5.234   6.603 -3.6094  1.9518  1.4801
  542MOL0     H71501  -0.500   5.320   6.455 -1.0213 -2.9009 -0.0702
  542MOL0     H71502  -0.458   5.443   6.739  2.9745 -0.6381 -1.9996
  542MOL0     H71503  -0.484   5.547   6.604 -0.4780  0.5705  2.1813
  542MOL0     H71504  -0.714   5.416   6.563 -1.1437 -0.6091  1.0185
  542MOL0     H71505  -0.693   5.526   6.706 -3.7066 -0.5083  0.2981
  542MOL0     H71506  -0.702   5.098   6.812  0.6833  1.8654 -0.1459
  542MOL0     H71507  -0.889   4.937   6.772 -0.3839  0.3674 -0.2042
  542MOL0     H71508  -1.207   4.864   6.470 -0.3837 -0.1899 -0.8950
  542MOL0     H71509  -1.403   4.709   6.397  0.5941  0.4066 -0.4713
  542MOL0     H71510  -1.501   4.494   6.358  1.9084 -0.1790  1.5268
  542MOL0     H71511  -1.649   4.592   6.426 -1.0382 -0.6014  3.3937
  542MOL0     H71512  -1.606   4.297   6.423  2.8033  1.6866 -3.7561
  542MOL0     H71513  -1.720   4.398   6.335 -1.6428 -1.4577  0.9396
  542MOL0     H71514  -1.825   4.460   6.563 -2.5227 -1.5378 -0.3947
  542MOL0     H71515  -1.719   4.330   6.629 -0.2599  0.7539  1.0111
  542MOL0     H71516  -1.899   4.278   6.384 -0.4125  1.3364 -0.2426
  542MOL0     H71517  -1.839   4.162   6.507 -2.1663 -0.7014 -0.4807
  542MOL0     H71518  -2.031   4.391   6.547 -0.4961 -0.5579 -1.5873
  542MOL0     H71519  -1.978   4.272   6.672 -2.8043 -2.7490  0.4923
  542MOL0     H71520  -2.181   4.223   6.619  0.8734 -1.6097  1.5599
  542MOL0     H71521  -2.084   4.092   6.554 -2.8192 -1.0991  0.0625
  542MOL0     H71522  -2.170   4.322   6.371 -1.0057 -0.2326  1.5647
  542MOL0     H71523  -2.110   4.160   6.323  2.6736 -0.3305  2.7872
  542MOL0     H71524  -2.308   4.046   6.414  0.5676  0.4166  0.4958
  542MOL0     H71525  -2.360   4.155   6.301  1.3897 -1.5013  0.5230
  542MOL0     H71526  -1.391   4.525   6.783  0.2998 -0.8650 -1.8725
  542MOL0     H71527  -1.207   4.681   6.846  1.4665 -1.4659 -0.1785
  542MOL0     H71528  -1.110   5.286   6.621  0.2288  0.4755  0.0369
  542MOL0     H71529  -0.920   5.424   6.647 -1.3583 -0.1551  0.2328
  542MOL0     H71530   1.075   5.516   6.647  0.9371  0.4151 -0.4007
  542MOL0     H71531   1.286   5.501   6.527 -0.2630 -0.1589 -1.6306
  542MOL0     H71532   1.648   5.296   6.191 -1.1690  4.0012 -0.0303
  542MOL0     H71533   1.880   5.352   6.164 -2.9406  0.7498 -0.1909
  542MOL0     H71534   2.047   5.554   6.194  0.9273 -0.3711 -2.0701
  542MOL0     H71535   2.112   5.388   6.173 -2.6925 -1.1078  0.8985
  542MOL0     H71536   2.290   5.545   6.148  0.1027 -0.4306  0.6848
  542MOL0     H71537   2.251   5.633   6.289 -1.0694  2.8346 -3.6167
  542MOL0     H71538   2.365   5.335   6.266  1.0598  1.1813 -1.3385
  542MOL0     H71539   2.328   5.431   6.422 -1.8923  0.4603 -0.6693
  542MOL0     H71540   2.514   5.493   6.192  1.1525  2.0963  1.0718
  542MOL0     H71541   2.496   5.598   6.333 -2.7486 -0.7562  2.9135
  542MOL0     H71542   2.755   5.275   6.474  0.8706  1.7869  0.5998
  542MOL0     H71543   1.923   5.379   6.591 -1.7372  0.6390  1.3101
  542MOL0     H71544   1.684   5.360   6.616 -0.3297 -0.1782 -0.4434
  543MOL0     O71545   8.918   0.290   5.439 -0.8474 -0.1999 -0.2460
  543MOL0     C71546   8.965   0.223   5.352 -0.2546  0.8160  0.4491
  543MOL0     O71547   8.905   0.162   5.239 -0.4032 -0.5716 -0.6895
  543MOL0     C71548   8.770   0.187   5.235 -1.1915  0.3974  0.5905
  543MOL0     C71549   8.716   0.301   5.171  0.3108 -0.0928 -0.7139
  543MOL0     C71550   8.580   0.318   5.162 -1.6902  0.4383  0.3239
  543MOL0     C71551   8.500   0.227   5.218  1.1366 -0.0908 -0.1952
  543MOL0     O71552   8.365   0.244   5.217 -0.4451  0.8553  0.0349
  543MOL0     C71553   8.314   0.150   5.123 -1.1202 -0.1832 -0.3906
  543MOL0     C71554   8.188   0.196   5.060  0.3297  0.1818 -0.1674
  543MOL0     C71555   8.215   0.285   4.939  0.1154  0.3075 -0.4069
  543MOL0     C71556   8.093   0.319   4.863  0.5116 -0.2214  0.4490
  543MOL0     C71557   7.987   0.385   4.941  0.2958 -0.1526 -0.0520
  543MOL0     C71558   7.877   0.426   4.849  0.4507  0.1134 -0.6003
  543MOL0     C71559   7.766   0.495   4.930  0.4357 -0.9911 -0.5229
  543MOL0     C71560   7.639   0.520   4.847 -0.5447 -0.0934 -1.2364
  543MOL0     N71561   7.553   0.604   4.944 -0.1390  0.3866 -0.5521
  543MOL0     C71562   7.538   0.738   4.934  0.3959  0.1428 -0.7827
  543MOL0     C71563   7.431   0.759   5.008 -0.0505 -0.5497 -0.0889
  543MOL0     C71564   7.372   0.899   5.040  0.2354  0.0063  0.0960
  543MOL0     C71565   7.227   0.905   5.097  0.2752 -0.0303  0.2823
  543MOL0     C71566   7.156   1.031   5.050 -0.5766 -0.4714 -0.1818
  543MOL0     C71567   7.022   1.046   5.116 -0.0825 -0.4540  1.4591
  543MOL0     O71568   6.923   0.965   5.056  0.8644 -0.1698  0.3979
  543MOL0     C71569   6.789   0.965   5.088  0.2010 -0.3246  0.1621
  543MOL0     C71570   6.726   1.068   5.152  0.0866 -0.4915  0.2128
  543MOL0     C71571   6.593   1.061   5.183 -0.4917 -0.7956  0.5364
  543MOL0     C71572   6.518   0.950   5.146  0.3584  0.1818  0.2797
  543MOL0     C71573   6.372   0.950   5.178 -0.3814  0.4759 -0.5400
  543MOL0     O71574   6.293   0.865   5.111 -0.4753  0.2192 -0.0641
  543MOL0     C71575   6.153   0.865   5.139  0.3572 -0.5335  0.1380
  543MOL0     C71576   6.065   0.889   5.035  0.5386  0.2663  0.0435
  543MOL0     C71577   5.927   0.896   5.062  0.3693 -0.0606 -0.7149
  543MOL0     C71578   5.881   0.895   5.192 -0.1544  0.0647  0.2090
  543MOL0     O71579   5.748   0.927   5.210 -0.0267  0.7889  0.3326
  543MOL0     C71580   5.696   0.938   5.343  0.7620 -0.8596 -0.3258
  543MOL0     C71581   5.570   1.036   5.347  0.4929  0.6254  0.0130
  543MOL0     C71582   5.459   0.990   5.264  0.6123  0.9314  0.0978
  543MOL0     C71583   5.323   1.061   5.303  0.0673 -0.5412  0.2676
  543MOL0     C71584   5.206   1.008   5.239  0.2904  0.3157 -0.2436
  543MOL0     C71585   5.076   1.071   5.294 -0.2601  0.2007  0.1790
  543MOL0     C71586   5.049   1.010   5.433 -1.4854 -0.0224 -0.4363
  543MOL0     C71587   4.909   0.932   5.433  0.0475 -0.4164  0.7969
  543MOL0    Cl71588   4.882   0.802   5.306  0.0773  0.2516 -0.1503
  543MOL0     C71589   5.978   0.882   5.301 -0.1845  0.6893  0.4389
  543MOL0     C71590   6.102   0.856   5.270 -0.6069 -0.0784 -0.2103
  543MOL0     O71591   6.331   1.022   5.271  0.2700 -0.4883  0.8056
  543MOL0     C71592   6.581   0.847   5.065  1.0279 -0.3609  0.3453
  543MOL0     C71593   6.715   0.858   5.041  0.1805 -0.1894  0.0310
  543MOL0     N71594   7.364   0.643   5.046  0.3272  0.7017 -0.3809
  543MOL0     N71595   7.449   0.547   5.016 -0.1123 -0.2082 -0.3692
  543MOL0     C71596   8.548   0.114   5.279  0.4056 -0.1982 -1.1596
  543MOL0     C71597   8.686   0.097   5.297  0.3504 -0.7399  0.3410
  543MOL0     C71598   9.106   0.196   5.349 -0.2983 -0.0048 -0.2636
  543MOL0     C71599   9.187   0.206   5.471 -0.2303  0.2643  0.0560
  543MOL0     C71600   9.320   0.185   5.471 -0.2286  0.3791 -0.3311
  543MOL0     C71601   9.390   0.160   5.354  0.2945 -0.2515  0.0894
  543MOL0     O71602   9.527   0.168   5.360 -0.0091  0.3438 -1.2204
  543MOL0     C71603   9.607   0.167   5.243 -0.3529 -0.1875  0.9431
  543MOL0     C71604   9.603   0.290   5.155  0.3161  0.1396  0.5559
  543MOL0     C71605   9.687   0.407   5.192 -0.3669 -0.4408 -0.1033
  543MOL0     C71606   9.619   0.485   5.307  0.5366 -1.0905  0.1595
  543MOL0     C71607   9.721   0.565   5.379  0.4476 -0.0646 -0.5614
  543MOL0     C71608   9.806   0.634   5.437  0.1729 -0.7220 -0.1454
  543MOL0     C71609   9.308   0.137   5.239 -0.0372  0.2392  0.2346
  543MOL0     C71610   9.172   0.157   5.235 -0.5333 -0.0800 -0.3926
  543MOL0     H71611   8.777   0.366   5.110 -1.9770 -0.1732 -3.2705
  543MOL0     H71612   8.535   0.397   5.103 -2.5020 -1.6347 -1.9847
  543MOL0     H71613   8.289   0.063   5.184 -2.1180  0.0142 -0.5092
  543MOL0     H71614   8.387   0.113   5.050 -0.6175  2.5439 -1.3898
  543MOL0     H71615   8.125   0.248   5.132 -1.7017 -0.5659 -1.3073
  543MOL0     H71616   8.128   0.109   5.030  0.5066 -0.3336  0.9221
  543MOL0     H71617   8.283   0.229   4.874 -0.5106  0.2410 -1.0115
  543MOL0     H71618   8.269   0.376   4.967  0.1115 -0.0119  0.6874
  543MOL0     H71619   8.124   0.375   4.775  0.0095  0.9337  0.9932
  543MOL0     H71620   8.043   0.232   4.819 -0.9064  0.9534 -0.3427
  543MOL0     H71621   8.033   0.462   5.004  1.3661 -2.1220  1.6807
  543MOL0     H71622   7.940   0.309   5.003 -1.0746  2.7658  2.8001
  543MOL0     H71623   7.839   0.329   4.813 -0.3137 -1.0133  2.8312
  543MOL0     H71624   7.897   0.489   4.762  0.9770 -0.4906 -0.9311
  543MOL0     H71625   7.742   0.432   5.017  2.7105 -1.7107 -0.3595
  543MOL0     H71626   7.794   0.589   4.978 -1.2491 -2.6195  4.2353
  543MOL0     H71627   7.587   0.429   4.816  0.8651 -1.3857  0.0516
  543MOL0     H71628   7.665   0.581   4.760  0.6894  0.7566 -0.3036
  543MOL0     H71629   7.602   0.803   4.875  1.2035  0.0147 -0.0790
  543MOL0     H71630   7.383   0.959   4.949  1.8077  2.6796  1.9141
  543MOL0     H71631   7.446   0.947   5.104 -0.3096 -2.3502  2.7020
  543MOL0     H71632   7.232   0.902   5.206  1.5838 -1.6315  0.2387
  543MOL0     H71633   7.168   0.821   5.059 -2.0696  1.9563 -0.6957
  543MOL0     H71634   7.212   1.123   5.071  0.6998 -1.2139 -0.2124
  543MOL0     H71635   7.141   1.030   4.941  0.4622 -0.0417 -0.3367
  543MOL0     H71636   6.992   1.150   5.101 -0.5559 -0.9039 -1.1316
  543MOL0     H71637   7.030   1.026   5.223  1.6281 -0.2719  1.3902
  543MOL0     H71638   6.779   1.161   5.170 -1.2483  1.2291 -3.6119
  543MOL0     H71639   6.562   1.143   5.247 -1.2194 -1.4417  1.0259
  543MOL0     H71640   6.099   0.913   4.935  1.6151 -2.0637 -0.2000
  543MOL0     H71641   5.859   0.920   4.981 -0.5801  2.0740  0.6221
  543MOL0     H71642   5.778   0.988   5.396 -0.2731  1.6099 -0.8904
  543MOL0     H71643   5.685   0.835   5.377 -0.5924 -0.4202  0.6302
  543MOL0     H71644   5.599   1.139   5.322 -2.9877  2.3491  2.2781
  543MOL0     H71645   5.531   1.037   5.449 -3.7917 -1.5648 -1.3975
  543MOL0     H71646   5.453   0.880   5.263 -0.7195  0.9756 -1.2638
  543MOL0     H71647   5.476   1.015   5.159 -0.7617 -1.0099 -0.6488
  543MOL0     H71648   5.301   1.066   5.410  2.3921  1.8518  0.7453
  543MOL0     H71649   5.328   1.164   5.268  0.1677 -1.1156 -1.4812
  543MOL0     H71650   5.199   0.903   5.268  0.3297  1.0168  2.5762
  543MOL0     H71651   5.212   1.011   5.129  0.4532  2.3064 -0.2044
  543MOL0     H71652   4.996   1.045   5.224 -1.1963 -2.3501  2.0406
  543MOL0     H71653   5.082   1.180   5.294  1.5518  0.1279 -0.6555
  543MOL0     H71654   5.124   0.937   5.467  0.0269  2.1340  1.1337
  543MOL0     H71655   5.050   1.095   5.502  0.2819 -0.0115 -0.4122
  543MOL0     H71656   4.833   1.008   5.417 -0.6880 -1.1839  0.5973
  543MOL0     H71657   4.884   0.888   5.529 -1.5702  3.3229  2.2563
  543MOL0     H71658   5.951   0.864   5.405  0.9358 -4.2337  0.1501
  543MOL0     H71659   6.174   0.847   5.351  0.6531 -3.6419 -1.5006
  543MOL0     H71660   6.519   0.767   5.027 -0.5508 -0.3766  2.7456
  543MOL0     H71661   6.769   0.777   4.992  2.2671 -0.4632  2.5602
  543MOL0     H71662   8.476   0.042   5.316 -1.1908  1.3439 -1.1399
  543MOL0     H71663   8.724   0.007   5.344 -2.3702 -2.8545 -1.1389
  543MOL0     H71664   9.138   0.235   5.564  0.4197  0.3289  0.3821
  543MOL0     H71665   9.379   0.204   5.560 -1.2312 -0.0710  0.4433
  543MOL0     H71666   9.574   0.085   5.178  3.4138  0.1502 -1.7347
  543MOL0     H71667   9.713   0.143   5.259  0.1735  0.6644 -0.9251
  543MOL0     H71668   9.641   0.263   5.056  0.6976  2.8510 -0.1262
  543MOL0     H71669   9.498   0.318   5.140  0.5399  1.3839  1.2037
  543MOL0     H71670   9.696   0.482   5.112 -0.4569 -0.7105 -0.3696
  543MOL0     H71671   9.789   0.378   5.217  0.4526  1.6946 -0.7413
  543MOL0     H71672   9.540   0.547   5.264 -0.1694 -0.9300  1.6276
  543MOL0     H71673   9.571   0.421   5.381 -2.3146  2.6921  1.9218
  543MOL0     H71674   9.882   0.691   5.488 -0.1226 -1.7354  1.5124
  543MOL0     H71675   9.356   0.089   5.154 -2.3737 -3.6172  0.8602
  543MOL0     H71676   9.118   0.136   5.143 -3.2867  2.4590  0.4941
  544MOL0     O71677  10.672   2.081   5.828 -0.2218  0.0050  0.2370
  544MOL0     C71678  10.653   2.184   5.763 -0.0211  0.3185  0.1315
  544MOL0     O71679  10.528   2.236   5.737 -0.6518  0.1660 -0.5613
  544MOL0     C71680  10.412   2.176   5.756  0.4438  0.5116 -0.1511
  544MOL0     C71681  10.300   2.230   5.688 -0.7310  0.3330 -0.0311
  544MOL0     C71682  10.172   2.183   5.710  0.1623  1.1405 -0.1139
  544MOL0     C71683  10.135   2.072   5.796 -0.4017 -0.7614  0.1093
  544MOL0     O71684  10.000   2.034   5.791  0.5432 -0.3838 -0.3639
  544MOL0     C71685   9.959   1.934   5.886  0.1273  0.9497  0.4286
  544MOL0     C71686   9.811   1.935   5.887 -0.2225  0.6445 -0.3684
  544MOL0     C71687   9.756   1.826   5.984 -0.5760 -0.9262  0.2015
  544MOL0     C71688   9.610   1.837   5.984  0.1151  0.4720 -0.3214
  544MOL0     C71689   9.536   1.778   5.865 -0.1236 -0.3399 -0.0958
  544MOL0     C71690   9.395   1.731   5.897 -0.6667  0.5811 -0.1931
  544MOL0     C71691   9.296   1.840   5.913  0.5342 -0.3584 -0.1392
  544MOL0     C71692   9.289   1.933   5.789 -0.1001  1.1576  0.0176
  544MOL0     N71693   9.161   1.996   5.769  0.2602 -0.1632 -0.3216
  544MOL0     C71694   9.096   2.078   5.851  0.2809 -0.4442 -0.2056
  544MOL0     C71695   8.989   2.126   5.783 -0.1344 -0.4371  0.6902
  544MOL0     C71696   8.915   2.248   5.827  0.5737 -0.4717 -0.7313
  544MOL0     C71697   8.868   2.330   5.709  0.6596 -0.6132 -0.0188
  544MOL0     C71698   8.797   2.461   5.751  0.8374  0.3036 -0.8839
  544MOL0     C71699   8.740   2.528   5.628 -0.0400 -0.8224 -0.5810
  544MOL0     O71700   8.709   2.664   5.657  0.2756 -0.1566 -0.5712
  544MOL0     C71701   8.586   2.699   5.708  0.6040  0.5169 -0.0157
  544MOL0     C71702   8.567   2.838   5.722  0.9438 -1.1135 -0.5435
  544MOL0     C71703   8.454   2.890   5.784  0.6299  0.2176 -0.2112
  544MOL0     C71704   8.350   2.807   5.819 -0.3676  0.1347  0.1528
  544MOL0     C71705   8.222   2.854   5.870  0.2479 -0.4800  0.4684
  544MOL0     O71706   8.115   2.761   5.852  0.6100 -0.3342 -0.6266
  544MOL0     C71707   7.989   2.814   5.860 -0.8022 -0.4317 -0.2883
  544MOL0     C71708   7.911   2.774   5.969 -0.0157 -0.4858 -0.4908
  544MOL0     C71709   7.780   2.812   5.983  0.1509  0.2527  0.6525
  544MOL0     C71710   7.731   2.884   5.879  0.7267  0.2700 -0.0822
  544MOL0     O71711   7.602   2.906   5.903  0.0521  0.6446  0.3147
  544MOL0     C71712   7.520   2.937   5.795  1.3172  0.2229  0.0455
  544MOL0     C71713   7.379   2.959   5.850 -0.6780  0.2436 -0.4135
  544MOL0     C71714   7.265   2.946   5.752  0.4056  0.2654 -0.5095
  544MOL0     C71715   7.129   2.971   5.817  0.5234 -0.1335  1.1335
  544MOL0     C71716   7.012   2.946   5.724  0.6070 -0.2193 -0.0115
  544MOL0     C71717   6.887   2.933   5.809 -0.2437  0.8015  0.3709
  544MOL0     C71718   6.773   2.873   5.719 -0.1236 -0.1272  0.3669
  544MOL0     C71719   6.635   2.870   5.790 -0.5080 -0.1508  0.0046
  544MOL0    Cl71720   6.510   2.802   5.683 -0.0729  0.2699 -0.1645
  544MOL0     C71721   7.807   2.926   5.777  0.5553  0.6527  0.4856
  544MOL0     C71722   7.941   2.897   5.765  0.7388  0.0414  0.1155
  544MOL0     O71723   8.212   2.966   5.921 -0.1338  0.3104  0.5004
  544MOL0     C71724   8.372   2.667   5.811  0.6124  0.1872  0.2068
  544MOL0     C71725   8.490   2.613   5.762 -0.0430 -0.2765  0.2831
  544MOL0     N71726   8.994   2.076   5.660  0.1781 -1.2614 -0.3151
  544MOL0     N71727   9.092   2.005   5.653  0.3762  0.2060 -0.3773
  544MOL0     C71728  10.256   2.009   5.855  0.3786  0.5059 -0.0502
  544MOL0     C71729  10.382   2.062   5.830 -0.7306  0.2733  0.5713
  544MOL0     C71730  10.766   2.264   5.723  0.7184  0.0654 -0.1679
  544MOL0     C71731  10.899   2.232   5.764  0.1363  0.9716  0.0452
  544MOL0     C71732  11.013   2.298   5.711 -0.0225  0.1974  0.0814
  544MOL0     C71733  10.988   2.397   5.622 -1.0975 -0.0845  0.1694
  544MOL0     O71734  11.103   2.464   5.586 -0.0761 -0.7099  0.7432
  544MOL0     C71735  11.089   2.598   5.535  0.3962  0.2184  0.1754
  544MOL0     C71736  11.222   2.674   5.540 -0.6952 -0.0852  0.1840
  544MOL0     C71737  11.211   2.822   5.508  0.4414  0.0630 -0.0685
  544MOL0     C71738  11.336   2.877   5.449  0.1822 -0.0899 -0.8457
  544MOL0     C71739  11.326   3.022   5.414  0.3981  0.3103 -0.6274
  544MOL0     C71740  11.301   3.133   5.376  0.0584 -0.0681  0.4115
  544MOL0     C71741  10.858   2.445   5.591 -0.2217  0.2039  0.8337
  544MOL0     C71742  10.750   2.373   5.635  0.6902 -0.3157 -0.7677
  544MOL0     H71743  10.325   2.303   5.611  1.0530 -0.7114 -0.5035
  544MOL0     H71744  10.099   2.232   5.648 -0.9789  0.6347  0.7942
  544MOL0     H71745  10.001   1.955   5.984 -1.3196 -1.3387  1.6424
  544MOL0     H71746   9.995   1.834   5.859  1.5273  1.9796 -1.8880
  544MOL0     H71747   9.766   1.915   5.790 -1.4674  1.0246  0.1081
  544MOL0     H71748   9.779   2.034   5.921 -0.1335  1.0340 -1.3851
  544MOL0     H71749   9.798   1.834   6.084  0.0507  1.5544 -0.2103
  544MOL0     H71750   9.778   1.725   5.949 -0.4698 -0.2930 -1.6760
  544MOL0     H71751   9.571   1.788   6.074  2.7833  2.1732  1.9002
  544MOL0     H71752   9.571   1.938   5.996 -1.7113  0.0241 -1.8895
  544MOL0     H71753   9.585   1.685   5.833  1.1313  0.3882 -0.3342
  544MOL0     H71754   9.547   1.849   5.783  3.4496 -0.0084  0.4798
  544MOL0     H71755   9.407   1.676   5.991 -3.9104  0.5028  0.3022
  544MOL0     H71756   9.360   1.659   5.822 -1.8796 -0.9513  1.7359
  544MOL0     H71757   9.196   1.799   5.932 -1.0768  2.1133 -2.5409
  544MOL0     H71758   9.320   1.906   5.997 -1.9076  2.4669 -1.4857
  544MOL0     H71759   9.316   1.875   5.700  1.4585  2.6962 -0.5680
  544MOL0     H71760   9.366   2.008   5.806 -0.0799  1.0182  0.5535
  544MOL0     H71761   9.123   2.111   5.950 -1.7442 -1.5746  0.7918
  544MOL0     H71762   8.982   2.312   5.884 -1.9379  0.4194  1.3954
  544MOL0     H71763   8.837   2.232   5.902 -0.7093  0.1019 -1.8906
  544MOL0     H71764   8.812   2.272   5.634  0.3994  0.7165 -0.8876
  544MOL0     H71765   8.960   2.345   5.650 -0.8047 -2.6180 -3.1065
  544MOL0     H71766   8.711   2.443   5.816  1.5860 -0.4025 -0.0666
  544MOL0     H71767   8.873   2.530   5.789 -0.5498  1.9106 -0.9045
  544MOL0     H71768   8.660   2.472   5.580  0.3834 -2.9034  1.0324
  544MOL0     H71769   8.813   2.535   5.547  0.5928 -0.0381  0.0272
  544MOL0     H71770   8.640   2.908   5.682 -2.0186  2.2042 -0.7043
  544MOL0     H71771   8.433   2.996   5.792 -1.2706 -0.2557  4.5947
  544MOL0     H71772   7.959   2.710   6.043  0.9117  0.7585  0.0189
  544MOL0     H71773   7.716   2.774   6.062  0.7656 -1.2732  0.4537
  544MOL0     H71774   7.525   2.851   5.728  0.9229  1.0286 -1.0352
  544MOL0     H71775   7.546   3.020   5.729 -1.6140  1.9588  0.9010
  544MOL0     H71776   7.379   3.062   5.886  0.5590 -0.0858  0.5845
  544MOL0     H71777   7.371   2.894   5.937  5.1993  1.3457  1.3485
  544MOL0     H71778   7.268   2.846   5.710 -0.0922 -0.0135  0.0954
  544MOL0     H71779   7.257   3.022   5.674 -1.7051  3.5129  2.5287
  544MOL0     H71780   7.111   2.912   5.908  0.7629 -1.3069  0.4375
  544MOL0     H71781   7.117   3.076   5.846 -0.3179  0.1874 -0.3109
  544MOL0     H71782   7.024   2.859   5.659 -2.6865  1.1605 -2.7372
  544MOL0     H71783   6.988   3.028   5.656 -2.4827 -1.0212 -0.0625
  544MOL0     H71784   6.868   3.032   5.852 -3.1756  0.2678  0.4843
  544MOL0     H71785   6.916   2.868   5.891  0.6523 -1.8231 -1.8671
  544MOL0     H71786   6.765   2.925   5.623  2.5193 -0.2750 -0.0275
  544MOL0     H71787   6.784   2.768   5.689  0.6078  0.4288 -1.4479
  544MOL0     H71788   6.600   2.971   5.812 -3.4250 -1.3223  1.2918
  544MOL0     H71789   6.641   2.820   5.887  0.3707  1.7560  0.9870
  544MOL0     H71790   7.759   2.972   5.691 -0.2841  2.5351  1.8639
  544MOL0     H71791   8.004   2.918   5.679  0.0935  1.3289 -0.0769
  544MOL0     H71792   8.297   2.593   5.837  1.7361 -1.1101 -0.0883
  544MOL0     H71793   8.498   2.506   5.748 -0.1904  0.0644 -3.2097
  544MOL0     H71794  10.235   1.927   5.923  3.6197 -0.0661  0.4085
  544MOL0     H71795  10.456   2.018   5.897 -1.6977  0.4840  1.8321
  544MOL0     H71796  10.910   2.145   5.828 -0.2294  0.2778 -0.8157
  544MOL0     H71797  11.113   2.267   5.740  0.2400 -0.5320 -1.4969
  544MOL0     H71798  11.015   2.650   5.596  1.0866  1.6132 -0.1249
  544MOL0     H71799  11.049   2.598   5.433  0.6874  3.3335 -0.0338
  544MOL0     H71800  11.264   2.660   5.640  0.3207 -1.3971 -0.3957
  544MOL0     H71801  11.297   2.624   5.477 -1.6031 -1.0075 -0.1820
  544MOL0     H71802  11.193   2.879   5.600  1.8268 -1.2669  1.0761
  544MOL0     H71803  11.131   2.844   5.437  1.2008  0.0786 -0.9402
  544MOL0     H71804  11.422   2.875   5.516  1.0247 -2.1551 -1.8847
  544MOL0     H71805  11.354   2.803   5.370 -2.6124  0.6721 -2.3247
  544MOL0     H71806  11.279   3.232   5.341  2.0100  0.1102 -0.4601
  544MOL0     H71807  10.841   2.534   5.531 -0.0097  0.9464  1.8522
  544MOL0     H71808  10.649   2.402   5.609  0.6133  0.8202  0.6679
  545MOL0     O71809   8.023  10.930   4.261 -0.3186 -1.3953 -0.0009
  545MOL0     C71810   8.064  11.034   4.209  1.3066  0.1244  0.6990
  545MOL0     O71811   7.986  11.131   4.154  0.7991  0.4762 -0.1149
  545MOL0     C71812   7.849  11.100   4.137 -0.2982 -0.4363 -0.1645
  545MOL0     C71813   7.792  11.062   4.012  0.1232  0.3460 -0.3262
  545MOL0     C71814   7.649  11.056   3.995  0.6770 -0.3330  0.2143
  545MOL0     C71815   7.565  11.075   4.103 -0.5495  0.1963 -0.1592
  545MOL0     O71816   7.436  11.070   4.073 -0.1341 -0.0974 -0.0600
  545MOL0     C71817   7.335  11.079   4.171  0.0790 -0.3198 -0.1465
  545MOL0     C71818   7.205  11.050   4.099  0.0533 -0.4786 -0.0372
  545MOL0     C71819   7.087  11.043   4.196 -0.6265  0.1306  0.2051
  545MOL0     C71820   6.960  11.075   4.115 -0.0861 -0.6217  0.3622
  545MOL0     C71821   6.833  11.065   4.211 -0.5647  0.5640 -0.9318
  545MOL0     C71822   6.712  11.119   4.133 -0.8429 -0.5344  0.3169
  545MOL0     C71823   6.589  11.139   4.226  0.3933  0.1119 -0.0638
  545MOL0     C71824   6.478  11.196   4.143  0.3955  0.1410  0.5321
  545MOL0     N71825   6.353  11.230   4.219 -0.2975 -0.1077 -0.9798
  545MOL0     C71826   6.265  11.140   4.268 -0.9750  0.9663 -0.1877
  545MOL0     C71827   6.158  11.212   4.308 -0.4617 -0.1606 -0.3569
  545MOL0     C71828   6.025  11.159   4.359  0.4270 -0.5870 -0.0607
  545MOL0     C71829   5.926  11.184   4.251  0.0794  0.6454  0.0274
  545MOL0     C71830   5.787  11.123   4.297 -0.1533 -0.5167  1.1956
  545MOL0     C71831   5.673  11.144   4.191 -0.1183 -0.4300 -0.2382
  545MOL0     O71832   5.541  11.103   4.244  0.1157 -0.2740 -1.0156
  545MOL0     C71833   5.437  11.102   4.148 -0.4164  0.3865  0.3784
  545MOL0     C71834   5.331  11.028   4.195  0.0707 -0.4629  0.0202
  545MOL0     C71835   5.215  11.015   4.110 -0.1807 -0.0909  0.0632
  545MOL0     C71836   5.210  11.087   3.988  0.4128  0.0719 -0.4417
  545MOL0     C71837   5.093  11.069   3.899 -1.0800 -0.0547 -0.7941
  545MOL0     O71838   5.019  10.953   3.910 -0.8397 -0.5074  0.5304
  545MOL0     C71839   4.883  10.969   3.883 -0.3691  0.9566 -0.6775
  545MOL0     C71840   4.813  10.845   3.858  0.6826  0.1866  0.0437
  545MOL0     C71841   4.676  10.846   3.851  0.5440 -1.2475 -0.0349
  545MOL0     C71842   4.603  10.972   3.866 -0.7610  0.1646  0.2624
  545MOL0     O71843   4.465  10.972   3.841  0.1868  0.1475 -0.2351
  545MOL0     C71844   4.373  10.941   3.951  0.0888  0.5786 -0.3176
  545MOL0     C71845   4.423  10.933   4.093  0.2905 -0.6567  0.2509
  545MOL0     C71846   4.306  10.960   4.190  0.4039 -0.2897 -0.9272
  545MOL0     C71847   4.361  10.934   4.329 -0.4121 -0.3290 -0.3376
  545MOL0     C71848   4.254  10.939   4.436 -0.2829 -0.7614 -0.2962
  545MOL0     C71849   4.159  10.821   4.439  0.4977  0.4749  0.2535
  545MOL0     C71850   4.053  10.835   4.541 -0.1441  0.1212  0.0158
  545MOL0     C71851   3.949  10.721   4.527 -0.4316 -0.5809  0.0954
  545MOL0    Cl71852   3.823  10.735   4.648  0.1363  0.0650 -0.3422
  545MOL0     C71853   4.674  11.093   3.891  1.0220  1.0429  0.0114
  545MOL0     C71854   4.808  11.083   3.899  0.2613 -0.0535 -0.9948
  545MOL0     O71855   5.074  11.156   3.814 -0.6647 -0.3417 -0.5340
  545MOL0     C71856   5.330  11.147   3.939 -0.0560  0.4492  0.9966
  545MOL0     C71857   5.439  11.151   4.022 -0.8129 -0.0637 -0.2274
  545MOL0     N71858   6.188  11.349   4.296  0.1218  0.1346 -0.2058
  545MOL0     N71859   6.304  11.358   4.248  0.2309  0.5039  0.5682
  545MOL0     C71860   7.619  11.099   4.231 -0.7703 -0.6820  0.7144
  545MOL0     C71861   7.761  11.119   4.247 -0.4767  0.0914 -0.8205
  545MOL0     C71862   8.218  11.050   4.203  0.1622  0.4349 -0.7143
  545MOL0     C71863   8.295  10.956   4.270 -0.6355 -0.0504 -0.3080
  545MOL0     C71864   8.437  10.969   4.274  0.1989  0.2065 -0.5064
  545MOL0     C71865   8.501  11.070   4.200 -0.1122  0.3600  0.1224
  545MOL0     O71866   8.637  11.069   4.206 -0.0884  0.2772 -0.0536
  545MOL0     C71867   8.700  11.189   4.232 -0.3068  0.0474  0.5096
  545MOL0     C71868   8.833  11.181   4.299  0.0296 -0.4373 -0.4565
  545MOL0     C71869   8.936  11.128   4.191 -0.2153 -0.7275  0.7337
  545MOL0     C71870   8.926  10.991   4.148 -0.3295  0.3615  0.6004
  545MOL0     C71871   9.035  10.966   4.055  0.2139 -0.2368  0.6055
  545MOL0     C71872   9.136  10.923   3.994 -0.2440 -0.8062 -0.5754
  545MOL0     C71873   8.418  11.167   4.137 -0.3892 -0.3266  0.2842
  545MOL0     C71874   8.281  11.159   4.141  0.2231 -0.1896  0.5124
  545MOL0     H71875   7.865  11.062   3.932  2.2434  3.1153  1.4193
  545MOL0     H71876   7.592  11.041   3.904  1.2766 -0.2166 -0.1872
  545MOL0     H71877   7.330  11.176   4.222  2.2934 -0.5644  0.6264
  545MOL0     H71878   7.358  11.006   4.249  0.9026  2.9945  3.0070
  545MOL0     H71879   7.202  10.957   4.042 -2.6447 -0.8710  0.6085
  545MOL0     H71880   7.190  11.137   4.033 -3.4242  0.2762  1.5429
  545MOL0     H71881   7.105  11.106   4.284 -0.5882 -1.2259  1.2134
  545MOL0     H71882   7.069  10.944   4.240 -0.0506  0.6852  1.7529
  545MOL0     H71883   6.961  11.176   4.073 -0.4574 -1.2018 -1.0943
  545MOL0     H71884   6.964  11.003   4.033  5.0060  0.9409 -1.1291
  545MOL0     H71885   6.840  11.122   4.304  0.7063 -2.1916  0.8001
  545MOL0     H71886   6.824  10.962   4.248  3.6077  0.9243  1.6917
  545MOL0     H71887   6.682  11.046   4.057 -1.7379  0.4273 -0.2774
  545MOL0     H71888   6.733  11.219   4.095  3.2755 -1.4070 -0.1886
  545MOL0     H71889   6.564  11.045   4.275  0.5016 -0.8743 -1.8461
  545MOL0     H71890   6.625  11.216   4.296 -0.2893  0.9277 -0.5864
  545MOL0     H71891   6.453  11.119   4.069  0.0024  1.8472 -1.1717
  545MOL0     H71892   6.520  11.285   4.096 -0.5519 -0.1870 -1.0132
  545MOL0     H71893   6.287  11.034   4.271 -1.9809  0.6185 -2.9138
  545MOL0     H71894   5.991  11.203   4.454  0.5856  0.1161 -0.3205
  545MOL0     H71895   6.035  11.055   4.389 -2.2732 -0.9837 -0.2596
  545MOL0     H71896   5.966  11.145   4.157  1.6074  1.4420  0.3202
  545MOL0     H71897   5.919  11.293   4.250  1.0628  0.7246  0.7600
  545MOL0     H71898   5.801  11.016   4.312  2.0016 -0.6177 -1.0142
  545MOL0     H71899   5.766  11.167   4.396 -0.5642 -1.7364  1.6640
  545MOL0     H71900   5.683  11.086   4.100 -0.2796 -0.2296 -0.3849
  545MOL0     H71901   5.664  11.253   4.179 -1.7069 -0.6200 -0.9696
  545MOL0     H71902   5.330  10.983   4.293  1.3126 -1.6516 -0.4788
  545MOL0     H71903   5.122  10.970   4.145 -0.0272  0.8513  1.8145
  545MOL0     H71904   4.872  10.755   3.842  0.4034 -0.4495  2.3002
  545MOL0     H71905   4.618  10.761   3.815  0.4104 -0.9092 -0.6398
  545MOL0     H71906   4.340  10.840   3.928 -3.7952  1.9760 -1.8282
  545MOL0     H71907   4.282  11.003   3.947 -0.5360 -0.3517 -0.6915
  545MOL0     H71908   4.492  11.018   4.103  0.2179 -0.5184 -0.4295
  545MOL0     H71909   4.467  10.834   4.111 -2.0415 -2.0679 -1.2998
  545MOL0     H71910   4.237  10.875   4.182  1.4068 -1.1001 -1.0776
  545MOL0     H71911   4.254  11.055   4.174  0.3378 -0.0999  0.3003
  545MOL0     H71912   4.407  10.836   4.340  2.9560  1.3778  3.3000
  545MOL0     H71913   4.429  11.017   4.350  0.4309 -1.0159 -0.3074
  545MOL0     H71914   4.198  11.032   4.421  2.5495  0.9479 -1.0764
  545MOL0     H71915   4.307  10.953   4.531 -0.5581  1.6311 -0.4239
  545MOL0     H71916   4.210  10.725   4.450 -1.8930 -1.0110 -0.7876
  545MOL0     H71917   4.112  10.821   4.341 -1.1882  0.6686  1.0224
  545MOL0     H71918   4.086  10.817   4.643 -1.2875  2.3006  0.8354
  545MOL0     H71919   4.008  10.933   4.523  1.6921  0.9237 -0.5707
  545MOL0     H71920   4.010  10.631   4.534 -0.5409 -0.9015 -2.2112
  545MOL0     H71921   3.905  10.717   4.427  0.3505  1.8154 -0.4307
  545MOL0     H71922   4.618  11.185   3.898  0.1722  0.7112 -1.8458
  545MOL0     H71923   4.860  11.175   3.923 -1.0949  0.5851 -0.4290
  545MOL0     H71924   5.337  11.183   3.837 -0.7348 -1.7552  0.1026
  545MOL0     H71925   5.529  11.193   3.978 -0.2497 -2.6814 -1.8347
  545MOL0     H71926   7.549  11.111   4.312 -1.2297 -0.6605  0.3196
  545MOL0     H71927   7.800  11.126   4.348 -2.7546 -1.6089  0.2413
  545MOL0     H71928   8.248  10.868   4.312 -2.6400  0.5860 -1.1308
  545MOL0     H71929   8.500  10.902   4.331 -2.0987 -1.2971  0.4142
  545MOL0     H71930   8.642  11.260   4.293 -0.5030  0.9375 -0.6656
  545MOL0     H71931   8.695  11.234   4.132 -1.9936 -3.2715 -1.0635
  545MOL0     H71932   8.851  11.282   4.339 -1.2360 -0.6928  0.8597
  545MOL0     H71933   8.820  11.114   4.384  3.1310  0.6259  1.0457
  545MOL0     H71934   9.035  11.138   4.236  0.7000  0.9940 -1.4695
  545MOL0     H71935   8.933  11.197   4.106  0.7053 -0.1797  1.1432
  545MOL0     H71936   8.932  10.923   4.233  1.4296 -0.1702  0.0919
  545MOL0     H71937   8.831  10.973   4.096  0.4972  0.1257 -0.8665
  545MOL0     H71938   9.219  10.884   3.940  0.0152  0.2324 -0.9629
  545MOL0     H71939   8.460  11.254   4.088  0.1555  0.0338  1.3535
  545MOL0     H71940   8.227  11.238   4.090  0.3976 -1.3134 -1.5189
  546MOL0     O71941   7.889   7.179   0.349  0.8617 -0.3888 -0.1011
  546MOL0     C71942   7.883   7.062   0.308 -0.5396  0.5359  0.8137
  546MOL0     O71943   7.771   6.995   0.269  0.4390  0.2276  0.1743
  546MOL0     C71944   7.651   7.060   0.250  0.4739  0.4106 -0.4149
  546MOL0     C71945   7.538   6.990   0.286 -1.3534  0.4886 -0.5947
  546MOL0     C71946   7.413   7.043   0.279 -0.2363  0.1895  0.4373
  546MOL0     C71947   7.397   7.171   0.225  1.1181 -0.2911  0.4962
  546MOL0     O71948   7.267   7.217   0.198 -0.1072 -0.7629 -0.7974
  546MOL0     C71949   7.184   7.239   0.316 -1.0876  0.2430  0.0387
  546MOL0     C71950   7.129   7.385   0.305  0.5264  0.2495 -0.8064
  546MOL0     C71951   7.013   7.389   0.207 -0.8761  0.7508 -0.2718
  546MOL0     C71952   6.915   7.501   0.219 -0.1163 -0.1073 -0.0580
  546MOL0     C71953   6.826   7.534   0.101  0.3488  0.4687  0.5394
  546MOL0     C71954   6.744   7.420   0.045  0.3306  0.5082  0.2498
  546MOL0     C71955   6.652   7.357   0.155 -0.0079  0.3786  0.0687
  546MOL0     C71956   6.531   7.290   0.089 -0.9152 -0.1207 -0.7578
  546MOL0     N71957   6.451   7.231   0.199 -0.1584 -0.0740  0.4284
  546MOL0     C71958   6.350   7.292   0.272  0.1926  0.4638 -0.0767
  546MOL0     C71959   6.297   7.197   0.354 -0.4448 -0.3700 -0.2243
  546MOL0     C71960   6.178   7.211   0.453  0.1381  0.5634 -1.1622
  546MOL0     C71961   6.056   7.296   0.408 -0.6987 -0.0100 -0.6541
  546MOL0     C71962   5.973   7.225   0.304 -0.0967 -0.8020  0.6769
  546MOL0     C71963   5.842   7.295   0.272  0.0979  0.4960  0.5294
  546MOL0     O71964   5.746   7.189   0.243  0.3556  0.0600  0.4487
  546MOL0     C71965   5.609   7.216   0.231 -0.0288  0.0059  0.1909
  546MOL0     C71966   5.521   7.105   0.225 -0.0309  0.0257  0.2638
  546MOL0     C71967   5.387   7.124   0.216  0.9256 -0.3031  0.6177
  546MOL0     C71968   5.334   7.253   0.230 -0.4860 -0.7502 -0.8786
  546MOL0     C71969   5.193   7.271   0.239 -0.3847 -0.4572  0.2493
  546MOL0     O71970   5.138   7.378   0.175  0.0335 -0.3033 -0.6530
  546MOL0     C71971   5.014   7.375   0.109 -0.0305 -0.8391  0.0859
  546MOL0     C71972   4.891   7.320   0.155 -0.1181  0.4345  0.1876
  546MOL0     C71973   4.770   7.333   0.089  0.4141  0.3525  0.6414
  546MOL0     C71974   4.774   7.396  -0.042  0.6857 -0.2152  0.5774
  546MOL0     O71975   4.664   7.405  -0.126  0.2248 -0.3918  0.4571
  546MOL0     C71976   4.538   7.358  -0.093 -0.3049  0.2773 -0.4720
  546MOL0     C71977   4.428   7.381  -0.199  0.4367 -0.4154  0.2016
  546MOL0     C71978   4.276   7.348  -0.155 -0.7705 -0.1087 -0.0914
  546MOL0     C71979   4.271   7.208  -0.104 -0.1510 -0.7197  0.0105
  546MOL0     C71980   4.137   7.153  -0.088  1.0431  0.7939 -0.4799
  546MOL0     C71981   4.137   7.026   0.007  0.3718  0.4906 -0.1620
  546MOL0     C71982   3.993   6.963   0.011 -0.3584  0.1232  0.0110
  546MOL0     C71983   4.004   6.822   0.058  0.4385  0.4381 -0.2057
  546MOL0    Cl71984   3.865   6.740  -0.019  0.5485 -0.0293  0.1481
  546MOL0     C71985   4.897   7.447  -0.088 -0.8312  0.5050  0.2664
  546MOL0     C71986   5.013   7.432  -0.015 -0.0002 -0.0607  0.3087
  546MOL0     O71987   5.128   7.179   0.287  0.3445 -0.3343 -0.3535
  546MOL0     C71988   5.421   7.364   0.222  0.4090  1.4035  0.5230
  546MOL0     C71989   5.558   7.344   0.211  0.3832 -0.7085  0.0804
  546MOL0     N71990   6.354   7.078   0.315 -0.4396 -1.2367  0.4025
  546MOL0     N71991   6.458   7.097   0.235 -0.4931 -0.2894 -0.8542
  546MOL0     C71992   7.505   7.236   0.167  0.2476  0.5892  0.2483
  546MOL0     C71993   7.636   7.183   0.176 -0.1003  0.5945 -0.5223
  546MOL0     C71994   8.007   6.979   0.319  0.6947  0.0586  0.4695
  546MOL0     C71995   8.137   7.040   0.304  0.3774  0.1718 -0.4037
  546MOL0     C71996   8.252   6.958   0.308 -0.4878 -0.4176 -0.0172
  546MOL0     C71997   8.246   6.818   0.330  0.5510 -0.2014 -0.2890
  546MOL0     O71998   8.353   6.728   0.351 -0.6059  0.4037 -0.6331
  546MOL0     C71999   8.489   6.784   0.352 -0.7633 -0.5511 -0.0279
  546MOL0     C72000   8.582   6.657   0.365  0.0389 -0.1015  0.6746
  546MOL0     C72001   8.597   6.583   0.230 -0.3398 -0.0246 -0.3964
  546MOL0     C72002   8.709   6.617   0.141 -0.5063 -0.8967 -0.3576
  546MOL0     C72003   8.693   6.560  -0.002  0.5567  0.3850 -0.7430
  546MOL0     C72004   8.664   6.507  -0.107 -0.8069 -0.5997 -0.0284
  546MOL0     C72005   8.119   6.764   0.353  0.5658 -0.6314  0.0812
  546MOL0     C72006   8.002   6.843   0.352 -0.2766 -0.2291 -0.4550
  546MOL0     H72007   7.535   6.888   0.324 -0.0483  0.6896  0.1361
  546MOL0     H72008   7.322   6.986   0.301 -0.4503  0.2041 -0.3824
  546MOL0     H72009   7.232   7.216   0.412 -0.5313 -1.1187 -0.5283
  546MOL0     H72010   7.101   7.168   0.319  0.2103 -1.3555 -0.1321
  546MOL0     H72011   7.205   7.460   0.285 -1.1297  2.5200  0.9056
  546MOL0     H72012   7.083   7.405   0.402  0.1827 -1.9696 -0.4489
  546MOL0     H72013   6.954   7.297   0.211  3.0567 -2.0698 -1.4288
  546MOL0     H72014   7.056   7.395   0.107  1.2433 -0.9743  0.4639
  546MOL0     H72015   6.847   7.481   0.302 -0.9307  0.9391 -0.4445
  546MOL0     H72016   6.967   7.591   0.255 -2.3804  1.6598 -0.9558
  546MOL0     H72017   6.884   7.567   0.014 -0.0947 -2.0816 -0.8177
  546MOL0     H72018   6.772   7.624   0.132  1.2056  0.6568  1.5405
  546MOL0     H72019   6.807   7.340   0.003  0.3166  1.3472 -1.4614
  546MOL0     H72020   6.675   7.451  -0.034 -2.6679 -0.2623  2.3944
  546MOL0     H72021   6.714   7.290   0.216 -2.0245 -1.6007  0.1068
  546MOL0     H72022   6.614   7.444   0.209 -2.1346 -1.2642  1.3861
  546MOL0     H72023   6.552   7.219   0.008 -0.9681 -0.2847 -0.6296
  546MOL0     H72024   6.468   7.359   0.032 -1.9989 -0.3184  0.1530
  546MOL0     H72025   6.323   7.397   0.265 -0.6611  0.1558 -2.2736
  546MOL0     H72026   6.212   7.258   0.546 -0.2611  0.6797 -1.0736
  546MOL0     H72027   6.148   7.107   0.471 -1.9974  0.9757 -2.0211
  546MOL0     H72028   6.081   7.396   0.371 -2.1928  0.3134 -0.8609
  546MOL0     H72029   5.994   7.297   0.498  2.8476  0.8847  2.0078
  546MOL0     H72030   6.029   7.206   0.212 -3.5368 -1.1261 -1.5124
  546MOL0     H72031   5.942   7.124   0.330 -0.7525 -1.6730 -2.8991
  546MOL0     H72032   5.860   7.364   0.190  1.8780  0.6537  1.0109
  546MOL0     H72033   5.804   7.351   0.358 -4.3931 -0.3121 -0.6639
  546MOL0     H72034   5.563   7.005   0.222  1.0933  0.2988  3.5810
  546MOL0     H72035   5.324   7.036   0.217 -0.1465  0.4175 -0.5012
  546MOL0     H72036   4.899   7.267   0.249 -3.2931  1.1444  0.9879
  546MOL0     H72037   4.684   7.272   0.117  2.1774 -3.3811 -1.3243
  546MOL0     H72038   4.507   7.419  -0.009  1.4307  0.7887 -0.1608
  546MOL0     H72039   4.545   7.250  -0.073  1.9014  0.6476  1.0605
  546MOL0     H72040   4.452   7.325  -0.290  0.5162 -0.1153  0.0394
  546MOL0     H72041   4.426   7.489  -0.214  1.3809 -0.4557 -0.3115
  546MOL0     H72042   4.209   7.344  -0.241 -1.3159 -2.5372  0.3750
  546MOL0     H72043   4.247   7.421  -0.079 -2.0316  2.0259 -2.4765
  546MOL0     H72044   4.335   7.142  -0.165  2.7595  1.4422  0.4982
  546MOL0     H72045   4.316   7.219  -0.005 -2.3415  2.8911  0.7922
  546MOL0     H72046   4.101   7.129  -0.189  1.3080  0.9148 -0.6042
  546MOL0     H72047   4.080   7.233  -0.040  3.0139  1.5707  0.6869
  546MOL0     H72048   4.175   7.036   0.110 -0.8318  0.2161  0.3195
  546MOL0     H72049   4.202   6.953  -0.042 -0.6323 -0.0504 -0.7001
  546MOL0     H72050   3.926   7.010   0.084 -0.1745  1.1548 -0.4613
  546MOL0     H72051   3.955   6.977  -0.090 -0.9215 -1.5341 -0.0478
  546MOL0     H72052   3.989   6.812   0.166  0.3385  0.5108 -0.2116
  546MOL0     H72053   4.100   6.776   0.033  1.3630  1.1087  1.8837
  546MOL0     H72054   4.911   7.497  -0.183  2.9663  0.7738  0.8302
  546MOL0     H72055   5.104   7.475  -0.056  0.4124 -2.6478 -1.8029
  546MOL0     H72056   5.384   7.466   0.218 -1.1772  0.8485  0.3797
  546MOL0     H72057   5.621   7.429   0.188 -2.4328  1.3661 -0.5263
  546MOL0     H72058   7.495   7.334   0.120  1.2361 -0.1013 -1.5118
  546MOL0     H72059   7.726   7.234   0.144  1.1143 -1.7027 -1.0511
  546MOL0     H72060   8.152   7.147   0.292 -2.1210  0.7936  1.2362
  546MOL0     H72061   8.352   6.997   0.296  0.2934 -1.8880  1.2726
  546MOL0     H72062   8.513   6.854   0.432  1.3761 -1.9539  0.6404
  546MOL0     H72063   8.514   6.826   0.255  1.5891 -1.1846  0.2372
  546MOL0     H72064   8.680   6.689   0.402 -0.0580  0.7649  0.2044
  546MOL0     H72065   8.538   6.592   0.442  1.1765 -0.4165  1.0878
  546MOL0     H72066   8.504   6.589   0.173  0.1579  0.3654 -1.1761
  546MOL0     H72067   8.611   6.477   0.254  0.8588 -0.0257 -1.0129
  546MOL0     H72068   8.700   6.723   0.117  0.5752 -1.0651 -1.6254
  546MOL0     H72069   8.804   6.592   0.189 -0.6950  0.8364  1.0052
  546MOL0     H72070   8.636   6.456  -0.198  2.3005 -1.2271 -0.7416
  546MOL0     H72071   8.106   6.656   0.357 -2.3205 -0.3626 -0.2163
  546MOL0     H72072   7.904   6.800   0.367 -0.6350  0.9816  0.8298
  547MOL0     O72073   3.867   0.511   7.794  0.2259  0.5458 -0.1321
  547MOL0     C72074   3.875   0.620   7.737  0.1137 -0.5022 -0.0450
  547MOL0     O72075   3.766   0.696   7.704 -0.1611 -0.0029 -0.2491
  547MOL0     C72076   3.634   0.669   7.740  0.0694 -0.2767  0.3455
  547MOL0     C72077   3.591   0.572   7.832  0.1820  0.3806 -0.0132
  547MOL0     C72078   3.464   0.558   7.875  0.8104 -0.2987 -0.0628
  547MOL0     C72079   3.362   0.638   7.824  0.4417 -0.1221  1.4154
  547MOL0     O72080   3.229   0.614   7.863 -0.4446 -0.6143 -0.3571
  547MOL0     C72081   3.141   0.588   7.755  0.8480 -0.8977  0.2291
  547MOL0     C72082   3.010   0.542   7.823  0.1525  0.4842 -0.2987
  547MOL0     C72083   2.942   0.648   7.908 -0.2025 -0.8078 -0.0621
  547MOL0     C72084   2.804   0.605   7.957 -0.6452  0.3800  0.4121
  547MOL0     C72085   2.719   0.723   8.001  0.3404  0.3783  0.0886
  547MOL0     C72086   2.579   0.673   8.044 -0.3107  0.2823 -0.5592
  547MOL0     C72087   2.484   0.781   8.081 -0.7335  0.1388  0.0315
  547MOL0     C72088   2.362   0.723   8.147  0.1617 -0.7012 -0.5014
  547MOL0     N72089   2.243   0.815   8.142  0.9748 -0.4007  0.3818
  547MOL0     C72090   2.228   0.927   8.213  0.1385 -0.0664  0.3840
  547MOL0     C72091   2.104   0.969   8.183  0.6812 -0.2650 -0.3548
  547MOL0     C72092   2.067   1.102   8.236  0.5660  0.2369  0.0258
  547MOL0     C72093   1.948   1.159   8.161  0.1567  0.0699 -0.2989
  547MOL0     C72094   1.873   1.276   8.237  0.4099 -0.3978 -1.0136
  547MOL0     C72095   1.777   1.357   8.155 -1.2364 -0.3934 -0.7637
  547MOL0     O72096   1.672   1.278   8.111  0.3098  0.6359  0.9079
  547MOL0     C72097   1.635   1.277   7.974  1.0074 -0.6734  0.1085
  547MOL0     C72098   1.694   1.360   7.881 -1.1685  0.0655  0.1162
  547MOL0     C72099   1.650   1.356   7.749 -0.8428  0.3370 -0.6876
  547MOL0     C72100   1.538   1.279   7.713 -0.0194  0.2424 -0.1139
  547MOL0     C72101   1.497   1.258   7.567  0.0020  0.8318  0.8713
  547MOL0     O72102   1.366   1.213   7.556 -0.0931 -0.3548 -0.1945
  547MOL0     C72103   1.338   1.138   7.445 -0.1089 -0.3256 -0.0012
  547MOL0     C72104   1.302   1.005   7.464 -0.4756  0.2036  0.2972
  547MOL0     C72105   1.272   0.931   7.350 -0.1367  0.9843  0.2266
  547MOL0     C72106   1.248   0.982   7.227 -0.5623 -0.5823  0.0650
  547MOL0     O72107   1.221   0.909   7.117 -0.5781  0.0232 -0.0027
  547MOL0     C72108   1.112   0.817   7.121  0.2360 -0.8121  0.3163
  547MOL0     C72109   1.051   0.801   6.986  0.5246  0.0181  0.0520
  547MOL0     C72110   0.949   0.906   6.933 -0.3393 -0.0364  0.0455
  547MOL0     C72111   0.949   0.905   6.779 -0.0058  1.4987  0.1044
  547MOL0     C72112   0.833   0.995   6.723  0.7979  0.1381 -0.2868
  547MOL0     C72113   0.687   0.978   6.780  0.1357  0.0015  0.0289
  547MOL0     C72114   0.647   1.092   6.873  0.1088 -0.1614 -0.0023
  547MOL0     C72115   0.530   1.065   6.971 -0.4751  0.0625  0.3663
  547MOL0    Cl72116   0.400   1.091   6.876 -0.5554 -0.2634  0.1917
  547MOL0     C72117   1.277   1.120   7.207 -0.0387  0.3425 -0.3702
  547MOL0     C72118   1.332   1.192   7.318  0.1225  0.4809  0.2544
  547MOL0     O72119   1.575   1.276   7.477  0.0606 -0.3487  0.5068
  547MOL0     C72120   1.477   1.200   7.809 -0.0145  0.1421 -0.4599
  547MOL0     C72121   1.528   1.196   7.940 -0.1066  0.3055 -0.9048
  547MOL0     N72122   2.045   0.886   8.087  0.2863 -0.6811 -0.1024
  547MOL0     N72123   2.131   0.794   8.067  0.1092 -0.1593 -0.4535
  547MOL0     C72124   3.394   0.733   7.722  0.1717 -1.0052 -1.3127
  547MOL0     C72125   3.530   0.754   7.683  0.4693 -0.4739 -0.8602
  547MOL0     C72126   4.013   0.676   7.706 -0.3570  0.1580 -0.0546
  547MOL0     C72127   4.025   0.784   7.615  0.4851 -0.0744  0.3693
  547MOL0     C72128   4.146   0.831   7.584 -0.7533  0.7104 -0.2987
  547MOL0     C72129   4.260   0.758   7.623 -0.4009  1.0676 -0.8261
  547MOL0     O72130   4.371   0.824   7.583  0.0560 -0.0977 -0.7973
  547MOL0     C72131   4.483   0.744   7.552  0.0277 -0.0951 -0.1912
  547MOL0     C72132   4.597   0.730   7.649  0.3633 -1.3749 -0.3601
  547MOL0     C72133   4.642   0.863   7.695 -0.3947  0.7234 -0.7977
  547MOL0     C72134   4.770   0.859   7.785  1.0015  0.3793  0.3249
  547MOL0     C72135   4.736   0.778   7.894 -0.1267 -0.0123  0.6975
  547MOL0     C72136   4.721   0.712   7.994  0.0322 -0.1128 -0.7696
  547MOL0     C72137   4.251   0.652   7.722  0.0739 -0.0326  0.6292
  547MOL0     C72138   4.128   0.617   7.767  0.9519  0.8432  0.4350
  547MOL0     H72139   3.656   0.501   7.882 -0.6054  0.1089  0.6516
  547MOL0     H72140   3.443   0.492   7.958  1.2734  2.5092  2.4773
  547MOL0     H72141   3.187   0.511   7.693  4.7733  1.7209 -0.4993
  547MOL0     H72142   3.130   0.672   7.686  0.3127 -1.8644 -0.8823
  547MOL0     H72143   3.036   0.454   7.883 -1.3937 -0.3779 -0.8323
  547MOL0     H72144   2.947   0.506   7.742  0.8461 -0.0256 -0.6196
  547MOL0     H72145   2.927   0.740   7.851  1.1229  0.3089  1.3240
  547MOL0     H72146   2.997   0.672   7.999 -0.6632  0.0856 -0.0022
  547MOL0     H72147   2.743   0.545   7.889  2.0810  1.6788 -3.6469
  547MOL0     H72148   2.820   0.541   8.044  3.6154  0.2113 -0.2767
  547MOL0     H72149   2.704   0.797   7.923  1.1543  1.2233  0.7214
  547MOL0     H72150   2.768   0.770   8.087  1.5745  1.2156 -1.0515
  547MOL0     H72151   2.597   0.604   8.127  0.9768 -0.6393 -1.5474
  547MOL0     H72152   2.536   0.621   7.957 -1.3593  1.5917 -0.8525
  547MOL0     H72153   2.525   0.864   8.138  0.1051 -0.4949  0.3615
  547MOL0     H72154   2.455   0.830   7.987 -1.1531  2.2926  1.2431
  547MOL0     H72155   2.375   0.693   8.251 -2.6799  1.8536  0.7242
  547MOL0     H72156   2.336   0.630   8.095  0.1894 -1.5912  1.0221
  547MOL0     H72157   2.302   0.978   8.274  2.3523 -2.1377 -0.4128
  547MOL0     H72158   2.148   1.172   8.213  0.6422 -0.4707 -2.0468
  547MOL0     H72159   2.050   1.107   8.344 -1.4971 -1.1450 -0.1831
  547MOL0     H72160   1.872   1.082   8.144 -1.2587  0.8020  2.1971
  547MOL0     H72161   1.972   1.206   8.065  3.5079  3.9281  2.0891
  547MOL0     H72162   1.822   1.227   8.321  2.1648 -2.9429 -1.3224
  547MOL0     H72163   1.946   1.347   8.276  1.8391  0.1658 -4.3655
  547MOL0     H72164   1.836   1.410   8.079  0.8075 -0.2294  0.8531
  547MOL0     H72165   1.730   1.435   8.216 -0.0299  0.6482 -1.1137
  547MOL0     H72166   1.786   1.417   7.894  0.1427 -1.8104 -0.4450
  547MOL0     H72167   1.704   1.416   7.676  1.8314  0.5297  1.3151
  547MOL0     H72168   1.311   0.960   7.563 -0.8101 -0.7981 -0.1169
  547MOL0     H72169   1.278   0.823   7.344  1.1897  1.0420  0.1261
  547MOL0     H72170   1.032   0.854   7.186  1.0281  1.5181  0.0480
  547MOL0     H72171   1.150   0.718   7.149  2.9510  0.1461  0.2959
  547MOL0     H72172   1.000   0.705   6.993 -2.3148  1.4551  0.3867
  547MOL0     H72173   1.133   0.789   6.915  1.1307  1.3125  0.5039
  547MOL0     H72174   0.993   1.004   6.956 -2.3212  1.1007 -0.7994
  547MOL0     H72175   0.854   0.885   6.982  0.2298 -1.3786  0.6164
  547MOL0     H72176   1.042   0.950   6.745  0.0959  1.8868  0.8723
  547MOL0     H72177   0.940   0.804   6.740 -1.3596  2.8046 -3.3601
  547MOL0     H72178   0.821   0.964   6.618  0.3716  0.6322 -0.3892
  547MOL0     H72179   0.864   1.100   6.729 -1.1074  0.7038  0.2916
  547MOL0     H72180   0.678   0.881   6.828 -0.7400  0.0483 -0.0222
  547MOL0     H72181   0.615   0.982   6.697 -1.5878 -4.3672  1.0395
  547MOL0     H72182   0.734   1.100   6.938  1.1413  0.0414 -1.3758
  547MOL0     H72183   0.634   1.179   6.808  1.6174  0.4120  0.4215
  547MOL0     H72184   0.516   1.139   7.051  0.0732  1.4337 -0.7612
  547MOL0     H72185   0.527   0.966   7.019 -1.8477 -2.0489 -3.6532
  547MOL0     H72186   1.256   1.164   7.110  1.1863 -0.9123 -1.2509
  547MOL0     H72187   1.321   1.300   7.318 -1.9696  0.4577 -3.4254
  547MOL0     H72188   1.404   1.120   7.796 -0.1888  0.2049  0.0894
  547MOL0     H72189   1.491   1.126   8.014  0.7267 -1.3743 -2.0184
  547MOL0     H72190   3.310   0.796   7.695  0.2868 -1.3289 -2.5151
  547MOL0     H72191   3.552   0.842   7.623  0.4220 -1.9128 -3.1096
  547MOL0     H72192   3.935   0.825   7.570 -1.6833 -1.1913  3.3309
  547MOL0     H72193   4.152   0.912   7.512 -1.4121  0.4842 -0.6193
  547MOL0     H72194   4.530   0.795   7.468  0.1464  1.0361  0.5442
  547MOL0     H72195   4.450   0.646   7.514 -0.9936  0.6750 -1.3499
  547MOL0     H72196   4.564   0.670   7.734 -0.8334  1.2591  1.1730
  547MOL0     H72197   4.681   0.676   7.606  0.8844 -1.6207  0.9395
  547MOL0     H72198   4.575   0.934   7.744 -0.3461  0.3267 -0.1535
  547MOL0     H72199   4.682   0.919   7.610 -0.3684  1.6055 -0.2083
  547MOL0     H72200   4.854   0.810   7.734  0.0994 -1.1929  0.2643
  547MOL0     H72201   4.800   0.960   7.816 -2.0659  2.0255 -1.6182
  547MOL0     H72202   4.711   0.655   8.084 -1.7592  3.0016  1.1777
  547MOL0     H72203   4.343   0.614   7.765  0.3988  3.4655  3.5094
  547MOL0     H72204   4.115   0.534   7.836 -3.4636  0.8655 -0.0730
  548MOL0     O72205   4.629   9.271   8.908  0.0592  0.3426  0.1295
  548MOL0     C72206   4.675   9.169   8.955  0.3552 -0.0031 -0.0023
  548MOL0     O72207   4.643   9.111   9.074 -0.2407 -0.3540 -0.4096
  548MOL0     C72208   4.551   9.171   9.153  0.1818 -0.2868 -0.0738
  548MOL0     C72209   4.419   9.138   9.135 -0.7006 -0.1208 -0.5573
  548MOL0     C72210   4.318   9.211   9.201  0.4264 -0.1059  0.7135
  548MOL0     C72211   4.348   9.319   9.290 -0.5241 -0.4683  0.4020
  548MOL0     O72212   4.253   9.388   9.355 -0.5517  0.3320 -0.4281
  548MOL0     C72213   4.144   9.423   9.276 -0.0768  0.2752  0.1614
  548MOL0     C72214   4.075   9.549   9.332  0.1543  0.1610  0.1824
  548MOL0     C72215   3.934   9.566   9.264  0.1057 -0.4204  0.2657
  548MOL0     C72216   3.888   9.709   9.290 -0.2998  0.8094  0.4060
  548MOL0     C72217   3.735   9.705   9.292  0.1950  0.3972  0.7569
  548MOL0     C72218   3.684   9.667   9.430  0.3447 -0.1631 -0.2363
  548MOL0     C72219   3.536   9.638   9.424  0.2728 -0.0246  0.2247
  548MOL0     C72220   3.448   9.748   9.355 -0.9832  0.1919  0.1958
  548MOL0     N72221   3.303   9.719   9.358 -0.3798  0.0604  0.0795
  548MOL0     C72222   3.233   9.668   9.463  0.6922 -0.1686 -0.1406
  548MOL0     C72223   3.103   9.664   9.422  0.0091 -0.4812  0.0913
  548MOL0     C72224   2.995   9.597   9.485 -0.8249  0.0024  0.5252
  548MOL0     C72225   2.920   9.699   9.565 -0.1372  0.2661 -0.9430
  548MOL0     C72226   3.005   9.768   9.675 -0.0592 -0.3838 -0.2656
  548MOL0     C72227   2.904   9.837   9.770 -0.4713  0.2607 -1.1523
  548MOL0     O72228   2.846   9.959   9.713 -0.1350 -0.4374 -0.3842
  548MOL0     C72229   2.733  10.015   9.765 -0.1070  0.0490 -0.5648
  548MOL0     C72230   2.671   9.980   9.894  0.4708 -0.4893 -0.0165
  548MOL0     C72231   2.558  10.041   9.946 -0.2297 -0.1973 -0.2995
  548MOL0     C72232   2.485  10.125   9.864 -0.2485 -0.9086 -0.3567
  548MOL0     C72233   2.353  10.177   9.913 -0.1834 -0.0412  0.7912
  548MOL0     O72234   2.308  10.276   9.829  0.2380  0.3630 -0.2931
  548MOL0     C72235   2.176  10.302   9.836 -0.4158  0.1907 -0.4890
  548MOL0     C72236   2.082  10.234   9.760  0.1268  0.6636  0.3337
  548MOL0     C72237   1.944  10.257   9.773 -0.5853 -0.1725 -0.9849
  548MOL0     C72238   1.898  10.354   9.868  0.0783  1.3581 -0.0199
  548MOL0     O72239   1.759  10.383   9.884  0.0488  0.7895  0.0614
  548MOL0     C72240   1.672  10.274   9.870 -0.7938 -0.2800 -0.6561
  548MOL0     C72241   1.559  10.300   9.965  0.1381  0.2565  0.9252
  548MOL0     C72242   1.480  10.431   9.941  0.7443 -0.3267  0.5882
  548MOL0     C72243   1.366  10.443  10.040  0.4321  0.5481 -0.0551
  548MOL0     C72244   1.287  10.571  10.016 -0.8664  0.6842 -0.3369
  548MOL0     C72245   1.152  10.582  10.088  0.7385 -0.4885  0.0178
  548MOL0     C72246   1.168  10.578  10.237  0.2454  1.2553  0.6050
  548MOL0     C72247   1.033  10.558  10.305  0.1571  0.1417  0.2361
  548MOL0    Cl72248   0.992  10.387  10.273  0.0386  0.2121  0.2057
  548MOL0     C72249   1.996  10.429   9.942  0.5211  0.4447  0.3183
  548MOL0     C72250   2.132  10.405   9.922  0.6676 -0.3240  0.2812
  548MOL0     O72251   2.293  10.134  10.011 -0.5257 -0.4291 -0.0451
  548MOL0     C72252   2.539  10.164   9.737  0.1327  0.7750  0.0462
  548MOL0     C72253   2.667  10.120   9.701 -0.0020  0.6323  1.1054
  548MOL0     N72254   3.096   9.706   9.288 -0.2305 -0.1542 -0.4298
  548MOL0     N72255   3.214   9.737   9.254  0.1755  0.0635  0.1089
  548MOL0     C72256   4.482   9.349   9.303  0.5288  0.1435  0.1381
  548MOL0     C72257   4.581   9.276   9.242 -0.3600  0.2415 -0.5313
  548MOL0     C72258   4.783   9.101   8.891 -0.9698  0.1902  0.5915
  548MOL0     C72259   4.900   9.069   8.962 -0.0633  0.4997 -0.0293
  548MOL0     C72260   5.001   9.008   8.898 -0.0170  0.1810 -0.1506
  548MOL0     C72261   5.011   8.983   8.761  0.0044  0.4434 -0.8759
  548MOL0     O72262   5.123   8.911   8.726 -0.3502  0.6745  0.2286
  548MOL0     C72263   5.137   8.865   8.593 -0.0512 -0.1939  0.3429
  548MOL0     C72264   5.193   8.984   8.501 -0.0266  0.1759  0.0557
  548MOL0     C72265   5.327   9.028   8.553  0.5345 -0.1261 -0.6095
  548MOL0     C72266   5.441   8.924   8.549 -0.2050 -0.6172 -0.3007
  548MOL0     C72267   5.549   8.962   8.445 -0.8245  0.5001 -1.0517
  548MOL0     C72268   5.644   8.973   8.368  1.1360  0.4313  0.0255
  548MOL0     C72269   4.898   9.020   8.691 -0.0442 -0.1158  0.7436
  548MOL0     C72270   4.786   9.078   8.750  0.3548  0.4357 -0.5788
  548MOL0     H72271   4.396   9.063   9.061 -2.0656  0.4747 -0.7677
  548MOL0     H72272   4.213   9.184   9.188  1.4877 -4.8257  0.0125
  548MOL0     H72273   4.073   9.339   9.278  0.1003  0.0841 -0.9773
  548MOL0     H72274   4.178   9.445   9.174 -0.7431  2.1286  0.3147
  548MOL0     H72275   4.133   9.640   9.316  1.7726  0.0639  4.2302
  548MOL0     H72276   4.075   9.547   9.442  0.7405 -0.5950  0.1804
  548MOL0     H72277   3.860   9.498   9.307 -1.5358  1.5533  0.7302
  548MOL0     H72278   3.955   9.547   9.158  4.1992 -2.8518  1.3075
  548MOL0     H72279   3.926   9.756   9.381  0.9529 -0.6898  0.7186
  548MOL0     H72280   3.921   9.777   9.212 -3.1408  1.8679  0.0056
  548MOL0     H72281   3.718   9.627   9.217 -0.3261 -0.1474  1.4402
  548MOL0     H72282   3.706   9.801   9.247 -0.2070 -0.4948 -0.9562
  548MOL0     H72283   3.709   9.746   9.502 -2.8057 -0.0636  0.8823
  548MOL0     H72284   3.733   9.576   9.464 -0.1571 -1.4325 -2.6598
  548MOL0     H72285   3.525   9.548   9.363  0.7413  1.9096 -2.8863
  548MOL0     H72286   3.498   9.628   9.526  2.1511  1.2898  1.1190
  548MOL0     H72287   3.473   9.759   9.249  0.8390 -0.0260  0.5714
  548MOL0     H72288   3.480   9.846   9.393 -1.2104  2.2631 -4.3755
  548MOL0     H72289   3.270   9.628   9.557 -1.5686 -2.2183 -0.0144
  548MOL0     H72290   3.022   9.515   9.553  0.2313 -0.2475 -0.1648
  548MOL0     H72291   2.928   9.554   9.409 -1.7474  2.5011 -0.1630
  548MOL0     H72292   2.836   9.649   9.613 -0.0117 -1.4942 -2.4457
  548MOL0     H72293   2.868   9.771   9.501 -1.4346  0.7286  0.5602
  548MOL0     H72294   3.061   9.695   9.734 -0.8514  0.3800  1.5087
  548MOL0     H72295   3.066   9.844   9.626 -0.5722 -0.0330 -0.3745
  548MOL0     H72296   2.951   9.849   9.868 -2.2890 -1.1033 -0.0533
  548MOL0     H72297   2.812   9.781   9.792  0.3892 -1.0172 -0.7519
  548MOL0     H72298   2.721   9.922   9.970 -0.0565  2.3730  2.7011
  548MOL0     H72299   2.518  10.032  10.047 -0.2672  2.6025  0.0204
  548MOL0     H72300   2.115  10.158   9.690  1.9906  0.3590  1.4965
  548MOL0     H72301   1.872  10.215   9.705 -1.3589  0.3103 -0.4779
  548MOL0     H72302   1.711  10.176   9.895 -0.8686 -0.5737 -1.6734
  548MOL0     H72303   1.627  10.275   9.770 -1.0243  2.4818 -0.6003
  548MOL0     H72304   1.598  10.308  10.066 -0.6411  3.3268  1.0566
  548MOL0     H72305   1.492  10.214   9.950  2.1424 -0.9492 -2.1366
  548MOL0     H72306   1.437  10.440   9.841 -2.1179 -3.3070  1.3908
  548MOL0     H72307   1.539  10.523   9.946 -0.1702  0.3654 -0.6257
  548MOL0     H72308   1.298  10.357  10.033  1.7237 -0.7215  1.9091
  548MOL0     H72309   1.412  10.436  10.139  0.0270 -0.8711  0.0574
  548MOL0     H72310   1.263  10.570   9.909 -2.1213 -0.0846 -0.0769
  548MOL0     H72311   1.353  10.656  10.032 -0.2942  0.0036  1.0889
  548MOL0     H72312   1.090  10.502  10.044 -0.1627  0.9062 -1.3604
  548MOL0     H72313   1.097  10.674  10.065  0.3992 -0.7461 -0.2319
  548MOL0     H72314   1.240  10.498  10.259  0.4056  1.5035  1.0061
  548MOL0     H72315   1.212  10.671  10.277 -1.1699  2.2265 -0.0324
  548MOL0     H72316   0.960  10.623  10.256 -1.5918 -0.3053  2.1074
  548MOL0     H72317   1.037  10.582  10.412  0.4214 -1.0909  0.5187
  548MOL0     H72318   1.952  10.507  10.004 -0.4516 -0.8054  1.2592
  548MOL0     H72319   2.204  10.451   9.988  0.3718 -2.0988  1.9240
  548MOL0     H72320   2.495  10.234   9.666  0.9551 -0.2028 -1.4943
  548MOL0     H72321   2.700  10.150   9.602 -1.6655  0.8431  0.5820
  548MOL0     H72322   4.501   9.432   9.370 -1.4764  1.4762 -0.8630
  548MOL0     H72323   4.683   9.311   9.255 -0.4579  0.0202  1.0194
  548MOL0     H72324   4.908   9.083   9.070 -0.4587  3.5826 -0.3051
  548MOL0     H72325   5.087   8.982   8.960 -0.4930  0.6092  0.7101
  548MOL0     H72326   5.052   8.818   8.543 -0.0927  1.2856 -1.0637
  548MOL0     H72327   5.211   8.784   8.587 -1.4465 -2.0632  4.6602
  548MOL0     H72328   5.200   8.941   8.400  0.3794 -0.4983  0.3616
  548MOL0     H72329   5.128   9.071   8.512  0.1077  0.3071 -0.1726
  548MOL0     H72330   5.316   9.055   8.659 -0.5839 -2.6459 -0.0081
  548MOL0     H72331   5.362   9.114   8.495  0.7743 -0.2796 -0.6934
  548MOL0     H72332   5.492   8.929   8.645  3.1546  3.5602 -1.9360
  548MOL0     H72333   5.410   8.823   8.522  1.2707 -1.8904  2.3802
  548MOL0     H72334   5.734   8.983   8.311  2.2654 -0.5925  1.5340
  548MOL0     H72335   4.893   9.000   8.584  0.1187  0.4034  0.6353
  548MOL0     H72336   4.693   9.100   8.700 -0.8366 -1.3660  0.7557
  549MOL0     O72337  11.232   3.464   4.879  0.6077  0.6659 -0.5317
  549MOL0     C72338  11.307   3.543   4.936  0.0244  0.3197  0.3234
  549MOL0     O72339  11.292   3.676   4.929  0.2937 -0.0660  0.5353
  549MOL0     C72340  11.175   3.740   4.888  0.5074 -0.2916  0.5036
  549MOL0     C72341  11.042   3.690   4.896  0.5284  0.0929  0.2572
  549MOL0     C72342  10.928   3.769   4.880 -0.1124 -0.4558 -0.3214
  549MOL0     C72343  10.939   3.908   4.870  0.7210 -0.7086 -0.4222
  549MOL0     O72344  10.828   3.993   4.866 -0.1832  0.9404  1.0971
  549MOL0     C72345  10.701   3.950   4.893  0.3459 -0.4164 -1.0568
  549MOL0     C72346  10.604   4.065   4.868  0.6763 -0.0610 -0.0815
  549MOL0     C72347  10.467   4.030   4.928  0.3270  0.4616  1.2765
  549MOL0     C72348  10.388   3.925   4.848  0.2377  0.5632 -0.7590
  549MOL0     C72349  10.247   3.908   4.907  0.0725  0.3034  0.0375
  549MOL0     C72350  10.161   3.821   4.817 -0.2907 -0.0428  0.1037
  549MOL0     C72351  10.013   3.787   4.854 -0.3508  0.4904  0.9392
  549MOL0     C72352   9.988   3.700   4.975  0.0805 -0.1082 -0.1597
  549MOL0     N72353   9.846   3.680   4.994  0.6301 -0.2720 -0.2670
  549MOL0     C72354   9.761   3.697   5.101  0.8359  0.3079 -0.4533
  549MOL0     C72355   9.635   3.660   5.060 -1.0846  0.0622  0.1199
  549MOL0     C72356   9.517   3.644   5.140  0.6441  0.0802 -0.3379
  549MOL0     C72357   9.427   3.757   5.102 -0.6578  0.4202 -0.1997
  549MOL0     C72358   9.291   3.734   5.168 -0.4460 -0.2885  0.1165
  549MOL0     C72359   9.174   3.796   5.078  0.5486  0.4968 -0.1010
  549MOL0     O72360   9.184   3.755   4.936 -0.3234 -0.2149  0.2679
  549MOL0     C72361   9.088   3.779   4.838  0.3800  0.6665 -0.5442
  549MOL0     C72362   9.139   3.833   4.718 -0.3290 -0.0565  0.0906
  549MOL0     C72363   9.051   3.882   4.615  0.4706 -0.3184 -0.4371
  549MOL0     C72364   8.913   3.882   4.643  0.4350 -0.0098  0.7124
  549MOL0     C72365   8.818   3.937   4.539  0.4157  0.1828  0.1350
  549MOL0     O72366   8.690   3.923   4.564  0.7259 -0.0430  0.5147
  549MOL0     C72367   8.597   3.982   4.480 -0.5117  0.0089  1.3174
  549MOL0     C72368   8.597   3.968   4.338 -0.8698 -0.2517 -0.0742
  549MOL0     C72369   8.500   4.042   4.265 -0.4219  0.2320 -0.7295
  549MOL0     C72370   8.392   4.110   4.332 -0.2621 -0.5462 -0.8783
  549MOL0     O72371   8.282   4.161   4.263 -0.9193 -0.0545 -0.2171
  549MOL0     C72372   8.296   4.215   4.133  0.7578  0.2772  1.0440
  549MOL0     C72373   8.160   4.237   4.086 -0.0741 -0.0358  0.0083
  549MOL0     C72374   8.092   4.103   4.050 -0.2467 -0.5698 -0.7198
  549MOL0     C72375   7.936   4.134   4.041 -1.5152  0.7590 -0.2954
  549MOL0     C72376   7.868   4.012   3.964 -0.1540  0.1130  0.9402
  549MOL0     C72377   7.720   4.022   3.944  0.0439  0.2017 -0.2556
  549MOL0     C72378   7.681   3.942   3.815  0.3738  0.4415  0.5199
  549MOL0     C72379   7.529   3.921   3.812 -0.2773  0.4146  0.4322
  549MOL0    Cl72380   7.461   3.830   3.958 -0.1792  0.0267  0.0070
  549MOL0     C72381   8.390   4.105   4.473  0.0584  0.0129  0.0338
  549MOL0     C72382   8.495   4.051   4.546  0.4226  0.1172 -0.2550
  549MOL0     O72383   8.871   3.988   4.434  0.8694  0.4109 -0.6675
  549MOL0     C72384   8.868   3.837   4.767  0.0898  0.6350 -0.1128
  549MOL0     C72385   8.949   3.775   4.866 -0.3596  0.2147 -0.2072
  549MOL0     N72386   9.644   3.627   4.928 -0.4370  0.6361  0.4087
  549MOL0     N72387   9.769   3.628   4.896 -1.3403 -0.5815  0.6473
  549MOL0     C72388  11.061   3.960   4.866  0.1863  0.2070 -0.6442
  549MOL0     C72389  11.180   3.879   4.872  0.7322  0.1568 -0.1523
  549MOL0     C72390  11.421   3.500   5.017 -0.5565 -0.9774  1.2360
  549MOL0     C72391  11.451   3.370   5.033 -0.0462 -0.1261 -0.3395
  549MOL0     C72392  11.552   3.333   5.134  0.1011  0.3450  0.4911
  549MOL0     C72393  11.623   3.426   5.210  0.3128 -0.1669 -0.3044
  549MOL0     O72394  11.712   3.397   5.309  0.7809  0.3400 -0.4827
  549MOL0     C72395  11.742   3.257   5.335  0.1942  0.7885 -0.1541
  549MOL0     C72396  11.830   3.255   5.458  0.0842 -0.2121  0.5589
  549MOL0     C72397  11.752   3.233   5.592 -0.7516  0.4446 -0.7527
  549MOL0     C72398  11.698   3.090   5.619  0.1882 -0.3466 -0.2365
  549MOL0     C72399  11.803   2.986   5.626 -0.1982 -0.2221  0.1398
  549MOL0     C72400  11.900   2.911   5.640  0.6322 -0.0784 -0.2863
  549MOL0     C72401  11.584   3.555   5.190 -0.1003 -0.4798 -0.5454
  549MOL0     C72402  11.498   3.597   5.088  0.6203 -0.3630  0.3912
  549MOL0     H72403  11.019   3.588   4.922  0.7318  0.3754  1.6519
  549MOL0     H72404  10.828   3.727   4.884 -0.3936  0.2599  0.6290
  549MOL0     H72405  10.709   3.928   5.000  2.4406  0.2000 -1.0536
  549MOL0     H72406  10.668   3.865   4.833 -0.6344 -1.1395  0.4282
  549MOL0     H72407  10.603   4.080   4.760  0.2137 -2.9903 -0.5780
  549MOL0     H72408  10.633   4.152   4.928 -1.2135  0.3639  0.2542
  549MOL0     H72409  10.416   4.126   4.924 -2.3794 -0.8949 -1.7328
  549MOL0     H72410  10.478   3.998   5.032 -2.3965 -1.3308  1.1217
  549MOL0     H72411  10.383   3.956   4.743 -0.5968  5.1440  0.4169
  549MOL0     H72412  10.438   3.828   4.860  0.4715  0.8221  0.4820
  549MOL0     H72413  10.194   4.003   4.910  0.2077  0.3808 -0.0267
  549MOL0     H72414  10.239   3.873   5.010 -2.0157  0.1156 -0.1320
  549MOL0     H72415  10.207   3.725   4.791  0.7058  0.5275 -0.3000
  549MOL0     H72416  10.155   3.880   4.725 -0.8117  0.0305  0.1774
  549MOL0     H72417   9.965   3.880   4.886  0.4771  0.9376  0.9312
  549MOL0     H72418   9.969   3.750   4.761  1.5032  0.3926  0.0488
  549MOL0     H72419  10.030   3.741   5.068  2.6423 -2.4539 -0.1335
  549MOL0     H72420  10.028   3.600   4.953 -1.6096 -0.9092  0.2718
  549MOL0     H72421   9.790   3.730   5.200 -0.9582  0.1345  0.1670
  549MOL0     H72422   9.535   3.650   5.247  0.2907  1.0977 -0.3299
  549MOL0     H72423   9.477   3.543   5.127 -0.4514  0.0327  2.7501
  549MOL0     H72424   9.428   3.766   4.993  3.0273  0.3512 -0.2798
  549MOL0     H72425   9.464   3.851   5.144 -4.0733  0.3902  3.4807
  549MOL0     H72426   9.277   3.626   5.173  5.2952 -1.4271 -0.8820
  549MOL0     H72427   9.304   3.773   5.270 -0.1342 -3.9094  1.6188
  549MOL0     H72428   9.178   3.902   5.103  2.1890 -0.3981  4.4068
  549MOL0     H72429   9.080   3.752   5.113  0.6984 -0.8307 -1.2680
  549MOL0     H72430   9.247   3.825   4.703 -0.3616 -0.2116 -0.0650
  549MOL0     H72431   9.093   3.924   4.524  0.7781  3.0040  1.0732
  549MOL0     H72432   8.680   3.925   4.282 -0.5944  1.6265 -1.2034
  549MOL0     H72433   8.503   4.039   4.157 -0.8179  0.6652 -0.7579
  549MOL0     H72434   8.351   4.158   4.058  2.2601  0.5691  1.9019
  549MOL0     H72435   8.347   4.311   4.123  2.2462 -0.6142 -0.2499
  549MOL0     H72436   8.170   4.304   4.001  2.6373 -0.3102  0.0364
  549MOL0     H72437   8.108   4.296   4.162  2.2270  1.3794  0.5988
  549MOL0     H72438   8.098   4.036   4.136 -4.7916  1.0322  1.1785
  549MOL0     H72439   8.136   4.059   3.960  1.1097  1.2291 -0.9966
  549MOL0     H72440   7.889   4.131   4.140 -2.6751 -3.2648 -0.7619
  549MOL0     H72441   7.918   4.227   3.987 -0.3005  0.5956 -1.0121
  549MOL0     H72442   7.891   3.915   4.008  0.1768 -0.1568  0.1718
  549MOL0     H72443   7.915   3.996   3.867  3.4946 -3.8865  3.0539
  549MOL0     H72444   7.682   4.123   3.927 -1.5910 -0.6139 -1.7316
  549MOL0     H72445   7.666   3.991   4.033 -1.9824 -0.3761 -1.6100
  549MOL0     H72446   7.725   3.978   3.721 -1.8708 -1.5631 -1.4157
  549MOL0     H72447   7.725   3.842   3.820 -0.3193  0.1737  1.6089
  549MOL0     H72448   7.502   3.872   3.719 -0.3241  0.5960  0.3495
  549MOL0     H72449   7.465   4.010   3.813 -1.2161 -0.2092  2.4281
  549MOL0     H72450   8.312   4.158   4.526 -2.4634 -1.1389 -2.3074
  549MOL0     H72451   8.500   4.051   4.654  1.2762 -0.8577 -0.2701
  549MOL0     H72452   8.766   3.843   4.804 -0.3351  3.3798 -1.4989
  549MOL0     H72453   8.912   3.742   4.963  1.3982  2.4826  1.3240
  549MOL0     H72454  11.078   4.067   4.858 -0.0526  0.2737 -0.3065
  549MOL0     H72455  11.279   3.923   4.873  1.9808 -2.4613  0.8032
  549MOL0     H72456  11.404   3.288   4.980  1.8164 -1.4516 -0.0363
  549MOL0     H72457  11.577   3.228   5.132 -1.2347  0.0142 -1.1278
  549MOL0     H72458  11.795   3.224   5.246  0.0009  2.2697 -0.8446
  549MOL0     H72459  11.665   3.182   5.355  1.1032 -0.1226  0.0516
  549MOL0     H72460  11.918   3.190   5.453 -1.6350 -2.5670 -1.8192
  549MOL0     H72461  11.871   3.356   5.466  0.2902 -0.1124 -1.2567
  549MOL0     H72462  11.669   3.302   5.612 -1.8918 -1.2388  0.5795
  549MOL0     H72463  11.827   3.259   5.668  1.6466 -4.1354 -1.2374
  549MOL0     H72464  11.647   3.087   5.715  1.5414  3.1043  0.7672
  549MOL0     H72465  11.622   3.072   5.543 -0.1113 -1.6756  0.3601
  549MOL0     H72466  11.993   2.860   5.654  1.2221  1.1841  0.5636
  549MOL0     H72467  11.634   3.627   5.254  1.1698 -2.6265  1.0213
  549MOL0     H72468  11.487   3.705   5.078  0.5422 -0.2106  1.9737
  550MOL0     O72469   9.349   2.042   2.214 -0.1978 -0.5099  0.4245
  550MOL0     C72470   9.353   1.965   2.306 -0.4118  0.4901  0.4264
  550MOL0     O72471   9.248   1.899   2.369  0.3828 -0.5404  0.0262
  550MOL0     C72472   9.118   1.920   2.324  0.0798 -0.0921  0.5445
  550MOL0     C72473   9.085   1.875   2.199  0.0052  0.3339  0.0320
  550MOL0     C72474   8.958   1.910   2.151 -0.8605 -0.2472  0.4704
  550MOL0     C72475   8.870   2.002   2.218  0.4197 -0.0495  0.8133
  550MOL0     O72476   8.749   2.036   2.163  0.2567 -0.4336  0.2451
  550MOL0     C72477   8.623   1.985   2.224  0.2588  0.1708  0.5613
  550MOL0     C72478   8.513   2.087   2.185  0.0410  1.0295  0.0276
  550MOL0     C72479   8.369   2.037   2.197  0.0128 -0.4344 -0.2551
  550MOL0     C72480   8.326   1.994   2.335 -0.0118  0.0352  0.2111
  550MOL0     C72481   8.170   1.975   2.320  0.8398 -0.5433 -0.4037
  550MOL0     C72482   8.098   1.928   2.449  0.4292  0.0388 -0.6473
  550MOL0     C72483   7.949   1.918   2.435 -0.7072  0.6221 -0.2922
  550MOL0     C72484   7.888   1.890   2.574  1.2361 -0.1535 -0.2825
  550MOL0     N72485   7.739   1.878   2.583  0.0707  0.4229  0.5582
  550MOL0     C72486   7.648   1.851   2.480 -0.2669 -0.8907  0.4996
  550MOL0     C72487   7.525   1.848   2.541 -0.7315 -0.2255  0.1707
  550MOL0     C72488   7.394   1.828   2.473  1.1201 -0.2944 -0.9884
  550MOL0     C72489   7.313   1.720   2.536  0.5927  0.2842 -0.6969
  550MOL0     C72490   7.167   1.706   2.485  0.4079 -0.0034 -0.5051
  550MOL0     C72491   7.111   1.578   2.533  0.7329 -0.1201 -0.5084
  550MOL0     O72492   7.101   1.499   2.419 -0.1423  0.0936  0.4071
  550MOL0     C72493   6.978   1.487   2.350  0.0202  0.3541 -0.1132
  550MOL0     C72494   6.972   1.399   2.245 -0.7755  1.0551  0.0605
  550MOL0     C72495   6.854   1.382   2.170  0.4424 -0.3625 -1.3496
  550MOL0     C72496   6.734   1.449   2.193 -1.2557 -0.5432  0.2355
  550MOL0     C72497   6.619   1.418   2.122  0.8656  0.5251  0.3121
  550MOL0     O72498   6.504   1.486   2.157 -0.5351 -0.1101 -0.3074
  550MOL0     C72499   6.377   1.463   2.116  0.4818 -0.6782  0.8740
  550MOL0     C72500   6.343   1.359   2.028  0.1148  0.2242 -0.0392
  550MOL0     C72501   6.210   1.340   1.978  0.0193  1.3485 -0.2339
  550MOL0     C72502   6.113   1.419   2.042  1.2058  0.5396 -0.2603
  550MOL0     O72503   5.977   1.401   2.038  0.0558 -0.8096  0.0081
  550MOL0     C72504   5.929   1.295   1.955  0.0089  0.2878 -0.3601
  550MOL0     C72505   5.777   1.312   1.964 -1.2260 -0.3428  0.2946
  550MOL0     C72506   5.699   1.208   1.886 -0.7879 -0.4472 -0.5462
  550MOL0     C72507   5.543   1.226   1.889 -0.8912  0.6637  0.0058
  550MOL0     C72508   5.474   1.137   1.781 -0.3688 -0.2341 -0.2652
  550MOL0     C72509   5.477   1.197   1.644  0.5388 -0.5203  0.8994
  550MOL0     C72510   5.409   1.094   1.552 -0.0267  0.2181  0.6190
  550MOL0     C72511   5.394   1.160   1.415 -0.4094 -0.1759  0.5643
  550MOL0    Cl72512   5.548   1.219   1.335 -0.2220  0.2159 -0.4609
  550MOL0     C72513   6.149   1.526   2.130  0.4759  0.3367  0.0833
  550MOL0     C72514   6.285   1.546   2.169  0.3102  0.2866  1.1666
  550MOL0     O72515   6.622   1.322   2.040 -0.0724 -0.4962 -0.1241
  550MOL0     C72516   6.734   1.534   2.302 -1.0435 -0.4457  0.4550
  550MOL0     C72517   6.853   1.552   2.377 -0.6722  0.0677 -0.5545
  550MOL0     N72518   7.549   1.865   2.678  0.8625  0.1620  0.0400
  550MOL0     N72519   7.665   1.890   2.701  0.1495  0.0330  0.1016
  550MOL0     C72520   8.908   2.032   2.350  0.4535  0.0495  0.3743
  550MOL0     C72521   9.033   1.995   2.403 -0.2168 -0.0829 -0.2432
  550MOL0     C72522   9.492   1.938   2.352 -0.4682  0.5191 -0.1237
  550MOL0     C72523   9.599   1.974   2.270 -0.2565 -0.3511  0.4269
  550MOL0     C72524   9.733   1.934   2.311  0.6777 -0.4515  0.7659
  550MOL0     C72525   9.750   1.850   2.425 -1.1860  0.7531 -0.3164
  550MOL0     O72526   9.879   1.826   2.480  0.1252 -0.8137 -0.5139
  550MOL0     C72527   9.988   1.813   2.383  0.1291  1.0747 -0.3742
  550MOL0     C72528  10.058   1.673   2.393  0.8236 -0.1664 -0.7371
  550MOL0     C72529  10.157   1.666   2.513 -0.1289  0.2171 -0.8181
  550MOL0     C72530  10.208   1.528   2.549 -0.2933 -0.4161 -0.3780
  550MOL0     C72531  10.336   1.555   2.620  0.1549 -0.1760  1.0414
  550MOL0     C72532  10.442   1.591   2.651 -0.0312 -0.1875 -0.1052
  550MOL0     C72533   9.644   1.823   2.505  0.1738  0.0270 -0.0275
  550MOL0     C72534   9.514   1.860   2.472 -0.6420 -0.0344 -0.2305
  550MOL0     H72535   9.139   1.805   2.137 -1.2794 -1.4143  0.8067
  550MOL0     H72536   8.925   1.880   2.053 -0.2497  2.2404 -0.5759
  550MOL0     H72537   8.626   1.965   2.331 -1.2744  1.6937  0.9277
  550MOL0     H72538   8.607   1.881   2.194  1.3833 -0.9334  3.4796
  550MOL0     H72539   8.516   2.104   2.077 -2.9169  0.1804 -0.2762
  550MOL0     H72540   8.531   2.179   2.240  1.7223  0.5929  0.2518
  550MOL0     H72541   8.358   1.945   2.138  1.0245  0.6693 -2.2681
  550MOL0     H72542   8.295   2.110   2.162 -0.7173 -0.2253  1.6045
  550MOL0     H72543   8.391   1.907   2.349  1.9671  1.4808  0.3951
  550MOL0     H72544   8.350   2.074   2.406 -2.0836  1.2954 -0.4236
  550MOL0     H72545   8.144   1.896   2.250 -0.8027  0.6534 -1.2261
  550MOL0     H72546   8.121   2.068   2.290  0.7436 -0.9564 -1.5498
  550MOL0     H72547   8.119   1.999   2.530 -0.5629  0.6444 -0.9092
  550MOL0     H72548   8.137   1.832   2.485  0.9809  1.0042  1.5230
  550MOL0     H72549   7.922   2.016   2.393  2.6862  1.9551  0.3127
  550MOL0     H72550   7.924   1.838   2.365  3.5250 -2.3920  1.2519
  550MOL0     H72551   7.909   1.964   2.652 -1.7306  1.0057 -0.4241
  550MOL0     H72552   7.915   1.791   2.612 -2.8322 -1.0499  0.7694
  550MOL0     H72553   7.664   1.848   2.373 -1.8754 -1.5499  0.2538
  550MOL0     H72554   7.412   1.816   2.366  0.5757 -1.1724 -0.9866
  550MOL0     H72555   7.345   1.926   2.480  1.7954  0.0930 -1.5040
  550MOL0     H72556   7.305   1.733   2.644 -1.7321 -0.6899 -0.6999
  550MOL0     H72557   7.364   1.623   2.525  0.7392  0.4830 -2.0073
  550MOL0     H72558   7.109   1.785   2.533  1.9495 -0.4832  2.3858
  550MOL0     H72559   7.158   1.712   2.376 -3.6968 -2.9010 -0.5484
  550MOL0     H72560   7.019   1.587   2.591 -0.4388 -1.3026 -2.0932
  550MOL0     H72561   7.178   1.533   2.607 -2.2858 -0.3198  2.2972
  550MOL0     H72562   7.062   1.344   2.223 -0.1709  1.9705  0.1969
  550MOL0     H72563   6.867   1.307   2.093  2.6907 -3.7856  1.9801
  550MOL0     H72564   6.416   1.293   1.982  0.2697  1.2920 -1.4000
  550MOL0     H72565   6.190   1.249   1.922  3.1968  1.1664 -1.2917
  550MOL0     H72566   5.962   1.201   1.999 -0.9801  0.8276  1.6489
  550MOL0     H72567   5.958   1.291   1.849  1.1277 -3.5107 -0.0486
  550MOL0     H72568   5.756   1.406   1.913 -1.6891 -0.7849 -0.3552
  550MOL0     H72569   5.751   1.321   2.070  4.8774 -1.4037  2.3228
  550MOL0     H72570   5.732   1.111   1.925 -0.5532 -0.6512 -1.2452
  550MOL0     H72571   5.731   1.213   1.782  0.2144 -1.9756 -0.3419
  550MOL0     H72572   5.512   1.185   1.985 -1.6335 -1.3168 -1.0255
  550MOL0     H72573   5.517   1.332   1.878  1.5024  0.9966 -4.6746
  550MOL0     H72574   5.369   1.126   1.810 -0.4358  2.2219  0.6224
  550MOL0     H72575   5.514   1.035   1.785  1.0757  0.3347  2.1774
  550MOL0     H72576   5.576   1.211   1.600 -0.2547  3.2093 -0.0031
  550MOL0     H72577   5.426   1.294   1.647  1.0197 -0.2138 -0.1598
  550MOL0     H72578   5.470   1.003   1.547 -1.3155 -0.6120 -1.3434
  550MOL0     H72579   5.317   1.057   1.598  0.5380 -0.1246  1.5096
  550MOL0     H72580   5.316   1.237   1.422 -0.3612 -0.2362  2.0634
  550MOL0     H72581   5.351   1.089   1.344 -1.2291 -0.3495  1.2160
  550MOL0     H72582   6.070   1.582   2.179 -0.6525 -2.0912  1.2078
  550MOL0     H72583   6.311   1.635   2.226  1.1817  1.7048 -1.3047
  550MOL0     H72584   6.639   1.585   2.316 -1.3528 -1.1898  1.1174
  550MOL0     H72585   6.852   1.616   2.465  1.4029  1.3974 -1.4235
  550MOL0     H72586   8.833   2.094   2.399  0.5192  0.7129 -0.3341
  550MOL0     H72587   9.072   2.015   2.503 -0.3236 -1.4814  0.0931
  550MOL0     H72588   9.595   2.045   2.189  1.3284 -0.7267 -0.0240
  550MOL0     H72589   9.815   1.980   2.257 -0.2939 -1.7273 -2.0312
  550MOL0     H72590  10.055   1.899   2.394  0.5420  0.9903 -2.0146
  550MOL0     H72591   9.952   1.809   2.280  2.3350  1.3394 -1.2139
  550MOL0     H72592   9.978   1.600   2.401 -0.8203  1.6361  0.1265
  550MOL0     H72593  10.116   1.653   2.302  1.0502  1.8638 -1.0873
  550MOL0     H72594  10.091   1.696   2.595  1.8917 -0.1955  1.0553
  550MOL0     H72595  10.236   1.742   2.499  0.5858 -0.3018  0.2722
  550MOL0     H72596  10.144   1.463   2.609  3.3539 -1.5030  2.8106
  550MOL0     H72597  10.232   1.469   2.460  0.6326 -2.7788  1.3244
  550MOL0     H72598  10.538   1.630   2.679  0.8478  0.4002 -3.5214
  550MOL0     H72599   9.651   1.780   2.605  0.4923  0.5860  0.1929
  550MOL0     H72600   9.432   1.855   2.544 -0.3177  0.2660  0.1663
  551MOL0     O72601   7.625   1.056   9.403 -0.1107  0.1028 -0.2143
  551MOL0     C72602   7.721   0.993   9.448 -0.1709  0.2833 -0.4474
  551MOL0     O72603   7.720   0.866   9.500  0.2100 -0.3682 -0.3500
  551MOL0     C72604   7.598   0.826   9.541 -0.1751  0.3956 -0.0168
  551MOL0     C72605   7.559   0.828   9.677  0.5494 -0.1654  0.5327
  551MOL0     C72606   7.426   0.781   9.706 -0.0280  0.2650  0.4883
  551MOL0     C72607   7.341   0.724   9.601  0.7801 -0.2089 -0.0774
  551MOL0     O72608   7.219   0.689   9.640 -0.1348  0.7063 -0.1935
  551MOL0     C72609   7.138   0.617   9.548  0.4871 -0.2139  0.0712
  551MOL0     C72610   7.031   0.547   9.623 -0.7572  0.7317  0.5808
  551MOL0     C72611   6.962   0.611   9.737  0.4481  0.2539  0.1671
  551MOL0     C72612   6.816   0.567   9.733 -0.2818  0.6619 -0.0378
  551MOL0     C72613   6.736   0.636   9.841  0.0640  0.1832  0.2252
  551MOL0     C72614   6.596   0.582   9.842  0.5844  0.5246 -0.4287
  551MOL0     C72615   6.505   0.664   9.937 -1.0574 -0.2931 -0.0005
  551MOL0     C72616   6.438   0.774   9.860  0.2214 -0.3630  0.1698
  551MOL0     N72617   6.352   0.843   9.955 -0.5495  0.3573 -0.0902
  551MOL0     C72618   6.404   0.945  10.032  0.2759  0.0574  0.3480
  551MOL0     C72619   6.298   0.992  10.099 -0.0841  0.0803 -0.1593
  551MOL0     C72620   6.295   1.115  10.194  0.5607 -0.4296  0.2183
  551MOL0     C72621   6.216   1.238  10.132  0.2702 -0.5393 -0.4496
  551MOL0     C72622   6.308   1.295  10.023 -0.1478  0.7091 -0.8638
  551MOL0     C72623   6.238   1.411   9.946  0.6949 -0.3609  0.2587
  551MOL0     O72624   6.206   1.516  10.039  0.6281  0.1714  0.3899
  551MOL0     C72625   6.302   1.615  10.046 -0.1021  0.2665  0.5703
  551MOL0     C72626   6.269   1.734  10.116  0.5694 -0.1886 -0.0985
  551MOL0     C72627   6.354   1.842  10.120  0.3378 -0.3184  0.4376
  551MOL0     C72628   6.473   1.849  10.044 -0.4670  0.3045 -0.2495
  551MOL0     C72629   6.563   1.968  10.042  0.6507  0.2341 -0.9540
  551MOL0     O72630   6.682   1.968   9.968 -0.7390 -0.3608  0.5046
  551MOL0     C72631   6.742   2.093   9.972  0.7063 -0.7681  0.0902
  551MOL0     C72632   6.832   2.126  10.074 -0.2321  0.6873 -0.0408
  551MOL0     C72633   6.910   2.245  10.067 -0.3760  0.7179 -0.3042
  551MOL0     C72634   6.884   2.337   9.959  0.7844  0.5829  0.2190
  551MOL0     O72635   6.961   2.455   9.941 -0.4335  0.1623  0.4418
  551MOL0     C72636   6.915   2.566  10.008 -0.1546 -0.2621 -0.0086
  551MOL0     C72637   7.010   2.679   9.986 -0.2039 -0.7922  0.0617
  551MOL0     C72638   6.962   2.810  10.049 -0.5477 -0.2177 -0.3750
  551MOL0     C72639   7.052   2.940  10.026  0.8676  0.8783  0.1560
  551MOL0     C72640   6.979   3.069  10.061  0.2098  0.5058 -0.0956
  551MOL0     C72641   7.068   3.189  10.042 -0.4009 -0.4427 -0.9048
  551MOL0     C72642   6.982   3.323  10.062  0.1635  0.2914  0.5810
  551MOL0     C72643   7.080   3.435  10.082 -0.9813 -0.9138 -0.2286
  551MOL0    Cl72644   7.170   3.429  10.247  0.4302 -0.4525  0.0650
  551MOL0     C72645   6.798   2.306   9.862  0.2661 -0.0533 -0.4367
  551MOL0     C72646   6.729   2.180   9.860 -0.1365 -1.0548  0.4161
  551MOL0     O72647   6.519   2.063  10.101 -0.7589 -0.4934 -0.3394
  551MOL0     C72648   6.512   1.726   9.981 -0.3213  0.1138 -0.0473
  551MOL0     C72649   6.437   1.610   9.990 -0.1724  0.1459 -0.2641
  551MOL0     N72650   6.180   0.906  10.074 -0.0077 -0.3744 -0.2522
  551MOL0     N72651   6.216   0.824   9.983  0.5656 -0.5367  0.2683
  551MOL0     C72652   7.393   0.710   9.472  0.4531 -0.4523 -0.0376
  551MOL0     C72653   7.524   0.764   9.446  0.7656 -1.2951  0.6757
  551MOL0     C72654   7.857   1.053   9.415  0.1799 -0.4040  0.8074
  551MOL0     C72655   7.881   1.182   9.370 -0.3182  0.3275  0.1479
  551MOL0     C72656   8.015   1.232   9.345  0.8596  0.3999 -0.1217
  551MOL0     C72657   8.123   1.146   9.345 -0.0155  0.0728  0.0866
  551MOL0     O72658   8.252   1.180   9.306 -0.4720 -0.1245  0.2770
  551MOL0     C72659   8.275   1.283   9.216 -0.1267 -1.1248 -0.2843
  551MOL0     C72660   8.420   1.306   9.181 -0.8582  1.2443  0.1856
  551MOL0     C72661   8.424   1.411   9.063 -0.3186 -0.2970  0.9766
  551MOL0     C72662   8.565   1.454   9.063 -0.4917 -0.1326  0.4793
  551MOL0     C72663   8.654   1.360   9.006  0.2630 -0.5381  1.6815
  551MOL0     C72664   8.732   1.284   8.952  0.0294  0.0034  1.2017
  551MOL0     C72665   8.105   1.022   9.397  0.1165  0.9291 -0.3541
  551MOL0     C72666   7.971   0.973   9.427  0.0212  0.0800 -0.5643
  551MOL0     H72667   7.621   0.881   9.749  0.2120  3.5903 -1.6757
  551MOL0     H72668   7.378   0.785   9.803 -0.6932 -2.4678  0.3510
  551MOL0     H72669   7.186   0.549   9.478 -0.3979 -0.0753 -0.6863
  551MOL0     H72670   7.082   0.690   9.488 -0.5148 -0.5406  0.5786
  551MOL0     H72671   7.065   0.447   9.655 -1.6403  0.6336  1.2384
  551MOL0     H72672   6.961   0.512   9.547 -0.8120 -0.2792  1.0707
  551MOL0     H72673   6.963   0.721   9.732  0.3646  0.3262  1.3634
  551MOL0     H72674   7.000   0.587   9.837 -0.1411  1.0170  0.5908
  551MOL0     H72675   6.781   0.596   9.633  2.3892  2.0588 -0.6401
  551MOL0     H72676   6.808   0.457   9.734 -1.5473  0.4254 -5.1718
  551MOL0     H72677   6.739   0.744   9.822 -0.7193  0.1672 -0.0395
  551MOL0     H72678   6.788   0.612   9.934  1.0187  0.0151 -0.3365
  551MOL0     H72679   6.599   0.480   9.881  0.3979  0.7395  0.1510
  551MOL0     H72680   6.560   0.574   9.739  0.8907  2.3778 -0.7168
  551MOL0     H72681   6.433   0.596   9.983  0.9481 -2.1822  0.5058
  551MOL0     H72682   6.573   0.712  10.008 -0.3319  1.0089 -1.5039
  551MOL0     H72683   6.375   0.733   9.780 -1.9426  1.2077  0.9779
  551MOL0     H72684   6.510   0.843   9.816 -1.3908  1.3987  0.1759
  551MOL0     H72685   6.505   0.982  10.046  1.0167 -1.1371 -1.4678
  551MOL0     H72686   6.397   1.151  10.210 -0.1336  2.1981 -0.6904
  551MOL0     H72687   6.249   1.084  10.288 -1.8371 -0.4215 -0.8687
  551MOL0     H72688   6.203   1.314  10.210  2.5893  0.6737 -1.1156
  551MOL0     H72689   6.123   1.218  10.079 -0.7172  4.2223 -1.0144
  551MOL0     H72690   6.406   1.319  10.065 -1.0615 -0.8043  2.4606
  551MOL0     H72691   6.322   1.220   9.944  1.3752  1.5201 -1.4030
  551MOL0     H72692   6.138   1.380   9.915  1.4605 -0.7659 -1.9285
  551MOL0     H72693   6.285   1.455   9.858  0.4373  0.6923  0.6350
  551MOL0     H72694   6.178   1.738  10.176  1.3837  1.1883  1.0933
  551MOL0     H72695   6.329   1.930  10.178  0.3043 -0.9953  1.4768
  551MOL0     H72696   6.840   2.050  10.151 -0.8473 -2.1513 -2.5801
  551MOL0     H72697   6.986   2.257  10.144 -0.3687 -0.6498 -0.0778
  551MOL0     H72698   6.904   2.548  10.116  1.5088 -0.4624  0.1502
  551MOL0     H72699   6.818   2.589   9.962 -0.3215 -1.0561 -0.0736
  551MOL0     H72700   7.036   2.689   9.881 -2.3390  0.2471 -0.4115
  551MOL0     H72701   7.102   2.641  10.032  0.1069 -0.0569  0.0691
  551MOL0     H72702   6.947   2.789  10.155 -3.2993 -0.3483 -0.7163
  551MOL0     H72703   6.865   2.827  10.002  0.3934 -2.8367 -3.5952
  551MOL0     H72704   7.146   2.941  10.083  3.7634  5.6969 -3.8362
  551MOL0     H72705   7.073   2.946   9.919  1.4773  0.6310  0.2524
  551MOL0     H72706   6.958   3.063  10.168  1.5619 -1.6158  0.1123
  551MOL0     H72707   6.881   3.082  10.015  0.3875  0.0338 -0.6216
  551MOL0     H72708   7.117   3.189   9.944 -0.4111  1.5559 -0.9461
  551MOL0     H72709   7.149   3.185  10.117 -1.8541  1.9842  0.9704
  551MOL0     H72710   6.930   3.340   9.967  0.0860  0.1379  0.5944
  551MOL0     H72711   6.910   3.320  10.145 -1.6525  0.7580 -0.9046
  551MOL0     H72712   7.019   3.526  10.076 -1.6659 -1.1209  2.3537
  551MOL0     H72713   7.145   3.433   9.994  2.5654 -1.7935  2.2258
  551MOL0     H72714   6.793   2.375   9.778 -0.8982  1.3117  0.6971
  551MOL0     H72715   6.666   2.170   9.772 -1.7568  4.8587  0.4553
  551MOL0     H72716   6.613   1.721   9.941  0.4290 -3.0765  1.8480
  551MOL0     H72717   6.478   1.515   9.957 -0.5572  0.0791 -0.5709
  551MOL0     H72718   7.335   0.658   9.397  1.4133 -1.8423  0.1516
  551MOL0     H72719   7.568   0.750   9.348  0.0206  0.4174  0.0465
  551MOL0     H72720   7.793   1.245   9.369 -0.5660  0.1854  3.1670
  551MOL0     H72721   8.023   1.328   9.295  2.0651 -1.2057 -3.2716
  551MOL0     H72722   8.247   1.378   9.264  2.0103 -0.2474 -0.6633
  551MOL0     H72723   8.220   1.266   9.123  0.3619  3.1538 -1.6037
  551MOL0     H72724   8.477   1.337   9.270 -1.3239  0.8677  0.6240
  551MOL0     H72725   8.465   1.210   9.156 -1.9006  0.4977  1.0446
  551MOL0     H72726   8.371   1.504   9.084  1.2149  0.2016  2.9369
  551MOL0     H72727   8.392   1.375   8.965  0.6883  0.5111  0.3359
  551MOL0     H72728   8.563   1.548   9.006  3.4677 -0.2421 -0.1526
  551MOL0     H72729   8.599   1.485   9.162 -1.1936  1.5065  0.2456
  551MOL0     H72730   8.806   1.216   8.915 -1.0505 -1.0098  0.8360
  551MOL0     H72731   8.186   0.952   9.411  0.9982  2.5380  4.4440
  551MOL0     H72732   7.961   0.875   9.474  1.8763 -0.3981 -1.0836
  552MOL0     O72733   6.421   1.425   4.752 -0.4117  0.7947  0.5971
  552MOL0     C72734   6.477   1.342   4.822 -0.4303 -0.1781  0.2724
  552MOL0     O72735   6.411   1.263   4.911 -0.5167 -0.2178 -0.0735
  552MOL0     C72736   6.276   1.273   4.912  0.7021 -0.7110  1.3175
  552MOL0     C72737   6.196   1.379   4.957 -0.6313 -0.4845  0.0438
  552MOL0     C72738   6.060   1.394   4.945  0.0955  1.1385 -0.4507
  552MOL0     C72739   5.993   1.283   4.885 -0.4868 -0.7759 -0.3595
  552MOL0     O72740   5.858   1.283   4.862  0.2820  0.2173 -0.9867
  552MOL0     C72741   5.792   1.311   4.986 -0.4488 -0.5536 -0.6422
  552MOL0     C72742   5.651   1.250   5.007  0.2147  0.4181  0.9672
  552MOL0     C72743   5.535   1.338   4.951 -0.1142 -0.1041 -0.1793
  552MOL0     C72744   5.410   1.278   5.012 -0.2146  0.5578  0.2946
  552MOL0     C72745   5.276   1.331   4.958 -0.6181  0.3442  0.1937
  552MOL0     C72746   5.150   1.270   5.014 -0.3424 -1.2020  0.5968
  552MOL0     C72747   5.019   1.319   4.944  0.4650  0.5139  0.0967
  552MOL0     C72748   4.903   1.284   5.041  0.2544 -0.0067  1.1413
  552MOL0     N72749   4.766   1.318   5.006 -0.4730  0.2050  0.0976
  552MOL0     C72750   4.688   1.238   4.924  0.6168  0.3815  0.2971
  552MOL0     C72751   4.575   1.316   4.911 -0.2718  0.7669  1.0701
  552MOL0     C72752   4.453   1.278   4.832 -0.1197  0.3216  0.2083
  552MOL0     C72753   4.396   1.139   4.871  0.0670  0.0338  0.6970
  552MOL0     C72754   4.287   1.088   4.773  0.2715  1.2781  0.2394
  552MOL0     C72755   4.221   0.964   4.826  0.2422 -0.4446  0.3503
  552MOL0     O72756   4.165   0.989   4.955  0.3137 -0.5526  0.2568
  552MOL0     C72757   4.071   0.903   5.006 -0.2675  0.3950 -0.6795
  552MOL0     C72758   4.012   0.921   5.135  0.3428  0.8367 -1.3644
  552MOL0     C72759   3.920   0.827   5.197 -0.4534 -0.1772  0.6044
  552MOL0     C72760   3.890   0.708   5.116 -0.3758  0.5334 -0.4145
  552MOL0     C72761   3.797   0.614   5.169  0.6778  1.0296 -0.0704
  552MOL0     O72762   3.766   0.619   5.304  0.1670 -0.6403  0.1350
  552MOL0     C72763   3.685   0.527   5.359 -0.4423 -0.4597  0.3802
  552MOL0     C72764   3.722   0.390   5.376  0.1892 -0.3896  1.0695
  552MOL0     C72765   3.632   0.301   5.434 -0.2540 -0.3342 -0.2520
  552MOL0     C72766   3.504   0.340   5.476 -0.0772  0.1215 -0.2591
  552MOL0     O72767   3.423   0.243   5.542 -0.7260  0.2674 -0.3633
  552MOL0     C72768   3.283   0.272   5.525  0.3208 -0.5046  0.6462
  552MOL0     C72769   3.197   0.154   5.578  0.3033 -0.1345 -0.7173
  552MOL0     C72770   3.048   0.201   5.563  0.4187 -0.1962  0.1269
  552MOL0     C72771   2.971   0.111   5.658 -0.1236  0.0948  0.8047
  552MOL0     C72772   2.825   0.150   5.664 -0.2024  0.3238 -0.3096
  552MOL0     C72773   2.739   0.056   5.760  0.6905  0.2125  0.7560
  552MOL0     C72774   2.771   0.054   5.911 -0.8169  0.2142 -0.0292
  552MOL0     C72775   2.671  -0.012   5.996  0.0117  0.6615 -0.5831
  552MOL0    Cl72776   2.508   0.066   5.966 -0.1538 -0.7161  0.3160
  552MOL0     C72777   3.472   0.476   5.465  0.0315 -0.7085  0.3536
  552MOL0     C72778   3.556   0.566   5.404 -0.6699  0.1417  0.1139
  552MOL0     O72779   3.755   0.526   5.086  0.2061 -0.1771  0.5716
  552MOL0     C72780   3.958   0.682   4.999  0.0539  0.1189  0.6168
  552MOL0     C72781   4.041   0.777   4.946  0.5839 -0.7204  0.2209
  552MOL0     N72782   4.593   1.432   4.986  0.2708  0.4068  0.2518
  552MOL0     N72783   4.705   1.435   5.039  0.0745 -0.2836 -0.2702
  552MOL0     C72784   6.066   1.178   4.835 -0.5464 -0.0666  0.5664
  552MOL0     C72785   6.206   1.168   4.845  0.4510 -0.4567  0.2278
  552MOL0     C72786   6.622   1.335   4.791 -0.4681  0.9253 -0.2774
  552MOL0     C72787   6.695   1.228   4.847  0.0979  0.4734  0.4167
  552MOL0     C72788   6.826   1.200   4.802  0.3020 -0.2969  0.4706
  552MOL0     C72789   6.892   1.292   4.727  0.0789  0.8430 -0.5288
  552MOL0     O72790   7.018   1.258   4.707 -0.0281  0.1250 -0.7293
  552MOL0     C72791   7.098   1.326   4.610  0.3435 -0.4738  0.3846
  552MOL0     C72792   7.168   1.461   4.652 -1.3494 -0.0556  0.4225
  552MOL0     C72793   7.280   1.416   4.750 -0.1486  0.6232  1.0224
  552MOL0     C72794   7.399   1.514   4.749  0.7824  0.8293  0.3716
  552MOL0     C72795   7.472   1.517   4.876  0.9232 -0.1733  0.2680
  552MOL0     C72796   7.537   1.515   4.982 -0.6031 -0.1211  0.2035
  552MOL0     C72797   6.837   1.405   4.678 -0.3907 -1.1132 -0.3389
  552MOL0     C72798   6.695   1.423   4.707 -0.4608  0.1752 -0.4539
  552MOL0     H72799   6.253   1.458   5.003  0.2320 -1.9976  1.6958
  552MOL0     H72800   6.015   1.485   4.983  0.9180  1.1830  0.4701
  552MOL0     H72801   5.780   1.420   4.993  2.7439  0.0400 -2.4370
  552MOL0     H72802   5.853   1.269   5.067 -0.4894  1.4427  0.5204
  552MOL0     H72803   5.630   1.240   5.114 -1.4088  1.1330  0.7385
  552MOL0     H72804   5.653   1.153   4.958 -1.3425  0.4189  0.8527
  552MOL0     H72805   5.525   1.326   4.843  0.0998 -0.7399 -0.1374
  552MOL0     H72806   5.545   1.443   4.980  1.0857 -0.5879  1.3045
  552MOL0     H72807   5.413   1.171   4.988  4.0855  0.2213  1.5102
  552MOL0     H72808   5.406   1.287   5.121  2.9947  0.3891  0.5179
  552MOL0     H72809   5.288   1.313   4.851  0.6900  3.4853 -0.2875
  552MOL0     H72810   5.273   1.439   4.974 -0.1885  0.6515 -1.6005
  552MOL0     H72811   5.132   1.314   5.113 -0.2543 -2.0082  0.9715
  552MOL0     H72812   5.155   1.161   5.014  3.9152 -1.1793 -0.8005
  552MOL0     H72813   5.018   1.426   4.923 -1.8131  0.9840  2.2365
  552MOL0     H72814   5.010   1.255   4.855 -1.3378 -0.2240  0.7625
  552MOL0     H72815   4.913   1.330   5.140 -3.5923 -1.2910  2.3210
  552MOL0     H72816   4.909   1.178   5.068  2.2356 -0.0118  0.8190
  552MOL0     H72817   4.701   1.139   4.881 -1.9622  0.7043 -1.4415
  552MOL0     H72818   4.474   1.286   4.725  0.0993  1.7694  0.3418
  552MOL0     H72819   4.372   1.351   4.842 -0.0628  0.1467  2.2005
  552MOL0     H72820   4.349   1.151   4.969  1.2714 -0.1595  1.3251
  552MOL0     H72821   4.475   1.064   4.874  1.2646  1.2747  3.0828
  552MOL0     H72822   4.208   1.160   4.753 -1.5500 -0.6266  0.2301
  552MOL0     H72823   4.332   1.073   4.674  4.5879  2.3531  1.8192
  552MOL0     H72824   4.287   0.877   4.828  1.5914  0.5535  0.0772
  552MOL0     H72825   4.153   0.929   4.747 -0.4958 -2.1292  1.6498
  552MOL0     H72826   4.038   1.001   5.204  1.3848 -0.8769  0.3374
  552MOL0     H72827   3.874   0.847   5.294 -1.0889  0.7799  0.1171
  552MOL0     H72828   3.822   0.355   5.353 -1.3268 -4.2825 -0.3113
  552MOL0     H72829   3.665   0.201   5.460  0.7929  0.3318  1.0844
  552MOL0     H72830   3.258   0.287   5.419 -1.7022  0.0583  1.1619
  552MOL0     H72831   3.266   0.364   5.581  0.9201 -0.7497  1.2525
  552MOL0     H72832   3.221   0.145   5.684  2.1289 -0.2927 -1.1087
  552MOL0     H72833   3.218   0.061   5.523 -1.6065  0.3424 -2.3634
  552MOL0     H72834   3.014   0.178   5.461 -2.5892 -3.5953  1.6677
  552MOL0     H72835   3.040   0.308   5.585  0.1814  0.2403 -1.9126
  552MOL0     H72836   2.979   0.011   5.614 -0.7666  0.8398 -1.0960
  552MOL0     H72837   3.021   0.121   5.755  2.1942 -4.3363  0.3428
  552MOL0     H72838   2.781   0.131   5.566 -0.4085 -1.6094  0.1153
  552MOL0     H72839   2.818   0.257   5.688  0.1877  0.3593 -0.3471
  552MOL0     H72840   2.747  -0.046   5.722  1.2752  0.7464 -0.6013
  552MOL0     H72841   2.636   0.085   5.738  1.0442  0.7423 -0.2530
  552MOL0     H72842   2.867   0.001   5.911 -0.9898 -0.1047  0.3953
  552MOL0     H72843   2.809   0.153   5.939 -1.4344  0.8264 -1.2959
  552MOL0     H72844   2.688   0.006   6.102 -0.8802  2.1137 -0.6604
  552MOL0     H72845   2.665  -0.121   5.986 -2.7832  0.8291 -1.5715
  552MOL0     H72846   3.380   0.519   5.503  1.2994  1.7401  0.8345
  552MOL0     H72847   3.531   0.671   5.393  2.2555  1.0479  1.1425
  552MOL0     H72848   3.931   0.592   4.946 -2.5743  0.9298  0.4297
  552MOL0     H72849   4.085   0.743   4.854 -1.3413 -2.8224 -0.0198
  552MOL0     H72850   6.018   1.094   4.784 -0.5253  1.7751 -2.8067
  552MOL0     H72851   6.265   1.080   4.820 -0.4017 -1.0811  0.3886
  552MOL0     H72852   6.650   1.158   4.917 -0.5413 -2.4040 -2.6132
  552MOL0     H72853   6.885   1.118   4.841  1.7724  0.0739 -0.8602
  552MOL0     H72854   7.031   1.326   4.524 -1.7475 -1.7385  1.9143
  552MOL0     H72855   7.171   1.254   4.574  1.0226  0.4277 -0.0887
  552MOL0     H72856   7.217   1.510   4.568  1.2693  1.6698  2.8058
  552MOL0     H72857   7.100   1.531   4.702 -1.9880 -0.9608  0.8661
  552MOL0     H72858   7.326   1.321   4.721 -1.9376  0.1782 -0.5240
  552MOL0     H72859   7.230   1.401   4.846 -1.3431  1.0710  0.4840
  552MOL0     H72860   7.467   1.494   4.665  0.2891 -2.0766  0.5474
  552MOL0     H72861   7.347   1.610   4.739 -2.8959 -0.6895  2.9048
  552MOL0     H72862   7.605   1.505   5.065 -2.9441  0.3361  2.2866
  552MOL0     H72863   6.883   1.472   4.606  3.0661  0.3095  2.8519
  552MOL0     H72864   6.643   1.503   4.655  1.0339 -1.0632 -4.1961
  553MOL0     O72865   7.044   1.944   5.852 -0.4942  0.3028 -0.9699
  553MOL0     C72866   6.978   1.963   5.752 -0.4007  0.1007  0.5432
  553MOL0     O72867   6.850   1.953   5.748  0.2355  0.2137 -1.5117
  553MOL0     C72868   6.780   1.928   5.870 -0.1576  0.2833 -0.0977
  553MOL0     C72869   6.762   2.026   5.961  0.2246 -0.0279 -0.0481
  553MOL0     C72870   6.701   2.013   6.090  0.0096  0.0199  0.6246
  553MOL0     C72871   6.644   1.891   6.116 -0.4018  0.9884  0.1597
  553MOL0     O72872   6.575   1.891   6.230 -1.1198  0.5242 -0.3058
  553MOL0     C72873   6.537   1.768   6.284 -0.7599  0.1287  0.1367
  553MOL0     C72874   6.469   1.782   6.419 -0.3478 -0.2366  0.3925
  553MOL0     C72875   6.320   1.838   6.411  0.0605 -0.5831 -1.3602
  553MOL0     C72876   6.265   1.843   6.557  0.1976 -1.2760 -0.6750
  553MOL0     C72877   6.122   1.914   6.569 -0.4799 -0.0814  0.2914
  553MOL0     C72878   6.077   1.925   6.712  1.0976 -0.0268 -0.3603
  553MOL0     C72879   5.932   1.976   6.722 -0.1300 -0.9241  1.0233
  553MOL0     C72880   5.870   1.996   6.869  0.2716  0.2608 -0.7420
  553MOL0     N72881   5.734   2.062   6.870 -0.6068 -0.0617  0.6408
  553MOL0     C72882   5.707   2.181   6.804 -0.0476 -0.5820  0.1730
  553MOL0     C72883   5.598   2.227   6.870 -0.2075  0.3230  0.1211
  553MOL0     C72884   5.529   2.354   6.836  0.6592 -1.7026 -0.5722
  553MOL0     C72885   5.405   2.378   6.917  0.3006  0.6248 -0.5493
  553MOL0     C72886   5.428   2.435   7.053 -0.6287 -0.4576 -0.5241
  553MOL0     C72887   5.294   2.459   7.122  0.6108  0.4202  0.8530
  553MOL0     O72888   5.201   2.538   7.032  0.1068 -0.1199 -0.1022
  553MOL0     C72889   5.073   2.562   7.078 -0.8582 -0.7265 -1.0550
  553MOL0     C72890   4.984   2.623   6.991  0.8241 -0.0021 -0.4938
  553MOL0     C72891   4.857   2.671   7.040 -0.5868 -0.1034  1.1513
  553MOL0     C72892   4.814   2.643   7.172 -0.0879 -0.5297 -0.6742
  553MOL0     C72893   4.672   2.672   7.215 -0.5493  0.4249  0.8334
  553MOL0     O72894   4.574   2.719   7.125 -0.2559  0.0374 -0.9925
  553MOL0     C72895   4.444   2.691   7.160 -0.9233  0.0882  0.0293
  553MOL0     C72896   4.364   2.795   7.214  0.1819  0.3942 -0.3805
  553MOL0     C72897   4.232   2.757   7.242  0.2463  0.0950  1.1332
  553MOL0     C72898   4.185   2.635   7.242  0.2836  0.3615 -0.4881
  553MOL0     O72899   4.058   2.624   7.285  0.1243 -0.1812 -0.3811
  553MOL0     C72900   3.977   2.527   7.223 -0.5199  0.4810 -0.0453
  553MOL0     C72901   3.832   2.542   7.267  0.1773 -0.6889 -0.4101
  553MOL0     C72902   3.771   2.682   7.226  0.6788  0.2919 -0.3070
  553MOL0     C72903   3.793   2.720   7.076  0.2820 -0.9630 -0.2278
  553MOL0     C72904   3.706   2.647   6.981  1.2120  0.3863 -0.1769
  553MOL0     C72905   3.696   2.695   6.839  0.2185  0.4268  0.7771
  553MOL0     C72906   3.596   2.600   6.763  0.6026  0.2590  0.4553
  553MOL0     C72907   3.593   2.655   6.617  0.9303  0.2188  0.1773
  553MOL0    Cl72908   3.531   2.831   6.594  0.5265 -0.0684 -0.1010
  553MOL0     C72909   4.263   2.527   7.208  0.2617  0.0454  0.9728
  553MOL0     C72910   4.395   2.556   7.166  0.1268 -1.8465  0.4714
  553MOL0     O72911   4.653   2.629   7.325  0.0694 -0.3070  0.2981
  553MOL0     C72912   4.905   2.576   7.260  0.9278 -0.3827 -1.0978
  553MOL0     C72913   5.038   2.540   7.214  0.1194  0.1230  0.4558
  553MOL0     N72914   5.560   2.135   6.972  0.8649 -1.0695  0.7825
  553MOL0     N72915   5.646   2.043   6.968 -0.7246  0.8130  0.1428
  553MOL0     C72916   6.657   1.788   6.018 -0.7096 -0.9023  0.4555
  553MOL0     C72917   6.725   1.806   5.899  0.6224 -0.3533  0.2284
  553MOL0     C72918   7.047   1.987   5.625  0.4205 -0.3422 -0.1163
  553MOL0     C72919   6.984   2.011   5.502 -0.7155 -1.2547  0.6406
  553MOL0     C72920   7.066   2.044   5.391 -0.7960  0.2081 -0.0482
  553MOL0     C72921   7.202   2.058   5.398  0.1991  0.4947 -0.3644
  553MOL0     O72922   7.282   2.099   5.293 -0.9296  0.8055  0.3739
  553MOL0     C72923   7.242   2.227   5.239  0.1729 -0.0022  0.7283
  553MOL0     C72924   7.172   2.223   5.101  0.4937  0.3494  0.7818
  553MOL0     C72925   7.239   2.120   5.008 -0.3977  0.3665 -0.2532
  553MOL0     C72926   7.195   2.131   4.864 -0.3434  0.3618 -0.3535
  553MOL0     C72927   7.072   2.056   4.846  0.3733  0.2125  0.0177
  553MOL0     C72928   6.964   2.004   4.831 -0.2242 -0.0752  0.2383
  553MOL0     C72929   7.255   2.031   5.524  0.3551 -0.0458 -0.0257
  553MOL0     C72930   7.182   1.977   5.623 -0.0418  0.1853 -0.9076
  553MOL0     H72931   6.792   2.127   5.936 -0.1075  0.3714  1.1180
  553MOL0     H72932   6.691   2.101   6.152 -0.7799  0.6241 -0.3213
  553MOL0     H72933   6.628   1.707   6.298  0.0331  1.4686  0.9846
  553MOL0     H72934   6.468   1.723   6.212  0.3367  3.3060 -3.2368
  553MOL0     H72935   6.533   1.859   6.464 -0.5622  0.3307 -0.2523
  553MOL0     H72936   6.480   1.687   6.472 -0.1031 -1.6354 -2.0306
  553MOL0     H72937   6.256   1.766   6.360 -0.1656 -1.9701  0.7556
  553MOL0     H72938   6.324   1.937   6.367  0.1983 -0.5295 -1.2285
  553MOL0     H72939   6.263   1.747   6.608 -0.1103 -0.8982  0.0295
  553MOL0     H72940   6.322   1.919   6.610 -1.0981 -0.4515 -0.4294
  553MOL0     H72941   6.046   1.848   6.525  0.3040 -0.8381  0.0409
  553MOL0     H72942   6.121   2.008   6.514 -1.0470 -0.7875 -0.9391
  553MOL0     H72943   6.142   1.990   6.771 -0.9771 -0.5732  2.7235
  553MOL0     H72944   6.078   1.827   6.761  0.8989  0.3073  0.3159
  553MOL0     H72945   5.924   2.073   6.673 -0.2702 -1.6591 -0.4454
  553MOL0     H72946   5.868   1.905   6.669 -0.5392  0.7024 -0.7587
  553MOL0     H72947   5.942   2.050   6.931 -0.6213 -0.0437  0.6022
  553MOL0     H72948   5.864   1.896   6.914  1.7270 -0.0744 -1.2453
  553MOL0     H72949   5.760   2.218   6.717  2.5165 -2.0107  1.0019
  553MOL0     H72950   5.496   2.352   6.731 -1.8662  0.2903  0.0899
  553MOL0     H72951   5.591   2.443   6.852 -1.0576  0.2460 -3.7166
  553MOL0     H72952   5.347   2.287   6.929 -0.6349  1.4150  1.2487
  553MOL0     H72953   5.345   2.445   6.854 -2.3158  1.5921  2.7324
  553MOL0     H72954   5.497   2.367   7.105 -1.1279 -1.9367 -1.7312
  553MOL0     H72955   5.469   2.535   7.040 -2.4714  0.7921  2.2271
  553MOL0     H72956   5.307   2.522   7.210 -1.2746  0.6412  1.0164
  553MOL0     H72957   5.245   2.363   7.138 -1.7512  0.6889 -3.2646
  553MOL0     H72958   5.025   2.644   6.893 -1.2144 -0.0603 -1.4080
  553MOL0     H72959   4.797   2.734   6.975 -0.3869 -0.3785  0.6962
  553MOL0     H72960   4.401   2.897   7.218  0.1726  0.3478  1.4908
  553MOL0     H72961   4.163   2.827   7.287 -0.9223 -1.9636  2.7382
  553MOL0     H72962   4.006   2.429   7.262 -3.4950 -0.2031  0.7419
  553MOL0     H72963   3.985   2.525   7.114 -2.5407  0.6022 -0.2379
  553MOL0     H72964   3.815   2.519   7.373 -1.6896  0.5928 -0.3673
  553MOL0     H72965   3.779   2.463   7.214  0.3496 -1.6479  0.8147
  553MOL0     H72966   3.808   2.763   7.289  0.7749  0.0085  0.0031
  553MOL0     H72967   3.667   2.660   7.253  0.7140  0.9701  0.4021
  553MOL0     H72968   3.767   2.826   7.069 -1.0075 -1.3217 -1.2900
  553MOL0     H72969   3.896   2.704   7.044  0.2372 -3.5537  0.7042
  553MOL0     H72970   3.612   2.631   7.035  1.1035  0.2810 -0.3979
  553MOL0     H72971   3.753   2.550   6.966 -0.7022 -0.2630 -2.6154
  553MOL0     H72972   3.784   2.695   6.773 -1.2599  1.2620 -1.3172
  553MOL0     H72973   3.665   2.800   6.834  0.3884  0.4542  0.2109
  553MOL0     H72974   3.619   2.493   6.759 -0.6052  0.0352 -2.3850
  553MOL0     H72975   3.498   2.609   6.810  0.2437 -1.4792  0.1188
  553MOL0     H72976   3.542   2.594   6.542  0.5711  0.0820  0.5276
  553MOL0     H72977   3.697   2.658   6.584  0.3142  3.7466 -1.8982
  553MOL0     H72978   4.235   2.423   7.197  2.3446 -0.2998 -3.4987
  553MOL0     H72979   4.462   2.474   7.147  2.9665  0.6776 -1.2473
  553MOL0     H72980   4.879   2.548   7.362  2.5475  1.5975 -0.0724
  553MOL0     H72981   5.105   2.491   7.283  1.0916  2.3780  1.1950
  553MOL0     H72982   6.591   1.704   6.038 -3.2234  0.3285 -1.8854
  553MOL0     H72983   6.725   1.727   5.825 -2.5467 -0.8741  0.6496
  553MOL0     H72984   6.875   2.017   5.499 -0.7619 -2.0338  0.3099
  553MOL0     H72985   7.020   2.056   5.294 -0.4033 -1.7372 -0.5172
  553MOL0     H72986   7.331   2.288   5.223 -0.5203  0.3905 -2.3811
  553MOL0     H72987   7.162   2.272   5.298 -1.0023 -3.5560  2.1010
  553MOL0     H72988   7.065   2.205   5.114 -0.2095  2.3751 -1.3848
  553MOL0     H72989   7.173   2.321   5.051  0.6208 -0.3756 -0.6960
  553MOL0     H72990   7.228   2.020   5.052 -0.9199  1.1837  1.5786
  553MOL0     H72991   7.347   2.137   5.013 -0.0364 -1.7794  0.1688
  553MOL0     H72992   7.187   2.237   4.838  0.1353  0.4955  0.0226
  553MOL0     H72993   7.270   2.076   4.807 -0.7328  1.4960 -2.0129
  553MOL0     H72994   6.866   1.977   4.796 -0.0088 -0.0928 -0.3657
  553MOL0     H72995   7.360   2.049   5.542  0.3136 -0.2924  0.4533
  553MOL0     H72996   7.239   1.964   5.714  0.6424  0.7608 -1.2385
  554MOL0     O72997   7.750   5.527   1.482 -0.2712 -0.4971  0.8624
  554MOL0     C72998   7.817   5.609   1.530 -0.3000 -1.7698  0.2523
  554MOL0     O72999   7.776   5.733   1.563  0.1835 -0.2887 -0.3949
  554MOL0     C73000   7.644   5.772   1.585 -0.0059 -1.0285 -0.6196
  554MOL0     C73001   7.562   5.679   1.645  0.0532  0.1661  0.2064
  554MOL0     C73002   7.426   5.712   1.663 -0.2169  0.1697  0.0912
  554MOL0     C73003   7.380   5.842   1.633  0.5219 -1.1305  0.0653
  554MOL0     O73004   7.252   5.861   1.660 -0.3380  0.0991 -0.9615
  554MOL0     C73005   7.172   5.947   1.579 -0.2295  0.5627  0.3220
  554MOL0     C73006   7.029   5.911   1.597  0.0825  0.7782 -0.2077
  554MOL0     C73007   6.956   5.965   1.724 -0.4422  0.1765  0.0189
  554MOL0     C73008   6.806   5.975   1.719 -0.5275  0.6257 -0.6069
  554MOL0     C73009   6.758   6.030   1.854 -0.1220  0.4014 -0.0597
  554MOL0     C73010   6.623   6.103   1.838  0.8899 -0.9970 -0.5907
  554MOL0     C73011   6.504   6.021   1.776 -0.4002  0.1646 -0.1210
  554MOL0     C73012   6.375   6.020   1.852  0.4801  0.3514 -0.0479
  554MOL0     N73013   6.287   6.141   1.824  0.0938  0.1070  0.1772
  554MOL0     C73014   6.240   6.237   1.918  0.2891  0.3391  0.5273
  554MOL0     C73015   6.188   6.331   1.833 -0.0813  0.3927  1.1013
  554MOL0     C73016   6.130   6.453   1.896 -1.1667  0.2466  0.5782
  554MOL0     C73017   5.983   6.441   1.924  0.3455  0.4144  0.0605
  554MOL0     C73018   5.960   6.344   2.040  0.0907  0.2303 -0.2109
  554MOL0     C73019   5.812   6.324   2.079 -0.7964 -0.5106 -0.2087
  554MOL0     O73020   5.745   6.453   2.090 -0.1297  0.0697  0.0402
  554MOL0     C73021   5.616   6.444   2.134  0.5823  0.3130 -0.5876
  554MOL0     C73022   5.528   6.337   2.109  0.5572 -0.1717 -0.4161
  554MOL0     C73023   5.397   6.349   2.157  0.6614 -0.5533  0.7730
  554MOL0     C73024   5.349   6.472   2.206 -0.3303 -0.0032 -0.9371
  554MOL0     C73025   5.198   6.497   2.224 -0.3134 -0.5759 -1.1216
  554MOL0     O73026   5.106   6.397   2.203  0.5388 -0.4140  0.0178
  554MOL0     C73027   4.982   6.406   2.256 -0.1212  0.2489  0.1105
  554MOL0     C73028   4.874   6.349   2.179 -0.2860  0.5575  0.7462
  554MOL0     C73029   4.742   6.360   2.214  0.0932  0.0172 -0.4919
  554MOL0     C73030   4.719   6.446   2.324  0.5564 -0.4377 -0.9322
  554MOL0     O73031   4.598   6.475   2.380  0.3742  0.7917 -0.1194
  554MOL0     C73032   4.481   6.445   2.296  1.1217 -0.4215 -0.4311
  554MOL0     C73033   4.367   6.479   2.395  1.4832 -0.0207 -0.1359
  554MOL0     C73034   4.235   6.503   2.334 -0.3440  0.2530 -0.5403
  554MOL0     C73035   4.125   6.525   2.436 -0.3149 -0.2890 -0.0699
  554MOL0     C73036   3.990   6.548   2.364 -0.3277  0.3098 -0.1819
  554MOL0     C73037   3.874   6.545   2.456  0.8599  0.1989 -0.1478
  554MOL0     C73038   3.744   6.591   2.392 -0.6971 -0.1974  0.0563
  554MOL0     C73039   3.627   6.597   2.497  0.3064  0.3000  0.6237
  554MOL0    Cl73040   3.559   6.437   2.498  0.0559 -0.1414  0.2606
  554MOL0     C73041   4.818   6.490   2.408  0.0938 -0.2166 -0.2034
  554MOL0     C73042   4.948   6.461   2.377  0.0986  0.2793  0.1330
  554MOL0     O73043   5.171   6.617   2.237 -0.0311  0.2535  0.2495
  554MOL0     C73044   5.437   6.585   2.219  0.0606  0.3418 -0.0336
  554MOL0     C73045   5.569   6.569   2.179 -0.0334  0.0870  0.8615
  554MOL0     N73046   6.210   6.298   1.704 -0.0502  0.1150  0.1731
  554MOL0     N73047   6.268   6.185   1.697 -0.2588  0.9139 -0.1745
  554MOL0     C73048   7.467   5.939   1.588  0.2975 -0.4282 -0.5118
  554MOL0     C73049   7.600   5.906   1.563 -0.4550  0.3389  0.3778
  554MOL0     C73050   7.952   5.571   1.572 -0.0669 -1.0093  0.0824
  554MOL0     C73051   7.975   5.433   1.603  0.0253  0.2327 -0.1798
  554MOL0     C73052   8.099   5.393   1.647 -0.6468 -0.3320  0.0175
  554MOL0     C73053   8.198   5.487   1.659 -1.1792  0.5203  0.4258
  554MOL0     O73054   8.325   5.451   1.699 -0.8304 -0.4834 -0.1810
  554MOL0     C73055   8.432   5.545   1.704  0.1002  0.2734  0.0342
  554MOL0     C73056   8.565   5.478   1.677 -1.1398 -0.1333 -0.1644
  554MOL0     C73057   8.676   5.564   1.725  0.0473 -0.9381  0.3328
  554MOL0     C73058   8.816   5.495   1.711 -0.6259  1.2577  0.3629
  554MOL0     C73059   8.932   5.568   1.769 -0.4129  0.6115  0.4194
  554MOL0     C73060   9.037   5.613   1.797  0.0263  0.5122 -0.8782
  554MOL0     C73061   8.181   5.622   1.620 -0.0714 -0.4808  0.8476
  554MOL0     C73062   8.058   5.656   1.581  0.5937  0.3825 -0.3732
  554MOL0     H73063   7.592   5.575   1.653 -1.1457 -0.2337 -0.3793
  554MOL0     H73064   7.367   5.636   1.714  1.5202 -1.3328 -0.0570
  554MOL0     H73065   7.204   5.930   1.476  0.4168  0.3342  0.5548
  554MOL0     H73066   7.191   6.053   1.600 -0.9106  0.1342  3.5636
  554MOL0     H73067   7.020   5.802   1.599 -0.1823  0.7600 -1.3401
  554MOL0     H73068   6.984   5.940   1.501  0.0240 -0.5014 -0.5850
  554MOL0     H73069   6.994   6.066   1.741  2.1458 -1.0301  2.3456
  554MOL0     H73070   6.997   5.908   1.808  1.8894  0.6043 -0.7481
  554MOL0     H73071   6.787   6.040   1.632 -2.6818 -0.3263 -0.9063
  554MOL0     H73072   6.762   5.876   1.705 -0.2846  0.2513  1.0580
  554MOL0     H73073   6.832   6.095   1.902 -0.9458  0.8900  0.5809
  554MOL0     H73074   6.750   5.946   1.924 -0.9697  0.5205 -0.0078
  554MOL0     H73075   6.641   6.188   1.772 -3.6468  0.9307  0.3319
  554MOL0     H73076   6.587   6.137   1.935 -2.4354  1.4410 -2.4639
  554MOL0     H73077   6.482   6.057   1.675 -3.5163 -0.0488  0.4015
  554MOL0     H73078   6.544   5.919   1.777 -2.7698 -0.8545  2.1231
  554MOL0     H73079   6.386   6.002   1.959  2.5600 -0.5031 -0.3709
  554MOL0     H73080   6.320   5.932   1.818  0.1997  0.3864  0.3051
  554MOL0     H73081   6.252   6.234   2.026 -2.8719  0.2366  0.9585
  554MOL0     H73082   6.154   6.526   1.818  0.0213  0.0951  0.7932
  554MOL0     H73083   6.186   6.484   1.985  0.4100  0.0546 -0.3100
  554MOL0     H73084   5.926   6.406   1.838 -1.1310  0.3972  1.0050
  554MOL0     H73085   5.945   6.539   1.954 -1.5792 -0.5615  0.9791
  554MOL0     H73086   6.012   6.251   2.017  3.3638  1.5144  1.3789
  554MOL0     H73087   6.010   6.376   2.131 -2.3336 -0.0906  1.3204
  554MOL0     H73088   5.801   6.263   2.169 -0.7124 -1.6741 -0.9697
  554MOL0     H73089   5.767   6.273   1.993 -0.0749  1.2715 -1.7264
  554MOL0     H73090   5.559   6.252   2.048  2.9467  1.1081 -1.1174
  554MOL0     H73091   5.321   6.273   2.143  0.7344 -0.2849 -1.5688
  554MOL0     H73092   4.888   6.308   2.079  2.0090  1.2190  0.7476
  554MOL0     H73093   4.678   6.301   2.150  0.7879  1.7175 -2.8964
  554MOL0     H73094   4.472   6.339   2.270  2.0321 -1.0136  1.4993
  554MOL0     H73095   4.472   6.500   2.202  1.4433 -1.0232 -0.8184
  554MOL0     H73096   4.382   6.572   2.452 -1.3437 -1.9257  4.2043
  554MOL0     H73097   4.359   6.399   2.469 -1.9384  0.0446 -0.2795
  554MOL0     H73098   4.200   6.419   2.273 -1.8409  1.1653 -0.9896
  554MOL0     H73099   4.254   6.592   2.272  1.2191  1.8011  2.0008
  554MOL0     H73100   4.122   6.429   2.489 -1.0055 -0.7542 -0.9223
  554MOL0     H73101   4.144   6.603   2.509  0.6515 -1.6706  1.2233
  554MOL0     H73102   3.977   6.469   2.290 -2.4763 -0.8770  1.3618
  554MOL0     H73103   4.001   6.651   2.328  0.2644  0.7438  1.1647
  554MOL0     H73104   3.898   6.607   2.543 -0.6975 -0.2612  0.6383
  554MOL0     H73105   3.856   6.449   2.505  3.4505  0.4833  1.5303
  554MOL0     H73106   3.752   6.690   2.345  2.2273 -0.2355  0.3158
  554MOL0     H73107   3.707   6.532   2.308 -0.2649 -0.5398  0.1047
  554MOL0     H73108   3.550   6.669   2.470  2.4835  1.2079 -4.3867
  554MOL0     H73109   3.666   6.620   2.596 -0.1654  0.6807  0.7229
  554MOL0     H73110   4.789   6.546   2.497 -3.4788 -2.9660  0.5647
  554MOL0     H73111   5.021   6.494   2.451 -3.6975  0.1332  4.4023
  554MOL0     H73112   5.405   6.683   2.255 -2.2348 -0.6241  0.7266
  554MOL0     H73113   5.638   6.653   2.180  1.4756 -1.1084  0.4246
  554MOL0     H73114   7.422   6.033   1.559 -1.7590 -1.8880 -2.4718
  554MOL0     H73115   7.664   5.980   1.515 -2.1468  0.5292 -1.7341
  554MOL0     H73116   7.899   5.355   1.603  1.1242 -0.9124  1.7806
  554MOL0     H73117   8.126   5.293   1.678  2.2291  1.5976  4.8267
  554MOL0     H73118   8.425   5.590   1.804  0.0845 -0.7744  0.5162
  554MOL0     H73119   8.433   5.622   1.627 -0.4705  0.5745  0.3219
  554MOL0     H73120   8.572   5.386   1.734 -2.8934  0.1911  0.6381
  554MOL0     H73121   8.590   5.459   1.572 -2.7466  1.9234 -0.9910
  554MOL0     H73122   8.670   5.584   1.833 -0.1926  1.6012 -0.0905
  554MOL0     H73123   8.685   5.662   1.677  2.3966 -2.3660 -2.4095
  554MOL0     H73124   8.805   5.401   1.766  0.9756  1.3866  0.9346
  554MOL0     H73125   8.826   5.463   1.607 -2.7636 -2.5168  1.1028
  554MOL0     H73126   9.139   5.645   1.803 -0.0227  0.7325 -1.1826
  554MOL0     H73127   8.247   5.707   1.620 -2.5473  1.6788 -2.4939
  554MOL0     H73128   8.024   5.757   1.563 -4.3420 -0.8525  0.4007
  555MOL0     O73129   9.964   4.511   5.571  0.4132 -0.2931 -0.1622
  555MOL0     C73130   9.972   4.624   5.513 -0.0975 -0.1047 -1.0893
  555MOL0     O73131   9.862   4.699   5.475 -0.4796  0.6322  0.1502
  555MOL0     C73132   9.735   4.652   5.488 -0.1629  0.6168 -0.8465
  555MOL0     C73133   9.641   4.675   5.386  1.0384  0.0803  0.5592
  555MOL0     C73134   9.510   4.634   5.396  0.7401  0.1528  0.2794
  555MOL0     C73135   9.465   4.567   5.511 -0.9878  0.0310 -0.3918
  555MOL0     O73136   9.328   4.537   5.532  0.0963 -0.1310 -0.3958
  555MOL0     C73137   9.288   4.422   5.598  0.6517  0.0295 -0.2932
  555MOL0     C73138   9.157   4.458   5.676 -0.6219  0.4938  0.2246
  555MOL0     C73139   9.042   4.515   5.605 -0.4161 -0.5968  0.0452
  555MOL0     C73140   8.984   4.426   5.491 -0.3217 -0.4688 -0.7974
  555MOL0     C73141   8.840   4.473   5.449  0.0404 -0.1018 -0.4521
  555MOL0     C73142   8.836   4.609   5.380  0.2369 -0.2959  0.3745
  555MOL0     C73143   8.911   4.625   5.244  0.1271  0.0165 -0.1811
  555MOL0     C73144   8.886   4.512   5.138 -0.1555  0.2092 -0.6658
  555MOL0     N73145   8.747   4.527   5.083 -0.7480  0.2066  1.6152
  555MOL0     C73146   8.715   4.631   5.002  1.3161 -0.1202  0.1066
  555MOL0     C73147   8.581   4.612   4.973 -0.7299  0.6187 -0.1158
  555MOL0     C73148   8.506   4.695   4.873  0.6612  0.1534  0.0905
  555MOL0     C73149   8.381   4.605   4.833  0.0995 -0.0733  0.3798
  555MOL0     C73150   8.322   4.658   4.706  1.1748  0.8338 -0.8476
  555MOL0     C73151   8.223   4.775   4.724  0.1871 -0.4043  0.1026
  555MOL0     O73152   8.111   4.755   4.637  0.6922 -0.0889  0.3007
  555MOL0     C73153   7.990   4.811   4.675 -0.3875  0.4023 -0.4452
  555MOL0     C73154   7.966   4.911   4.768 -0.3488  0.5033  0.0738
  555MOL0     C73155   7.834   4.957   4.789 -0.7775  0.0038  0.6275
  555MOL0     C73156   7.735   4.910   4.707 -0.5454 -0.1072 -0.6482
  555MOL0     C73157   7.598   4.941   4.751 -0.3551  0.6253 -0.1941
  555MOL0     O73158   7.507   4.921   4.649 -0.1124 -0.2707  0.0548
  555MOL0     C73159   7.376   4.920   4.675 -0.1471  1.5190  1.0301
  555MOL0     C73160   7.303   4.995   4.765 -0.1977  0.0369  1.0773
  555MOL0     C73161   7.162   4.991   4.759 -0.2094 -0.2799  0.8021
  555MOL0     C73162   7.087   4.911   4.676  0.0263 -0.9405  0.8087
  555MOL0     O73163   6.952   4.897   4.677  0.5004  0.6414  0.0647
  555MOL0     C73164   6.864   5.013   4.684 -0.2253 -0.1519 -0.7919
  555MOL0     C73165   6.725   4.964   4.656  0.6346 -0.0750  0.1669
  555MOL0     C73166   6.703   4.883   4.535  0.8109 -0.9941  0.2042
  555MOL0     C73167   6.559   4.889   4.473  0.2138  0.7589  0.2236
  555MOL0     C73168   6.485   4.753   4.498  0.3884  0.9040 -0.1658
  555MOL0     C73169   6.357   4.720   4.425  0.8593  0.4893 -0.4957
  555MOL0     C73170   6.307   4.581   4.472  1.0953  0.0090 -0.4577
  555MOL0     C73171   6.188   4.537   4.379 -0.4234 -0.3721 -0.9704
  555MOL0    Cl73172   6.146   4.366   4.418 -0.0032  0.0166  0.0384
  555MOL0     C73173   7.158   4.837   4.586  0.5316 -0.3431 -0.3887
  555MOL0     C73174   7.299   4.841   4.575  0.0109 -0.6744  0.6095
  555MOL0     O73175   7.567   4.963   4.868 -0.6243 -0.8879  0.3649
  555MOL0     C73176   7.760   4.815   4.601 -0.4179 -0.3166  0.4365
  555MOL0     C73177   7.890   4.768   4.589 -0.6648 -0.2787 -0.6368
  555MOL0     N73178   8.536   4.509   5.054  0.0338  0.7575 -0.2416
  555MOL0     N73179   8.634   4.465   5.126 -0.4243  0.2172  0.1029
  555MOL0     C73180   9.557   4.553   5.620 -0.7354 -0.0406  0.2390
  555MOL0     C73181   9.693   4.597   5.607 -0.3692  1.0988 -0.3733
  555MOL0     C73182  10.107   4.682   5.486  0.4957 -0.6218  0.6782
  555MOL0     C73183  10.120   4.799   5.411  0.5445 -0.1479 -0.6093
  555MOL0     C73184  10.244   4.855   5.370 -0.8509 -0.9563 -0.6340
  555MOL0     C73185  10.361   4.792   5.425 -0.3054 -0.5289  0.8191
  555MOL0     O73186  10.489   4.844   5.397 -0.4894  0.1768  0.0814
  555MOL0     C73187  10.516   4.933   5.288  0.1433 -0.2869  0.0214
  555MOL0     C73188  10.656   4.917   5.228  1.0631 -0.3206 -0.3998
  555MOL0     C73189  10.732   5.046   5.217 -0.3090 -0.1826 -1.0509
  555MOL0     C73190  10.828   5.049   5.094  0.1849 -0.2436 -0.5863
  555MOL0     C73191  10.900   5.173   5.093  0.5329 -0.1663  0.5742
  555MOL0     C73192  10.955   5.288   5.084  0.0643  0.6268 -0.4411
  555MOL0     C73193  10.351   4.676   5.509  0.0788  0.2772  0.2363
  555MOL0     C73194  10.226   4.619   5.536 -1.1312 -0.7344 -0.4980
  555MOL0     H73195   9.667   4.714   5.288 -1.6663 -0.1380 -0.3377
  555MOL0     H73196   9.440   4.649   5.315 -0.4981  0.5210  1.3802
  555MOL0     H73197   9.363   4.391   5.671  1.0051  0.4984 -0.4458
  555MOL0     H73198   9.263   4.344   5.525  0.5069 -0.0836 -0.1232
  555MOL0     H73199   9.191   4.532   5.749  2.2720  1.2956 -1.7502
  555MOL0     H73200   9.132   4.373   5.740 -1.5622  0.4626 -0.1670
  555MOL0     H73201   9.072   4.613   5.569 -1.8861 -1.0093 -2.6369
  555MOL0     H73202   8.962   4.539   5.677 -0.3290 -0.2875  0.0384
  555MOL0     H73203   9.055   4.441   5.410  0.7754  3.0930  0.6201
  555MOL0     H73204   8.981   4.321   5.522 -0.5882 -0.4805 -0.8590
  555MOL0     H73205   8.776   4.476   5.538 -2.2800  2.8577 -2.0582
  555MOL0     H73206   8.801   4.402   5.375 -1.9849  1.1605 -0.6539
  555MOL0     H73207   8.892   4.682   5.439  1.3990  0.9865 -2.1423
  555MOL0     H73208   8.731   4.638   5.367 -0.1640 -1.0715  1.6799
  555MOL0     H73209   8.904   4.729   5.209  3.1461 -0.4197 -2.4725
  555MOL0     H73210   9.018   4.625   5.266  0.4031  1.5256 -1.3356
  555MOL0     H73211   8.901   4.410   5.176 -0.2454 -0.0880 -1.4145
  555MOL0     H73212   8.950   4.516   5.050  0.3083  0.4069 -0.3223
  555MOL0     H73213   8.768   4.717   4.964  0.7750  2.7373  4.9479
  555MOL0     H73214   8.571   4.714   4.786  1.6967 -2.2763  0.2402
  555MOL0     H73215   8.487   4.788   4.926  3.1942  0.7972  0.0026
  555MOL0     H73216   8.313   4.605   4.918  1.6089  0.2164  1.6321
  555MOL0     H73217   8.421   4.506   4.807 -0.4229  0.0724 -1.0860
  555MOL0     H73218   8.399   4.695   4.638 -1.3789  1.6604 -3.4887
  555MOL0     H73219   8.261   4.578   4.663  1.8784 -0.7989  1.0419
  555MOL0     H73220   8.262   4.877   4.718 -0.1581 -0.2846 -0.1103
  555MOL0     H73221   8.183   4.775   4.826  0.7309 -0.5337  0.3209
  555MOL0     H73222   8.048   4.949   4.828 -0.5495  2.2118 -0.6952
  555MOL0     H73223   7.825   5.026   4.872  0.6857  1.3012 -0.2366
  555MOL0     H73224   7.343   5.066   4.837 -1.1022 -0.2607  1.8909
  555MOL0     H73225   7.110   5.068   4.815 -1.1916 -1.0727  1.0188
  555MOL0     H73226   6.901   5.089   4.615  0.1619 -1.2366 -1.8275
  555MOL0     H73227   6.874   5.052   4.786  1.1257 -0.6212 -0.7176
  555MOL0     H73228   6.677   5.063   4.655 -0.0674 -0.4119 -0.1791
  555MOL0     H73229   6.691   4.899   4.736 -0.0038 -0.3437 -0.3122
  555MOL0     H73230   6.747   4.783   4.548  1.3747 -0.5611  1.9867
  555MOL0     H73231   6.769   4.930   4.462 -1.8305 -1.0542 -2.3852
  555MOL0     H73232   6.496   4.970   4.510 -0.7237  0.2450 -0.2330
  555MOL0     H73233   6.582   4.916   4.370  2.2743 -0.7994  0.1941
  555MOL0     H73234   6.473   4.742   4.606  0.4807  0.7604 -0.1706
  555MOL0     H73235   6.559   4.676   4.473 -1.3106 -0.8362  0.0017
  555MOL0     H73236   6.373   4.700   4.318  0.5580 -1.1403 -0.2619
  555MOL0     H73237   6.285   4.801   4.434  1.2089  1.0710 -2.4449
  555MOL0     H73238   6.396   4.518   4.468  1.9222  0.8769  2.1942
  555MOL0     H73239   6.273   4.577   4.576  0.7294 -1.9893 -0.6133
  555MOL0     H73240   6.217   4.539   4.274  1.0695 -1.5288 -0.6107
  555MOL0     H73241   6.099   4.601   4.387 -1.0691 -1.2741 -0.7655
  555MOL0     H73242   7.104   4.788   4.505  1.0696 -2.4353  0.4355
  555MOL0     H73243   7.353   4.801   4.490  0.9525  2.6503 -0.5209
  555MOL0     H73244   7.691   4.763   4.535  0.1450 -2.9672  1.8117
  555MOL0     H73245   7.919   4.685   4.526  0.6658 -0.8041  0.5997
  555MOL0     H73246   9.518   4.513   5.713 -0.1415  2.4366  1.6409
  555MOL0     H73247   9.762   4.586   5.691 -0.0657 -3.5017 -0.9470
  555MOL0     H73248  10.036   4.862   5.382 -1.1289 -0.8211  2.3276
  555MOL0     H73249  10.244   4.947   5.313 -1.7538 -0.4530  0.1534
  555MOL0     H73250  10.514   5.035   5.328  1.5313  0.3094 -1.2972
  555MOL0     H73251  10.447   4.917   5.205  1.0977  0.9654 -1.0738
  555MOL0     H73252  10.712   4.856   5.300 -0.5071 -2.5175 -0.9094
  555MOL0     H73253  10.643   4.860   5.135 -0.9178  0.5114 -0.6766
  555MOL0     H73254  10.781   5.072   5.312 -3.3876  0.6195  0.4571
  555MOL0     H73255  10.657   5.125   5.211 -1.6347 -1.3766 -0.5512
  555MOL0     H73256  10.909   4.975   5.093  0.9803  0.5824  0.7248
  555MOL0     H73257  10.764   5.038   5.005  0.3658  1.3297 -0.9292
  555MOL0     H73258  11.003   5.384   5.081  0.0750  0.6447  0.0919
  555MOL0     H73259  10.450   4.638   5.531 -0.7370 -0.3145  3.2466
  555MOL0     H73260  10.253   4.531   5.593  0.1827 -0.3767 -0.5251
  556MOL0     O73261  10.660   4.326   0.728 -0.2271 -0.7281  0.2115
  556MOL0     C73262  10.700   4.434   0.692 -0.4851  0.0945 -0.2925
  556MOL0     O73263  10.621   4.529   0.630  0.0441  0.3484  0.6660
  556MOL0     C73264  10.507   4.474   0.570  0.0656  0.2011  0.1833
  556MOL0     C73265  10.383   4.528   0.599 -0.4968 -0.3719  0.0748
  556MOL0     C73266  10.259   4.476   0.552 -0.2421  0.6236  1.0472
  556MOL0     C73267  10.257   4.362   0.459 -0.9356 -0.3926 -0.7047
  556MOL0     O73268  10.149   4.292   0.415 -0.2041  0.5683 -0.1425
  556MOL0     C73269  10.020   4.352   0.449 -1.0351  0.5493  0.6024
  556MOL0     C73270   9.905   4.268   0.392  0.1701  0.6623 -0.0580
  556MOL0     C73271   9.774   4.333   0.419  0.0581  0.8803  0.5980
  556MOL0     C73272   9.659   4.241   0.362  0.6284 -0.8477 -0.7700
  556MOL0     C73273   9.524   4.286   0.433 -0.9066  0.0083 -0.1438
  556MOL0     C73274   9.388   4.217   0.398  0.5895  0.1987  0.0760
  556MOL0     C73275   9.388   4.111   0.285 -0.2876  1.0837 -0.9197
  556MOL0     C73276   9.278   4.007   0.309 -0.3856 -0.0852  0.1526
  556MOL0     N73277   9.143   4.064   0.324 -0.1985  0.1634 -0.3022
  556MOL0     C73278   9.050   4.047   0.423 -0.2261  0.7957  0.0155
  556MOL0     C73279   8.934   4.090   0.377  0.0135 -0.6498  0.2826
  556MOL0     C73280   8.811   4.074   0.457  0.2863  0.3101  0.1952
  556MOL0     C73281   8.755   3.932   0.424 -0.5572 -0.0545 -0.5072
  556MOL0     C73282   8.705   3.918   0.280 -0.4148  0.1096  0.3817
  556MOL0     C73283   8.612   4.033   0.236 -1.0569  0.5021 -0.4598
  556MOL0     O73284   8.494   4.036   0.305 -0.5425 -0.2668 -0.4404
  556MOL0     C73285   8.390   4.077   0.228 -0.3151  0.0230  0.5553
  556MOL0     C73286   8.371   4.202   0.172 -0.5385 -0.1508 -0.0398
  556MOL0     C73287   8.272   4.242   0.087  0.3219 -0.5077 -0.3553
  556MOL0     C73288   8.187   4.138   0.044 -0.1119 -0.1297  1.0295
  556MOL0     C73289   8.064   4.166  -0.043 -0.0349 -0.1667  0.3453
  556MOL0     O73290   7.998   4.060  -0.095 -0.1263  0.0266  0.0569
  556MOL0     C73291   7.923   4.069  -0.208  0.5002  0.6597  0.4231
  556MOL0     C73292   7.836   4.179  -0.223  0.1663 -0.5378  0.3645
  556MOL0     C73293   7.751   4.185  -0.324 -0.4773  0.6578  0.2444
  556MOL0     C73294   7.762   4.090  -0.431  0.1746  0.1028 -1.3276
  556MOL0     O73295   7.686   4.095  -0.543  0.4157 -0.4005 -0.4888
  556MOL0     C73296   7.651   4.215  -0.595  0.4742  0.0508 -0.2569
  556MOL0     C73297   7.584   4.177  -0.730 -0.5075  0.0007 -0.5220
  556MOL0     C73298   7.556   4.300  -0.811  0.2730 -0.6584 -0.1491
  556MOL0     C73299   7.545   4.290  -0.965 -0.5588 -0.5336 -0.5825
  556MOL0     C73300   7.436   4.199  -1.022  1.5831 -0.4395  0.0545
  556MOL0     C73301   7.302   4.231  -0.958  0.1075  0.0409 -0.8490
  556MOL0     C73302   7.184   4.153  -1.013  0.3924  0.4151  0.8178
  556MOL0     C73303   7.047   4.185  -0.956  0.0880  0.5544 -0.9075
  556MOL0    Cl73304   6.977   4.357  -0.988  0.1991 -0.0599  0.0263
  556MOL0     C73305   7.849   3.984  -0.418  0.2773  0.6547  0.2918
  556MOL0     C73306   7.930   3.971  -0.303  0.3437  0.5085  0.0545
  556MOL0     O73307   8.040   4.282  -0.069 -0.4990 -0.4220 -0.5181
  556MOL0     C73308   8.197   4.011   0.100  0.5193  0.3232  0.9457
  556MOL0     C73309   8.302   3.971   0.188  1.1339 -0.1542 -0.6288
  556MOL0     N73310   8.956   4.149   0.249 -0.0560  0.6500 -0.0586
  556MOL0     N73311   9.077   4.115   0.217  0.3794  0.1564  1.3487
  556MOL0     C73312  10.387   4.318   0.426  0.1520 -0.2047  0.0507
  556MOL0     C73313  10.507   4.371   0.477  0.3214  0.9188 -0.3621
  556MOL0     C73314  10.832   4.478   0.727 -1.0794  0.5240  1.0135
  556MOL0     C73315  10.870   4.609   0.725  0.2657 -0.3607  0.6019
  556MOL0     C73316  11.002   4.646   0.758 -0.0375 -0.3655  0.1950
  556MOL0     C73317  11.100   4.549   0.784 -0.3412  0.1818 -0.0457
  556MOL0     O73318  11.236   4.571   0.816  0.4723 -0.1449 -0.6269
  556MOL0     C73319  11.289   4.703   0.826  0.2956 -0.6445  0.1102
  556MOL0     C73320  11.435   4.694   0.883  0.2461  0.6442 -0.0488
  556MOL0     C73321  11.440   4.712   1.041  0.1045 -0.5530  0.8480
  556MOL0     C73322  11.390   4.855   1.082  0.7783  0.6355 -0.4137
  556MOL0     C73323  11.448   4.903   1.207 -0.7450  0.3089 -0.3039
  556MOL0     C73324  11.503   4.929   1.307  0.4918 -0.3420 -0.7694
  556MOL0     C73325  11.055   4.419   0.791 -0.2004 -0.1535 -0.0076
  556MOL0     C73326  10.929   4.377   0.765 -0.6258 -0.2268 -0.4961
  556MOL0     H73327  10.378   4.607   0.672  2.5149  1.1897 -1.2390
  556MOL0     H73328  10.167   4.516   0.595 -0.7629 -1.8121  2.4388
  556MOL0     H73329  10.017   4.455   0.414 -1.0300  0.2219 -0.3940
  556MOL0     H73330  10.006   4.363   0.557 -1.7000  0.1979  0.5545
  556MOL0     H73331   9.914   4.171   0.443  0.8350  1.1743  0.8224
  556MOL0     H73332   9.921   4.264   0.284  0.1976  2.8852 -0.1782
  556MOL0     H73333   9.787   4.424   0.360  0.4862 -0.4868 -1.5293
  556MOL0     H73334   9.765   4.348   0.527  1.8241 -3.3961  1.5272
  556MOL0     H73335   9.650   4.249   0.253  1.2189 -0.1544 -0.7727
  556MOL0     H73336   9.680   4.138   0.394 -2.1527 -1.7455 -1.5471
  556MOL0     H73337   9.508   4.393   0.417 -1.2101  0.2760  1.7429
  556MOL0     H73338   9.542   4.272   0.540 -1.1108  1.9425  0.1896
  556MOL0     H73339   9.318   4.300   0.382  0.0528 -0.0431  1.0643
  556MOL0     H73340   9.356   4.152   0.480 -0.9604  0.0696 -0.5917
  556MOL0     H73341   9.373   4.152   0.185 -2.4207  0.7848 -0.7777
  556MOL0     H73342   9.483   4.058   0.294 -0.2179  1.3992  0.4090
  556MOL0     H73343   9.302   3.952   0.400  0.4215  3.2856  2.1717
  556MOL0     H73344   9.279   3.941   0.223 -1.9693  0.0627  0.0052
  556MOL0     H73345   9.078   3.987   0.509  2.5583  0.6877 -0.8673
  556MOL0     H73346   8.743   4.159   0.443 -0.4896 -0.6627 -2.7914
  556MOL0     H73347   8.847   4.073   0.560  1.5163  2.3712 -0.1560
  556MOL0     H73348   8.677   3.904   0.495  1.2576 -1.5931  0.9862
  556MOL0     H73349   8.833   3.857   0.441 -2.3240 -2.6164 -2.7563
  556MOL0     H73350   8.792   3.928   0.215 -0.9606  1.8954 -0.1282
  556MOL0     H73351   8.651   3.824   0.269  0.0004  0.0012 -0.8736
  556MOL0     H73352   8.597   4.004   0.132  1.8947  4.6789 -2.3143
  556MOL0     H73353   8.664   4.129   0.229  1.1678 -0.4462  1.7408
  556MOL0     H73354   8.439   4.275   0.215  0.9407 -0.7705 -1.2653
  556MOL0     H73355   8.273   4.346   0.058 -2.0680 -0.3719 -0.1485
  556MOL0     H73356   7.827   4.266  -0.158  1.2928 -0.1395  0.0124
  556MOL0     H73357   7.679   4.266  -0.324  2.5097  3.5670 -2.4397
  556MOL0     H73358   7.743   4.273  -0.598  1.8014 -1.9536  0.0466
  556MOL0     H73359   7.572   4.253  -0.529 -1.3897 -2.4991 -0.8531
  556MOL0     H73360   7.489   4.124  -0.715 -1.6626  1.4494 -2.2826
  556MOL0     H73361   7.659   4.118  -0.782  1.2027  1.3917  0.2595
  556MOL0     H73362   7.626   4.376  -0.774  0.3945  0.2621 -2.1201
  556MOL0     H73363   7.460   4.335  -0.773  0.4372  0.2147 -0.5019
  556MOL0     H73364   7.519   4.389  -1.004  3.2384  0.4061 -1.1813
  556MOL0     H73365   7.642   4.261  -1.007  0.4123 -1.2370  1.9395
  556MOL0     H73366   7.446   4.092  -1.005 -5.3594 -2.1428 -2.8475
  556MOL0     H73367   7.430   4.213  -1.130  0.4075 -5.7929 -0.8763
  556MOL0     H73368   7.297   4.340  -0.964 -1.6058  0.0719  0.3048
  556MOL0     H73369   7.308   4.208  -0.851 -3.5920  0.8125 -0.3261
  556MOL0     H73370   7.185   4.187  -1.117  1.4221 -0.2275  0.6063
  556MOL0     H73371   7.201   4.045  -1.014 -0.8216  0.0272 -3.7425
  556MOL0     H73372   7.055   4.164  -0.849  0.9563  0.6484 -0.9474
  556MOL0     H73373   6.971   4.113  -0.990  0.4169 -0.7404  0.9868
  556MOL0     H73374   7.860   3.909  -0.495  2.3820  0.1311  1.0313
  556MOL0     H73375   8.007   3.895  -0.297  0.0031  0.0484 -1.1289
  556MOL0     H73376   8.126   3.936   0.066 -0.8616  2.3884 -0.9729
  556MOL0     H73377   8.316   3.868   0.216  0.9166 -1.3343 -4.2819
  556MOL0     H73378  10.382   4.244   0.346 -1.0824  1.3521 -1.3847
  556MOL0     H73379  10.604   4.337   0.443  0.8669  2.1269 -0.0921
  556MOL0     H73380  10.801   4.689   0.699 -0.5209 -1.1491  0.2297
  556MOL0     H73381  11.030   4.751   0.755 -2.4927  0.3427  0.1172
  556MOL0     H73382  11.231   4.765   0.894  1.9070 -0.2316  1.1729
  556MOL0     H73383  11.290   4.731   0.720 -1.9189 -2.1932 -0.3967
  556MOL0     H73384  11.466   4.591   0.863 -3.5530 -0.5970 -0.5048
  556MOL0     H73385  11.495   4.768   0.830  0.6104 -0.5874 -1.4492
  556MOL0     H73386  11.541   4.692   1.080  1.3392  1.9242 -0.7947
  556MOL0     H73387  11.373   4.639   1.087  2.7208 -2.6148  1.6710
  556MOL0     H73388  11.416   4.927   1.003  0.7967  0.7656 -0.2897
  556MOL0     H73389  11.281   4.845   1.085  0.8705 -1.5946 -1.7614
  556MOL0     H73390  11.552   4.955   1.399 -0.0333  1.3924 -0.9382
  556MOL0     H73391  11.130   4.345   0.818 -0.3616 -0.2034  0.3133
  556MOL0     H73392  10.916   4.271   0.787  4.4718 -0.8129  1.0862
  557MOL0     O73393   8.500   9.107   4.859 -0.0723 -0.3165  0.3557
  557MOL0     C73394   8.552   9.136   4.966  0.0409 -0.3775  0.2349
  557MOL0     O73395   8.512   9.095   5.091  0.0862 -0.1634 -0.2709
  557MOL0     C73396   8.401   9.011   5.099 -0.6548 -0.0708  0.5728
  557MOL0     C73397   8.276   9.065   5.082 -0.1789 -0.3401  0.5821
  557MOL0     C73398   8.161   8.988   5.095  0.4032  0.4743 -0.6893
  557MOL0     C73399   8.159   8.856   5.129 -0.9177  0.7239 -0.0232
  557MOL0     O73400   8.039   8.785   5.121  0.5598 -0.8079  0.9645
  557MOL0     C73401   8.044   8.655   5.172 -0.4226 -0.3238  0.6288
  557MOL0     C73402   7.908   8.590   5.178 -1.0393 -1.1085  0.6477
  557MOL0     C73403   7.828   8.621   5.307 -0.1170  0.4519  0.7565
  557MOL0     C73404   7.689   8.554   5.301 -0.1563 -0.2440 -0.0671
  557MOL0     C73405   7.622   8.563   5.441 -0.4621 -0.5670 -0.6459
  557MOL0     C73406   7.557   8.698   5.478 -1.4169  0.1671 -0.6187
  557MOL0     C73407   7.502   8.701   5.617  0.1925  0.4246  0.0056
  557MOL0     C73408   7.364   8.635   5.638 -0.0468 -0.5565  0.3757
  557MOL0     N73409   7.294   8.676   5.764  0.3863  0.0249 -0.0127
  557MOL0     C73410   7.358   8.681   5.885 -0.8603  0.8930 -0.3006
  557MOL0     C73411   7.257   8.709   5.971  0.0412 -0.6972 -0.1837
  557MOL0     C73412   7.277   8.737   6.118  0.1643 -0.1802 -0.5792
  557MOL0     C73413   7.267   8.874   6.161 -0.3968 -0.9757  0.3331
  557MOL0     C73414   7.129   8.949   6.142  0.0889 -0.0036  0.7227
  557MOL0     C73415   7.118   9.079   6.221  1.0206 -0.2282  0.2639
  557MOL0     O73416   7.123   9.203   6.131 -0.0262  0.5662  0.1686
  557MOL0     C73417   7.017   9.253   6.063 -0.4630  0.4171  0.0537
  557MOL0     C73418   7.038   9.362   5.967  0.5222 -0.1475 -0.1059
  557MOL0     C73419   6.925   9.426   5.915 -0.8430 -0.3331 -0.6923
  557MOL0     C73420   6.795   9.377   5.948  0.1612 -0.5255 -0.2472
  557MOL0     C73421   6.676   9.439   5.889 -0.1067 -0.1752 -1.2275
  557MOL0     O73422   6.553   9.384   5.927  0.4256 -0.1438  0.5806
  557MOL0     C73423   6.438   9.437   5.862  0.4873 -1.1605  1.2015
  557MOL0     C73424   6.375   9.550   5.905 -0.5022 -0.4190  0.6716
  557MOL0     C73425   6.251   9.591   5.843 -0.4390  0.9248  0.0727
  557MOL0     C73426   6.188   9.515   5.742  0.3801  1.1242  0.3846
  557MOL0     O73427   6.063   9.553   5.680  0.3067  0.7767 -0.4900
  557MOL0     C73428   5.955   9.614   5.753  0.5300  1.1499 -0.3286
  557MOL0     C73429   5.837   9.656   5.658 -0.1658  0.0528 -0.7196
  557MOL0     C73430   5.846   9.790   5.591  0.3739 -0.3643 -0.4207
  557MOL0     C73431   5.709   9.856   5.552 -0.1709  0.1718 -0.2106
  557MOL0     C73432   5.733  10.011   5.561  0.1072 -0.3342 -0.7181
  557MOL0     C73433   5.599  10.084   5.557 -0.1863 -0.2427 -0.1348
  557MOL0     C73434   5.492  10.012   5.472 -0.3798  0.3528  0.4214
  557MOL0     C73435   5.373  10.109   5.472 -0.0557  0.0917 -0.9008
  557MOL0    Cl73436   5.223  10.026   5.402  0.0149 -0.1890 -0.5026
  557MOL0     C73437   6.262   9.400   5.694 -0.0342 -0.9981  0.3061
  557MOL0     C73438   6.380   9.367   5.758 -0.3681  0.2728  0.8029
  557MOL0     O73439   6.695   9.534   5.809  0.3797 -0.6453  0.0978
  557MOL0     C73440   6.782   9.268   6.029  0.8486  0.6528  0.1706
  557MOL0     C73441   6.892   9.215   6.094 -0.2613  0.0302 -0.0473
  557MOL0     N73442   7.136   8.722   5.897  0.1791 -0.1278  0.0147
  557MOL0     N73443   7.164   8.697   5.775 -0.3024  0.0108 -0.3827
  557MOL0     C73444   8.290   8.801   5.153  0.3023 -0.3371 -0.4641
  557MOL0     C73445   8.408   8.876   5.139 -0.5432  0.6537  0.4782
  557MOL0     C73446   8.673   9.226   4.960  0.5662  0.7630  0.3824
  557MOL0     C73447   8.720   9.277   5.077 -0.2339 -0.4592 -0.0972
  557MOL0     C73448   8.848   9.346   5.082 -1.1348  1.0386 -0.1893
  557MOL0     C73449   8.923   9.370   4.968 -0.0745  0.1798  0.7004
  557MOL0     O73450   9.046   9.422   4.955 -0.5035 -0.2677 -0.8612
  557MOL0     C73451   9.138   9.386   5.060 -0.2953  0.4313 -0.5045
  557MOL0     C73452   9.282   9.427   5.023  0.4130  0.7254 -0.2791
  557MOL0     C73453   9.297   9.581   5.048  0.3064 -0.0039  0.1429
  557MOL0     C73454   9.441   9.626   5.007  0.9968 -0.6186  0.1843
  557MOL0     C73455   9.437   9.687   4.872 -0.2586 -0.0907  0.4167
  557MOL0     C73456   9.438   9.749   4.769 -0.5457  0.0539  1.1809
  557MOL0     C73457   8.864   9.324   4.844 -0.4949 -0.0422 -0.4295
  557MOL0     C73458   8.744   9.252   4.845 -1.4236 -0.4980 -0.3311
  557MOL0     H73459   8.276   9.167   5.043  2.8185 -0.7162 -0.7053
  557MOL0     H73460   8.072   9.047   5.075  0.7549  1.7138  1.1228
  557MOL0     H73461   8.083   8.669   5.274  2.3194 -0.1990 -0.3390
  557MOL0     H73462   8.110   8.585   5.121 -2.3268 -2.5903  1.1269
  557MOL0     H73463   7.933   8.484   5.173 -1.7734 -1.4334  2.8676
  557MOL0     H73464   7.857   8.627   5.088  0.2275  1.8829  1.0457
  557MOL0     H73465   7.822   8.731   5.310 -0.5411  0.5444 -1.5899
  557MOL0     H73466   7.884   8.579   5.391  0.1787 -3.1350 -1.0712
  557MOL0     H73467   7.627   8.602   5.225 -2.5807 -0.8370  1.4361
  557MOL0     H73468   7.690   8.446   5.284 -1.5912 -0.1558 -0.8804
  557MOL0     H73469   7.690   8.536   5.522  1.0325  1.3813 -1.1856
  557MOL0     H73470   7.534   8.497   5.445 -0.6522 -0.2486  1.8017
  557MOL0     H73471   7.475   8.726   5.412  0.2295 -0.1208 -2.9157
  557MOL0     H73472   7.639   8.771   5.474 -1.1000 -0.1981 -0.8731
  557MOL0     H73473   7.570   8.660   5.692  2.0768  0.8479 -1.3771
  557MOL0     H73474   7.491   8.807   5.643 -2.4546  0.1038  0.4586
  557MOL0     H73475   7.386   8.529   5.647  0.8678 -0.6783 -2.2440
  557MOL0     H73476   7.308   8.663   5.548  0.9691  3.1377  0.7077
  557MOL0     H73477   7.463   8.665   5.905 -1.7246 -1.7522  3.0526
  557MOL0     H73478   7.381   8.713   6.143  0.8370  1.0934 -2.0217
  557MOL0     H73479   7.204   8.672   6.169 -1.1517 -0.0465 -2.2149
  557MOL0     H73480   7.351   8.929   6.117 -0.7375 -0.4539  0.3309
  557MOL0     H73481   7.273   8.866   6.270 -2.3673  0.6646  0.6230
  557MOL0     H73482   7.132   8.978   6.037  0.5767  0.7888  0.9432
  557MOL0     H73483   7.036   8.893   6.152 -0.9718  1.7202  0.9285
  557MOL0     H73484   7.212   9.091   6.276  0.7235 -2.0539  1.2425
  557MOL0     H73485   7.050   9.071   6.306 -0.1077 -0.7645 -0.6541
  557MOL0     H73486   7.136   9.402   5.943  0.9297 -0.8767  0.2972
  557MOL0     H73487   6.928   9.512   5.849  0.2151 -0.1124 -0.3679
  557MOL0     H73488   6.417   9.607   5.988 -0.6112 -0.9776  1.1182
  557MOL0     H73489   6.212   9.682   5.887  1.0353  1.1673  0.9228
  557MOL0     H73490   5.979   9.714   5.793  0.8460  1.3661 -1.0520
  557MOL0     H73491   5.912   9.548   5.829 -1.2705  1.7808 -0.7562
  557MOL0     H73492   5.746   9.662   5.719 -1.0286  0.2818 -1.9945
  557MOL0     H73493   5.814   9.578   5.584 -1.0763 -0.1603 -0.2322
  557MOL0     H73494   5.914   9.787   5.505  1.4822 -1.8165  0.4652
  557MOL0     H73495   5.903   9.859   5.654  0.7757 -0.4766 -0.6546
  557MOL0     H73496   5.670   9.815   5.458  0.6388 -0.5099 -0.2526
  557MOL0     H73497   5.643   9.833   5.636  2.7236 -2.6899  1.5191
  557MOL0     H73498   5.805  10.048   5.487  2.8938 -2.3073  0.8032
  557MOL0     H73499   5.775  10.037   5.659  1.1667 -0.6928 -1.0588
  557MOL0     H73500   5.614  10.179   5.505 -0.6693 -1.6723 -3.1516
  557MOL0     H73501   5.560  10.100   5.657 -0.4581 -2.1585  0.1007
  557MOL0     H73502   5.537  10.002   5.373  3.4131  2.9421  1.6604
  557MOL0     H73503   5.456   9.917   5.513  0.3149  0.1508  0.5677
  557MOL0     H73504   5.396  10.194   5.407  0.2515  2.4364  2.0832
  557MOL0     H73505   5.356  10.145   5.573 -1.6162 -0.1557 -1.0474
  557MOL0     H73506   6.223   9.342   5.611 -0.2810  1.1640 -1.1808
  557MOL0     H73507   6.453   9.291   5.732  1.4672  1.9368  0.9123
  557MOL0     H73508   6.681   9.232   6.044  0.5301  0.8934 -1.2198
  557MOL0     H73509   6.868   9.133   6.162 -0.5358 -0.1962 -0.4165
  557MOL0     H73510   8.307   8.702   5.193 -0.2053 -0.8841 -1.5770
  557MOL0     H73511   8.502   8.823   5.149 -1.4723 -0.7456  2.5218
  557MOL0     H73512   8.666   9.260   5.169 -1.0958  1.1534 -0.2482
  557MOL0     H73513   8.888   9.368   5.180 -1.7004 -1.4021  0.6726
  557MOL0     H73514   9.143   9.278   5.080  0.7689  1.0137  3.0951
  557MOL0     H73515   9.114   9.431   5.156  0.3249 -2.0410  0.9204
  557MOL0     H73516   9.353   9.364   5.078 -1.1435 -0.1652  0.8093
  557MOL0     H73517   9.304   9.413   4.917  1.5002 -0.5880  0.0782
  557MOL0     H73518   9.277   9.608   5.152  0.7031  0.8780  0.0008
  557MOL0     H73519   9.226   9.633   4.982  1.7203 -0.9358 -2.2626
  557MOL0     H73520   9.475   9.704   5.075 -2.8793  1.4371  0.0352
  557MOL0     H73521   9.510   9.541   5.003  3.8870  1.5739  0.3015
  557MOL0     H73522   9.434   9.797   4.673  0.7366 -0.7991  0.6727
  557MOL0     H73523   8.902   9.342   4.743 -0.9642  1.9705 -0.2862
  557MOL0     H73524   8.712   9.201   4.754  0.7212  0.8699 -1.9607
  558MOL0     O73525   7.723   8.835   3.497 -0.1594  0.0003 -0.1929
  558MOL0     C73526   7.736   8.908   3.404  0.4843  0.0359  0.3772
  558MOL0     O73527   7.638   8.984   3.355  0.2565 -0.5401  0.1720
  558MOL0     C73528   7.506   8.986   3.405  0.1369  0.5522 -0.5833
  558MOL0     C73529   7.481   8.997   3.543  0.0805  0.0386  0.2547
  558MOL0     C73530   7.354   9.028   3.589  0.1588 -0.5995 -0.3219
  558MOL0     C73531   7.248   9.040   3.498  0.4622  0.2594 -0.5087
  558MOL0     O73532   7.135   9.080   3.554 -0.6175 -0.5500  0.1131
  558MOL0     C73533   7.118   9.224   3.527 -0.4408 -0.2571  0.7558
  558MOL0     C73534   6.970   9.259   3.525 -0.6240 -0.4861 -0.4979
  558MOL0     C73535   6.886   9.200   3.410  0.1028  0.8352  0.8826
  558MOL0     C73536   6.739   9.218   3.422  1.1436 -1.3438  0.4865
  558MOL0     C73537   6.659   9.149   3.316 -0.4329  0.2265  0.3829
  558MOL0     C73538   6.502   9.170   3.323 -0.1954  0.7253 -0.5434
  558MOL0     C73539   6.435   9.119   3.455 -0.1939 -0.8764  0.3585
  558MOL0     C73540   6.283   9.125   3.448 -0.7899  0.7657 -0.1515
  558MOL0     N73541   6.224   8.998   3.401  0.8678 -0.2794 -0.5275
  558MOL0     C73542   6.128   8.983   3.306  0.2376 -0.1555  0.9368
  558MOL0     C73543   6.079   8.863   3.324 -0.1972  0.3790  0.1983
  558MOL0     C73544   5.973   8.796   3.231  0.8259 -0.4451  0.3020
  558MOL0     C73545   5.833   8.861   3.218 -0.5959 -0.3674  0.2592
  558MOL0     C73546   5.772   8.868   3.357  0.2569  0.1383 -0.6506
  558MOL0     C73547   5.615   8.868   3.360  0.4504 -0.9942  0.3233
  558MOL0     O73548   5.588   8.884   3.501 -0.0064 -0.0029 -0.0829
  558MOL0     C73549   5.456   8.857   3.527  0.0056 -0.0524  0.0175
  558MOL0     C73550   5.355   8.857   3.426  0.1217  0.0381 -0.2742
  558MOL0     C73551   5.229   8.805   3.462 -1.1627 -0.5005  1.1212
  558MOL0     C73552   5.205   8.751   3.588 -0.0677 -0.2097 -0.2654
  558MOL0     C73553   5.068   8.698   3.615  0.1824 -0.0120  0.5224
  558MOL0     O73554   4.969   8.724   3.525 -0.0169 -0.5547 -0.5930
  558MOL0     C73555   4.843   8.698   3.556  0.6177  0.7042  0.2787
  558MOL0     C73556   4.757   8.800   3.597  0.2933  0.7997 -0.5606
  558MOL0     C73557   4.622   8.766   3.622 -0.1821  0.2327 -0.3881
  558MOL0     C73558   4.568   8.638   3.590 -0.1092  0.1174 -0.5300
  558MOL0     O73559   4.436   8.602   3.609 -0.0875  0.0174 -0.1135
  558MOL0     C73560   4.345   8.700   3.668 -0.1919 -0.1490  0.0216
  558MOL0     C73561   4.227   8.615   3.729  0.2113 -1.0296  0.1385
  558MOL0     C73562   4.152   8.678   3.846  0.1384 -0.0133 -0.1664
  558MOL0     C73563   4.095   8.809   3.802  0.2404  0.5161  0.1879
  558MOL0     C73564   3.990   8.877   3.894  0.0062 -0.1730  0.3068
  558MOL0     C73565   3.949   9.014   3.833  1.3916 -0.3101  0.3405
  558MOL0     C73566   4.047   9.134   3.835  0.5079  0.0237  0.0418
  558MOL0     C73567   3.968   9.269   3.803 -0.3274 -0.5717 -0.0518
  558MOL0    Cl73568   3.881   9.315   3.950 -0.1198 -0.1684 -0.2194
  558MOL0     C73569   4.656   8.544   3.536 -0.2551  0.5044 -0.6765
  558MOL0     C73570   4.792   8.575   3.520 -0.5769  0.0703  0.3993
  558MOL0     O73571   5.054   8.655   3.723 -0.6870 -0.1419 -0.2961
  558MOL0     C73572   5.304   8.761   3.688  0.8965  0.1229  0.4413
  558MOL0     C73573   5.429   8.809   3.652 -1.1450 -0.0362  1.0637
  558MOL0     N73574   6.152   8.800   3.418 -0.5630  0.1678  0.1317
  558MOL0     N73575   6.241   8.880   3.465 -0.1557  0.3372 -0.0770
  558MOL0     C73576   7.265   9.012   3.366  0.1304 -0.6514 -0.4732
  558MOL0     C73577   7.397   8.990   3.327 -0.8666  0.7318  0.7310
  558MOL0     C73578   7.866   8.900   3.337 -0.0387 -0.7150 -0.0020
  558MOL0     C73579   7.894   8.986   3.227  0.6958 -0.0559  0.1224
  558MOL0     C73580   8.007   8.984   3.155 -0.9381  0.8578 -0.2042
  558MOL0     C73581   8.101   8.883   3.187  0.2996 -0.8518  0.6878
  558MOL0     O73582   8.212   8.861   3.115 -0.0413 -0.5988  0.0529
  558MOL0     C73583   8.262   8.960   3.035 -0.6531 -0.0913  0.4719
  558MOL0     C73584   8.383   8.905   2.953 -0.2526  0.3782  0.8319
  558MOL0     C73585   8.468   8.835   3.057 -0.7973 -0.6124  0.1195
  558MOL0     C73586   8.611   8.810   3.006 -0.1361  0.2008  0.0612
  558MOL0     C73587   8.703   8.751   3.105  0.1756 -0.7799  0.6419
  558MOL0     C73588   8.777   8.708   3.188  0.0184  0.0193 -0.6148
  558MOL0     C73589   8.078   8.799   3.291 -0.3155  0.5149  0.3088
  558MOL0     C73590   7.962   8.800   3.369 -0.3777  1.0233  0.4957
  558MOL0     H73591   7.560   8.989   3.617 -0.4084 -1.4767  0.6439
  558MOL0     H73592   7.327   9.050   3.692 -0.1601 -1.2241 -0.2669
  558MOL0     H73593   7.158   9.248   3.428  0.7088  0.2839  1.3382
  558MOL0     H73594   7.166   9.286   3.603  0.6285  1.2809 -1.0918
  558MOL0     H73595   6.968   9.369   3.520  0.4995 -0.3369  1.2245
  558MOL0     H73596   6.922   9.242   3.622 -2.6587  0.2059 -1.3317
  558MOL0     H73597   6.906   9.093   3.413 -0.2824  0.4801 -3.0948
  558MOL0     H73598   6.925   9.229   3.311 -0.8689  1.0512  0.5519
  558MOL0     H73599   6.710   9.158   3.509  0.9241 -4.2853 -1.4856
  558MOL0     H73600   6.724   9.326   3.430  4.3656 -0.7454 -0.1763
  558MOL0     H73601   6.687   9.043   3.319  1.5530  0.6566 -0.8723
  558MOL0     H73602   6.689   9.194   3.221 -2.0284  0.0701 -0.2178
  558MOL0     H73603   6.460   9.132   3.230 -4.0125 -0.6847  1.5122
  558MOL0     H73604   6.490   9.278   3.326 -0.6876  0.6589  1.1442
  558MOL0     H73605   6.471   9.019   3.480 -0.2419 -0.7885  0.7800
  558MOL0     H73606   6.465   9.173   3.545  0.4897  0.1164 -0.4426
  558MOL0     H73607   6.249   9.211   3.390 -0.7066  2.2267  1.9006
  558MOL0     H73608   6.250   9.152   3.548 -1.2800  0.4158 -0.2111
  558MOL0     H73609   6.114   9.058   3.229  1.2852 -0.0619  0.8153
  558MOL0     H73610   5.958   8.694   3.267  2.3865 -0.5549  0.7103
  558MOL0     H73611   6.011   8.799   3.128  2.0700  1.5516  0.7686
  558MOL0     H73612   5.776   8.786   3.164  2.5878 -2.7898 -0.0410
  558MOL0     H73613   5.821   8.960   3.172 -2.3449 -0.4816  0.3976
  558MOL0     H73614   5.803   8.782   3.417 -1.6945  1.0801  1.9254
  558MOL0     H73615   5.804   8.960   3.408  0.6389  0.0679 -0.7659
  558MOL0     H73616   5.557   8.794   3.305 -0.1604  1.3662 -2.5284
  558MOL0     H73617   5.597   8.961   3.304  0.0211 -0.6722  0.9880
  558MOL0     H73618   5.359   8.903   3.328  1.1878  1.7345  0.5362
  558MOL0     H73619   5.166   8.794   3.375 -2.6446 -0.2946  2.1240
  558MOL0     H73620   4.796   8.900   3.606  1.5410  0.5477 -2.5410
  558MOL0     H73621   4.568   8.851   3.664  2.4287  0.7246  2.3865
  558MOL0     H73622   4.308   8.771   3.593  1.1540 -1.4809 -1.9934
  558MOL0     H73623   4.398   8.742   3.754 -1.3512 -4.0408  2.9204
  558MOL0     H73624   4.282   8.524   3.756  2.4373 -0.4249 -1.9646
  558MOL0     H73625   4.152   8.598   3.651  0.6468 -0.1391 -0.4959
  558MOL0     H73626   4.215   8.701   3.933  0.6879 -0.2684 -0.4917
  558MOL0     H73627   4.072   8.611   3.880  0.2436  1.0069  2.3055
  558MOL0     H73628   4.181   8.876   3.797  0.0368  0.8088  0.6220
  558MOL0     H73629   4.044   8.796   3.705 -0.0971 -1.0019  0.5463
  558MOL0     H73630   4.028   8.881   3.996  2.7115 -0.8484 -0.5924
  558MOL0     H73631   3.893   8.827   3.887 -1.4256  2.6056 -2.2459
  558MOL0     H73632   3.871   9.052   3.899 -0.8526  0.5118 -2.5396
  558MOL0     H73633   3.907   8.995   3.734  1.1577 -2.6197  0.8310
  558MOL0     H73634   4.102   9.149   3.928  2.6225  3.4999 -1.5635
  558MOL0     H73635   4.124   9.116   3.760  0.4699 -1.5178  0.3453
  558MOL0     H73636   3.897   9.251   3.721  0.2792 -1.5259 -0.3905
  558MOL0     H73637   4.048   9.340   3.781  0.5694 -1.8092 -0.9455
  558MOL0     H73638   4.611   8.448   3.515 -0.4337  0.0460  1.5266
  558MOL0     H73639   4.865   8.502   3.488  1.8230  2.5817 -0.2335
  558MOL0     H73640   5.290   8.720   3.788  0.6986 -1.9058 -0.3847
  558MOL0     H73641   5.508   8.828   3.724 -2.5901 -1.2670  3.0563
  558MOL0     H73642   7.184   9.024   3.295 -0.7056 -2.2021  0.1707
  558MOL0     H73643   7.421   8.965   3.224  2.3932  0.0093  1.5578
  558MOL0     H73644   7.819   9.054   3.188 -0.6115 -0.6674  1.4574
  558MOL0     H73645   8.023   9.051   3.071  0.3162 -3.1043 -3.4671
  558MOL0     H73646   8.296   9.038   3.103  4.3166 -1.5471  0.0551
  558MOL0     H73647   8.193   9.002   2.961  1.0106  2.1221  0.0406
  558MOL0     H73648   8.349   8.827   2.884  0.3244 -0.7155  1.7576
  558MOL0     H73649   8.438   8.974   2.889 -0.2730  0.5862  1.0363
  558MOL0     H73650   8.420   8.738   3.069  0.8691 -1.4567  0.2015
  558MOL0     H73651   8.479   8.887   3.153 -0.4538 -1.2879  0.4544
  558MOL0     H73652   8.605   8.745   2.918 -0.2065  1.4276 -0.8662
  558MOL0     H73653   8.660   8.896   2.958  2.6206 -1.5634 -0.5262
  558MOL0     H73654   8.838   8.677   3.270 -1.1611  0.3725  0.4278
  558MOL0     H73655   8.158   8.734   3.324 -0.6772  1.6554  3.8429
  558MOL0     H73656   7.959   8.734   3.455  1.9961 -0.9229 -0.7571
  559MOL0     O73657   1.446   5.547  10.431  0.1483 -0.5131 -0.3439
  559MOL0     C73658   1.343   5.493  10.390 -0.1531  0.2475  0.8712
  559MOL0     O73659   1.303   5.477  10.260 -0.1842  0.2932 -0.1079
  559MOL0     C73660   1.394   5.513  10.161  1.0733  0.7820 -0.0153
  559MOL0     C73661   1.525   5.464  10.154  0.4430  0.0391 -0.0664
  559MOL0     C73662   1.598   5.485  10.029 -0.8378  0.3686 -0.6039
  559MOL0     C73663   1.548   5.560   9.926  0.0635 -0.1579 -0.0483
  559MOL0     O73664   1.606   5.575   9.806 -0.4947  0.1559 -0.0817
  559MOL0     C73665   1.721   5.504   9.772 -0.9857  0.3217  0.5498
  559MOL0     C73666   1.721   5.468   9.618 -0.0779  0.2502 -0.4912
  559MOL0     C73667   1.613   5.372   9.573  0.4596  0.5366  1.0681
  559MOL0     C73668   1.608   5.382   9.419  1.0078 -0.5580  0.0842
  559MOL0     C73669   1.495   5.295   9.347 -0.3969 -0.8649 -0.0962
  559MOL0     C73670   1.505   5.303   9.192 -0.4276 -1.5866 -0.1214
  559MOL0     C73671   1.389   5.229   9.122 -0.1581 -0.3893 -0.8323
  559MOL0     C73672   1.391   5.269   8.976 -0.0705  0.5101  0.0060
  559MOL0     N73673   1.276   5.195   8.909  0.1675  0.7627 -0.0018
  559MOL0     C73674   1.290   5.074   8.840 -0.1582 -0.3006  0.2877
  559MOL0     C73675   1.166   5.038   8.829  0.0343 -1.4672  0.4090
  559MOL0     C73676   1.120   4.928   8.747 -0.2745  0.4392 -0.2607
  559MOL0     C73677   0.966   4.910   8.761 -0.2896 -0.2162 -0.8462
  559MOL0     C73678   0.916   4.803   8.660 -0.1019  0.1087  0.5371
  559MOL0     C73679   0.776   4.833   8.611 -0.2951 -0.1313  0.2853
  559MOL0     O73680   0.683   4.838   8.722 -0.2629 -0.0194  0.8069
  559MOL0     C73681   0.553   4.876   8.707 -0.2804 -0.0465 -0.0264
  559MOL0     C73682   0.471   4.919   8.815 -0.3043  0.9378 -0.4137
  559MOL0     C73683   0.337   4.955   8.799 -0.0186  0.2725  0.3699
  559MOL0     C73684   0.273   4.945   8.675 -0.7785  0.4018 -0.1853
  559MOL0     C73685   0.123   4.954   8.655  0.1917  0.1446 -0.3935
  559MOL0     O73686   0.062   4.948   8.535  0.4164  0.0317  0.2520
  559MOL0     C73687  -0.073   4.959   8.522  0.3319  1.0746  0.0071
  559MOL0     C73688  -0.123   5.061   8.437  0.5879 -0.1488  0.4044
  559MOL0     C73689  -0.260   5.084   8.427  0.0736  0.8138 -0.3319
  559MOL0     C73690  -0.356   5.001   8.494 -0.7663 -0.4923 -0.7893
  559MOL0     O73691  -0.489   5.018   8.478  0.2893  0.1467 -0.8624
  559MOL0     C73692  -0.550   5.150   8.472  0.0414 -1.0999 -0.6694
  559MOL0     C73693  -0.703   5.156   8.476 -0.1182 -0.5378 -0.0397
  559MOL0     C73694  -0.755   5.299   8.452  0.4262 -0.6180 -0.1358
  559MOL0     C73695  -0.909   5.296   8.467  0.2572  0.6068  0.3193
  559MOL0     C73696  -0.978   5.435   8.447  0.3488  0.2701  0.3381
  559MOL0     C73697  -1.130   5.443   8.414  0.7868  0.7868 -0.1650
  559MOL0     C73698  -1.216   5.355   8.517  0.7830 -0.2656 -1.0424
  559MOL0     C73699  -1.365   5.378   8.523 -0.2791 -0.4913 -0.3377
  559MOL0    Cl73700  -1.455   5.354   8.365 -0.1957 -0.0861  0.1263
  559MOL0     C73701  -0.303   4.898   8.569 -0.6074  0.1808 -0.1117
  559MOL0     C73702  -0.167   4.877   8.590  0.2089 -0.3010  0.6754
  559MOL0     O73703   0.059   4.959   8.761 -0.6901  0.3044 -0.0257
  559MOL0     C73704   0.352   4.912   8.571  0.3550 -0.2004 -0.1294
  559MOL0     C73705   0.488   4.874   8.582 -0.1427  0.5545  0.2978
  559MOL0     N73706   1.082   5.139   8.876 -0.4216  0.0179 -0.2445
  559MOL0     N73707   1.144   5.237   8.920 -1.1773 -0.2513 -0.2895
  559MOL0     C73708   1.424   5.615   9.941 -0.9422  0.7525 -0.3435
  559MOL0     C73709   1.343   5.587  10.049  0.3807 -1.0650  0.4964
  559MOL0     C73710   1.241   5.465  10.494  0.2507  0.3130  0.0831
  559MOL0     C73711   1.121   5.403  10.464  0.7527 -0.1790  0.5472
  559MOL0     C73712   1.024   5.395  10.567  0.9215  0.2428  0.5074
  559MOL0     C73713   1.053   5.430  10.699  0.5181 -0.3887 -0.7900
  559MOL0     O73714   0.945   5.397  10.786 -0.6541 -0.8956 -0.5168
  559MOL0     C73715   0.978   5.385  10.922 -0.2184 -0.2603 -0.1011
  559MOL0     C73716   0.852   5.334  10.988  1.0430  0.3969 -0.0879
  559MOL0     C73717   0.880   5.305  11.134  0.5277  0.0789 -0.2663
  559MOL0     C73718   0.737   5.271  11.207 -1.1673 -0.1266  0.7972
  559MOL0     C73719   0.695   5.138  11.154 -0.2361 -0.6020 -0.5238
  559MOL0     C73720   0.656   5.025  11.115  0.0863 -0.6882 -0.1165
  559MOL0     C73721   1.174   5.487  10.727  0.0129 -0.5540 -0.3209
  559MOL0     C73722   1.267   5.509  10.629  0.5328  0.9172  0.4515
  559MOL0     H73723   1.574   5.412  10.237  0.3062  2.4896  1.6470
  559MOL0     H73724   1.700   5.449  10.019 -0.8086  0.7703 -1.9331
  559MOL0     H73725   1.727   5.409   9.826  0.6763 -0.5087 -0.9614
  559MOL0     H73726   1.808   5.565   9.799  1.1212 -2.5018  0.6884
  559MOL0     H73727   1.813   5.416   9.592  0.5638  1.3136 -0.4303
  559MOL0     H73728   1.715   5.561   9.559 -0.2538  0.5232 -0.0478
  559MOL0     H73729   1.517   5.393   9.623 -0.6963 -0.6774 -0.5404
  559MOL0     H73730   1.637   5.267   9.591 -0.7457  0.3397  1.6878
  559MOL0     H73731   1.585   5.484   9.386 -0.6008 -0.9440 -0.1038
  559MOL0     H73732   1.706   5.356   9.378  0.6347  1.2332 -2.1597
  559MOL0     H73733   1.400   5.342   9.373  0.5992  0.1666  1.9199
  559MOL0     H73734   1.495   5.191   9.382 -1.8927 -1.5245 -1.8851
  559MOL0     H73735   1.601   5.261   9.161 -0.9100 -2.7048 -0.1504
  559MOL0     H73736   1.495   5.408   9.164 -1.9580 -1.0444  2.1677
  559MOL0     H73737   1.401   5.120   9.130  1.5320 -0.8087 -5.8611
  559MOL0     H73738   1.296   5.266   9.166 -1.3736  0.2021 -3.6582
  559MOL0     H73739   1.483   5.256   8.918 -0.4146  0.7408 -0.6050
  559MOL0     H73740   1.372   5.376   8.966 -1.4191  0.3141  0.2126
  559MOL0     H73741   1.378   5.016   8.815  0.3966  0.2409  0.9437
  559MOL0     H73742   1.164   4.831   8.772  1.1593  1.3784  1.0144
  559MOL0     H73743   1.137   4.963   8.644 -2.6394  0.8014 -0.5772
  559MOL0     H73744   0.902   4.999   8.752 -0.4840 -0.4672 -2.0609
  559MOL0     H73745   0.943   4.875   8.863 -1.1087  1.5954 -0.3671
  559MOL0     H73746   0.981   4.814   8.573 -3.2522  1.7069 -1.7883
  559MOL0     H73747   0.927   4.699   8.693  1.3593  0.0907  0.0807
  559MOL0     H73748   0.746   4.752   8.543  0.6715  0.3230 -0.7260
  559MOL0     H73749   0.780   4.922   8.548  2.6716 -0.9993 -0.9705
  559MOL0     H73750   0.513   4.909   8.914 -0.2700  2.0392 -0.3109
  559MOL0     H73751   0.270   4.991   8.877 -1.4351  0.7212 -1.0150
  559MOL0     H73752  -0.053   5.128   8.389  2.2948 -1.2247  1.3057
  559MOL0     H73753  -0.287   5.173   8.370  0.0480  0.8798 -0.2176
  559MOL0     H73754  -0.509   5.205   8.387 -0.7020  0.3717 -0.1240
  559MOL0     H73755  -0.513   5.193   8.566 -3.1187 -0.4376  0.4025
  559MOL0     H73756  -0.751   5.095   8.553 -0.5402 -1.6407 -1.1288
  559MOL0     H73757  -0.728   5.091   8.391 -2.5643  1.5171 -1.0262
  559MOL0     H73758  -0.733   5.335   8.351 -2.8980 -0.4647 -0.9257
  559MOL0     H73759  -0.707   5.365   8.524  0.7440 -2.0392  1.0001
  559MOL0     H73760  -0.941   5.229   8.386  1.1736  1.4279 -0.7583
  559MOL0     H73761  -0.946   5.254   8.561 -0.5091 -0.4463 -0.4160
  559MOL0     H73762  -0.924   5.486   8.367 -1.0517  0.3726 -0.5767
  559MOL0     H73763  -0.963   5.483   8.544  2.0521  0.4232  0.0252
  559MOL0     H73764  -1.144   5.405   8.312 -0.2953  1.9212 -0.4532
  559MOL0     H73765  -1.161   5.548   8.416  0.4628  0.7014 -0.5754
  559MOL0     H73766  -1.207   5.247   8.499 -1.4568 -1.7389  4.6373
  559MOL0     H73767  -1.173   5.367   8.616  2.8302  1.1872 -2.0361
  559MOL0     H73768  -1.384   5.477   8.566  2.8989  0.9629 -1.9702
  559MOL0     H73769  -1.395   5.305   8.598  1.4663  1.8589  2.9175
  559MOL0     H73770  -0.376   4.827   8.606 -0.3014  0.0169  0.1791
  559MOL0     H73771  -0.131   4.793   8.648  1.2659  0.6768  1.4778
  559MOL0     H73772   0.316   4.900   8.469  1.0439  3.8466 -1.0268
  559MOL0     H73773   0.534   4.842   8.489 -4.7345 -1.6716 -1.5110
  559MOL0     H73774   1.386   5.682   9.865  3.5654  2.7273 -1.2079
  559MOL0     H73775   1.243   5.629  10.051  1.0013  0.4874  0.2714
  559MOL0     H73776   1.109   5.369  10.362  1.4322  1.3090 -0.0476
  559MOL0     H73777   0.923   5.359  10.549  0.5773  1.9448 -1.3962
  559MOL0     H73778   0.995   5.490  10.950 -3.1325  1.4702 -3.8657
  559MOL0     H73779   1.065   5.322  10.943 -1.1921 -1.9303 -0.9142
  559MOL0     H73780   0.762   5.398  10.984 -0.1770 -1.1170  1.4110
  559MOL0     H73781   0.811   5.248  10.935 -0.8609  0.4346  1.1762
  559MOL0     H73782   0.935   5.383  11.187  2.0811 -0.3153 -1.2233
  559MOL0     H73783   0.949   5.220  11.141 -0.4103 -0.5843  2.7514
  559MOL0     H73784   0.743   5.252  11.315 -0.6534 -3.6139  0.2798
  559MOL0     H73785   0.677   5.362  11.198  4.0547  3.6760 -0.5213
  559MOL0     H73786   0.630   4.925  11.088 -0.1758 -1.6598  3.3394
  559MOL0     H73787   1.203   5.498  10.831  1.3797  0.5909 -0.7882
  559MOL0     H73788   1.359   5.553  10.665  0.7925 -0.7099  1.8685
  560MOL0     O73789   3.056  10.442   6.675  0.4163 -0.6617 -0.3190
  560MOL0     C73790   3.027  10.323   6.662 -0.2755  0.3331 -0.2296
  560MOL0     O73791   3.117  10.208   6.675  0.0810 -0.2038 -0.3719
  560MOL0     C73792   3.253  10.222   6.706  0.6926  0.3156 -0.3055
  560MOL0     C73793   3.312  10.102   6.750 -0.1280 -0.4213  0.1679
  560MOL0     C73794   3.449  10.093   6.781  0.5431  0.7457  0.1221
  560MOL0     C73795   3.527  10.206   6.793 -0.6466 -0.0581  0.7965
  560MOL0     O73796   3.656  10.180   6.841  0.3409  0.5497  0.1085
  560MOL0     C73797   3.763  10.268   6.809 -0.2334  0.0222  0.2650
  560MOL0     C73798   3.886  10.179   6.823 -0.7954 -0.4684 -0.1693
  560MOL0     C73799   4.012  10.277   6.822  0.4173 -0.2980 -1.0708
  560MOL0     C73800   4.137  10.199   6.859 -0.9238  0.5057 -0.0324
  560MOL0     C73801   4.255  10.286   6.806  0.1925 -0.1633 -0.3037
  560MOL0     C73802   4.390  10.225   6.851  0.1015  0.3811 -0.6722
  560MOL0     C73803   4.510  10.321   6.839 -0.0202 -0.8307  0.0298
  560MOL0     C73804   4.646  10.247   6.845  0.1345 -0.0303 -0.1243
  560MOL0     N73805   4.752  10.339   6.875 -0.2069 -0.2051 -0.5547
  560MOL0     C73806   4.821  10.356   6.992  1.2667 -0.3167 -0.6718
  560MOL0     C73807   4.917  10.446   6.959  0.0879  0.0081 -0.0013
  560MOL0     C73808   5.014  10.512   7.051 -0.1910  0.0813 -0.0382
  560MOL0     C73809   5.021  10.450   7.187  0.1331  0.1493  0.5564
  560MOL0     C73810   5.087  10.315   7.168  0.0246 -0.8414 -0.4848
  560MOL0     C73811   5.098  10.252   7.309 -0.1146 -0.4298  0.8263
  560MOL0     O73812   4.961  10.235   7.371 -1.4736 -0.3873 -0.6635
  560MOL0     C73813   4.882  10.142   7.309 -0.3748  0.4110 -0.1297
  560MOL0     C73814   4.750  10.131   7.353  0.8115  0.6008  0.1116
  560MOL0     C73815   4.659  10.042   7.307  0.5556 -0.9599  0.0009
  560MOL0     C73816   4.697   9.957   7.204 -0.1640  0.4408 -0.2348
  560MOL0     C73817   4.598   9.873   7.147  0.8122  0.0046  0.3031
  560MOL0     O73818   4.472   9.905   7.180  0.4983 -0.4335  0.1764
  560MOL0     C73819   4.358   9.852   7.129 -0.3552  1.1084 -0.1505
  560MOL0     C73820   4.333   9.714   7.106 -1.1312 -0.1424  0.2585
  560MOL0     C73821   4.203   9.677   7.068  0.2480  0.0761  0.2594
  560MOL0     C73822   4.103   9.773   7.039 -0.1317 -0.2469 -0.0630
  560MOL0     O73823   3.975   9.747   6.999 -0.7028 -0.0999 -0.3901
  560MOL0     C73824   3.916   9.624   7.034 -0.7983  0.4154  0.1594
  560MOL0     C73825   3.768   9.642   7.058 -0.1647  0.5741 -0.1922
  560MOL0     C73826   3.678   9.694   6.947  0.0353  0.1998 -0.6602
  560MOL0     C73827   3.559   9.768   7.014 -0.3823  0.4232 -0.0734
  560MOL0     C73828   3.436   9.740   6.929  0.0973 -0.9339 -0.6352
  560MOL0     C73829   3.295   9.793   6.975 -0.0041 -0.6116  0.4010
  560MOL0     C73830   3.186   9.720   6.891  0.7672 -0.4958  0.8442
  560MOL0     C73831   3.043   9.736   6.949  0.3143 -0.6659 -0.3124
  560MOL0    Cl73832   2.988   9.613   7.071 -0.3070  0.4986  0.0155
  560MOL0     C73833   4.138   9.907   7.040 -0.3282  0.2556 -1.0741
  560MOL0     C73834   4.261   9.948   7.095  1.0615  0.9863  0.3061
  560MOL0     O73835   4.631   9.777   7.071  0.4224  0.1163 -0.3161
  560MOL0     C73836   4.833   9.962   7.152 -0.2288  0.4396  0.7660
  560MOL0     C73837   4.925  10.052   7.211  0.1601 -0.8886 -0.1182
  560MOL0     N73838   4.916  10.475   6.818  0.3777 -0.3732 -0.3805
  560MOL0     N73839   4.817  10.407   6.776  0.3760  0.1907  0.6782
  560MOL0     C73840   3.473  10.330   6.747  0.1207  0.2965 -0.5316
  560MOL0     C73841   3.338  10.338   6.703  1.0814  0.0540 -0.0523
  560MOL0     C73842   2.882  10.273   6.660 -0.4802 -0.4093 -0.1572
  560MOL0     C73843   2.786  10.372   6.672  0.3175 -0.5138 -0.5226
  560MOL0     C73844   2.652  10.344   6.648  0.3306  0.2172  0.1287
  560MOL0     C73845   2.618  10.208   6.633  0.2020  0.2467  1.0065
  560MOL0     O73846   2.484  10.167   6.614 -0.2236 -0.3469 -0.4664
  560MOL0     C73847   2.385  10.253   6.559 -0.4760  0.3313 -0.9994
  560MOL0     C73848   2.251  10.196   6.527 -0.7793  0.3497  0.6667
  560MOL0     C73849   2.238  10.110   6.406  0.1590  0.2988  0.0093
  560MOL0     C73850   2.080  10.089   6.386 -0.3147  0.0997  0.2360
  560MOL0     C73851   2.054  10.101   6.240 -0.5267 -0.2646  0.0554
  560MOL0     C73852   2.020  10.111   6.124  0.4406  0.6069 -0.1042
  560MOL0     C73853   2.712  10.109   6.640  0.6481  0.2897  0.3727
  560MOL0     C73854   2.844  10.143   6.646 -0.3488  0.5688  0.0258
  560MOL0     H73855   3.259  10.009   6.768 -0.2147 -0.1467  1.4393
  560MOL0     H73856   3.489   9.997   6.809 -0.4005  0.0111 -0.9586
  560MOL0     H73857   3.779  10.350   6.881 -0.1408 -0.3384  0.6643
  560MOL0     H73858   3.751  10.307   6.708  0.8677 -0.2027  0.0333
  560MOL0     H73859   3.890  10.105   6.742 -0.0780 -0.2618 -0.3330
  560MOL0     H73860   3.877  10.129   6.920 -2.2860  0.0007 -0.0445
  560MOL0     H73861   3.995  10.354   6.898 -1.6171 -0.6620 -1.1004
  560MOL0     H73862   4.020  10.329   6.726  0.0189  0.6193 -0.6166
  560MOL0     H73863   4.141  10.179   6.966  0.3742  0.2817 -0.1051
  560MOL0     H73864   4.150  10.105   6.805  3.2017  1.2046 -0.5865
  560MOL0     H73865   4.238  10.386   6.846 -1.7608 -0.1439 -1.0692
  560MOL0     H73866   4.252  10.283   6.697  2.9917  0.7905 -0.4762
  560MOL0     H73867   4.420  10.131   6.804  0.3795 -0.6310  1.4065
  560MOL0     H73868   4.377  10.213   6.959  0.4328  0.3370 -0.6379
  560MOL0     H73869   4.498  10.379   6.747 -1.5081 -1.4042 -0.1632
  560MOL0     H73870   4.503  10.392   6.922  2.1839  0.7013 -0.9903
  560MOL0     H73871   4.661  10.193   6.751  0.9865  0.0123 -0.0157
  560MOL0     H73872   4.643  10.176   6.928 -0.7133  1.0400  0.8086
  560MOL0     H73873   4.801  10.317   7.091  2.3763  0.6203 -0.0468
  560MOL0     H73874   4.975  10.614   7.059  0.8532  0.4040  1.3675
  560MOL0     H73875   5.118  10.528   7.021  0.5630  0.0197  2.3361
  560MOL0     H73876   4.921  10.449   7.233 -0.6608  0.1357 -1.1056
  560MOL0     H73877   5.081  10.515   7.251  2.2134 -0.5364 -0.6298
  560MOL0     H73878   5.027  10.248   7.107 -2.2893  0.8200 -0.1676
  560MOL0     H73879   5.191  10.323   7.134  0.7118 -0.5262  1.5610
  560MOL0     H73880   5.155  10.312   7.381 -1.3527 -1.3320  2.6145
  560MOL0     H73881   5.154  10.158   7.306 -1.4900 -1.3054  1.5291
  560MOL0     H73882   4.729  10.195   7.438 -1.7373 -0.7500  0.6344
  560MOL0     H73883   4.560  10.043   7.351  0.7327  1.6711  0.4827
  560MOL0     H73884   4.409   9.643   7.139 -1.3674 -0.7243 -0.4307
  560MOL0     H73885   4.176   9.572   7.059  2.2508 -0.5568  1.2087
  560MOL0     H73886   3.964   9.584   7.124  0.6115  1.7431  0.0382
  560MOL0     H73887   3.931   9.544   6.961 -1.0513 -0.8015  1.3914
  560MOL0     H73888   3.756   9.713   7.140 -1.1633  0.2252 -0.0177
  560MOL0     H73889   3.717   9.549   7.083 -0.2505  0.4925 -0.6575
  560MOL0     H73890   3.645   9.605   6.893  1.4862 -0.9649  0.2781
  560MOL0     H73891   3.728   9.767   6.883 -0.0547  1.4388  0.6340
  560MOL0     H73892   3.540   9.735   7.117 -0.5307 -1.8076 -0.7449
  560MOL0     H73893   3.572   9.876   7.020  0.6873  0.4243 -1.7456
  560MOL0     H73894   3.430   9.631   6.921 -3.1260 -0.9805  1.0251
  560MOL0     H73895   3.444   9.792   6.833 -1.7897 -0.5616 -0.6285
  560MOL0     H73896   3.284   9.902   6.969 -1.9762 -0.7708  0.6118
  560MOL0     H73897   3.272   9.768   7.079 -0.6954 -1.1238  0.1249
  560MOL0     H73898   3.176   9.768   6.794  0.9612 -1.0882  0.5242
  560MOL0     H73899   3.200   9.612   6.878 -0.1842 -0.3026 -2.6804
  560MOL0     H73900   2.969   9.737   6.869 -0.9252  2.3210  0.7218
  560MOL0     H73901   3.040   9.842   6.978 -3.3873  0.4313 -3.8186
  560MOL0     H73902   4.058   9.977   7.016 -0.6757  0.3739  0.3354
  560MOL0     H73903   4.282  10.054   7.095  2.8506  0.6641  1.4204
  560MOL0     H73904   4.869   9.891   7.079  0.8894  0.2255  1.5086
  560MOL0     H73905   5.028  10.045   7.177 -0.1441  2.5235 -2.2601
  560MOL0     H73906   3.532  10.421   6.733  0.2613 -0.1618 -3.5497
  560MOL0     H73907   3.312  10.434   6.658 -2.4482 -1.2802 -1.2157
  560MOL0     H73908   2.804  10.477   6.692 -1.1685 -0.1429 -1.0175
  560MOL0     H73909   2.593  10.433   6.630 -1.6684 -0.8347  1.0795
  560MOL0     H73910   2.427  10.299   6.469 -1.0127  2.2470 -0.3269
  560MOL0     H73911   2.368  10.335   6.630  3.7940 -1.2231  2.3049
  560MOL0     H73912   2.217  10.132   6.609 -0.4026 -0.8432 -0.0824
  560MOL0     H73913   2.187  10.284   6.513 -2.2886 -0.6825  0.7981
  560MOL0     H73914   2.284  10.014   6.430  1.6782  0.9356 -0.2341
  560MOL0     H73915   2.286  10.156   6.319 -1.5514 -3.0074 -2.9399
  560MOL0     H73916   2.052   9.997   6.437 -0.2453 -1.4528 -2.3733
  560MOL0     H73917   2.026  10.168   6.439  0.1441  0.5031  0.1118
  560MOL0     H73918   1.979  10.121   6.026  2.1617 -0.4118 -0.9768
  560MOL0     H73919   2.687  10.004   6.628 -1.2451  0.4898  2.0691
  560MOL0     H73920   2.913  10.064   6.619 -1.9172 -0.0488 -2.4784
  561MOL0     O73921   6.727   6.368   6.560  0.2673  0.3020 -0.4229
  561MOL0     C73922   6.635   6.320   6.498  1.1296  0.0535  0.0611
  561MOL0     O73923   6.620   6.190   6.454 -0.9168 -0.1202 -0.5467
  561MOL0     C73924   6.729   6.106   6.446 -0.3164 -1.0879  0.3727
  561MOL0     C73925   6.707   5.973   6.449  0.1310 -0.1594  0.2813
  561MOL0     C73926   6.801   5.874   6.452  0.6216 -0.7069 -0.1172
  561MOL0     C73927   6.923   5.916   6.415  0.0312  0.9871 -0.1986
  561MOL0     O73928   7.024   5.817   6.402  1.0059 -0.2774 -0.5209
  561MOL0     C73929   7.001   5.673   6.420 -1.1849  0.4325 -0.6851
  561MOL0     C73930   7.137   5.595   6.396 -1.1748 -0.0477 -0.1780
  561MOL0     C73931   7.131   5.445   6.402  0.7041  0.0660  0.9821
  561MOL0     C73932   7.261   5.371   6.362  0.3208  1.1391 -0.2108
  561MOL0     C73933   7.276   5.229   6.416  0.2420 -0.8434 -0.3485
  561MOL0     C73934   7.163   5.137   6.368  0.4151  0.1273  0.1662
  561MOL0     C73935   7.136   5.137   6.214 -0.2280 -0.4006  1.0168
  561MOL0     C73936   7.007   5.058   6.184  0.5143 -0.1592  0.5762
  561MOL0     N73937   7.033   4.913   6.158 -0.5330 -0.1326  0.6214
  561MOL0     C73938   7.082   4.822   6.251  0.1101 -0.0113 -0.6868
  561MOL0     C73939   7.067   4.701   6.192 -0.7324 -0.1164  0.1234
  561MOL0     C73940   7.106   4.569   6.250  0.1231 -0.9445  0.1460
  561MOL0     C73941   7.009   4.514   6.358 -0.0745 -0.6329 -1.1111
  561MOL0     C73942   6.879   4.445   6.310  0.1668  0.2375  0.6108
  561MOL0     C73943   6.774   4.407   6.422  0.0788  0.0069  0.0711
  561MOL0     O73944   6.657   4.350   6.364  0.1584 -0.2967  0.4551
  561MOL0     C73945   6.539   4.321   6.430  0.8682 -0.6275 -0.2809
  561MOL0     C73946   6.424   4.298   6.353  0.1740  0.1317  0.2065
  561MOL0     C73947   6.292   4.282   6.394  0.4336 -0.1929 -0.4135
  561MOL0     C73948   6.272   4.296   6.529  0.1121 -1.6481 -1.7009
  561MOL0     C73949   6.135   4.292   6.596 -0.2343 -0.3944  0.5112
  561MOL0     O73950   6.029   4.268   6.520 -0.2426  0.6149  0.9906
  561MOL0     C73951   5.900   4.260   6.568  0.6670 -0.2324  0.1736
  561MOL0     C73952   5.798   4.292   6.468  0.0072  0.4043 -0.9508
  561MOL0     C73953   5.663   4.282   6.503  0.4328 -0.1023 -0.3626
  561MOL0     C73954   5.613   4.233   6.626 -0.8935  0.6789 -0.4587
  561MOL0     O73955   5.475   4.222   6.642  0.0578 -0.4263  0.4585
  561MOL0     C73956   5.432   4.133   6.748 -0.5593  0.1432 -0.1991
  561MOL0     C73957   5.285   4.131   6.755 -0.0522  0.6455 -0.3268
  561MOL0     C73958   5.231   4.263   6.813 -0.1692  0.1830  0.3753
  561MOL0     C73959   5.091   4.255   6.865 -0.5246  0.6099  0.1242
  561MOL0     C73960   5.027   4.386   6.915 -1.0039 -0.0950 -0.0838
  561MOL0     C73961   4.877   4.359   6.950 -0.4416  0.0429 -0.2589
  561MOL0     C73962   4.810   4.483   7.021 -0.6569  0.2647  0.2898
  561MOL0     C73963   4.664   4.477   6.980 -0.3064  0.2006  0.6000
  561MOL0    Cl73964   4.591   4.614   7.064  0.2339 -0.2109  0.1744
  561MOL0     C73965   5.713   4.207   6.725 -0.3369  0.5655 -0.9608
  561MOL0     C73966   5.852   4.221   6.695 -0.4184  0.8337  0.2102
  561MOL0     O73967   6.131   4.300   6.720 -0.3293  0.3919  0.6330
  561MOL0     C73968   6.386   4.328   6.612  0.3919  0.2156 -0.6636
  561MOL0     C73969   6.519   4.339   6.567 -0.7886  0.0448  1.0422
  561MOL0     N73970   7.020   4.718   6.063 -0.2811 -0.5967  0.2484
  561MOL0     N73971   7.001   4.842   6.045 -0.2005  0.4332  0.3753
  561MOL0     C73972   6.961   6.052   6.414 -0.2925  0.0546 -0.2225
  561MOL0     C73973   6.865   6.146   6.442 -0.1086  0.7472  0.2330
  561MOL0     C73974   6.518   6.401   6.473  0.0803 -0.2691 -0.8457
  561MOL0     C73975   6.519   6.534   6.511 -0.2315  0.0107  0.2983
  561MOL0     C73976   6.402   6.601   6.509  0.6400 -0.3588 -0.1275
  561MOL0     C73977   6.277   6.546   6.468  0.9003 -0.2612  0.9962
  561MOL0     O73978   6.149   6.597   6.458 -0.7328 -0.6315 -0.0418
  561MOL0     C73979   6.141   6.730   6.504 -0.3528 -0.5481  0.1328
  561MOL0     C73980   6.005   6.800   6.470  1.4362 -0.9815  0.4979
  561MOL0     C73981   5.891   6.716   6.535 -0.9299 -1.1796  0.1718
  561MOL0     C73982   5.773   6.786   6.552  0.2334  0.0598 -0.7727
  561MOL0     C73983   5.665   6.701   6.584  0.3142  0.4742  0.0495
  561MOL0     C73984   5.564   6.631   6.601 -0.2356 -0.3120  0.9593
  561MOL0     C73985   6.279   6.405   6.441  0.5979  0.1382  0.5720
  561MOL0     C73986   6.399   6.340   6.437 -0.2495 -0.1317  0.5840
  561MOL0     H73987   6.607   5.932   6.459  0.5351 -2.0340 -2.4294
  561MOL0     H73988   6.771   5.771   6.463 -3.4100  0.4287  0.9908
  561MOL0     H73989   6.920   5.634   6.357 -2.3804 -1.0603  1.6072
  561MOL0     H73990   6.973   5.665   6.526 -0.6216  0.2521 -0.5500
  561MOL0     H73991   7.212   5.632   6.467 -0.3069 -0.5189 -0.8310
  561MOL0     H73992   7.189   5.616   6.302 -0.2821  2.2823  0.7665
  561MOL0     H73993   7.054   5.408   6.333 -1.3881  0.5385  2.9683
  561MOL0     H73994   7.105   5.411   6.502  0.1254 -0.3408  0.7026
  561MOL0     H73995   7.273   5.376   6.253 -1.5098 -1.0652 -0.5789
  561MOL0     H73996   7.341   5.436   6.401 -0.8157  3.4834 -1.5627
  561MOL0     H73997   7.265   5.243   6.524 -0.8209 -3.4333 -0.0637
  561MOL0     H73998   7.370   5.193   6.374 -1.2255 -2.3941 -2.5139
  561MOL0     H73999   7.073   5.185   6.406  0.3005  1.1792 -1.3296
  561MOL0     H74000   7.176   5.038   6.413  1.2525  1.5126  3.2281
  561MOL0     H74001   7.117   5.239   6.179  3.4538  1.1065  2.8023
  561MOL0     H74002   7.218   5.100   6.152 -3.2934 -1.1127 -2.9750
  561MOL0     H74003   6.964   5.092   6.088  2.0678 -2.6406 -1.1040
  561MOL0     H74004   6.932   5.069   6.263  0.0910  1.0932  0.0411
  561MOL0     H74005   7.110   4.851   6.352 -1.9893  2.3053 -0.6607
  561MOL0     H74006   7.203   4.581   6.299 -0.9753  3.9069  1.6701
  561MOL0     H74007   7.118   4.493   6.173  0.0706  0.7865 -1.6605
  561MOL0     H74008   6.992   4.593   6.431  2.4860  0.9468 -2.0913
  561MOL0     H74009   7.068   4.440   6.413  0.2777  0.2160 -0.3262
  561MOL0     H74010   6.827   4.498   6.231  1.2300  0.4178  0.0159
  561MOL0     H74011   6.915   4.356   6.257 -2.7421 -0.4700 -0.3878
  561MOL0     H74012   6.752   4.494   6.484  1.1313  1.0060 -0.9012
  561MOL0     H74013   6.808   4.335   6.498 -0.2247  0.4981  0.6782
  561MOL0     H74014   6.439   4.294   6.245  2.5080 -0.0044  0.4796
  561MOL0     H74015   6.212   4.261   6.325 -0.6252  1.6145  0.2101
  561MOL0     H74016   5.840   4.304   6.369 -0.4336 -0.5742 -1.2688
  561MOL0     H74017   5.602   4.318   6.420  1.0389 -1.5404 -1.4722
  561MOL0     H74018   5.466   4.163   6.847  2.2702  0.8551 -1.2904
  561MOL0     H74019   5.459   4.033   6.714 -1.7047 -1.1775  2.5536
  561MOL0     H74020   5.257   4.034   6.799 -0.4967 -0.9528 -3.8340
  561MOL0     H74021   5.254   4.114   6.652  0.9905 -1.3524 -0.3565
  561MOL0     H74022   5.228   4.336   6.731  1.9413 -1.8797 -1.7243
  561MOL0     H74023   5.289   4.311   6.893 -1.2165  1.6509  0.2958
  561MOL0     H74024   5.032   4.219   6.781  2.8989 -0.0517 -2.2224
  561MOL0     H74025   5.087   4.187   6.950 -1.4828  2.6367  1.7947
  561MOL0     H74026   5.033   4.455   6.830  1.1246  0.4641  0.4529
  561MOL0     H74027   5.080   4.412   7.006  2.4148 -2.0346 -1.3507
  561MOL0     H74028   4.869   4.274   7.020 -0.7916 -1.0232 -1.5462
  561MOL0     H74029   4.821   4.318   6.865 -1.2481 -1.6957  1.0315
  561MOL0     H74030   4.821   4.491   7.129 -0.8207  0.9291  0.2626
  561MOL0     H74031   4.857   4.567   6.970  1.3950 -1.2043 -0.3583
  561MOL0     H74032   4.616   4.385   7.015 -0.2471  1.2014  3.6262
  561MOL0     H74033   4.656   4.489   6.872  4.1124 -0.5210 -0.0182
  561MOL0     H74034   5.680   4.180   6.824  1.2250  0.3612 -0.4646
  561MOL0     H74035   5.925   4.195   6.770 -0.1749  0.8327 -0.0273
  561MOL0     H74036   6.364   4.349   6.716 -2.3499  0.7317 -1.2573
  561MOL0     H74037   6.604   4.351   6.633  0.4577 -1.5592 -0.1866
  561MOL0     H74038   7.059   6.094   6.397 -0.6636  1.0298 -0.0366
  561MOL0     H74039   6.888   6.252   6.442  1.8504  0.3750  0.9886
  561MOL0     H74040   6.613   6.584   6.533  0.2932 -0.5881 -0.5359
  561MOL0     H74041   6.416   6.707   6.526  0.3585  0.2474 -3.1777
  561MOL0     H74042   6.217   6.790   6.454 -0.3556 -1.3842 -0.9004
  561MOL0     H74043   6.159   6.729   6.612  0.7407  0.1538 -0.0319
  561MOL0     H74044   5.995   6.901   6.512  1.4181 -1.2500  1.1548
  561MOL0     H74045   5.983   6.820   6.365  0.7098  1.4902  1.0541
  561MOL0     H74046   5.923   6.682   6.634  1.6024  1.4180  0.3627
  561MOL0     H74047   5.890   6.630   6.468 -0.6998 -0.7422 -0.4052
  561MOL0     H74048   5.787   6.856   6.635  2.1966 -1.5016  0.2856
  561MOL0     H74049   5.742   6.838   6.460  0.3916  2.8373  0.6306
  561MOL0     H74050   5.485   6.561   6.620 -0.6657 -0.0542  0.1897
  561MOL0     H74051   6.185   6.358   6.415  1.3907 -0.0127 -2.5353
  561MOL0     H74052   6.389   6.240   6.398 -1.7398 -0.1129  0.8797
  562MOL0     O74053  10.103   2.873  10.701  0.1392 -0.4531  0.1359
  562MOL0     C74054  10.184   2.840  10.791  0.2556  0.4572  0.1259
  562MOL0     O74055  10.153   2.755  10.894  0.3547 -0.2733 -0.1100
  562MOL0     C74056  10.026   2.702  10.887  0.4347  0.8741  1.5145
  562MOL0     C74057   9.975   2.642  10.773  0.0182 -0.3314  0.7176
  562MOL0     C74058   9.857   2.564  10.782  0.3455  0.5425  0.7460
  562MOL0     C74059   9.783   2.554  10.903 -0.4137  0.3215 -0.6291
  562MOL0     O74060   9.668   2.477  10.904  0.7211  0.2192 -0.1891
  562MOL0     C74061   9.557   2.515  10.991 -0.2014 -0.1909 -0.1160
  562MOL0     C74062   9.434   2.507  10.897  0.7177  0.0639 -0.2245
  562MOL0     C74063   9.391   2.370  10.858 -0.0099 -0.1946  0.1068
  562MOL0     C74064   9.263   2.362  10.776 -0.0731  0.1997 -0.3391
  562MOL0     C74065   9.226   2.214  10.737 -0.1543  0.1429  0.3341
  562MOL0     C74066   9.090   2.228  10.673 -0.4874  0.1722 -0.2819
  562MOL0     C74067   9.033   2.089  10.628  0.4478 -0.4632  1.2952
  562MOL0     C74068   8.930   2.100  10.513 -0.1364 -0.3997 -0.7865
  562MOL0     N74069   8.871   1.968  10.480 -0.1106  0.2893 -0.9593
  562MOL0     C74070   8.874   1.894  10.362  0.0504 -0.4746  0.2988
  562MOL0     C74071   8.792   1.794  10.370  1.1772 -0.6943 -0.4449
  562MOL0     C74072   8.738   1.711  10.258 -0.0119 -0.3337  0.4821
  562MOL0     C74073   8.597   1.648  10.292 -0.3617 -0.6326  0.1457
  562MOL0     C74074   8.596   1.528  10.387  0.5832 -0.7993 -1.8551
  562MOL0     C74075   8.458   1.454  10.396  0.3242  0.0105 -0.4775
  562MOL0     O74076   8.414   1.418  10.262  0.6903  0.0067  0.4806
  562MOL0     C74077   8.288   1.361  10.252  0.4643  0.3073 -0.0749
  562MOL0     C74078   8.201   1.347  10.359  0.5146 -0.5967  0.3345
  562MOL0     C74079   8.070   1.291  10.346 -0.2416  0.6205  0.8765
  562MOL0     C74080   8.026   1.238  10.223  0.5805  0.1847 -0.3381
  562MOL0     C74081   7.890   1.181  10.222 -1.1075 -0.0778  0.9573
  562MOL0     O74082   7.817   1.174  10.341  0.2861 -0.1383 -0.1710
  562MOL0     C74083   7.717   1.080  10.344  0.3980 -0.4087 -0.7679
  562MOL0     C74084   7.746   0.954  10.382 -0.4480  0.5396 -0.1712
  562MOL0     C74085   7.645   0.864  10.423  0.6260  0.2484 -0.1296
  562MOL0     C74086   7.511   0.910  10.435 -0.9037 -0.0630 -0.7309
  562MOL0     O74087   7.416   0.826  10.465  0.0595 -0.2977  0.0830
  562MOL0     C74088   7.281   0.862  10.500  0.2338 -0.9415 -0.6491
  562MOL0     C74089   7.208   0.740  10.544 -0.0385 -0.0185 -0.6686
  562MOL0     C74090   7.065   0.781  10.596 -0.0173  0.6226  0.3843
  562MOL0     C74091   6.982   0.657  10.641 -0.3030 -0.4828 -0.1456
  562MOL0     C74092   6.844   0.694  10.689  0.0620  0.4276  1.1087
  562MOL0     C74093   6.743   0.574  10.685  0.2693  1.1438  0.0420
  562MOL0     C74094   6.605   0.628  10.736 -0.6023  0.3835  0.3828
  562MOL0     C74095   6.497   0.515  10.757 -0.7953  0.7259 -0.0735
  562MOL0    Cl74096   6.465   0.428  10.603 -0.3237  0.2594  0.1548
  562MOL0     C74097   7.485   1.044  10.394  0.7368  0.1076  1.1444
  562MOL0     C74098   7.583   1.125  10.339  0.4289  0.6050 -0.8203
  562MOL0     O74099   7.857   1.128  10.113  0.3436 -0.1477  0.1273
  562MOL0     C74100   8.109   1.260  10.109  0.0823 -0.1437  0.1098
  562MOL0     C74101   8.237   1.319  10.128  0.4238  0.9065 -0.0483
  562MOL0     N74102   8.727   1.811  10.494 -0.0292  0.3968 -0.2261
  562MOL0     N74103   8.782   1.907  10.560 -0.4659  0.2558  0.2115
  562MOL0     C74104   9.833   2.630  11.014  0.0097  0.9652  0.5844
  562MOL0     C74105   9.956   2.703  11.002 -0.0951 -0.6288 -0.4522
  562MOL0     C74106  10.325   2.884  10.788  0.3259  0.5032 -0.2162
  562MOL0     C74107  10.416   2.835  10.884 -0.1881  0.1518  0.0462
  562MOL0     C74108  10.551   2.882  10.885  0.0217  0.4191 -0.7565
  562MOL0     C74109  10.599   2.981  10.800  0.7924 -0.3043 -0.1592
  562MOL0     O74110  10.724   3.029  10.786  0.6611  0.1378  0.3349
  562MOL0     C74111  10.829   2.958  10.856 -0.3522  0.3603 -0.4479
  562MOL0     C74112  10.966   2.999  10.818  0.3824  0.5037 -0.1722
  562MOL0     C74113  11.001   2.955  10.679  0.0238  0.3780  0.7656
  562MOL0     C74114  10.919   3.016  10.568 -0.2100  0.7783  0.6313
  562MOL0     C74115  10.813   2.931  10.512  0.8479 -0.6742  0.5001
  562MOL0     C74116  10.724   2.856  10.475  0.0183 -0.3664 -0.4291
  562MOL0     C74117  10.506   3.035  10.711  0.8354 -0.1460  0.3958
  562MOL0     C74118  10.373   2.992  10.712  0.1505  0.4520  0.1147
  562MOL0     H74119  10.021   2.640  10.675  0.3070 -1.1958  0.8623
  562MOL0     H74120   9.819   2.506  10.698  2.0315 -1.2790  1.1673
  562MOL0     H74121   9.562   2.620  11.022 -1.8976  0.5491 -2.0901
  562MOL0     H74122   9.549   2.467  11.089 -1.0971  3.4234  1.7834
  562MOL0     H74123   9.455   2.575  10.814  1.3496  1.4864  1.0302
  562MOL0     H74124   9.350   2.553  10.951  0.6005 -0.2499 -0.1369
  562MOL0     H74125   9.378   2.309  10.948  1.7698  2.1940  2.0945
  562MOL0     H74126   9.477   2.331  10.804  0.6637 -0.2363  1.1723
  562MOL0     H74127   9.188   2.413  10.836  2.8537  3.4403  0.9093
  562MOL0     H74128   9.287   2.408  10.679 -0.5638 -0.3867 -0.7474
  562MOL0     H74129   9.224   2.145  10.821 -0.0080 -2.5533 -1.7341
  562MOL0     H74130   9.301   2.174  10.668 -0.7367  0.5933 -0.5869
  562MOL0     H74131   9.098   2.283  10.579  0.7146 -0.2436 -0.4422
  562MOL0     H74132   9.026   2.283  10.743 -0.4447 -1.6208  1.2557
  562MOL0     H74133   9.114   2.027  10.590  0.0740  0.3756 -1.0483
  562MOL0     H74134   8.983   2.038  10.710 -0.6802 -4.3926 -1.4980
  562MOL0     H74135   8.974   2.157  10.430  0.2033  0.9493  0.2858
  562MOL0     H74136   8.855   2.166  10.556  0.7293 -0.9905  1.7943
  562MOL0     H74137   8.915   1.934  10.270 -3.0989  1.3232 -0.4699
  562MOL0     H74138   8.808   1.630  10.239 -0.3200 -0.5804  0.3949
  562MOL0     H74139   8.734   1.782  10.174  1.7532  1.7332  2.0342
  562MOL0     H74140   8.564   1.614  10.193  1.4680  0.3191 -0.8477
  562MOL0     H74141   8.529   1.732  10.311  0.4157  0.6457 -2.2759
  562MOL0     H74142   8.684   1.467  10.366  1.9565 -0.2769  1.6997
  562MOL0     H74143   8.616   1.555  10.491 -2.1000 -0.8937 -1.2189
  562MOL0     H74144   8.390   1.524  10.444  0.8324 -0.8178  1.5588
  562MOL0     H74145   8.457   1.364  10.458  0.5048  1.7541  2.1827
  562MOL0     H74146   8.229   1.378  10.459 -1.5102  0.8622  0.5139
  562MOL0     H74147   8.010   1.284  10.436 -0.9235  1.5449  0.5102
  562MOL0     H74148   7.843   0.908  10.397 -2.1251 -3.0707  0.7189
  562MOL0     H74149   7.678   0.763  10.448 -1.0851 -0.6758 -1.4070
  562MOL0     H74150   7.223   0.896  10.414 -0.9240  0.2180  0.5615
  562MOL0     H74151   7.266   0.940  10.575 -0.3363 -0.6062 -1.1034
  562MOL0     H74152   7.258   0.682  10.622 -0.7328 -0.4952 -0.5701
  562MOL0     H74153   7.187   0.676  10.458 -2.1050 -0.4611  0.0962
  562MOL0     H74154   7.012   0.833  10.515  2.0426  0.2658 -1.2637
  562MOL0     H74155   7.071   0.850  10.681  1.8137 -0.2909  1.0395
  562MOL0     H74156   6.979   0.586  10.558 -0.8572 -1.3959  0.6290
  562MOL0     H74157   7.039   0.603  10.717 -2.3448 -0.4341  1.5329
  562MOL0     H74158   6.798   0.762  10.617 -2.2013 -2.8065 -0.7299
  562MOL0     H74159   6.848   0.745  10.786  1.2244  1.6583  0.4519
  562MOL0     H74160   6.776   0.500  10.759 -0.6377  0.6622 -0.0256
  562MOL0     H74161   6.737   0.526  10.587 -3.1619  1.2346  0.1180
  562MOL0     H74162   6.618   0.685  10.828 -2.2641  1.6294 -0.1000
  562MOL0     H74163   6.560   0.698  10.664 -0.3960  0.8620  0.7181
  562MOL0     H74164   6.400   0.552  10.792 -1.0320  0.3978 -0.3847
  562MOL0     H74165   6.528   0.449  10.839  2.2538  4.2796  1.9694
  562MOL0     H74166   7.381   1.074  10.385  0.6373 -0.4769  0.1619
  562MOL0     H74167   7.545   1.225  10.320 -2.3435 -0.3287 -0.5614
  562MOL0     H74168   8.070   1.232  10.011 -0.9201 -0.6471  0.6412
  562MOL0     H74169   8.306   1.333  10.045  0.8375  1.0951  0.3178
  562MOL0     H74170   9.784   2.646  11.110  1.5619 -0.9681  1.7912
  562MOL0     H74171   9.989   2.765  11.084  1.7694 -3.4981  1.1685
  562MOL0     H74172  10.385   2.756  10.951 -1.2677  1.1199  0.7367
  562MOL0     H74173  10.626   2.836  10.949  2.1667  0.6759 -2.9310
  562MOL0     H74174  10.814   2.852  10.835 -0.9131  0.5954 -1.2912
  562MOL0     H74175  10.825   2.975  10.964 -1.4551  1.0479 -0.5839
  562MOL0     H74176  10.986   3.107  10.817  0.3833  0.5548  1.5955
  562MOL0     H74177  11.043   2.970  10.890  0.0530  0.8848  0.3468
  562MOL0     H74178  10.990   2.847  10.666 -0.0347  0.6472 -2.0264
  562MOL0     H74179  11.107   2.976  10.665  1.2390 -1.5092  5.2953
  562MOL0     H74180  10.879   3.111  10.605 -1.7485  0.2784  0.3388
  562MOL0     H74181  10.978   3.044  10.480  0.4336  0.2852  0.8977
  562MOL0     H74182  10.631   2.807  10.455  0.2174 -1.1051  0.3960
  562MOL0     H74183  10.543   3.102  10.634  1.7017  0.5475  1.3793
  562MOL0     H74184  10.299   3.045  10.653  1.9997 -1.3755 -4.3084
  563MOL0     O74185   4.135   7.329  10.709  0.0181  0.4546  0.4184
  563MOL0     C74186   4.120   7.271  10.602  0.7963 -0.7431  0.2415
  563MOL0     O74187   4.224   7.220  10.524 -1.1380 -0.2134 -0.0418
  563MOL0     C74188   4.359   7.247  10.543 -0.2848  0.6121  0.4395
  563MOL0     C74189   4.411   7.364  10.602 -0.3478  0.3739 -0.2397
  563MOL0     C74190   4.550   7.383  10.622  0.1251  0.1165  0.8412
  563MOL0     C74191   4.646   7.291  10.565  0.3775 -0.1806  0.2841
  563MOL0     O74192   4.783   7.310  10.571  0.4651 -0.8513 -0.3856
  563MOL0     C74193   4.853   7.260  10.683 -0.0180 -0.1117  0.0704
  563MOL0     C74194   4.926   7.131  10.648  0.2240 -0.7090 -0.6971
  563MOL0     C74195   5.006   7.142  10.515 -0.4904  0.1871  0.0396
  563MOL0     C74196   5.097   7.015  10.503  0.0964  0.5697  0.2954
  563MOL0     C74197   5.199   7.022  10.386  0.1172 -0.1907 -0.9895
  563MOL0     C74198   5.135   7.062  10.256  0.2207 -0.8682 -1.2963
  563MOL0     C74199   5.239   7.069  10.148  0.3074 -0.2045  0.0542
  563MOL0     C74200   5.207   7.183  10.054  0.3197  0.2031  0.1788
  563MOL0     N74201   5.073   7.192   9.991  0.2502 -0.1009 -0.3712
  563MOL0     C74202   4.984   7.281  10.041  0.8279  1.1317  0.2319
  563MOL0     C74203   4.864   7.239   9.998  0.2218  0.1216  0.5910
  563MOL0     C74204   4.726   7.300  10.041 -0.6645  0.3733 -0.2280
  563MOL0     C74205   4.686   7.230  10.175 -0.2832 -0.0028  0.0850
  563MOL0     C74206   4.641   7.083  10.148 -0.9731 -0.1783 -0.8694
  563MOL0     C74207   4.517   7.082  10.058  0.7435  0.5307 -0.8033
  563MOL0     O74208   4.409   7.154  10.117  0.4522 -0.0495 -0.4870
  563MOL0     C74209   4.289   7.146  10.059 -0.0049 -0.2435  0.6274
  563MOL0     C74210   4.281   7.128   9.918  0.9980 -0.2131 -0.8635
  563MOL0     C74211   4.150   7.129   9.856 -0.5094 -0.0987 -0.3281
  563MOL0     C74212   4.030   7.148   9.928  0.8185  0.0837 -0.0504
  563MOL0     C74213   3.898   7.149   9.865  0.5379 -0.0820  0.3702
  563MOL0     O74214   3.896   7.101   9.727 -0.0406  0.6721 -0.2592
  563MOL0     C74215   3.773   7.080   9.691  0.6034  0.6755 -0.5886
  563MOL0     C74216   3.698   6.974   9.757 -0.2715 -0.3818  0.2377
  563MOL0     C74217   3.575   6.938   9.703 -0.1012  0.2570  0.0216
  563MOL0     C74218   3.526   6.996   9.579 -0.2543  0.0388  0.1602
  563MOL0     O74219   3.421   6.960   9.502 -0.3907 -0.8892  0.3254
  563MOL0     C74220   3.334   6.860   9.563  0.4365  0.5518  0.1609
  563MOL0     C74221   3.210   6.807   9.485  0.0108  0.5534 -0.5811
  563MOL0     C74222   3.092   6.774   9.573 -0.0799 -0.1415 -0.4813
  563MOL0     C74223   2.989   6.720   9.476  0.3073  0.2117 -0.1886
  563MOL0     C74224   2.884   6.637   9.560 -0.7432  0.0780 -0.1658
  563MOL0     C74225   2.789   6.722   9.640 -0.1693 -0.2630  0.5670
  563MOL0     C74226   2.700   6.636   9.735 -0.6302  0.2713  0.3069
  563MOL0     C74227   2.788   6.546   9.830  0.1943 -0.9130 -0.0760
  563MOL0    Cl74228   2.917   6.647   9.904 -0.6198  0.0843 -0.2136
  563MOL0     C74229   3.597   7.109   9.534 -0.2151  0.6135 -0.2351
  563MOL0     C74230   3.722   7.147   9.579  0.2498  1.0414 -0.1720
  563MOL0     O74231   3.797   7.183   9.934 -0.7874 -0.2020  0.2017
  563MOL0     C74232   4.048   7.168  10.069  0.3459 -1.0796  0.0211
  563MOL0     C74233   4.178   7.177  10.124 -0.0397 -0.2837 -0.3482
  563MOL0     N74234   4.881   7.125   9.926 -0.2880  0.0544  0.0151
  563MOL0     N74235   5.003   7.093   9.923  0.9361  0.2443  0.1722
  563MOL0     C74236   4.594   7.178  10.499  0.4062  0.2531  0.1350
  563MOL0     C74237   4.458   7.152  10.493 -0.4845  0.6346 -0.7332
  563MOL0     C74238   3.987   7.247  10.553  0.3773  0.7350 -0.5139
  563MOL0     C74239   3.966   7.139  10.465  0.6234 -0.2509 -0.4427
  563MOL0     C74240   3.835   7.124  10.415  0.4058  0.0960 -0.6494
  563MOL0     C74241   3.731   7.208  10.457 -0.1106 -0.0945 -0.5099
  563MOL0     O74242   3.598   7.189  10.441  0.2970  0.1565 -0.1278
  563MOL0     C74243   3.551   7.055  10.455 -0.0999  0.1254  0.9901
  563MOL0     C74244   3.534   7.012  10.604  0.7577 -0.3492 -0.5924
  563MOL0     C74245   3.466   6.870  10.624 -0.2694  0.4297  0.1647
  563MOL0     C74246   3.315   6.866  10.613  0.0761 -0.4881 -0.7773
  563MOL0     C74247   3.260   6.738  10.651 -0.1446 -0.3298 -0.1538
  563MOL0     C74248   3.199   6.640  10.687  0.2424  0.3994  0.2031
  563MOL0     C74249   3.754   7.321  10.541 -0.0093  1.0009  0.0976
  563MOL0     C74250   3.883   7.341  10.592 -0.2009 -0.4183 -0.4271
  563MOL0     H74251   4.335   7.437  10.628  0.0361  0.5010  0.5661
  563MOL0     H74252   4.589   7.465  10.682  1.7154 -0.4228  0.5837
  563MOL0     H74253   4.794   7.256  10.775  0.9366 -1.6180  0.6632
  563MOL0     H74254   4.930   7.335  10.701  0.9046 -0.6825 -1.3093
  563MOL0     H74255   4.848   7.056  10.626 -1.9985  1.1611  0.3720
  563MOL0     H74256   4.987   7.104  10.734 -1.5885 -0.0478  0.8817
  563MOL0     H74257   5.067   7.233  10.510 -1.6915  1.0705  0.8745
  563MOL0     H74258   4.935   7.141  10.431  0.6716  1.5756 -1.0124
  563MOL0     H74259   5.148   6.991  10.597 -3.3036  1.9274  2.6672
  563MOL0     H74260   5.033   6.929  10.485  0.4023  0.4957 -0.4701
  563MOL0     H74261   5.257   6.929  10.382 -2.2808 -1.8727  0.5589
  563MOL0     H74262   5.273   7.102  10.399  0.6885 -0.4761 -2.3344
  563MOL0     H74263   5.078   7.156  10.260 -1.5347 -1.9257 -0.0556
  563MOL0     H74264   5.066   6.982  10.229  2.7748 -4.8855  2.8520
  563MOL0     H74265   5.345   7.069  10.173  0.5867 -0.7375 -1.0975
  563MOL0     H74266   5.225   6.978  10.090 -2.8344  0.0774  0.2017
  563MOL0     H74267   5.278   7.167   9.973 -1.9993 -4.6048 -1.2916
  563MOL0     H74268   5.214   7.277  10.111 -0.2491 -0.0682  0.7152
  563MOL0     H74269   5.001   7.355  10.118 -0.3435 -0.9202  2.6283
  563MOL0     H74270   4.656   7.282   9.959  0.8051  1.2173 -1.7502
  563MOL0     H74271   4.731   7.409  10.047  0.7299  0.5193 -2.6466
  563MOL0     H74272   4.599   7.275  10.224  2.5183  1.8870  3.7790
  563MOL0     H74273   4.763   7.248  10.250  0.9916  1.4790 -1.4812
  563MOL0     H74274   4.720   7.020  10.107 -0.7736  0.3344 -1.2969
  563MOL0     H74275   4.617   7.040  10.245  4.9963 -0.9578  0.6482
  563MOL0     H74276   4.487   6.978  10.037  0.7481 -0.4116  3.1017
  563MOL0     H74277   4.546   7.121   9.960  3.1317 -0.3113 -0.4987
  563MOL0     H74278   4.366   7.108   9.854  0.5366 -0.2620 -1.4693
  563MOL0     H74279   4.148   7.121   9.748  3.5851  1.8068 -0.7233
  563MOL0     H74280   3.735   6.911   9.837  0.5314 -5.3706 -3.5559
  563MOL0     H74281   3.521   6.861   9.757  1.1660  0.8494  2.2981
  563MOL0     H74282   3.303   6.905   9.658  1.8064  0.8505  0.4831
  563MOL0     H74283   3.398   6.776   9.593  0.7736  0.9040  0.4545
  563MOL0     H74284   3.239   6.713   9.436 -1.5608  0.9285 -2.3257
  563MOL0     H74285   3.178   6.879   9.410  0.9292 -0.1419 -1.6593
  563MOL0     H74286   3.049   6.857   9.629  1.2916  0.2259  0.0838
  563MOL0     H74287   3.119   6.699   9.647  1.4307 -0.2690 -1.1177
  563MOL0     H74288   2.941   6.808   9.432 -0.3768 -1.5116 -3.1799
  563MOL0     H74289   3.029   6.667   9.390  0.0698  2.3707 -1.7259
  563MOL0     H74290   2.934   6.559   9.617 -1.2851 -0.0980  0.0776
  563MOL0     H74291   2.823   6.585   9.485 -1.3870 -2.2948  1.8678
  563MOL0     H74292   2.721   6.774   9.573 -1.8108 -1.2007  1.4237
  563MOL0     H74293   2.840   6.796   9.702 -0.1691 -1.7590  2.4400
  563MOL0     H74294   2.650   6.708   9.799  0.7360  0.1494  1.5552
  563MOL0     H74295   2.630   6.571   9.681 -0.2551  1.5354 -1.8314
  563MOL0     H74296   2.822   6.454   9.783  0.0780 -1.3978  0.7529
  563MOL0     H74297   2.730   6.507   9.915 -3.1758 -0.0489 -1.7885
  563MOL0     H74298   3.561   7.168   9.450  0.9562 -0.8781 -1.8534
  563MOL0     H74299   3.777   7.228   9.531  1.1368  1.3457  1.2915
  563MOL0     H74300   3.959   7.187  10.128 -0.5921 -1.4651 -1.2383
  563MOL0     H74301   4.175   7.204  10.229 -0.6149 -1.8228  0.0676
  563MOL0     H74302   4.658   7.101  10.458 -1.4404 -0.7251 -1.0472
  563MOL0     H74303   4.424   7.059  10.448  1.2180 -1.2379  1.6079
  563MOL0     H74304   4.038   7.068  10.426 -0.8091 -1.9883 -0.0697
  563MOL0     H74305   3.807   7.052  10.339  0.7820 -0.2857 -0.4325
  563MOL0     H74306   3.619   6.991  10.398  0.5713 -0.6809  2.6254
  563MOL0     H74307   3.456   7.049  10.401  0.3601 -1.5865  0.3041
  563MOL0     H74308   3.631   7.020  10.656 -0.6334 -1.0889  2.3561
  563MOL0     H74309   3.482   7.087  10.665  2.6249  2.4306 -2.2141
  563MOL0     H74310   3.491   6.834  10.724 -1.0151 -2.9974 -0.7464
  563MOL0     H74311   3.520   6.790  10.572  1.7139  1.9492 -0.2326
  563MOL0     H74312   3.284   6.944  10.683  2.0800 -2.5414  2.6402
  563MOL0     H74313   3.290   6.897  10.510  0.8027 -1.7906 -1.3635
  563MOL0     H74314   3.142   6.559  10.726  0.1287  0.1374 -0.4873
  563MOL0     H74315   3.674   7.391  10.562 -0.0174  0.8064  0.7584
  563MOL0     H74316   3.904   7.427  10.654 -1.1943 -0.7381  0.3753
  564MOL0     O74317   1.138   3.381   2.092  0.2075 -0.7376 -0.4581
  564MOL0     C74318   1.209   3.389   2.193 -0.2053 -0.4613  0.1694
  564MOL0     O74319   1.179   3.441   2.309  0.8592  0.3823 -0.2886
  564MOL0     C74320   1.057   3.480   2.360  0.3741  0.5375  0.0724
  564MOL0     C74321   0.940   3.428   2.307 -0.0407  0.3869  0.5559
  564MOL0     C74322   0.831   3.483   2.367  0.9260 -0.0985 -0.6457
  564MOL0     C74323   0.817   3.577   2.472 -0.2335  1.2364 -0.3440
  564MOL0     O74324   0.697   3.620   2.528  0.2960  0.3604 -0.1754
  564MOL0     C74325   0.617   3.688   2.434 -0.6482 -0.2160 -0.4480
  564MOL0     C74326   0.504   3.770   2.494  0.2116  0.1952 -0.0247
  564MOL0     C74327   0.393   3.680   2.543 -0.0093 -0.7183 -0.3013
  564MOL0     C74328   0.318   3.735   2.661  0.6373  0.6029  0.0416
  564MOL0     C74329   0.183   3.652   2.680  0.4175  0.5045 -1.1372
  564MOL0     C74330   0.183   3.497   2.684 -0.1521  0.0650  0.3118
  564MOL0     C74331   0.040   3.439   2.717  1.3193  0.3357 -1.1470
  564MOL0     C74332   0.020   3.284   2.698  0.6988 -0.0204 -0.5395
  564MOL0     N74333  -0.122   3.252   2.704  0.7683  0.4976 -0.4718
  564MOL0     C74334  -0.196   3.223   2.588 -0.0597 -0.2579  0.3015
  564MOL0     C74335  -0.317   3.168   2.626  0.6981  0.1032 -0.5771
  564MOL0     C74336  -0.427   3.097   2.553 -0.8286  0.2857 -0.0653
  564MOL0     C74337  -0.438   3.145   2.406 -0.4423  0.4783 -0.4190
  564MOL0     C74338  -0.584   3.099   2.352  0.2100 -0.3849  0.4034
  564MOL0     C74339  -0.599   3.168   2.214  0.3485 -0.5464 -0.4512
  564MOL0     O74340  -0.717   3.127   2.154  0.3951  0.4750 -0.4572
  564MOL0     C74341  -0.833   3.198   2.159  0.4809  0.2261 -0.1036
  564MOL0     C74342  -0.859   3.305   2.233 -0.6732  0.7779 -0.3718
  564MOL0     C74343  -0.984   3.363   2.222 -0.2520 -0.0573 -0.2519
  564MOL0     C74344  -1.089   3.314   2.145  0.2633  0.2999  0.6348
  564MOL0     C74345  -1.221   3.382   2.134  0.7467 -0.1680  0.1768
  564MOL0     O74346  -1.234   3.498   2.209  0.2904  0.5661 -0.1444
  564MOL0     C74347  -1.360   3.555   2.211 -0.2094  0.2119  0.6191
  564MOL0     C74348  -1.411   3.632   2.106  0.1873 -0.6476  0.1403
  564MOL0     C74349  -1.546   3.680   2.111  0.4568 -0.3622  0.8646
  564MOL0     C74350  -1.631   3.667   2.225 -0.4152 -0.8384  1.2255
  564MOL0     O74351  -1.739   3.755   2.235  0.1690  0.7802 -0.7133
  564MOL0     C74352  -1.860   3.697   2.288 -0.4227  0.4592  0.4964
  564MOL0     C74353  -1.891   3.772   2.421 -0.7999 -0.2149 -1.1652
  564MOL0     C74354  -1.944   3.917   2.400 -0.1528  1.1805 -0.8611
  564MOL0     C74355  -2.055   3.919   2.301 -0.4415  0.3388  0.1931
  564MOL0     C74356  -2.125   4.054   2.298  0.8056 -0.0283  0.5795
  564MOL0     C74357  -2.217   4.065   2.177 -0.2551  0.5187  0.9258
  564MOL0     C74358  -2.283   4.200   2.186 -0.0780 -0.3002  0.4793
  564MOL0     C74359  -2.417   4.168   2.261  0.1653  0.3921  0.1853
  564MOL0    Cl74360  -2.522   4.040   2.183 -0.4022 -0.1615  0.5541
  564MOL0     C74361  -1.581   3.587   2.325 -1.0793 -0.3100 -0.3777
  564MOL0     C74362  -1.448   3.531   2.318 -0.0688 -0.1768 -0.4323
  564MOL0     O74363  -1.302   3.324   2.066 -0.3057  0.0174 -0.0129
  564MOL0     C74364  -1.059   3.202   2.057  0.1780  0.3583 -0.6438
  564MOL0     C74365  -0.932   3.143   2.069  0.4196  0.6676 -0.1033
  564MOL0     N74366  -0.310   3.188   2.764 -0.4766 -0.1171 -0.2124
  564MOL0     N74367  -0.199   3.242   2.816 -0.5377 -0.7138  0.7182
  564MOL0     C74368   0.943   3.613   2.525  0.3771  0.4583  0.0174
  564MOL0     C74369   1.056   3.565   2.466 -0.1567  0.1502 -0.7078
  564MOL0     C74370   1.343   3.327   2.183 -0.0290  0.0710  0.1919
  564MOL0     C74371   1.388   3.234   2.086  0.0671 -0.4911 -0.5624
  564MOL0     C74372   1.514   3.173   2.083  0.2168  0.2367  0.1396
  564MOL0     C74373   1.611   3.212   2.183 -0.7484 -0.6019  0.6538
  564MOL0     O74374   1.738   3.166   2.190  0.5253  0.1095 -0.4912
  564MOL0     C74375   1.765   3.101   2.313 -0.2168  0.8383 -0.4970
  564MOL0     C74376   1.726   2.958   2.289 -0.5043  0.2086 -1.0422
  564MOL0     C74377   1.806   2.890   2.177  1.1851  0.3636  0.1520
  564MOL0     C74378   1.828   2.741   2.194 -0.3023 -0.4408  0.1931
  564MOL0     C74379   1.696   2.675   2.202  0.5166  1.1949  0.1641
  564MOL0     C74380   1.582   2.632   2.192  0.1430 -0.9614  0.6140
  564MOL0     C74381   1.575   3.319   2.264  0.0416  0.6233 -0.2159
  564MOL0     C74382   1.445   3.361   2.270  0.5880  0.4136  0.0805
  564MOL0     H74383   0.936   3.346   2.237 -3.2657 -1.6881  2.8908
  564MOL0     H74384   0.737   3.450   2.324  0.7721  1.4263 -1.5756
  564MOL0     H74385   0.583   3.613   2.362 -2.1400 -1.8677  1.8130
  564MOL0     H74386   0.685   3.750   2.377  1.1409 -0.8839  0.8497
  564MOL0     H74387   0.477   3.837   2.411  1.2412  0.6687  0.0030
  564MOL0     H74388   0.532   3.832   2.580  0.1923  0.5194 -0.2486
  564MOL0     H74389   0.430   3.581   2.570  0.9114  0.2720  2.4391
  564MOL0     H74390   0.331   3.666   2.454  0.4543  0.0874 -0.7646
  564MOL0     H74391   0.384   3.718   2.747  0.6933  1.5943  0.2072
  564MOL0     H74392   0.296   3.842   2.653 -0.4202  0.3864 -0.1988
  564MOL0     H74393   0.116   3.669   2.595  1.0386  0.1457 -1.7184
  564MOL0     H74394   0.144   3.683   2.777 -2.1457  0.2139 -1.9955
  564MOL0     H74395   0.250   3.467   2.765 -0.6728 -2.3379 -0.0765
  564MOL0     H74396   0.222   3.460   2.589  1.2078  3.4663 -0.5923
  564MOL0     H74397   0.021   3.456   2.823  0.8914 -0.6225 -1.0594
  564MOL0     H74398  -0.037   3.500   2.669  1.7085  0.0858 -2.1045
  564MOL0     H74399   0.072   3.222   2.772 -0.4165 -0.2360  0.0852
  564MOL0     H74400   0.050   3.249   2.599 -3.3668  0.5706 -2.1892
  564MOL0     H74401  -0.146   3.211   2.493  4.0501  3.2026  1.7190
  564MOL0     H74402  -0.525   3.129   2.589 -1.0742 -0.5932  0.0707
  564MOL0     H74403  -0.413   2.989   2.553 -0.9127  0.2748  0.1407
  564MOL0     H74404  -0.358   3.099   2.347  1.0571  3.3905 -0.8257
  564MOL0     H74405  -0.431   3.253   2.390  3.3538  0.2346 -1.3607
  564MOL0     H74406  -0.579   2.990   2.341 -0.0469 -0.6569  2.5128
  564MOL0     H74407  -0.668   3.127   2.416 -0.0574  0.1312 -0.1661
  564MOL0     H74408  -0.518   3.131   2.151  1.1120  4.4161 -2.9425
  564MOL0     H74409  -0.581   3.276   2.221  2.8309 -1.0075  1.2422
  564MOL0     H74410  -0.786   3.340   2.306 -3.4621  1.2371  2.4104
  564MOL0     H74411  -0.991   3.457   2.275  2.5704  0.1379 -0.1152
  564MOL0     H74412  -1.335   3.639   2.028  1.9434 -1.5629  1.6921
  564MOL0     H74413  -1.571   3.728   2.017  0.8670 -0.6439  0.6038
  564MOL0     H74414  -1.841   3.592   2.312 -1.5204 -0.3074 -1.7089
  564MOL0     H74415  -1.946   3.700   2.221 -1.4707  1.3958  1.8447
  564MOL0     H74416  -1.800   3.784   2.480 -1.4661 -1.6809  0.2379
  564MOL0     H74417  -1.960   3.725   2.492 -0.1662 -1.5889 -1.4267
  564MOL0     H74418  -1.860   3.985   2.380 -0.2378  1.0404 -1.6925
  564MOL0     H74419  -1.985   3.959   2.493  1.6143  0.9811  0.0609
  564MOL0     H74420  -2.018   3.901   2.200  0.9067  0.1528  0.6914
  564MOL0     H74421  -2.127   3.844   2.335 -0.7351  0.6200  0.1954
  564MOL0     H74422  -2.051   4.133   2.286 -2.8003  3.4404 -1.1433
  564MOL0     H74423  -2.177   4.060   2.394  1.0393  2.1575  0.6167
  564MOL0     H74424  -2.287   3.980   2.174 -2.8145  2.4890  1.5096
  564MOL0     H74425  -2.151   4.067   2.089 -1.1239  1.8057  0.2794
  564MOL0     H74426  -2.227   4.269   2.250  0.7118 -0.6711  0.1952
  564MOL0     H74427  -2.305   4.244   2.088  0.7146 -0.8871  0.0232
  564MOL0     H74428  -2.465   4.264   2.283 -2.3704  0.0658 -3.2067
  564MOL0     H74429  -2.377   4.125   2.353  3.4075  1.7966 -0.4505
  564MOL0     H74430  -1.638   3.572   2.416 -2.5888 -1.8101 -1.5031
  564MOL0     H74431  -1.404   3.477   2.401 -0.4175  1.7582  1.0855
  564MOL0     H74432  -1.134   3.165   1.988 -0.2519  0.5665 -0.2913
  564MOL0     H74433  -0.905   3.049   2.022 -0.9663  1.0611 -1.7634
  564MOL0     H74434   0.955   3.670   2.617  1.7775 -1.2817  0.9855
  564MOL0     H74435   1.155   3.596   2.499 -1.1542  0.9705  1.7426
  564MOL0     H74436   1.316   3.206   2.009  1.1428  1.3373 -2.3495
  564MOL0     H74437   1.544   3.093   2.016  1.6319  0.2744  0.6933
  564MOL0     H74438   1.712   3.143   2.398 -0.6891  1.2218 -0.9764
  564MOL0     H74439   1.873   3.103   2.333  0.2011 -1.2876 -2.0922
  564MOL0     H74440   1.751   2.897   2.376 -0.9160 -1.6012 -2.1273
  564MOL0     H74441   1.621   2.953   2.259 -0.7769 -0.3243 -0.0475
  564MOL0     H74442   1.908   2.927   2.164  0.9139  0.5721 -1.6888
  564MOL0     H74443   1.739   2.911   2.093 -2.2166 -0.4766  2.4761
  564MOL0     H74444   1.886   2.702   2.110 -0.4687  1.5868 -0.9185
  564MOL0     H74445   1.891   2.727   2.282 -1.1395 -0.7864  0.7504
  564MOL0     H74446   1.483   2.598   2.169  0.8911 -1.7683 -1.6275
  564MOL0     H74447   1.642   3.368   2.335 -0.9526  1.7522 -0.0235
  564MOL0     H74448   1.426   3.428   2.354  2.3622 -0.6817  1.4307
  565MOL0     O74449   9.842   2.147   6.726  0.3376 -0.5460 -0.2029
  565MOL0     C74450   9.850   2.240   6.810 -0.1171 -0.8014 -0.2111
  565MOL0     O74451   9.765   2.265   6.910  0.4529  0.2581 -0.2159
  565MOL0     C74452   9.653   2.191   6.925  0.4215 -0.6048  0.2842
  565MOL0     C74453   9.644   2.062   6.984 -0.2251 -0.0667  0.9550
  565MOL0     C74454   9.506   2.012   6.992  0.7942  0.8388 -1.2633
  565MOL0     C74455   9.393   2.087   6.953  0.9111 -0.2416  0.2525
  565MOL0     O74456   9.267   2.031   6.968  0.3208 -0.5049  0.3947
  565MOL0     C74457   9.203   2.067   7.087 -0.1157 -0.1976  0.0906
  565MOL0     C74458   9.125   2.195   7.075  0.9888  0.0947 -0.8736
  565MOL0     C74459   9.083   2.227   7.216  0.1940 -1.0029 -0.3012
  565MOL0     C74460   8.961   2.152   7.245 -0.8641  0.0872  0.7122
  565MOL0     C74461   8.885   2.199   7.372 -0.5532 -0.6283  0.2951
  565MOL0     C74462   8.758   2.111   7.387 -0.6277  0.6408 -0.4188
  565MOL0     C74463   8.700   2.127   7.529 -0.3775 -0.5162 -0.1396
  565MOL0     C74464   8.584   2.038   7.561 -0.3947  0.9075  0.0599
  565MOL0     N74465   8.478   2.038   7.463  0.0020 -1.3228  0.2456
  565MOL0     C74466   8.382   2.140   7.445  0.0540 -0.3257 -0.3724
  565MOL0     C74467   8.298   2.097   7.356 -0.3314 -0.0388 -0.7771
  565MOL0     C74468   8.182   2.166   7.295  0.3249  0.8374  0.7038
  565MOL0     C74469   8.053   2.129   7.376  0.1388  0.6085  0.6320
  565MOL0     C74470   8.057   2.190   7.516  0.3171 -0.5938 -0.7125
  565MOL0     C74471   7.921   2.180   7.582 -0.3550 -0.3309  0.9331
  565MOL0     O74472   7.933   2.232   7.715  0.2096  0.3217 -0.1674
  565MOL0     C74473   7.812   2.269   7.773 -0.5395 -0.0081 -0.0364
  565MOL0     C74474   7.685   2.228   7.727 -0.0718  0.3616  0.4124
  565MOL0     C74475   7.570   2.285   7.784 -0.0917  0.3530  0.2067
  565MOL0     C74476   7.570   2.374   7.891 -0.5125  0.0902  1.0304
  565MOL0     C74477   7.448   2.426   7.956 -0.3915 -0.0115  0.1498
  565MOL0     O74478   7.329   2.389   7.906 -0.3948  0.3237 -0.8296
  565MOL0     C74479   7.226   2.396   7.995  0.4561 -0.2407 -0.7926
  565MOL0     C74480   7.219   2.322   8.117  0.3259 -0.2100  0.0306
  565MOL0     C74481   7.105   2.326   8.198 -1.0299 -0.5150 -0.1444
  565MOL0     C74482   6.997   2.418   8.170 -0.3484  1.1239  1.8328
  565MOL0     O74483   6.884   2.404   8.243 -0.3858  0.0342 -0.0460
  565MOL0     C74484   6.789   2.516   8.254 -0.6240  0.2782  0.7975
  565MOL0     C74485   6.697   2.498   8.371  0.2430 -0.2614  0.7630
  565MOL0     C74486   6.766   2.503   8.505  0.2143  0.6681 -0.0911
  565MOL0     C74487   6.844   2.367   8.533 -0.0159 -0.5815  1.0860
  565MOL0     C74488   6.866   2.340   8.679 -1.0055 -0.4325 -0.3787
  565MOL0     C74489   6.971   2.449   8.719  0.8962  0.3240 -0.4177
  565MOL0     C74490   7.045   2.405   8.846  0.1747  0.3553 -1.4650
  565MOL0     C74491   7.119   2.519   8.927 -0.5342 -0.1589  0.2858
  565MOL0    Cl74492   6.988   2.625   8.984 -0.0297  0.0017  0.4941
  565MOL0     C74493   6.993   2.471   8.041  0.8193  0.7306  0.5374
  565MOL0     C74494   7.105   2.460   7.959 -0.2145  0.2879  0.1759
  565MOL0     O74495   7.462   2.491   8.060 -0.1579 -0.1738 -0.0285
  565MOL0     C74496   7.699   2.410   7.938 -0.4737  0.1685 -0.3389
  565MOL0     C74497   7.820   2.359   7.882 -0.0895 -1.2195  0.2596
  565MOL0     N74498   8.338   1.975   7.308  0.5507 -0.0718  0.6942
  565MOL0     N74499   8.448   1.940   7.371  0.0281  0.6240 -0.0661
  565MOL0     C74500   9.407   2.212   6.897 -0.9769 -0.5907  0.0064
  565MOL0     C74501   9.542   2.258   6.886  0.2581 -0.0756  0.5683
  565MOL0     C74502   9.963   2.340   6.795  0.5783  0.0387  0.0621
  565MOL0     C74503   9.960   2.449   6.865 -0.1453 -0.3275 -1.3240
  565MOL0     C74504  10.060   2.545   6.855 -0.1197  1.0054 -0.2450
  565MOL0     C74505  10.159   2.538   6.755 -0.6809 -0.5533 -0.0899
  565MOL0     O74506  10.239   2.647   6.718  0.3990 -0.0329  0.2875
  565MOL0     C74507  10.256   2.754   6.808 -0.2813 -0.2439 -0.5587
  565MOL0     C74508  10.386   2.819   6.748  0.9031 -0.0735  0.2850
  565MOL0     C74509  10.511   2.734   6.787  0.2874 -0.1354  0.3755
  565MOL0     C74510  10.631   2.818   6.774 -0.3991  0.0013  0.3192
  565MOL0     C74511  10.747   2.743   6.797  0.6989 -0.7293 -0.2014
  565MOL0     C74512  10.855   2.693   6.816 -0.2959 -0.2606 -0.6627
  565MOL0     C74513  10.152   2.438   6.662  0.7014 -0.2407 -0.0465
  565MOL0     C74514  10.056   2.330   6.688 -0.6752 -0.5482  0.6625
  565MOL0     H74515   9.722   2.001   7.027 -0.8163 -0.1061  2.0267
  565MOL0     H74516   9.511   1.916   7.043 -2.1513  1.3314  0.2064
  565MOL0     H74517   9.273   2.067   7.172 -1.7646 -3.8009  1.6864
  565MOL0     H74518   9.131   1.989   7.114 -0.6353  0.4187  0.5150
  565MOL0     H74519   9.037   2.197   7.011  1.2539 -0.5693 -1.2713
  565MOL0     H74520   9.195   2.266   7.030  1.6060  0.7938  1.0797
  565MOL0     H74521   9.075   2.336   7.219  3.5341 -0.5989 -1.5851
  565MOL0     H74522   9.165   2.222   7.288 -0.2472 -2.0314  0.1496
  565MOL0     H74523   8.891   2.166   7.162 -2.1658 -2.1709  1.3528
  565MOL0     H74524   8.989   2.047   7.250 -0.8135  0.0808  0.3253
  565MOL0     H74525   8.851   2.302   7.356 -0.5205 -0.9030 -1.8404
  565MOL0     H74526   8.948   2.184   7.460  0.1663  2.0065  0.3014
  565MOL0     H74527   8.801   2.011   7.370  0.8458  0.8282  1.7536
  565MOL0     H74528   8.683   2.143   7.315  0.2377  0.3113 -1.4923
  565MOL0     H74529   8.776   2.111   7.607 -3.0850 -0.7562  2.6647
  565MOL0     H74530   8.669   2.232   7.532 -2.6174 -1.1119 -1.0091
  565MOL0     H74531   8.536   2.062   7.656 -0.1072  0.5582  0.2997
  565MOL0     H74532   8.620   1.934   7.566  1.6652  1.4232 -2.0814
  565MOL0     H74533   8.385   2.239   7.490  2.8312  0.8411 -2.7536
  565MOL0     H74534   8.168   2.120   7.197 -1.8633  0.1874  1.2692
  565MOL0     H74535   8.204   2.273   7.305  0.1092  0.9563 -0.0706
  565MOL0     H74536   8.057   2.020   7.390 -0.6768  0.5717  0.6659
  565MOL0     H74537   7.958   2.151   7.325 -2.1273 -3.0592  2.7770
  565MOL0     H74538   8.127   2.135   7.580  0.2853 -0.8668 -0.9111
  565MOL0     H74539   8.079   2.297   7.519  1.2800 -0.7703  2.6799
  565MOL0     H74540   7.891   2.075   7.576  0.1713 -0.4576  0.4124
  565MOL0     H74541   7.843   2.229   7.523 -2.2050 -1.6500  2.1699
  565MOL0     H74542   7.677   2.157   7.645  1.6030  0.8066 -0.1918
  565MOL0     H74543   7.472   2.250   7.750 -0.7493  1.7249  0.6356
  565MOL0     H74544   7.308   2.268   8.148  1.8078  2.9750  1.7199
  565MOL0     H74545   7.091   2.259   8.282  0.2677  0.5145  0.9255
  565MOL0     H74546   6.732   2.524   8.161 -1.7489  3.5180  1.6234
  565MOL0     H74547   6.843   2.608   8.280  1.5101 -0.9036  0.7677
  565MOL0     H74548   6.648   2.403   8.347 -1.5434  0.1182  2.6771
  565MOL0     H74549   6.630   2.584   8.361  1.7310  0.8659  0.0545
  565MOL0     H74550   6.691   2.509   8.585 -0.2264  1.2142 -0.5427
  565MOL0     H74551   6.835   2.588   8.509 -0.0361  0.8798 -0.2517
  565MOL0     H74552   6.792   2.283   8.486 -2.1842  0.3382  1.7216
  565MOL0     H74553   6.941   2.363   8.482 -0.3982 -2.4713  0.4262
  565MOL0     H74554   6.904   2.237   8.685 -0.5284 -0.1899  2.2556
  565MOL0     H74555   6.775   2.344   8.741 -0.3626 -2.2989  0.7823
  565MOL0     H74556   6.928   2.547   8.745  1.4881  0.9776 -1.7667
  565MOL0     H74557   7.053   2.455   8.647  1.7693  2.2654  0.6584
  565MOL0     H74558   6.979   2.347   8.911  2.0739 -1.4744 -1.0240
  565MOL0     H74559   7.128   2.335   8.828 -0.6697 -0.8635 -0.7439
  565MOL0     H74560   7.180   2.578   8.858  0.1093  0.5018  1.3849
  565MOL0     H74561   7.165   2.475   9.015  0.7642 -2.2859 -1.3559
  565MOL0     H74562   6.907   2.524   8.002 -0.1950 -1.2359 -0.0458
  565MOL0     H74563   7.103   2.494   7.856  1.2057 -5.1122 -1.9483
  565MOL0     H74564   7.701   2.477   8.023  1.6062 -1.5704  1.1028
  565MOL0     H74565   7.922   2.380   7.911  0.1640 -0.3943 -1.1181
  565MOL0     H74566   9.323   2.274   6.868 -0.3342  1.7639  2.7194
  565MOL0     H74567   9.564   2.349   6.832  2.1398 -1.0328 -0.3978
  565MOL0     H74568   9.875   2.464   6.932  1.0428  2.6549 -0.2938
  565MOL0     H74569  10.059   2.631   6.922  1.5491 -1.8324  3.8931
  565MOL0     H74570  10.274   2.721   6.911  0.9672  0.7039 -0.4596
  565MOL0     H74571  10.166   2.815   6.795 -1.0946 -1.6299 -1.8065
  565MOL0     H74572  10.377   2.834   6.640  2.6995  0.1468  0.1377
  565MOL0     H74573  10.402   2.918   6.792  3.4410 -0.4101  0.2272
  565MOL0     H74574  10.505   2.657   6.710 -0.6381  0.0109  0.2938
  565MOL0     H74575  10.518   2.707   6.893 -1.0928  1.0317  0.7998
  565MOL0     H74576  10.638   2.859   6.673  2.2721  1.3383  0.9569
  565MOL0     H74577  10.625   2.890   6.856 -1.6368 -1.1923  1.3206
  565MOL0     H74578  10.945   2.643   6.844  0.8062  2.9799  2.5442
  565MOL0     H74579  10.226   2.439   6.582 -0.9097  0.0750 -1.5900
  565MOL0     H74580  10.051   2.251   6.614 -0.5488  1.5921 -1.7730
  566MOL0     O74581   6.201   6.780   5.925  0.7594  0.1511 -0.2202
  566MOL0     C74582   6.244   6.721   6.020  0.4298 -0.0373  0.4852
  566MOL0     O74583   6.172   6.653   6.112 -0.3774  0.6326  0.1059
  566MOL0     C74584   6.043   6.633   6.122  0.0078  0.3492 -0.0482
  566MOL0     C74585   5.995   6.499   6.153 -0.4136 -0.3491  0.4559
  566MOL0     C74586   5.853   6.479   6.170  0.7107  1.0935  0.1768
  566MOL0     C74587   5.760   6.580   6.162  0.2973  1.1267 -0.0470
  566MOL0     O74588   5.627   6.542   6.174  0.0152  0.0431  0.0892
  566MOL0     C74589   5.538   6.589   6.070  0.3565  0.3918  0.1287
  566MOL0     C74590   5.415   6.657   6.128 -0.2536  0.0072  0.7759
  566MOL0     C74591   5.360   6.595   6.259  0.0779 -0.0345  0.0295
  566MOL0     C74592   5.233   6.664   6.302 -0.4347 -0.7905  0.7443
  566MOL0     C74593   5.206   6.617   6.450 -0.8722 -0.4040  0.6494
  566MOL0     C74594   5.070   6.643   6.502  0.9092 -0.5053 -0.4601
  566MOL0     C74595   4.960   6.535   6.456 -0.0146 -0.2117 -0.6795
  566MOL0     C74596   4.833   6.584   6.538  0.8148  0.2638  0.0863
  566MOL0     N74597   4.708   6.533   6.480  0.4904  0.0023 -0.1723
  566MOL0     C74598   4.645   6.581   6.368 -0.1498 -0.1564 -0.1226
  566MOL0     C74599   4.561   6.483   6.335  0.7861 -0.3488 -0.4508
  566MOL0     C74600   4.467   6.471   6.217  0.5134  0.1996  0.7380
  566MOL0     C74601   4.324   6.508   6.272  0.2502 -0.8433 -0.0673
  566MOL0     C74602   4.268   6.403   6.359  1.1924 -0.0333 -0.3489
  566MOL0     C74603   4.127   6.440   6.390  0.0652  0.6582 -0.8865
  566MOL0     O74604   4.101   6.354   6.500  0.2404  0.3330 -0.2074
  566MOL0     C74605   3.976   6.312   6.542  0.6856 -0.4092 -0.2346
  566MOL0     C74606   3.960   6.226   6.644 -0.0420 -0.3193 -0.1243
  566MOL0     C74607   3.836   6.180   6.684  0.5067 -0.4654  0.4423
  566MOL0     C74608   3.721   6.207   6.610  0.4626 -0.3953 -0.0850
  566MOL0     C74609   3.604   6.133   6.642 -0.0003  0.3191 -0.8155
  566MOL0     O74610   3.630   6.009   6.698  0.2007 -0.9869 -0.3516
  566MOL0     C74611   3.525   5.940   6.751  0.6264 -0.6257  1.1068
  566MOL0     C74612   3.444   5.858   6.665  0.0322 -0.7811 -0.4509
  566MOL0     C74613   3.324   5.790   6.719  0.1149 -0.9447  0.9958
  566MOL0     C74614   3.308   5.792   6.867 -0.5908  0.5632  0.5747
  566MOL0     O74615   3.215   5.722   6.927  0.3074  0.1218 -0.3626
  566MOL0     C74616   3.082   5.727   6.875 -0.0548 -0.6123  0.0585
  566MOL0     C74617   2.978   5.695   6.987  0.4659  0.3515 -0.6941
  566MOL0     C74618   2.996   5.770   7.129 -0.3962  0.0844 -0.0979
  566MOL0     C74619   3.115   5.705   7.205 -0.1991  0.4157  0.0336
  566MOL0     C74620   3.130   5.723   7.354 -0.6611 -0.7002 -0.7719
  566MOL0     C74621   3.159   5.865   7.398  0.4736 -0.9618 -0.6851
  566MOL0     C74622   3.288   5.933   7.336 -0.3005  0.6214  0.1600
  566MOL0     C74623   3.345   6.042   7.424  0.0937 -0.0286  0.4109
  566MOL0    Cl74624   3.251   6.199   7.403  0.3991 -0.0206  0.1958
  566MOL0     C74625   3.390   5.878   6.944  0.2056  0.5992  0.6081
  566MOL0     C74626   3.496   5.948   6.886 -0.1297 -0.4372  0.4155
  566MOL0     O74627   3.494   6.184   6.622  0.0777 -0.3234 -0.1737
  566MOL0     C74628   3.732   6.304   6.514  0.8561  0.3560  0.3140
  566MOL0     C74629   3.857   6.353   6.484 -0.3101 -0.2461 -0.6832
  566MOL0     N74630   4.562   6.381   6.431 -0.2238 -0.3886 -0.1900
  566MOL0     N74631   4.649   6.413   6.514  1.2596 -0.0208  0.2201
  566MOL0     C74632   5.805   6.711   6.122  0.7218  0.5763 -0.1714
  566MOL0     C74633   5.946   6.736   6.102  0.4707 -0.6518 -0.7417
  566MOL0     C74634   6.386   6.703   6.026 -0.8237 -0.6431 -0.2141
  566MOL0     C74635   6.477   6.729   5.921 -0.1091 -0.0090  0.3362
  566MOL0     C74636   6.615   6.706   5.934  0.3754  1.0800  0.4785
  566MOL0     C74637   6.675   6.678   6.052  0.2458  0.4130  0.0368
  566MOL0     O74638   6.809   6.664   6.051 -0.1954 -0.2233  0.0927
  566MOL0     C74639   6.868   6.598   6.167  0.0602  0.5257  0.8771
  566MOL0     C74640   7.013   6.583   6.137 -0.3844 -0.2134 -0.4020
  566MOL0     C74641   7.082   6.481   6.224  0.8955  0.1369 -0.2935
  566MOL0     C74642   7.228   6.512   6.209  0.1762  0.4527 -0.4051
  566MOL0     C74643   7.301   6.426   6.303 -0.3573  1.3709  0.4187
  566MOL0     C74644   7.355   6.339   6.366  0.2731  0.1349  0.0107
  566MOL0     C74645   6.587   6.648   6.163  0.0641  1.2175 -0.5153
  566MOL0     C74646   6.443   6.656   6.145  0.9865 -0.3802 -0.0929
  566MOL0     H74647   6.047   6.406   6.171 -0.2881 -0.5243 -0.7022
  566MOL0     H74648   5.806   6.385   6.200  1.1783  0.9476  0.4730
  566MOL0     H74649   5.495   6.507   6.012  0.6787  0.3938 -0.1178
  566MOL0     H74650   5.587   6.645   5.990  1.1832  1.7408  1.5166
  566MOL0     H74651   5.336   6.659   6.053 -0.0641  2.6249  0.5553
  566MOL0     H74652   5.448   6.761   6.131  1.9048 -0.6138  0.4086
  566MOL0     H74653   5.443   6.611   6.329 -0.4730  0.8149  0.5083
  566MOL0     H74654   5.348   6.488   6.245 -0.0296 -0.0381  0.1379
  566MOL0     H74655   5.240   6.773   6.296 -0.2689 -0.8882 -1.8413
  566MOL0     H74656   5.152   6.631   6.236 -0.1767  1.8867 -1.0595
  566MOL0     H74657   5.276   6.673   6.511  2.0982 -1.1581 -1.8098
  566MOL0     H74658   5.232   6.511   6.453 -0.2208 -0.3625 -1.6179
  566MOL0     H74659   5.037   6.737   6.457  1.7206 -0.3868 -0.8262
  566MOL0     H74660   5.070   6.648   6.611  3.0183 -0.1095 -0.4233
  566MOL0     H74661   4.941   6.542   6.349  2.8399  1.9052 -1.1604
  566MOL0     H74662   4.988   6.435   6.491 -3.5291 -1.1270 -0.1249
  566MOL0     H74663   4.821   6.693   6.549 -0.5059 -0.1057  4.3204
  566MOL0     H74664   4.844   6.554   6.643  1.2333 -0.9696 -0.2943
  566MOL0     H74665   4.662   6.680   6.328  0.0007  1.0716  2.7710
  566MOL0     H74666   4.458   6.370   6.177 -1.5821  0.1616  1.2071
  566MOL0     H74667   4.502   6.540   6.139  0.6587 -1.3121 -0.5649
  566MOL0     H74668   4.256   6.537   6.191 -0.6676  3.5883  1.9994
  566MOL0     H74669   4.330   6.609   6.314 -2.0525  0.3338 -2.2473
  566MOL0     H74670   4.259   6.306   6.308 -0.3478  0.0326 -0.2471
  566MOL0     H74671   4.318   6.399   6.456 -1.0304 -0.4837  0.8259
  566MOL0     H74672   4.059   6.428   6.305 -0.1723 -3.3419 -0.2893
  566MOL0     H74673   4.113   6.539   6.435 -0.3041  0.2486 -0.0978
  566MOL0     H74674   4.047   6.192   6.699 -0.3493 -0.1449  0.4801
  566MOL0     H74675   3.829   6.110   6.767 -2.5411 -0.2951  0.4364
  566MOL0     H74676   3.465   5.846   6.560 -0.7673  0.0836 -0.7250
  566MOL0     H74677   3.266   5.720   6.661  1.9302 -1.3331 -0.4394
  566MOL0     H74678   3.069   5.653   6.795  3.2525 -1.4184  0.1105
  566MOL0     H74679   3.055   5.826   6.837  1.0281  0.8743  2.8814
  566MOL0     H74680   2.973   5.589   7.013  0.2821  0.1168 -1.6707
  566MOL0     H74681   2.881   5.726   6.946  1.1243  1.4725 -1.4445
  566MOL0     H74682   2.912   5.760   7.198  0.7725 -0.3509  1.3168
  566MOL0     H74683   2.996   5.878   7.114  0.7027  0.2728  1.1167
  566MOL0     H74684   3.103   5.597   7.200  0.9541  0.0424  3.3598
  566MOL0     H74685   3.206   5.720   7.147 -1.7059 -1.3597 -3.0578
  566MOL0     H74686   3.214   5.659   7.382 -0.3106 -0.9035 -2.2199
  566MOL0     H74687   3.048   5.677   7.410 -0.2498  0.1348  0.5595
  566MOL0     H74688   3.160   5.872   7.507 -0.5167 -2.0954 -0.5797
  566MOL0     H74689   3.075   5.932   7.377  1.6992  1.4693  1.5365
  566MOL0     H74690   3.372   5.863   7.331 -0.2320  0.4438  2.6990
  566MOL0     H74691   3.266   5.974   7.237  2.8284  2.1928 -0.0085
  566MOL0     H74692   3.449   6.059   7.396 -0.0573  2.4308  1.0986
  566MOL0     H74693   3.340   6.013   7.529 -3.4077  0.3168  0.4597
  566MOL0     H74694   3.371   5.872   7.051 -0.0285 -1.7585  0.4785
  566MOL0     H74695   3.567   6.006   6.945 -0.5549  0.8377 -0.2964
  566MOL0     H74696   3.638   6.330   6.465  2.1761 -0.0247 -2.6479
  566MOL0     H74697   3.856   6.426   6.404  1.6887  0.8827  0.2648
  566MOL0     H74698   5.749   6.803   6.110 -0.1931  0.1884  1.0216
  566MOL0     H74699   5.984   6.837   6.092  2.2229 -1.1747  0.2648
  566MOL0     H74700   6.443   6.762   5.824 -3.6892 -0.1861  1.3782
  566MOL0     H74701   6.679   6.723   5.848 -1.6614  4.5065 -0.5407
  566MOL0     H74702   6.825   6.500   6.188  2.7446 -1.4748 -2.1029
  566MOL0     H74703   6.869   6.668   6.251 -1.2912  0.6885  0.7741
  566MOL0     H74704   7.024   6.553   6.033 -1.6317  0.9600 -0.8939
  566MOL0     H74705   7.057   6.683   6.148  0.3950 -0.5294 -0.5987
  566MOL0     H74706   7.055   6.381   6.187 -1.7917  0.6039  0.2294
  566MOL0     H74707   7.050   6.493   6.328  1.4146  2.7441 -0.3837
  566MOL0     H74708   7.268   6.503   6.108  0.3148  1.5117 -0.4505
  566MOL0     H74709   7.246   6.617   6.235 -0.5974  1.3312 -3.1396
  566MOL0     H74710   7.394   6.264   6.432 -1.9230 -1.2304 -0.1404
  566MOL0     H74711   6.625   6.625   6.262 -0.7842  2.8151  0.2356
  566MOL0     H74712   6.384   6.638   6.234  0.4743 -2.3711 -0.7839
  567MOL0     O74713   3.829   3.678   8.310 -0.7799 -0.5277 -0.2432
  567MOL0     C74714   3.815   3.747   8.412  0.5780  0.0469 -0.6383
  567MOL0     O74715   3.694   3.785   8.465 -0.0204 -0.0020  0.1081
  567MOL0     C74716   3.588   3.746   8.385 -0.4360  0.4606 -0.5598
  567MOL0     C74717   3.519   3.625   8.422 -0.2842  0.4550  0.0826
  567MOL0     C74718   3.411   3.583   8.344  0.5721 -0.2807 -0.9321
  567MOL0     C74719   3.364   3.657   8.236 -0.7999  0.8025 -0.8521
  567MOL0     O74720   3.247   3.620   8.177  0.1798 -0.2730  0.3021
  567MOL0     C74721   3.229   3.647   8.035  0.3620 -1.1615 -0.2841
  567MOL0     C74722   3.131   3.537   7.990  0.7955 -0.7176 -0.2113
  567MOL0     C74723   2.991   3.574   8.027  0.4417  0.7128 -0.3381
  567MOL0     C74724   2.903   3.457   8.027  0.0133  0.6260 -0.4833
  567MOL0     C74725   2.858   3.403   7.892  0.5090 -0.1095  0.3842
  567MOL0     C74726   2.758   3.500   7.829  0.6100 -0.0843  0.3040
  567MOL0     C74727   2.719   3.439   7.695  0.3784 -0.2402 -0.1695
  567MOL0     C74728   2.701   3.547   7.588  0.2590  0.0656 -0.9034
  567MOL0     N74729   2.622   3.493   7.482 -1.1818 -0.5605  0.3202
  567MOL0     C74730   2.493   3.473   7.482  0.3197  1.1516 -0.8747
  567MOL0     C74731   2.459   3.426   7.363 -0.1633 -0.3193  0.6787
  567MOL0     C74732   2.316   3.407   7.313 -1.0060  0.5523  0.1952
  567MOL0     C74733   2.274   3.519   7.227  0.3863  0.1390  0.0226
  567MOL0     C74734   2.126   3.502   7.206 -0.5475  0.4540  0.1656
  567MOL0     C74735   2.080   3.381   7.126  0.0152  0.3563 -1.1695
  567MOL0     O74736   1.963   3.425   7.056  0.0361  0.6565  0.4984
  567MOL0     C74737   1.886   3.327   6.998  0.6306  0.0082 -1.0842
  567MOL0     C74738   1.775   3.383   6.939  0.2099 -0.2151 -0.0799
  567MOL0     C74739   1.679   3.293   6.865 -0.0369  0.6968 -0.2833
  567MOL0     C74740   1.698   3.151   6.872  0.0078 -1.0466  0.6894
  567MOL0     C74741   1.626   3.065   6.778  0.4840  0.5820 -0.1250
  567MOL0     O74742   1.501   3.114   6.743  0.1680  0.4316 -0.2477
  567MOL0     C74743   1.416   3.012   6.704  0.3715 -0.5212 -0.2427
  567MOL0     C74744   1.418   2.958   6.576 -0.2882  0.5108  0.2152
  567MOL0     C74745   1.316   2.868   6.548  0.2425  0.2733  0.3198
  567MOL0     C74746   1.216   2.819   6.638 -0.3358 -0.2389 -0.1534
  567MOL0     O74747   1.119   2.729   6.594 -0.0975 -0.4554 -0.0687
  567MOL0     C74748   0.985   2.768   6.606 -0.1295 -0.6965 -0.1785
  567MOL0     C74749   0.895   2.722   6.490 -0.2345  0.1706 -0.3476
  567MOL0     C74750   0.933   2.781   6.357  0.6291  0.2601 -0.3950
  567MOL0     C74751   0.871   2.704   6.236 -0.0084 -0.2073  0.3489
  567MOL0     C74752   0.713   2.705   6.239 -0.4860 -0.3469 -0.3508
  567MOL0     C74753   0.648   2.620   6.122 -0.2084 -1.6005  0.0237
  567MOL0     C74754   0.678   2.468   6.121  0.3751 -0.7501 -0.1832
  567MOL0     C74755   0.597   2.396   6.240 -0.0513  0.1202  0.0607
  567MOL0    Cl74756   0.422   2.460   6.256  0.0429  0.1133  0.2839
  567MOL0     C74757   1.230   2.867   6.774 -0.5748  1.1198 -0.0077
  567MOL0     C74758   1.328   2.959   6.800 -0.0524 -0.1705 -0.2558
  567MOL0     O74759   1.668   2.955   6.753 -0.5939  0.6012  0.2417
  567MOL0     C74760   1.823   3.113   6.931 -0.2935  0.4734 -0.6197
  567MOL0     C74761   1.916   3.198   7.002 -0.0708  0.3072 -0.1160
  567MOL0     N74762   2.573   3.406   7.293  0.7198  0.0014 -0.2427
  567MOL0     N74763   2.666   3.449   7.369 -0.9609  0.5987  0.2098
  567MOL0     C74764   3.427   3.781   8.214  0.3331 -0.8292  1.5634
  567MOL0     C74765   3.532   3.825   8.285 -0.3221  0.5172 -0.8237
  567MOL0     C74766   3.935   3.790   8.477  0.1342 -0.3257  0.3539
  567MOL0     C74767   4.052   3.725   8.456 -0.2316 -0.3040  0.1837
  567MOL0     C74768   4.172   3.758   8.526 -0.1690 -0.2633 -0.2979
  567MOL0     C74769   4.178   3.858   8.620 -0.4976 -0.1025 -0.3242
  567MOL0     O74770   4.290   3.900   8.693  0.1046  0.8016 -0.0575
  567MOL0     C74771   4.426   3.850   8.671  0.6564 -0.2641  0.6618
  567MOL0     C74772   4.442   3.707   8.743 -0.2047 -0.1549 -1.8127
  567MOL0     C74773   4.429   3.728   8.900 -0.3438  0.9122  0.3862
  567MOL0     C74774   4.504   3.622   8.981 -0.4220 -0.5662  0.2409
  567MOL0     C74775   4.654   3.638   8.955  0.0331 -0.0682 -0.2658
  567MOL0     C74776   4.772   3.650   8.928  0.2134 -0.4785 -0.0554
  567MOL0     C74777   4.058   3.915   8.657  0.0014  0.2513 -0.5419
  567MOL0     C74778   3.941   3.889   8.587 -0.1693  0.0197  0.2421
  567MOL0     H74779   3.561   3.564   8.501  1.0633 -0.2037 -1.1004
  567MOL0     H74780   3.370   3.484   8.363  1.4281 -0.4176  0.3963
  567MOL0     H74781   3.323   3.644   7.978 -0.9716 -1.9587 -2.5765
  567MOL0     H74782   3.182   3.744   8.015 -1.2115 -1.7518  0.4478
  567MOL0     H74783   3.154   3.445   8.044 -1.9791 -1.3407  0.0448
  567MOL0     H74784   3.135   3.515   7.883 -1.1054 -0.4337 -0.3601
  567MOL0     H74785   2.962   3.664   7.971  0.6494  0.2109 -1.2631
  567MOL0     H74786   2.998   3.621   8.126  0.6421  1.1150 -0.5382
  567MOL0     H74787   2.947   3.375   8.085  0.4186  0.8380 -0.4864
  567MOL0     H74788   2.810   3.490   8.073 -1.2687 -0.7726 -1.9698
  567MOL0     H74789   2.817   3.302   7.899 -2.8920  0.9179 -2.0676
  567MOL0     H74790   2.946   3.396   7.826  0.7552 -1.7897  0.8477
  567MOL0     H74791   2.790   3.604   7.818  1.6607 -0.4396 -0.1476
  567MOL0     H74792   2.667   3.488   7.889 -0.9712 -2.1280 -2.2739
  567MOL0     H74793   2.794   3.371   7.656 -0.4243 -1.5830  0.5631
  567MOL0     H74794   2.623   3.386   7.698  0.7446 -0.8986 -0.1507
  567MOL0     H74795   2.801   3.563   7.546  1.2037 -2.6188  0.0981
  567MOL0     H74796   2.653   3.640   7.619 -0.2337  0.1247 -1.8210
  567MOL0     H74797   2.427   3.502   7.562 -3.5295  0.8146 -3.6592
  567MOL0     H74798   2.249   3.399   7.399 -0.6636  2.2064  0.6457
  567MOL0     H74799   2.318   3.313   7.258 -2.4167  2.0809 -2.7010
  567MOL0     H74800   2.319   3.517   7.127 -1.2695 -0.8453 -0.7320
  567MOL0     H74801   2.292   3.613   7.282 -0.6240 -0.0421  0.6866
  567MOL0     H74802   2.082   3.500   7.306 -0.6459  1.2674  0.1496
  567MOL0     H74803   2.087   3.596   7.166 -0.0446  1.1848  1.3395
  567MOL0     H74804   2.054   3.296   7.189  0.8771 -0.0777 -1.3902
  567MOL0     H74805   2.155   3.347   7.054  0.2424  1.1382 -1.3175
  567MOL0     H74806   1.756   3.490   6.941  0.6148 -0.1519  0.9371
  567MOL0     H74807   1.599   3.342   6.810 -0.1387  2.9754  1.7225
  567MOL0     H74808   1.490   2.995   6.504 -1.1136  1.0411 -0.3562
  567MOL0     H74809   1.317   2.816   6.453  0.7662 -0.2045  0.5811
  567MOL0     H74810   0.985   2.877   6.609  0.0877 -0.7179  1.1226
  567MOL0     H74811   0.949   2.726   6.700  0.7436  0.9467  0.9404
  567MOL0     H74812   0.793   2.751   6.517  0.8360  0.8663  3.5402
  567MOL0     H74813   0.905   2.613   6.490  0.4855  0.1651  2.4576
  567MOL0     H74814   1.041   2.782   6.338  0.7096 -0.9943 -0.0936
  567MOL0     H74815   0.901   2.885   6.345  0.2205  0.1667 -0.1305
  567MOL0     H74816   0.904   2.747   6.140 -2.8985  3.2423  0.6843
  567MOL0     H74817   0.902   2.600   6.247 -0.9422 -0.4740  0.5423
  567MOL0     H74818   0.678   2.806   6.221 -2.1422 -1.6349 -7.5665
  567MOL0     H74819   0.679   2.662   6.334 -4.0634 -2.8116 -2.5314
  567MOL0     H74820   0.695   2.665   6.034 -0.3177  1.1424  1.2504
  567MOL0     H74821   0.543   2.641   6.102  0.3049 -1.5262 -3.1285
  567MOL0     H74822   0.641   2.424   6.028  0.1039 -2.4867  0.7123
  567MOL0     H74823   0.784   2.443   6.121 -0.0578 -2.9677  1.8045
  567MOL0     H74824   0.659   2.403   6.329 -1.2823 -0.3696  0.9860
  567MOL0     H74825   0.596   2.291   6.209  4.5744  0.5771 -2.5887
  567MOL0     H74826   1.149   2.834   6.838 -0.5221 -0.8642 -0.8799
  567MOL0     H74827   1.336   3.005   6.898 -1.7014  1.9410 -1.0529
  567MOL0     H74828   1.848   3.011   6.905 -1.6195  0.7163 -3.2888
  567MOL0     H74829   2.014   3.159   7.029  0.2938  2.2554  1.6108
  567MOL0     H74830   3.397   3.843   8.130  2.1060 -0.7009  0.9861
  567MOL0     H74831   3.581   3.919   8.263 -0.2337  0.2392 -1.8827
  567MOL0     H74832   4.060   3.648   8.379  0.2380 -0.4808  0.4052
  567MOL0     H74833   4.272   3.717   8.509  0.8057  2.2009 -0.8733
  567MOL0     H74834   4.491   3.920   8.724 -1.8449  1.3702  1.7629
  567MOL0     H74835   4.458   3.856   8.567 -1.1949  0.9673  0.1115
  567MOL0     H74836   4.360   3.643   8.710  0.1342 -0.6247 -1.7517
  567MOL0     H74837   4.541   3.668   8.719  0.5193 -0.7784  1.6503
  567MOL0     H74838   4.323   3.721   8.926 -0.1808  0.2969  0.9108
  567MOL0     H74839   4.469   3.826   8.930 -0.5767  0.5054  2.1514
  567MOL0     H74840   4.496   3.645   9.087  1.0688 -2.6703  0.8655
  567MOL0     H74841   4.485   3.517   8.959  2.1194 -1.6430  2.6389
  567MOL0     H74842   4.874   3.641   8.896  0.2358 -1.7154  0.3076
  567MOL0     H74843   4.041   3.975   8.746 -0.9081  1.0197 -1.2110
  567MOL0     H74844   3.845   3.926   8.621 -1.2263 -1.9159 -0.4518
  568MOL0     O74845   3.232   0.988   5.248  0.3926 -0.4688 -0.3625
  568MOL0     C74846   3.339   0.934   5.258  0.1440  0.6080 -0.4624
  568MOL0     O74847   3.366   0.804   5.237  0.5521  0.1103  0.1290
  568MOL0     C74848   3.267   0.713   5.235  0.8852  0.4021 -0.0671
  568MOL0     C74849   3.149   0.716   5.306  0.5812 -1.0776 -0.3108
  568MOL0     C74850   3.052   0.630   5.290 -0.3860  0.0351  0.2592
  568MOL0     C74851   3.064   0.523   5.196 -0.9929  0.5270 -0.3627
  568MOL0     O74852   2.962   0.438   5.186  0.8384  0.6911  0.3631
  568MOL0     C74853   2.850   0.491   5.111  0.7859  0.4173 -0.1933
  568MOL0     C74854   2.765   0.374   5.058 -0.5411 -0.4345 -0.3857
  568MOL0     C74855   2.610   0.405   5.060 -0.6346 -0.0967 -0.7703
  568MOL0     C74856   2.534   0.284   5.014  0.5809 -0.6667 -0.1742
  568MOL0     C74857   2.374   0.298   5.008  0.1171  0.4120  0.2947
  568MOL0     C74858   2.304   0.185   4.931 -0.2975  0.2197  0.3316
  568MOL0     C74859   2.157   0.224   4.941  0.4462  0.7088  0.4954
  568MOL0     C74860   2.069   0.117   4.889 -0.1760 -0.3629 -0.6291
  568MOL0     N74861   1.929   0.161   4.868  0.1205  0.3170 -0.0086
  568MOL0     C74862   1.848   0.127   4.762 -0.1460  1.0747 -0.2691
  568MOL0     C74863   1.717   0.152   4.800  0.0836  0.1332 -0.2945
  568MOL0     C74864   1.590   0.103   4.742 -0.0539 -0.0907 -0.5169
  568MOL0     C74865   1.511   0.221   4.678 -0.0243  0.5987  0.3348
  568MOL0     C74866   1.461   0.324   4.789  0.3898  0.3076 -0.4126
  568MOL0     C74867   1.384   0.443   4.721  0.8266 -0.5381 -0.4764
  568MOL0     O74868   1.272   0.397   4.644  0.2232  0.0590  0.6051
  568MOL0     C74869   1.153   0.351   4.700  0.0031  0.1355  0.0443
  568MOL0     C74870   1.064   0.297   4.611  0.4227 -0.2940  0.2678
  568MOL0     C74871   0.934   0.266   4.643  0.5304  1.1562 -0.6110
  568MOL0     C74872   0.893   0.280   4.779 -0.0009  0.4063 -0.1712
  568MOL0     C74873   0.754   0.262   4.815  0.5848 -0.0773 -0.9235
  568MOL0     O74874   0.672   0.196   4.729 -0.3026 -0.1855  0.8053
  568MOL0     C74875   0.543   0.168   4.766 -0.1283  0.3670  0.7328
  568MOL0     C74876   0.447   0.178   4.663  0.2476  0.5441  0.9749
  568MOL0     C74877   0.316   0.144   4.683  0.4015 -0.0638 -0.0438
  568MOL0     C74878   0.266   0.121   4.817 -0.0906  0.6359  0.0492
  568MOL0     O74879   0.137   0.082   4.837  0.6758 -0.5568 -0.1069
  568MOL0     C74880   0.040   0.179   4.784 -0.0852  1.1068  0.2016
  568MOL0     C74881  -0.099   0.154   4.840  0.5308  0.8933 -0.0172
  568MOL0     C74882  -0.161   0.006   4.831  0.3427 -0.0651 -0.1912
  568MOL0     C74883  -0.312   0.021   4.859 -0.3642 -0.6249 -0.2449
  568MOL0     C74884  -0.392  -0.112   4.859  0.6380 -0.4791 -0.1340
  568MOL0     C74885  -0.541  -0.087   4.886 -0.3958  0.5411  0.0274
  568MOL0     C74886  -0.603  -0.222   4.913 -0.0493 -0.2614  0.2598
  568MOL0     C74887  -0.738  -0.196   4.944  0.6021  0.1597 -0.1008
  568MOL0    Cl74888  -0.747  -0.083   5.095  0.1668  0.1673  0.2284
  568MOL0     C74889   0.366   0.114   4.924  0.6959 -0.0580  0.3254
  568MOL0     C74890   0.499   0.130   4.893  0.6953 -0.3494 -0.0844
  568MOL0     O74891   0.717   0.307   4.926  0.5690 -0.7386 -0.8077
  568MOL0     C74892   0.985   0.329   4.874 -0.3599  0.1760 -0.2914
  568MOL0     C74893   1.110   0.363   4.838 -1.7244 -0.0100  0.8090
  568MOL0     N74894   1.726   0.221   4.918 -0.0446 -0.7678 -0.4715
  568MOL0     N74895   1.847   0.219   4.957 -0.0067 -0.2541  0.3367
  568MOL0     C74896   3.179   0.511   5.127 -1.1299  0.6044  0.5235
  568MOL0     C74897   3.286   0.604   5.147 -0.1116 -0.0108  0.6101
  568MOL0     C74898   3.450   1.033   5.283  0.4362 -0.2331  0.8068
  568MOL0     C74899   3.577   0.993   5.246 -0.2482  0.3601 -0.5329
  568MOL0     C74900   3.686   1.085   5.260  1.0459 -0.6897  0.3563
  568MOL0     C74901   3.674   1.216   5.303  0.6328  0.5126 -0.5350
  568MOL0     O74902   3.783   1.294   5.323 -0.2138  0.2649  0.3624
  568MOL0     C74903   3.791   1.429   5.353  0.5086  0.1751 -0.1869
  568MOL0     C74904   3.913   1.438   5.449  0.3499  0.5099 -0.1413
  568MOL0     C74905   3.896   1.563   5.530  0.3285 -0.6475  0.1188
  568MOL0     C74906   4.011   1.664   5.489 -0.2349 -0.1330  0.6475
  568MOL0     C74907   3.996   1.756   5.601  0.5952 -0.5482 -0.3748
  568MOL0     C74908   3.972   1.824   5.699  0.3833  0.3236 -0.3390
  568MOL0     C74909   3.545   1.252   5.339 -0.0781  0.0309  0.5902
  568MOL0     C74910   3.433   1.167   5.321 -0.4279  0.1484  0.5507
  568MOL0     H74911   3.134   0.791   5.383  0.0263 -0.2392 -1.2094
  568MOL0     H74912   2.960   0.646   5.347  1.0649  2.0598  2.2122
  568MOL0     H74913   2.878   0.542   5.019 -0.9744  2.7092  0.4193
  568MOL0     H74914   2.791   0.561   5.173  0.5099 -0.2080  0.2636
  568MOL0     H74915   2.785   0.283   5.117 -2.0596 -0.7660 -0.3460
  568MOL0     H74916   2.804   0.359   4.957 -0.7988 -3.4422 -0.1519
  568MOL0     H74917   2.590   0.487   4.991 -1.5678  0.8558  0.5893
  568MOL0     H74918   2.589   0.437   5.162 -1.5399 -2.2140 -0.2358
  568MOL0     H74919   2.569   0.267   4.912 -0.2960  2.7190 -1.1907
  568MOL0     H74920   2.552   0.199   5.080 -3.0064 -1.4026  0.0529
  568MOL0     H74921   2.339   0.395   4.972 -1.3085  0.6789  2.2253
  568MOL0     H74922   2.337   0.295   5.111 -0.7913  1.0514 -0.0008
  568MOL0     H74923   2.308   0.090   4.986 -3.2252  1.0829  2.3334
  568MOL0     H74924   2.340   0.165   4.830 -0.8229 -2.2761  0.5582
  568MOL0     H74925   2.130   0.247   5.044  1.6484 -0.7302  1.1640
  568MOL0     H74926   2.139   0.317   4.886 -0.1681  0.6983  0.6683
  568MOL0     H74927   2.060   0.035   4.962 -2.7959 -1.1257 -1.6952
  568MOL0     H74928   2.109   0.086   4.792  0.9567  2.0437 -0.9972
  568MOL0     H74929   1.880   0.078   4.671  0.2416  2.4920 -0.9248
  568MOL0     H74930   1.533   0.066   4.827  5.7372 -1.7387  3.2395
  568MOL0     H74931   1.604   0.023   4.669  1.9508 -0.0942 -0.1903
  568MOL0     H74932   1.420   0.185   4.629  0.3444  0.5804 -0.3449
  568MOL0     H74933   1.579   0.271   4.608 -0.4952  1.9615  0.8061
  568MOL0     H74934   1.399   0.264   4.857 -0.7248  1.2252 -0.5734
  568MOL0     H74935   1.545   0.363   4.845 -0.7398  2.2338  0.0416
  568MOL0     H74936   1.455   0.485   4.649  0.6851 -0.9653 -0.8699
  568MOL0     H74937   1.364   0.518   4.798 -1.1264 -0.5882 -0.8800
  568MOL0     H74938   1.092   0.285   4.507  0.5031 -1.7835  0.4373
  568MOL0     H74939   0.867   0.232   4.565  1.1730  0.4569 -0.8732
  568MOL0     H74940   0.482   0.219   4.569  0.2626  0.7217  1.0578
  568MOL0     H74941   0.245   0.141   4.601  1.1328 -0.0776 -0.6867
  568MOL0     H74942   0.037   0.170   4.675 -2.6149 -1.5032  0.3657
  568MOL0     H74943   0.083   0.277   4.809  0.9377  0.0780  2.8673
  568MOL0     H74944  -0.162   0.224   4.784  0.7093 -0.8079 -2.5262
  568MOL0     H74945  -0.085   0.181   4.945  2.1497 -0.9626  0.2938
  568MOL0     H74946  -0.118  -0.063   4.904 -0.0582 -1.6196 -1.3794
  568MOL0     H74947  -0.141  -0.022   4.727  1.0553 -0.8459  0.1447
  568MOL0     H74948  -0.326   0.074   4.954  0.8120  0.8200 -0.8343
  568MOL0     H74949  -0.363   0.083   4.785 -1.0890 -1.7470 -0.7193
  568MOL0     H74950  -0.352  -0.178   4.936  0.6237  4.1491  4.4048
  568MOL0     H74951  -0.383  -0.162   4.762 -1.8791 -3.3272  0.9390
  568MOL0     H74952  -0.588  -0.034   4.803 -0.7718 -1.1374 -0.8683
  568MOL0     H74953  -0.543  -0.019   4.971  3.3466 -2.7520  3.1443
  568MOL0     H74954  -0.595  -0.288   4.827  0.7638  0.7128 -0.4404
  568MOL0     H74955  -0.559  -0.269   5.002 -1.0384 -2.7544 -0.4859
  568MOL0     H74956  -0.774  -0.297   4.967  2.2659 -0.7768 -1.4249
  568MOL0     H74957  -0.802  -0.154   4.866 -0.7423 -0.7884  0.4420
  568MOL0     H74958   0.322   0.083   5.018  0.1249 -1.5701 -0.3922
  568MOL0     H74959   0.575   0.104   4.967  1.5638 -2.8506 -1.6942
  568MOL0     H74960   0.947   0.336   4.976 -1.4679 -1.6004 -0.5418
  568MOL0     H74961   1.180   0.402   4.911  1.4727 -0.8157 -1.6336
  568MOL0     H74962   3.206   0.422   5.070  2.8271  0.5958  2.0617
  568MOL0     H74963   3.383   0.598   5.099 -0.0844  1.1668  0.4883
  568MOL0     H74964   3.587   0.894   5.204  0.9846  0.7187 -1.1670
  568MOL0     H74965   3.789   1.056   5.242  1.8428  1.8585  0.3634
  568MOL0     H74966   3.699   1.464   5.401  1.1809  0.9252  0.5695
  568MOL0     H74967   3.815   1.504   5.276 -1.1950  2.1029  1.0643
  568MOL0     H74968   3.926   1.351   5.514  0.5819  0.8835  0.3213
  568MOL0     H74969   4.007   1.438   5.394 -0.3728  1.4984 -1.4202
  568MOL0     H74970   3.896   1.537   5.637 -0.7153  0.5053  0.4281
  568MOL0     H74971   3.801   1.616   5.518  1.0819  0.6301 -0.4046
  568MOL0     H74972   4.109   1.620   5.469 -0.6709  0.1762 -2.7310
  568MOL0     H74973   3.991   1.716   5.395 -0.0451 -0.8754  0.1879
  568MOL0     H74974   3.952   1.882   5.786  2.3989 -2.0262  1.8627
  568MOL0     H74975   3.522   1.348   5.383  1.8251  0.0853  1.5534
  568MOL0     H74976   3.340   1.216   5.348 -0.2034  0.7217  0.2818
  569MOL0     O74977   8.496   2.233   1.404 -0.2871 -0.3728  0.6259
  569MOL0     C74978   8.467   2.268   1.288 -0.1188  1.1866  0.1867
  569MOL0     O74979   8.340   2.273   1.241  0.1602 -0.4743 -0.9922
  569MOL0     C74980   8.234   2.282   1.336  0.3178 -0.5839  0.4233
  569MOL0     C74981   8.114   2.220   1.287 -0.9213 -0.3630 -0.2846
  569MOL0     C74982   8.002   2.225   1.365  0.6474  0.7766  0.0790
  569MOL0     C74983   8.005   2.296   1.485  0.5981 -0.1755  0.4046
  569MOL0     O74984   7.874   2.304   1.533 -0.1991  0.4008 -0.6782
  569MOL0     C74985   7.841   2.379   1.651 -0.5078  0.2249  0.6152
  569MOL0     C74986   7.696   2.354   1.693 -0.0907 -0.0305 -0.0523
  569MOL0     C74987   7.650   2.433   1.815  0.0137 -0.0515  0.4564
  569MOL0     C74988   7.508   2.410   1.868 -0.1955 -0.1818  0.2014
  569MOL0     C74989   7.390   2.432   1.768 -0.2932  1.5206 -0.1507
  569MOL0     C74990   7.258   2.392   1.820 -0.3666  0.5444  0.5016
  569MOL0     C74991   7.161   2.379   1.702 -0.5638 -0.2375 -0.1901
  569MOL0     C74992   7.128   2.507   1.630  0.4032  0.5584  0.9866
  569MOL0     N74993   7.003   2.498   1.551  0.0686 -0.2626  0.9777
  569MOL0     C74994   6.958   2.406   1.452 -1.8228 -0.6339 -0.9780
  569MOL0     C74995   6.844   2.454   1.420  0.3721  1.1218  0.3484
  569MOL0     C74996   6.748   2.395   1.311  1.3802 -0.2213  0.1798
  569MOL0     C74997   6.815   2.403   1.178 -0.6118 -0.8142 -0.4334
  569MOL0     C74998   6.725   2.340   1.060  0.3084  0.2823 -0.0583
  569MOL0     C74999   6.612   2.415   1.003  0.5203 -0.2945  0.8869
  569MOL0     O75000   6.661   2.514   0.920  0.0257  0.0893 -0.7865
  569MOL0     C75001   6.583   2.560   0.825  0.1193 -0.0128 -0.1232
  569MOL0     C75002   6.639   2.627   0.718  0.7965  0.4511 -0.2396
  569MOL0     C75003   6.552   2.678   0.609 -0.4650 -0.4219 -0.4979
  569MOL0     C75004   6.415   2.663   0.612  0.5018  0.0490  0.4890
  569MOL0     C75005   6.329   2.732   0.518 -0.1658 -0.7691 -0.0645
  569MOL0     O75006   6.193   2.725   0.550  0.7819  0.2400 -0.0549
  569MOL0     C75007   6.088   2.755   0.462 -0.6730 -0.6061 -0.0036
  569MOL0     C75008   6.108   2.791   0.322 -0.1239 -0.0031 -0.7064
  569MOL0     C75009   6.001   2.838   0.245  0.3326  0.8396 -0.4372
  569MOL0     C75010   5.869   2.846   0.306 -0.4355 -0.3928  0.2620
  569MOL0     O75011   5.753   2.861   0.245 -0.2356 -0.1883  0.0651
  569MOL0     C75012   5.753   2.895   0.099 -0.0100  1.0264  0.0307
  569MOL0     C75013   5.607   2.899   0.056 -0.2229  0.3809 -0.2775
  569MOL0     C75014   5.540   2.764   0.036 -0.0050  0.5212 -0.5549
  569MOL0     C75015   5.418   2.779  -0.052  0.7173 -0.1001  0.7341
  569MOL0     C75016   5.320   2.665  -0.038 -0.1753  1.2178 -0.8537
  569MOL0     C75017   5.190   2.703  -0.113 -0.8513 -0.5214 -0.7926
  569MOL0     C75018   5.097   2.585  -0.126 -0.1379 -0.5517 -0.1282
  569MOL0     C75019   4.985   2.608  -0.233  0.1859 -1.2602  0.2504
  569MOL0    Cl75020   4.882   2.751  -0.198 -0.0451 -0.0148  0.0160
  569MOL0     C75021   5.849   2.801   0.433  0.1792 -0.0770 -0.0284
  569MOL0     C75022   5.956   2.759   0.516 -0.0396 -0.7207 -0.0251
  569MOL0     O75023   6.382   2.775   0.410  0.1992 -0.1029 -0.2908
  569MOL0     C75024   6.356   2.598   0.726  0.2537 -0.1629 -0.6996
  569MOL0     C75025   6.438   2.550   0.832 -0.0832  0.2738  0.6275
  569MOL0     N75026   6.804   2.571   1.487 -1.0870 -0.1921 -0.6177
  569MOL0     N75027   6.904   2.597   1.561 -0.4012  0.3302 -0.2564
  569MOL0     C75028   8.113   2.353   1.539  0.7822 -0.4702 -0.0350
  569MOL0     C75029   8.232   2.350   1.462  0.2228  0.2784  0.2567
  569MOL0     C75030   8.569   2.292   1.187  0.3054 -0.5917  0.2501
  569MOL0     C75031   8.546   2.376   1.074  0.7217  0.8558  0.7707
  569MOL0     C75032   8.658   2.402   0.988  0.5074  0.0053 -0.7546
  569MOL0     C75033   8.790   2.349   1.013  0.1754 -0.0676 -0.2319
  569MOL0     O75034   8.900   2.397   0.936  0.8745 -0.2410 -0.4652
  569MOL0     C75035   9.032   2.383   0.991 -0.4601  0.7843 -0.6272
  569MOL0     C75036   9.109   2.260   0.930  0.0250 -0.3915  0.5338
  569MOL0     C75037   9.246   2.236   1.000 -0.7907 -0.2074 -0.3060
  569MOL0     C75038   9.345   2.173   0.901 -0.2091  0.7425  0.0907
  569MOL0     C75039   9.300   2.036   0.872  0.2778 -0.0535  0.0620
  569MOL0     C75040   9.271   1.919   0.855 -0.2856 -0.0470  0.5961
  569MOL0     C75041   8.801   2.263   1.129 -0.1032 -0.7216 -0.7094
  569MOL0     C75042   8.695   2.229   1.209  0.6024  0.9366 -0.0547
  569MOL0     H75043   8.111   2.194   1.182  1.0775  2.9714 -1.3107
  569MOL0     H75044   7.911   2.183   1.322 -0.0064  0.1844  1.9602
  569MOL0     H75045   7.838   2.486   1.632  2.8808  0.5174  1.0955
  569MOL0     H75046   7.915   2.355   1.728  4.3432  0.6293 -3.3494
  569MOL0     H75047   7.673   2.250   1.716  1.9800 -1.0961 -2.3294
  569MOL0     H75048   7.634   2.388   1.609 -1.0067 -2.9581 -0.6673
  569MOL0     H75049   7.664   2.541   1.801  1.2179 -0.3125 -0.4572
  569MOL0     H75050   7.718   2.408   1.896  1.6427  1.5957 -0.3354
  569MOL0     H75051   7.502   2.314   1.920 -2.1372 -1.8863 -2.8166
  569MOL0     H75052   7.479   2.482   1.944  0.6156 -0.2025  0.5378
  569MOL0     H75053   7.410   2.375   1.677  1.1922 -0.1760  1.1815
  569MOL0     H75054   7.395   2.537   1.739  1.4047  1.2533 -0.9389
  569MOL0     H75055   7.214   2.475   1.875 -1.4561 -1.4697  2.8207
  569MOL0     H75056   7.261   2.295   1.870  0.4027  0.1100 -0.3521
  569MOL0     H75057   7.187   2.308   1.623 -1.8223  0.3047 -1.1368
  569MOL0     H75058   7.075   2.344   1.759 -0.3564 -0.3325  0.0682
  569MOL0     H75059   7.215   2.506   1.564 -0.6477  0.0074 -0.4345
  569MOL0     H75060   7.125   2.587   1.705 -0.8672 -0.0811  1.6427
  569MOL0     H75061   7.009   2.314   1.425 -1.6768 -1.0914  0.7514
  569MOL0     H75062   6.653   2.447   1.327  1.6574 -0.4481  3.0430
  569MOL0     H75063   6.724   2.290   1.331  0.9661 -0.5974 -2.0022
  569MOL0     H75064   6.915   2.359   1.179  0.2961  1.1379 -0.3820
  569MOL0     H75065   6.831   2.510   1.162  1.0296 -1.0049 -0.2354
  569MOL0     H75066   6.799   2.305   0.987  0.8238 -0.3698  0.7572
  569MOL0     H75067   6.688   2.241   1.089 -0.4554  0.7199  0.5124
  569MOL0     H75068   6.545   2.451   1.080  0.1099 -1.6763  1.1949
  569MOL0     H75069   6.558   2.344   0.939  1.1161  0.1595 -0.1610
  569MOL0     H75070   6.746   2.646   0.718  0.6921  1.0869 -1.3163
  569MOL0     H75071   6.599   2.739   0.533 -0.9690 -1.7032 -1.9064
  569MOL0     H75072   6.203   2.792   0.270  0.3455  0.1028  0.1329
  569MOL0     H75073   6.011   2.844   0.137  0.4002 -1.3346 -0.5970
  569MOL0     H75074   5.804   2.816   0.044  0.5507  1.4699 -0.0940
  569MOL0     H75075   5.804   2.990   0.084  1.2469  0.7763  2.3411
  569MOL0     H75076   5.598   2.949  -0.041 -1.9924 -1.8278 -1.3590
  569MOL0     H75077   5.544   2.968   0.114  0.8511 -0.2086  1.6611
  569MOL0     H75078   5.511   2.737   0.138 -0.8598 -1.9176 -1.3835
  569MOL0     H75079   5.601   2.681  -0.001  0.7250 -0.2283  2.1011
  569MOL0     H75080   5.357   2.869  -0.039  0.0589 -0.4832  0.3603
  569MOL0     H75081   5.444   2.787  -0.158 -0.7996  0.2773  0.3564
  569MOL0     H75082   5.305   2.652   0.070 -0.6147 -1.8240 -1.1880
  569MOL0     H75083   5.366   2.572  -0.072  0.2205  0.2472  2.0018
  569MOL0     H75084   5.224   2.732  -0.214  1.3676 -3.6251 -1.0800
  569MOL0     H75085   5.133   2.787  -0.072  0.1402  0.5045 -1.4165
  569MOL0     H75086   5.148   2.491  -0.149 -3.1589 -1.8374 -2.2813
  569MOL0     H75087   5.041   2.573  -0.032 -1.5592  3.1260 -0.3216
  569MOL0     H75088   4.933   2.512  -0.236 -0.9515 -0.6211 -0.9494
  569MOL0     H75089   5.031   2.613  -0.332  0.1533  1.0149  0.3154
  569MOL0     H75090   5.749   2.799   0.475  1.1394 -0.3997  2.4511
  569MOL0     H75091   5.935   2.730   0.619 -0.9357  0.5220  0.1724
  569MOL0     H75092   6.248   2.588   0.738  0.1816  1.3035 -0.0052
  569MOL0     H75093   6.402   2.500   0.921  0.9242 -1.5281  0.0797
  569MOL0     H75094   8.112   2.406   1.633 -1.2352  0.1172 -0.3332
  569MOL0     H75095   8.317   2.406   1.501  0.9557 -0.0176 -0.8693
  569MOL0     H75096   8.454   2.430   1.054  1.1400  1.3556  0.1585
  569MOL0     H75097   8.654   2.465   0.900 -1.7248  0.7894 -0.1547
  569MOL0     H75098   9.035   2.367   1.099 -0.5207 -1.8945 -0.9463
  569MOL0     H75099   9.104   2.464   0.975 -0.4042  0.3133 -3.1017
  569MOL0     H75100   9.054   2.166   0.941  1.8510 -1.3547  2.1461
  569MOL0     H75101   9.125   2.270   0.822  0.8465  1.2782  0.7891
  569MOL0     H75102   9.235   2.183   1.095 -1.0917 -0.6387 -0.5777
  569MOL0     H75103   9.284   2.332   1.038 -2.8730  0.1329  1.1130
  569MOL0     H75104   9.338   2.219   0.802 -0.7289  0.5094  0.0196
  569MOL0     H75105   9.449   2.186   0.933 -0.0990 -2.1416  1.1881
  569MOL0     H75106   9.248   1.816   0.838  0.0614 -0.1534  0.7534
  569MOL0     H75107   8.898   2.217   1.147 -0.4139 -1.5700 -1.1209
  569MOL0     H75108   8.712   2.169   1.298 -0.3449  1.9352  0.8337
  570MOL0     O75109   4.627  10.465   2.283 -0.5349  0.1579  0.2140
  570MOL0     C75110   4.629  10.481   2.157 -0.0256 -0.1676 -0.3131
  570MOL0     O75111   4.525  10.471   2.073 -0.0209 -0.9719  0.4562
  570MOL0     C75112   4.401  10.453   2.122  0.1669  0.4770  1.4153
  570MOL0     C75113   4.319  10.349   2.077 -0.1927  1.2991 -0.2002
  570MOL0     C75114   4.190  10.343   2.130 -0.0040 -0.0706  0.2072
  570MOL0     C75115   4.142  10.438   2.218  0.8013  0.2355 -0.1931
  570MOL0     O75116   4.006  10.424   2.256  0.3717 -0.4836  0.1020
  570MOL0     C75117   3.951  10.511   2.356 -0.2922 -0.5628 -0.1751
  570MOL0     C75118   3.842  10.435   2.427  0.1576 -0.5292 -0.3321
  570MOL0     C75119   3.711  10.423   2.350  0.3987  0.3534  0.3133
  570MOL0     C75120   3.626  10.304   2.407  0.0101  0.2456  0.2567
  570MOL0     C75121   3.493  10.278   2.341  1.1337  0.1588  1.2793
  570MOL0     C75122   3.511  10.218   2.201  0.0143 -0.7980  0.3051
  570MOL0     C75123   3.379  10.200   2.137 -0.0590  0.1816 -0.2392
  570MOL0     C75124   3.304  10.319   2.059 -0.2831  1.0735  0.7456
  570MOL0     N75125   3.171  10.290   2.014  0.4426  0.5311 -0.1164
  570MOL0     C75126   3.124  10.182   1.946 -0.3171  0.0284  0.0902
  570MOL0     C75127   2.997  10.201   1.931 -0.0907  0.6180 -0.1614
  570MOL0     C75128   2.899  10.108   1.865 -0.3127 -0.6447 -0.0840
  570MOL0     C75129   2.944  10.078   1.711  0.8723 -0.3643 -0.5183
  570MOL0     C75130   2.844   9.988   1.634 -1.0114 -0.5722  0.0626
  570MOL0     C75131   2.853  10.011   1.483 -0.4897  0.2588 -0.2462
  570MOL0     O75132   2.803   9.898   1.411  0.4407  0.4992  0.2955
  570MOL0     C75133   2.671   9.885   1.395 -0.1783  0.0313 -0.2506
  570MOL0     C75134   2.608   9.945   1.290 -0.2246 -0.2670  0.0175
  570MOL0     C75135   2.468   9.938   1.268  0.1443  0.7580 -0.5200
  570MOL0     C75136   2.396   9.858   1.358  0.9245 -0.7170  0.2645
  570MOL0     C75137   2.246   9.838   1.342  0.2458  0.9089 -1.5397
  570MOL0     O75138   2.170   9.830   1.455  0.1700  0.4695  0.1009
  570MOL0     C75139   2.032   9.804   1.452  0.5101  0.0890 -0.6487
  570MOL0     C75140   1.982   9.774   1.585  0.2997  0.6657  0.3903
  570MOL0     C75141   1.841   9.764   1.605 -0.6629  0.1528  0.5464
  570MOL0     C75142   1.753   9.763   1.500  0.7908 -0.6152  1.1454
  570MOL0     O75143   1.621   9.759   1.531  0.1278 -0.0158 -0.1547
  570MOL0     C75144   1.514   9.739   1.434  0.4178 -0.5132  0.1219
  570MOL0     C75145   1.393   9.706   1.522  0.2473  0.4934 -0.1310
  570MOL0     C75146   1.262   9.684   1.447  0.5057  0.3166 -0.0144
  570MOL0     C75147   1.153   9.704   1.543  0.0013 -0.0739  0.4785
  570MOL0     C75148   1.022   9.643   1.502  0.4781 -0.3331 -0.3419
  570MOL0     C75149   0.982   9.509   1.574  0.4796 -0.7554 -0.0788
  570MOL0     C75150   0.854   9.448   1.516  0.4884  0.7588 -0.8325
  570MOL0     C75151   0.830   9.301   1.572  0.1113 -0.3218  0.0638
  570MOL0    Cl75152   0.951   9.196   1.491  0.1033  0.1646 -0.3342
  570MOL0     C75153   1.806   9.790   1.374  0.2530  0.7942 -0.0646
  570MOL0     C75154   1.944   9.795   1.348  1.1351 -0.0320  0.3363
  570MOL0     O75155   2.205   9.844   1.229 -0.1058  0.1503 -0.2582
  570MOL0     C75156   2.458   9.784   1.460 -0.2254  0.0845 -0.7407
  570MOL0     C75157   2.600   9.797   1.475 -0.0473  0.3708 -0.1030
  570MOL0     N75158   2.959  10.303   2.007 -0.3171 -0.1159 -0.4292
  570MOL0     N75159   3.064  10.360   2.065  0.3773 -0.1684 -0.2067
  570MOL0     C75160   4.222  10.555   2.244 -0.4529 -0.0964 -1.2682
  570MOL0     C75161   4.356  10.546   2.212 -0.0861 -1.0295  0.1978
  570MOL0     C75162   4.758  10.500   2.090 -0.1869 -0.4983  0.1988
  570MOL0     C75163   4.865  10.583   2.147  0.8561  0.6951  0.3185
  570MOL0     C75164   4.992  10.592   2.084  0.5171  1.0026 -0.9647
  570MOL0     C75165   5.022  10.513   1.973  0.7272 -0.7683 -0.8291
  570MOL0     O75166   5.146  10.541   1.917  0.5530 -0.0895  0.3920
  570MOL0     C75167   5.206  10.448   1.824  0.2778 -0.7164  0.0055
  570MOL0     C75168   5.342  10.507   1.790 -0.0290 -0.2884 -0.3327
  570MOL0     C75169   5.433  10.434   1.696 -0.0710 -1.4830  0.1757
  570MOL0     C75170   5.554  10.520   1.671 -0.5400 -0.7077  0.1099
  570MOL0     C75171   5.621  10.467   1.552 -0.0242 -0.4366 -0.6172
  570MOL0     C75172   5.677  10.441   1.442  0.1920 -0.5367 -0.1234
  570MOL0     C75173   4.919  10.434   1.918  0.5441 -0.4114 -0.6191
  570MOL0     C75174   4.793  10.428   1.979 -0.8598  0.0934 -0.0422
  570MOL0     H75175   4.353  10.279   2.001 -0.0085  1.1838 -0.0138
  570MOL0     H75176   4.123  10.269   2.088 -0.0416  0.2786 -0.3534
  570MOL0     H75177   3.905  10.595   2.305  0.4620 -0.7683 -1.2230
  570MOL0     H75178   4.031  10.534   2.428  0.5014 -2.0272 -0.5382
  570MOL0     H75179   3.811  10.477   2.523 -0.1693  0.1643 -0.7317
  570MOL0     H75180   3.892  10.340   2.448  0.6040 -0.3078 -0.3642
  570MOL0     H75181   3.742  10.405   2.246 -0.0849 -1.3816  0.4361
  570MOL0     H75182   3.654  10.516   2.355 -1.2103 -0.3678 -2.3173
  570MOL0     H75183   3.686  10.213   2.400  1.5852  1.3771 -3.1041
  570MOL0     H75184   3.611  10.332   2.512  0.8688  1.8575 -0.0225
  570MOL0     H75185   3.433  10.368   2.327  0.2729 -0.4392  1.0619
  570MOL0     H75186   3.416  10.226   2.397 -1.2243  3.6198  1.5445
  570MOL0     H75187   3.565  10.123   2.210  0.6185 -0.4613  0.3151
  570MOL0     H75188   3.576  10.283   2.142 -0.3856  0.8444  1.5875
  570MOL0     H75189   3.410  10.132   2.057  1.7190  1.8935 -1.0856
  570MOL0     H75190   3.304  10.148   2.197  1.2555  0.0153  1.3228
  570MOL0     H75191   3.361  10.363   1.977  0.4262 -1.3750 -0.1474
  570MOL0     H75192   3.286  10.402   2.129 -1.0525 -0.4275  2.4170
  570MOL0     H75193   3.177  10.095   1.908 -0.1664  0.7199 -1.3863
  570MOL0     H75194   2.799  10.152   1.869  0.4426  1.0279  1.8877
  570MOL0     H75195   2.905  10.022   1.932  3.3526 -0.5156 -0.0139
  570MOL0     H75196   3.045  10.037   1.704  1.2315 -0.2357  2.6744
  570MOL0     H75197   2.953  10.180   1.673 -0.0526 -0.4105 -0.8958
  570MOL0     H75198   2.876   9.885   1.655  2.5868  0.9543  3.3644
  570MOL0     H75199   2.737   9.995   1.657 -0.9840  1.6112 -0.2179
  570MOL0     H75200   2.952  10.029   1.441 -0.2867  2.9697  1.1432
  570MOL0     H75201   2.798  10.104   1.463  0.8930  1.6740  2.1064
  570MOL0     H75202   2.663  10.003   1.216  2.1193 -1.2657  0.8831
  570MOL0     H75203   2.424   9.997   1.189 -1.8077  1.2685  0.8705
  570MOL0     H75204   2.062   9.776   1.657  1.5002  0.3860 -0.8913
  570MOL0     H75205   1.803   9.747   1.705 -2.0664 -0.1335 -0.0099
  570MOL0     H75206   1.531   9.655   1.367  0.9223  0.7103 -1.3448
  570MOL0     H75207   1.504   9.833   1.378  2.2770 -0.0138  0.5628
  570MOL0     H75208   1.389   9.779   1.604 -0.2337  1.0620 -0.6545
  570MOL0     H75209   1.424   9.607   1.557  2.1445  1.3264  0.6587
  570MOL0     H75210   1.244   9.585   1.402 -0.2134 -0.2306  1.4239
  570MOL0     H75211   1.254   9.762   1.370 -2.3082 -1.0623 -1.3034
  570MOL0     H75212   1.186   9.658   1.637  0.6324 -0.8628 -0.1121
  570MOL0     H75213   1.156   9.810   1.566  3.5704  0.5438 -1.8723
  570MOL0     H75214   1.025   9.619   1.395  0.0732 -2.6670  0.1085
  570MOL0     H75215   0.944   9.719   1.511  1.3562  0.6488 -0.8382
  570MOL0     H75216   0.961   9.516   1.681 -1.5750  2.1890 -0.5326
  570MOL0     H75217   1.068   9.445   1.554 -0.0343 -1.7732  0.8624
  570MOL0     H75218   0.767   9.509   1.545 -1.1067 -0.1153 -3.4221
  570MOL0     H75219   0.849   9.440   1.407  1.9957 -1.8054 -0.7883
  570MOL0     H75220   0.730   9.265   1.547  0.3650 -0.4661 -0.7706
  570MOL0     H75221   0.830   9.296   1.681 -1.6532  2.0902  0.2559
  570MOL0     H75222   1.732   9.796   1.294  0.2258  2.0472  0.0379
  570MOL0     H75223   1.969   9.811   1.244 -0.5732 -1.8758 -0.4216
  570MOL0     H75224   2.404   9.726   1.534  1.1848 -1.3089 -0.7559
  570MOL0     H75225   2.642   9.736   1.554 -0.0673 -1.4608 -1.4418
  570MOL0     H75226   4.175  10.626   2.311 -1.5922 -2.6545  0.8734
  570MOL0     H75227   4.428  10.619   2.248 -0.9010 -0.6441  1.0650
  570MOL0     H75228   4.860  10.635   2.242  0.7947 -1.5141  1.5926
  570MOL0     H75229   5.071  10.651   2.130  1.5421 -1.3757  0.5280
  570MOL0     H75230   5.156  10.432   1.728  0.8359 -2.8965  0.0345
  570MOL0     H75231   5.231  10.351   1.866 -1.0681 -0.9884  0.2068
  570MOL0     H75232   5.318  10.605   1.750  1.6735  0.6059  0.7347
  570MOL0     H75233   5.397  10.523   1.884  0.8345  0.3360 -0.9323
  570MOL0     H75234   5.374  10.415   1.606  0.3776 -1.2228 -0.1822
  570MOL0     H75235   5.469  10.343   1.746  0.8946 -0.1524  2.0194
  570MOL0     H75236   5.535  10.625   1.648 -0.9074 -0.7917  0.0101
  570MOL0     H75237   5.617  10.518   1.760 -1.0335 -1.3108  0.4576
  570MOL0     H75238   5.723  10.440   1.345 -0.4229 -3.8473 -0.4695
  570MOL0     H75239   4.933  10.378   1.826  0.7250  0.9901 -1.4663
  570MOL0     H75240   4.726  10.359   1.930 -0.7576 -1.1508  1.4709
  571MOL0     O75241   9.068   9.809   7.268 -0.1138  0.0753 -0.6257
  571MOL0     C75242   9.123   9.837   7.372  0.2022 -0.2672 -0.7862
  571MOL0     O75243   9.076   9.823   7.500  0.1133  0.3475  0.1382
  571MOL0     C75244   8.970   9.753   7.522 -0.5348  0.1119  0.4809
  571MOL0     C75245   8.843   9.799   7.559 -0.4556  0.5643 -0.8112
  571MOL0     C75246   8.736   9.711   7.588  0.1640  1.1005 -0.6866
  571MOL0     C75247   8.755   9.570   7.569 -0.2572 -0.0484 -0.0018
  571MOL0     O75248   8.670   9.463   7.592 -0.8235 -0.2094 -0.5174
  571MOL0     C75249   8.563   9.467   7.684 -0.1076 -0.0462  0.5892
  571MOL0     C75250   8.626   9.420   7.817 -0.5379  0.2110 -0.1742
  571MOL0     C75251   8.722   9.521   7.900 -0.0370 -0.1273  0.5718
  571MOL0     C75252   8.747   9.469   8.039  0.1035  0.3593 -0.2018
  571MOL0     C75253   8.883   9.522   8.090  0.8768 -0.6256  0.0067
  571MOL0     C75254   8.899   9.680   8.074 -0.2222  0.9159 -0.6053
  571MOL0     C75255   9.027   9.722   8.150 -0.7677  0.7606 -0.3783
  571MOL0     C75256   9.103   9.839   8.079 -0.0044  0.4952  0.3421
  571MOL0     N75257   9.213   9.887   8.163 -0.2784 -0.4157  0.2793
  571MOL0     C75258   9.321   9.818   8.210 -0.3190  0.1398 -0.1544
  571MOL0     C75259   9.376   9.893   8.299 -0.1217  0.6103 -0.4534
  571MOL0     C75260   9.496   9.869   8.375 -0.2846 -0.3880 -1.1765
  571MOL0     C75261   9.507   9.715   8.434 -0.1525 -0.4477  0.6884
  571MOL0     C75262   9.450   9.696   8.567  0.1068  0.5309  0.0743
  571MOL0     C75263   9.300   9.689   8.567  0.3254 -0.4046  0.7120
  571MOL0     O75264   9.250   9.573   8.491  0.4481  0.1827 -0.4498
  571MOL0     C75265   9.114   9.556   8.496  0.7985 -0.2409 -0.0805
  571MOL0     C75266   9.063   9.427   8.464  0.8709 -0.9475  0.0529
  571MOL0     C75267   8.923   9.407   8.464  0.3850  0.9908  1.1302
  571MOL0     C75268   8.834   9.516   8.494 -0.5923  0.5254  0.4968
  571MOL0     C75269   8.688   9.501   8.488  0.4281  0.5380 -0.6761
  571MOL0     O75270   8.625   9.409   8.410 -0.0486  0.3339 -0.1695
  571MOL0     C75271   8.486   9.399   8.409  0.3855  0.5253 -1.2074
  571MOL0     C75272   8.407   9.411   8.523  0.1585 -0.2963  0.5570
  571MOL0     C75273   8.268   9.363   8.520 -0.1621  0.1482 -0.0025
  571MOL0     C75274   8.215   9.322   8.396  0.1574 -0.6423 -0.3616
  571MOL0     O75275   8.087   9.272   8.408 -0.0879 -0.2213  0.4930
  571MOL0     C75276   8.062   9.150   8.333 -0.2401 -0.3647  0.1562
  571MOL0     C75277   7.910   9.133   8.334 -0.9922 -0.6963  0.3829
  571MOL0     C75278   7.858   9.111   8.478 -1.3241  0.0933  1.0093
  571MOL0     C75279   7.714   9.097   8.469  0.9370  0.3949 -1.6080
  571MOL0     C75280   7.652   9.084   8.600  0.2113 -0.3952 -0.8128
  571MOL0     C75281   7.658   8.948   8.672 -0.0333 -0.3894  0.1113
  571MOL0     C75282   7.583   8.827   8.603 -0.8330 -0.6013 -0.7077
  571MOL0     C75283   7.430   8.830   8.588  0.3779 -0.3512 -0.5898
  571MOL0    Cl75284   7.346   8.856   8.742 -0.0183 -0.4009  0.0036
  571MOL0     C75285   8.290   9.333   8.274 -0.9389 -0.8562  0.2157
  571MOL0     C75286   8.423   9.365   8.290  1.0597 -0.5710 -0.3554
  571MOL0     O75287   8.631   9.591   8.543  0.0665  0.0690  0.0985
  571MOL0     C75288   8.892   9.637   8.531 -0.2095 -1.1669 -0.0631
  571MOL0     C75289   9.026   9.664   8.524 -0.5327 -0.1426  0.0274
  571MOL0     N75290   9.302  10.008   8.314 -0.2762 -0.6095 -0.6873
  571MOL0     N75291   9.212  10.001   8.224  0.9331 -0.0634  0.3316
  571MOL0     C75292   8.885   9.527   7.531 -0.3936 -0.0377  0.2237
  571MOL0     C75293   8.988   9.616   7.506  0.1068  0.7010  0.4571
  571MOL0     C75294   9.255   9.888   7.368 -0.2673 -0.0067 -0.1381
  571MOL0     C75295   9.337   9.868   7.473  0.0077  0.0293  0.1344
  571MOL0     C75296   9.468   9.917   7.473 -0.5977 -0.0543  0.6723
  571MOL0     C75297   9.523   9.987   7.365 -0.2568 -0.3315 -0.3520
  571MOL0     O75298   9.653  10.033   7.368 -0.7356 -0.5583 -0.6927
  571MOL0     C75299   9.727  10.044   7.493  1.0111 -0.4110  0.2524
  571MOL0     C75300   9.851  10.124   7.476 -0.1642  0.3017 -0.7942
  571MOL0     C75301   9.930  10.149   7.603 -0.5621  0.0862 -0.0182
  571MOL0     C75302  10.073  10.203   7.562 -0.7431  0.5814  0.1870
  571MOL0     C75303  10.147  10.264   7.676  0.1278  0.4975 -0.0884
  571MOL0     C75304  10.217  10.322   7.753  0.3687  0.0866  0.5579
  571MOL0     C75305   9.438   9.998   7.249  0.4584  0.3989 -1.2747
  571MOL0     C75306   9.302   9.956   7.255 -0.0883 -0.1992 -0.8259
  571MOL0     H75307   8.827   9.904   7.583  1.8442  0.7224  0.3214
  571MOL0     H75308   8.643   9.753   7.626 -0.9045 -1.9189  0.3570
  571MOL0     H75309   8.478   9.405   7.657  0.7644 -1.8846  1.8676
  571MOL0     H75310   8.532   9.572   7.689 -0.5545 -0.1677  0.3910
  571MOL0     H75311   8.679   9.326   7.801 -2.1765 -0.6637 -0.7260
  571MOL0     H75312   8.549   9.391   7.889 -0.2773 -0.9356 -0.3435
  571MOL0     H75313   8.674   9.619   7.903 -0.2713 -0.0973 -1.8764
  571MOL0     H75314   8.812   9.534   7.839 -0.9967 -2.4509 -1.5701
  571MOL0     H75315   8.664   9.495   8.105 -0.8516  2.6877 -2.1484
  571MOL0     H75316   8.749   9.361   8.019 -0.3593  0.0622  1.2702
  571MOL0     H75317   8.970   9.472   8.047  0.7620 -2.6041  1.9078
  571MOL0     H75318   8.890   9.485   8.193  2.0297 -2.5590 -0.7131
  571MOL0     H75319   8.810   9.727   8.118 -2.5364 -1.0730 -2.7927
  571MOL0     H75320   8.892   9.711   7.970  0.7399  3.9231  0.1235
  571MOL0     H75321   8.993   9.738   8.253  1.6553 -1.8494  0.9541
  571MOL0     H75322   9.092   9.636   8.167 -1.9541  0.1472  1.3039
  571MOL0     H75323   9.034   9.924   8.066  0.0921  0.5625  0.2632
  571MOL0     H75324   9.137   9.807   7.980 -0.7708 -2.9682  1.0779
  571MOL0     H75325   9.355   9.718   8.183  1.0965 -0.3149  2.9136
  571MOL0     H75326   9.504   9.936   8.461 -0.4656 -1.4074 -0.3574
  571MOL0     H75327   9.574   9.894   8.301  0.0296 -0.5658 -0.9047
  571MOL0     H75328   9.611   9.685   8.450 -0.3793 -2.2715 -0.8565
  571MOL0     H75329   9.458   9.647   8.364  0.1014  0.7353 -0.7004
  571MOL0     H75330   9.499   9.613   8.619 -0.2562  1.0566  1.3174
  571MOL0     H75331   9.470   9.779   8.636 -0.5294  1.4574 -0.8336
  571MOL0     H75332   9.270   9.780   8.513 -1.8905 -0.2630  2.0244
  571MOL0     H75333   9.251   9.672   8.664 -2.4337 -1.8180 -0.7972
  571MOL0     H75334   9.129   9.345   8.437  0.0314 -1.3756 -0.7023
  571MOL0     H75335   8.880   9.313   8.432 -0.8792  2.3522 -1.5586
  571MOL0     H75336   8.439   9.446   8.620  0.0528  2.7966 -0.4298
  571MOL0     H75337   8.214   9.352   8.613  0.5270 -0.9062  0.2885
  571MOL0     H75338   8.122   9.074   8.384  0.8889  0.0755 -0.4711
  571MOL0     H75339   8.092   9.163   8.228  0.9041 -2.7467  0.1176
  571MOL0     H75340   7.878   9.050   8.272  0.5256 -0.4306 -0.8395
  571MOL0     H75341   7.858   9.219   8.291 -0.5217 -0.2008  0.7834
  571MOL0     H75342   7.888   9.195   8.540  4.7761 -0.3617 -0.7284
  571MOL0     H75343   7.897   9.017   8.517  0.2336 -0.7878 -2.3308
  571MOL0     H75344   7.676   9.185   8.416 -1.5555 -0.7868 -1.9114
  571MOL0     H75345   7.677   9.012   8.411  0.1290 -0.2031 -0.2592
  571MOL0     H75346   7.545   9.103   8.586 -0.0977 -0.5881  1.0210
  571MOL0     H75347   7.685   9.156   8.675  0.8620 -0.0330 -1.4323
  571MOL0     H75348   7.605   8.969   8.765 -2.0649 -0.2745 -1.0033
  571MOL0     H75349   7.759   8.917   8.698  0.8699  2.9696  1.0495
  571MOL0     H75350   7.630   8.809   8.505  2.6999 -0.7220  0.8697
  571MOL0     H75351   7.607   8.741   8.666 -0.4983  0.5232  0.7289
  571MOL0     H75352   7.392   8.739   8.541  0.1930 -0.2977 -0.5448
  571MOL0     H75353   7.403   8.914   8.524  2.0224  1.1244  0.5658
  571MOL0     H75354   8.245   9.323   8.176 -0.2826 -2.7161  0.0623
  571MOL0     H75355   8.488   9.372   8.203 -2.1215 -2.3611 -3.1563
  571MOL0     H75356   8.827   9.719   8.558  0.5124 -0.3084 -0.8716
  571MOL0     H75357   9.064   9.765   8.536 -1.6799  0.3632 -0.4366
  571MOL0     H75358   8.895   9.419   7.537 -1.1913 -0.0602  1.6205
  571MOL0     H75359   9.084   9.574   7.477  0.8641 -1.6744  5.4596
  571MOL0     H75360   9.311   9.807   7.558  0.4153  1.2603  1.1663
  571MOL0     H75361   9.527   9.917   7.564 -3.0148  1.1244  2.3352
  571MOL0     H75362   9.751   9.947   7.538 -1.3377 -0.2057  2.1326
  571MOL0     H75363   9.660  10.090   7.566 -0.7654 -1.8086 -0.4112
  571MOL0     H75364   9.918  10.060   7.419 -0.2626 -1.2780  0.7779
  571MOL0     H75365   9.827  10.222   7.433  0.0313 -0.3128 -2.3483
  571MOL0     H75366   9.950  10.054   7.652  0.3155 -0.7720 -1.9211
  571MOL0     H75367   9.871  10.213   7.668  1.1451  1.5870  0.1365
  571MOL0     H75368  10.135  10.124   7.519 -0.6364  1.0948 -0.6241
  571MOL0     H75369  10.078  10.277   7.482  1.4191 -1.2416 -1.5208
  571MOL0     H75370  10.282  10.382   7.814  2.2754  1.4058 -2.4876
  571MOL0     H75371   9.465  10.060   7.164 -0.4100  1.5362 -0.7517
  571MOL0     H75372   9.244   9.981   7.167 -0.1512  0.7090 -0.5267
  572MOL0     O75373   8.030   9.357   6.093 -0.5998  0.3271 -0.1885
  572MOL0     C75374   8.066   9.424   5.999 -0.0535 -0.9177 -0.5426
  572MOL0     O75375   7.990   9.524   5.944  0.2649  0.4090 -0.7723
  572MOL0     C75376   7.866   9.550   5.991 -0.0089 -0.7447  0.6955
  572MOL0     C75377   7.859   9.628   6.111 -0.5147  0.2565  0.6028
  572MOL0     C75378   7.734   9.655   6.161  0.0260  0.5783  0.2289
  572MOL0     C75379   7.616   9.613   6.101  0.0272 -1.3043 -0.2208
  572MOL0     O75380   7.501   9.639   6.165 -0.9173  1.0015 -0.7342
  572MOL0     C75381   7.381   9.662   6.103 -0.1827 -0.0238  0.3578
  572MOL0     C75382   7.281   9.750   6.184 -0.0343  0.3845  0.5405
  572MOL0     C75383   7.164   9.791   6.098 -0.0784 -1.0977 -0.4029
  572MOL0     C75384   7.040   9.844   6.171 -0.7216 -0.5113 -0.4547
  572MOL0     C75385   6.916   9.836   6.083  0.2173 -0.5776 -0.0468
  572MOL0     C75386   6.812   9.929   6.147  0.4039 -0.7147  0.6078
  572MOL0     C75387   6.687   9.955   6.058  0.1801 -0.4712  1.1597
  572MOL0     C75388   6.622   9.824   6.019  0.5438 -0.1105  0.2494
  572MOL0     N75389   6.513   9.834   5.920  0.2708 -0.7223 -0.3462
  572MOL0     C75390   6.526   9.835   5.786  0.0636  0.6764  0.4409
  572MOL0     C75391   6.415   9.895   5.738  0.5262 -0.4480  0.7788
  572MOL0     C75392   6.375   9.915   5.592 -0.5245  0.1477 -0.2982
  572MOL0     C75393   6.222   9.937   5.581 -0.3580  0.7249 -0.5629
  572MOL0     C75394   6.177   9.983   5.441  0.0772  0.4476  0.1909
  572MOL0     C75395   6.210  10.128   5.417  0.8284 -0.2222 -0.4196
  572MOL0     O75396   6.180  10.160   5.285 -0.4101 -0.2868  0.6037
  572MOL0     C75397   6.054  10.199   5.251 -0.1052  0.3148 -0.2016
  572MOL0     C75398   6.016  10.190   5.121 -0.0222 -0.2436  0.6537
  572MOL0     C75399   5.886  10.210   5.081 -0.7174 -0.1252 -0.1240
  572MOL0     C75400   5.790  10.244   5.169 -0.3347 -0.2545 -0.3483
  572MOL0     C75401   5.648  10.249   5.134 -0.1316 -0.3711 -0.8375
  572MOL0     O75402   5.610  10.215   5.013 -0.5708  0.0647  0.3102
  572MOL0     C75403   5.476  10.211   4.974  0.1847  0.2270  0.4482
  572MOL0     C75404   5.456  10.248   4.843  0.1106  0.1310 -0.5615
  572MOL0     C75405   5.344  10.208   4.777 -0.0766  0.1188 -0.5505
  572MOL0     C75406   5.242  10.131   4.836  0.0912 -0.4655 -1.1284
  572MOL0     O75407   5.147  10.084   4.744 -0.2796  0.7553 -0.7458
  572MOL0     C75408   5.034  10.014   4.802 -0.1612  0.3563  0.3003
  572MOL0     C75409   4.930  10.112   4.857 -0.6335 -0.1368 -0.9956
  572MOL0     C75410   4.789  10.051   4.882 -0.1585 -0.2086  0.6184
  572MOL0     C75411   4.671  10.140   4.817 -0.5924 -0.0146 -1.0851
  572MOL0     C75412   4.541  10.050   4.816 -0.2036 -0.7843  0.4530
  572MOL0     C75413   4.495  10.001   4.954 -0.0940  0.6911  0.4772
  572MOL0     C75414   4.342   9.989   4.939  0.2399  0.2593 -0.1209
  572MOL0     C75415   4.291   9.893   5.038  0.1212 -0.2018  0.0695
  572MOL0    Cl75416   4.128   9.812   4.984 -0.3823 -0.1940 -0.2186
  572MOL0     C75417   5.251  10.107   4.984 -0.6454 -0.7774  0.0204
  572MOL0     C75418   5.375  10.147   5.040  0.0789 -0.2476  0.6685
  572MOL0     O75419   5.573  10.294   5.222 -0.5595  0.6972 -0.1446
  572MOL0     C75420   5.834  10.268   5.300  0.4312  0.3142  0.2609
  572MOL0     C75421   5.963  10.248   5.343 -0.2826  0.3133  0.4704
  572MOL0     N75422   6.346   9.942   5.846  0.7262 -0.9305  0.4027
  572MOL0     N75423   6.400   9.912   5.954  0.4137 -0.4077  0.1266
  572MOL0     C75424   7.625   9.546   5.985 -0.5844 -0.2289  0.2838
  572MOL0     C75425   7.750   9.500   5.929 -0.8058 -0.5843  0.4421
  572MOL0     C75426   8.207   9.401   5.952 -0.3150  0.3369 -0.1083
  572MOL0     C75427   8.271   9.274   5.963  0.5840 -0.6059 -0.1287
  572MOL0     C75428   8.403   9.264   5.931  0.0958 -0.4336  0.9104
  572MOL0     C75429   8.485   9.365   5.877 -0.3353  0.4634  0.1268
  572MOL0     O75430   8.612   9.329   5.856 -0.5310 -0.1151 -0.6586
  572MOL0     C75431   8.709   9.439   5.850 -0.8561 -1.0895  0.4222
  572MOL0     C75432   8.850   9.394   5.824  0.0070  0.3821  0.3750
  572MOL0     C75433   8.902   9.306   5.941  1.0344  0.0505  0.3414
  572MOL0     C75434   9.047   9.251   5.906  0.7717  0.4110  0.3668
  572MOL0     C75435   9.137   9.358   5.845  0.3140  0.2333 -1.5023
  572MOL0     C75436   9.214   9.444   5.810 -0.2477  0.1869  0.2198
  572MOL0     C75437   8.424   9.489   5.857  0.6147 -0.4157 -0.2451
  572MOL0     C75438   8.282   9.504   5.883 -0.1433 -0.0507  1.6845
  572MOL0     H75439   7.952   9.662   6.157  0.4020 -3.4061  1.7987
  572MOL0     H75440   7.719   9.706   6.256  1.4688 -2.0859  2.0200
  572MOL0     H75441   7.335   9.567   6.075 -2.1524  1.0877 -0.3591
  572MOL0     H75442   7.418   9.721   6.019  1.4099 -2.6505 -0.9157
  572MOL0     H75443   7.324   9.840   6.230  0.8244  1.7635 -2.6500
  572MOL0     H75444   7.236   9.699   6.270 -3.0697  2.2106  0.1945
  572MOL0     H75445   7.130   9.705   6.040 -1.2071 -0.2351 -1.0781
  572MOL0     H75446   7.201   9.861   6.022 -0.9603 -0.3271 -0.1529
  572MOL0     H75447   7.013   9.797   6.266  1.0731  0.8621  0.8118
  572MOL0     H75448   7.060   9.948   6.197  0.9765 -0.2271 -2.6031
  572MOL0     H75449   6.871   9.736   6.081 -2.2203  0.4656 -0.9727
  572MOL0     H75450   6.934   9.869   5.980  1.1193  0.7293  0.5117
  572MOL0     H75451   6.854  10.029   6.161 -0.9775  0.2734 -1.6243
  572MOL0     H75452   6.780   9.885   6.241 -0.9803  0.2325  0.6091
  572MOL0     H75453   6.620  10.014   6.120 -0.8005  0.2514 -0.5322
  572MOL0     H75454   6.713  10.012   5.969 -0.6685 -0.8740  0.6454
  572MOL0     H75455   6.579   9.786   6.113 -1.1812  2.6891  0.6981
  572MOL0     H75456   6.692   9.755   5.972  1.0053  2.0323 -2.4325
  572MOL0     H75457   6.601   9.774   5.737 -0.4972 -1.3027  1.9155
  572MOL0     H75458   6.417   9.839   5.526  0.0751  1.5681 -1.6164
  572MOL0     H75459   6.433   9.998   5.551 -0.6156  0.4915  0.2553
  572MOL0     H75460   6.166   9.983   5.663 -1.6570 -0.3788 -0.7973
  572MOL0     H75461   6.172   9.839   5.585  0.8946  0.0920  0.1082
  572MOL0     H75462   6.213   9.913   5.365 -1.0287 -0.3518  0.3874
  572MOL0     H75463   6.069   9.970   5.437  0.0501  0.8670 -1.3048
  572MOL0     H75464   6.318  10.145   5.420  0.8009  0.0605 -0.8568
  572MOL0     H75465   6.167  10.198   5.489 -2.0846 -3.5219  1.3743
  572MOL0     H75466   6.085  10.166   5.040 -2.2334  2.1461 -2.1932
  572MOL0     H75467   5.865  10.188   4.977  0.2783  1.2617 -0.6479
  572MOL0     H75468   5.538  10.304   4.799  1.3259 -0.4120  0.9276
  572MOL0     H75469   5.327  10.238   4.674 -0.9980  2.3564  0.2004
  572MOL0     H75470   5.069   9.943   4.878 -0.6035  0.1301  0.2973
  572MOL0     H75471   4.985   9.953   4.725  0.7173 -1.0935  0.8332
  572MOL0     H75472   4.921  10.195   4.785 -1.3937  1.5276  0.9255
  572MOL0     H75473   4.963  10.156   4.952 -2.2381 -0.1006 -0.4271
  572MOL0     H75474   4.763  10.031   4.986 -1.0833 -1.1390  0.2238
  572MOL0     H75475   4.782   9.957   4.827 -1.2634  0.8969 -1.2533
  572MOL0     H75476   4.644  10.231   4.872 -1.8134 -1.1368  0.2492
  572MOL0     H75477   4.699  10.166   4.715 -0.7129  0.8149 -0.9228
  572MOL0     H75478   4.547   9.973   4.738 -1.3475  1.2726 -1.8031
  572MOL0     H75479   4.469  10.125   4.783  1.3742 -0.8767 -3.8847
  572MOL0     H75480   4.525  10.059   5.042 -2.2597 -0.2016  1.8838
  572MOL0     H75481   4.549   9.907   4.960  1.2088  1.3785 -0.0912
  572MOL0     H75482   4.291  10.085   4.950  0.0749  0.0549  1.0929
  572MOL0     H75483   4.320   9.951   4.839  0.6647 -0.0490 -0.1003
  572MOL0     H75484   4.268   9.948   5.130 -0.5026  1.0184 -0.7992
  572MOL0     H75485   4.358   9.809   5.060 -2.3706 -2.1398  0.8030
  572MOL0     H75486   5.186  10.052   5.051  0.4471  1.2002  2.8897
  572MOL0     H75487   5.407  10.109   5.136  1.4696 -0.3471  0.1975
  572MOL0     H75488   5.767  10.316   5.370 -1.4805 -1.8347  0.0371
  572MOL0     H75489   5.989  10.277   5.444 -0.6680 -0.7639  0.8837
  572MOL0     H75490   7.524   9.519   5.955 -0.9956  1.3999  0.1200
  572MOL0     H75491   7.744   9.440   5.839 -0.8891  0.1083 -0.0212
  572MOL0     H75492   8.220   9.191   6.012  0.9645 -2.4000 -2.5887
  572MOL0     H75493   8.451   9.167   5.945  1.8161  0.1167 -0.8621
  572MOL0     H75494   8.701   9.494   5.945  1.0115  1.9193 -1.0220
  572MOL0     H75495   8.695   9.506   5.765  0.4131 -2.7944 -1.2025
  572MOL0     H75496   8.856   9.348   5.725 -1.2139 -0.0378  0.4848
  572MOL0     H75497   8.913   9.484   5.822  1.7030 -0.7268  1.2220
  572MOL0     H75498   8.840   9.217   5.955 -2.5471  1.7608 -2.7914
  572MOL0     H75499   8.901   9.363   6.034 -0.7307  1.2330 -0.3588
  572MOL0     H75500   9.084   9.215   6.003  1.1166 -3.0358 -0.9089
  572MOL0     H75501   9.050   9.162   5.843  0.4125 -0.2770  1.3052
  572MOL0     H75502   9.281   9.524   5.788  1.3394 -1.7068 -2.3913
  572MOL0     H75503   8.481   9.565   5.805  1.3282 -0.2425  0.7745
  572MOL0     H75504   8.223   9.588   5.848 -1.3757 -1.9142 -1.1013
  573MOL0     O75505   9.789  10.416   1.684 -0.4195 -0.2048 -0.2537
  573MOL0     C75506   9.820  10.510   1.764  1.0245  0.6902  0.4835
  573MOL0     O75507   9.740  10.588   1.839 -0.8171  0.5018 -0.5603
  573MOL0     C75508   9.606  10.592   1.825  0.4492 -0.4284  0.0411
  573MOL0     C75509   9.533  10.520   1.921  0.1462 -0.4202  0.1925
  573MOL0     C75510   9.390  10.527   1.909  0.0959 -0.5284 -0.2456
  573MOL0     C75511   9.326  10.615   1.821 -0.9417 -0.3523  0.4942
  573MOL0     O75512   9.193  10.616   1.803 -0.0488 -0.0357  0.9180
  573MOL0     C75513   9.137  10.688   1.693  0.6812  0.2522 -0.1734
  573MOL0     C75514   8.984  10.676   1.712  0.8888 -1.2457 -0.8061
  573MOL0     C75515   8.908  10.706   1.589  0.6759 -0.1081  0.3165
  573MOL0     C75516   8.760  10.713   1.631  0.2018 -0.0998  0.1212
  573MOL0     C75517   8.660  10.742   1.526  0.6172  0.3330 -0.3825
  573MOL0     C75518   8.518  10.767   1.571  0.4385 -0.1667  0.2547
  573MOL0     C75519   8.434  10.829   1.464  0.0510  0.2643 -0.5951
  573MOL0     C75520   8.362  10.728   1.373 -0.2269 -0.0839 -0.1167
  573MOL0     N75521   8.262  10.791   1.284 -0.3242  0.6229 -0.0928
  573MOL0     C75522   8.148  10.835   1.329 -0.3704 -0.4840 -0.1604
  573MOL0     C75523   8.075  10.866   1.218  0.6601 -0.3035  0.5514
  573MOL0     C75524   7.929  10.881   1.212 -0.5784 -0.3637 -0.6450
  573MOL0     C75525   7.855  10.785   1.133 -0.3358  0.3003  0.7947
  573MOL0     C75526   7.706  10.775   1.164 -0.7186  0.9329 -0.1041
  573MOL0     C75527   7.628  10.889   1.107 -0.2919  0.6157  0.5220
  573MOL0     O75528   7.574  10.842   0.984 -0.0190  0.6404 -0.5449
  573MOL0     C75529   7.453  10.891   0.958 -0.9134  0.6257 -0.6640
  573MOL0     C75530   7.379  10.797   0.885  0.4601 -0.8057 -0.2065
  573MOL0     C75531   7.240  10.816   0.856 -0.5274  0.4134 -1.1500
  573MOL0     C75532   7.182  10.927   0.907  0.2513 -0.7090  0.2646
  573MOL0     C75533   7.047  10.957   0.865 -0.6786  0.2131 -0.1467
  573MOL0     O75534   7.019  11.092   0.857 -0.6204  0.7294  0.2940
  573MOL0     C75535   6.920  11.142   0.793 -0.2041 -0.0784 -0.1831
  573MOL0     C75536   6.937  11.255   0.703  0.1138 -0.5972  0.5873
  573MOL0     C75537   6.830  11.314   0.635  0.8390 -0.3783 -0.2289
  573MOL0     C75538   6.701  11.256   0.649  0.2539  0.4541 -0.2949
  573MOL0     O75539   6.591  11.307   0.578 -0.4795 -0.3128 -0.2903
  573MOL0     C75540   6.620  11.403   0.475 -0.2619  0.1140  0.7101
  573MOL0     C75541   6.497  11.443   0.389 -1.0105  0.4526  0.9138
  573MOL0     C75542   6.415  11.325   0.359 -0.2276  0.0542 -0.8728
  573MOL0     C75543   6.288  11.369   0.297  0.5136 -1.0040  0.1820
  573MOL0     C75544   6.215  11.243   0.247 -0.2716  0.0592  0.4015
  573MOL0     C75545   6.118  11.270   0.131 -1.1466  0.6899  0.1685
  573MOL0     C75546   6.009  11.369   0.169 -0.2594  1.0278  0.3850
  573MOL0     C75547   5.892  11.355   0.071  0.0769  0.3145  0.7735
  573MOL0    Cl75548   5.920  11.457  -0.084 -0.1670  0.3448  0.1107
  573MOL0     C75549   6.675  11.151   0.740 -0.3156  0.2906 -0.9532
  573MOL0     C75550   6.787  11.090   0.813  0.2736 -0.7230  0.6719
  573MOL0     O75551   6.973  10.861   0.836  0.0330  0.3069 -0.6459
  573MOL0     C75552   7.257  11.027   0.974  0.9234 -0.5445 -0.2417
  573MOL0     C75553   7.394  11.005   0.999  0.9006 -0.4048 -0.9274
  573MOL0     N75554   8.153  10.838   1.108 -0.1320 -0.0047 -0.2984
  573MOL0     N75555   8.266  10.785   1.154 -0.3742 -0.5972  0.0679
  573MOL0     C75556   9.409  10.694   1.731  0.8201  0.5253 -0.5019
  573MOL0     C75557   9.550  10.678   1.734 -0.1574 -0.2665  0.3033
  573MOL0     C75558   9.963  10.534   1.768  0.1190  0.4461  0.6662
  573MOL0     C75559  10.012  10.616   1.866  0.0062  0.1860 -0.0306
  573MOL0     C75560  10.147  10.653   1.863 -0.3203  1.1993  0.7168
  573MOL0     C75561  10.248  10.601   1.770  0.5478 -0.4336 -0.1760
  573MOL0     O75562  10.381  10.646   1.763 -0.1193  0.0984  0.3740
  573MOL0     C75563  10.452  10.645   1.639 -0.2223  0.3194 -0.0441
  573MOL0     C75564  10.526  10.772   1.651  0.2080  0.0454 -0.6722
  573MOL0     C75565  10.613  10.783   1.784 -0.2096 -0.3116 -0.3596
  573MOL0     C75566  10.690  10.906   1.792 -0.3494  0.4617  0.3164
  573MOL0     C75567  10.794  10.913   1.693  0.3740  0.0080  0.3747
  573MOL0     C75568  10.877  10.893   1.609 -0.4126 -0.3969 -0.3723
  573MOL0     C75569  10.196  10.513   1.678  0.4162 -0.8253 -0.1224
  573MOL0     C75570  10.058  10.469   1.684 -0.4948 -0.4068  0.3985
  573MOL0     H75571   9.598  10.455   1.979  0.8548 -0.1015 -0.2372
  573MOL0     H75572   9.324  10.469   1.972  1.0706 -0.8912  0.4733
  573MOL0     H75573   9.169  10.648   1.597  2.4741 -0.6672  0.7645
  573MOL0     H75574   9.166  10.794   1.692  1.0868  0.1401 -1.0716
  573MOL0     H75575   8.959  10.742   1.795  3.6507 -0.6565 -0.3199
  573MOL0     H75576   8.956  10.575   1.741  1.4473 -0.6199  2.2228
  573MOL0     H75577   8.924  10.625   1.518 -0.2831  0.6216 -0.7786
  573MOL0     H75578   8.938  10.794   1.532  0.1829  0.0359  0.2744
  573MOL0     H75579   8.735  10.612   1.664  3.4806 -1.6313 -1.5828
  573MOL0     H75580   8.758  10.779   1.718 -1.2906 -1.0586  0.8430
  573MOL0     H75581   8.660  10.661   1.453  0.7390  0.1276 -0.1531
  573MOL0     H75582   8.688  10.829   1.464 -1.1292  0.7910 -0.5894
  573MOL0     H75583   8.515  10.835   1.657 -0.0271 -1.0578  0.9603
  573MOL0     H75584   8.467  10.678   1.608  0.1311  0.7493  2.1407
  573MOL0     H75585   8.362  10.886   1.524 -0.0803 -0.3285 -0.1842
  573MOL0     H75586   8.497  10.903   1.412 -1.6455  2.2524  0.0352
  573MOL0     H75587   8.311  10.647   1.426  0.3044  0.2958  1.0082
  573MOL0     H75588   8.430  10.699   1.293  0.2476  1.8311 -0.4664
  573MOL0     H75589   8.110  10.843   1.430 -2.1666 -0.3744 -0.8137
  573MOL0     H75590   7.912  10.986   1.186 -3.0271 -0.2404  1.1405
  573MOL0     H75591   7.896  10.875   1.316 -1.9930  2.9885 -0.7605
  573MOL0     H75592   7.890  10.684   1.159 -1.7604 -0.9442 -1.7326
  573MOL0     H75593   7.863  10.810   1.026 -1.3257 -1.0898  0.3632
  573MOL0     H75594   7.670  10.681   1.121 -2.7698 -0.3718  3.9053
  573MOL0     H75595   7.682  10.755   1.269 -5.2012  0.3817 -1.0266
  573MOL0     H75596   7.690  10.977   1.086  0.5059 -0.3138 -1.2759
  573MOL0     H75597   7.551  10.906   1.183  0.7412  1.2491  1.4672
  573MOL0     H75598   7.429  10.707   0.851 -0.4244 -0.7683 -1.7187
  573MOL0     H75599   7.190  10.740   0.798  1.3882  0.2656 -2.7080
  573MOL0     H75600   7.038  11.294   0.697  0.2612 -1.1946 -1.7988
  573MOL0     H75601   6.857  11.397   0.570 -1.4271  0.4365 -0.2009
  573MOL0     H75602   6.695  11.360   0.406  0.2146 -0.4902  1.5866
  573MOL0     H75603   6.662  11.495   0.516 -0.9485  0.3425  0.8946
  573MOL0     H75604   6.543  11.483   0.298 -2.0560  3.5287  1.6273
  573MOL0     H75605   6.430  11.511   0.442 -0.1477  1.6277  0.5652
  573MOL0     H75606   6.386  11.274   0.452 -2.9514 -0.6071 -1.9844
  573MOL0     H75607   6.477  11.258   0.300 -1.8533 -0.2705 -2.2730
  573MOL0     H75608   6.219  11.410   0.371  2.8090  0.4519  1.6385
  573MOL0     H75609   6.291  11.438   0.212 -2.5282 -2.5920 -1.4102
  573MOL0     H75610   6.159  11.203   0.332  0.0217 -2.3813 -0.4879
  573MOL0     H75611   6.286  11.166   0.216  1.0151  1.2618  0.2662
  573MOL0     H75612   6.067  11.175   0.112  0.1521 -0.2606  1.3078
  573MOL0     H75613   6.173  11.295   0.039  1.4647 -1.3571  1.0335
  573MOL0     H75614   5.975  11.342   0.269  0.5838  2.3228  1.0354
  573MOL0     H75615   6.048  11.470   0.184 -0.3732  1.2892 -0.9580
  573MOL0     H75616   5.812  11.400   0.130  1.1543  1.9948  1.0390
  573MOL0     H75617   5.878  11.249   0.049  0.7098  0.2838  0.5096
  573MOL0     H75618   6.576  11.113   0.760  0.4735 -1.4863 -0.2797
  573MOL0     H75619   6.767  11.011   0.884 -2.4305 -1.1742 -0.4561
  573MOL0     H75620   7.208  11.123   0.988  4.9538  1.7773 -0.4352
  573MOL0     H75621   7.443  11.087   1.050  1.6460 -1.7956  0.7254
  573MOL0     H75622   9.375  10.768   1.659  2.4127  0.7106 -1.1167
  573MOL0     H75623   9.618  10.729   1.666  0.0735  0.1108  0.8096
  573MOL0     H75624   9.942  10.668   1.931  1.6396 -1.8743  3.7220
  573MOL0     H75625  10.175  10.724   1.940 -1.8810  2.4443  0.1765
  573MOL0     H75626  10.390  10.646   1.549 -0.1264  1.1020 -0.1039
  573MOL0     H75627  10.522  10.562   1.631 -0.1756  0.3773 -0.2519
  573MOL0     H75628  10.601  10.780   1.572  2.4063 -0.3335  1.2389
  573MOL0     H75629  10.455  10.855   1.646 -0.7533 -0.6827  0.3314
  573MOL0     H75630  10.685  10.702   1.799 -0.4113 -0.9688 -2.6384
  573MOL0     H75631  10.544  10.778   1.868 -1.1794  0.1671 -1.1092
  573MOL0     H75632  10.618  10.987   1.777 -2.2360 -1.3212 -0.7045
  573MOL0     H75633  10.738  10.930   1.887  0.3528 -0.3106  0.1641
  573MOL0     H75634  10.946  10.879   1.529 -2.1199  0.2907 -2.0230
  573MOL0     H75635  10.265  10.455   1.618  0.9294 -1.1657  0.7681
  573MOL0     H75636  10.010  10.397   1.619 -1.7876  1.6101 -1.0093
  574MOL0     O75637   8.425   0.354  11.156  0.3981  0.0221 -0.0353
  574MOL0     C75638   8.343   0.338  11.244  0.1200 -1.0228 -0.0807
  574MOL0     O75639   8.370   0.280  11.364  0.2290 -0.1563  0.1646
  574MOL0     C75640   8.496   0.237  11.394  0.0814 -0.0218  0.8311
  574MOL0     C75641   8.529   0.100  11.410  0.0927  0.0887 -0.2788
  574MOL0     C75642   8.653   0.057  11.457  0.3549  0.1393  0.0667
  574MOL0     C75643   8.756   0.140  11.490  0.0346 -0.3520 -0.4486
  574MOL0     O75644   8.880   0.092  11.529 -0.6037 -1.1415  0.6239
  574MOL0     C75645   8.965   0.083  11.414  0.5250 -1.0073 -0.1966
  574MOL0     C75646   9.112   0.060  11.440  0.1676 -0.1556  0.1123
  574MOL0     C75647   9.161   0.094  11.579  0.4292 -0.4425 -0.2069
  574MOL0     C75648   9.122   0.006  11.688  1.1339  0.3344 -0.7349
  574MOL0     C75649   9.176   0.039  11.822 -0.3795 -0.1609 -0.2317
  574MOL0     C75650   9.114  -0.055  11.930  0.7290 -0.4887  0.1584
  574MOL0     C75651   9.203  -0.083  12.056  0.6571 -0.2937  0.3431
  574MOL0     C75652   9.239   0.029  12.144 -0.0341 -0.1762 -0.2204
  574MOL0     N75653   9.115   0.103  12.181  0.2070 -0.2058  0.3372
  574MOL0     C75654   8.993   0.051  12.228 -1.0451 -0.7902  0.0456
  574MOL0     C75655   8.903   0.147  12.214  0.8889  0.2678 -0.3675
  574MOL0     C75656   8.755   0.124  12.235 -0.8572  0.7255  0.7163
  574MOL0     C75657   8.683   0.254  12.261  0.5504  0.8115  0.3856
  574MOL0     C75658   8.535   0.245  12.275 -0.3915  0.8046  0.0447
  574MOL0     C75659   8.470   0.385  12.251  0.7339 -0.0392 -0.6691
  574MOL0     O75660   8.330   0.366  12.257 -0.4438 -0.0223 -0.2483
  574MOL0     C75661   8.240   0.456  12.211 -0.0227 -0.3168  0.1223
  574MOL0     C75662   8.264   0.578  12.142  0.3488 -0.3872  0.3721
  574MOL0     C75663   8.169   0.653  12.071 -0.7525  0.3359 -0.3367
  574MOL0     C75664   8.036   0.614  12.089 -0.1205 -0.1498  0.3668
  574MOL0     C75665   7.925   0.702  12.041  0.4084  0.3322 -0.5174
  574MOL0     O75666   7.797   0.642  12.033  0.1803  0.2949 -0.2991
  574MOL0     C75667   7.682   0.707  11.998  0.3713 -0.0955  0.7479
  574MOL0     C75668   7.669   0.853  11.979  0.1900 -0.3660  0.1562
  574MOL0     C75669   7.547   0.907  11.926 -0.6988  1.5472 -0.3610
  574MOL0     C75670   7.442   0.816  11.897  0.1873 -1.2484  0.2757
  574MOL0     O75671   7.326   0.875  11.847 -0.0616  0.2164 -0.1438
  574MOL0     C75672   7.252   0.787  11.752  0.3157 -0.0076 -0.9152
  574MOL0     C75673   7.154   0.874  11.678  0.3890 -0.0826 -0.1444
  574MOL0     C75674   7.054   0.781  11.603 -0.0908  0.4927 -0.7491
  574MOL0     C75675   6.971   0.859  11.512  0.1352 -0.5332  0.9208
  574MOL0     C75676   6.875   0.769  11.434  0.6138  0.5327  0.6401
  574MOL0     C75677   6.788   0.856  11.337  0.1676  0.7176  1.3512
  574MOL0     C75678   6.681   0.764  11.278  0.9858  0.6502  0.3537
  574MOL0     C75679   6.585   0.840  11.185  0.3930 -0.3938  0.8068
  574MOL0    Cl75680   6.673   0.873  11.029 -0.0423 -0.3250  0.0855
  574MOL0     C75681   7.465   0.676  11.901  0.2568 -0.4468 -0.1031
  574MOL0     C75682   7.578   0.624  11.957 -0.8769  0.1508  0.0476
  574MOL0     O75683   7.956   0.811  12.001 -0.8656  0.3478 -0.0454
  574MOL0     C75684   8.005   0.499  12.162 -0.7009 -0.5101  0.0616
  574MOL0     C75685   8.105   0.423  12.221 -0.4775  0.3194 -0.7483
  574MOL0     N75686   8.965   0.264  12.172  0.6658 -0.2146  0.1045
  574MOL0     N75687   9.091   0.232  12.159 -0.1293  0.4027  0.4984
  574MOL0     C75688   8.730   0.277  11.478 -0.0534  0.1229  0.6462
  574MOL0     C75689   8.603   0.322  11.432  0.0593  0.0948  0.2765
  574MOL0     C75690   8.201   0.361  11.213  0.7149  0.2688  0.5080
  574MOL0     C75691   8.105   0.376  11.320 -0.3680  0.7253  0.6963
  574MOL0     C75692   7.966   0.389  11.283 -0.6900 -0.6625  0.4704
  574MOL0     C75693   7.926   0.375  11.149 -0.8598  0.7753 -0.4205
  574MOL0     O75694   7.805   0.340  11.096  0.0715  0.1711 -0.1602
  574MOL0     C75695   7.686   0.353  11.180  0.3936  0.0961 -0.0963
  574MOL0     C75696   7.556   0.339  11.105  0.1739  0.3994 -0.5884
  574MOL0     C75697   7.566   0.401  10.968  0.3901  0.3053 -0.0537
  574MOL0     C75698   7.427   0.428  10.911 -0.4082 -0.7945  1.2058
  574MOL0     C75699   7.361   0.304  10.886 -0.1076  0.6666 -0.4732
  574MOL0     C75700   7.313   0.196  10.837  0.2063 -0.2746 -0.0836
  574MOL0     C75701   8.025   0.361  11.049  0.3324  0.4471 -0.5836
  574MOL0     C75702   8.160   0.372  11.081 -0.0038 -0.9955  0.5952
  574MOL0     H75703   8.462   0.018  11.386  0.8469 -0.9033  0.8936
  574MOL0     H75704   8.667  -0.051  11.456  1.5870  0.2829  0.1964
  574MOL0     H75705   8.959   0.173  11.354  0.1362 -0.0374  1.2422
  574MOL0     H75706   8.931  -0.001  11.353 -0.5912 -0.7583  0.0636
  574MOL0     H75707   9.178   0.119  11.376 -3.2375  2.4831 -1.2626
  574MOL0     H75708   9.132  -0.046  11.419  2.4598 -0.7872  4.2933
  574MOL0     H75709   9.127   0.196  11.603  4.1407  0.9240 -0.0463
  574MOL0     H75710   9.270   0.100  11.573  0.5105 -2.1621 -0.9697
  574MOL0     H75711   9.014  -0.011  11.682  0.8983  0.4679  1.9630
  574MOL0     H75712   9.168  -0.091  11.667 -0.3660 -0.0500 -2.5067
  574MOL0     H75713   9.150   0.144  11.840 -0.6449 -0.1724 -0.5431
  574MOL0     H75714   9.284   0.037  11.837 -0.4190  0.1484  0.0947
  574MOL0     H75715   9.083  -0.152  11.889 -1.3879  0.2727 -0.1745
  574MOL0     H75716   9.020  -0.006  11.955  0.7230 -2.1324  4.0427
  574MOL0     H75717   9.151  -0.163  12.110  0.0529  0.7516  1.3550
  574MOL0     H75718   9.297  -0.135  12.033 -0.6833 -2.6565 -0.1547
  574MOL0     H75719   9.303   0.096  12.087 -1.6485  1.3558 -0.3251
  574MOL0     H75720   9.290   0.000  12.236 -0.0531  1.2870  0.2701
  574MOL0     H75721   8.966  -0.053  12.247  1.5201 -1.7353 -1.0150
  574MOL0     H75722   8.748   0.067  12.328 -1.2289 -1.7860 -0.7724
  574MOL0     H75723   8.705   0.070  12.154 -0.1427 -0.4498  1.0452
  574MOL0     H75724   8.706   0.322  12.179 -0.1656  1.8577  1.0273
  574MOL0     H75725   8.716   0.302  12.354  0.2774 -0.6146  1.2583
  574MOL0     H75726   8.498   0.167  12.208  2.8582 -1.0018  0.1023
  574MOL0     H75727   8.515   0.210  12.376 -0.1686 -0.3355 -0.2913
  574MOL0     H75728   8.502   0.418  12.152  0.3196 -0.1428 -0.8389
  574MOL0     H75729   8.498   0.457  12.329 -0.8117  0.7585 -0.8207
  574MOL0     H75730   8.360   0.628  12.151  0.3901 -0.6178  1.2840
  574MOL0     H75731   8.192   0.750  12.028 -2.3937  1.5524  1.3237
  574MOL0     H75732   7.738   0.931  12.008 -0.6850  0.6453 -0.4087
  574MOL0     H75733   7.537   1.014  11.918 -0.6054  2.1707  4.7347
  574MOL0     H75734   7.191   0.721  11.814 -0.4504  3.6279  2.6303
  574MOL0     H75735   7.316   0.733  11.681 -0.5890 -1.8747 -0.3736
  574MOL0     H75736   7.213   0.929  11.604 -1.4363  2.0063 -0.1275
  574MOL0     H75737   7.107   0.938  11.753  1.6852 -1.7846  2.2881
  574MOL0     H75738   6.996   0.734  11.683  0.6521  0.6255 -0.1252
  574MOL0     H75739   7.113   0.704  11.553 -0.1664 -1.1700  1.5834
  574MOL0     H75740   6.903   0.927  11.563 -0.1123 -0.1440  0.0873
  574MOL0     H75741   7.036   0.903  11.435 -1.0983 -0.3139 -0.0291
  574MOL0     H75742   6.816   0.713  11.507  0.8077  1.1082  1.2528
  574MOL0     H75743   6.933   0.707  11.364  0.8579 -0.5846  1.7909
  574MOL0     H75744   6.852   0.895  11.258  0.0496 -2.6313 -0.5796
  574MOL0     H75745   6.749   0.942  11.393  4.1760  1.9974  2.5254
  574MOL0     H75746   6.713   0.673  11.226  0.2173  0.8709 -0.5240
  574MOL0     H75747   6.615   0.729  11.358 -0.2006  0.0530 -0.8570
  574MOL0     H75748   6.549   0.937  11.221  1.3062  0.6343 -0.9314
  574MOL0     H75749   6.492   0.784  11.174  1.4502 -1.9253 -0.7999
  574MOL0     H75750   7.387   0.609  11.866  1.1671 -0.8727 -1.3823
  574MOL0     H75751   7.597   0.517  11.962  3.4552  0.5878 -2.3967
  574MOL0     H75752   7.900   0.471  12.158 -0.7207 -0.3857 -0.4287
  574MOL0     H75753   8.081   0.329  12.269 -3.6194  0.6168 -1.5045
  574MOL0     H75754   8.810   0.345  11.505  1.1411 -0.4329 -1.2725
  574MOL0     H75755   8.579   0.428  11.426 -0.4153 -0.0276 -0.0290
  574MOL0     H75756   8.143   0.393  11.420  1.6686  4.1924 -0.4805
  574MOL0     H75757   7.891   0.406  11.359 -0.0809  1.0599  0.7366
  574MOL0     H75758   7.683   0.452  11.226  2.0334 -0.6844  1.8602
  574MOL0     H75759   7.687   0.274  11.257 -2.1823 -1.3922 -1.4509
  574MOL0     H75760   7.530   0.233  11.111  0.8623  0.2296 -0.4910
  574MOL0     H75761   7.474   0.384  11.162 -2.8796 -3.1248 -1.7816
  574MOL0     H75762   7.629   0.337  10.905  2.7480  1.5698  0.9091
  574MOL0     H75763   7.617   0.497  10.973  1.2750 -0.1931  0.9682
  574MOL0     H75764   7.363   0.488  10.975 -1.4812 -0.1164 -0.4299
  574MOL0     H75765   7.437   0.481  10.816  0.1838  0.9276  2.1852
  574MOL0     H75766   7.267   0.117  10.782 -2.8169  2.1368 -1.3225
  574MOL0     H75767   8.005   0.352  10.943 -1.1102 -1.7856 -0.1902
  574MOL0     H75768   8.237   0.381  11.004  1.5395  1.7157  2.2704
  575MOL0     O75769  10.517   4.485   5.923 -0.2676 -0.4484 -0.1228
  575MOL0     C75770  10.596   4.519   6.010 -1.0328  0.3811 -0.4791
  575MOL0     O75771  10.619   4.458   6.127 -0.1976 -0.3946  0.1513
  575MOL0     C75772  10.577   4.328   6.144 -0.1133 -0.1285  0.1494
  575MOL0     C75773  10.451   4.273   6.103  0.4708  0.7758 -0.5407
  575MOL0     C75774  10.415   4.145   6.146  0.1340  0.5151  0.4969
  575MOL0     C75775  10.509   4.058   6.212  1.2436 -0.3126  0.5268
  575MOL0     O75776  10.469   3.938   6.266 -0.2783  0.1786 -0.0517
  575MOL0     C75777  10.339   3.917   6.305  0.1891 -0.3036 -0.3206
  575MOL0     C75778  10.311   3.778   6.345 -0.2070  0.5082  0.0626
  575MOL0     C75779  10.159   3.754   6.365 -0.3975 -0.1271  0.0588
  575MOL0     C75780  10.124   3.604   6.394  0.3776 -0.1794 -0.3775
  575MOL0     C75781   9.970   3.581   6.386 -0.2463  0.4004  0.0304
  575MOL0     C75782   9.934   3.504   6.506  1.4128  0.4568  0.4603
  575MOL0     C75783   9.786   3.450   6.502  0.2241 -0.1666  0.2474
  575MOL0     C75784   9.670   3.551   6.514  0.6554  0.3091  0.5613
  575MOL0     N75785   9.543   3.484   6.499  0.4655  0.5500  0.5794
  575MOL0     C75786   9.466   3.454   6.605 -0.3092  0.3580 -0.0824
  575MOL0     C75787   9.353   3.408   6.550 -0.0967 -0.5382  0.5601
  575MOL0     C75788   9.229   3.379   6.629  0.3594 -0.1047 -0.8195
  575MOL0     C75789   9.256   3.324   6.773 -0.2421 -1.0795 -0.1528
  575MOL0     C75790   9.135   3.240   6.819 -1.1451 -0.2114 -0.4581
  575MOL0     C75791   9.152   3.213   6.970  0.0153  0.5307  0.8659
  575MOL0     O75792   9.274   3.152   7.001 -0.0424  1.0636 -0.8369
  575MOL0     C75793   9.258   3.025   7.061  0.9805  0.5950 -0.5016
  575MOL0     C75794   9.363   2.988   7.142 -0.8630  0.3415  1.6684
  575MOL0     C75795   9.369   2.871   7.203 -0.1392  1.0212 -0.2439
  575MOL0     C75796   9.264   2.782   7.199 -0.2318  0.2880 -0.4660
  575MOL0     C75797   9.277   2.647   7.272  0.4193  0.5841  0.9423
  575MOL0     O75798   9.397   2.616   7.315  0.1740  0.4553  0.7459
  575MOL0     C75799   9.441   2.479   7.348 -1.2135 -1.3223 -0.4808
  575MOL0     C75800   9.510   2.402   7.255 -0.1063  1.0244 -0.5129
  575MOL0     C75801   9.551   2.265   7.282 -0.3805 -0.7718  0.0624
  575MOL0     C75802   9.507   2.207   7.400  0.8595  0.4512  0.1358
  575MOL0     O75803   9.538   2.074   7.424  0.1455 -0.1118 -0.3492
  575MOL0     C75804   9.422   1.986   7.414  0.2684 -0.0978 -1.0609
  575MOL0     C75805   9.449   1.863   7.343  0.0539  0.3487 -0.2676
  575MOL0     C75806   9.320   1.775   7.320 -0.1131  0.4388  0.1097
  575MOL0     C75807   9.307   1.690   7.447  0.9253  1.0779  0.0356
  575MOL0     C75808   9.201   1.576   7.429  0.5146 -0.3799 -0.5957
  575MOL0     C75809   9.197   1.480   7.546 -0.1316  0.3726 -0.0623
  575MOL0     C75810   9.079   1.382   7.527 -0.5755 -0.0799  0.6750
  575MOL0     C75811   9.046   1.288   7.645 -0.2741  0.0716 -0.1613
  575MOL0    Cl75812   9.174   1.169   7.705  0.0607  0.2882  0.4232
  575MOL0     C75813   9.433   2.281   7.494 -0.6926  0.1357  0.4149
  575MOL0     C75814   9.403   2.417   7.472  0.1265 -0.1240 -0.3049
  575MOL0     O75815   9.177   2.577   7.289  0.8321  0.7577 -0.1011
  575MOL0     C75816   9.152   2.808   7.110  0.4830 -0.6659  0.8893
  575MOL0     C75817   9.149   2.934   7.047 -0.2013  0.3285 -0.5869
  575MOL0     N75818   9.354   3.435   6.413  0.0671 -0.3073 -0.4287
  575MOL0     N75819   9.469   3.476   6.389  0.7783  0.1471 -0.3621
  575MOL0     C75820  10.633   4.112   6.244 -0.0037 -0.2648 -0.5168
  575MOL0     C75821  10.672   4.239   6.209 -0.4289 -0.9355 -0.3555
  575MOL0     C75822  10.672   4.645   5.997  0.3091 -0.4716 -0.1445
  575MOL0     C75823  10.763   4.691   6.106  0.0551  0.2759 -0.3090
  575MOL0     C75824  10.830   4.807   6.081 -0.4853 -0.2654 -0.1992
  575MOL0     C75825  10.817   4.884   5.959 -0.4531  0.1373 -0.5729
  575MOL0     O75826  10.866   5.012   5.942 -0.9401 -0.5532 -0.1312
  575MOL0     C75827  10.978   5.061   6.023  0.3065  0.5018 -0.0745
  575MOL0     C75828  11.078   5.144   5.940  0.0201  0.5594 -0.3527
  575MOL0     C75829  11.186   5.073   5.868  0.4465  0.3225 -0.6437
  575MOL0     C75830  11.136   4.974   5.771 -0.3783  0.7995  0.4288
  575MOL0     C75831  11.243   4.928   5.682 -0.1267 -0.3038 -0.5915
  575MOL0     C75832  11.319   4.895   5.597 -0.1577  0.8969 -0.1949
  575MOL0     C75833  10.730   4.836   5.863  1.1610  0.0678 -0.1030
  575MOL0     C75834  10.655   4.716   5.883 -0.3270  0.0194  0.2908
  575MOL0     H75835  10.366   4.317   6.053  0.6444  1.4321 -0.2748
  575MOL0     H75836  10.314   4.110   6.128  0.2038  0.8161 -0.5229
  575MOL0     H75837  10.265   3.940   6.227  1.0107  1.4887 -0.6254
  575MOL0     H75838  10.316   3.977   6.394  1.9196  0.0691 -0.0908
  575MOL0     H75839  10.367   3.761   6.438  1.3639  0.5723 -0.8427
  575MOL0     H75840  10.353   3.705   6.275 -2.0171  0.0028 -0.5536
  575MOL0     H75841  10.107   3.778   6.271  2.2038 -2.5315 -2.1893
  575MOL0     H75842  10.117   3.821   6.440  1.0244  1.4180 -0.4817
  575MOL0     H75843  10.180   3.544   6.322  1.2058  1.4755 -1.1505
  575MOL0     H75844  10.161   3.581   6.495 -2.1283  1.8696  1.1301
  575MOL0     H75845   9.947   3.522   6.296 -1.2814 -1.2356  1.3045
  575MOL0     H75846   9.896   3.661   6.389 -1.9271 -1.0531  3.9122
  575MOL0     H75847   9.942   3.563   6.598  0.4266 -0.4640  1.1615
  575MOL0     H75848  10.001   3.418   6.511 -1.3154 -2.1618 -2.6702
  575MOL0     H75849   9.771   3.380   6.419  0.2812  1.1735 -0.9328
  575MOL0     H75850   9.786   3.389   6.593  2.2224  0.0741  0.4407
  575MOL0     H75851   9.691   3.622   6.433  2.4988 -0.0225  0.7049
  575MOL0     H75852   9.663   3.611   6.605  0.4255  1.5947 -0.2763
  575MOL0     H75853   9.490   3.467   6.710  0.1183 -2.5052  0.2427
  575MOL0     H75854   9.173   3.299   6.578 -0.4918  0.0522 -0.1447
  575MOL0     H75855   9.174   3.473   6.641  1.8285  0.5852  0.7377
  575MOL0     H75856   9.288   3.404   6.841  2.6524 -2.8101  0.6725
  575MOL0     H75857   9.332   3.246   6.780 -3.0406 -3.8955  1.4349
  575MOL0     H75858   9.042   3.296   6.804 -1.2288 -0.9359 -3.2927
  575MOL0     H75859   9.125   3.141   6.772 -0.7601 -1.2450  1.5557
  575MOL0     H75860   9.070   3.157   7.015  0.7661  0.2877  1.9543
  575MOL0     H75861   9.149   3.315   7.008 -2.2034  0.1608  1.8804
  575MOL0     H75862   9.456   3.041   7.158  1.9292 -2.8723 -1.9854
  575MOL0     H75863   9.459   2.848   7.259  0.4501 -0.1384 -1.6062
  575MOL0     H75864   9.519   2.450   7.159 -4.3115  3.7807  0.2260
  575MOL0     H75865   9.606   2.197   7.218  3.8333 -0.6180  3.0949
  575MOL0     H75866   9.336   2.044   7.378 -1.5725  0.8876  4.0546
  575MOL0     H75867   9.398   1.972   7.520  2.2350 -0.1797 -0.5827
  575MOL0     H75868   9.526   1.803   7.392  0.5509 -0.3391 -1.7988
  575MOL0     H75869   9.485   1.894   7.244  2.5737 -1.5039 -0.0414
  575MOL0     H75870   9.320   1.708   7.234  0.1250 -1.4570  1.5128
  575MOL0     H75871   9.231   1.838   7.315 -1.1842 -0.7113  2.7370
  575MOL0     H75872   9.405   1.645   7.464  0.8361  0.7829 -0.2165
  575MOL0     H75873   9.284   1.746   7.538 -1.1639  0.1585  0.1375
  575MOL0     H75874   9.238   1.521   7.342  1.7189 -1.7895  0.7418
  575MOL0     H75875   9.104   1.621   7.408 -0.4263  0.0626  3.8083
  575MOL0     H75876   9.179   1.543   7.634 -1.4168 -0.2581  0.1418
  575MOL0     H75877   9.293   1.428   7.546 -0.2585 -0.1578 -3.9604
  575MOL0     H75878   8.989   1.442   7.514 -0.5146  0.7064  3.2071
  575MOL0     H75879   9.098   1.321   7.438  0.4236 -3.5615  3.0281
  575MOL0     H75880   8.956   1.232   7.620 -0.2877 -0.0951  0.2561
  575MOL0     H75881   9.029   1.361   7.725  0.1875 -1.9434  1.8977
  575MOL0     H75882   9.403   2.229   7.585  1.0959 -2.9723 -0.6135
  575MOL0     H75883   9.340   2.458   7.550 -0.2574  2.5619 -1.9106
  575MOL0     H75884   9.075   2.732   7.105 -1.6034  0.9378  4.4073
  575MOL0     H75885   9.084   2.959   6.964  0.8240  3.6247 -0.5554
  575MOL0     H75886  10.702   4.053   6.304  0.6278  1.3273  0.3827
  575MOL0     H75887  10.770   4.281   6.228 -0.5351 -0.9565  0.2596
  575MOL0     H75888  10.777   4.641   6.201 -0.6977 -1.6746 -1.1773
  575MOL0     H75889  10.892   4.847   6.160  0.7301 -2.0671 -0.1823
  575MOL0     H75890  11.029   4.974   6.065 -2.3987 -0.3212  1.7568
  575MOL0     H75891  10.949   5.124   6.107  2.2363  3.6067 -1.5418
  575MOL0     H75892  11.015   5.189   5.862 -0.0047  1.3697  0.1266
  575MOL0     H75893  11.129   5.221   5.998 -0.3218  0.6627 -0.1882
  575MOL0     H75894  11.248   5.020   5.941  0.9591 -0.0260 -1.3214
  575MOL0     H75895  11.256   5.143   5.821  2.6554 -1.4302 -0.0969
  575MOL0     H75896  11.084   4.886   5.810  0.1465  1.3072  2.3970
  575MOL0     H75897  11.065   5.032   5.712  1.6500  4.2077  1.0848
  575MOL0     H75898  11.389   4.857   5.525 -1.3757 -2.2551  0.1331
  575MOL0     H75899  10.707   4.903   5.781 -2.3206  1.8198  2.0521
  575MOL0     H75900  10.579   4.679   5.815 -2.6161  4.0741  0.2929
  576MOL0     O75901   5.687   7.446  11.173 -0.3181  0.3782 -0.5316
  576MOL0     C75902   5.746   7.546  11.129  0.2607  0.5606  0.1196
  576MOL0     O75903   5.681   7.665  11.100 -0.7537  0.3302 -0.1642
  576MOL0     C75904   5.544   7.667  11.115 -0.3539 -0.1436  0.3326
  576MOL0     C75905   5.465   7.708  11.006  0.2742  0.3476  0.5383
  576MOL0     C75906   5.326   7.727  11.022 -0.2737  0.9503 -0.1571
  576MOL0     C75907   5.265   7.713  11.150 -0.2751  0.8510 -0.4394
  576MOL0     O75908   5.131   7.727  11.157 -0.2673 -0.4711 -0.0370
  576MOL0     C75909   5.086   7.822  11.256 -0.2004  0.5211  0.1078
  576MOL0     C75910   4.955   7.873  11.208 -0.4965 -1.3580 -0.6230
  576MOL0     C75911   4.839   7.774  11.209 -0.2345 -0.2305 -0.3919
  576MOL0     C75912   4.703   7.848  11.204  1.1730 -0.2348 -0.1641
  576MOL0     C75913   4.591   7.746  11.227 -0.0694 -0.3545 -0.1374
  576MOL0     C75914   4.451   7.811  11.216  0.9213 -0.8790  0.3297
  576MOL0     C75915   4.408   7.899  11.329  0.2782  0.0603  0.8598
  576MOL0     C75916   4.254   7.925  11.334 -0.1539  0.2960  0.1215
  576MOL0     N75917   4.212   8.016  11.230  0.6443  1.2364  0.9916
  576MOL0     C75918   4.222   8.150  11.246  0.1546  0.2973  0.2093
  576MOL0     C75919   4.180   8.203  11.128  0.0714 -0.3077  0.5829
  576MOL0     C75920   4.193   8.361  11.103  0.5930  0.5964  0.0725
  576MOL0     C75921   4.192   8.418  10.959 -0.0501 -0.0763  0.1205
  576MOL0     C75922   4.338   8.434  10.911 -0.3680 -0.3765 -0.1546
  576MOL0     C75923   4.420   8.299  10.905  0.5013 -0.0553 -0.1050
  576MOL0     O75924   4.547   8.318  10.842 -0.5167 -0.2458  0.4348
  576MOL0     C75925   4.661   8.294  10.922  0.4975 -0.8566  0.3059
  576MOL0     C75926   4.674   8.214  11.033  0.2754  0.3304 -0.7088
  576MOL0     C75927   4.790   8.197  11.109 -1.5015  0.1576  0.3270
  576MOL0     C75928   4.907   8.257  11.061  0.4624  0.6001  0.0306
  576MOL0     C75929   5.041   8.220  11.113 -0.2511 -0.0525 -0.2218
  576MOL0     O75930   5.151   8.234  11.039  0.1899  0.4042 -0.1051
  576MOL0     C75931   5.277   8.197  11.089  0.4757  0.2207 -0.5931
  576MOL0     C75932   5.329   8.070  11.118 -0.0541  0.3933  0.2174
  576MOL0     C75933   5.460   8.044  11.147  0.6479 -0.4513 -0.5878
  576MOL0     C75934   5.550   8.150  11.151 -0.1872 -0.0860 -0.0559
  576MOL0     O75935   5.692   8.147  11.183  0.1939 -0.2276 -0.3585
  576MOL0     C75936   5.754   8.024  11.204 -0.1264  0.5316  1.3322
  576MOL0     C75937   5.901   8.041  11.170 -0.0199 -1.2196 -0.5685
  576MOL0     C75938   5.967   8.150  11.264  0.3599 -0.4696  0.4641
  576MOL0     C75939   6.124   8.160  11.239 -0.2538  1.2333 -0.1114
  576MOL0     C75940   6.158   8.239  11.102  0.3593 -0.6277 -0.1331
  576MOL0     C75941   6.311   8.218  11.086  0.3790 -0.0916 -0.7210
  576MOL0     C75942   6.355   8.248  10.948  0.5568 -0.4317 -0.2348
  576MOL0     C75943   6.410   8.124  10.877 -0.5597  0.8164 -0.2986
  576MOL0    Cl75944   6.464   8.175  10.728 -0.3858 -0.0671  0.1681
  576MOL0     C75945   5.509   8.273  11.104  1.1564 -1.5768 -0.2914
  576MOL0     C75946   5.377   8.292  11.069  0.5307 -0.0197  0.4102
  576MOL0     O75947   5.044   8.179  11.228 -0.6258  0.1171 -0.3179
  576MOL0     C75948   4.899   8.330  10.940  0.3403 -1.2898 -0.0330
  576MOL0     C75949   4.779   8.348  10.878  0.4069  0.3039  0.1004
  576MOL0     N75950   4.140   8.102  11.045  0.0346  0.4217  0.0959
  576MOL0     N75951   4.148   7.991  11.108  0.0928  0.1984 -0.3906
  576MOL0     C75952   5.339   7.671  11.258  0.2589 -0.6647 -0.3889
  576MOL0     C75953   5.482   7.647  11.241  0.6467  0.3072  0.0556
  576MOL0     C75954   5.902   7.534  11.106  1.4235  0.6773 -0.9510
  576MOL0     C75955   5.977   7.422  11.152 -0.2345  0.3159 -0.5067
  576MOL0     C75956   6.118   7.419  11.134  0.0896  0.1243 -0.1339
  576MOL0     C75957   6.186   7.525  11.067  0.1876  0.1805 -0.3145
  576MOL0     O75958   6.326   7.510  11.059  0.4087  0.2674 -0.5629
  576MOL0     C75959   6.395   7.560  10.937 -0.8903 -0.3795  0.1014
  576MOL0     C75960   6.479   7.681  10.977 -0.0121 -0.3627  0.0415
  576MOL0     C75961   6.623   7.687  10.922 -0.2325 -0.3583  0.3951
  576MOL0     C75962   6.647   7.642  10.773 -0.9521  0.5551 -0.1418
  576MOL0     C75963   6.790   7.618  10.754 -0.9100 -0.4673  0.1872
  576MOL0     C75964   6.909   7.598  10.721 -0.0155 -0.3237 -0.3495
  576MOL0     C75965   6.106   7.639  11.027  0.3675  0.3085  0.3907
  576MOL0     C75966   5.959   7.645  11.049 -0.1252 -0.4328  0.4810
  576MOL0     H75967   5.493   7.726  10.902  2.4440  1.9292  1.3173
  576MOL0     H75968   5.270   7.761  10.935 -0.6137  2.0937  0.4943
  576MOL0     H75969   5.141   7.917  11.260 -0.3665  0.5754  1.4449
  576MOL0     H75970   5.084   7.781  11.357 -1.1722 -1.4117 -0.6441
  576MOL0     H75971   4.965   7.907  11.105 -1.4669  1.2363  0.0718
  576MOL0     H75972   4.925   7.954  11.274  2.6341 -1.1662  0.7288
  576MOL0     H75973   4.844   7.722  11.304  2.6706 -0.8976 -0.7976
  576MOL0     H75974   4.841   7.709  11.121 -0.3440  0.8584 -1.2193
  576MOL0     H75975   4.690   7.918  11.288  0.8940 -2.9324  2.1719
  576MOL0     H75976   4.678   7.903  11.113 -2.7235 -2.1031 -0.3976
  576MOL0     H75977   4.602   7.704  11.327 -1.7721 -0.9633 -0.1668
  576MOL0     H75978   4.596   7.665  11.153 -0.4282 -2.3594  1.9323
  576MOL0     H75979   4.376   7.732  11.210 -0.4663  0.4534 -0.5772
  576MOL0     H75980   4.430   7.867  11.125  0.7005 -2.5533 -0.6836
  576MOL0     H75981   4.439   7.848  11.421  2.1248  0.7498  0.6585
  576MOL0     H75982   4.456   7.997  11.325 -0.5889  0.4871  0.4908
  576MOL0     H75983   4.213   7.959  11.430 -2.4520 -0.3180 -0.5846
  576MOL0     H75984   4.207   7.830  11.310 -1.3763  0.9302 -0.0820
  576MOL0     H75985   4.256   8.206  11.332 -0.1238  0.0691  0.4699
  576MOL0     H75986   4.286   8.397  11.146 -0.6345  1.7633  1.9030
  576MOL0     H75987   4.117   8.403  11.170  0.3493 -1.3749  1.1100
  576MOL0     H75988   4.134   8.510  10.967 -1.0617 -0.8515  2.6453
  576MOL0     H75989   4.135   8.345  10.900  0.9595  0.1060 -1.1387
  576MOL0     H75990   4.346   8.480  10.812 -2.2564  2.7464  0.9890
  576MOL0     H75991   4.406   8.498  10.968  3.0323 -0.7023 -3.3995
  576MOL0     H75992   4.363   8.229  10.843 -1.5169  1.1074  0.3478
  576MOL0     H75993   4.425   8.253  11.004 -1.9238 -0.0306  0.0961
  576MOL0     H75994   4.591   8.150  11.060  0.0094  0.6747 -0.6930
  576MOL0     H75995   4.796   8.129  11.193  1.8429  0.3259  0.3906
  576MOL0     H75996   5.253   7.994  11.103  0.4495  0.2484 -1.8573
  576MOL0     H75997   5.496   7.942  11.160 -0.8002 -1.0477 -0.9905
  576MOL0     H75998   5.719   7.941  11.141 -0.7490  0.3463  1.9086
  576MOL0     H75999   5.747   7.987  11.307  1.7587  1.1663  1.7243
  576MOL0     H76000   5.910   8.075  11.066 -0.6205  0.1320 -0.1977
  576MOL0     H76001   5.951   7.944  11.177 -0.8600 -1.5918  0.5488
  576MOL0     H76002   5.943   8.142  11.370 -2.0635  1.0505  0.0986
  576MOL0     H76003   5.921   8.246  11.240 -0.2763 -0.2182  2.5434
  576MOL0     H76004   6.172   8.201  11.329  1.0348 -3.7016  1.7833
  576MOL0     H76005   6.167   8.060  11.232 -3.3087 -0.4269  2.1661
  576MOL0     H76006   6.141   8.347  11.097  3.8348 -0.0061 -1.5108
  576MOL0     H76007   6.107   8.195  11.016  0.7108 -1.1220 -0.0976
  576MOL0     H76008   6.343   8.119  11.120  0.7825 -0.0241 -0.9047
  576MOL0     H76009   6.366   8.286  11.152 -2.3439  2.4558 -0.8778
  576MOL0     H76010   6.273   8.294  10.893  0.4740  0.7653  0.8350
  576MOL0     H76011   6.433   8.324  10.962 -0.6667  1.0242 -1.0078
  576MOL0     H76012   6.343   8.038  10.870  2.1957 -1.5201  0.3145
  576MOL0     H76013   6.496   8.079  10.928 -0.0664  0.3222 -1.5228
  576MOL0     H76014   5.576   8.358  11.101  0.6975 -1.1049  1.5293
  576MOL0     H76015   5.347   8.389  11.032  1.1530  0.2136  0.5033
  576MOL0     H76016   4.986   8.368  10.887 -1.6470 -0.7414 -3.1512
  576MOL0     H76017   4.776   8.423  10.800  0.5347  1.3063  1.0494
  576MOL0     H76018   5.287   7.634  11.346  1.0427 -0.7080  0.0557
  576MOL0     H76019   5.544   7.607  11.320  1.5999  1.6612  0.0316
  576MOL0     H76020   5.925   7.342  11.205  1.5902 -0.1480  0.6483
  576MOL0     H76021   6.171   7.333  11.174  3.8303  2.1163 -0.3724
  576MOL0     H76022   6.321   7.588  10.861  0.4602  0.2912 -1.0223
  576MOL0     H76023   6.466   7.484  10.904  0.1281 -0.0220  1.3753
  576MOL0     H76024   6.428   7.775  10.955  0.8529  0.0225 -0.3942
  576MOL0     H76025   6.494   7.681  11.085 -0.3327  2.1542  0.1316
  576MOL0     H76026   6.690   7.641  10.995  0.4552 -1.7343 -1.0453
  576MOL0     H76027   6.655   7.791  10.914  0.4580 -0.6937 -3.2993
  576MOL0     H76028   6.600   7.543  10.769 -0.4517  0.2201  1.3664
  576MOL0     H76029   6.615   7.707  10.691 -2.1137 -1.7815 -1.6421
  576MOL0     H76030   7.010   7.571  10.699  1.3599  1.3543  3.0837
  576MOL0     H76031   6.142   7.729  10.977 -0.4752 -0.0245 -0.8631
  576MOL0     H76032   5.905   7.734  11.018  0.4246  0.1745  1.2427
  577MOL0     O76033   9.864   0.106   8.096  0.6952  0.5331  0.5465
  577MOL0     C76034   9.973   0.056   8.061 -0.2299  0.3631  0.0028
  577MOL0     O76035   9.982  -0.068   8.006 -0.5821  0.5723 -0.5543
  577MOL0     C76036   9.877  -0.150   8.002  0.4209 -0.5379  0.1076
  577MOL0     C76037   9.891  -0.271   8.063 -1.0306 -1.0551 -0.0635
  577MOL0     C76038   9.784  -0.353   8.080 -0.1733  0.2013  0.3303
  577MOL0     C76039   9.661  -0.322   8.025  0.1517 -0.1469  0.4181
  577MOL0     O76040   9.547  -0.393   8.044 -0.0559 -0.1826  0.5507
  577MOL0     C76041   9.524  -0.486   8.150  0.2571  0.2895 -1.0038
  577MOL0     C76042   9.381  -0.523   8.152 -0.1318  0.4870 -0.3266
  577MOL0     C76043   9.304  -0.402   8.203  0.6380 -0.7625  0.0952
  577MOL0     C76044   9.154  -0.448   8.208 -0.7416 -0.3153  0.3437
  577MOL0     C76045   9.057  -0.352   8.275 -0.3543 -0.2434 -0.0176
  577MOL0     C76046   8.908  -0.391   8.274  0.5022 -0.2118  0.4887
  577MOL0     C76047   8.824  -0.293   8.339 -1.2063  0.6799 -1.3433
  577MOL0     C76048   8.756  -0.202   8.242  0.3100  0.8666  0.8523
  577MOL0     N76049   8.614  -0.226   8.241 -0.5834  0.2139 -0.4593
  577MOL0     C76050   8.570  -0.353   8.213 -0.3391  0.0014 -0.0921
  577MOL0     C76051   8.429  -0.341   8.212 -0.4185 -0.6562 -0.1615
  577MOL0     C76052   8.325  -0.444   8.185  0.4219  0.1409 -0.5015
  577MOL0     C76053   8.219  -0.457   8.302  0.0098  0.7086  0.8841
  577MOL0     C76054   8.088  -0.523   8.261 -0.4543 -0.3551  0.3765
  577MOL0     C76055   7.982  -0.423   8.234 -0.5286 -0.5085  0.3639
  577MOL0     O76056   7.864  -0.504   8.197  0.1356  0.5365 -0.0642
  577MOL0     C76057   7.739  -0.441   8.181 -0.3053 -0.7055  0.8114
  577MOL0     C76058   7.635  -0.516   8.141 -0.8872 -0.4286 -0.1808
  577MOL0     C76059   7.507  -0.468   8.126 -0.4981  0.6330  0.1173
  577MOL0     C76060   7.484  -0.328   8.144  0.3052  0.0155  0.2151
  577MOL0     C76061   7.346  -0.272   8.127 -0.0519  0.6426  0.2292
  577MOL0     O76062   7.262  -0.350   8.042 -0.0642  0.2930 -0.2647
  577MOL0     C76063   7.135  -0.306   8.004 -0.4782  0.1425 -0.4932
  577MOL0     C76064   7.011  -0.370   8.041  0.9187  0.6825 -0.4583
  577MOL0     C76065   6.885  -0.332   7.996  0.0297 -0.2848 -0.2423
  577MOL0     C76066   6.879  -0.210   7.931 -0.0028 -1.2958 -0.1770
  577MOL0     O76067   6.754  -0.164   7.892 -0.3924  0.1665  0.0942
  577MOL0     C76068   6.627  -0.235   7.899 -0.3249 -0.2653 -0.2791
  577MOL0     C76069   6.522  -0.132   7.859 -0.1145 -0.8179 -0.8056
  577MOL0     C76070   6.371  -0.177   7.888 -0.2387  0.1569  0.8272
  577MOL0     C76071   6.274  -0.067   7.852 -0.1727 -0.7073 -0.2545
  577MOL0     C76072   6.132  -0.088   7.907 -0.3023 -0.5861 -0.1671
  577MOL0     C76073   6.057  -0.206   7.836 -0.0982  0.4462 -0.4948
  577MOL0     C76074   5.913  -0.241   7.884 -0.1857  0.3091  0.6180
  577MOL0     C76075   5.883  -0.227   8.024  0.1522  0.0309 -0.7442
  577MOL0    Cl76076   5.711  -0.255   8.046  0.0482  0.1850  0.6186
  577MOL0     C76077   7.000  -0.138   7.900 -0.4294 -0.3684  0.2494
  577MOL0     C76078   7.124  -0.177   7.938  0.7072 -0.8990 -0.0979
  577MOL0     O76079   7.317  -0.160   8.168 -0.4784  0.4202 -0.2957
  577MOL0     C76080   7.601  -0.248   8.180 -1.0032  0.7694 -0.2908
  577MOL0     C76081   7.728  -0.298   8.192  0.7209 -0.5504  0.5523
  577MOL0     N76082   8.403  -0.215   8.257 -0.7349  0.8403  0.1289
  577MOL0     N76083   8.508  -0.154   8.263 -0.7267 -0.0625  0.8663
  577MOL0     C76084   9.645  -0.208   7.949  0.2647 -0.2427 -0.5441
  577MOL0     C76085   9.749  -0.115   7.939  0.5794 -0.0829 -0.0344
  577MOL0     C76086  10.098   0.130   8.068  0.6279 -0.1769 -0.4255
  577MOL0     C76087  10.228   0.074   8.071  0.4739 -0.2626  0.1677
  577MOL0     C76088  10.340   0.151   8.093  0.5729 -0.1176 -0.4886
  577MOL0     C76089  10.337   0.286   8.115  0.5027 -1.1974 -0.5515
  577MOL0     O76090  10.449   0.357   8.151  0.2854  0.5399 -0.2292
  577MOL0     C76091  10.436   0.494   8.165  0.9090 -0.4228  0.2372
  577MOL0     C76092  10.571   0.563   8.181  0.3886 -1.4007 -0.3396
  577MOL0     C76093  10.664   0.519   8.072 -0.0936  0.0537  0.7434
  577MOL0     C76094  10.784   0.605   8.067  0.3261 -0.1393 -0.0640
  577MOL0     C76095  10.886   0.561   7.971  0.8508  0.3017  0.0623
  577MOL0     C76096  10.975   0.533   7.897 -0.6293  0.7383  0.3421
  577MOL0     C76097  10.205   0.349   8.118 -0.1200  0.3730 -0.3381
  577MOL0     C76098  10.095   0.273   8.091  0.3913  0.6516 -0.0720
  577MOL0     H76099   9.988  -0.306   8.100 -1.0023 -0.0459  0.8561
  577MOL0     H76100   9.784  -0.437   8.148 -1.9241  0.3531  0.5866
  577MOL0     H76101   9.555  -0.431   8.239 -1.1628 -0.5464  0.0566
  577MOL0     H76102   9.594  -0.566   8.123 -0.5385 -1.0897  0.7992
  577MOL0     H76103   9.365  -0.604   8.225  1.0731 -1.1119 -1.7486
  577MOL0     H76104   9.345  -0.553   8.053 -0.4778  1.4422 -0.4971
  577MOL0     H76105   9.313  -0.323   8.128 -0.2242  0.4323  1.2110
  577MOL0     H76106   9.337  -0.371   8.302  2.2036  0.7154 -0.8320
  577MOL0     H76107   9.124  -0.446   8.102 -2.7744  4.7920  0.7265
  577MOL0     H76108   9.150  -0.545   8.259 -3.8870 -1.1928 -1.2799
  577MOL0     H76109   9.061  -0.251   8.233 -0.2413  0.3622  1.3875
  577MOL0     H76110   9.084  -0.348   8.381 -0.6499 -1.2831  0.1048
  577MOL0     H76111   8.895  -0.490   8.320 -1.5400  0.1870  0.8479
  577MOL0     H76112   8.869  -0.400   8.173 -1.3299  1.7530  0.9553
  577MOL0     H76113   8.750  -0.347   8.398  0.8549 -3.5827 -2.3098
  577MOL0     H76114   8.884  -0.237   8.412 -1.8165  2.6456 -2.2724
  577MOL0     H76115   8.788  -0.208   8.137 -3.8748 -1.9519 -0.5357
  577MOL0     H76116   8.777  -0.100   8.277 -1.0995  0.5075  2.9265
  577MOL0     H76117   8.618  -0.449   8.193  0.3521  0.9879 -3.8260
  577MOL0     H76118   8.367  -0.543   8.163  2.3628  0.0885  2.7453
  577MOL0     H76119   8.280  -0.405   8.094  0.5261  0.1026 -0.5702
  577MOL0     H76120   8.177  -0.363   8.339  0.0403  0.1152  2.4980
  577MOL0     H76121   8.272  -0.503   8.386  0.0031 -0.7874  0.1016
  577MOL0     H76122   8.113  -0.595   8.183  1.8520  1.1369 -0.3774
  577MOL0     H76123   8.044  -0.573   8.348 -4.0981 -0.1700 -1.1767
  577MOL0     H76124   8.009  -0.365   8.144  1.1101 -2.1564 -0.2719
  577MOL0     H76125   7.960  -0.361   8.321 -0.1102  1.8381 -1.1007
  577MOL0     H76126   7.657  -0.622   8.137  3.6186  0.2976  0.0961
  577MOL0     H76127   7.423  -0.532   8.102 -0.6411  1.0536 -0.5175
  577MOL0     H76128   7.002  -0.455   8.108 -0.9909  2.0508  1.1227
  577MOL0     H76129   6.791  -0.381   8.020 -1.2762  2.3627  0.4266
  577MOL0     H76130   6.622  -0.265   8.004  1.3407 -1.9765 -0.6279
  577MOL0     H76131   6.636  -0.323   7.834  2.1597  0.9971 -1.8116
  577MOL0     H76132   6.526  -0.097   7.755 -1.7931  2.2579  0.0371
  577MOL0     H76133   6.543  -0.043   7.919  0.7478 -1.8793  0.5248
  577MOL0     H76134   6.369  -0.200   7.995  1.0212  1.7573  1.2345
  577MOL0     H76135   6.351  -0.265   7.826  0.2301 -2.2184  3.8442
  577MOL0     H76136   6.311   0.023   7.901 -0.2487 -1.6908  1.6924
  577MOL0     H76137   6.256  -0.060   7.744 -0.0180  1.3545 -0.1832
  577MOL0     H76138   6.070   0.001   7.893 -0.1019 -0.3240  0.5365
  577MOL0     H76139   6.143  -0.094   8.016 -0.1045  3.0243  0.1494
  577MOL0     H76140   6.124  -0.293   7.836  0.8978  1.1899 -0.3545
  577MOL0     H76141   6.048  -0.188   7.728  0.3353 -1.3171 -0.8559
  577MOL0     H76142   5.842  -0.178   7.828  1.4437  0.5624 -1.2772
  577MOL0     H76143   5.892  -0.347   7.865 -1.5805  0.6770 -0.0186
  577MOL0     H76144   5.906  -0.123   8.052  3.5432 -0.6760 -0.5960
  577MOL0     H76145   5.944  -0.295   8.083 -2.1277 -2.0115 -0.5930
  577MOL0     H76146   6.998  -0.041   7.852 -2.0618 -0.0984  0.7812
  577MOL0     H76147   7.211  -0.126   7.899 -0.3647 -0.9785 -2.8938
  577MOL0     H76148   7.582  -0.141   8.179  2.0255  1.3795 -2.1184
  577MOL0     H76149   7.806  -0.229   8.220  0.6138 -0.2672  0.1522
  577MOL0     H76150   9.544  -0.186   7.914 -0.6465 -0.6278  1.6696
  577MOL0     H76151   9.737  -0.025   7.879  2.7255  0.9217  0.9263
  577MOL0     H76152  10.230  -0.032   8.048 -3.6391 -0.1173 -1.7233
  577MOL0     H76153  10.440   0.114   8.073  0.5165  0.3980 -1.8965
  577MOL0     H76154  10.369   0.512   8.250  0.5221 -2.3397  0.4013
  577MOL0     H76155  10.382   0.542   8.082  0.9303 -0.5933  0.1238
  577MOL0     H76156  10.561   0.672   8.181  1.7624 -1.2483  0.1464
  577MOL0     H76157  10.612   0.538   8.280 -2.3398  2.6165  2.1241
  577MOL0     H76158  10.613   0.510   7.976 -1.3496 -0.0531  1.4123
  577MOL0     H76159  10.700   0.423   8.111  0.7076  0.1085  0.1552
  577MOL0     H76160  10.747   0.705   8.040  0.3778 -1.0032 -3.8734
  577MOL0     H76161  10.840   0.607   8.161 -1.2631 -2.8174  1.0323
  577MOL0     H76162  11.052   0.538   7.822 -0.3581 -2.4699  0.2535
  577MOL0     H76163  10.189   0.455   8.133 -0.3381  0.4679 -1.1858
  577MOL0     H76164   9.998   0.322   8.093 -0.3014 -0.6866  0.1297
  578MOL0     O76165   9.870   8.919   0.089  0.0808  0.4965  0.4547
  578MOL0     C76166   9.878   8.795   0.091 -1.1834  0.7892 -0.1439
  578MOL0     O76167   9.996   8.723   0.077  0.0389  0.3284 -0.6917
  578MOL0     C76168  10.117   8.789   0.094  0.8503  0.9613 -0.5299
  578MOL0     C76169  10.228   8.742   0.018 -0.2299 -0.1618 -0.6180
  578MOL0     C76170  10.358   8.788   0.029  0.0434  0.8748 -0.0589
  578MOL0     C76171  10.381   8.883   0.127 -0.4950  0.3353  0.3282
  578MOL0     O76172  10.507   8.936   0.151  0.1828 -0.3975 -0.2903
  578MOL0     C76173  10.629   8.871   0.086  1.2238  0.0144  0.1527
  578MOL0     C76174  10.751   8.925   0.154  0.2715  0.1830 -0.0018
  578MOL0     C76175  10.786   9.065   0.099 -0.0655 -0.4169 -0.3708
  578MOL0     C76176  10.879   9.142   0.200  0.9423  0.3426  0.6197
  578MOL0     C76177  11.024   9.092   0.204  0.2076  0.3492 -0.0313
  578MOL0     C76178  11.122   9.159   0.305  0.6782  0.1552  0.5782
  578MOL0     C76179  11.109   9.316   0.327  0.6249 -0.2528  0.2080
  578MOL0     C76180  11.195   9.359   0.446 -0.1534 -0.5614 -0.0389
  578MOL0     N76181  11.165   9.494   0.487  0.6504  0.3478  0.2668
  578MOL0     C76182  11.066   9.540   0.567 -0.6060 -0.8425 -0.9969
  578MOL0     C76183  11.097   9.666   0.593 -1.6344 -0.5066  0.5969
  578MOL0     C76184  11.043   9.764   0.690 -0.2301 -0.3082  0.0348
  578MOL0     C76185  10.891   9.772   0.702 -0.8664  0.6842 -0.5490
  578MOL0     C76186  10.835   9.796   0.563 -0.2143  0.3545 -0.0972
  578MOL0     C76187  10.683   9.823   0.573  0.2374  0.2731  0.4433
  578MOL0     O76188  10.641   9.830   0.434  0.3825 -0.3987  0.2631
  578MOL0     C76189  10.511   9.816   0.398  0.0533  0.6765 -0.3905
  578MOL0     C76190  10.483   9.775   0.265 -0.9718  0.8569  0.1701
  578MOL0     C76191  10.351   9.763   0.220 -0.3548 -0.2748  0.5889
  578MOL0     C76192  10.248   9.797   0.307  0.3000 -1.7959 -0.3950
  578MOL0     C76193  10.102   9.805   0.261  0.3375 -0.5155  0.4179
  578MOL0     O76194  10.066   9.714   0.170 -0.0727  0.4183  0.2955
  578MOL0     C76195   9.940   9.676   0.151  1.1151  0.3737 -0.0016
  578MOL0     C76196   9.917   9.540   0.124 -0.1048 -0.2093  0.7567
  578MOL0     C76197   9.787   9.482   0.103 -0.1796  0.2817  0.2659
  578MOL0     C76198   9.681   9.573   0.089 -0.0424  0.2186  0.0743
  578MOL0     O76199   9.565   9.512   0.065 -0.4534  0.2341  0.3164
  578MOL0     C76200   9.497   9.460   0.182  0.5439  1.0948 -0.1726
  578MOL0     C76201   9.343   9.458   0.170  0.0390  0.0585  0.9804
  578MOL0     C76202   9.288   9.390   0.048  0.1930 -0.1346 -0.1781
  578MOL0     C76203   9.143   9.341   0.078 -0.3830 -0.5751  0.3533
  578MOL0     C76204   9.091   9.260  -0.042 -0.1785  0.6494  0.8456
  578MOL0     C76205   8.951   9.204  -0.023 -0.1489  0.7658 -0.2542
  578MOL0     C76206   8.841   9.317  -0.039 -1.1207 -0.1417 -0.0707
  578MOL0     C76207   8.697   9.265  -0.008 -0.5739 -0.9951  0.6173
  578MOL0    Cl76208   8.688   9.130   0.116 -0.2736 -0.0162  0.0210
  578MOL0     C76209   9.698   9.706   0.124 -0.0930 -0.0049  0.3862
  578MOL0     C76210   9.825   9.751   0.146 -0.5399 -0.6899 -0.5559
  578MOL0     O76211  10.022   9.885   0.314  0.6801  0.1670 -0.3705
  578MOL0     C76212  10.281   9.847   0.434 -0.1645 -0.0553 -0.3557
  578MOL0     C76213  10.409   9.847   0.490 -0.0447 -1.1267  0.1207
  578MOL0     N76214  11.208   9.698   0.516 -0.2287  0.0419  0.3909
  578MOL0     N76215  11.250   9.595   0.451  0.3113  0.3616 -0.9443
  578MOL0     C76216  10.280   8.924   0.217  0.1952  0.2412 -0.6500
  578MOL0     C76217  10.142   8.875   0.200  0.3081 -0.8395 -0.7879
  578MOL0     C76218   9.753   8.716   0.099  0.6989  0.1865 -0.1749
  578MOL0     C76219   9.754   8.574   0.098 -0.4141  0.5054 -0.7224
  578MOL0     C76220   9.628   8.500   0.114 -0.5519  0.2432 -0.0747
  578MOL0     C76221   9.504   8.569   0.136 -0.2001  0.1596 -0.3922
  578MOL0     O76222   9.395   8.493   0.164  0.9495  0.6660 -0.6229
  578MOL0     C76223   9.366   8.504   0.307 -0.1832  0.7842  0.5589
  578MOL0     C76224   9.384   8.358   0.370 -0.9192 -0.1947  0.2632
  578MOL0     C76225   9.287   8.259   0.311  0.5307  0.1430 -0.3972
  578MOL0     C76226   9.293   8.115   0.361  0.1239  0.3396  0.4502
  578MOL0     C76227   9.246   8.097   0.495 -0.5431 -0.5348 -0.1684
  578MOL0     C76228   9.192   8.076   0.601 -1.0360 -0.0560 -0.0515
  578MOL0     C76229   9.506   8.703   0.129 -0.5296 -0.1683  0.2581
  578MOL0     C76230   9.628   8.780   0.113  0.4639  0.2270 -0.7468
  578MOL0     H76231  10.206   8.671  -0.062  1.4161 -1.9848  0.4285
  578MOL0     H76232  10.441   8.746  -0.026 -0.2195 -0.1300  0.2956
  578MOL0     H76233  10.631   8.904  -0.018  0.8781  4.1201  1.2606
  578MOL0     H76234  10.633   8.762   0.086  1.0307  0.0074 -0.0601
  578MOL0     H76235  10.830   8.854   0.126 -0.0723  0.7504 -2.7164
  578MOL0     H76236  10.749   8.926   0.263  1.1421 -2.4868  0.1091
  578MOL0     H76237  10.702   9.133   0.081  0.4284  0.8577  1.7971
  578MOL0     H76238  10.836   9.052   0.002 -0.2504  1.4125 -0.7541
  578MOL0     H76239  10.876   9.243   0.157 -0.5387  0.4140  0.8622
  578MOL0     H76240  10.831   9.144   0.298  1.9622 -0.5044  1.1596
  578MOL0     H76241  11.050   9.097   0.098  0.2886  1.1799  0.0223
  578MOL0     H76242  11.022   8.985   0.224 -0.7610  0.1233 -1.2163
  578MOL0     H76243  11.225   9.136   0.276 -0.1888 -3.3529 -0.1942
  578MOL0     H76244  11.107   9.114   0.404  1.7261 -0.4249  0.4881
  578MOL0     H76245  11.138   9.369   0.236 -2.2788  0.6593 -0.2772
  578MOL0     H76246  11.008   9.339   0.361 -0.0291 -2.5584 -0.0198
  578MOL0     H76247  11.296   9.346   0.405 -0.0890  0.6155 -0.2735
  578MOL0     H76248  11.195   9.287   0.529  2.7362  0.0767  0.6117
  578MOL0     H76249  10.987   9.497   0.628  0.9899 -0.1060  1.7325
  578MOL0     H76250  11.077   9.864   0.659 -0.7368  0.3346  1.4680
  578MOL0     H76251  11.092   9.730   0.781  0.8849 -0.3219 -0.5499
  578MOL0     H76252  10.859   9.844   0.778  2.1677  1.0209  0.5610
  578MOL0     H76253  10.854   9.675   0.738 -0.6352  0.3405 -1.2165
  578MOL0     H76254  10.880   9.888   0.524 -0.8573 -0.3163 -2.5668
  578MOL0     H76255  10.861   9.710   0.500 -1.4122 -1.3526  1.6287
  578MOL0     H76256  10.668   9.914   0.632  0.0003  0.0939  0.6609
  578MOL0     H76257  10.646   9.739   0.632  0.1705  1.4037  2.0828
  578MOL0     H76258  10.563   9.756   0.194  0.0818  0.5751  1.3954
  578MOL0     H76259  10.331   9.729   0.120 -0.6726 -3.0840  1.5290
  578MOL0     H76260  10.015   9.493   0.129  0.7973  1.6732  3.2193
  578MOL0     H76261   9.773   9.375   0.091  1.0025  0.2668 -1.3205
  578MOL0     H76262   9.523   9.511   0.275 -0.6478  1.9537 -0.2904
  578MOL0     H76263   9.535   9.357   0.184 -0.8684  0.5508 -0.4391
  578MOL0     H76264   9.306   9.560   0.180  0.0737  0.0778  0.9054
  578MOL0     H76265   9.300   9.394   0.247  1.5899 -1.5869  0.5666
  578MOL0     H76266   9.356   9.308   0.025 -1.3792 -1.0732 -1.7445
  578MOL0     H76267   9.303   9.465  -0.030  1.0955 -1.2866 -1.1383
  578MOL0     H76268   9.153   9.279   0.167  0.8453 -1.0579 -0.0911
  578MOL0     H76269   9.077   9.426   0.094  0.2846  0.3062 -1.2729
  578MOL0     H76270   9.158   9.174  -0.052 -1.7496 -0.7330  1.5961
  578MOL0     H76271   9.095   9.321  -0.133 -3.4917  2.3269  1.6672
  578MOL0     H76272   8.954   9.167   0.080  0.1152  2.3681  0.3501
  578MOL0     H76273   8.937   9.115  -0.084  0.6000  1.3981 -1.3914
  578MOL0     H76274   8.867   9.400   0.027 -1.9239 -1.0865  1.4879
  578MOL0     H76275   8.848   9.343  -0.145  2.0091 -4.3818 -1.2095
  578MOL0     H76276   8.644   9.234  -0.099 -0.6263 -0.1302  0.3497
  578MOL0     H76277   8.647   9.358   0.020  1.9118  0.8219 -0.5416
  578MOL0     H76278   9.629   9.790   0.127 -0.6348 -0.4604  3.1539
  578MOL0     H76279   9.844   9.857   0.154  1.9275 -1.0725 -0.5245
  578MOL0     H76280  10.199   9.899   0.483 -0.3195 -0.8639  0.2642
  578MOL0     H76281  10.425   9.897   0.585 -1.7491 -1.4595  0.6199
  578MOL0     H76282  10.300   8.995   0.297 -1.6946  0.7669 -0.5900
  578MOL0     H76283  10.073   8.908   0.277  0.9734 -1.9746  0.3307
  578MOL0     H76284   9.850   8.523   0.091  0.1762  1.1046  1.7073
  578MOL0     H76285   9.642   8.392   0.117  0.3119  0.2453 -2.3730
  578MOL0     H76286   9.264   8.540   0.325 -0.7060 -0.4699  0.2282
  578MOL0     H76287   9.432   8.578   0.355  1.2731  0.0091 -0.1899
  578MOL0     H76288   9.486   8.323   0.349  0.1381  3.2661 -1.2359
  578MOL0     H76289   9.364   8.356   0.478  0.9521  0.9355  0.6821
  578MOL0     H76290   9.308   8.258   0.203 -0.1605 -4.1307 -0.6769
  578MOL0     H76291   9.186   8.301   0.320  1.6290  2.6095  1.3559
  578MOL0     H76292   9.232   8.057   0.292  2.6784 -0.4797 -1.2877
  578MOL0     H76293   9.393   8.072   0.354  0.2482  0.8479 -2.5402
  578MOL0     H76294   9.152   8.052   0.698  0.7022 -2.1139  0.2326
  578MOL0     H76295   9.418   8.760   0.154 -1.5424 -0.7730 -1.6610
  578MOL0     H76296   9.627   8.887   0.127 -1.3592 -0.0098  1.8975
  579MOL0     O76297   2.160   3.673   5.527 -0.2868  0.0906 -0.4456
  579MOL0     C76298   2.133   3.555   5.537  0.6707  0.2424 -0.0901
  579MOL0     O76299   2.205   3.466   5.588 -0.1366 -0.0576  0.2149
  579MOL0     C76300   2.329   3.502   5.635  0.6532 -0.4442 -0.5047
  579MOL0     C76301   2.356   3.503   5.771  1.0482 -0.1580 -0.9074
  579MOL0     C76302   2.476   3.546   5.825 -0.1037 -0.5869 -0.9826
  579MOL0     C76303   2.584   3.585   5.741 -1.3268 -0.4538 -0.4489
  579MOL0     O76304   2.697   3.632   5.804  0.1155  0.8047 -0.2408
  579MOL0     C76305   2.814   3.648   5.720 -0.5022 -0.6236  0.7283
  579MOL0     C76306   2.952   3.682   5.786 -0.7517 -0.0269 -0.9782
  579MOL0     C76307   3.009   3.824   5.755  0.6082 -0.3717  0.5205
  579MOL0     C76308   3.088   3.828   5.625 -0.3091  0.2342 -0.0602
  579MOL0     C76309   3.124   3.971   5.590 -0.5099 -0.2787 -0.3658
  579MOL0     C76310   3.208   3.976   5.462 -0.5182 -0.0567 -0.0567
  579MOL0     C76311   3.127   3.918   5.345  0.2304 -0.2705 -0.2367
  579MOL0     C76312   3.014   4.015   5.310 -0.3891  0.1909  0.1870
  579MOL0     N76313   2.884   3.974   5.352  0.7469 -0.1387 -1.2276
  579MOL0     C76314   2.811   4.034   5.449  0.9077  0.2099  0.1245
  579MOL0     C76315   2.710   3.944   5.464 -1.0331 -0.5703 -0.0879
  579MOL0     C76316   2.595   3.989   5.556 -0.0781  0.0220 -0.5895
  579MOL0     C76317   2.457   3.989   5.480 -0.3323 -0.0135 -0.3082
  579MOL0     C76318   2.349   4.028   5.582 -0.4930 -0.3906 -0.2395
  579MOL0     C76319   2.213   4.033   5.516  0.3499 -0.1706  0.1891
  579MOL0     O76320   2.220   4.151   5.436  0.6122  0.1861  0.2525
  579MOL0     C76321   2.101   4.208   5.399  0.2764 -1.0436 -0.4909
  579MOL0     C76322   1.974   4.150   5.409  0.9795 -0.2273 -0.4722
  579MOL0     C76323   1.861   4.217   5.364 -1.0171 -0.7111  0.5624
  579MOL0     C76324   1.874   4.338   5.295  0.5158 -0.4788 -0.7059
  579MOL0     C76325   1.757   4.413   5.236  0.2926 -0.7696 -0.0199
  579MOL0     O76326   1.636   4.367   5.266 -0.6042  0.1935 -0.8631
  579MOL0     C76327   1.524   4.452   5.274 -0.0688  0.1766  0.1728
  579MOL0     C76328   1.462   4.456   5.395 -0.1082 -0.0025  0.1724
  579MOL0     C76329   1.334   4.508   5.400  0.1526  0.0562  0.1189
  579MOL0     C76330   1.274   4.565   5.290 -0.5677 -0.4763 -0.2783
  579MOL0     O76331   1.153   4.623   5.329  0.2491  1.2417  0.5132
  579MOL0     C76332   1.067   4.635   5.213  0.0786 -1.4841  0.4291
  579MOL0     C76333   0.948   4.718   5.262 -0.4135 -0.0120  0.3675
  579MOL0     C76334   0.847   4.711   5.142  0.6743  0.1327  0.3698
  579MOL0     C76335   0.738   4.814   5.158 -1.1162 -0.1465  0.0913
  579MOL0     C76336   0.612   4.736   5.172  0.1215  0.0822 -0.2072
  579MOL0     C76337   0.485   4.819   5.187  0.4694 -0.3615  0.0280
  579MOL0     C76338   0.473   4.867   5.329 -0.2496  0.7920 -0.7357
  579MOL0     C76339   0.384   4.992   5.331 -0.1748 -0.4589  0.4389
  579MOL0    Cl76340   0.224   4.972   5.252 -0.0482 -0.2038 -0.3427
  579MOL0     C76341   1.338   4.569   5.165 -0.5663 -0.2266  1.1128
  579MOL0     C76342   1.462   4.506   5.157 -0.7886  0.0896 -0.7279
  579MOL0     O76343   1.779   4.530   5.193  0.0481  0.6432 -0.4355
  579MOL0     C76344   2.004   4.395   5.285 -0.7704  0.0815  0.9609
  579MOL0     C76345   2.114   4.322   5.331  0.2747 -0.2752 -0.2113
  579MOL0     N76346   2.716   3.842   5.379  0.1109 -0.3891 -0.3289
  579MOL0     N76347   2.820   3.861   5.305  0.6474  0.0909 -0.1954
  579MOL0     C76348   2.567   3.572   5.606 -0.8503 -0.4279 -0.2740
  579MOL0     C76349   2.440   3.538   5.555 -1.3395 -0.0912  0.2894
  579MOL0     C76350   2.007   3.515   5.466 -0.7702  1.2157  1.2424
  579MOL0     C76351   1.977   3.377   5.449 -1.6401  0.4004  0.8018
  579MOL0     C76352   1.863   3.335   5.382  0.4110  0.3346  0.5667
  579MOL0     C76353   1.782   3.431   5.316 -0.3176 -0.2625 -0.0106
  579MOL0     O76354   1.685   3.405   5.231 -0.4495  0.0850 -0.0126
  579MOL0     C76355   1.656   3.273   5.186 -0.1512 -0.2450 -0.1642
  579MOL0     C76356   1.776   3.221   5.092 -0.2554  0.4792 -0.0132
  579MOL0     C76357   1.832   3.325   4.993 -0.6124  0.7326  0.4513
  579MOL0     C76358   1.720   3.379   4.902 -0.2899 -0.0755 -0.8455
  579MOL0     C76359   1.616   3.291   4.860 -0.2470 -0.0079  0.3315
  579MOL0     C76360   1.524   3.222   4.807 -0.6152 -0.3769  0.3376
  579MOL0     C76361   1.809   3.569   5.333 -0.6564  0.2124 -1.0740
  579MOL0     C76362   1.924   3.606   5.404 -0.5796 -0.3616  0.3430
  579MOL0     H76363   2.281   3.477   5.844 -0.8963 -0.6107 -2.9629
  579MOL0     H76364   2.492   3.551   5.932  0.3438  0.1467 -1.0799
  579MOL0     H76365   2.798   3.729   5.647 -0.6826 -2.0539 -0.8814
  579MOL0     H76366   2.828   3.554   5.666  2.9256  1.2878 -2.1197
  579MOL0     H76367   3.031   3.613   5.757  0.4895  1.7263 -1.9315
  579MOL0     H76368   2.935   3.674   5.894 -1.0080 -1.5491 -1.1085
  579MOL0     H76369   3.071   3.851   5.841  1.3613 -0.9547  0.1689
  579MOL0     H76370   2.915   3.880   5.746  2.3668  2.7923  0.6170
  579MOL0     H76371   3.177   3.765   5.639  0.1667  1.1155  1.0414
  579MOL0     H76372   3.027   3.780   5.549  2.3331  0.9426 -2.8104
  579MOL0     H76373   3.187   4.006   5.672  1.3188 -0.2368 -1.7485
  579MOL0     H76374   3.038   4.037   5.577  0.4674  0.9563 -0.7602
  579MOL0     H76375   3.298   3.916   5.473 -1.2823 -1.4056 -0.8799
  579MOL0     H76376   3.241   4.080   5.458 -2.6514  0.8037  2.0235
  579MOL0     H76377   3.185   3.904   5.254 -2.2755 -5.3800 -1.3669
  579MOL0     H76378   3.091   3.818   5.372 -1.5427  0.7292  1.3758
  579MOL0     H76379   3.008   4.022   5.201  1.9969 -0.6630 -0.0698
  579MOL0     H76380   3.030   4.114   5.354  1.0287 -0.6363  1.6452
  579MOL0     H76381   2.826   4.126   5.504  1.7515 -0.9423  1.9206
  579MOL0     H76382   2.622   4.083   5.604  0.8973 -0.7276  0.3985
  579MOL0     H76383   2.586   3.917   5.638 -2.1708 -2.3272 -2.7300
  579MOL0     H76384   2.427   3.904   5.419 -0.8172 -0.1827  0.1590
  579MOL0     H76385   2.463   4.074   5.411  0.8113 -2.2331 -3.1268
  579MOL0     H76386   2.349   3.949   5.658 -1.5919 -2.9819 -2.7607
  579MOL0     H76387   2.366   4.124   5.632  0.6296 -0.6703 -0.0510
  579MOL0     H76388   2.141   4.050   5.596  0.7029  1.2510  0.2187
  579MOL0     H76389   2.189   3.944   5.457  1.5550  0.3668 -1.1749
  579MOL0     H76390   1.962   4.062   5.471  0.7855  1.8098  2.6199
  579MOL0     H76391   1.760   4.177   5.364 -0.0777 -3.5141 -2.3142
  579MOL0     H76392   1.522   4.415   5.476 -0.4619 -2.0522 -0.5605
  579MOL0     H76393   1.289   4.510   5.499  0.9029 -0.7379  0.4954
  579MOL0     H76394   1.052   4.535   5.172 -2.0686 -0.4503 -1.5128
  579MOL0     H76395   1.111   4.693   5.132 -0.5997  1.7831  2.2192
  579MOL0     H76396   0.983   4.821   5.252 -0.2010 -0.2019 -1.0243
  579MOL0     H76397   0.904   4.691   5.359  1.5372 -0.7098  1.1149
  579MOL0     H76398   0.809   4.608   5.146  2.2435 -0.4407  2.7934
  579MOL0     H76399   0.889   4.749   5.048 -0.7519  1.2762  0.1771
  579MOL0     H76400   0.765   4.878   5.243  3.6735  0.3936 -1.4936
  579MOL0     H76401   0.723   4.874   5.068  0.0016  0.2301  0.1406
  579MOL0     H76402   0.616   4.667   5.257  0.9040  0.2635 -0.0935
  579MOL0     H76403   0.603   4.684   5.077  1.8313 -0.1089 -0.2911
  579MOL0     H76404   0.403   4.753   5.160 -0.0364 -0.2938  1.3122
  579MOL0     H76405   0.482   4.908   5.124  0.9055 -0.0094  0.4893
  579MOL0     H76406   0.445   4.790   5.401 -1.4254  1.1383 -0.8085
  579MOL0     H76407   0.571   4.892   5.370 -0.9770  0.5726  1.2651
  579MOL0     H76408   0.436   5.073   5.279 -0.6491 -0.6943 -0.4319
  579MOL0     H76409   0.380   5.021   5.436 -1.8028 -0.1665  0.3222
  579MOL0     H76410   1.302   4.618   5.075 -1.1041 -1.3451  0.6996
  579MOL0     H76411   1.522   4.503   5.067  0.4793  0.0053  0.1019
  579MOL0     H76412   2.022   4.494   5.244  0.7272 -0.5572  0.0062
  579MOL0     H76413   2.211   4.369   5.329  0.9626 -1.6154  0.5091
  579MOL0     H76414   2.645   3.597   5.535 -0.7910 -1.1391 -0.4631
  579MOL0     H76415   2.434   3.525   5.448 -1.3161 -0.7152  0.3593
  579MOL0     H76416   2.047   3.310   5.496 -0.6589 -0.9379 -2.2987
  579MOL0     H76417   1.851   3.228   5.381  1.8074  0.0824  3.1387
  579MOL0     H76418   1.569   3.284   5.120  0.7375 -0.1926 -1.3576
  579MOL0     H76419   1.636   3.215   5.276  0.5353 -2.7874 -1.5436
  579MOL0     H76420   1.856   3.177   5.152 -0.3991  1.7396  1.1576
  579MOL0     H76421   1.740   3.134   5.037  1.0553  0.2045 -0.4564
  579MOL0     H76422   1.910   3.275   4.935 -2.0975 -0.1780 -0.8093
  579MOL0     H76423   1.887   3.409   5.039  2.5390 -1.0315  0.2072
  579MOL0     H76424   1.672   3.466   4.948 -0.9654  0.2480 -2.1141
  579MOL0     H76425   1.768   3.408   4.808 -1.7210  0.6903 -1.3621
  579MOL0     H76426   1.454   3.162   4.752  0.3283  0.6536 -2.0969
  579MOL0     H76427   1.744   3.639   5.281 -2.6463 -0.6760  0.1218
  579MOL0     H76428   1.942   3.713   5.410  2.4130 -0.8477  3.5432
  580MOL0     O76429   1.579   3.809   0.132  0.8802 -0.2012  0.4626
  580MOL0     C76430   1.637   3.873   0.045 -0.5757  1.0630  0.2158
  580MOL0     O76431   1.672   3.821  -0.072  0.2401  0.2593  0.0509
  580MOL0     C76432   1.578   3.725  -0.107  0.6053  0.5017 -0.1677
  580MOL0     C76433   1.446   3.753  -0.141 -0.0116 -0.1433 -0.5628
  580MOL0     C76434   1.353   3.654  -0.167  0.4789  0.1351 -0.9281
  580MOL0     C76435   1.389   3.516  -0.160 -0.4685  0.0822  0.1780
  580MOL0     O76436   1.304   3.406  -0.180 -0.6017 -0.1825 -0.0316
  580MOL0     C76437   1.179   3.412  -0.104  0.6079  0.9194  0.5514
  580MOL0     C76438   1.048   3.461  -0.191 -0.3783 -0.1474 -0.2441
  580MOL0     C76439   1.055   3.409  -0.331 -0.1060  0.4066  0.2500
  580MOL0     C76440   0.968   3.490  -0.434 -0.2406 -0.1336  0.1746
  580MOL0     C76441   0.982   3.403  -0.563 -0.1548 -0.2252  0.0519
  580MOL0     C76442   0.934   3.481  -0.681  0.7741  0.0252 -0.0108
  580MOL0     C76443   0.954   3.396  -0.812 -0.3025 -0.3180  0.7007
  580MOL0     C76444   0.843   3.291  -0.839 -0.5355  0.0340  0.2593
  580MOL0     N76445   0.711   3.350  -0.869 -0.3351 -0.1550  0.6261
  580MOL0     C76446   0.658   3.477  -0.878  0.1307  0.7621  0.6552
  580MOL0     C76447   0.528   3.460  -0.895 -0.5806 -0.0449  0.2446
  580MOL0     C76448   0.412   3.559  -0.890 -0.1178  0.4043 -0.1814
  580MOL0     C76449   0.276   3.497  -0.940 -0.7517 -1.1464 -0.1348
  580MOL0     C76450   0.167   3.604  -0.922  0.3091  0.3096  0.8140
  580MOL0     C76451   0.039   3.580  -0.997  0.2920  0.1052  0.8778
  580MOL0     O76452  -0.024   3.469  -0.934  0.3558  0.3183 -0.0082
  580MOL0     C76453  -0.149   3.427  -0.965  1.2026 -0.2207  0.6985
  580MOL0     C76454  -0.199   3.314  -0.899 -0.4915  1.0471  0.5621
  580MOL0     C76455  -0.332   3.274  -0.923  0.0607  0.3042 -0.0240
  580MOL0     C76456  -0.403   3.336  -1.020  0.3553 -0.0411  0.1117
  580MOL0     C76457  -0.543   3.289  -1.051 -0.0004 -0.2819 -0.2556
  580MOL0     O76458  -0.581   3.168  -0.985  0.0982  0.1944 -0.2876
  580MOL0     C76459  -0.701   3.103  -1.029 -0.8306  0.2798 -0.4887
  580MOL0     C76460  -0.754   3.107  -1.159 -0.2408 -0.0300 -0.0547
  580MOL0     C76461  -0.865   3.035  -1.202 -0.3739 -0.1658 -0.0822
  580MOL0     C76462  -0.923   2.940  -1.125  0.0722 -0.4093  0.2416
  580MOL0     O76463  -1.024   2.865  -1.195  0.0537 -0.7279  0.0053
  580MOL0     C76464  -1.038   2.733  -1.145  0.4311 -0.3947  0.9851
  580MOL0     C76465  -1.162   2.663  -1.214  0.7413 -0.5252 -1.0387
  580MOL0     C76466  -1.146   2.671  -1.358 -0.0747 -0.0772 -0.5016
  580MOL0     C76467  -1.214   2.564  -1.448 -0.0233  0.1660  0.5354
  580MOL0     C76468  -1.361   2.585  -1.466  0.0643  0.6538  0.1844
  580MOL0     C76469  -1.403   2.719  -1.526 -0.0784 -0.0690 -0.1115
  580MOL0     C76470  -1.544   2.735  -1.588  0.3189  0.2118 -0.0934
  580MOL0     C76471  -1.564   2.654  -1.708 -0.1254 -0.3610  0.5293
  580MOL0    Cl76472  -1.633   2.497  -1.649 -0.2166  0.1689  0.1522
  580MOL0     C76473  -0.872   2.928  -0.991 -0.3170  0.6951  0.0544
  580MOL0     C76474  -0.762   3.008  -0.950 -0.4052 -0.4647  0.2717
  580MOL0     O76475  -0.618   3.364  -1.119 -0.5675  0.6112 -0.1465
  580MOL0     C76476  -0.355   3.445  -1.092 -0.6046 -1.3108  0.9550
  580MOL0     C76477  -0.228   3.485  -1.068  0.4159 -0.0469  0.4217
  580MOL0     N76478   0.499   3.328  -0.886 -0.2087  0.1827  0.4292
  580MOL0     N76479   0.606   3.267  -0.867  0.0759  0.7376  0.0256
  580MOL0     C76480   1.526   3.489  -0.150 -0.6726 -1.1043 -0.2008
  580MOL0     C76481   1.622   3.591  -0.120 -0.6663  0.3079 -0.4093
  580MOL0     C76482   1.679   4.019   0.084  0.0027  1.4222 -0.2395
  580MOL0     C76483   1.697   4.052   0.214 -0.3594 -0.8833 -0.2260
  580MOL0     C76484   1.741   4.172   0.257  0.0792 -0.7579  0.6264
  580MOL0     C76485   1.770   4.272   0.154 -0.2838 -0.8300 -0.3775
  580MOL0     O76486   1.835   4.396   0.168  0.5574  0.3893 -0.3815
  580MOL0     C76487   1.877   4.427   0.298  0.1164  0.0071  0.2010
  580MOL0     C76488   1.975   4.540   0.286  0.4670 -0.2006 -0.5861
  580MOL0     C76489   2.074   4.550   0.404  0.1360 -0.3468  0.1384
  580MOL0     C76490   2.052   4.681   0.490 -0.0860 -0.3867 -0.0852
  580MOL0     C76491   1.909   4.677   0.545 -1.4387 -0.2173  0.1986
  580MOL0     C76492   1.792   4.667   0.578 -0.8645 -0.0198  0.5096
  580MOL0     C76493   1.763   4.234   0.025 -0.4615 -0.4588 -0.0746
  580MOL0     C76494   1.713   4.112  -0.015 -0.0390  0.0965 -0.7158
  580MOL0     H76495   1.400   3.851  -0.140  1.3755  0.5397 -0.8217
  580MOL0     H76496   1.247   3.678  -0.180  1.1001  3.2396 -1.0006
  580MOL0     H76497   1.188   3.479  -0.019 -2.2790  1.4743  0.5245
  580MOL0     H76498   1.158   3.310  -0.070 -0.6998  1.3954  1.2491
  580MOL0     H76499   1.059   3.570  -0.200 -2.3910  0.1411  0.3679
  580MOL0     H76500   0.957   3.449  -0.132 -0.3189  1.6080  0.2598
  580MOL0     H76501   1.026   3.303  -0.331 -1.5205  0.7428 -1.6175
  580MOL0     H76502   1.158   3.421  -0.367 -0.1320 -1.8775 -0.7793
  580MOL0     H76503   0.861   3.499  -0.411 -0.8013  0.8756 -2.5538
  580MOL0     H76504   1.008   3.591  -0.443 -1.3690  0.6408  2.8231
  580MOL0     H76505   0.921   3.314  -0.542 -0.7216 -0.1119 -1.0537
  580MOL0     H76506   1.084   3.362  -0.568  0.1051  0.3592  0.4555
  580MOL0     H76507   1.002   3.566  -0.695  2.3407 -1.3971 -1.5291
  580MOL0     H76508   0.832   3.521  -0.677  0.5729 -0.5637  1.8573
  580MOL0     H76509   0.972   3.463  -0.896 -3.2233  1.0882  1.0836
  580MOL0     H76510   1.046   3.338  -0.800  1.3869  2.2606  1.0250
  580MOL0     H76511   0.844   3.218  -0.757  0.8556 -2.0595 -1.5156
  580MOL0     H76512   0.872   3.233  -0.927 -0.7224  1.3455 -0.7009
  580MOL0     H76513   0.708   3.573  -0.865 -0.2869  1.0595  0.1134
  580MOL0     H76514   0.438   3.653  -0.939  0.5954  1.1521  1.5705
  580MOL0     H76515   0.396   3.587  -0.786 -1.1588 -0.7693  0.0006
  580MOL0     H76516   0.240   3.408  -0.889  1.2910 -0.4801  2.7252
  580MOL0     H76517   0.282   3.464  -1.044 -1.6582  2.3353 -1.4627
  580MOL0     H76518   0.149   3.629  -0.817  3.2473  0.2176  1.4365
  580MOL0     H76519   0.206   3.700  -0.958 -0.7609  0.0358 -1.2137
  580MOL0     H76520   0.056   3.547  -1.100 -0.0125 -2.2117  1.5353
  580MOL0     H76521  -0.026   3.668  -1.007 -0.0548 -0.3303 -1.3701
  580MOL0     H76522  -0.124   3.268  -0.835  0.8396  0.3949 -1.3723
  580MOL0     H76523  -0.370   3.194  -0.861  0.3293 -0.0739 -0.3426
  580MOL0     H76524  -0.707   3.178  -1.227  1.3372 -0.0776  0.9476
  580MOL0     H76525  -0.895   3.045  -1.305  1.8373 -1.0312 -0.8777
  580MOL0     H76526  -1.048   2.732  -1.036  0.5911  3.3155  1.1471
  580MOL0     H76527  -0.940   2.684  -1.150  1.4357  1.5752  0.1983
  580MOL0     H76528  -1.249   2.724  -1.188  3.3728  2.4404  1.6560
  580MOL0     H76529  -1.165   2.563  -1.170  0.3354 -1.0637 -2.2602
  580MOL0     H76530  -1.038   2.654  -1.370  0.1450  0.1533  0.9530
  580MOL0     H76531  -1.160   2.774  -1.394  3.1056 -0.1081 -2.2183
  580MOL0     H76532  -1.166   2.585  -1.544  2.3691  1.3271  1.8766
  580MOL0     H76533  -1.189   2.461  -1.419  3.8125  0.1477 -2.1575
  580MOL0     H76534  -1.403   2.574  -1.366 -0.0028  0.4911  0.1387
  580MOL0     H76535  -1.399   2.500  -1.524  1.2731 -1.8394  2.8042
  580MOL0     H76536  -1.332   2.755  -1.601 -1.5972  0.7659 -1.1881
  580MOL0     H76537  -1.391   2.788  -1.442  1.1649 -0.6537  0.2167
  580MOL0     H76538  -1.619   2.719  -1.510  0.6575  0.4804  0.2891
  580MOL0     H76539  -1.545   2.840  -1.620  1.0050  0.8728  1.9193
  580MOL0     H76540  -1.468   2.640  -1.758  0.3215 -0.4443  1.3905
  580MOL0     H76541  -1.638   2.698  -1.776  1.1733  1.5581  0.2945
  580MOL0     H76542  -0.917   2.860  -0.918 -1.3439  2.1259  0.8000
  580MOL0     H76543  -0.721   2.998  -0.850  0.5360  1.3191  0.1032
  580MOL0     H76544  -0.409   3.496  -1.171  3.5891  2.7204  0.2872
  580MOL0     H76545  -0.193   3.573  -1.120 -0.3554  0.6186  1.0010
  580MOL0     H76546   1.560   3.387  -0.167 -1.4599 -1.6077  1.1307
  580MOL0     H76547   1.727   3.564  -0.123 -0.8302 -0.2437 -2.2413
  580MOL0     H76548   1.674   3.979   0.291 -2.1170  1.9382  2.1297
  580MOL0     H76549   1.763   4.185   0.363  2.3284  0.6407  0.0463
  580MOL0     H76550   1.918   4.344   0.356 -0.4968 -0.0597  0.5468
  580MOL0     H76551   1.792   4.452   0.362 -1.8719 -1.1467 -1.8649
  580MOL0     H76552   2.034   4.532   0.195 -0.8145  1.5736 -1.6420
  580MOL0     H76553   1.901   4.620   0.276 -2.0931 -2.5464 -1.9121
  580MOL0     H76554   2.172   4.565   0.359  0.7789  1.5989  2.0274
  580MOL0     H76555   2.070   4.464   0.471  1.8476  1.2884  2.5019
  580MOL0     H76556   2.117   4.694   0.577 -0.8973  1.1875  0.3123
  580MOL0     H76557   2.067   4.769   0.427  1.7713 -1.3835 -1.1056
  580MOL0     H76558   1.690   4.654   0.608 -0.8595 -0.3382  0.3895
  580MOL0     H76559   1.795   4.298  -0.056 -0.4360 -1.2723 -0.7186
  580MOL0     H76560   1.712   4.091  -0.122 -1.2392  3.7829 -1.5946
  581MOL0     O76561   0.017   4.126   9.996  0.6430 -0.5700 -0.1012
  581MOL0     C76562   0.076   4.021  10.014 -0.7751  0.2481  0.0790
  581MOL0     O76563   0.029   3.897   9.983 -0.6761 -0.4146 -0.4184
  581MOL0     C76564  -0.098   3.872   9.942  0.2642  0.5608 -0.5975
  581MOL0     C76565  -0.213   3.953   9.967  0.5151 -0.1146  0.1144
  581MOL0     C76566  -0.340   3.918   9.943 -0.5489  0.1871  0.2554
  581MOL0     C76567  -0.367   3.790   9.881 -0.9046 -0.4735 -0.6324
  581MOL0     O76568  -0.500   3.752   9.876 -0.0358  0.5280  0.6259
  581MOL0     C76569  -0.540   3.643   9.784 -0.0848  0.4451 -0.7488
  581MOL0     C76570  -0.691   3.640   9.767  0.9373 -0.0061  0.4709
  581MOL0     C76571  -0.756   3.779   9.730  0.3417 -0.1167  0.6068
  581MOL0     C76572  -0.905   3.758   9.700 -0.6744  0.0893 -1.3558
  581MOL0     C76573  -0.973   3.891   9.666  0.0408  1.3670  0.4912
  581MOL0     C76574  -1.123   3.870   9.688  0.5696 -0.0210  0.1773
  581MOL0     C76575  -1.183   3.757   9.592  0.4702 -0.2405 -0.3673
  581MOL0     C76576  -1.331   3.778   9.563  0.3037 -0.1940 -0.0424
  581MOL0     N76577  -1.397   3.760   9.684  0.7108  0.7333 -0.3230
  581MOL0     C76578  -1.408   3.636   9.756 -1.2401 -0.1006  0.4919
  581MOL0     C76579  -1.514   3.654   9.837 -0.3637  0.4190 -0.4437
  581MOL0     C76580  -1.583   3.549   9.918 -0.5471  0.2386 -0.0177
  581MOL0     C76581  -1.583   3.578  10.066 -0.2066 -0.3371 -0.6294
  581MOL0     C76582  -1.435   3.561  10.123  0.3576  0.3857  0.6647
  581MOL0     C76583  -1.426   3.540  10.273  0.2854  0.0963 -0.8976
  581MOL0     O76584  -1.452   3.657  10.352 -0.0342 -0.3957  0.3912
  581MOL0     C76585  -1.348   3.733  10.402 -0.7896  0.0663  0.1673
  581MOL0     C76586  -1.218   3.749  10.347  1.1353 -0.1642 -0.1208
  581MOL0     C76587  -1.113   3.822  10.417  0.3210  0.1691  0.8372
  581MOL0     C76588  -1.145   3.877  10.541  0.8539  0.2686  1.0597
  581MOL0     C76589  -1.044   3.958  10.611 -0.2354 -0.9444  0.7111
  581MOL0     O76590  -0.923   3.975  10.547  0.5057 -0.0695 -0.2496
  581MOL0     C76591  -0.812   3.998  10.622  0.1952  1.0245 -0.4331
  581MOL0     C76592  -0.772   4.122  10.643  0.1021  0.4253 -0.1783
  581MOL0     C76593  -0.650   4.143  10.714 -0.0159 -0.8551 -0.8839
  581MOL0     C76594  -0.573   4.034  10.764 -0.3500 -0.2630 -0.4918
  581MOL0     O76595  -0.453   4.045  10.826  0.5065  0.0830 -0.1107
  581MOL0     C76596  -0.375   4.165  10.820  0.3828 -0.0938  0.2977
  581MOL0     C76597  -0.244   4.131  10.761 -0.0103 -0.5482  0.4405
  581MOL0     C76598  -0.150   4.249  10.773  0.9087 -0.1720  0.4711
  581MOL0     C76599  -0.008   4.199  10.732 -0.5797  0.3051 -0.1176
  581MOL0     C76600   0.114   4.267  10.791  0.0279 -0.0991 -0.1778
  581MOL0     C76601   0.114   4.416  10.772  1.3647 -0.3728 -0.4304
  581MOL0     C76602   0.257   4.473  10.800  0.4559 -0.2323 -0.1546
  581MOL0     C76603   0.263   4.611  10.740 -0.5105  0.6015 -0.5810
  581MOL0    Cl76604   0.399   4.697  10.823  0.2211 -0.1202  0.6934
  581MOL0     C76605  -0.624   3.907  10.741  0.1620  0.6948  0.3719
  581MOL0     C76606  -0.741   3.890  10.668 -0.8671  0.2051 -0.2203
  581MOL0     O76607  -1.065   3.982  10.729 -0.2693 -0.2257 -0.5193
  581MOL0     C76608  -1.277   3.864  10.591 -0.5607  0.0146 -0.5142
  581MOL0     C76609  -1.373   3.801  10.519 -0.0692  0.1046  0.4176
  581MOL0     N76610  -1.561   3.786   9.816  0.6745  0.4469  0.0288
  581MOL0     N76611  -1.491   3.850   9.731 -0.3874  0.3786  0.9459
  581MOL0     C76612  -0.257   3.703   9.859  0.5089 -0.2866 -1.3070
  581MOL0     C76613  -0.122   3.742   9.883  0.3854  0.2649 -0.0340
  581MOL0     C76614   0.223   4.032  10.055 -0.3329 -1.0269 -0.4893
  581MOL0     C76615   0.307   3.920  10.061  0.0844 -0.3272  1.0443
  581MOL0     C76616   0.447   3.939  10.090  0.6670  0.8612  0.2649
  581MOL0     C76617   0.480   4.062  10.137 -0.1560 -0.1827  0.2413
  581MOL0     O76618   0.610   4.061  10.178 -0.6002 -0.5545  0.4208
  581MOL0     C76619   0.653   4.179  10.250 -0.5373 -0.5652 -0.9117
  581MOL0     C76620   0.792   4.163  10.303 -0.3305  0.1500  0.2379
  581MOL0     C76621   0.795   4.082  10.432 -0.5776 -0.0849  0.2037
  581MOL0     C76622   0.908   4.137  10.526  0.3584  1.0323 -0.3119
  581MOL0     C76623   1.042   4.106  10.476  1.6020  0.8118 -0.5087
  581MOL0     C76624   1.155   4.073  10.458  0.9127  0.4543 -0.3110
  581MOL0     C76625   0.395   4.174  10.132  0.0238 -0.2301 -0.2756
  581MOL0     C76626   0.267   4.158  10.095  0.3946 -0.0213 -0.2268
  581MOL0     H76627  -0.209   4.049  10.017 -2.6271  0.2262 -0.0836
  581MOL0     H76628  -0.420   3.987   9.972  0.2110  1.0990  0.2390
  581MOL0     H76629  -0.500   3.544   9.808 -2.3741 -0.5109 -0.6546
  581MOL0     H76630  -0.504   3.670   9.685  0.3679  1.0442 -0.4301
  581MOL0     H76631  -0.748   3.590   9.846  0.1711  0.5695  0.3032
  581MOL0     H76632  -0.704   3.580   9.676 -2.5561 -0.1215  0.8978
  581MOL0     H76633  -0.709   3.825   9.643  0.0165 -2.3322 -0.8055
  581MOL0     H76634  -0.747   3.852   9.811  0.7739  0.9721 -0.4017
  581MOL0     H76635  -0.909   3.696   9.610 -0.2944 -1.1143 -0.5633
  581MOL0     H76636  -0.944   3.710   9.790 -2.0407  3.6808  0.1651
  581MOL0     H76637  -0.944   3.928   9.568 -1.4639 -0.0073 -0.5223
  581MOL0     H76638  -0.938   3.967   9.736  1.1528  0.7101  0.6721
  581MOL0     H76639  -1.167   3.967   9.662  2.4278  0.9640  0.5204
  581MOL0     H76640  -1.157   3.842   9.788 -1.1481 -0.0362 -0.3773
  581MOL0     H76641  -1.134   3.768   9.495 -2.2143  0.7575 -1.6972
  581MOL0     H76642  -1.161   3.658   9.633  0.5114 -0.0800  0.0113
  581MOL0     H76643  -1.367   3.696   9.499  0.4011 -0.3170  0.0610
  581MOL0     H76644  -1.350   3.878   9.522  0.5219 -0.1199  0.0321
  581MOL0     H76645  -1.349   3.546   9.741 -0.3161  0.0688  2.7543
  581MOL0     H76646  -1.527   3.457   9.901 -1.7879 -0.8411  1.4574
  581MOL0     H76647  -1.688   3.535   9.890 -0.1991  0.1314 -1.3002
  581MOL0     H76648  -1.640   3.497  10.112  0.4204 -1.1535 -1.2523
  581MOL0     H76649  -1.624   3.678  10.085 -0.0216 -0.2408 -0.7215
  581MOL0     H76650  -1.381   3.475  10.081 -1.7821 -1.1799  0.9825
  581MOL0     H76651  -1.380   3.653  10.103  1.1935  0.1634  1.7981
  581MOL0     H76652  -1.322   3.512  10.286  0.8358  2.5870  0.8141
  581MOL0     H76653  -1.491   3.457  10.303 -0.4258  1.0158  0.1944
  581MOL0     H76654  -1.183   3.698  10.258 -0.0950 -1.6565  0.2256
  581MOL0     H76655  -1.015   3.837  10.374  0.4634  4.6808  2.2284
  581MOL0     H76656  -0.820   4.206  10.593  0.9798  1.1081  0.0914
  581MOL0     H76657  -0.610   4.242  10.734 -3.2178  0.0614  1.9364
  581MOL0     H76658  -0.370   4.200  10.923 -0.7699  3.4561 -0.7155
  581MOL0     H76659  -0.413   4.242  10.751  1.5090 -1.5730 -2.1112
  581MOL0     H76660  -0.252   4.119  10.653 -0.4447 -0.7717  0.4954
  581MOL0     H76661  -0.208   4.038  10.806 -0.4235 -0.5446  0.7907
  581MOL0     H76662  -0.148   4.283  10.877 -2.5597 -0.3610  0.7222
  581MOL0     H76663  -0.183   4.333  10.712  0.5958 -0.7222 -0.1209
  581MOL0     H76664  -0.004   4.092  10.754 -3.1098  0.3236  0.8770
  581MOL0     H76665  -0.002   4.205  10.623  0.6846  2.8034  0.0142
  581MOL0     H76666   0.207   4.232  10.747  1.3428  1.7751  0.9806
  581MOL0     H76667   0.115   4.233  10.895  3.0678 -1.4568 -0.5703
  581MOL0     H76668   0.044   4.458  10.846  2.4444 -1.0206  1.0121
  581MOL0     H76669   0.074   4.444  10.675 -0.2301 -2.6589 -0.5156
  581MOL0     H76670   0.282   4.489  10.905 -0.7600  3.2232 -0.2737
  581MOL0     H76671   0.330   4.402  10.759 -1.7126 -0.8194 -3.4194
  581MOL0     H76672   0.171   4.668  10.756 -0.0621  1.0021  0.6898
  581MOL0     H76673   0.292   4.600  10.635  2.3514 -1.2185  0.2788
  581MOL0     H76674  -0.580   3.817  10.783 -0.7714 -1.0242 -2.1175
  581MOL0     H76675  -0.768   3.788  10.639 -0.3819  0.1929 -0.6327
  581MOL0     H76676  -1.296   3.908  10.689 -0.2125  1.6560 -1.1433
  581MOL0     H76677  -1.469   3.776  10.563  0.0729  0.1351  0.7483
  581MOL0     H76678  -0.284   3.605   9.822 -0.7710 -0.8959  1.0512
  581MOL0     H76679  -0.048   3.668   9.854 -1.2537 -2.4696  2.1790
  581MOL0     H76680   0.257   3.827  10.039 -2.5872  1.2174  0.1842
  581MOL0     H76681   0.513   3.853  10.085 -1.4928 -0.8217 -1.2358
  581MOL0     H76682   0.587   4.200  10.335  0.8980  1.4361 -0.2087
  581MOL0     H76683   0.658   4.264  10.182  0.3025  0.1293  0.0031
  581MOL0     H76684   0.870   4.120  10.240  1.7742  2.2486  1.2487
  581MOL0     H76685   0.822   4.264  10.331 -0.1251 -0.7193  3.6661
  581MOL0     H76686   0.806   3.973  10.421 -3.0751 -0.3475 -0.2813
  581MOL0     H76687   0.700   4.094  10.486  0.3365  0.2131  1.8021
  581MOL0     H76688   0.900   4.246  10.527 -1.0504  0.9775  1.8667
  581MOL0     H76689   0.896   4.095  10.626 -0.1640  1.8191 -0.0359
  581MOL0     H76690   1.257   4.041  10.447  1.2852  0.5533  2.3099
  581MOL0     H76691   0.426   4.274  10.161 -1.6733 -0.2775  1.9051
  581MOL0     H76692   0.201   4.245  10.097 -1.7823 -1.5204 -2.1023
  582MOL0     O76693   4.746   6.870  10.818 -0.5730 -0.4177  0.0079
  582MOL0     C76694   4.771   6.934  10.921 -0.4800  1.0379  0.0129
  582MOL0     O76695   4.675   6.983  11.001 -0.5466  0.2843 -0.7997
  582MOL0     C76696   4.542   6.967  10.956  0.0305  0.0139  0.1120
  582MOL0     C76697   4.456   6.887  11.024 -0.5184  0.1691 -0.7296
  582MOL0     C76698   4.321   6.866  10.984 -0.3603 -0.2981 -0.2113
  582MOL0     C76699   4.276   6.928  10.865 -0.4999 -0.0266  0.7620
  582MOL0     O76700   4.149   6.910  10.819 -0.3672  0.1726 -0.1199
  582MOL0     C76701   4.051   6.826  10.880  0.0591  0.0927 -0.0815
  582MOL0     C76702   3.921   6.841  10.804 -0.3374  0.1682  1.0280
  582MOL0     C76703   3.805   6.779  10.881 -0.2124  0.4746  0.3671
  582MOL0     C76704   3.813   6.627  10.898 -0.4663  0.3465 -0.4973
  582MOL0     C76705   3.670   6.572  10.921  0.0534  0.6935 -0.2039
  582MOL0     C76706   3.679   6.421  10.915 -0.2634 -1.4507 -0.6140
  582MOL0     C76707   3.551   6.344  10.934  0.0892  0.4866 -0.3233
  582MOL0     C76708   3.447   6.380  10.839  0.0949  0.5651 -0.5279
  582MOL0     N76709   3.337   6.288  10.842  0.6592 -0.5157 -1.0961
  582MOL0     C76710   3.344   6.169  10.789  0.5539  0.4829 -0.0905
  582MOL0     C76711   3.218   6.118  10.784 -0.1544 -0.2161  0.3593
  582MOL0     C76712   3.169   5.982  10.736  0.7220  0.0260 -0.2353
  582MOL0     C76713   3.158   5.889  10.851  0.3447  0.6601 -0.8049
  582MOL0     C76714   3.091   5.748  10.824 -0.0425 -0.1130 -0.5606
  582MOL0     C76715   2.938   5.748  10.865 -1.3288 -1.2922 -0.0832
  582MOL0     O76716   2.877   5.642  10.797 -0.2118  0.1687  0.4618
  582MOL0     C76717   2.739   5.644  10.794 -0.4777  0.3786 -0.0711
  582MOL0     C76718   2.663   5.708  10.892 -0.0863 -0.6939 -0.2835
  582MOL0     C76719   2.525   5.706  10.881 -0.1252 -0.4553  0.6169
  582MOL0     C76720   2.463   5.657  10.770  0.0433 -0.9746 -0.1668
  582MOL0     C76721   2.321   5.686  10.745  0.4859  1.1296  1.0675
  582MOL0     O76722   2.260   5.732  10.859 -0.2033 -0.6184 -1.4372
  582MOL0     C76723   2.135   5.783  10.846 -0.1818  0.1538 -0.1497
  582MOL0     C76724   2.121   5.911  10.791  0.6887 -1.5184 -0.5701
  582MOL0     C76725   1.999   5.979  10.821 -0.6874 -0.7102 -0.4147
  582MOL0     C76726   1.892   5.907  10.893  0.4983 -0.7812 -0.8276
  582MOL0     O76727   1.776   5.965  10.940 -0.4799 -0.3981  0.2495
  582MOL0     C76728   1.787   6.107  10.957  0.3005  0.8825  0.0321
  582MOL0     C76729   1.679   6.169  11.051  0.5083 -0.0659 -0.0236
  582MOL0     C76730   1.541   6.155  10.975  0.2486 -0.1737 -0.1284
  582MOL0     C76731   1.419   6.183  11.071  0.8572  0.7045  0.1319
  582MOL0     C76732   1.290   6.144  10.999 -0.6293 -0.6663  0.2260
  582MOL0     C76733   1.165   6.168  11.081  0.5027  0.7317 -0.8798
  582MOL0     C76734   1.047   6.160  10.987  0.0565 -0.5025 -0.3909
  582MOL0     C76735   0.924   6.201  11.080 -0.1625 -0.0111  0.3708
  582MOL0    Cl76736   0.789   6.223  10.960  0.1913 -0.1245  0.2910
  582MOL0     C76737   1.909   5.779  10.927 -0.5450  0.7955 -0.5398
  582MOL0     C76738   2.031   5.712  10.900  0.2501  1.0123 -0.5858
  582MOL0     O76739   2.274   5.682  10.631  0.2817 -0.0666 -0.3161
  582MOL0     C76740   2.535   5.589  10.670  0.2994  0.2186 -0.5469
  582MOL0     C76741   2.676   5.577  10.689 -0.1661 -0.4764 -0.5543
  582MOL0     N76742   3.135   6.211  10.837 -0.9775 -0.8382  0.0142
  582MOL0     N76743   3.207   6.315  10.870  0.2688  0.1792  0.2700
  582MOL0     C76744   4.365   7.004  10.792  0.5369  0.4334 -0.0148
  582MOL0     C76745   4.494   7.029  10.839 -0.5436  0.6818 -0.8003
  582MOL0     C76746   4.915   6.944  10.968  0.2011 -0.3270  0.3098
  582MOL0     C76747   4.954   7.040  11.065  0.7407  0.4292 -0.0381
  582MOL0     C76748   5.090   7.052  11.110  0.3874  0.3704  0.4644
  582MOL0     C76749   5.187   6.972  11.057 -0.2773 -0.5723 -0.6675
  582MOL0     O76750   5.320   6.990  11.096  0.1465  0.3463  0.5408
  582MOL0     C76751   5.380   7.116  11.140  0.7387 -0.3438 -0.1041
  582MOL0     C76752   5.400   7.225  11.028 -0.0263 -0.2755 -0.0399
  582MOL0     C76753   5.278   7.264  10.951 -0.0524 -0.5630  0.1499
  582MOL0     C76754   5.314   7.373  10.843 -0.2730  0.4495 -0.7993
  582MOL0     C76755   5.200   7.440  10.778 -0.2379 -0.3609 -0.0929
  582MOL0     C76756   5.104   7.505  10.743 -0.4818  1.4065  0.7583
  582MOL0     C76757   5.157   6.868  10.964  0.6132 -0.4979  0.0856
  582MOL0     C76758   5.023   6.853  10.926  1.0698  0.5059 -0.5330
  582MOL0     H76759   4.491   6.852  11.121 -2.6423 -0.2163 -0.0282
  582MOL0     H76760   4.252   6.801  11.036 -0.8202 -1.3930 -2.1101
  582MOL0     H76761   4.031   6.854  10.983  0.3379 -0.6444  0.1759
  582MOL0     H76762   4.097   6.727  10.889 -0.6208 -0.1378  0.9519
  582MOL0     H76763   3.944   6.794  10.708  1.1210  0.1602  1.3649
  582MOL0     H76764   3.898   6.946  10.787 -0.5386  0.0878  0.7964
  582MOL0     H76765   3.712   6.802  10.827 -0.8026  0.7696  1.4914
  582MOL0     H76766   3.790   6.834  10.974  0.5699  1.9350 -0.3356
  582MOL0     H76767   3.855   6.572  10.814  3.0041  1.5602  0.2394
  582MOL0     H76768   3.879   6.605  10.983 -2.5522 -2.7208  0.4820
  582MOL0     H76769   3.603   6.604  10.840 -1.4388 -0.7477  0.4069
  582MOL0     H76770   3.636   6.600  11.021  2.3055 -1.0530  1.1500
  582MOL0     H76771   3.758   6.397  10.986 -0.5891 -0.5899  0.0792
  582MOL0     H76772   3.717   6.398  10.815 -1.6733 -1.6467 -1.1309
  582MOL0     H76773   3.591   6.242  10.928  1.0430  0.7815  0.7221
  582MOL0     H76774   3.512   6.347  11.037  3.1590  0.0859  0.9613
  582MOL0     H76775   3.487   6.390  10.738 -0.4897 -1.1047 -0.9636
  582MOL0     H76776   3.417   6.483  10.862 -1.0956  0.5556 -1.9361
  582MOL0     H76777   3.434   6.112  10.764  1.4101  1.6260  0.3076
  582MOL0     H76778   3.255   5.954  10.673  1.4044  2.5391 -0.5055
  582MOL0     H76779   3.078   5.986  10.675 -0.1972  0.0147  1.1119
  582MOL0     H76780   3.099   5.936  10.931  0.0469 -2.7355  1.1542
  582MOL0     H76781   3.252   5.862  10.900 -0.6500 -0.2166  0.6637
  582MOL0     H76782   3.108   5.731  10.717  0.4496 -0.6582 -0.3960
  582MOL0     H76783   3.133   5.670  10.887 -2.5660 -1.0661  0.0653
  582MOL0     H76784   2.898   5.847  10.840  1.8466  0.6854  1.8453
  582MOL0     H76785   2.926   5.733  10.973  1.1664  0.5716  0.5373
  582MOL0     H76786   2.700   5.770  10.974  0.1709  2.1842 -2.4119
  582MOL0     H76787   2.477   5.759  10.963 -0.8547 -1.0041  0.5555
  582MOL0     H76788   2.210   5.956  10.748 -0.3128 -0.4899 -1.6505
  582MOL0     H76789   1.980   6.079  10.783 -1.9769 -1.1524 -1.0028
  582MOL0     H76790   1.764   6.149  10.858  1.0037  0.3439 -0.3637
  582MOL0     H76791   1.880   6.129  11.010  0.4283  0.2408  0.0769
  582MOL0     H76792   1.705   6.275  11.063 -0.9107  0.1483  1.6395
  582MOL0     H76793   1.689   6.131  11.153 -0.0017 -0.9910 -0.3109
  582MOL0     H76794   1.523   6.056  10.932 -1.2488  0.3655 -0.7989
  582MOL0     H76795   1.557   6.218  10.887 -0.5104 -1.7487 -1.4558
  582MOL0     H76796   1.419   6.124  11.163 -0.4675 -2.9756 -2.0492
  582MOL0     H76797   1.408   6.287  11.105 -3.9858 -0.2266  2.2569
  582MOL0     H76798   1.284   6.038  10.974 -1.0452 -0.7082  0.4886
  582MOL0     H76799   1.287   6.189  10.899  1.9881 -1.6920 -0.4063
  582MOL0     H76800   1.159   6.266  11.130  1.9139 -0.1988  1.2642
  582MOL0     H76801   1.154   6.088  11.154  0.2165  2.2380  0.8046
  582MOL0     H76802   1.053   6.243  10.917 -0.3566  1.8289  2.1699
  582MOL0     H76803   1.043   6.059  10.945  0.8713 -0.9171  0.4806
  582MOL0     H76804   0.938   6.298  11.129 -2.6251  1.2860 -1.2712
  582MOL0     H76805   0.901   6.118  11.147  0.9890 -2.6455 -2.2303
  582MOL0     H76806   1.835   5.717  10.978 -0.1864 -0.6873 -1.7311
  582MOL0     H76807   2.050   5.610  10.932  0.7581  1.2869 -0.0008
  582MOL0     H76808   2.483   5.560  10.580 -3.0796  1.6563  0.7584
  582MOL0     H76809   2.735   5.528  10.612  1.5599  0.6382  0.0053
  582MOL0     H76810   4.331   7.049  10.699  0.4924  3.4001  1.3193
  582MOL0     H76811   4.571   7.065  10.770  1.0489 -0.4693  0.2974
  582MOL0     H76812   4.877   7.106  11.104  1.7427  1.9799 -0.5615
  582MOL0     H76813   5.110   7.126  11.188 -0.0910 -0.1669  1.1070
  582MOL0     H76814   5.479   7.079  11.166  0.1989 -0.9400  1.1648
  582MOL0     H76815   5.314   7.153  11.218 -0.1915 -1.5433 -0.2896
  582MOL0     H76816   5.438   7.318  11.073 -1.4388  0.6531 -0.6679
  582MOL0     H76817   5.484   7.194  10.966  1.4730  0.1939  1.6869
  582MOL0     H76818   5.203   7.314  11.013 -1.7889  0.2396 -2.4172
  582MOL0     H76819   5.238   7.173  10.904 -1.0856 -0.4484  0.7729
  582MOL0     H76820   5.362   7.455  10.896  2.1034 -1.0379 -0.5198
  582MOL0     H76821   5.384   7.332  10.770 -1.4918 -1.4993 -0.9368
  582MOL0     H76822   5.030   7.557  10.686 -2.2404 -1.5727  0.0720
  582MOL0     H76823   5.234   6.798  10.932  3.0719  2.8040 -1.8767
  582MOL0     H76824   4.995   6.765  10.869  1.4252  1.4918 -2.3089
  583MOL0     O76825   7.634   4.492   9.599 -0.0997 -0.4026  0.4156
  583MOL0     C76826   7.679   4.428   9.697  1.0387  0.6415 -0.4911
  583MOL0     O76827   7.603   4.384   9.804 -0.2324 -0.2322  0.0562
  583MOL0     C76828   7.470   4.361   9.798 -0.1217 -0.5010  0.1827
  583MOL0     C76829   7.382   4.410   9.898 -0.0665  0.5694  0.2654
  583MOL0     C76830   7.246   4.378   9.904 -0.7029 -0.1331 -0.2167
  583MOL0     C76831   7.184   4.318   9.795  0.6919 -0.4183  0.6592
  583MOL0     O76832   7.043   4.317   9.785 -0.2292  0.1213  0.1039
  583MOL0     C76833   6.979   4.193   9.758 -0.1424 -0.4350  0.2238
  583MOL0     C76834   6.835   4.241   9.771 -0.7251  0.2440  0.0168
  583MOL0     C76835   6.807   4.263   9.923 -0.9975 -0.5574  0.4521
  583MOL0     C76836   6.664   4.265   9.948  1.1990 -0.0851 -0.0171
  583MOL0     C76837   6.628   4.278  10.095  0.4279 -0.0943  0.9484
  583MOL0     C76838   6.498   4.206  10.131 -0.1457 -0.1674 -0.3859
  583MOL0     C76839   6.453   4.240  10.276 -0.4737  0.2100 -0.4059
  583MOL0     C76840   6.302   4.222  10.289 -0.0652 -0.0182 -0.3018
  583MOL0     N76841   6.248   4.083  10.283 -0.2881 -0.4058  0.0177
  583MOL0     C76842   6.253   4.007  10.169  0.9839 -0.0350  0.3907
  583MOL0     C76843   6.193   3.890  10.191 -0.3800 -0.5355 -0.6917
  583MOL0     C76844   6.176   3.772  10.096  0.8919  0.2057  0.7961
  583MOL0     C76845   6.030   3.723  10.071 -0.3982  0.6619  0.2408
  583MOL0     C76846   5.933   3.843  10.064  0.3876 -0.1414 -0.6540
  583MOL0     C76847   5.791   3.810  10.035 -0.2463  1.3655  0.3795
  583MOL0     O76848   5.699   3.915  10.045 -0.0654  0.8474  0.8818
  583MOL0     C76849   5.570   3.889  10.063  0.1772  1.3191 -0.4429
  583MOL0     C76850   5.488   3.803   9.977 -0.9200 -0.4123 -0.0930
  583MOL0     C76851   5.352   3.789   9.995 -0.3653  0.7617 -1.0782
  583MOL0     C76852   5.284   3.857  10.089  0.2593  0.4184  0.2756
  583MOL0     C76853   5.137   3.825  10.110  0.8356  0.9610 -0.4263
  583MOL0     O76854   5.073   3.746  10.027  0.6459 -0.1024 -0.0799
  583MOL0     C76855   4.935   3.755  10.042  0.3287  0.3142  0.0184
  583MOL0     C76856   4.863   3.881  10.054  0.0874 -0.0077 -0.1860
  583MOL0     C76857   4.727   3.883  10.050  0.1672  0.2478 -0.8856
  583MOL0     C76858   4.655   3.764  10.020 -0.5603  0.1314 -0.6011
  583MOL0     O76859   4.515   3.760  10.014 -0.1976 -0.1862  0.5892
  583MOL0     C76860   4.429   3.869  10.066 -0.1812  0.2935  1.2527
  583MOL0     C76861   4.284   3.823  10.062 -0.0548 -0.4063  0.0701
  583MOL0     C76862   4.201   3.940  10.125  0.9269 -0.5559 -0.0086
  583MOL0     C76863   4.049   3.912  10.120  0.4755 -0.3580 -0.0348
  583MOL0     C76864   3.971   4.038  10.160  0.4908 -0.3764  0.3703
  583MOL0     C76865   3.820   4.023  10.156 -0.2856  0.7801 -0.3385
  583MOL0     C76866   3.754   4.119  10.252  1.2491 -0.1736  0.3263
  583MOL0     C76867   3.602   4.111  10.225  0.6063  0.2579 -0.9331
  583MOL0    Cl76868   3.535   3.944  10.251  0.1832  0.2290  0.3680
  583MOL0     C76869   4.722   3.647  10.005  0.2223 -0.5566  0.0955
  583MOL0     C76870   4.856   3.638  10.014  0.5614  0.7018 -1.1536
  583MOL0     O76871   5.105   3.864  10.223 -0.1645 -0.5013  0.2018
  583MOL0     C76872   5.360   3.948  10.179  0.2484  0.4101  0.0488
  583MOL0     C76873   5.500   3.957  10.158  0.5881 -1.3803 -0.7792
  583MOL0     N76874   6.151   3.900  10.324 -1.2820 -0.4061  0.3741
  583MOL0     N76875   6.177   4.016  10.374  0.0874 -0.1212  0.4165
  583MOL0     C76876   7.272   4.265   9.691 -0.4812 -0.0422 -0.8482
  583MOL0     C76877   7.410   4.281   9.696  0.3574 -0.1697  0.5206
  583MOL0     C76878   7.820   4.426   9.693 -1.0253  0.3508 -0.2551
  583MOL0     C76879   7.900   4.468   9.583  0.2946  0.2412 -0.0544
  583MOL0     C76880   8.038   4.466   9.571 -0.4061  0.5540  0.2443
  583MOL0     C76881   8.122   4.432   9.679  0.0612  1.1842  0.3451
  583MOL0     O76882   8.258   4.439   9.681  0.3013 -0.8728 -0.0089
  583MOL0     C76883   8.323   4.470   9.803 -0.6678  0.2963 -0.6923
  583MOL0     C76884   8.306   4.620   9.852  0.3742 -0.1576 -0.1490
  583MOL0     C76885   8.374   4.678   9.980 -0.0610  0.4386  0.1157
  583MOL0     C76886   8.323   4.603  10.097  0.7061  0.4548 -0.1522
  583MOL0     C76887   8.174   4.609  10.116  0.3525  0.2540 -0.3267
  583MOL0     C76888   8.052   4.629  10.145 -0.4527 -0.1503 -0.3451
  583MOL0     C76889   8.047   4.397   9.793  0.3989  0.5176  0.5653
  583MOL0     C76890   7.899   4.388   9.805 -0.3528 -0.1653  0.4216
  583MOL0     H76891   7.435   4.475   9.967  1.2774  0.2131 -0.4058
  583MOL0     H76892   7.191   4.413   9.990  0.1174 -0.4067  0.4357
  583MOL0     H76893   7.006   4.128   9.842  0.4272  0.8009  1.0255
  583MOL0     H76894   6.998   4.172   9.652 -1.5011  1.2388 -0.3980
  583MOL0     H76895   6.782   4.153   9.734  1.9089 -1.0062 -1.0605
  583MOL0     H76896   6.815   4.326   9.705  2.3294  2.7676  2.0196
  583MOL0     H76897   6.863   4.350   9.959  1.4732 -1.4450 -0.9803
  583MOL0     H76898   6.850   4.177   9.975 -1.4761  0.0188  1.8732
  583MOL0     H76899   6.615   4.337   9.882 -0.6957 -1.6041 -0.3705
  583MOL0     H76900   6.635   4.164   9.917 -1.3842  0.0345  1.7309
  583MOL0     H76901   6.605   4.384  10.106 -1.2037 -0.2784 -0.3938
  583MOL0     H76902   6.709   4.250  10.164 -1.2474  1.7910  3.9124
  583MOL0     H76903   6.522   4.099  10.121 -0.3414 -0.3223  0.6635
  583MOL0     H76904   6.417   4.230  10.062  0.7060 -1.0518 -1.7531
  583MOL0     H76905   6.504   4.171  10.344 -0.3731  0.5402 -0.1478
  583MOL0     H76906   6.481   4.341  10.305  0.3666 -0.7432  2.3827
  583MOL0     H76907   6.248   4.275  10.212 -3.4106 -0.9862  1.2058
  583MOL0     H76908   6.272   4.275  10.380  2.1243 -0.5558  0.8340
  583MOL0     H76909   6.294   4.037  10.073  1.2299 -1.3214  0.0657
  583MOL0     H76910   6.220   3.683  10.140  0.9177 -0.6009 -0.7851
  583MOL0     H76911   6.216   3.791   9.995  0.2133 -3.3461 -0.2621
  583MOL0     H76912   5.998   3.648  10.144 -1.2839 -1.0738 -1.8062
  583MOL0     H76913   6.031   3.675   9.973 -2.6503 -0.8497  0.8856
  583MOL0     H76914   5.927   3.902  10.156 -1.0244  1.9044 -1.9479
  583MOL0     H76915   5.968   3.899   9.977 -0.3635 -0.8191 -1.4031
  583MOL0     H76916   5.762   3.730  10.103  0.9333 -1.1971 -1.9226
  583MOL0     H76917   5.782   3.757   9.939 -1.8977 -1.8073  2.1228
  583MOL0     H76918   5.531   3.741   9.899  3.5863 -0.2119  1.9400
  583MOL0     H76919   5.307   3.719   9.926  0.0375  0.7090 -1.2926
  583MOL0     H76920   4.919   3.974  10.061  2.9303 -1.4717 -1.5537
  583MOL0     H76921   4.673   3.976  10.058  1.0709  0.9203 -2.2261
  583MOL0     H76922   4.449   3.964  10.016  0.9010  0.3335  1.7451
  583MOL0     H76923   4.442   3.886  10.173  0.3561  0.3599  1.1809
  583MOL0     H76924   4.272   3.726  10.110 -2.0604 -2.1540 -3.5544
  583MOL0     H76925   4.262   3.813   9.955  1.8507 -1.5237 -0.2545
  583MOL0     H76926   4.229   4.031  10.071 -0.0425  0.0290  0.4259
  583MOL0     H76927   4.225   3.947  10.231  0.2507 -0.7124  0.1632
  583MOL0     H76928   4.027   3.875  10.020  1.7628 -0.1505 -0.4132
  583MOL0     H76929   4.024   3.840  10.199 -2.2768  2.2806  1.6943
  583MOL0     H76930   3.994   4.121  10.092 -0.1647 -2.0236 -1.9777
  583MOL0     H76931   4.009   4.068  10.258  1.1019 -3.1470  1.0600
  583MOL0     H76932   3.797   3.922  10.189  3.4281 -0.3286 -0.5854
  583MOL0     H76933   3.773   4.030  10.057  1.9623  1.8064 -1.4116
  583MOL0     H76934   3.766   4.091  10.357 -0.0240  1.9039  1.1022
  583MOL0     H76935   3.782   4.225  10.245 -1.3065  0.5327 -0.4422
  583MOL0     H76936   3.573   4.139  10.123 -2.4327 -0.9042 -0.4989
  583MOL0     H76937   3.553   4.179  10.295 -0.3120 -1.1170 -0.2042
  583MOL0     H76938   4.662   3.557   9.996 -2.2312  0.9598  0.3829
  583MOL0     H76939   4.909   3.543  10.013  1.0000  0.9437 -2.4643
  583MOL0     H76940   5.307   3.997  10.260 -1.7963 -0.1488 -0.8722
  583MOL0     H76941   5.549   4.039  10.209 -2.6967  0.7901 -0.7652
  583MOL0     H76942   7.232   4.213   9.605 -0.0057 -3.2425  0.7209
  583MOL0     H76943   7.464   4.245   9.610 -0.4004 -1.0312  0.3960
  583MOL0     H76944   7.847   4.483   9.490  1.1880  0.4316 -0.5390
  583MOL0     H76945   8.086   4.511   9.484  1.9204 -1.7366  0.2033
  583MOL0     H76946   8.427   4.444   9.782 -0.3712  1.5933 -0.9683
  583MOL0     H76947   8.287   4.404   9.882 -3.4778 -1.7001 -3.4146
  583MOL0     H76948   8.332   4.680   9.764 -0.3199  0.8124  0.2847
  583MOL0     H76949   8.198   4.631   9.868  0.1481  0.8885 -2.0991
  583MOL0     H76950   8.348   4.783   9.998 -0.5402  0.1892  0.9323
  583MOL0     H76951   8.483   4.677   9.967 -0.0636  1.2552 -0.0280
  583MOL0     H76952   8.349   4.499  10.077  0.9091  0.5804 -0.5571
  583MOL0     H76953   8.377   4.641  10.184  1.3788 -2.3147  0.7147
  583MOL0     H76954   7.947   4.645  10.150 -0.3572  0.0923  1.8854
  583MOL0     H76955   8.093   4.364   9.886  0.6434  1.9129  0.9552
  583MOL0     H76956   7.852   4.363   9.900  0.2871  1.7808  1.3185
  584MOL0     O76957   0.627   5.953   8.608 -0.3277 -0.2152  0.1006
  584MOL0     C76958   0.675   5.848   8.565  0.4587  0.3510  0.4467
  584MOL0     O76959   0.597   5.742   8.531 -0.0493  0.0192  0.3284
  584MOL0     C76960   0.458   5.753   8.547  0.3564  0.7733 -0.7333
  584MOL0     C76961   0.388   5.792   8.438 -0.3818 -0.0658 -0.1148
  584MOL0     C76962   0.243   5.810   8.446 -1.5778 -0.2132 -0.4813
  584MOL0     C76963   0.176   5.757   8.557  0.4354  0.0830 -0.3123
  584MOL0     O76964   0.044   5.741   8.547 -0.3725  0.6970  0.0302
  584MOL0     C76965  -0.023   5.730   8.418  0.0022  0.6836 -0.2115
  584MOL0     C76966  -0.169   5.658   8.442 -0.2494  0.2363 -0.0151
  584MOL0     C76967  -0.257   5.703   8.331  0.4940 -0.2657 -0.1077
  584MOL0     C76968  -0.386   5.616   8.337 -0.2368 -0.3093 -0.2351
  584MOL0     C76969  -0.474   5.666   8.212  0.5193  0.1140  0.4674
  584MOL0     C76970  -0.594   5.570   8.199  0.0564  0.0828  0.0789
  584MOL0     C76971  -0.698   5.658   8.123 -0.3392  0.2338  0.3566
  584MOL0     C76972  -0.822   5.581   8.086  1.0217  0.6401  0.5713
  584MOL0     N76973  -0.925   5.675   8.044  0.3837  0.5610 -0.4956
  584MOL0     C76974  -1.005   5.752   8.129  0.3857 -0.1081 -0.1211
  584MOL0     C76975  -1.099   5.805   8.045  1.0297  0.0542 -0.5811
  584MOL0     C76976  -1.207   5.905   8.068 -0.5479  0.2063 -0.7629
  584MOL0     C76977  -1.285   5.878   8.194  0.9707  0.6133 -0.7443
  584MOL0     C76978  -1.363   5.749   8.191 -0.1103  0.5823 -0.1304
  584MOL0     C76979  -1.459   5.737   8.076  0.9217 -1.3074  0.0051
  584MOL0     O76980  -1.573   5.662   8.112 -0.5971  0.1691  0.4968
  584MOL0     C76981  -1.677   5.631   8.031  0.6756 -0.0352  0.1335
  584MOL0     C76982  -1.708   5.688   7.911  0.7567  0.0210 -0.2160
  584MOL0     C76983  -1.822   5.647   7.841 -0.2396 -0.3978  0.3938
  584MOL0     C76984  -1.896   5.532   7.877  1.0704 -0.7927 -0.1369
  584MOL0     C76985  -2.002   5.477   7.801 -0.6663  0.0847  0.7621
  584MOL0     O76986  -2.080   5.379   7.853  0.6327 -0.5199 -0.0235
  584MOL0     C76987  -2.168   5.307   7.783  1.2730  0.1227 -0.5843
  584MOL0     C76988  -2.151   5.247   7.663  0.3825  0.0558  0.4736
  584MOL0     C76989  -2.244   5.164   7.605  0.4271  0.5475  0.1850
  584MOL0     C76990  -2.373   5.157   7.659 -1.3381  0.7156  0.0928
  584MOL0     O76991  -2.469   5.082   7.595  0.3165 -0.1921 -0.3889
  584MOL0     C76992  -2.579   5.029   7.673  0.1907  0.1343  0.2670
  584MOL0     C76993  -2.646   4.907   7.597 -0.6931  0.2192  0.2464
  584MOL0     C76994  -2.760   4.848   7.680 -0.2932  0.3705 -0.0699
  584MOL0     C76995  -2.890   4.925   7.657 -0.7742  0.3150 -0.6517
  584MOL0     C76996  -2.993   4.869   7.752 -0.0635  0.9053  1.2090
  584MOL0     C76997  -3.099   4.967   7.785 -0.6697 -0.7426  0.4725
  584MOL0     C76998  -3.188   4.902   7.883 -0.4324  0.0051 -0.3302
  584MOL0     C76999  -3.314   4.982   7.900  0.3164  0.2540  0.0535
  584MOL0    Cl77000  -3.414   4.989   7.751  0.0175 -0.1270 -0.0028
  584MOL0     C77001  -2.387   5.205   7.787  0.8617 -0.5744 -1.0365
  584MOL0     C77002  -2.287   5.274   7.851  0.0387 -0.8542  0.0969
  584MOL0     O77003  -2.002   5.505   7.672  0.1061  0.7452 -0.1636
  584MOL0     C77004  -1.865   5.475   7.998 -0.0192 -0.0223  0.4055
  584MOL0     C77005  -1.756   5.521   8.069  1.1152 -0.8963  0.1989
  584MOL0     N77006  -1.078   5.763   7.914  0.0455 -0.4110 -0.2470
  584MOL0     N77007  -0.978   5.677   7.914  0.7572  0.3187 -0.0007
  584MOL0     C77008   0.252   5.709   8.668  0.7759  0.2359  0.8911
  584MOL0     C77009   0.393   5.706   8.662  0.4150 -0.7164 -0.0003
  584MOL0     C77010   0.824   5.833   8.553 -0.1664  0.0972  0.0827
  584MOL0     C77011   0.921   5.918   8.612  0.6283 -0.7088  0.5700
  584MOL0     C77012   1.057   5.909   8.577 -0.4027  0.4867 -0.5419
  584MOL0     C77013   1.104   5.808   8.491  0.5858 -0.4713  0.7618
  584MOL0     O77014   1.237   5.790   8.465  0.2462 -0.1833  0.0607
  584MOL0     C77015   1.285   5.796   8.329  0.2747 -0.0269  0.5877
  584MOL0     C77016   1.434   5.767   8.318 -0.4296 -0.2526  0.3025
  584MOL0     C77017   1.529   5.877   8.382 -0.2536 -0.3414  0.3818
  584MOL0     C77018   1.676   5.865   8.348 -0.8785  0.6284  0.0299
  584MOL0     C77019   1.716   5.740   8.412 -0.8623  0.3492  0.3809
  584MOL0     C77020   1.750   5.641   8.471 -0.6905  0.7199 -0.4161
  584MOL0     C77021   1.004   5.727   8.425 -0.4220 -0.6029 -0.2643
  584MOL0     C77022   0.877   5.734   8.459  0.0870  0.3954 -0.5396
  584MOL0     H77023   0.438   5.822   8.346  0.8490  0.5484  0.7224
  584MOL0     H77024   0.185   5.851   8.365 -1.1569  2.6348  0.5520
  584MOL0     H77025   0.036   5.679   8.342 -0.8593 -1.1966  0.3276
  584MOL0     H77026  -0.040   5.832   8.382 -2.6147  0.6706  0.7439
  584MOL0     H77027  -0.217   5.686   8.536  1.6217  2.7563  0.2944
  584MOL0     H77028  -0.153   5.550   8.435  2.0358  0.4835  0.7222
  584MOL0     H77029  -0.211   5.691   8.232  1.0203  0.9123 -0.0246
  584MOL0     H77030  -0.277   5.808   8.354  2.8975  0.3818 -0.7046
  584MOL0     H77031  -0.363   5.511   8.322 -0.0898 -0.0929 -1.6312
  584MOL0     H77032  -0.435   5.634   8.434  0.1362  0.6687 -0.2161
  584MOL0     H77033  -0.410   5.671   8.124  0.9585 -1.6853  0.6560
  584MOL0     H77034  -0.510   5.765   8.244 -0.1397 -0.1906  0.6880
  584MOL0     H77035  -0.630   5.543   8.299  0.6008  0.1323  0.2930
  584MOL0     H77036  -0.558   5.488   8.136 -0.3301  0.7216 -1.0095
  584MOL0     H77037  -0.719   5.755   8.168  2.1054  1.5611 -1.0895
  584MOL0     H77038  -0.649   5.680   8.027  1.6741 -2.9163  0.4831
  584MOL0     H77039  -0.867   5.525   8.168  1.6562 -0.8764 -0.0842
  584MOL0     H77040  -0.795   5.506   8.011  3.2322 -0.2687  2.1567
  584MOL0     H77041  -0.990   5.771   8.235  0.1390  0.2348 -0.1431
  584MOL0     H77042  -1.269   5.910   7.979  0.0344 -0.1772 -1.1927
  584MOL0     H77043  -1.160   6.003   8.083  0.2224 -0.3914  1.1488
  584MOL0     H77044  -1.351   5.959   8.226 -1.1114 -0.9222 -0.9926
  584MOL0     H77045  -1.209   5.861   8.272 -0.4165 -0.0775  0.5054
  584MOL0     H77046  -1.307   5.656   8.200 -1.1113  0.1623  2.6439
  584MOL0     H77047  -1.431   5.743   8.276  0.8437 -1.5843  0.5508
  584MOL0     H77048  -1.403   5.685   7.998  1.7510 -0.4809  0.0277
  584MOL0     H77049  -1.484   5.838   8.041  0.5672 -0.6961  1.9304
  584MOL0     H77050  -1.634   5.757   7.872  3.0505 -0.6493  2.6578
  584MOL0     H77051  -1.843   5.696   7.746 -1.6582  0.7512  1.2611
  584MOL0     H77052  -2.056   5.255   7.610 -0.3625  0.7961 -0.8254
  584MOL0     H77053  -2.234   5.114   7.508 -1.0464 -2.0064  1.2428
  584MOL0     H77054  -2.659   5.099   7.699 -3.0400 -3.3455  0.5373
  584MOL0     H77055  -2.554   4.991   7.773 -0.6238 -0.0218  0.4188
  584MOL0     H77056  -2.577   4.823   7.581 -2.1459 -0.7447 -1.2287
  584MOL0     H77057  -2.684   4.942   7.501  1.7007 -4.0067 -2.5683
  584MOL0     H77058  -2.723   4.864   7.782  0.5589  0.9851 -0.4723
  584MOL0     H77059  -2.773   4.740   7.662  0.0281  0.0947  1.2007
  584MOL0     H77060  -2.874   5.032   7.674  2.8889 -0.2567  0.2890
  584MOL0     H77061  -2.920   4.903   7.555  0.6499 -3.8383 -0.3654
  584MOL0     H77062  -2.938   4.840   7.843 -0.1682 -2.5774  0.2693
  584MOL0     H77063  -3.033   4.777   7.711 -0.2041  2.4403 -2.4271
  584MOL0     H77064  -3.140   5.013   7.695  2.7599  2.3527  0.2803
  584MOL0     H77065  -3.054   5.049   7.842 -2.7547  1.1404 -0.4652
  584MOL0     H77066  -3.188   4.793   7.869  3.4650 -0.2288  0.2712
  584MOL0     H77067  -3.123   4.905   7.971  0.0924 -0.9054 -0.6750
  584MOL0     H77068  -3.286   5.084   7.930  1.1131  0.6064 -1.7834
  584MOL0     H77069  -3.385   4.935   7.969 -2.0579 -0.0890 -2.4362
  584MOL0     H77070  -2.477   5.188   7.846  0.6021 -0.9231 -1.5297
  584MOL0     H77071  -2.314   5.306   7.951 -1.7188  0.7811 -0.8250
  584MOL0     H77072  -1.923   5.394   8.039 -1.5564  0.2701 -1.1015
  584MOL0     H77073  -1.741   5.475   8.167  1.3809  1.1607  1.1916
  584MOL0     H77074   0.197   5.677   8.756  0.1508  0.0435  0.4314
  584MOL0     H77075   0.438   5.662   8.751  0.7007  1.1131  0.8142
  584MOL0     H77076   0.894   6.008   8.668  1.6874  0.2228 -0.3549
  584MOL0     H77077   1.115   5.986   8.626  1.0430 -1.0382  0.2406
  584MOL0     H77078   1.269   5.892   8.278  1.3417 -0.5267 -0.7299
  584MOL0     H77079   1.240   5.717   8.268 -0.1974 -1.3562  2.5282
  584MOL0     H77080   1.459   5.675   8.372  0.6007 -0.2782 -0.1988
  584MOL0     H77081   1.455   5.763   8.210  2.2988 -0.4649  0.7809
  584MOL0     H77082   1.519   5.871   8.491  0.8101 -0.6921  0.4746
  584MOL0     H77083   1.494   5.968   8.333  3.1119  1.2608  0.6081
  584MOL0     H77084   1.702   5.856   8.243  1.2985  2.9204  0.2642
  584MOL0     H77085   1.729   5.953   8.389 -0.3269 -0.5618  2.0374
  584MOL0     H77086   1.766   5.549   8.523 -2.9404  1.4389  1.7468
  584MOL0     H77087   1.031   5.642   8.362 -0.5387 -3.0607  2.7444
  584MOL0     H77088   0.810   5.661   8.414  1.7218 -1.3377 -0.2897
  585MOL0     O77089   9.278  10.394  11.146  0.5010  0.4318  0.5864
  585MOL0     C77090   9.337  10.361  11.251  0.3348 -0.4014 -0.2359
  585MOL0     O77091   9.299  10.261  11.334 -0.8365  0.0065  0.4489
  585MOL0     C77092   9.172  10.214  11.332 -0.6692  0.1556  0.5286
  585MOL0     C77093   9.112  10.158  11.219  1.0460 -0.4217  0.5050
  585MOL0     C77094   8.988  10.097  11.232 -0.1503  0.2481  0.0835
  585MOL0     C77095   8.910  10.097  11.352 -0.6292 -0.5505  0.6659
  585MOL0     O77096   8.789  10.044  11.344  0.3403 -0.4152  0.7846
  585MOL0     C77097   8.683  10.124  11.403 -0.0765  0.2045 -0.0053
  585MOL0     C77098   8.545  10.050  11.404 -0.7896 -0.2419 -0.5464
  585MOL0     C77099   8.542   9.924  11.481 -0.1199 -0.5071  1.1040
  585MOL0     C77100   8.398   9.860  11.484 -0.2003 -0.5068 -0.4484
  585MOL0     C77101   8.399   9.717  11.533  0.7142 -0.0894  0.0794
  585MOL0     C77102   8.263   9.693  11.596  0.3589  0.0207  0.1352
  585MOL0     C77103   8.231   9.545  11.628  0.5002  0.3973  0.0663
  585MOL0     C77104   8.267   9.447  11.515 -0.5543  1.8173  1.0597
  585MOL0     N77105   8.204   9.310  11.532 -0.7646 -0.2973 -0.8706
  585MOL0     C77106   8.132   9.266  11.635 -0.8422  0.5417 -0.4469
  585MOL0     C77107   8.116   9.137  11.608 -0.7245 -0.7872 -1.1008
  585MOL0     C77108   8.053   9.045  11.703  0.6994  0.3504 -0.0784
  585MOL0     C77109   7.900   9.076  11.705  0.2844  0.9801  0.0799
  585MOL0     C77110   7.849   9.000  11.824  0.2034 -0.7239  0.3978
  585MOL0     C77111   7.712   9.052  11.883 -0.7751 -0.2785 -0.5421
  585MOL0     O77112   7.738   9.133  11.998  0.1682 -0.1728  0.1659
  585MOL0     C77113   7.635   9.183  12.072  0.1405  0.7342 -0.4124
  585MOL0     C77114   7.505   9.203  12.015  0.1527 -0.4641  0.0625
  585MOL0     C77115   7.409   9.275  12.092 -0.0703 -0.7312  0.4234
  585MOL0     C77116   7.444   9.338  12.216 -0.5573 -0.3472  0.7709
  585MOL0     C77117   7.348   9.413  12.302  0.3484  0.5039  0.2598
  585MOL0     O77118   7.221   9.415  12.254 -0.5695  0.4639  0.0101
  585MOL0     C77119   7.118   9.478  12.308  0.3202 -0.4370 -0.4753
  585MOL0     C77120   7.112   9.529  12.439  0.4012 -0.1305 -0.2951
  585MOL0     C77121   7.016   9.620  12.480 -0.3460 -0.0071 -0.5930
  585MOL0     C77122   6.917   9.661  12.392 -0.9459 -0.6561  0.6315
  585MOL0     O77123   6.823   9.755  12.437  0.1582  0.0211 -0.4204
  585MOL0     C77124   6.704   9.779  12.357 -0.2761  0.1793  0.8831
  585MOL0     C77125   6.601   9.865  12.446 -0.7265 -0.4588  0.5236
  585MOL0     C77126   6.481   9.883  12.356  0.4020 -0.4142 -0.8223
  585MOL0     C77127   6.370   9.951  12.431 -0.0242  0.6518 -0.0346
  585MOL0     C77128   6.248   9.980  12.337 -0.3566  0.6223 -0.3000
  585MOL0     C77129   6.139  10.036  12.415  0.1979 -0.7622 -0.2356
  585MOL0     C77130   6.031  10.105  12.341 -0.1530 -0.3273  0.6335
  585MOL0     C77131   5.936  10.180  12.441 -0.0698 -0.4078 -0.5749
  585MOL0    Cl77132   5.794  10.252  12.352  0.2169  0.0864  0.1572
  585MOL0     C77133   6.905   9.596  12.269 -0.5662  0.2034  0.4495
  585MOL0     C77134   7.006   9.507  12.224  0.9501 -0.1335 -0.6502
  585MOL0     O77135   7.394   9.482  12.394  0.2850  0.0262  0.2507
  585MOL0     C77136   7.572   9.310  12.267 -0.4100 -0.2588  0.2350
  585MOL0     C77137   7.664   9.229  12.201 -0.1239  0.1327  0.8605
  585MOL0     N77138   8.171   9.105  11.488  0.1044 -0.0829  0.5796
  585MOL0     N77139   8.231   9.211  11.444 -0.2435  0.7422 -0.9724
  585MOL0     C77140   8.970  10.162  11.465 -0.7095  0.3884  1.0882
  585MOL0     C77141   9.099  10.228  11.454 -1.0959 -0.0817  0.7862
  585MOL0     C77142   9.459  10.441  11.280 -0.2153 -0.2310 -0.6610
  585MOL0     C77143   9.538  10.413  11.388 -0.5321 -0.8560  0.3109
  585MOL0     C77144   9.645  10.493  11.417 -0.3354  0.5990  0.2148
  585MOL0     C77145   9.688  10.598  11.338 -0.2358 -0.2074 -0.0086
  585MOL0     O77146   9.786  10.680  11.384 -0.0952 -0.2223  0.5380
  585MOL0     C77147   9.923  10.637  11.379 -0.1660  0.9138 -0.0225
  585MOL0     C77148   9.994  10.666  11.249 -0.1648 -0.2411 -0.7287
  585MOL0     C77149   9.982  10.816  11.214  0.1358  0.2228 -0.1576
  585MOL0     C77150  10.060  10.842  11.078  0.0874  0.7445 -0.3968
  585MOL0     C77151  10.204  10.808  11.068  0.5567  0.1268  0.9811
  585MOL0     C77152  10.314  10.765  11.049 -0.3068  0.5344 -0.4095
  585MOL0     C77153   9.603  10.634  11.231 -0.4351  0.3967  0.8175
  585MOL0     C77154   9.497  10.551  11.195 -0.4194 -0.3588 -0.7112
  585MOL0     H77155   9.165  10.149  11.125  0.7212  0.3898  0.2364
  585MOL0     H77156   8.939  10.061  11.142  0.2919  1.1298 -0.5356
  585MOL0     H77157   8.674  10.218  11.347 -2.4938  0.7200  1.1327
  585MOL0     H77158   8.703  10.155  11.506  1.0969  1.6013 -0.6152
  585MOL0     H77159   8.520  10.026  11.300 -0.8451  1.8115 -1.0472
  585MOL0     H77160   8.477  10.125  11.447  1.2494  0.4465  1.7153
  585MOL0     H77161   8.577   9.945  11.582 -2.8591 -0.7411  2.1950
  585MOL0     H77162   8.612   9.857  11.430 -0.8305  0.2307 -0.9276
  585MOL0     H77163   8.331   9.921  11.545  0.7548  0.0480  0.0655
  585MOL0     H77164   8.361   9.841  11.383  1.2818 -1.2163 -0.8895
  585MOL0     H77165   8.468   9.689  11.613  0.8107 -2.1483 -0.6662
  585MOL0     H77166   8.423   9.653  11.448  2.1490  0.4719  0.0315
  585MOL0     H77167   8.190   9.739  11.529  0.2729  2.5180  1.8167
  585MOL0     H77168   8.270   9.741  11.694  2.2395 -1.7946  0.9603
  585MOL0     H77169   8.280   9.501  11.716 -1.5048 -0.1206  0.9858
  585MOL0     H77170   8.129   9.529  11.664  1.5037  0.2702  3.1623
  585MOL0     H77171   8.375   9.427  11.516 -0.5243  1.4550 -1.7667
  585MOL0     H77172   8.246   9.480  11.413 -0.7875 -1.8464 -0.2242
  585MOL0     H77173   8.105   9.313  11.730  1.0431  0.1930  0.3006
  585MOL0     H77174   8.089   9.071  11.803 -2.6125  1.6133  0.9147
  585MOL0     H77175   8.079   8.941  11.682 -4.0283 -0.8825 -1.0736
  585MOL0     H77176   7.862   9.042  11.609 -0.8805  0.4267  0.7155
  585MOL0     H77177   7.878   9.183  11.716 -1.1701  0.7124 -0.1228
  585MOL0     H77178   7.840   8.896  11.794 -2.4024 -0.0607 -1.4602
  585MOL0     H77179   7.914   8.979  11.910 -0.5319 -0.9447  0.9079
  585MOL0     H77180   7.651   8.966  11.915 -3.9427  2.8830  2.9380
  585MOL0     H77181   7.656   9.107  11.807  0.4367 -0.2004 -1.4084
  585MOL0     H77182   7.488   9.175  11.912  4.2338 -1.3504 -0.5524
  585MOL0     H77183   7.310   9.289  12.049 -0.0068  3.9128  1.2491
  585MOL0     H77184   7.185   9.498  12.513  1.1752  1.7942 -0.2051
  585MOL0     H77185   7.022   9.644  12.585  0.5644 -2.4739 -0.0138
  585MOL0     H77186   6.660   9.681  12.335  2.2245 -0.9093  0.3104
  585MOL0     H77187   6.721   9.830  12.262  2.4871 -0.2084  1.0742
  585MOL0     H77188   6.640   9.962  12.481 -2.8862  1.1867 -1.3594
  585MOL0     H77189   6.567   9.806  12.532 -1.7422 -1.4218 -0.5052
  585MOL0     H77190   6.442   9.786  12.323 -1.7779 -2.1173  5.3371
  585MOL0     H77191   6.499   9.948  12.270  1.7937  1.3622  0.7217
  585MOL0     H77192   6.337   9.877  12.505  2.6249 -1.7961 -1.0712
  585MOL0     H77193   6.417  10.035  12.483  2.7407 -0.0493 -1.1969
  585MOL0     H77194   6.210   9.892  12.284 -1.6307  1.0025 -0.0489
  585MOL0     H77195   6.268  10.050  12.256 -1.1027  3.8905  2.0864
  585MOL0     H77196   6.179  10.116  12.479 -1.7280 -0.3167  0.4859
  585MOL0     H77197   6.095   9.963  12.484 -1.0270 -1.3916 -1.6470
  585MOL0     H77198   6.076  10.172  12.267  1.7608 -1.7201  0.4720
  585MOL0     H77199   5.969  10.030  12.290 -0.5541  0.1274  0.4383
  585MOL0     H77200   5.974  10.253  12.513  2.9937 -3.0934  0.7768
  585MOL0     H77201   5.887  10.113  12.513 -0.3488  0.3395 -0.0635
  585MOL0     H77202   6.823   9.616  12.201  1.1850  1.5793 -1.3643
  585MOL0     H77203   6.994   9.472  12.122 -3.1037 -1.3104  0.0787
  585MOL0     H77204   7.596   9.324  12.372  0.4824 -3.4816  0.5727
  585MOL0     H77205   7.765   9.201  12.230  0.0394 -0.5978 -0.3465
  585MOL0     H77206   8.909  10.164  11.555 -2.1286 -0.3042  0.1893
  585MOL0     H77207   9.157  10.269  11.537  0.6261  0.2833 -0.5541
  585MOL0     H77208   9.507  10.332  11.454  1.2206 -2.4437 -0.6973
  585MOL0     H77209   9.690  10.483  11.515  1.8251 -2.6468 -0.9617
  585MOL0     H77210   9.928  10.529  11.397 -1.0399  1.0799  1.3376
  585MOL0     H77211   9.981  10.678  11.462  1.5141 -0.4881 -0.4394
  585MOL0     H77212  10.097  10.637  11.273 -0.7506 -0.9941  1.0741
  585MOL0     H77213   9.952  10.602  11.171  1.9096 -1.3736 -0.9673
  585MOL0     H77214  10.015  10.888  11.290 -0.8666 -0.2994  0.7928
  585MOL0     H77215   9.879  10.843  11.188  0.1321  0.3814  0.0196
  585MOL0     H77216  10.002  10.796  10.998  1.4027 -1.9369  0.1035
  585MOL0     H77217  10.055  10.951  11.063  1.3921  0.8083 -0.4494
  585MOL0     H77218  10.418  10.739  11.045 -1.3168 -4.3136 -1.4677
  585MOL0     H77219   9.636  10.724  11.179 -0.6141  1.0739  1.8402
  585MOL0     H77220   9.427  10.572  11.114  0.1636  3.2559 -0.4468
  586MOL0     O77221   1.853   7.817   6.899 -0.1794  0.0602  0.8007
  586MOL0     C77222   1.885   7.929   6.853 -0.0147 -1.0680 -0.0710
  586MOL0     O77223   1.829   8.051   6.882  0.1079  0.3719  0.2131
  586MOL0     C77224   1.709   8.067   6.939 -0.5205  0.4249 -1.1350
  586MOL0     C77225   1.656   8.196   6.915  0.7100  0.0948  0.2962
  586MOL0     C77226   1.529   8.234   6.955 -0.0477 -0.5259  0.3038
  586MOL0     C77227   1.448   8.146   7.018  0.5965 -0.4350 -0.1228
  586MOL0     O77228   1.320   8.176   7.058  0.1591 -0.9133 -0.4639
  586MOL0     C77229   1.284   8.324   7.078 -0.3590  0.0665  0.2220
  586MOL0     C77230   1.138   8.336   7.126 -0.7389 -0.0379 -0.1021
  586MOL0     C77231   1.038   8.311   7.021  0.4010  1.2119  0.6677
  586MOL0     C77232   0.898   8.289   7.075  0.8467 -0.3428 -0.8040
  586MOL0     C77233   0.788   8.298   6.971  1.6118  0.1036 -0.7731
  586MOL0     C77234   0.649   8.248   7.030  0.7224  0.5449  0.3013
  586MOL0     C77235   0.553   8.263   6.918  1.0140 -0.7535  0.0149
  586MOL0     C77236   0.423   8.206   6.962  0.3761  1.5106  0.8381
  586MOL0     N77237   0.325   8.229   6.866  0.1199 -0.4795  0.9534
  586MOL0     C77238   0.248   8.337   6.874 -0.2971  0.9962  0.4222
  586MOL0     C77239   0.145   8.314   6.796  0.6989  0.2799  0.4822
  586MOL0     C77240   0.014   8.394   6.802 -0.4288 -0.0957 -0.5017
  586MOL0     C77241  -0.078   8.384   6.680  0.1377  0.3150 -0.1638
  586MOL0     C77242  -0.209   8.450   6.719  0.0409 -0.3862 -0.3685
  586MOL0     C77243  -0.320   8.418   6.610  0.4689  0.2662 -0.5350
  586MOL0     O77244  -0.276   8.421   6.471  0.0301 -0.7012 -0.5311
  586MOL0     C77245  -0.301   8.534   6.407 -1.0816 -0.1684  0.1646
  586MOL0     C77246  -0.317   8.667   6.468 -0.0584 -0.1208 -0.1570
  586MOL0     C77247  -0.329   8.787   6.401 -0.7645  0.2193 -0.0067
  586MOL0     C77248  -0.342   8.787   6.262  0.4790 -0.1630  0.3598
  586MOL0     C77249  -0.369   8.906   6.183 -0.8010 -1.3062  0.5890
  586MOL0     O77250  -0.362   9.035   6.239 -0.2515  0.5383  0.2776
  586MOL0     C77251  -0.373   9.133   6.147  1.1256  0.3688  0.2001
  586MOL0     C77252  -0.494   9.169   6.088  0.3132 -0.6200  0.5318
  586MOL0     C77253  -0.506   9.254   5.976 -0.3656 -0.0058  0.7289
  586MOL0     C77254  -0.389   9.306   5.916  0.5510  0.1755  0.2175
  586MOL0     O77255  -0.381   9.386   5.801 -0.5653  0.4997 -0.1240
  586MOL0     C77256  -0.486   9.368   5.702 -0.0333 -0.2119 -0.2909
  586MOL0     C77257  -0.421   9.422   5.585 -0.7246 -0.7573 -0.0390
  586MOL0     C77258  -0.329   9.324   5.512  0.3166  0.2982  0.4745
  586MOL0     C77259  -0.265   9.391   5.394 -0.5820 -0.5876  0.3662
  586MOL0     C77260  -0.157   9.298   5.331 -0.0868 -0.2811 -0.5587
  586MOL0     C77261  -0.096   9.358   5.205  0.2727 -0.2286 -0.6219
  586MOL0     C77262   0.025   9.279   5.155  0.3477  0.0198  0.2831
  586MOL0     C77263   0.092   9.370   5.052  0.1484  0.2828 -0.0320
  586MOL0    Cl77264   0.180   9.522   5.111 -0.4534 -0.2310 -0.1341
  586MOL0     C77265  -0.271   9.268   5.968 -1.0104  0.3648  0.1849
  586MOL0     C77266  -0.262   9.187   6.086 -0.3000 -0.2457 -0.6283
  586MOL0     O77267  -0.406   8.882   6.068 -0.3306  0.4245 -0.1069
  586MOL0     C77268  -0.333   8.658   6.194  0.4742  0.0838  0.4390
  586MOL0     C77269  -0.314   8.533   6.266  0.1939 -1.4256 -0.2230
  586MOL0     N77270   0.163   8.192   6.729  0.0531 -0.1702  0.0046
  586MOL0     N77271   0.283   8.147   6.768  0.0282  0.5940 -0.1771
  586MOL0     C77272   1.503   8.017   7.050 -0.4044 -0.3252  0.3680
  586MOL0     C77273   1.627   7.974   7.010 -0.4605  0.4751  0.6446
  586MOL0     C77274   1.999   7.926   6.751 -0.3014 -0.1653  0.1657
  586MOL0     C77275   2.062   8.048   6.726 -0.6897  0.7613  1.1436
  586MOL0     C77276   2.180   8.045   6.645  0.4922 -0.2457  0.4721
  586MOL0     C77277   2.250   7.924   6.605  0.1503 -0.1560  0.1652
  586MOL0     O77278   2.368   7.930   6.546 -0.7323  0.2141  0.0768
  586MOL0     C77279   2.470   7.968   6.643 -0.3154  0.2161 -0.7479
  586MOL0     C77280   2.596   8.022   6.578  0.6556  0.3503 -0.7788
  586MOL0     C77281   2.658   7.924   6.473 -0.1899  0.3393  0.0621
  586MOL0     C77282   2.764   7.993   6.384 -0.2780  0.0627  0.2255
  586MOL0     C77283   2.878   7.901   6.355 -0.2236  0.1009  0.2166
  586MOL0     C77284   2.972   7.828   6.338  0.0318 -0.0009  1.1866
  586MOL0     C77285   2.189   7.808   6.644 -0.3701 -0.0344  0.0070
  586MOL0     C77286   2.061   7.808   6.705 -0.1337 -0.3335 -0.5037
  586MOL0     H77287   1.728   8.260   6.865  0.6278  1.2637  1.6177
  586MOL0     H77288   1.492   8.334   6.935 -1.0544 -0.7363  0.9722
  586MOL0     H77289   1.288   8.370   6.979  0.7621 -0.5002 -0.0128
  586MOL0     H77290   1.362   8.367   7.142  1.0042  0.5608 -1.6633
  586MOL0     H77291   1.108   8.431   7.173 -1.0763  0.8930 -2.0908
  586MOL0     H77292   1.126   8.265   7.208  1.8401  0.6259  0.9375
  586MOL0     H77293   1.069   8.227   6.958  4.1803  1.4560  1.9475
  586MOL0     H77294   1.049   8.394   6.950 -3.2699 -0.8828 -2.7492
  586MOL0     H77295   0.887   8.192   7.125  2.5611  0.1383  0.5690
  586MOL0     H77296   0.874   8.367   7.147  1.1939 -1.6015  0.7271
  586MOL0     H77297   0.816   8.233   6.888  1.0839 -2.1366  0.7031
  586MOL0     H77298   0.761   8.400   6.941  2.1236  1.0756  1.7863
  586MOL0     H77299   0.612   8.306   7.115 -4.4803 -1.6245 -0.1134
  586MOL0     H77300   0.656   8.144   7.062  1.5629  0.9975  1.6918
  586MOL0     H77301   0.531   8.366   6.888  1.5426 -0.7070 -0.2309
  586MOL0     H77302   0.581   8.211   6.826  1.1625 -2.1960  0.8519
  586MOL0     H77303   0.388   8.242   7.059  1.0275 -0.7859  1.9977
  586MOL0     H77304   0.443   8.099   6.965 -1.9458  1.0317  1.3491
  586MOL0     H77305   0.262   8.424   6.937  1.1100  2.2819 -1.5288
  586MOL0     H77306   0.043   8.500   6.810  1.7093 -0.3532 -3.2867
  586MOL0     H77307  -0.033   8.378   6.900  0.5099  2.1142  0.3928
  586MOL0     H77308  -0.081   8.277   6.660  2.7840 -0.4254  2.6329
  586MOL0     H77309  -0.033   8.441   6.599 -1.3642  0.3962 -0.9777
  586MOL0     H77310  -0.258   8.405   6.805  2.4804 -2.2983  0.1312
  586MOL0     H77311  -0.188   8.556   6.733 -3.0973  0.3288 -0.3074
  586MOL0     H77312  -0.405   8.485   6.622  0.4849  0.1946 -0.0139
  586MOL0     H77313  -0.351   8.317   6.635 -0.0779  0.8651  1.3921
  586MOL0     H77314  -0.296   8.682   6.573  0.7497 -1.4595 -0.1061
  586MOL0     H77315  -0.328   8.875   6.464  0.9216 -1.3063  2.2706
  586MOL0     H77316  -0.584   9.124   6.129 -0.7044  0.1038 -0.8269
  586MOL0     H77317  -0.608   9.277   5.949  0.1618  2.2515  0.4361
  586MOL0     H77318  -0.575   9.428   5.726  1.0855  2.0872 -1.5646
  586MOL0     H77319  -0.515   9.264   5.683 -2.0311 -0.4424  3.0993
  586MOL0     H77320  -0.361   9.512   5.604 -1.2260 -0.0615 -1.5545
  586MOL0     H77321  -0.495   9.455   5.512  0.1723  2.6613  0.4096
  586MOL0     H77322  -0.390   9.243   5.471 -0.2829  0.7988  0.3625
  586MOL0     H77323  -0.262   9.279   5.585 -0.5616  1.6320  2.1739
  586MOL0     H77324  -0.336   9.418   5.315  0.5637 -1.1078 -0.8870
  586MOL0     H77325  -0.219   9.485   5.426 -1.1355 -0.2706  0.2323
  586MOL0     H77326  -0.196   9.199   5.307 -0.5232  0.5762 -4.0729
  586MOL0     H77327  -0.079   9.296   5.407 -1.4234 -0.0017  0.8656
  586MOL0     H77328  -0.058   9.458   5.228 -2.5739  0.9083 -0.5603
  586MOL0     H77329  -0.166   9.367   5.121 -1.7410  3.3379  1.2331
  586MOL0     H77330   0.094   9.257   5.237  0.0307 -1.6418  0.1349
  586MOL0     H77331  -0.006   9.186   5.107  0.3362  1.5306 -2.8547
  586MOL0     H77332   0.016   9.393   4.977 -0.8364 -1.8916  0.2167
  586MOL0     H77333   0.162   9.308   4.995  0.7924 -0.1154  1.1712
  586MOL0     H77334  -0.176   9.299   5.927 -0.6888 -1.9396 -0.9489
  586MOL0     H77335  -0.167   9.150   6.126 -1.2316 -1.5760  0.4535
  586MOL0     H77336  -0.341   8.656   6.086  0.4154  1.9930  0.3703
  586MOL0     H77337  -0.317   8.436   6.218 -0.6475 -0.5484 -2.0183
  586MOL0     H77338   1.443   7.951   7.113 -1.0529  0.3672  0.4993
  586MOL0     H77339   1.666   7.875   7.030  1.2318 -0.0354 -3.9609
  586MOL0     H77340   2.016   8.145   6.742 -3.1821  0.3851 -2.5211
  586MOL0     H77341   2.217   8.145   6.623 -1.1347  0.4302  0.6999
  586MOL0     H77342   2.497   7.884   6.708 -1.1653  0.8896  0.4947
  586MOL0     H77343   2.441   8.052   6.706  0.5473 -0.0293  0.0098
  586MOL0     H77344   2.581   8.121   6.535  2.0305  1.1098  0.4324
  586MOL0     H77345   2.666   8.042   6.659  0.0131 -0.3836 -0.0144
  586MOL0     H77346   2.575   7.886   6.413 -1.5197 -0.3030  2.2051
  586MOL0     H77347   2.705   7.856   6.545  1.4708  0.9119 -0.4292
  586MOL0     H77348   2.715   8.023   6.291 -0.7243  0.3184  0.5367
  586MOL0     H77349   2.801   8.082   6.436 -0.5276  2.5033 -3.4064
  586MOL0     H77350   3.058   7.768   6.317  1.6180  2.2550  0.7687
  586MOL0     H77351   2.244   7.716   6.624  1.9298  0.8661  1.7841
  586MOL0     H77352   2.006   7.716   6.724  0.6415 -0.8865 -0.8558
  587MOL0     O77353  10.872   4.232   1.988 -0.0851 -0.0992 -0.6433
  587MOL0     C77354  10.834   4.122   2.007  0.2233 -0.8271  0.1705
  587MOL0     O77355  10.710   4.085   2.042 -0.2078 -0.2380 -1.0932
  587MOL0     C77356  10.599   4.167   2.064 -0.0970  1.3199  0.7456
  587MOL0     C77357  10.569   4.298   2.018  0.0180 -0.0666  0.3148
  587MOL0     C77358  10.449   4.367   2.051  0.2231 -0.3558  0.9890
  587MOL0     C77359  10.356   4.312   2.140  0.1295  0.4585 -0.7257
  587MOL0     O77360  10.236   4.377   2.186 -0.6556  0.5446 -0.4324
  587MOL0     C77361  10.202   4.500   2.124  1.0161  0.0153 -0.0607
  587MOL0     C77362  10.110   4.462   2.002 -0.2390 -0.4700  0.2659
  587MOL0     C77363  10.017   4.342   2.028  0.7495  0.4153  0.4552
  587MOL0     C77364   9.921   4.332   1.906 -0.8827 -0.0092  0.4618
  587MOL0     C77365   9.837   4.208   1.927 -0.1040  0.4044 -0.1252
  587MOL0     C77366   9.708   4.234   2.007  1.2830 -0.0664  0.4417
  587MOL0     C77367   9.631   4.101   2.024 -0.0727  0.6685 -0.9599
  587MOL0     C77368   9.509   4.108   2.122  0.4322  0.3750 -0.1565
  587MOL0     N77369   9.419   4.213   2.070  0.2638 -0.2292 -0.6012
  587MOL0     C77370   9.359   4.209   1.948  0.6118  0.9091 -0.2351
  587MOL0     C77371   9.280   4.318   1.943  0.3161  0.2452 -0.0265
  587MOL0     C77372   9.179   4.340   1.833 -0.1405 -0.0080 -0.3998
  587MOL0     C77373   9.246   4.327   1.695  0.1284 -0.1386  1.1260
  587MOL0     C77374   9.148   4.316   1.580  0.3426  0.0518  0.0026
  587MOL0     C77375   9.051   4.429   1.538 -0.6451 -0.8024  0.1840
  587MOL0     O77376   8.940   4.418   1.631  0.3153  0.0455 -0.7690
  587MOL0     C77377   8.831   4.480   1.583  0.1380 -0.6460 -1.0625
  587MOL0     C77378   8.760   4.427   1.482  0.2388  0.4527  0.5336
  587MOL0     C77379   8.641   4.479   1.443  0.9745  0.8534 -0.2591
  587MOL0     C77380   8.588   4.602   1.499  0.0497 -1.1339 -0.0662
  587MOL0     C77381   8.464   4.662   1.445 -0.1177  0.4359  0.3938
  587MOL0     O77382   8.385   4.582   1.365 -0.4098 -0.5250 -0.0581
  587MOL0     C77383   8.277   4.641   1.303  0.2481  0.2243 -0.0851
  587MOL0     C77384   8.167   4.554   1.297  0.3237  0.2321 -0.3037
  587MOL0     C77385   8.049   4.588   1.231  0.4562  0.0789  0.2625
  587MOL0     C77386   8.044   4.715   1.162 -0.1930 -1.2572 -0.1261
  587MOL0     O77387   7.937   4.760   1.095 -0.5724 -0.3380  0.3301
  587MOL0     C77388   7.811   4.722   1.146 -0.1791  0.3931  0.3780
  587MOL0     C77389   7.707   4.783   1.048  0.5986 -0.4762  0.3636
  587MOL0     C77390   7.672   4.683   0.944  0.2326 -0.2640  0.4641
  587MOL0     C77391   7.561   4.738   0.851  0.1083  0.2372 -0.2953
  587MOL0     C77392   7.507   4.634   0.749  0.1405  0.1884 -0.1652
  587MOL0     C77393   7.393   4.709   0.671  0.6284  0.6965  0.6707
  587MOL0     C77394   7.454   4.804   0.577  0.3017 -0.3370  0.1682
  587MOL0     C77395   7.350   4.865   0.477  0.1567 -0.9841 -0.0406
  587MOL0    Cl77396   7.257   4.738   0.384 -0.2860  0.1585 -0.0023
  587MOL0     C77397   8.163   4.796   1.161  0.1022  0.1398  1.1476
  587MOL0     C77398   8.278   4.751   1.225 -0.5915 -0.5392  0.1991
  587MOL0     O77399   8.434   4.776   1.485  0.1503  0.1581  0.3358
  587MOL0     C77400   8.662   4.661   1.607  0.0331 -0.5556  0.4844
  587MOL0     C77401   8.783   4.603   1.649  0.4532 -0.2434  0.3663
  587MOL0     N77402   9.293   4.384   2.060  0.6228 -0.3437 -0.3182
  587MOL0     N77403   9.389   4.325   2.137  0.3824 -0.4775  0.1966
  587MOL0     C77404  10.395   4.193   2.193 -0.0513  0.3331 -0.1020
  587MOL0     C77405  10.504   4.120   2.154 -0.5617  0.0677 -0.3439
  587MOL0     C77406  10.924   4.008   1.973 -0.2428 -0.0738 -0.1379
  587MOL0     C77407  11.036   4.038   1.888  0.4695 -0.3520  0.4132
  587MOL0     C77408  11.125   3.939   1.852 -0.1603  0.0987  0.1607
  587MOL0     C77409  11.112   3.807   1.898 -0.4344  0.6616 -0.0520
  587MOL0     O77410  11.203   3.716   1.865 -0.0403 -0.0834  0.5063
  587MOL0     C77411  11.337   3.761   1.814  0.0650 -0.0913 -0.5456
  587MOL0     C77412  11.404   3.617   1.804  0.0010 -0.6022  0.6822
  587MOL0     C77413  11.554   3.617   1.817  0.9618  0.5276 -0.1160
  587MOL0     C77414  11.628   3.709   1.729 -0.4749  0.0204 -0.0941
  587MOL0     C77415  11.764   3.670   1.701  0.2108  0.2506  0.1111
  587MOL0     C77416  11.872   3.639   1.673  0.4908  0.7321  0.3274
  587MOL0     C77417  10.997   3.780   1.975  0.5448  0.2567  0.1650
  587MOL0     C77418  10.904   3.873   2.011 -0.1482  0.0205 -1.2697
  587MOL0     H77419  10.645   4.356   1.966 -1.3556  1.0727 -0.4837
  587MOL0     H77420  10.432   4.465   2.010 -1.3004 -0.6546  0.8301
  587MOL0     H77421  10.278   4.575   2.104  0.0611  1.1535  0.4037
  587MOL0     H77422  10.135   4.552   2.194 -2.3428 -1.5187 -1.9240
  587MOL0     H77423  10.177   4.444   1.918  0.2270  1.5602  0.1468
  587MOL0     H77424  10.049   4.550   1.982 -0.6851 -0.7874  0.2173
  587MOL0     H77425   9.953   4.353   2.115  2.2837 -0.5348  1.7606
  587MOL0     H77426  10.073   4.249   2.044  0.2815 -0.0982 -0.7552
  587MOL0     H77427   9.858   4.419   1.887 -1.8985 -0.1658  2.7633
  587MOL0     H77428   9.987   4.316   1.821 -0.5762  1.3315  0.4288
  587MOL0     H77429   9.903   4.133   1.972 -2.8006 -1.7336  0.5502
  587MOL0     H77430   9.822   4.164   1.828  2.1431  1.3636 -0.9690
  587MOL0     H77431   9.643   4.309   1.961  0.5295  1.3205  3.5467
  587MOL0     H77432   9.733   4.270   2.107  0.0536 -3.5895  2.1688
  587MOL0     H77433   9.601   4.063   1.926  3.6663 -0.4738 -1.8264
  587MOL0     H77434   9.698   4.028   2.071  0.7925  1.6665 -0.6127
  587MOL0     H77435   9.537   4.132   2.225 -1.0404 -3.0710  1.2138
  587MOL0     H77436   9.468   4.006   2.128  0.8029  0.2908  1.3658
  587MOL0     H77437   9.365   4.130   1.874 -2.6332  0.2888  0.0350
  587MOL0     H77438   9.154   4.445   1.852 -1.4654 -0.6585  1.8690
  587MOL0     H77439   9.080   4.300   1.859 -0.6362  2.0465  1.1424
  587MOL0     H77440   9.302   4.234   1.694 -0.7129 -0.7272 -2.1561
  587MOL0     H77441   9.312   4.415   1.694 -2.3276  1.8395  1.1249
  587MOL0     H77442   9.210   4.311   1.490  0.4842  1.7587 -0.0359
  587MOL0     H77443   9.090   4.225   1.597 -0.7796  0.2976 -2.0821
  587MOL0     H77444   9.022   4.413   1.434 -0.1127 -1.9604  0.2015
  587MOL0     H77445   9.106   4.522   1.551 -2.1987  0.2715 -0.5787
  587MOL0     H77446   8.787   4.337   1.427  2.7683  0.8261  1.0444
  587MOL0     H77447   8.591   4.430   1.361  1.1259 -0.4360  0.3922
  587MOL0     H77448   8.176   4.462   1.353 -1.6529  0.8355  1.0983
  587MOL0     H77449   7.970   4.515   1.217  1.9056 -1.4712 -0.1761
  587MOL0     H77450   7.798   4.761   1.248  1.2277 -1.5574  1.3607
  587MOL0     H77451   7.795   4.614   1.150 -0.7539  0.4720  0.2527
  587MOL0     H77452   7.748   4.877   1.010  1.0687  0.1374  2.3046
  587MOL0     H77453   7.614   4.803   1.101 -1.2837 -1.2593 -2.3991
  587MOL0     H77454   7.635   4.589   0.985  1.6662 -1.6527 -1.2348
  587MOL0     H77455   7.758   4.647   0.886 -0.8546 -2.8778  0.3843
  587MOL0     H77456   7.474   4.760   0.913 -0.0348 -1.8631  0.3466
  587MOL0     H77457   7.598   4.832   0.811 -1.1191  0.5791 -0.6566
  587MOL0     H77458   7.460   4.551   0.801 -0.6910 -0.6105 -2.0884
  587MOL0     H77459   7.579   4.591   0.679  0.2928 -2.0765  1.3073
  587MOL0     H77460   7.322   4.755   0.740 -1.1501 -3.2278  1.7521
  587MOL0     H77461   7.341   4.636   0.608  0.7775 -2.3619  3.7856
  587MOL0     H77462   7.500   4.886   0.632 -0.6686  0.1127  0.3307
  587MOL0     H77463   7.528   4.743   0.525 -0.1481 -0.9899  0.2702
  587MOL0     H77464   7.398   4.936   0.409 -1.3854  1.9801  1.7162
  587MOL0     H77465   7.278   4.928   0.531 -1.1171 -0.8572 -1.7930
  587MOL0     H77466   8.161   4.890   1.106  1.0739 -0.7430 -0.4675
  587MOL0     H77467   8.368   4.811   1.221 -0.9294 -0.0552 -3.2806
  587MOL0     H77468   8.611   4.743   1.657  0.2860 -1.2060  1.8681
  587MOL0     H77469   8.845   4.635   1.731  0.9732 -0.2397 -0.0215
  587MOL0     H77470  10.321   4.141   2.253  0.8328 -1.6691 -0.6615
  587MOL0     H77471  10.521   4.028   2.209  0.5567  0.0042 -0.7593
  587MOL0     H77472  11.050   4.133   1.838  0.5695 -1.1716 -1.1759
  587MOL0     H77473  11.213   3.963   1.794  1.0665 -1.0374  1.4751
  587MOL0     H77474  11.386   3.828   1.885 -0.5497 -0.5099  0.2905
  587MOL0     H77475  11.342   3.812   1.718 -0.4657  0.6924 -0.1588
  587MOL0     H77476  11.362   3.561   1.888 -0.8292  0.4859  1.0157
  587MOL0     H77477  11.384   3.564   1.710  1.5279  0.0234 -0.0232
  587MOL0     H77478  11.580   3.513   1.796 -2.4779 -0.1984 -1.5399
  587MOL0     H77479  11.575   3.633   1.923  1.4033 -0.2065 -0.0871
  587MOL0     H77480  11.577   3.724   1.633 -2.7005  0.2806  1.0635
  587MOL0     H77481  11.625   3.807   1.778 -2.5093 -0.1638  0.2448
  587MOL0     H77482  11.974   3.618   1.646  0.0492 -1.2569 -0.0066
  587MOL0     H77483  10.998   3.678   2.009 -2.0107  0.3755  0.7804
  587MOL0     H77484  10.822   3.833   2.071 -1.2069  0.8427 -2.1407
  588MOL0     O77485   0.719   4.737   4.574 -0.3013 -0.8711 -0.2556
  588MOL0     C77486   0.759   4.727   4.687 -0.4668 -0.1960  0.5332
  588MOL0     O77487   0.760   4.830   4.778 -0.4078  1.0050  0.3380
  588MOL0     C77488   0.720   4.956   4.742 -0.4551  0.1775 -0.1320
  588MOL0     C77489   0.607   5.005   4.784 -0.1134 -0.2738 -0.1125
  588MOL0     C77490   0.556   5.128   4.737 -0.5014  1.1495  0.5327
  588MOL0     C77491   0.629   5.201   4.636 -0.1592 -0.9884 -0.0756
  588MOL0     O77492   0.601   5.328   4.579 -0.0068 -0.0021 -0.2649
  588MOL0     C77493   0.462   5.366   4.588  0.4215 -0.4646 -0.4271
  588MOL0     C77494   0.443   5.478   4.483  0.0127 -0.1189 -0.3446
  588MOL0     C77495   0.445   5.414   4.345 -0.4399  0.3943 -0.0318
  588MOL0     C77496   0.409   5.518   4.233  0.1142 -1.0034 -0.9483
  588MOL0     C77497   0.424   5.453   4.093 -0.5383  0.0297 -0.6435
  588MOL0     C77498   0.384   5.539   3.966 -0.1683 -1.0288  0.3706
  588MOL0     C77499   0.447   5.474   3.845  0.2574  0.0567 -0.1133
  588MOL0     C77500   0.412   5.565   3.721 -0.2319 -0.1187  0.0452
  588MOL0     N77501   0.483   5.689   3.718 -0.0678 -0.2355  1.1667
  588MOL0     C77502   0.615   5.693   3.683 -0.1591 -0.4367 -0.4166
  588MOL0     C77503   0.629   5.828   3.672 -0.3031  0.8433 -0.2239
  588MOL0     C77504   0.755   5.894   3.621  0.7746  1.1002  0.6190
  588MOL0     C77505   0.779   6.041   3.664 -0.4708 -0.2562  1.4382
  588MOL0     C77506   0.927   6.095   3.646 -0.9045  0.5578  0.0356
  588MOL0     C77507   0.992   6.088   3.508 -0.0910 -0.5379  0.2397
  588MOL0     O77508   1.023   5.954   3.463 -0.4270 -0.0271 -0.1965
  588MOL0     C77509   1.146   5.947   3.403  0.0973  0.6330  0.3588
  588MOL0     C77510   1.233   5.847   3.453 -0.1632 -0.2026  0.3120
  588MOL0     C77511   1.357   5.829   3.393  0.5491 -0.5992 -0.0113
  588MOL0     C77512   1.388   5.898   3.275 -0.6386  0.1756 -0.2179
  588MOL0     C77513   1.528   5.880   3.226  0.8131  0.4172 -0.0193
  588MOL0     O77514   1.598   5.771   3.285 -0.6306 -0.1097  0.4051
  588MOL0     C77515   1.741   5.766   3.280  0.6595  0.5925 -0.3591
  588MOL0     C77516   1.816   5.859   3.341  0.0464  0.2910 -0.7288
  588MOL0     C77517   1.962   5.857   3.335  0.2769 -0.3530 -1.1813
  588MOL0     C77518   2.023   5.750   3.271 -0.8109  0.7499  0.5189
  588MOL0     O77519   2.162   5.738   3.293 -0.6091 -0.4114 -0.1345
  588MOL0     C77520   2.240   5.670   3.192  0.7402  0.4781  0.2949
  588MOL0     C77521   2.371   5.732   3.190 -0.5422 -0.3141  0.0749
  588MOL0     C77522   2.469   5.655   3.103  0.2546  0.0639 -0.7016
  588MOL0     C77523   2.597   5.734   3.087 -0.0506  0.1608  1.1436
  588MOL0     C77524   2.695   5.663   2.990 -0.0324  0.7900  0.8728
  588MOL0     C77525   2.730   5.512   3.018  0.5932  0.0727 -0.1512
  588MOL0     C77526   2.825   5.472   2.906 -0.9028 -0.5582  0.4385
  588MOL0     C77527   2.838   5.322   2.903 -0.3799  1.0371 -0.4184
  588MOL0    Cl77528   2.910   5.280   3.056  0.2343 -0.1358 -0.7147
  588MOL0     C77529   1.944   5.643   3.218  0.5587 -0.0483  0.2853
  588MOL0     C77530   1.806   5.653   3.223  0.4929 -0.4987  0.0116
  588MOL0     O77531   1.577   5.973   3.160 -0.1867  0.8516  0.0026
  588MOL0     C77532   1.300   5.983   3.213  1.3614 -0.1354 -0.0823
  588MOL0     C77533   1.179   6.019   3.279 -0.1913  0.4180 -0.6998
  588MOL0     N77534   0.520   5.892   3.707  0.2747 -0.5142 -0.5884
  588MOL0     N77535   0.427   5.812   3.740 -0.9530  0.0233 -0.0485
  588MOL0     C77536   0.754   5.146   4.582  0.1675 -0.6070 -0.1578
  588MOL0     C77537   0.801   5.031   4.646  0.5205  0.7349  0.4203
  588MOL0     C77538   0.790   4.585   4.729  0.4285 -0.5500 -0.0630
  588MOL0     C77539   0.773   4.551   4.861 -0.8756 -0.7271  0.7006
  588MOL0     C77540   0.803   4.425   4.912 -0.5588  0.4291 -0.3407
  588MOL0     C77541   0.842   4.330   4.819  0.2313 -0.5371  0.1409
  588MOL0     O77542   0.882   4.204   4.866 -0.5889 -0.0575 -0.3790
  588MOL0     C77543   0.925   4.100   4.785 -0.0516 -0.0743  0.4619
  588MOL0     C77544   1.063   4.120   4.728  0.0213 -0.8264 -0.0999
  588MOL0     C77545   1.113   3.986   4.686 -0.1947  0.4619  0.2140
  588MOL0     C77546   1.224   4.009   4.589  0.6176 -0.1006  0.2139
  588MOL0     C77547   1.343   4.073   4.654  0.9732 -0.5390  0.3004
  588MOL0     C77548   1.430   4.128   4.706 -0.8770  0.4224 -0.1852
  588MOL0     C77549   0.845   4.362   4.679 -0.4944 -0.3412 -0.1264
  588MOL0     C77550   0.826   4.493   4.642  0.2066 -0.0215  0.3856
  588MOL0     H77551   0.558   4.943   4.859 -0.6075  0.7349  0.4138
  588MOL0     H77552   0.464   5.159   4.785 -1.1212  0.2682 -0.0333
  588MOL0     H77553   0.427   5.399   4.686 -1.1510  2.0985 -1.7524
  588MOL0     H77554   0.396   5.286   4.555 -1.7119  0.0498  2.2805
  588MOL0     H77555   0.512   5.557   4.514  1.4122 -0.2065 -2.9038
  588MOL0     H77556   0.344   5.521   4.497 -0.4451 -1.3778  0.4302
  588MOL0     H77557   0.390   5.320   4.334  1.1306 -1.0759  3.2928
  588MOL0     H77558   0.547   5.380   4.326 -1.3894 -3.2730  0.6524
  588MOL0     H77559   0.304   5.547   4.238  0.8686  1.8869  0.5644
  588MOL0     H77560   0.479   5.601   4.243  2.6410 -3.1387  0.8560
  588MOL0     H77561   0.375   5.355   4.094 -1.0228  0.2589  1.2290
  588MOL0     H77562   0.533   5.438   4.095 -0.4634  0.6136  0.6966
  588MOL0     H77563   0.430   5.639   3.965 -0.8000 -0.7012 -2.0846
  588MOL0     H77564   0.276   5.547   3.947 -0.0283 -1.5248 -0.7032
  588MOL0     H77565   0.554   5.466   3.867 -0.5453 -2.6127  3.8751
  588MOL0     H77566   0.415   5.370   3.833  0.0280  0.1004  0.1270
  588MOL0     H77567   0.305   5.583   3.716  0.3493  3.7507 -1.1690
  588MOL0     H77568   0.427   5.512   3.626  0.3975  0.7739 -0.3639
  588MOL0     H77569   0.688   5.616   3.662 -0.2257 -0.6757  0.2226
  588MOL0     H77570   0.770   5.893   3.513  3.0265 -0.9742  0.8515
  588MOL0     H77571   0.835   5.841   3.673 -0.9743 -0.9724  1.3120
  588MOL0     H77572   0.748   6.063   3.767 -0.9835  2.7894  0.7501
  588MOL0     H77573   0.712   6.109   3.610  1.3987 -0.5980 -1.5206
  588MOL0     H77574   0.939   6.202   3.667 -2.1044  0.4495  1.3899
  588MOL0     H77575   0.995   6.048   3.719  0.8576 -0.9272 -2.4145
  588MOL0     H77576   1.077   6.156   3.501 -1.0574  0.6638 -0.0800
  588MOL0     H77577   0.921   6.135   3.440 -0.9810  1.3727  2.3630
  588MOL0     H77578   1.205   5.800   3.547  0.2056  0.0671  0.5596
  588MOL0     H77579   1.431   5.771   3.448  0.9459  2.8279  3.5249
  588MOL0     H77580   1.774   5.949   3.386 -0.3199  0.4828 -1.4443
  588MOL0     H77581   2.013   5.936   3.389 -2.7571 -0.0216  1.4942
  588MOL0     H77582   2.192   5.679   3.094  1.6662  1.1796 -0.1169
  588MOL0     H77583   2.260   5.563   3.201  0.2842  0.2985 -0.6661
  588MOL0     H77584   2.419   5.726   3.288 -0.7161 -1.7425  0.0900
  588MOL0     H77585   2.346   5.836   3.166 -1.7178 -0.8408 -1.1085
  588MOL0     H77586   2.418   5.633   3.009  0.9653  1.4261 -1.4269
  588MOL0     H77587   2.486   5.562   3.159 -0.4896  2.5000  4.1826
  588MOL0     H77588   2.565   5.829   3.043  1.7956  0.9506  1.3911
  588MOL0     H77589   2.651   5.756   3.180 -0.6065  0.4875  1.3914
  588MOL0     H77590   2.787   5.723   2.996  0.4221  0.3372 -0.8253
  588MOL0     H77591   2.646   5.664   2.892  0.7406 -2.4872  0.3300
  588MOL0     H77592   2.638   5.452   3.013  0.0286  1.0368 -3.7069
  588MOL0     H77593   2.770   5.523   3.120  0.5267  2.2968 -0.3149
  588MOL0     H77594   2.789   5.516   2.813  1.4906  1.6685  0.4566
  588MOL0     H77595   2.922   5.516   2.930 -0.9443 -1.8288  3.3893
  588MOL0     H77596   2.897   5.279   2.822 -1.8714 -0.1083 -0.9500
  588MOL0     H77597   2.738   5.278   2.896 -0.3856  0.9017  0.4645
  588MOL0     H77598   1.999   5.561   3.173  0.6636 -0.9225  1.9498
  588MOL0     H77599   1.736   5.584   3.178  0.8490 -1.6459  1.1733
  588MOL0     H77600   1.322   6.026   3.116 -1.1307 -2.5288 -1.8449
  588MOL0     H77601   1.111   6.087   3.229  0.8888  1.6381 -0.5716
  588MOL0     H77602   0.803   5.184   4.493  0.4451 -2.2607 -0.7397
  588MOL0     H77603   0.894   4.998   4.598  0.0051  1.7692 -1.4049
  588MOL0     H77604   0.734   4.626   4.929  1.4608  1.1881  0.0716
  588MOL0     H77605   0.787   4.415   5.019  0.7268  0.9848 -0.0757
  588MOL0     H77606   0.864   4.081   4.696 -2.0625  0.5431  1.6624
  588MOL0     H77607   0.902   4.016   4.852 -0.9810  1.9074  2.7728
  588MOL0     H77608   1.049   4.188   4.643 -0.6475  0.1061  0.7413
  588MOL0     H77609   1.126   4.159   4.807  0.8786 -1.1914 -0.5928
  588MOL0     H77610   1.033   3.936   4.631  0.0156  1.4700 -1.0440
  588MOL0     H77611   1.154   3.930   4.771  2.5022  3.8438  1.3533
  588MOL0     H77612   1.255   3.914   4.543 -0.0782  0.7710 -2.2396
  588MOL0     H77613   1.189   4.063   4.500 -0.6288 -1.8155 -0.3963
  588MOL0     H77614   1.508   4.162   4.771  0.6112 -1.2604 -0.9956
  588MOL0     H77615   0.856   4.295   4.595 -1.1338  1.4035 -1.6765
  588MOL0     H77616   0.815   4.517   4.537  2.3037 -0.1482  0.1055
  589MOL0     O77617   8.856   3.653   1.657  0.8294 -0.1962 -0.4707
  589MOL0     C77618   8.870   3.534   1.636  0.5742 -1.0683 -0.7266
  589MOL0     O77619   8.765   3.451   1.598  0.4618  0.0489  0.0280
  589MOL0     C77620   8.631   3.496   1.602 -0.5243 -0.1973  0.1970
  589MOL0     C77621   8.569   3.555   1.712  0.3736 -0.4605 -0.1098
  589MOL0     C77622   8.435   3.583   1.709  0.0118 -0.6291  0.8686
  589MOL0     C77623   8.367   3.551   1.597  0.7870 -0.0101  0.5553
  589MOL0     O77624   8.232   3.580   1.597  0.1534  0.2615  0.2586
  589MOL0     C77625   8.144   3.519   1.506  0.0663 -0.5783 -0.1489
  589MOL0     C77626   8.009   3.508   1.574  0.4358  0.1821  0.2141
  589MOL0     C77627   7.922   3.634   1.573 -0.5154  0.5628  0.4622
  589MOL0     C77628   7.784   3.609   1.620  0.4170 -0.5774 -0.3688
  589MOL0     C77629   7.692   3.724   1.589 -0.8217  0.1914  0.1192
  589MOL0     C77630   7.553   3.676   1.598 -0.0201  0.0009  0.5351
  589MOL0     C77631   7.441   3.787   1.579 -0.6520  0.0932 -0.3223
  589MOL0     C77632   7.419   3.853   1.716  0.4571  0.5008  0.5501
  589MOL0     N77633   7.294   3.928   1.727 -0.1309  0.0853 -0.4312
  589MOL0     C77634   7.252   4.046   1.667 -0.5199  0.4924 -0.4365
  589MOL0     C77635   7.135   4.079   1.717  0.5408  0.1249 -0.3920
  589MOL0     C77636   7.050   4.199   1.681  0.6734 -0.3410 -0.2945
  589MOL0     C77637   6.968   4.166   1.555 -0.1434 -0.1179 -0.2820
  589MOL0     C77638   6.859   4.061   1.577  0.1232  0.5162  0.8745
  589MOL0     C77639   6.764   4.085   1.691 -0.2910 -0.5444 -0.0168
  589MOL0     O77640   6.696   4.215   1.685 -0.2473  0.2328  0.0598
  589MOL0     C77641   6.568   4.229   1.647  0.6235 -0.2117  0.0002
  589MOL0     C77642   6.490   4.123   1.598 -0.1749  0.1077  0.2962
  589MOL0     C77643   6.351   4.146   1.576 -0.3168  0.4236 -0.5729
  589MOL0     C77644   6.299   4.275   1.584  0.2589  1.1903 -0.5157
  589MOL0     C77645   6.155   4.303   1.561  0.0884  0.1050  0.1494
  589MOL0     O77646   6.126   4.427   1.521  0.7472 -0.1584  0.4189
  589MOL0     C77647   5.996   4.463   1.506  0.4324  0.2631 -0.0581
  589MOL0     C77648   5.940   4.483   1.375 -0.0016 -0.2235 -0.3654
  589MOL0     C77649   5.811   4.531   1.362 -0.4985 -0.5845  0.7922
  589MOL0     C77650   5.729   4.556   1.465 -0.4993 -0.1736 -0.4711
  589MOL0     O77651   5.604   4.597   1.469  0.2255 -0.3313 -0.4522
  589MOL0     C77652   5.516   4.528   1.381  0.6367  0.0364 -0.4526
  589MOL0     C77653   5.437   4.618   1.287 -0.1309 -0.0277 -0.2165
  589MOL0     C77654   5.338   4.706   1.357  0.0323  0.2798 -0.1249
  589MOL0     C77655   5.251   4.780   1.256  0.4978  0.5309 -0.0756
  589MOL0     C77656   5.107   4.815   1.304 -1.8903 -0.6799 -0.7636
  589MOL0     C77657   5.050   4.927   1.218  0.8691 -0.6694  0.1010
  589MOL0     C77658   4.912   4.979   1.274  0.2804 -0.3895 -0.2303
  589MOL0     C77659   4.908   5.064   1.406 -1.0314  0.6485  0.7417
  589MOL0    Cl77660   4.760   5.162   1.423 -0.2316 -0.0101  0.3031
  589MOL0     C77661   5.787   4.541   1.593  0.1669 -0.1868 -0.2426
  589MOL0     C77662   5.914   4.492   1.620 -1.2173  0.0061 -0.0419
  589MOL0     O77663   6.073   4.214   1.575 -0.3393  0.3452  0.1832
  589MOL0     C77664   6.385   4.378   1.603 -0.0798 -0.0217 -0.0378
  589MOL0     C77665   6.516   4.356   1.645  0.9391 -0.2268  1.5202
  589MOL0     N77666   7.095   3.970   1.802 -0.2972  0.3085 -0.0573
  589MOL0     N77667   7.192   3.887   1.808  0.6353 -0.0886 -0.2007
  589MOL0     C77668   8.427   3.483   1.489 -0.5124  1.2282 -0.1743
  589MOL0     C77669   8.564   3.449   1.487  0.0100  0.1704 -0.5493
  589MOL0     C77670   9.002   3.471   1.642  0.0299 -0.0334  0.5587
  589MOL0     C77671   9.108   3.547   1.695 -0.2341  0.3298 -0.7568
  589MOL0     C77672   9.236   3.504   1.687  0.6948 -0.2083  0.8770
  589MOL0     C77673   9.264   3.377   1.621 -0.0887 -0.3444 -0.4375
  589MOL0     O77674   9.398   3.358   1.610 -0.4161  0.2990  0.0992
  589MOL0     C77675   9.453   3.261   1.520 -0.6330  0.2011  0.8260
  589MOL0     C77676   9.591   3.213   1.576  0.8338  0.0209 -0.4627
  589MOL0     C77677   9.687   3.332   1.606 -0.5756 -0.4799 -0.1704
  589MOL0     C77678   9.796   3.283   1.706 -0.1715 -0.6212 -0.0147
  589MOL0     C77679   9.886   3.194   1.629 -0.6580  1.3569  0.2861
  589MOL0     C77680   9.960   3.117   1.575  0.2878 -0.0788  0.1759
  589MOL0     C77681   9.159   3.299   1.569  0.2336  0.3392 -0.4291
  589MOL0     C77682   9.026   3.349   1.578 -0.3924  1.1205 -0.8517
  589MOL0     H77683   8.613   3.586   1.806  0.9405  0.7001 -0.7319
  589MOL0     H77684   8.373   3.636   1.781 -1.6729  1.1671 -1.7069
  589MOL0     H77685   8.179   3.415   1.508 -0.8001 -0.9664  3.5610
  589MOL0     H77686   8.135   3.578   1.415 -1.5145  3.6966  2.4623
  589MOL0     H77687   8.021   3.487   1.681  3.4201  2.4086  0.4292
  589MOL0     H77688   7.947   3.434   1.520  0.4788  0.2258  0.1052
  589MOL0     H77689   7.921   3.674   1.471 -0.6833  0.8208  0.5641
  589MOL0     H77690   7.969   3.705   1.640 -1.1829 -1.8876  3.8019
  589MOL0     H77691   7.750   3.512   1.582 -3.3017 -0.9676  3.2082
  589MOL0     H77692   7.781   3.597   1.729 -2.8110  2.1964 -0.0083
  589MOL0     H77693   7.716   3.762   1.489  0.3097  0.3890  0.4609
  589MOL0     H77694   7.716   3.802   1.662  0.1939 -0.7445  0.8128
  589MOL0     H77695   7.539   3.630   1.696  0.1984  0.1644  0.6440
  589MOL0     H77696   7.521   3.597   1.529 -2.0897 -2.1601  3.7265
  589MOL0     H77697   7.483   3.857   1.506 -0.7570 -0.4050 -0.8626
  589MOL0     H77698   7.354   3.726   1.554 -0.4060 -0.9823  1.2965
  589MOL0     H77699   7.499   3.927   1.728 -0.2142  1.3583 -0.0703
  589MOL0     H77700   7.423   3.777   1.795 -0.1205 -1.5161 -1.2558
  589MOL0     H77701   7.305   4.103   1.591 -3.1197  1.2019 -1.8469
  589MOL0     H77702   7.125   4.275   1.657  0.8902 -0.6973 -0.7726
  589MOL0     H77703   6.994   4.232   1.769 -0.5889 -0.6696 -0.9518
  589MOL0     H77704   7.032   4.129   1.475 -0.8914 -0.6733 -0.6393
  589MOL0     H77705   6.928   4.258   1.512 -0.8596 -0.9777 -1.5343
  589MOL0     H77706   6.801   4.054   1.485  3.0667  0.9921 -1.1743
  589MOL0     H77707   6.903   3.965   1.606  0.7529  1.2639  2.5375
  589MOL0     H77708   6.820   4.082   1.784  0.9579  3.2331 -0.4762
  589MOL0     H77709   6.684   4.010   1.693 -0.5060 -0.3279 -0.3365
  589MOL0     H77710   6.533   4.024   1.591  3.2927  1.3977  1.1805
  589MOL0     H77711   6.280   4.067   1.554  0.2397 -0.7243  1.4629
  589MOL0     H77712   5.995   4.470   1.282  2.6171  0.7599  0.9535
  589MOL0     H77713   5.772   4.553   1.263 -0.7614 -0.5832  0.8953
  589MOL0     H77714   5.435   4.474   1.433 -0.1264  0.4757 -1.1707
  589MOL0     H77715   5.570   4.448   1.330  0.2803  1.0000 -2.4336
  589MOL0     H77716   5.381   4.550   1.222  1.5525 -0.3911 -1.3622
  589MOL0     H77717   5.510   4.673   1.227 -0.9845 -1.0247 -2.2462
  589MOL0     H77718   5.381   4.775   1.430 -0.5448 -0.4591  0.9300
  589MOL0     H77719   5.272   4.641   1.415  1.2916 -1.6861 -0.7548
  589MOL0     H77720   5.300   4.877   1.240 -1.1547  1.5698  0.9234
  589MOL0     H77721   5.247   4.724   1.162  0.8719  1.9419 -0.9512
  589MOL0     H77722   5.119   4.850   1.407  1.1316 -0.3620 -1.1554
  589MOL0     H77723   5.037   4.730   1.302 -0.8063 -1.6243  0.0829
  589MOL0     H77724   5.023   4.880   1.123 -0.7414  0.2209  0.0695
  589MOL0     H77725   5.123   5.007   1.209  2.7078 -1.9780  2.2988
  589MOL0     H77726   4.862   5.035   1.195 -1.2910 -0.5291  0.6158
  589MOL0     H77727   4.847   4.893   1.294 -1.3648  0.8846  0.1096
  589MOL0     H77728   4.990   5.137   1.409 -0.2813  0.1876 -3.1785
  589MOL0     H77729   4.909   4.994   1.489 -0.9609  1.1932  1.2109
  589MOL0     H77730   5.715   4.562   1.672 -1.2437 -1.4133 -1.1411
  589MOL0     H77731   5.951   4.492   1.722 -0.1244  0.4777 -0.4233
  589MOL0     H77732   6.360   4.483   1.596  5.1822  1.4269 -0.6151
  589MOL0     H77733   6.571   4.442   1.683  0.5307  0.8716 -0.2706
  589MOL0     H77734   8.371   3.456   1.400  1.7662  1.3101 -1.7326
  589MOL0     H77735   8.631   3.401   1.416  0.6139 -2.0645  1.4066
  589MOL0     H77736   9.090   3.639   1.751  0.0284  0.1465 -0.3676
  589MOL0     H77737   9.321   3.560   1.724 -0.4953  1.8791  0.5872
  589MOL0     H77738   9.458   3.295   1.416 -1.7060  0.7358  0.9348
  589MOL0     H77739   9.392   3.171   1.511  0.2871 -0.4138  0.6014
  589MOL0     H77740   9.572   3.160   1.670  1.7982 -0.1888 -0.3795
  589MOL0     H77741   9.643   3.151   1.502  2.2036  1.7001 -0.9495
  589MOL0     H77742   9.634   3.420   1.644  0.9067  0.0322  0.8205
  589MOL0     H77743   9.737   3.367   1.515 -0.5942  2.2086  0.7532
  589MOL0     H77744   9.846   3.373   1.742  0.1803 -0.6724 -0.3768
  589MOL0     H77745   9.757   3.235   1.797 -1.1235 -2.2509 -1.2334
  589MOL0     H77746  10.029   3.061   1.515  2.0221  1.1637  0.9257
  589MOL0     H77747   9.173   3.202   1.522 -0.0518  0.5256 -0.9152
  589MOL0     H77748   8.956   3.297   1.514  0.8390  2.2360 -3.2202
  590MOL0     O77749   3.646   5.253   6.227  0.3133 -0.3930 -0.3356
  590MOL0     C77750   3.735   5.195   6.296  1.1968 -0.1994 -0.1439
  590MOL0     O77751   3.713   5.080   6.369  0.3667 -0.6501  0.2891
  590MOL0     C77752   3.585   5.026   6.367  0.2732 -0.5625 -0.6090
  590MOL0     C77753   3.513   4.982   6.254  0.3259 -0.1101  0.4861
  590MOL0     C77754   3.382   4.942   6.265  0.4131 -0.1719 -1.3318
  590MOL0     C77755   3.317   4.940   6.390 -0.6273 -0.7296  0.5244
  590MOL0     O77756   3.194   4.894   6.409  0.2341  0.4227 -0.3711
  590MOL0     C77757   3.110   4.850   6.299  0.5723  0.2040  0.4820
  590MOL0     C77758   2.972   4.788   6.341 -0.1478 -0.3460  0.2250
  590MOL0     C77759   2.880   4.885   6.430 -0.1349  0.6028  0.9205
  590MOL0     C77760   2.751   4.809   6.467 -0.2887 -0.3585 -0.2383
  590MOL0     C77761   2.649   4.909   6.519  0.6217 -0.1230  0.6170
  590MOL0     C77762   2.522   4.821   6.542 -0.3202  0.5107  0.6207
  590MOL0     C77763   2.391   4.900   6.531  0.0654 -0.1836 -0.1365
  590MOL0     C77764   2.377   4.987   6.654  0.2052  0.1684 -0.4133
  590MOL0     N77765   2.242   4.991   6.721 -0.2289  0.7236 -0.1561
  590MOL0     C77766   2.125   5.044   6.667  0.4183  0.2863 -0.5594
  590MOL0     C77767   2.034   5.008   6.760  0.8481 -0.0495  0.7237
  590MOL0     C77768   1.887   5.037   6.746  0.6280 -0.6700 -0.8056
  590MOL0     C77769   1.813   4.936   6.651 -0.0289 -0.5028  0.8113
  590MOL0     C77770   1.659   4.946   6.639 -0.7820 -0.1271  0.1062
  590MOL0     C77771   1.584   4.829   6.569  0.5893  0.6270 -0.2487
  590MOL0     O77772   1.445   4.823   6.611 -0.0323  0.4534  0.4948
  590MOL0     C77773   1.348   4.794   6.523 -0.6695 -0.0307 -0.2660
  590MOL0     C77774   1.222   4.826   6.556  0.5088  0.2164  0.1960
  590MOL0     C77775   1.109   4.792   6.482 -0.0937 -0.4341  0.6545
  590MOL0     C77776   1.128   4.732   6.355  0.5815 -0.5024 -0.5657
  590MOL0     C77777   1.016   4.695   6.265 -0.1518 -0.2408 -0.0842
  590MOL0     O77778   0.895   4.740   6.308  0.5193  0.2424  0.3504
  590MOL0     C77779   0.775   4.733   6.243 -0.4929 -1.1158 -0.2442
  590MOL0     C77780   0.673   4.823   6.281 -0.6127 -0.3780  0.2277
  590MOL0     C77781   0.548   4.806   6.227  0.2496  0.2843 -0.3905
  590MOL0     C77782   0.516   4.707   6.135  0.6800  0.1575 -0.0628
  590MOL0     O77783   0.380   4.686   6.104 -0.4846  0.9119 -0.6585
  590MOL0     C77784   0.302   4.795   6.055 -0.2529 -0.1065 -0.0680
  590MOL0     C77785   0.285   4.780   5.907 -0.0799  0.9741 -0.3228
  590MOL0     C77786   0.376   4.882   5.832  0.6630 -0.5511 -0.9336
  590MOL0     C77787   0.521   4.846   5.806 -0.9391  0.1200  0.1642
  590MOL0     C77788   0.591   4.956   5.717 -0.6939 -0.4132  0.7209
  590MOL0     C77789   0.720   4.906   5.651  0.6262  0.0618 -0.2433
  590MOL0     C77790   0.843   4.905   5.738  0.4391  0.2153 -0.1043
  590MOL0     C77791   0.951   4.804   5.691 -0.3314 -0.0850  0.5492
  590MOL0    Cl77792   1.029   4.863   5.538  0.5615  0.0336 -0.2859
  590MOL0     C77793   0.620   4.622   6.096  0.0245 -0.4320  0.4862
  590MOL0     C77794   0.751   4.637   6.144 -0.7811 -0.6932  0.0886
  590MOL0     O77795   1.032   4.648   6.149 -0.7784 -0.6189 -0.0277
  590MOL0     C77796   1.257   4.695   6.316 -0.1565  0.7522 -0.2852
  590MOL0     C77797   1.369   4.725   6.401  0.5488  0.5995 -0.0926
  590MOL0     N77798   2.092   4.944   6.865 -0.3839 -0.3632 -0.1629
  590MOL0     N77799   2.219   4.937   6.846 -0.0745  0.0567  0.1655
  590MOL0     C77800   3.387   4.983   6.499  0.3151 -0.8686 -0.7835
  590MOL0     C77801   3.518   5.024   6.490 -0.2211  0.3765  0.4601
  590MOL0     C77802   3.869   5.248   6.292 -0.4568 -0.6034 -0.9879
  590MOL0     C77803   3.904   5.365   6.215  0.2515 -0.6146  0.2581
  590MOL0     C77804   4.035   5.425   6.218 -0.2204 -0.6066  0.2381
  590MOL0     C77805   4.130   5.373   6.306  0.0626  0.2169 -0.1396
  590MOL0     O77806   4.254   5.434   6.309 -0.2384  0.5046  0.1292
  590MOL0     C77807   4.240   5.570   6.359  0.0237  0.1873 -0.1699
  590MOL0     C77808   4.292   5.567   6.506  0.3048 -0.5083 -0.5537
  590MOL0     C77809   4.276   5.703   6.581 -1.2158 -0.1951  0.6716
  590MOL0     C77810   4.350   5.817   6.514 -1.0762 -0.2067  0.1204
  590MOL0     C77811   4.329   5.952   6.579 -0.2740  0.4208  1.3037
  590MOL0     C77812   4.320   6.063   6.624 -0.2902  0.0408  0.0756
  590MOL0     C77813   4.100   5.256   6.382 -0.1435 -0.1273  0.9677
  590MOL0     C77814   3.969   5.198   6.380 -1.4656 -0.2333 -0.3722
  590MOL0     H77815   3.551   4.980   6.153  0.3400 -0.3061  0.4953
  590MOL0     H77816   3.326   4.906   6.179 -1.2532 -0.4550 -0.1800
  590MOL0     H77817   3.165   4.770   6.248  0.4679 -0.2584  1.0834
  590MOL0     H77818   3.104   4.937   6.234  1.0685 -0.4192 -0.4158
  590MOL0     H77819   2.999   4.707   6.409  3.6758  0.3730 -0.2025
  590MOL0     H77820   2.912   4.742   6.262 -3.2535  0.5915  1.8928
  590MOL0     H77821   2.868   4.985   6.387  2.1296 -0.1143 -1.6499
  590MOL0     H77822   2.946   4.903   6.515  1.4126  0.0262 -0.1232
  590MOL0     H77823   2.702   4.755   6.385 -0.4306 -2.0119  0.8706
  590MOL0     H77824   2.780   4.734   6.541 -0.6362 -1.8091 -1.5037
  590MOL0     H77825   2.625   4.992   6.452 -0.4105  1.4464  2.8131
  590MOL0     H77826   2.667   4.952   6.618  0.3937 -0.7526  0.9344
  590MOL0     H77827   2.530   4.782   6.644 -2.3060  2.0510  1.4419
  590MOL0     H77828   2.519   4.740   6.469  1.5178 -0.0563  1.1180
  590MOL0     H77829   2.379   4.956   6.438 -2.5186 -3.2979 -1.8946
  590MOL0     H77830   2.318   4.820   6.545 -0.5933  0.3785 -0.3480
  590MOL0     H77831   2.402   5.091   6.631  0.9726 -0.1606 -1.1243
  590MOL0     H77832   2.439   4.953   6.737 -0.4297  0.2450  0.0949
  590MOL0     H77833   2.116   5.097   6.573  1.7137  1.6739  0.0589
  590MOL0     H77834   1.874   5.141   6.714 -1.6324 -0.7141 -0.1698
  590MOL0     H77835   1.840   5.026   6.844  1.1409  0.2178 -0.4466
  590MOL0     H77836   1.844   4.839   6.690 -0.0603 -0.0763  1.9305
  590MOL0     H77837   1.863   4.948   6.554 -0.6707  1.5388  0.6954
  590MOL0     H77838   1.629   4.944   6.744 -0.8079  1.7189  0.1498
  590MOL0     H77839   1.620   5.036   6.592 -0.7030  0.8050  1.7334
  590MOL0     H77840   1.632   4.730   6.573 -0.7954 -0.2936 -3.3884
  590MOL0     H77841   1.589   4.842   6.461 -0.7285 -1.4404 -0.6159
  590MOL0     H77842   1.218   4.870   6.655  2.4366  1.5107 -0.2512
  590MOL0     H77843   1.017   4.825   6.529 -0.1932 -1.3893  1.1494
  590MOL0     H77844   0.691   4.903   6.353  2.3678  0.4225 -1.2390
  590MOL0     H77845   0.459   4.852   6.268 -1.5957 -0.1134 -3.6352
  590MOL0     H77846   0.344   4.893   6.083  0.2461 -0.1529 -0.6527
  590MOL0     H77847   0.208   4.780   6.109  0.3981 -0.9857  0.8485
  590MOL0     H77848   0.184   4.813   5.878  0.0072  1.8288  0.3280
  590MOL0     H77849   0.311   4.681   5.869  3.3061  2.3617 -2.0523
  590MOL0     H77850   0.359   4.985   5.864 -0.8713 -0.6035 -1.4942
  590MOL0     H77851   0.333   4.881   5.731  1.0126  3.4319 -1.2706
  590MOL0     H77852   0.572   4.834   5.902 -1.1346  2.0233  0.5556
  590MOL0     H77853   0.521   4.747   5.760 -1.8925 -1.3315  3.0404
  590MOL0     H77854   0.613   5.047   5.774 -2.5149 -0.0226  0.8893
  590MOL0     H77855   0.523   4.993   5.640 -2.7148 -0.9984  2.1197
  590MOL0     H77856   0.744   4.961   5.559 -0.7028 -0.1663 -0.7469
  590MOL0     H77857   0.696   4.802   5.626 -2.5004 -0.2720  3.2957
  590MOL0     H77858   0.885   5.006   5.738  1.0907 -0.0447 -1.2983
  590MOL0     H77859   0.813   4.864   5.835 -3.0080 -1.4206 -1.6868
  590MOL0     H77860   0.914   4.701   5.679  0.3593 -0.4810  1.6790
  590MOL0     H77861   1.025   4.795   5.770  1.9893  0.9933 -1.3921
  590MOL0     H77862   0.585   4.532   6.046 -1.1207 -0.7293  1.7659
  590MOL0     H77863   0.818   4.552   6.135  0.8888  0.7876 -4.2091
  590MOL0     H77864   1.254   4.627   6.231  2.9890 -1.5467  1.2371
  590MOL0     H77865   1.463   4.676   6.379  1.6251  2.2700  0.5720
  590MOL0     H77866   3.340   4.983   6.597  0.0195 -0.1698 -0.9162
  590MOL0     H77867   3.570   5.061   6.578 -1.6943 -1.4618  2.1954
  590MOL0     H77868   3.832   5.405   6.144  0.3029  0.9155  1.0331
  590MOL0     H77869   4.054   5.511   6.154 -0.6785 -0.2292  0.6042
  590MOL0     H77870   4.141   5.615   6.344  0.5789  0.9624 -1.7052
  590MOL0     H77871   4.314   5.628   6.303  0.3177  0.5018  0.5201
  590MOL0     H77872   4.236   5.491   6.562 -1.2925  1.4419  0.6348
  590MOL0     H77873   4.399   5.545   6.502  0.8227  1.0960  2.0803
  590MOL0     H77874   4.320   5.687   6.680  0.1362  1.5003  0.3984
  590MOL0     H77875   4.172   5.731   6.599 -1.1543  1.5647 -1.2763
  590MOL0     H77876   4.457   5.802   6.496 -0.9710  0.5506  0.0858
  590MOL0     H77877   4.310   5.812   6.412 -1.0376 -0.1968  0.1047
  590MOL0     H77878   4.315   6.166   6.655 -0.7423 -0.1316  0.5844
  590MOL0     H77879   4.173   5.212   6.451  0.4221 -0.8071 -0.0380
  590MOL0     H77880   3.951   5.109   6.439 -2.9299 -1.2017 -2.1910
  591MOL0     O77881   5.297   1.481   3.251 -0.8017 -0.2123  0.2381
  591MOL0     C77882   5.319   1.579   3.181  0.1126  0.6547  0.0913
  591MOL0     O77883   5.229   1.657   3.112 -0.0048  0.2522 -0.5624
  591MOL0     C77884   5.096   1.624   3.088  0.0935  0.1007 -0.2637
  591MOL0     C77885   5.028   1.710   2.995  0.2926 -0.0340  0.1393
  591MOL0     C77886   4.892   1.690   2.967 -0.1101  0.2413  0.2252
  591MOL0     C77887   4.824   1.576   3.020  0.0139  0.3285  0.0460
  591MOL0     O77888   4.694   1.541   2.996 -0.3482  0.8744 -0.5107
  591MOL0     C77889   4.609   1.637   2.948  0.0707 -0.2698 -0.3339
  591MOL0     C77890   4.461   1.581   2.955  0.1558 -0.1200 -0.3122
  591MOL0     C77891   4.353   1.669   2.886  0.0956 -0.2329  0.0838
  591MOL0     C77892   4.216   1.618   2.923  0.6245  0.0061 -0.6907
  591MOL0     C77893   4.106   1.700   2.865  0.1132  0.5670  0.0336
  591MOL0     C77894   4.105   1.708   2.711  0.4168 -0.3360 -0.0611
  591MOL0     C77895   3.963   1.753   2.665  0.4249 -0.5516  0.0607
  591MOL0     C77896   3.881   1.634   2.610 -0.5302 -0.4265 -0.1225
  591MOL0     N77897   3.801   1.565   2.718  0.2316 -0.9285  0.0681
  591MOL0     C77898   3.731   1.630   2.810  1.3340 -0.5949  0.2893
  591MOL0     C77899   3.683   1.538   2.892  0.9847  0.7337  0.4957
  591MOL0     C77900   3.601   1.539   3.011 -0.5641  0.5408  0.3817
  591MOL0     C77901   3.459   1.479   3.009  0.3045  0.6404 -0.3437
  591MOL0     C77902   3.371   1.548   2.901 -0.4183 -0.1275  0.3629
  591MOL0     C77903   3.232   1.476   2.917  0.5393  0.1201 -0.5769
  591MOL0     O77904   3.136   1.554   2.841  0.1642  0.1116 -0.1459
  591MOL0     C77905   3.005   1.518   2.834 -0.1892  0.3922  0.5117
  591MOL0     C77906   2.953   1.396   2.880 -0.6621  0.7976 -0.1759
  591MOL0     C77907   2.833   1.357   2.845  0.2182 -0.1694 -0.5964
  591MOL0     C77908   2.746   1.428   2.758 -0.7628 -0.7669 -0.8097
  591MOL0     C77909   2.621   1.387   2.718  0.5956 -0.5175 -0.7800
  591MOL0     O77910   2.566   1.298   2.809  0.3876  0.2161  0.5310
  591MOL0     C77911   2.447   1.234   2.769  0.4451  0.0696 -0.6723
  591MOL0     C77912   2.320   1.296   2.755  0.1866 -0.5289  0.4594
  591MOL0     C77913   2.209   1.214   2.748  0.3210 -0.5631  0.0799
  591MOL0     C77914   2.225   1.077   2.732 -0.0851 -0.0425  0.1880
  591MOL0     O77915   2.126   0.978   2.728  0.8924  0.0138  0.5018
  591MOL0     C77916   1.985   1.022   2.749 -0.5789  0.4565 -0.6402
  591MOL0     C77917   1.901   1.027   2.616 -0.6065  0.0693 -0.5074
  591MOL0     C77918   1.752   1.040   2.637  0.0088  0.6139  0.2290
  591MOL0     C77919   1.686   0.940   2.739  0.7930  0.0192 -1.2028
  591MOL0     C77920   1.532   0.927   2.711 -0.1220 -0.8896 -0.6362
  591MOL0     C77921   1.452   1.059   2.748 -0.4702  0.1082 -0.3563
  591MOL0     C77922   1.302   1.038   2.714 -0.2138 -0.2792 -0.1668
  591MOL0     C77923   1.204   1.158   2.746 -0.8871 -0.1179 -0.2136
  591MOL0    Cl77924   1.168   1.200   2.928  0.1313  0.0426 -0.0224
  591MOL0     C77925   2.356   1.021   2.739  0.7563 -0.8087 -0.8001
  591MOL0     C77926   2.464   1.097   2.766  0.6772 -0.0402 -0.5410
  591MOL0     O77927   2.570   1.424   2.614 -0.3847  0.0664  0.3663
  591MOL0     C77928   2.794   1.554   2.710 -0.2620  1.2539  0.3335
  591MOL0     C77929   2.921   1.599   2.751  0.1368  0.1817  0.1150
  591MOL0     N77930   3.734   1.418   2.843  0.9157 -0.0287 -0.8106
  591MOL0     N77931   3.803   1.436   2.734 -0.4305  0.4147  0.1550
  591MOL0     C77932   4.896   1.477   3.088 -0.0017 -0.4894 -0.5538
  591MOL0     C77933   5.025   1.510   3.134  0.1774 -0.3114  0.1810
  591MOL0     C77934   5.460   1.636   3.176 -0.8617  0.0438 -0.3024
  591MOL0     C77935   5.499   1.730   3.075 -0.7865 -0.2098 -0.1228
  591MOL0     C77936   5.627   1.787   3.081  1.9099 -0.0032 -0.4444
  591MOL0     C77937   5.718   1.742   3.170  0.7322 -0.3731 -0.5393
  591MOL0     O77938   5.841   1.804   3.176 -0.0354 -0.1082 -0.6313
  591MOL0     C77939   5.915   1.796   3.299 -0.3119 -0.0292  0.0468
  591MOL0     C77940   6.003   1.925   3.320  0.0123 -0.0878 -0.1570
  591MOL0     C77941   6.082   1.969   3.199 -1.0411 -0.1402  0.1196
  591MOL0     C77942   6.162   1.863   3.121 -0.4013  0.1507 -0.6934
  591MOL0     C77943   6.261   1.792   3.198 -0.6696 -0.4823 -0.2169
  591MOL0     C77944   6.350   1.739   3.263  0.7981 -0.0415 -0.9490
  591MOL0     C77945   5.680   1.635   3.262  0.6894  0.0982 -0.0563
  591MOL0     C77946   5.551   1.588   3.274 -0.3985 -0.1585  0.1529
  591MOL0     H77947   5.086   1.784   2.941  0.2679 -1.0437 -1.3383
  591MOL0     H77948   4.837   1.755   2.900  0.7360  1.4375  0.6745
  591MOL0     H77949   4.623   1.669   2.845 -1.7522  0.3100 -0.4351
  591MOL0     H77950   4.613   1.727   3.009  0.7998 -1.4705  1.4792
  591MOL0     H77951   4.437   1.581   3.062  0.7488  0.3008 -0.1750
  591MOL0     H77952   4.442   1.483   2.910  0.0509 -0.2048 -0.0838
  591MOL0     H77953   4.360   1.664   2.777 -0.3479 -2.1215  0.1137
  591MOL0     H77954   4.378   1.770   2.921  3.1127 -0.8297 -0.0422
  591MOL0     H77955   4.206   1.516   2.884 -1.4233 -0.5196  1.0790
  591MOL0     H77956   4.190   1.607   3.028  1.0528  1.7574 -0.3746
  591MOL0     H77957   4.117   1.802   2.902 -0.0870  0.4526  0.4144
  591MOL0     H77958   4.012   1.663   2.907 -0.7567  4.0042  1.4275
  591MOL0     H77959   4.128   1.609   2.671  1.5190 -0.9729  1.9745
  591MOL0     H77960   4.182   1.781   2.684 -0.2129  0.4171  0.1108
  591MOL0     H77961   3.922   1.811   2.748 -0.2565 -1.0753  0.0932
  591MOL0     H77962   3.974   1.823   2.581  2.1846 -0.2637  0.4807
  591MOL0     H77963   3.943   1.563   2.554  0.3522  2.7658 -3.5982
  591MOL0     H77964   3.804   1.664   2.538 -1.3734  0.7982  1.2099
  591MOL0     H77965   3.720   1.738   2.810 -2.7742 -0.8613  1.2773
  591MOL0     H77966   3.598   1.645   3.038 -0.5443  0.2374  1.6083
  591MOL0     H77967   3.659   1.484   3.086  0.8480  2.0751  0.4775
  591MOL0     H77968   3.418   1.508   3.106  1.3503  0.9346  0.0262
  591MOL0     H77969   3.468   1.370   3.006  1.3418  0.7296 -0.8250
  591MOL0     H77970   3.376   1.656   2.915 -1.4400  0.0403 -0.4841
  591MOL0     H77971   3.407   1.531   2.799  0.4238 -3.3139  1.0683
  591MOL0     H77972   3.212   1.486   3.024 -0.5847 -1.2952 -0.6359
  591MOL0     H77973   3.230   1.371   2.887 -1.8658 -0.3692  1.0272
  591MOL0     H77974   3.023   1.333   2.934  0.9472  0.8462 -2.0929
  591MOL0     H77975   2.795   1.259   2.873 -2.4491  1.5408  2.5975
  591MOL0     H77976   2.322   1.404   2.764  2.2215 -0.4824 -0.1299
  591MOL0     H77977   2.116   1.265   2.723  0.1424 -2.1049 -2.9215
  591MOL0     H77978   1.986   1.106   2.819  2.1969 -0.2734  0.3180
  591MOL0     H77979   1.950   0.937   2.808  1.1521  0.4989  0.5230
  591MOL0     H77980   1.926   0.939   2.556  2.9494  0.2944  0.4258
  591MOL0     H77981   1.933   1.115   2.560  0.4691  0.0905  0.1206
  591MOL0     H77982   1.708   1.031   2.537 -3.0990  0.4958  1.4790
  591MOL0     H77983   1.738   1.141   2.678  0.1859  0.2659  1.1844
  591MOL0     H77984   1.738   0.845   2.723  1.5234  0.5412 -2.0210
  591MOL0     H77985   1.705   0.964   2.844  0.6754 -2.1146 -0.6547
  591MOL0     H77986   1.502   0.849   2.781 -2.2018  2.4099  2.4795
  591MOL0     H77987   1.518   0.888   2.609  0.0498 -0.6625 -0.7499
  591MOL0     H77988   1.492   1.144   2.691  2.7787 -0.6158  0.5879
  591MOL0     H77989   1.460   1.087   2.854 -1.5784  0.5432 -0.3784
  591MOL0     H77990   1.300   1.012   2.608 -1.7250 -2.5212  0.3379
  591MOL0     H77991   1.255   0.955   2.766  1.9390 -0.8993  0.9092
  591MOL0     H77992   1.106   1.136   2.705 -1.2990  1.5617 -0.1945
  591MOL0     H77993   1.247   1.247   2.699  3.1155 -1.5611  0.2473
  591MOL0     H77994   2.358   0.914   2.719  0.4389 -0.8113 -0.8261
  591MOL0     H77995   2.561   1.053   2.787  1.5305  2.7159  2.1060
  591MOL0     H77996   2.732   1.616   2.646 -0.7354  2.0480  1.5289
  591MOL0     H77997   2.951   1.685   2.694  0.8869  2.0362  3.0607
  591MOL0     H77998   4.857   1.388   3.138 -0.5500  0.1076  0.0984
  591MOL0     H77999   5.070   1.442   3.206 -1.3433 -1.0059  0.5383
  591MOL0     H78000   5.426   1.748   2.997  2.2847  0.0223 -3.1717
  591MOL0     H78001   5.658   1.857   3.004 -0.1828 -0.6075 -1.9288
  591MOL0     H78002   5.974   1.704   3.289 -0.0218  0.3667 -2.6705
  591MOL0     H78003   5.858   1.794   3.392  2.0147  1.1405  1.6142
  591MOL0     H78004   5.934   2.006   3.349 -0.0891 -0.3069  0.2165
  591MOL0     H78005   6.075   1.918   3.402  0.2307 -0.4210 -0.3782
  591MOL0     H78006   6.156   2.041   3.234 -2.8816  2.0430 -0.2586
  591MOL0     H78007   6.010   2.024   3.139 -0.1784  0.4312 -0.4163
  591MOL0     H78008   6.087   1.799   3.072 -0.5378  0.1923 -0.5397
  591MOL0     H78009   6.222   1.915   3.046  0.0599  2.9487  1.4663
  591MOL0     H78010   6.426   1.692   3.323  1.7302  2.6694  0.1675
  591MOL0     H78011   5.741   1.596   3.343 -1.7975 -0.3525  1.7268
  591MOL0     H78012   5.528   1.514   3.349 -0.1856 -0.5244 -0.1378
  592MOL0     O78013   7.949   3.269   8.641 -0.0617  0.8345  0.2660
  592MOL0     C78014   7.989   3.335   8.730  0.1014  0.0415 -0.5388
  592MOL0     O78015   7.909   3.400   8.816  0.3773 -0.7355 -0.5746
  592MOL0     C78016   7.770   3.416   8.794 -0.3927 -0.2310  0.2828
  592MOL0     C78017   7.723   3.458   8.674  0.1206  0.7803  0.1516
  592MOL0     C78018   7.586   3.475   8.649  0.0406 -0.7675 -0.3654
  592MOL0     C78019   7.498   3.457   8.759  0.2729 -0.3723  0.4894
  592MOL0     O78020   7.369   3.494   8.745  0.3168  0.1451 -0.4079
  592MOL0     C78021   7.322   3.607   8.817 -1.4048 -1.1999 -0.9290
  592MOL0     C78022   7.227   3.692   8.732  0.0502 -0.2362 -0.7034
  592MOL0     C78023   7.221   3.845   8.773  0.6818  0.6734  0.0307
  592MOL0     C78024   7.133   3.922   8.673  0.5646  0.4958 -0.0718
  592MOL0     C78025   7.209   3.998   8.573  0.0946 -0.8061  0.8519
  592MOL0     C78026   7.135   4.115   8.510  0.2286 -0.4044  0.2769
  592MOL0     C78027   7.214   4.251   8.480 -0.2462 -0.8261  0.5385
  592MOL0     C78028   7.141   4.338   8.375 -0.6944 -0.3356 -0.3318
  592MOL0     N78029   7.007   4.384   8.407  0.1637  0.1760  0.1702
  592MOL0     C78030   6.889   4.308   8.414  0.3129  1.0824 -0.4452
  592MOL0     C78031   6.788   4.386   8.460 -0.3685 -0.0739  0.5855
  592MOL0     C78032   6.638   4.377   8.467 -0.0924  1.0610 -0.3590
  592MOL0     C78033   6.566   4.437   8.341 -0.3492 -0.1629 -0.0500
  592MOL0     C78034   6.420   4.478   8.378  0.4900  0.8598  0.3792
  592MOL0     C78035   6.324   4.359   8.351 -0.5323 -0.9607 -0.6992
  592MOL0     O78036   6.307   4.330   8.202 -0.1601  0.0328 -0.0122
  592MOL0     C78037   6.181   4.329   8.138 -0.4262  0.2811 -1.0199
  592MOL0     C78038   6.075   4.403   8.188 -0.5351 -0.7018 -0.1931
  592MOL0     C78039   5.953   4.389   8.127 -0.2283  0.6379  0.0792
  592MOL0     C78040   5.943   4.293   8.026  0.0076 -0.0948 -0.0530
  592MOL0     C78041   5.817   4.288   7.955 -0.9427  0.2018  0.7280
  592MOL0     O78042   5.717   4.354   8.019  0.7223 -0.2280 -0.6680
  592MOL0     C78043   5.591   4.362   7.962  0.0274  0.0087 -0.1598
  592MOL0     C78044   5.512   4.475   8.001  0.1375  0.2734  0.6144
  592MOL0     C78045   5.376   4.479   7.969  0.1930  0.5926  0.3028
  592MOL0     C78046   5.309   4.383   7.896  0.1513  0.2086 -0.0013
  592MOL0     O78047   5.171   4.394   7.892 -0.0862 -0.0184 -0.3435
  592MOL0     C78048   5.101   4.317   7.802  0.1560  0.4468 -0.4549
  592MOL0     C78049   4.956   4.311   7.836  0.0310  0.7863 -0.9049
  592MOL0     C78050   4.882   4.441   7.814 -0.2074  0.3411  0.6016
  592MOL0     C78051   4.746   4.445   7.869  0.4379 -0.3723 -0.7093
  592MOL0     C78052   4.637   4.415   7.761 -0.4279  1.3189  0.4371
  592MOL0     C78053   4.514   4.382   7.838 -0.4671 -0.2253  0.0302
  592MOL0     C78054   4.400   4.350   7.742 -0.9745  0.0573  0.1808
  592MOL0     C78055   4.288   4.278   7.817 -0.4006  0.5551  0.1497
  592MOL0    Cl78056   4.208   4.404   7.923  0.0790 -0.3026  0.0384
  592MOL0     C78057   5.381   4.263   7.856 -0.0035 -0.1207  0.4497
  592MOL0     C78058   5.519   4.259   7.894 -0.4098  0.6511  0.5111
  592MOL0     O78059   5.806   4.227   7.845  0.0175 -0.6472 -0.2460
  592MOL0     C78060   6.045   4.219   7.969 -0.4450  0.2145 -0.0769
  592MOL0     C78061   6.160   4.234   8.041 -0.0950 -0.1109 -0.2012
  592MOL0     N78062   6.848   4.513   8.468 -0.5251  0.1993  0.1164
  592MOL0     N78063   6.973   4.511   8.454  0.2685  0.2560  0.5961
  592MOL0     C78064   7.546   3.403   8.877 -0.7083  0.3958 -0.3876
  592MOL0     C78065   7.685   3.389   8.898  0.0318 -0.8343 -0.0601
  592MOL0     C78066   8.132   3.321   8.767  0.5423 -0.0572  0.5198
  592MOL0     C78067   8.186   3.395   8.868  0.7702 -0.3119  0.8700
  592MOL0     C78068   8.319   3.378   8.910 -0.4901 -0.5657 -0.0789
  592MOL0     C78069   8.409   3.295   8.833  0.6139  0.4234 -0.6376
  592MOL0     O78070   8.542   3.284   8.864  0.0687  0.3959  0.3595
  592MOL0     C78071   8.631   3.258   8.755 -0.1056 -0.1029 -0.1256
  592MOL0     C78072   8.772   3.296   8.791  0.4146  0.1181 -0.1556
  592MOL0     C78073   8.826   3.219   8.919 -0.4366 -0.1431  0.2714
  592MOL0     C78074   8.956   3.284   8.972 -0.4915  0.2446 -0.2675
  592MOL0     C78075   9.074   3.254   8.887 -0.2591 -0.2860 -0.3069
  592MOL0     C78076   9.175   3.232   8.825  0.9729  0.3716  0.2250
  592MOL0     C78077   8.350   3.223   8.725  0.1064  0.0198 -0.2812
  592MOL0     C78078   8.222   3.242   8.696 -0.2626 -0.1782  1.1097
  592MOL0     H78079   7.792   3.484   8.594 -1.0498  0.8822 -0.8457
  592MOL0     H78080   7.537   3.520   8.563 -0.8431 -0.6259  0.1928
  592MOL0     H78081   7.398   3.683   8.835 -0.7282 -1.5926 -2.0326
  592MOL0     H78082   7.276   3.586   8.914 -1.0653 -1.9972 -0.9390
  592MOL0     H78083   7.124   3.657   8.741  0.3482 -1.1262 -0.7147
  592MOL0     H78084   7.260   3.700   8.628 -0.4473  0.7904 -0.7970
  592MOL0     H78085   7.320   3.889   8.783  0.6501  2.0037 -3.7944
  592MOL0     H78086   7.177   3.841   8.873  0.3080  0.4658 -0.1380
  592MOL0     H78087   7.056   3.861   8.625 -0.0373  1.3992 -0.2822
  592MOL0     H78088   7.083   4.000   8.732  0.3291 -1.5835  2.7057
  592MOL0     H78089   7.238   3.935   8.488  0.2794  0.8094 -0.3409
  592MOL0     H78090   7.297   4.047   8.615  0.2925  0.8782 -1.3033
  592MOL0     H78091   7.042   4.133   8.564  0.4615 -1.6435  1.1290
  592MOL0     H78092   7.096   4.083   8.413  0.5428  1.2796 -0.4451
  592MOL0     H78093   7.223   4.314   8.569 -1.2314  0.3455 -0.1524
  592MOL0     H78094   7.315   4.231   8.444  0.2137 -1.1935  1.9630
  592MOL0     H78095   7.121   4.267   8.294 -1.7535 -0.0004 -0.3709
  592MOL0     H78096   7.199   4.428   8.352  0.3541 -0.4455  1.5963
  592MOL0     H78097   6.872   4.210   8.370 -4.7124  1.7686 -0.6208
  592MOL0     H78098   6.596   4.416   8.560  0.8083 -0.5562  0.7670
  592MOL0     H78099   6.628   4.268   8.474 -1.3553  0.9829 -2.4907
  592MOL0     H78100   6.564   4.368   8.256 -3.8343  1.4990 -1.4937
  592MOL0     H78101   6.610   4.528   8.297 -0.2170 -1.3305 -2.5401
  592MOL0     H78102   6.419   4.514   8.481 -0.0838  1.6725  0.1026
  592MOL0     H78103   6.395   4.558   8.307  2.8879  1.8388  0.5423
  592MOL0     H78104   6.227   4.390   8.391 -0.8233 -2.7663  0.0911
  592MOL0     H78105   6.353   4.268   8.404 -2.1716 -1.9188 -1.3407
  592MOL0     H78106   6.082   4.471   8.272 -1.7135  1.4547 -1.7379
  592MOL0     H78107   5.872   4.455   8.157 -1.0934 -0.7241  0.8468
  592MOL0     H78108   5.558   4.541   8.074 -0.7543  0.9171  0.6175
  592MOL0     H78109   5.313   4.562   7.999 -1.0950 -1.7542  5.0188
  592MOL0     H78110   5.141   4.216   7.813  0.2430  0.4829 -0.4464
  592MOL0     H78111   5.106   4.370   7.706 -2.3305  0.6881 -0.5258
  592MOL0     H78112   4.945   4.276   7.939  0.3185  2.6097 -0.2169
  592MOL0     H78113   4.920   4.224   7.780  1.5947 -0.3949 -0.1209
  592MOL0     H78114   4.877   4.468   7.708  2.9997 -1.0397 -0.0147
  592MOL0     H78115   4.941   4.523   7.855 -1.7270  1.9607 -0.3019
  592MOL0     H78116   4.734   4.381   7.956 -1.7156 -0.6963 -1.1852
  592MOL0     H78117   4.742   4.545   7.914  1.3515 -1.6519  2.4601
  592MOL0     H78118   4.669   4.330   7.700 -1.7432  2.0178 -1.3313
  592MOL0     H78119   4.630   4.506   7.700 -1.4428  0.5731 -0.6017
  592MOL0     H78120   4.489   4.467   7.902 -0.5386 -0.9092  0.9331
  592MOL0     H78121   4.524   4.293   7.902 -1.9571 -0.5102 -0.1143
  592MOL0     H78122   4.350   4.436   7.698 -4.6301 -1.5144  0.8505
  592MOL0     H78123   4.440   4.275   7.673 -4.2331 -1.0369 -0.7242
  592MOL0     H78124   4.326   4.205   7.888 -0.9396  1.3517  1.2973
  592MOL0     H78125   4.225   4.228   7.743  0.5009  0.5664 -0.6410
  592MOL0     H78126   5.340   4.191   7.787  0.2762 -0.7075  0.8831
  592MOL0     H78127   5.580   4.175   7.863 -0.7354  0.0607  1.4404
  592MOL0     H78128   6.034   4.159   7.879  0.0365  2.1688 -1.5201
  592MOL0     H78129   6.247   4.181   8.004 -1.8001 -1.0085 -3.3118
  592MOL0     H78130   7.474   3.378   8.954 -0.0892 -0.9625 -0.2320
  592MOL0     H78131   7.720   3.355   8.995  0.9674 -0.1080 -0.1355
  592MOL0     H78132   8.122   3.467   8.917 -1.3372 -0.7289 -1.0793
  592MOL0     H78133   8.366   3.426   8.995 -0.7279 -1.6205  0.6597
  592MOL0     H78134   8.610   3.320   8.668  0.8098 -1.2524 -1.2094
  592MOL0     H78135   8.626   3.151   8.732 -0.4515  0.5160 -3.3898
  592MOL0     H78136   8.834   3.299   8.701  0.0923  0.1057 -0.3823
  592MOL0     H78137   8.763   3.403   8.812  1.6922  0.4744 -1.2583
  592MOL0     H78138   8.845   3.118   8.883  0.1398  0.6754 -1.8604
  592MOL0     H78139   8.747   3.217   8.995 -0.4850 -0.6321  0.2097
  592MOL0     H78140   8.939   3.392   8.974  1.3802  0.5847 -0.8695
  592MOL0     H78141   8.983   3.253   9.074  0.5766 -3.4525 -1.5142
  592MOL0     H78142   9.258   3.193   8.770  0.6788 -0.0213  0.0493
  592MOL0     H78143   8.414   3.151   8.675  1.0596 -1.9139  3.3734
  592MOL0     H78144   8.192   3.182   8.611  1.5568  2.0411 -1.2535
  593MOL0     O78145   0.337   1.692   0.831 -0.1293 -0.0457 -0.1034
  593MOL0     C78146   0.339   1.782   0.746  0.7199 -0.0165 -0.2436
  593MOL0     O78147   0.243   1.882   0.736 -0.0116  0.2041 -1.0233
  593MOL0     C78148   0.121   1.867   0.792 -0.3663  0.2140  0.0199
  593MOL0     C78149   0.055   1.750   0.794 -0.7023 -0.1581 -0.3014
  593MOL0     C78150  -0.067   1.739   0.859  0.5375 -0.0633 -0.3647
  593MOL0     C78151  -0.125   1.848   0.930  0.1015 -0.6555 -0.2447
  593MOL0     O78152  -0.248   1.822   0.996  0.4393 -0.7237 -0.1442
  593MOL0     C78153  -0.302   1.939   1.060 -0.0656 -0.4919  0.0413
  593MOL0     C78154  -0.439   1.897   1.106 -0.3046  0.5625  0.4890
  593MOL0     C78155  -0.511   2.012   1.169 -1.1488  0.3486 -0.6178
  593MOL0     C78156  -0.636   1.963   1.237  0.1254  0.0178 -0.0086
  593MOL0     C78157  -0.702   2.090   1.291 -0.0014 -0.0261 -0.4148
  593MOL0     C78158  -0.820   2.054   1.373  0.4223 -0.2470 -0.1752
  593MOL0     C78159  -0.921   2.162   1.373 -0.1162 -0.2436 -0.6822
  593MOL0     C78160  -0.929   2.230   1.519  0.2180  0.4259 -0.3912
  593MOL0     N78161  -1.019   2.348   1.534  0.4741  0.4657  0.1459
  593MOL0     C78162  -1.131   2.350   1.616  0.6187 -0.1113  0.4421
  593MOL0     C78163  -1.185   2.485   1.603 -1.3803  0.1156  0.3755
  593MOL0     C78164  -1.313   2.545   1.659  0.3099  0.0675  0.1434
  593MOL0     C78165  -1.436   2.501   1.576  0.4124 -1.0921 -0.8182
  593MOL0     C78166  -1.493   2.366   1.620 -0.4449  0.3335  0.2437
  593MOL0     C78167  -1.635   2.345   1.572  0.0333  0.3258  0.5252
  593MOL0     O78168  -1.737   2.429   1.633 -0.1404  0.5269 -0.5877
  593MOL0     C78169  -1.867   2.409   1.588  0.8035  0.8269 -0.4133
  593MOL0     C78170  -1.962   2.486   1.653 -0.1298 -0.4466  0.1578
  593MOL0     C78171  -2.099   2.484   1.609  0.2413  0.9692 -0.5210
  593MOL0     C78172  -2.142   2.399   1.501 -0.8970 -0.1601 -0.6830
  593MOL0     C78173  -2.280   2.398   1.454  0.2589  0.1177  0.3466
  593MOL0     O78174  -2.344   2.510   1.484 -0.4871  0.4988  0.1114
  593MOL0     C78175  -2.465   2.543   1.439  0.0768 -0.6820  0.6943
  593MOL0     C78176  -2.485   2.584   1.302  0.9815 -0.1513  0.8260
  593MOL0     C78177  -2.615   2.629   1.269 -0.3975  0.7475 -0.3476
  593MOL0     C78178  -2.725   2.636   1.364 -0.2700  0.8570 -0.2265
  593MOL0     O78179  -2.855   2.672   1.346 -0.0363 -0.1732  1.0010
  593MOL0     C78180  -2.878   2.718   1.215 -0.0529 -0.6417  1.0828
  593MOL0     C78181  -3.024   2.771   1.218 -0.8485  0.7821  0.3406
  593MOL0     C78182  -3.114   2.654   1.264 -0.4740  0.5010  0.1739
  593MOL0     C78183  -3.266   2.680   1.230 -0.0845 -0.5630 -0.9518
  593MOL0     C78184  -3.351   2.556   1.263 -0.2617  0.6044 -0.0365
  593MOL0     C78185  -3.493   2.581   1.224  0.2438  0.2663 -0.1588
  593MOL0     C78186  -3.573   2.483   1.304  0.8365  0.7361 -0.1176
  593MOL0     C78187  -3.724   2.481   1.266  0.3276 -0.0318  1.3852
  593MOL0    Cl78188  -3.820   2.392   1.384  0.1617  0.3029  0.5434
  593MOL0     C78189  -2.701   2.591   1.494 -0.2776  0.3276 -0.3516
  593MOL0     C78190  -2.570   2.557   1.530  0.3868 -0.0868 -0.1266
  593MOL0     O78191  -2.319   2.297   1.400  0.9935  0.0562  0.5669
  593MOL0     C78192  -2.040   2.312   1.443 -0.7719  0.6096  0.7309
  593MOL0     C78193  -1.908   2.320   1.488  0.1736 -0.2383  0.0830
  593MOL0     N78194  -1.101   2.552   1.514  0.1782  0.4813 -0.4768
  593MOL0     N78195  -1.015   2.470   1.465  0.5871 -0.3889  0.8718
  593MOL0     C78196  -0.050   1.971   0.925 -0.0931 -0.6025 -0.3746
  593MOL0     C78197   0.068   1.977   0.855 -0.6280  0.8849 -0.1693
  593MOL0     C78198   0.456   1.812   0.671  0.1855 -0.5414  0.3150
  593MOL0     C78199   0.462   1.917   0.572  0.6304 -0.5677  0.1544
  593MOL0     C78200   0.582   1.935   0.497 -0.3120  0.2617 -0.4432
  593MOL0     C78201   0.696   1.859   0.527  0.2709  0.4369 -0.2701
  593MOL0     O78202   0.807   1.887   0.457 -0.4628  0.1219  0.1461
  593MOL0     C78203   0.935   1.886   0.521 -0.7457 -0.0271  0.0201
  593MOL0     C78204   1.029   1.977   0.437  0.3890  0.8405 -0.3456
  593MOL0     C78205   1.177   1.966   0.478 -0.3195  0.5029  0.4008
  593MOL0     C78206   1.208   1.949   0.627  0.5324  0.5778 -1.0916
  593MOL0     C78207   1.359   1.935   0.631  0.2793 -0.0557 -0.1586
  593MOL0     C78208   1.477   1.911   0.644 -0.0660 -0.7291  0.5578
  593MOL0     C78209   0.686   1.754   0.615 -0.6166  0.1317 -0.2713
  593MOL0     C78210   0.572   1.727   0.681  0.3817  0.0102 -0.2604
  593MOL0     H78211   0.092   1.656   0.756  1.4686 -1.4605  4.3269
  593MOL0     H78212  -0.118   1.643   0.850  0.6496  0.0229 -2.3066
  593MOL0     H78213  -0.318   2.022   0.991 -0.4276 -1.6292 -1.2724
  593MOL0     H78214  -0.236   1.972   1.141 -0.4965  4.5535 -1.2806
  593MOL0     H78215  -0.434   1.811   1.174  0.5139 -2.5138 -3.1024
  593MOL0     H78216  -0.490   1.870   1.012  0.6736  1.7710 -0.4256
  593MOL0     H78217  -0.537   2.081   1.088 -0.2866 -0.9287 -2.0255
  593MOL0     H78218  -0.453   2.058   1.249 -0.6376 -1.8252  0.3103
  593MOL0     H78219  -0.699   1.902   1.171 -1.6627  0.3967  1.2819
  593MOL0     H78220  -0.600   1.896   1.315  2.2013  0.9543 -0.1144
  593MOL0     H78221  -0.734   2.148   1.204 -2.6506 -1.8520 -0.7890
  593MOL0     H78222  -0.628   2.137   1.356  1.1183 -0.1738 -1.5347
  593MOL0     H78223  -0.791   2.013   1.470  0.2062 -2.4645 -0.9903
  593MOL0     H78224  -0.861   1.971   1.314  0.8911  0.8853 -2.1749
  593MOL0     H78225  -0.890   2.244   1.307  0.9572 -1.3772 -1.6313
  593MOL0     H78226  -1.018   2.120   1.345 -0.0723 -1.7151  1.1934
  593MOL0     H78227  -0.827   2.253   1.550  0.6236 -1.4424 -0.2176
  593MOL0     H78228  -0.955   2.144   1.581 -0.3084  1.6251  1.1108
  593MOL0     H78229  -1.179   2.268   1.667 -2.5137  0.6659 -1.0313
  593MOL0     H78230  -1.305   2.654   1.664  3.5124  0.0064 -1.2256
  593MOL0     H78231  -1.315   2.519   1.765  3.2003  1.2002  0.5705
  593MOL0     H78232  -1.408   2.504   1.470  5.2042  1.6078  0.2341
  593MOL0     H78233  -1.516   2.574   1.587 -0.9109 -2.2057 -2.4112
  593MOL0     H78234  -1.443   2.274   1.587 -2.6775 -1.0158  0.4169
  593MOL0     H78235  -1.487   2.349   1.728  0.4187 -1.6822 -0.0785
  593MOL0     H78236  -1.664   2.244   1.603  0.5989 -0.7729 -2.2973
  593MOL0     H78237  -1.645   2.360   1.465  1.3598 -2.0163 -0.0010
  593MOL0     H78238  -1.944   2.535   1.749  0.0657  0.1840 -0.1952
  593MOL0     H78239  -2.175   2.545   1.656  1.0440  2.2941 -0.8987
  593MOL0     H78240  -2.410   2.586   1.223 -0.3836 -2.1855 -0.6038
  593MOL0     H78241  -2.627   2.658   1.165  0.8678  2.3615 -0.0985
  593MOL0     H78242  -2.869   2.631   1.149 -0.6389 -0.5576  0.8895
  593MOL0     H78243  -2.810   2.793   1.175  2.1650 -1.1474  3.5668
  593MOL0     H78244  -3.046   2.800   1.115 -2.9432  1.6130  0.9695
  593MOL0     H78245  -3.020   2.860   1.281  3.1352 -0.7712  2.6897
  593MOL0     H78246  -3.098   2.631   1.370 -0.5090 -0.0579  0.0622
  593MOL0     H78247  -3.089   2.563   1.209 -1.9101 -0.2422  0.7097
  593MOL0     H78248  -3.291   2.765   1.295 -0.6432 -1.6144  0.2608
  593MOL0     H78249  -3.276   2.708   1.125 -1.7716 -1.1003 -0.9757
  593MOL0     H78250  -3.336   2.543   1.371  0.7585  0.5397 -0.1739
  593MOL0     H78251  -3.312   2.469   1.210  0.8488 -0.2320  2.0102
  593MOL0     H78252  -3.511   2.570   1.117 -0.1230 -6.2976  0.1477
  593MOL0     H78253  -3.513   2.683   1.257  2.3734  1.0653 -1.1738
  593MOL0     H78254  -3.534   2.381   1.294 -0.0559  0.3959 -0.2059
  593MOL0     H78255  -3.561   2.507   1.410  0.4116 -0.6803  0.2766
  593MOL0     H78256  -3.738   2.439   1.166  1.2349 -1.6361  1.8864
  593MOL0     H78257  -3.760   2.584   1.263  1.9485  0.5886 -1.6662
  593MOL0     H78258  -2.777   2.580   1.571 -0.0508  1.5470  0.0594
  593MOL0     H78259  -2.549   2.517   1.628  0.8302 -0.3529 -0.3250
  593MOL0     H78260  -2.062   2.246   1.360  0.3556 -1.2499  1.8360
  593MOL0     H78261  -1.844   2.261   1.423  0.0259 -1.5929  1.1150
  593MOL0     H78262  -0.071   2.060   0.983  2.1380 -0.0979 -0.2400
  593MOL0     H78263   0.129   2.067   0.856 -0.3244  0.6890 -0.8772
  593MOL0     H78264   0.376   1.979   0.546  0.8481  0.0306  0.8422
  593MOL0     H78265   0.587   2.016   0.425 -1.2860 -2.0471 -3.3499
  593MOL0     H78266   0.966   1.781   0.532 -3.3552 -0.9767 -0.9328
  593MOL0     H78267   0.924   1.932   0.619 -1.7091  0.5044 -0.3299
  593MOL0     H78268   1.013   1.967   0.330  3.4595  2.0205 -1.0178
  593MOL0     H78269   1.005   2.080   0.469  0.0825  0.6428  0.0796
  593MOL0     H78270   1.218   2.063   0.448  0.9658  0.0972  0.7610
  593MOL0     H78271   1.235   1.894   0.419  1.3072  0.1438  2.3216
  593MOL0     H78272   1.187   2.035   0.691  0.3257 -1.0502  1.1692
  593MOL0     H78273   1.166   1.858   0.671  2.0369  1.4773  2.6367
  593MOL0     H78274   1.581   1.887   0.658  0.1837  0.3937  0.7016
  593MOL0     H78275   0.765   1.682   0.636 -0.9059 -0.1531 -0.1578
  593MOL0     H78276   0.569   1.638   0.742  1.1339  0.4532  0.4468
  594MOL0     O78277  10.174   7.140   9.521 -0.6127 -0.0649 -0.0610
  594MOL0     C78278  10.271   7.082   9.484  0.3112 -0.2943  0.1690
  594MOL0     O78279  10.273   6.953   9.436 -0.7138  0.4020 -0.1215
  594MOL0     C78280  10.172   6.861   9.461 -0.0708  0.1368 -0.4167
  594MOL0     C78281  10.033   6.885   9.425 -0.2441 -0.4321  0.1670
  594MOL0     C78282   9.935   6.792   9.458 -0.1683  0.0111  0.5811
  594MOL0     C78283   9.968   6.682   9.542 -0.0385 -0.9025  0.1070
  594MOL0     O78284   9.869   6.599   9.582  0.2784  0.7607 -0.1997
  594MOL0     C78285   9.834   6.601   9.717 -0.3422  0.7292  0.0153
  594MOL0     C78286   9.712   6.518   9.725 -0.3733 -0.8130  0.3746
  594MOL0     C78287   9.591   6.612   9.757 -0.1176  0.5595  0.8137
  594MOL0     C78288   9.460   6.537   9.783 -0.7090  0.6093 -1.1206
  594MOL0     C78289   9.354   6.630   9.838  0.1515  0.3805 -0.3937
  594MOL0     C78290   9.242   6.553   9.909 -0.2209  1.0254 -0.1004
  594MOL0     C78291   9.137   6.652   9.967  0.4085  0.3035  0.1472
  594MOL0     C78292   9.014   6.569  10.003  0.2457 -0.9958 -0.0130
  594MOL0     N78293   8.915   6.659  10.064 -0.1130  0.3747  0.2111
  594MOL0     C78294   8.860   6.642  10.187 -0.6728 -0.4942  0.5144
  594MOL0     C78295   8.773   6.742  10.210  0.2170  0.7784 -0.3846
  594MOL0     C78296   8.692   6.773  10.331  0.1923  0.2859  0.0867
  594MOL0     C78297   8.720   6.914  10.372  0.1484  0.6516  0.3391
  594MOL0     C78298   8.671   6.944  10.517 -0.5474 -0.4023 -0.2521
  594MOL0     C78299   8.764   6.883  10.624 -0.0110 -0.3757  1.2788
  594MOL0     O78300   8.897   6.927  10.583  0.8098 -0.3374  0.5446
  594MOL0     C78301   8.997   6.914  10.680 -0.4893  0.1928 -0.9500
  594MOL0     C78302   9.113   6.985  10.642  0.4212  0.1124  0.3774
  594MOL0     C78303   9.222   6.992  10.738  0.7507  0.0170 -0.1690
  594MOL0     C78304   9.225   6.929  10.861  0.9063 -1.0973 -0.4550
  594MOL0     C78305   9.342   6.945  10.964  0.5247 -0.2223  0.7920
  594MOL0     O78306   9.443   7.033  10.932  0.4799  0.1067 -0.7734
  594MOL0     C78307   9.564   7.025  10.984 -0.4483  1.0777 -0.8325
  594MOL0     C78308   9.640   7.141  11.000 -0.4046  0.4940  0.1235
  594MOL0     C78309   9.773   7.134  11.035 -0.1310 -0.9467 -0.0620
  594MOL0     C78310   9.833   7.017  11.075 -0.6533 -0.1101 -0.3058
  594MOL0     O78311   9.960   7.018  11.136 -0.0944  0.1617  0.1239
  594MOL0     C78312   9.995   6.917  11.237  0.2769  0.3533 -0.8276
  594MOL0     C78313  10.122   6.958  11.311 -0.4513  0.2927  0.7371
  594MOL0     C78314  10.251   6.945  11.229 -0.2890 -0.0640 -0.0485
  594MOL0     C78315  10.382   7.002  11.286  0.4904  0.4852 -0.1859
  594MOL0     C78316  10.491   6.989  11.184 -0.1072  0.7097  0.3385
  594MOL0     C78317  10.572   7.114  11.187  0.2915 -0.1546 -0.3794
  594MOL0     C78318  10.697   7.094  11.098 -0.2000 -0.7538 -0.1818
  594MOL0     C78319  10.795   7.212  11.130 -0.7307  0.5234 -0.0740
  594MOL0    Cl78320  10.936   7.221  11.022 -0.1082  0.3995  0.4940
  594MOL0     C78321   9.757   6.894  11.074  0.2511 -0.3081 -1.5102
  594MOL0     C78322   9.625   6.901  11.016  0.1802 -0.7546  0.1763
  594MOL0     O78323   9.321   6.895  11.071 -1.2126 -0.5665  0.2799
  594MOL0     C78324   9.109   6.858  10.892 -0.7198  1.2089  0.0820
  594MOL0     C78325   9.002   6.856  10.803  0.3756 -1.0259  0.1508
  594MOL0     N78326   8.762   6.816  10.093  0.0592 -0.5527  0.6160
  594MOL0     N78327   8.863   6.775  10.022  0.3798 -0.1300  0.2983
  594MOL0     C78328  10.101   6.669   9.581 -0.0405  0.3359 -0.1870
  594MOL0     C78329  10.203   6.744   9.538 -0.1788  0.2433  0.1799
  594MOL0     C78330  10.399   7.158   9.473  0.5738 -0.1410 -0.7882
  594MOL0     C78331  10.502   7.135   9.381  0.0800  0.0794 -0.1340
  594MOL0     C78332  10.609   7.218   9.369 -0.6360 -0.2208 -0.5160
  594MOL0     C78333  10.621   7.336   9.447  0.6261  0.6731 -0.1947
  594MOL0     O78334  10.717   7.430   9.436  0.0515 -0.4061 -0.2120
  594MOL0     C78335  10.815   7.436   9.332  0.3972  0.1992 -0.0759
  594MOL0     C78336  10.774   7.463   9.183 -0.2119  0.0457 -1.3478
  594MOL0     C78337  10.695   7.592   9.191  0.2395  0.0665 -0.2548
  594MOL0     C78338  10.724   7.679   9.067 -0.1736  0.1333  0.1073
  594MOL0     C78339  10.847   7.757   9.093  0.0700 -0.0229 -0.1701
  594MOL0     C78340  10.956   7.816   9.095  0.9022 -0.5195  0.7147
  594MOL0     C78341  10.521   7.363   9.535 -0.0722  0.5376 -0.4841
  594MOL0     C78342  10.411   7.270   9.553  0.1288  0.5317  0.3051
  594MOL0     H78343  10.013   6.972   9.365 -1.6275 -1.3269 -0.7033
  594MOL0     H78344   9.829   6.804   9.439 -0.1044  0.4617  0.5010
  594MOL0     H78345   9.825   6.700   9.762  1.1483  0.0749  1.9073
  594MOL0     H78346   9.914   6.550   9.772 -2.3166 -2.0335  0.5476
  594MOL0     H78347   9.717   6.451   9.812 -0.3806 -1.3171 -0.0144
  594MOL0     H78348   9.694   6.459   9.635  1.7258 -0.3696 -0.3953
  594MOL0     H78349   9.573   6.673   9.668  2.7181  0.9850  0.4190
  594MOL0     H78350   9.615   6.676   9.843  0.1600 -1.9258  2.6912
  594MOL0     H78351   9.422   6.493   9.690  1.9566  2.8043 -3.4150
  594MOL0     H78352   9.468   6.459   9.859 -0.2046  0.6673 -1.1111
  594MOL0     H78353   9.309   6.685   9.756  1.1146  1.8158  0.0105
  594MOL0     H78354   9.401   6.696   9.912  2.5072 -1.1932 -0.3439
  594MOL0     H78355   9.276   6.482   9.985  2.3575  0.1686 -1.9017
  594MOL0     H78356   9.195   6.490   9.832  1.7098 -0.4726 -0.1498
  594MOL0     H78357   9.164   6.704  10.059 -1.8341  1.2945  0.3065
  594MOL0     H78358   9.100   6.721   9.890 -1.9591  0.2073  1.1392
  594MOL0     H78359   9.032   6.476  10.057  0.5917  1.6409  5.0215
  594MOL0     H78360   8.959   6.538   9.914 -1.7426  0.7130  0.5575
  594MOL0     H78361   8.889   6.567  10.261  0.0461  0.9330  1.7288
  594MOL0     H78362   8.729   6.707  10.410  3.3211 -0.2629 -1.6526
  594MOL0     H78363   8.587   6.753  10.312 -0.3026  1.7448  1.0978
  594MOL0     H78364   8.661   6.976  10.304 -0.1414 -3.1452 -3.2819
  594MOL0     H78365   8.824   6.946  10.361  0.2964  0.5511  1.4169
  594MOL0     H78366   8.663   7.051  10.538 -2.7772 -1.1791  4.1346
  594MOL0     H78367   8.572   6.899  10.531 -0.9839 -0.2402 -2.4959
  594MOL0     H78368   8.755   6.775  10.635 -4.0438 -0.6498 -2.2218
  594MOL0     H78369   8.727   6.927  10.717  0.5084  0.5714  1.0530
  594MOL0     H78370   9.118   7.025  10.541 -2.1540  1.6180  0.7586
  594MOL0     H78371   9.318   7.040  10.717  1.0596 -1.3731 -2.3693
  594MOL0     H78372   9.598   7.239  10.979  1.0314  1.1798  0.3446
  594MOL0     H78373   9.826   7.229  11.033  1.7074 -1.9390 -0.2253
  594MOL0     H78374  10.017   6.823  11.187  2.5553  0.1228  0.4902
  594MOL0     H78375   9.922   6.900  11.317  2.1055 -4.6063  0.1263
  594MOL0     H78376  10.136   6.898  11.402  4.3805 -1.0366 -0.6008
  594MOL0     H78377  10.114   7.066  11.325 -0.2045  1.0774 -3.6864
  594MOL0     H78378  10.230   7.001  11.137 -0.2020  0.7429  0.4162
  594MOL0     H78379  10.265   6.837  11.218 -0.8173 -0.2620  1.0859
  594MOL0     H78380  10.358   7.105  11.314  2.9275  1.0409  0.0306
  594MOL0     H78381  10.410   6.942  11.373  1.7984 -0.3649 -1.1597
  594MOL0     H78382  10.454   6.976  11.082 -0.2249 -1.2510  0.5850
  594MOL0     H78383  10.558   6.906  11.211  0.6039  0.6926 -1.3179
  594MOL0     H78384  10.590   7.143  11.291 -2.9972  1.4119 -0.1315
  594MOL0     H78385  10.501   7.193  11.160 -1.4061 -1.5118 -0.0246
  594MOL0     H78386  10.737   7.002  11.141  0.5499  1.5051  4.6283
  594MOL0     H78387  10.675   7.085  10.991 -1.2079 -1.5068  0.0725
  594MOL0     H78388  10.819   7.188  11.233 -1.1645 -2.0472 -0.5153
  594MOL0     H78389  10.754   7.314  11.130 -0.2245  0.7788 -1.9422
  594MOL0     H78390   9.788   6.799  11.117 -1.8559 -0.1126  0.6678
  594MOL0     H78391   9.567   6.812  10.998 -0.1396 -0.0453 -2.8335
  594MOL0     H78392   9.096   6.805  10.986 -0.2182  1.7229  0.4388
  594MOL0     H78393   8.911   6.803  10.827  0.5943 -1.4653  0.0095
  594MOL0     H78394  10.132   6.589   9.648 -2.4855 -1.9744 -1.6106
  594MOL0     H78395  10.306   6.720   9.563  0.2255  0.5306 -1.1339
  594MOL0     H78396  10.502   7.038   9.334 -1.5552  0.2711 -0.6113
  594MOL0     H78397  10.698   7.197   9.310 -1.7129 -0.2929 -2.1935
  594MOL0     H78398  10.887   7.353   9.339 -1.1560 -1.0932  1.9877
  594MOL0     H78399  10.879   7.520   9.359 -0.3412  0.8337 -0.2829
  594MOL0     H78400  10.871   7.483   9.137  2.0840  0.2803  3.0531
  594MOL0     H78401  10.720   7.378   9.140 -1.2814  0.7286 -1.4243
  594MOL0     H78402  10.715   7.647   9.283 -2.0834  1.2688 -0.3939
  594MOL0     H78403  10.587   7.576   9.199  0.5922 -1.4532  3.4835
  594MOL0     H78404  10.733   7.618   8.977 -0.2624 -1.0508  0.8845
  594MOL0     H78405  10.644   7.752   9.051  0.5092  1.2944  1.7257
  594MOL0     H78406  11.045   7.876   9.094  1.1896 -0.9461 -0.2676
  594MOL0     H78407  10.529   7.452   9.596  0.7402  0.4945 -0.5177
  594MOL0     H78408  10.327   7.290   9.620  0.5460  3.8304  0.0317
  595MOL0     O78409   9.891   4.751   2.526 -0.1878  0.4591 -0.3643
  595MOL0     C78410   9.983   4.675   2.491  0.0242  0.8270 -0.4445
  595MOL0     O78411   9.975   4.589   2.390  0.1996 -0.3803 -0.0293
  595MOL0     C78412   9.866   4.603   2.318  0.0227  0.2167  0.8617
  595MOL0     C78413   9.874   4.693   2.210 -0.4311 -0.8687 -0.3501
  595MOL0     C78414   9.763   4.693   2.119 -0.6714 -0.0512 -0.2669
  595MOL0     C78415   9.672   4.592   2.130  0.1549 -0.9154  0.1462
  595MOL0     O78416   9.561   4.573   2.045 -0.1879 -0.7695 -0.0136
  595MOL0     C78417   9.550   4.671   1.941 -0.5445  0.3280 -0.0097
  595MOL0     C78418   9.444   4.623   1.841  0.8025  0.4683 -0.7187
  595MOL0     C78419   9.371   4.719   1.749 -0.5352  0.3052 -0.5788
  595MOL0     C78420   9.343   4.857   1.809 -0.4318  0.6865 -0.4152
  595MOL0     C78421   9.266   4.942   1.707  0.5869 -0.0427 -0.2326
  595MOL0     C78422   9.125   4.913   1.729  0.2513  0.2000  0.1234
  595MOL0     C78423   9.040   5.006   1.639 -0.2329  0.5183 -0.6160
  595MOL0     C78424   8.899   4.947   1.618  0.8339 -0.1138 -0.7002
  595MOL0     N78425   8.791   5.036   1.571  0.6043 -0.6609 -0.7753
  595MOL0     C78426   8.653   5.006   1.547 -0.8648  0.8086  0.2174
  595MOL0     C78427   8.597   5.114   1.488 -0.2221  0.0691 -0.5569
  595MOL0     C78428   8.453   5.141   1.452  0.1053 -0.1942  0.0991
  595MOL0     C78429   8.427   5.074   1.315 -0.5340 -0.6135 -0.2782
  595MOL0     C78430   8.456   5.165   1.196  0.1725 -0.6232  0.0228
  595MOL0     C78431   8.358   5.143   1.074 -0.0022  0.6589 -0.0670
  595MOL0     O78432   8.397   5.237   0.974  0.5075  0.0755  0.5502
  595MOL0     C78433   8.352   5.244   0.845  0.7209 -0.2957  0.0980
  595MOL0     C78434   8.384   5.353   0.761 -0.8655  0.1854  0.0136
  595MOL0     C78435   8.325   5.362   0.636 -0.1094  0.3853  1.4270
  595MOL0     C78436   8.231   5.277   0.588 -0.0360  0.3879 -0.1627
  595MOL0     C78437   8.180   5.277   0.446  0.6724 -0.6238  0.4093
  595MOL0     O78438   8.109   5.169   0.408  0.8701  1.0266  0.4812
  595MOL0     C78439   8.053   5.154   0.282  0.1451  0.6909  0.5012
  595MOL0     C78440   8.095   5.054   0.188 -0.4572 -0.0156  0.1358
  595MOL0     C78441   8.037   5.040   0.057 -0.5163 -1.1056 -0.4920
  595MOL0     C78442   7.954   5.146   0.009 -0.1405  0.0340  0.0418
  595MOL0     O78443   7.896   5.151  -0.111 -0.2806 -0.4404  0.3965
  595MOL0     C78444   7.916   5.039  -0.194 -0.3474  0.7141 -0.3626
  595MOL0     C78445   7.804   5.025  -0.293 -0.0833 -0.4942  0.0988
  595MOL0     C78446   7.685   4.950  -0.225 -0.6101 -0.3994  0.0766
  595MOL0     C78447   7.578   4.908  -0.333  0.2767  0.0456 -0.6344
  595MOL0     C78448   7.472   5.022  -0.354  0.0646 -0.0805 -0.7248
  595MOL0     C78449   7.343   4.970  -0.427 -1.2400 -0.4121  0.2154
  595MOL0     C78450   7.234   5.071  -0.435  0.7743  0.5226  0.8718
  595MOL0     C78451   7.133   5.036  -0.544  0.6721 -0.5424 -0.4803
  595MOL0    Cl78452   7.203   5.048  -0.703  0.0541 -0.4943 -0.2535
  595MOL0     C78453   7.907   5.248   0.101  0.4116 -1.0285 -0.3550
  595MOL0     C78454   7.956   5.249   0.236  0.0733 -0.4932  0.1073
  595MOL0     O78455   8.205   5.378   0.373  0.4762 -0.2747  0.0086
  595MOL0     C78456   8.195   5.171   0.673 -0.4379  0.6265 -0.6420
  595MOL0     C78457   8.258   5.153   0.795  0.0519  0.1068 -0.4959
  595MOL0     N78458   8.692   5.210   1.487 -0.6050  0.0746 -0.1092
  595MOL0     N78459   8.805   5.162   1.523 -0.2582 -0.0098  0.4869
  595MOL0     C78460   9.673   4.496   2.234  0.3881 -0.5418 -0.5633
  595MOL0     C78461   9.764   4.504   2.335 -0.4260  0.5477  0.0796
  595MOL0     C78462  10.110   4.657   2.568  0.0994  0.4767  0.2000
  595MOL0     C78463  10.210   4.556   2.536  0.0882  0.3888  0.0901
  595MOL0     C78464  10.333   4.542   2.601 -0.3531 -0.8827 -0.3320
  595MOL0     C78465  10.363   4.627   2.718 -0.0831  0.8178 -0.0833
  595MOL0     O78466  10.479   4.623   2.788  0.6404 -0.0006  0.1781
  595MOL0     C78467  10.538   4.497   2.813  1.1627  0.6752  0.1435
  595MOL0     C78468  10.441   4.387   2.870  0.3586 -0.3524  0.0812
  595MOL0     C78469  10.521   4.261   2.885 -0.1327 -0.3718 -0.1191
  595MOL0     C78470  10.594   4.257   3.021 -0.9506 -0.1272 -0.6135
  595MOL0     C78471  10.498   4.234   3.128 -0.4819  0.0585  0.4868
  595MOL0     C78472  10.423   4.202   3.217 -0.4110  0.5534 -0.4423
  595MOL0     C78473  10.266   4.717   2.751 -0.1072 -0.4212 -0.4178
  595MOL0     C78474  10.148   4.731   2.677  0.7544 -0.3269  0.0192
  595MOL0     H78475   9.945   4.774   2.220 -0.7265 -0.6024 -0.3940
  595MOL0     H78476   9.755   4.758   2.033 -1.2620 -2.0274 -1.7729
  595MOL0     H78477   9.646   4.673   1.889 -1.0241 -1.3966 -1.0546
  595MOL0     H78478   9.522   4.765   1.990  0.0444  1.0685 -1.0448
  595MOL0     H78479   9.365   4.569   1.895  0.2730 -0.4534 -2.3412
  595MOL0     H78480   9.493   4.546   1.781  2.7845 -1.1723  2.7136
  595MOL0     H78481   9.278   4.678   1.711  0.1009 -0.2423 -1.5752
  595MOL0     H78482   9.440   4.730   1.665  0.9096  0.8934  0.6291
  595MOL0     H78483   9.287   4.845   1.902 -1.7644  0.8019 -1.1776
  595MOL0     H78484   9.440   4.897   1.840  1.4252 -1.6922 -2.6622
  595MOL0     H78485   9.286   4.917   1.603 -2.1323  0.5327 -0.9855
  595MOL0     H78486   9.285   5.048   1.727 -0.4780  0.1355 -0.0968
  595MOL0     H78487   9.110   4.930   1.836 -0.4815 -1.1841  0.2695
  595MOL0     H78488   9.099   4.812   1.696 -1.2251  0.9741 -1.1989
  595MOL0     H78489   9.025   5.108   1.675 -1.3366  0.7767 -1.7263
  595MOL0     H78490   9.088   5.015   1.541  2.4996  2.3968  0.7767
  595MOL0     H78491   8.870   4.907   1.715  2.2170 -2.6565 -1.2339
  595MOL0     H78492   8.900   4.860   1.551  2.6452  1.2730 -2.6409
  595MOL0     H78493   8.597   4.913   1.558 -1.2046  1.3020  3.9836
  595MOL0     H78494   8.430   5.248   1.455 -1.1565 -0.4753  1.4141
  595MOL0     H78495   8.395   5.087   1.527  0.2516 -1.6275 -0.7809
  595MOL0     H78496   8.323   5.040   1.313 -0.6323 -0.3233 -0.1339
  595MOL0     H78497   8.481   4.979   1.304 -1.6659 -1.0121 -3.9157
  595MOL0     H78498   8.450   5.271   1.220 -0.2793 -1.0430  1.9229
  595MOL0     H78499   8.559   5.153   1.161  0.1316 -1.8600  0.2769
  595MOL0     H78500   8.253   5.148   1.107  0.6977  0.9846  2.3037
  595MOL0     H78501   8.375   5.040   1.044  0.7967  0.3807  1.2719
  595MOL0     H78502   8.459   5.422   0.799 -1.7454  0.4446  1.3335
  595MOL0     H78503   8.359   5.436   0.565  1.0746 -1.9372 -0.5845
  595MOL0     H78504   8.157   4.969   0.216 -1.1052 -0.8714 -0.9439
  595MOL0     H78505   8.064   4.951   0.001  2.7463  0.0855 -1.0045
  595MOL0     H78506   7.921   4.942  -0.145 -0.2012 -0.1454 -1.9930
  595MOL0     H78507   8.018   5.049  -0.233 -0.2008 -1.0565 -0.5269
  595MOL0     H78508   7.833   4.970  -0.383 -0.1578  0.3873 -0.4745
  595MOL0     H78509   7.764   5.122  -0.325  4.2414  1.7933  0.7686
  595MOL0     H78510   7.647   5.010  -0.142 -1.1096  0.3805 -0.7041
  595MOL0     H78511   7.723   4.856  -0.182 -2.3214 -0.4833  1.5169
  595MOL0     H78512   7.633   4.878  -0.423  0.5492 -2.5310  0.2900
  595MOL0     H78513   7.518   4.824  -0.297 -1.0289  0.9748 -0.5987
  595MOL0     H78514   7.508   5.114  -0.402  0.3879  1.0446  1.5419
  595MOL0     H78515   7.440   5.070  -0.261 -3.1635  1.2315 -2.3378
  595MOL0     H78516   7.310   4.875  -0.383  0.7438 -0.2031  2.3241
  595MOL0     H78517   7.365   4.941  -0.530  0.8299  0.9676  0.2095
  595MOL0     H78518   7.172   5.073  -0.345 -2.8941 -0.6713 -1.3928
  595MOL0     H78519   7.245   5.180  -0.444 -5.9737  1.7141  1.8938
  595MOL0     H78520   7.044   5.099  -0.533  0.7004 -0.8417  1.8038
  595MOL0     H78521   7.099   4.933  -0.538 -0.2143 -0.3968 -2.3202
  595MOL0     H78522   7.839   5.325   0.066  3.5394  0.9279 -2.6625
  595MOL0     H78523   7.925   5.328   0.303  0.3020  0.3513 -0.7606
  595MOL0     H78524   8.116   5.105   0.638  0.4007  0.2566 -1.8798
  595MOL0     H78525   8.221   5.077   0.863  1.9848  1.5975  2.4307
  595MOL0     H78526   9.596   4.419   2.238  1.1273 -1.2762 -0.1129
  595MOL0     H78527   9.766   4.428   2.412  1.7811 -0.5719 -0.9752
  595MOL0     H78528  10.193   4.487   2.455 -3.2221 -1.1963  1.9504
  595MOL0     H78529  10.406   4.480   2.551  1.1614  2.9091 -3.3103
  595MOL0     H78530  10.628   4.502   2.876  1.8138 -0.5084 -0.6508
  595MOL0     H78531  10.581   4.470   2.716  0.7185  0.0330  0.1239
  595MOL0     H78532  10.396   4.413   2.966  2.4701  0.3904  0.9238
  595MOL0     H78533  10.356   4.366   2.803  0.0250  0.5649  0.1995
  595MOL0     H78534  10.582   4.253   2.795  1.5894 -3.0910  1.1559
  595MOL0     H78535  10.448   4.180   2.885 -1.1629  0.5240  0.5442
  595MOL0     H78536  10.661   4.171   3.012  3.1792  2.9245 -2.2149
  595MOL0     H78537  10.654   4.348   3.031  0.4172 -0.9590 -1.0128
  595MOL0     H78538  10.352   4.154   3.282  0.5165 -0.7165 -0.3348
  595MOL0     H78539  10.285   4.780   2.837 -1.7163  1.3540 -1.2881
  595MOL0     H78540  10.063   4.792   2.706 -0.4476 -1.0844 -1.6817
  596MOL0     O78541  10.389   9.335   5.862 -0.5145 -0.0144 -0.7737
  596MOL0     C78542  10.272   9.348   5.835 -0.3974 -0.0976 -1.0424
  596MOL0     O78543  10.221   9.365   5.712 -0.5043 -0.3533  0.5215
  596MOL0     C78544  10.315   9.356   5.615 -0.0472 -0.3513 -0.6815
  596MOL0     C78545  10.353   9.231   5.574 -0.3076  0.3605  0.8188
  596MOL0     C78546  10.432   9.213   5.467 -0.0043  0.1855 -0.5320
  596MOL0     C78547  10.473   9.323   5.388  0.2515  0.6261  0.1014
  596MOL0     O78548  10.556   9.320   5.285 -0.0019 -0.7314  0.2879
  596MOL0     C78549  10.604   9.198   5.234 -0.3716 -0.1596 -0.6425
  596MOL0     C78550  10.651   9.224   5.092 -0.2519 -0.1878  0.2396
  596MOL0     C78551  10.525   9.204   4.995  0.3133  0.2286 -0.0090
  596MOL0     C78552  10.424   9.315   5.001 -0.0071  0.0587 -0.1050
  596MOL0     C78553  10.296   9.285   4.920  0.2555  0.1501  0.1999
  596MOL0     C78554  10.197   9.207   5.014  0.4355  0.2376  0.5077
  596MOL0     C78555  10.072   9.141   4.953 -0.3326  0.2680  0.8076
  596MOL0     C78556  10.096   9.058   4.825  0.2333 -0.5620 -0.9186
  596MOL0     N78557   9.981   8.972   4.789 -0.2060  0.1731 -0.5010
  596MOL0     C78558   9.856   9.029   4.761 -0.3809 -0.0823  0.0355
  596MOL0     C78559   9.791   8.925   4.692  0.1506 -1.1661 -1.0613
  596MOL0     C78560   9.644   8.908   4.650 -0.8683  0.7996 -0.5555
  596MOL0     C78561   9.608   8.758   4.640 -0.3128 -0.2804  0.4072
  596MOL0     C78562   9.471   8.742   4.586 -0.5602  0.4534 -0.0199
  596MOL0     C78563   9.461   8.744   4.427  0.1227  0.4177  0.4844
  596MOL0     O78564   9.375   8.641   4.384  0.1324  0.4103  0.3489
  596MOL0     C78565   9.257   8.682   4.340  1.2532  0.6844 -0.4652
  596MOL0     C78566   9.180   8.766   4.419  0.0137  0.4466 -0.4706
  596MOL0     C78567   9.062   8.814   4.375 -0.3150 -0.0923 -0.0347
  596MOL0     C78568   9.014   8.767   4.257  0.3097  0.5397  0.5679
  596MOL0     C78569   8.889   8.823   4.206 -0.0301  0.9493  0.5245
  596MOL0     O78570   8.818   8.900   4.287  0.2425 -0.2067  0.0610
  596MOL0     C78571   8.695   8.951   4.249 -0.0936  0.8533  0.2809
  596MOL0     C78572   8.662   9.080   4.258  0.7162 -0.6926  0.1920
  596MOL0     C78573   8.543   9.132   4.200 -0.5088  0.7721  0.0779
  596MOL0     C78574   8.455   9.049   4.122 -0.5405 -0.0709 -0.5433
  596MOL0     O78575   8.346   9.109   4.059 -0.0002  0.6559 -0.0254
  596MOL0     C78576   8.234   9.025   4.009 -0.6345  0.5390  0.5292
  596MOL0     C78577   8.131   9.023   4.115  0.9307  0.3818  0.4608
  596MOL0     C78578   7.997   8.966   4.068  0.9423 -0.4687 -0.0604
  596MOL0     C78579   7.900   8.970   4.188 -0.1090 -0.0961 -0.1395
  596MOL0     C78580   7.771   8.903   4.154  0.3415 -0.0670 -0.5440
  596MOL0     C78581   7.664   8.943   4.260  0.6610 -0.1616  0.0639
  596MOL0     C78582   7.556   8.835   4.258  0.2102  0.1079  0.2850
  596MOL0     C78583   7.416   8.875   4.312  0.1286  0.2753 -0.1233
  596MOL0    Cl78584   7.438   8.900   4.495  0.2689  0.0849 -0.0257
  596MOL0     C78585   8.490   8.914   4.116  0.4586  0.2858 -0.1776
  596MOL0     C78586   8.602   8.865   4.190 -0.1957  0.1691 -1.3923
  596MOL0     O78587   8.863   8.791   4.084 -0.0796 -0.8460 -1.1510
  596MOL0     C78588   9.080   8.669   4.179 -0.1762 -0.4906  0.3913
  596MOL0     C78589   9.207   8.621   4.226  0.5084  0.2516 -0.1428
  596MOL0     N78590   9.875   8.819   4.691  0.9342 -0.6771 -0.7099
  596MOL0     N78591   9.986   8.846   4.748  0.0758 -0.3457  0.2104
  596MOL0     C78592  10.446   9.444   5.439 -0.0997 -0.7402  0.5671
  596MOL0     C78593  10.376   9.465   5.554  0.4385 -0.3874  0.0234
  596MOL0     C78594  10.179   9.331   5.959 -0.5861  0.1988  0.9763
  596MOL0     C78595  10.204   9.350   6.096  0.5163 -0.5495 -0.9446
  596MOL0     C78596  10.100   9.324   6.185 -0.0143  0.4549  1.0824
  596MOL0     C78597   9.975   9.285   6.147 -0.2708 -0.0814 -0.0156
  596MOL0     O78598   9.866   9.277   6.236  0.1055  0.0591  0.1610
  596MOL0     C78599   9.807   9.409   6.258 -0.2372 -0.0038 -0.7608
  596MOL0     C78600   9.690   9.439   6.159 -0.0808  0.0823  0.2257
  596MOL0     C78601   9.581   9.331   6.157 -0.3651 -0.2733 -0.2045
  596MOL0     C78602   9.482   9.347   6.042 -0.2256 -1.0141 -0.8213
  596MOL0     C78603   9.551   9.332   5.912  0.6348 -0.1392 -0.5536
  596MOL0     C78604   9.631   9.331   5.820  0.4580 -0.0160 -0.2157
  596MOL0     C78605   9.949   9.258   6.015  0.2131  0.1743  0.2347
  596MOL0     C78606  10.049   9.288   5.919  1.0562  0.1133 -0.0066
  596MOL0     H78607  10.298   9.151   5.622  1.6562 -0.0908  2.4842
  596MOL0     H78608  10.455   9.113   5.434 -0.3823  0.0501 -0.3938
  596MOL0     H78609  10.517   9.133   5.218 -2.6885  3.2175 -3.3201
  596MOL0     H78610  10.681   9.162   5.302 -1.3252  0.1801  0.6428
  596MOL0     H78611  10.720   9.142   5.073 -0.6527 -0.5537  0.3468
  596MOL0     H78612  10.711   9.315   5.079  3.4619 -2.4296  0.2949
  596MOL0     H78613  10.471   9.111   5.009  0.8778 -0.2680 -1.0075
  596MOL0     H78614  10.556   9.195   4.890 -0.8441 -1.5407 -0.2358
  596MOL0     H78615  10.402   9.332   5.107  1.3220  0.0743  0.1941
  596MOL0     H78616  10.475   9.401   4.957 -4.0965  0.5669 -4.5869
  596MOL0     H78617  10.315   9.225   4.830  2.9152 -1.8133  1.9148
  596MOL0     H78618  10.241   9.371   4.882 -2.6140 -1.6817 -0.1396
  596MOL0     H78619  10.165   9.268   5.099 -0.5917  0.8271 -0.2691
  596MOL0     H78620  10.251   9.120   5.051  0.8233 -0.2541 -1.1338
  596MOL0     H78621  10.026   9.067   5.020  2.4649 -2.4591 -0.0276
  596MOL0     H78622   9.999   9.217   4.922 -0.7658 -0.3603  0.2307
  596MOL0     H78623  10.186   9.005   4.855 -0.3626 -1.0252  0.1288
  596MOL0     H78624  10.103   9.123   4.738 -0.9978 -1.6329 -1.8641
  596MOL0     H78625   9.806   9.124   4.778  0.1866 -0.1158  2.1934
  596MOL0     H78626   9.628   8.948   4.549 -2.1296 -1.9507 -1.5363
  596MOL0     H78627   9.583   8.958   4.726 -0.9398  0.1436 -0.1732
  596MOL0     H78628   9.620   8.706   4.736 -0.0221 -2.3419 -0.6906
  596MOL0     H78629   9.679   8.706   4.576  1.0369 -1.2198  2.5505
  596MOL0     H78630   9.426   8.658   4.640  0.1298  0.2791  0.2871
  596MOL0     H78631   9.407   8.825   4.618 -0.7770  0.6268 -0.8694
  596MOL0     H78632   9.557   8.717   4.382  0.1896  1.0704  0.2198
  596MOL0     H78633   9.448   8.845   4.386 -0.1981 -0.6896 -2.3655
  596MOL0     H78634   9.214   8.791   4.519 -1.8684 -0.3217  0.4183
  596MOL0     H78635   8.995   8.882   4.426  0.0920 -1.7671  2.9968
  596MOL0     H78636   8.726   9.155   4.304 -2.1063  2.0868 -0.0030
  596MOL0     H78637   8.527   9.239   4.208 -2.7811  0.4239  1.1538
  596MOL0     H78638   8.260   8.921   3.987  2.1234  0.4920  3.3292
  596MOL0     H78639   8.191   9.066   3.918  0.2985  0.3790  0.0069
  596MOL0     H78640   8.108   9.128   4.138 -1.1958  0.2174 -0.6886
  596MOL0     H78641   8.166   8.974   4.206 -0.1965  0.3597  0.9043
  596MOL0     H78642   8.002   8.872   4.014 -0.5636 -0.3653 -0.4323
  596MOL0     H78643   7.947   9.039   4.004 -0.2268 -1.3986 -0.2269
  596MOL0     H78644   7.945   8.908   4.266 -0.0263 -0.9444 -0.8520
  596MOL0     H78645   7.887   9.073   4.224 -1.1806  0.2900 -1.5683
  596MOL0     H78646   7.792   8.796   4.151  2.4857  0.3282 -0.9531
  596MOL0     H78647   7.738   8.930   4.053  0.7134  1.6608 -0.2381
  596MOL0     H78648   7.614   9.034   4.225  2.0104  0.7324  0.4070
  596MOL0     H78649   7.711   8.953   4.358  2.1879  0.8840 -0.7355
  596MOL0     H78650   7.540   8.797   4.156 -0.6547 -1.5570  0.9931
  596MOL0     H78651   7.581   8.753   4.326 -0.2792  1.0207  1.6176
  596MOL0     H78652   7.349   8.790   4.297  0.9629 -0.4580  0.2076
  596MOL0     H78653   7.376   8.969   4.272  3.0939  0.7350 -2.2755
  596MOL0     H78654   8.434   8.839   4.061  1.2563 -0.7756  0.4287
  596MOL0     H78655   8.640   8.765   4.171 -1.9018 -0.2673 -2.7704
  596MOL0     H78656   9.042   8.635   4.083 -1.0372 -0.2440  0.6398
  596MOL0     H78657   9.279   8.560   4.172 -1.1035 -1.3374 -0.6144
  596MOL0     H78658  10.495   9.523   5.382 -1.5320  0.7136  1.2917
  596MOL0     H78659  10.370   9.566   5.595  1.3445  0.0593 -0.8916
  596MOL0     H78660  10.295   9.383   6.147 -1.4777 -0.5150  2.9888
  596MOL0     H78661  10.138   9.330   6.286  2.2162 -0.4984  0.3437
  596MOL0     H78662   9.882   9.488   6.249 -1.5175  0.9842 -4.7335
  596MOL0     H78663   9.762   9.406   6.358  2.9043 -1.1530  0.7562
  596MOL0     H78664   9.649   9.536   6.189 -1.2231 -0.6452  1.0924
  596MOL0     H78665   9.724   9.446   6.055  3.2260 -1.2238  1.0736
  596MOL0     H78666   9.515   9.332   6.244 -0.3412  0.9143 -0.1841
  596MOL0     H78667   9.624   9.231   6.153 -0.8584 -0.4422 -1.7043
  596MOL0     H78668   9.399   9.277   6.053 -0.0338 -1.3944 -1.7027
  596MOL0     H78669   9.438   9.447   6.042  1.6348 -0.0841 -2.8374
  596MOL0     H78670   9.701   9.321   5.739  0.5391 -0.0833 -0.1369
  596MOL0     H78671   9.857   9.209   5.985  0.4101 -2.2398  3.1102
  596MOL0     H78672  10.025   9.273   5.815 -2.6649  0.3958  0.6906
  597MOL0     O78673   6.395   3.613   0.767 -0.0800 -0.0212  0.0083
  597MOL0     C78674   6.486   3.619   0.680 -0.1928  0.8029 -0.0964
  597MOL0     O78675   6.479   3.688   0.564 -0.2021  0.2476  0.0224
  597MOL0     C78676   6.365   3.752   0.532 -0.1826 -0.2308  0.5401
  597MOL0     C78677   6.239   3.680   0.536  0.2567 -0.4648  0.0832
  597MOL0     C78678   6.125   3.742   0.486  0.6433  0.0896 -0.2562
  597MOL0     C78679   6.126   3.877   0.450 -0.9883  0.3266  0.4240
  597MOL0     O78680   6.010   3.927   0.394  0.1011 -0.1985 -0.0740
  597MOL0     C78681   5.970   4.065   0.421 -0.2515  0.8298  0.0889
  597MOL0     C78682   5.870   4.121   0.325 -0.2549 -0.5126  0.6727
  597MOL0     C78683   5.727   4.062   0.336 -0.5360  0.2698 -0.0725
  597MOL0     C78684   5.629   4.146   0.255 -0.2253 -0.3042 -0.2767
  597MOL0     C78685   5.480   4.108   0.283 -0.2579  0.2303 -0.7451
  597MOL0     C78686   5.372   4.177   0.207  0.1828 -0.7002 -0.1139
  597MOL0     C78687   5.227   4.142   0.266 -0.4447 -0.1728  0.1405
  597MOL0     C78688   5.192   4.207   0.393 -0.3068  0.0203 -0.2170
  597MOL0     N78689   5.050   4.193   0.420 -0.2933 -0.1568  0.2554
  597MOL0     C78690   4.949   4.262   0.354 -0.2605 -0.6749 -0.9701
  597MOL0     C78691   4.831   4.230   0.411 -0.2912  0.2459 -0.4591
  597MOL0     C78692   4.704   4.302   0.380 -0.7320 -0.2194  0.1376
  597MOL0     C78693   4.583   4.219   0.427  0.2257 -0.1592 -0.9721
  597MOL0     C78694   4.449   4.264   0.388  0.7949 -1.2916  0.4933
  597MOL0     C78695   4.335   4.168   0.425 -0.3502  0.1893  0.0147
  597MOL0     O78696   4.325   4.065   0.320 -0.0206  0.6432 -0.5851
  597MOL0     C78697   4.198   4.015   0.299 -0.6180  0.3984  0.2770
  597MOL0     C78698   4.079   4.027   0.379  0.2055  0.3629 -0.3464
  597MOL0     C78699   3.969   3.959   0.335  0.7840  0.2911  0.0672
  597MOL0     C78700   3.958   3.898   0.214 -0.3865  1.0803  0.7672
  597MOL0     C78701   3.827   3.826   0.172 -0.2948  0.2925 -0.6013
  597MOL0     O78702   3.724   3.818   0.272 -0.0061 -0.4471  0.0022
  597MOL0     C78703   3.607   3.760   0.228 -0.1998 -0.8679  0.0240
  597MOL0     C78704   3.529   3.819   0.127 -0.1690 -0.4835 -0.0027
  597MOL0     C78705   3.408   3.764   0.098  0.1274  0.4717 -0.0798
  597MOL0     C78706   3.349   3.662   0.164 -0.2826  0.1633  0.7465
  597MOL0     O78707   3.218   3.631   0.132 -0.2640 -0.6920  0.2284
  597MOL0     C78708   3.150   3.528   0.197 -0.1536 -0.2193  0.7196
  597MOL0     C78709   3.007   3.514   0.141  0.2670 -0.1493 -0.4172
  597MOL0     C78710   2.935   3.390   0.189  0.3313 -0.0813 -0.1933
  597MOL0     C78711   2.802   3.362   0.130  0.1516  0.9720  0.0468
  597MOL0     C78712   2.711   3.266   0.212  0.6734  1.8615 -0.3346
  597MOL0     C78713   2.660   3.328   0.347  0.3315  1.1450 -0.2331
  597MOL0     C78714   2.542   3.254   0.406  1.0041  0.5660  0.3829
  597MOL0     C78715   2.407   3.317   0.350  0.1915 -0.4819 -0.7389
  597MOL0    Cl78716   2.271   3.244   0.432  0.1157 -0.1217  0.5614
  597MOL0     C78717   3.425   3.608   0.268  0.1252  0.5142 -0.1666
  597MOL0     C78718   3.546   3.668   0.305 -0.2831  1.0169 -0.3549
  597MOL0     O78719   3.829   3.771   0.063 -0.5596  0.0041 -0.1291
  597MOL0     C78720   4.069   3.898   0.126  0.1186  0.0505 -0.2904
  597MOL0     C78721   4.189   3.953   0.177  0.8212 -0.1063 -0.0024
  597MOL0     N78722   4.863   4.145   0.512 -0.6002 -0.3780 -0.1932
  597MOL0     N78723   4.989   4.140   0.532 -0.5882 -0.6617 -0.3995
  597MOL0     C78724   6.242   3.950   0.448 -1.0280 -0.0868 -0.6133
  597MOL0     C78725   6.365   3.878   0.482 -0.5677 -0.3807 -0.3858
  597MOL0     C78726   6.605   3.532   0.695  0.4344 -0.7563  0.1001
  597MOL0     C78727   6.701   3.520   0.588 -0.3936 -1.0891  0.8391
  597MOL0     C78728   6.811   3.435   0.606  0.3391  0.1837 -0.1455
  597MOL0     C78729   6.826   3.359   0.726 -0.2826  0.1937  0.2757
  597MOL0     O78730   6.923   3.264   0.727  0.2662 -0.7644  0.0874
  597MOL0     C78731   6.920   3.159   0.824 -0.2336  0.6653  0.2716
  597MOL0     C78732   7.056   3.096   0.834  0.1970  0.3877  0.4715
  597MOL0     C78733   7.165   3.197   0.887  0.0355  0.1728  0.2087
  597MOL0     C78734   7.236   3.265   0.770 -0.3091 -0.0906  0.7404
  597MOL0     C78735   7.304   3.170   0.682  0.2277  0.2749 -0.1505
  597MOL0     C78736   7.363   3.087   0.618 -0.3269 -0.2852 -0.1479
  597MOL0     C78737   6.725   3.366   0.819  0.2768 -0.2364 -0.6940
  597MOL0     C78738   6.620   3.454   0.805  0.4976 -0.1832 -0.1676
  597MOL0     H78739   6.237   3.579   0.575 -0.4309 -0.2720  0.5747
  597MOL0     H78740   6.033   3.685   0.475  0.7685 -0.2276  0.3061
  597MOL0     H78741   6.059   4.127   0.430  1.9202 -2.1032  0.1758
  597MOL0     H78742   5.914   4.066   0.514 -0.6800 -0.7458 -0.1181
  597MOL0     H78743   5.889   4.101   0.219  0.3763 -1.0552  0.8808
  597MOL0     H78744   5.851   4.225   0.350 -2.1588 -0.3151 -1.3025
  597MOL0     H78745   5.703   4.068   0.442  0.1772  3.7558  0.0042
  597MOL0     H78746   5.725   3.957   0.303  0.8398  0.7233 -1.7737
  597MOL0     H78747   5.647   4.250   0.280  0.6367 -0.3210 -0.8168
  597MOL0     H78748   5.649   4.122   0.150 -1.5340 -1.5702 -0.2850
  597MOL0     H78749   5.469   4.118   0.392 -0.1342 -0.0432 -0.7063
  597MOL0     H78750   5.474   4.001   0.262  4.5114 -0.6728  1.0566
  597MOL0     H78751   5.382   4.155   0.100  1.1613  0.6539 -0.3373
  597MOL0     H78752   5.391   4.285   0.214  1.2485 -0.9245  0.7679
  597MOL0     H78753   5.157   4.167   0.186 -0.4453 -1.2911 -0.2241
  597MOL0     H78754   5.228   4.034   0.283  0.5050 -0.1865  0.0618
  597MOL0     H78755   5.226   4.310   0.375 -0.6429 -0.0777 -1.5032
  597MOL0     H78756   5.246   4.183   0.485  2.8156  0.5255 -1.7801
  597MOL0     H78757   4.970   4.326   0.268  4.1432 -0.5615 -0.0372
  597MOL0     H78758   4.693   4.322   0.273 -2.2683 -1.3253  0.0570
  597MOL0     H78759   4.696   4.406   0.414 -2.8397 -0.8341  1.7259
  597MOL0     H78760   4.584   4.208   0.535 -0.3479  0.9261 -0.8545
  597MOL0     H78761   4.596   4.116   0.390 -0.7812 -1.5272  2.1545
  597MOL0     H78762   4.448   4.360   0.441  1.8008 -1.1310  0.2463
  597MOL0     H78763   4.442   4.279   0.280  0.6569 -4.6926 -0.1003
  597MOL0     H78764   4.244   4.227   0.416 -1.0632 -0.9909 -0.8983
  597MOL0     H78765   4.342   4.118   0.522 -0.6668  1.9515  0.9691
  597MOL0     H78766   4.091   4.074   0.477  2.1138 -1.1248  0.2048
  597MOL0     H78767   3.890   3.947   0.409  1.6325 -2.1157  0.7005
  597MOL0     H78768   3.557   3.909   0.073 -2.0404  0.7062  0.8978
  597MOL0     H78769   3.348   3.819   0.027 -2.1455  0.3185  1.5809
  597MOL0     H78770   3.125   3.556   0.300  0.4244 -0.7317  1.0068
  597MOL0     H78771   3.198   3.430   0.192  2.0029  0.6805  2.2528
  597MOL0     H78772   3.022   3.493   0.034  1.0091  0.2861 -0.4073
  597MOL0     H78773   2.945   3.604   0.146  0.9429  0.2514  1.1813
  597MOL0     H78774   2.920   3.389   0.297  1.2608 -0.6704 -0.0634
  597MOL0     H78775   3.007   3.311   0.165  2.2785  1.3350  0.7265
  597MOL0     H78776   2.739   3.451   0.140 -2.4942 -0.2492 -3.6027
  597MOL0     H78777   2.807   3.326   0.027  1.5433 -0.9663  0.7402
  597MOL0     H78778   2.767   3.172   0.219 -0.2166  1.3163 -0.3409
  597MOL0     H78779   2.624   3.238   0.153 -0.3803  1.5137  1.3326
  597MOL0     H78780   2.637   3.435   0.336 -1.6202  0.7957  0.0046
  597MOL0     H78781   2.731   3.319   0.430  1.1173  3.8981 -0.5079
  597MOL0     H78782   2.553   3.149   0.378  1.0238  0.5668  0.3881
  597MOL0     H78783   2.546   3.262   0.515  4.6417  2.3797  0.2997
  597MOL0     H78784   2.392   3.306   0.242 -1.1102  2.7076 -0.9932
  597MOL0     H78785   2.396   3.424   0.371 -4.2947 -0.8303 -0.4613
  597MOL0     H78786   3.391   3.523   0.325 -0.9392  0.6598 -0.5579
  597MOL0     H78787   3.606   3.621   0.381  0.9547 -1.1759 -2.5315
  597MOL0     H78788   4.070   3.844   0.032 -1.3822 -0.7154  0.1002
  597MOL0     H78789   4.271   3.953   0.106  1.7995 -0.1270  1.0902
  597MOL0     H78790   6.260   4.054   0.426  3.7481 -0.0990  2.0065
  597MOL0     H78791   6.456   3.932   0.460  1.4967 -3.4380  0.0265
  597MOL0     H78792   6.690   3.574   0.494  0.8165 -0.6944  0.9195
  597MOL0     H78793   6.880   3.422   0.523 -1.0782 -2.6175 -1.0335
  597MOL0     H78794   6.849   3.077   0.809  2.7491 -2.2188  0.8609
  597MOL0     H78795   6.899   3.196   0.925 -1.0294 -2.4694  1.3790
  597MOL0     H78796   7.039   3.020   0.911 -3.4868 -0.0339 -0.5685
  597MOL0     H78797   7.069   3.057   0.733  0.4023  1.7832 -0.0565
  597MOL0     H78798   7.232   3.136   0.948 -0.1107 -0.6678 -0.4396
  597MOL0     H78799   7.110   3.274   0.941  0.9407  1.3275 -0.4806
  597MOL0     H78800   7.168   3.332   0.717  0.0700  1.6922  2.4190
  597MOL0     H78801   7.317   3.325   0.812  1.3090 -1.1260 -0.7523
  597MOL0     H78802   7.418   3.020   0.554  1.3925  0.7132  0.2499
  597MOL0     H78803   6.732   3.303   0.907  0.6384 -1.9885 -1.9440
  597MOL0     H78804   6.539   3.455   0.878 -1.0178  0.9294 -1.7523
  598MOL0     O78805   7.213   6.430   8.281  0.2513 -0.0619 -0.3033
  598MOL0     C78806   7.117   6.413   8.200  0.4932  0.2698  0.1301
  598MOL0     O78807   7.094   6.295   8.132  0.3607 -0.7613  0.4573
  598MOL0     C78808   7.176   6.195   8.161 -0.0375 -0.3284  0.0986
  598MOL0     C78809   7.179   6.129   8.287  0.1344 -0.5608 -0.1463
  598MOL0     C78810   7.266   6.021   8.314  0.2441 -0.2508 -0.2295
  598MOL0     C78811   7.347   5.975   8.218  0.0278 -0.3317 -0.2957
  598MOL0     O78812   7.420   5.859   8.240 -0.3631 -0.5575 -0.0709
  598MOL0     C78813   7.424   5.774   8.128  0.4170  0.4826  0.3755
  598MOL0     C78814   7.486   5.640   8.160  0.2208  0.5932 -0.3189
  598MOL0     C78815   7.517   5.552   8.036  0.1296 -0.2564 -1.1542
  598MOL0     C78816   7.391   5.523   7.955 -0.5299  0.8015 -0.2526
  598MOL0     C78817   7.418   5.439   7.826  0.3235 -0.8169  0.4898
  598MOL0     C78818   7.521   5.322   7.834 -0.3445 -0.0508 -0.1517
  598MOL0     C78819   7.515   5.236   7.705  0.0320  1.2480 -0.3204
  598MOL0     C78820   7.410   5.127   7.714 -0.1386 -0.3229 -0.4217
  598MOL0     N78821   7.397   5.051   7.598 -0.5335  0.1678  0.5829
  598MOL0     C78822   7.311   4.947   7.582  0.7672 -0.4772  0.7749
  598MOL0     C78823   7.332   4.896   7.454  0.1034 -1.0315 -0.7384
  598MOL0     C78824   7.258   4.782   7.403  1.1532  0.5717  0.0894
  598MOL0     C78825   7.147   4.824   7.307  0.0118 -0.2890 -0.5984
  598MOL0     C78826   7.019   4.893   7.372  0.5556 -0.3235 -0.6673
  598MOL0     C78827   6.937   4.975   7.272  0.4832  0.1315 -0.2800
  598MOL0     O78828   6.854   4.907   7.175 -0.2890 -0.1084  0.0732
  598MOL0     C78829   6.776   4.980   7.095 -1.0513 -1.1200 -0.6124
  598MOL0     C78830   6.685   4.906   7.021 -0.1221  0.4686  0.3850
  598MOL0     C78831   6.601   4.956   6.924  0.6254 -0.0399 -0.2977
  598MOL0     C78832   6.590   5.097   6.927  0.1991 -1.0250 -0.2860
  598MOL0     C78833   6.487   5.155   6.832  0.1760 -0.1133  1.6864
  598MOL0     O78834   6.428   5.077   6.741  0.1602  0.5544  0.5713
  598MOL0     C78835   6.312   5.112   6.677 -0.9620  0.0724 -0.3358
  598MOL0     C78836   6.201   5.182   6.725  0.9731 -1.0599 -0.4682
  598MOL0     C78837   6.085   5.207   6.644  0.2874 -0.2221 -0.4056
  598MOL0     C78838   6.079   5.162   6.515 -0.2429  0.5813 -0.7001
  598MOL0     O78839   5.969   5.176   6.438  0.5050  0.0993 -0.0558
  598MOL0     C78840   5.856   5.239   6.500 -0.3898  0.0790  0.3999
  598MOL0     C78841   5.740   5.233   6.403 -0.6078  0.8484 -0.4757
  598MOL0     C78842   5.702   5.089   6.379  0.3141 -0.6871 -0.9701
  598MOL0     C78843   5.568   5.077   6.314  0.1719  0.5465 -0.8777
  598MOL0     C78844   5.514   4.933   6.300 -0.6193 -1.0152  0.1832
  598MOL0     C78845   5.394   4.934   6.209 -0.4339 -0.1864 -0.4236
  598MOL0     C78846   5.340   4.797   6.182  0.4966 -0.2364 -0.1726
  598MOL0     C78847   5.257   4.729   6.297 -0.3423  0.2702 -0.1340
  598MOL0    Cl78848   5.127   4.823   6.366 -0.1604  0.1619 -0.6899
  598MOL0     C78849   6.182   5.088   6.460 -0.7355  0.0346 -1.1312
  598MOL0     C78850   6.300   5.063   6.546  0.4686 -0.2056  0.6356
  598MOL0     O78851   6.460   5.274   6.845  0.7813 -0.1936  0.3114
  598MOL0     C78852   6.673   5.177   7.009  0.2928 -0.0711 -0.7220
  598MOL0     C78853   6.764   5.119   7.095  0.2195 -0.0504  0.7252
  598MOL0     N78854   7.425   4.980   7.389  0.5686  0.4956  0.0542
  598MOL0     N78855   7.473   5.060   7.483  0.1672  0.1014  0.1774
  598MOL0     C78856   7.344   6.040   8.092  0.7439  0.3951  0.2372
  598MOL0     C78857   7.259   6.141   8.063 -0.4087 -0.5074 -1.0499
  598MOL0     C78858   7.033   6.526   8.156  0.4660  0.0255 -0.4173
  598MOL0     C78859   6.919   6.502   8.080 -0.4120  0.1844  0.1482
  598MOL0     C78860   6.836   6.604   8.048  0.7180  1.2183 -0.1089
  598MOL0     C78861   6.862   6.734   8.081  0.2501  0.1754 -0.2877
  598MOL0     O78862   6.771   6.839   8.084  1.1018  0.6593 -0.6480
  598MOL0     C78863   6.699   6.869   7.962 -0.6565  0.5866  0.0877
  598MOL0     C78864   6.575   6.960   8.000 -0.3126  0.0723  0.2139
  598MOL0     C78865   6.497   6.915   8.117  0.3692  0.0390  0.1548
  598MOL0     C78866   6.348   6.967   8.114  0.5036  0.3723 -0.0247
  598MOL0     C78867   6.341   7.113   8.113 -0.7506 -1.4384 -0.5625
  598MOL0     C78868   6.304   7.228   8.094  0.1571  0.2746 -0.0177
  598MOL0     C78869   6.974   6.757   8.154 -0.1189 -0.3278  0.3811
  598MOL0     C78870   7.056   6.656   8.192  0.1011  0.3760 -0.9840
  598MOL0     H78871   7.111   6.166   8.362  0.3820  1.7603 -0.9896
  598MOL0     H78872   7.279   5.971   8.409  0.0165 -0.6989 -0.4293
  598MOL0     H78873   7.480   5.807   8.040 -0.4709 -0.3021 -0.5154
  598MOL0     H78874   7.320   5.760   8.098  0.6698 -0.0947 -0.2855
  598MOL0     H78875   7.425   5.588   8.233 -0.1571  1.3936 -0.0501
  598MOL0     H78876   7.586   5.655   8.204  0.2167  1.7206 -0.6423
  598MOL0     H78877   7.578   5.472   8.079  1.0064  0.4204 -1.1133
  598MOL0     H78878   7.582   5.605   7.967  1.1027  1.0530  0.6754
  598MOL0     H78879   7.317   5.468   8.013 -0.9788  2.5504  0.9327
  598MOL0     H78880   7.344   5.621   7.938 -0.5454  0.8421  0.0178
  598MOL0     H78881   7.449   5.510   7.749  1.6122  1.0888  2.6445
  598MOL0     H78882   7.320   5.402   7.794 -1.0273  2.7331  0.0831
  598MOL0     H78883   7.511   5.258   7.922  1.5739 -0.0746  0.0973
  598MOL0     H78884   7.620   5.366   7.851 -0.0799 -0.4266 -0.6890
  598MOL0     H78885   7.512   5.292   7.611  1.4589 -0.2960 -1.3340
  598MOL0     H78886   7.614   5.189   7.700 -0.8602 -1.4449  2.9219
  598MOL0     H78887   7.310   5.171   7.727  0.1599  0.4549 -0.6939
  598MOL0     H78888   7.420   5.069   7.806 -1.9315 -0.6678 -0.3987
  598MOL0     H78889   7.230   4.911   7.644  1.1513  0.1385  1.6562
  598MOL0     H78890   7.217   4.725   7.488 -0.1317 -0.1622 -0.9797
  598MOL0     H78891   7.326   4.717   7.349  1.1300  0.7025 -0.0969
  598MOL0     H78892   7.107   4.743   7.246  1.4158 -0.4684 -1.3216
  598MOL0     H78893   7.197   4.887   7.233  1.4604 -1.7925 -0.9609
  598MOL0     H78894   6.968   4.811   7.423 -0.1879  0.1554 -0.6343
  598MOL0     H78895   7.053   4.967   7.445 -3.5713  1.4073 -0.2364
  598MOL0     H78896   7.012   5.033   7.217 -0.1702 -1.4263 -3.0223
  598MOL0     H78897   6.880   5.048   7.330  1.7446  3.8582 -3.2829
  598MOL0     H78898   6.697   4.799   7.028  2.9917  0.8290  3.3175
  598MOL0     H78899   6.540   4.883   6.873  0.4528 -0.3007  0.2659
  598MOL0     H78900   6.199   5.220   6.827  2.2816 -0.4484 -0.6546
  598MOL0     H78901   6.003   5.262   6.689  1.6368  1.6522 -0.1312
  598MOL0     H78902   5.866   5.342   6.535 -0.1170  1.5275 -3.4757
  598MOL0     H78903   5.832   5.187   6.594 -0.4126 -0.1541  0.2661
  598MOL0     H78904   5.767   5.283   6.310  1.8004  0.6195  0.0290
  598MOL0     H78905   5.659   5.293   6.446 -2.0904  1.9380 -4.3552
  598MOL0     H78906   5.703   5.045   6.479  0.0599  2.3690  0.4820
  598MOL0     H78907   5.777   5.033   6.323 -0.2864  0.5727 -3.1529
  598MOL0     H78908   5.490   5.125   6.373  1.7019  0.7598  1.0813
  598MOL0     H78909   5.567   5.124   6.215  1.4377 -0.3498 -1.3446
  598MOL0     H78910   5.486   4.885   6.395  2.9056 -0.1832  1.8114
  598MOL0     H78911   5.592   4.872   6.256  2.0313  2.1471  0.0920
  598MOL0     H78912   5.425   4.977   6.113  3.7506 -1.4456  0.1700
  598MOL0     H78913   5.310   4.998   6.236  1.7862  2.8153 -0.1021
  598MOL0     H78914   5.274   4.802   6.095 -0.4977  1.9178  0.6519
  598MOL0     H78915   5.426   4.736   6.152  0.5392  0.2048 -0.9927
  598MOL0     H78916   5.316   4.707   6.386  2.4137  2.0481 -1.3970
  598MOL0     H78917   5.209   4.639   6.257 -1.3282  0.3621  0.8099
  598MOL0     H78918   6.184   5.047   6.359  2.4744  0.4991 -1.3482
  598MOL0     H78919   6.385   5.009   6.505  0.9488 -0.1867  1.5716
  598MOL0     H78920   6.657   5.284   7.010 -0.2021 -0.1402  0.6407
  598MOL0     H78921   6.813   5.188   7.164 -1.1284 -1.2246  2.9578
  598MOL0     H78922   7.410   6.013   8.010 -1.6228 -0.3829 -1.5024
  598MOL0     H78923   7.271   6.186   7.965 -2.2522  0.3513 -0.9274
  598MOL0     H78924   6.885   6.400   8.065 -0.7001  0.3005  0.0141
  598MOL0     H78925   6.738   6.586   8.003 -0.8261  1.4652  2.9009
  598MOL0     H78926   6.661   6.776   7.918  0.2764 -0.0792  0.6617
  598MOL0     H78927   6.760   6.920   7.887  0.8073 -1.5747 -0.2910
  598MOL0     H78928   6.607   7.063   8.018 -1.1258  0.2600  0.6125
  598MOL0     H78929   6.509   6.970   7.913  0.2833  3.0400 -0.0149
  598MOL0     H78930   6.542   6.934   8.215  0.0535 -1.8023  0.7066
  598MOL0     H78931   6.495   6.807   8.101  1.4693  0.0309 -0.0137
  598MOL0     H78932   6.300   6.919   8.028 -1.5649  0.8916  0.7781
  598MOL0     H78933   6.286   6.932   8.198 -0.8032 -2.4155 -1.9941
  598MOL0     H78934   6.255   7.321   8.078 -1.6333 -0.8380 -1.4007
  598MOL0     H78935   6.995   6.853   8.199  1.0089 -1.2669  2.0039
  598MOL0     H78936   7.144   6.674   8.253 -1.1828  1.3787  0.6512
  599MOL0     O78937  10.435   9.402   3.850  0.5615  0.2604  0.5382
  599MOL0     C78938  10.399   9.487   3.773 -0.1454  0.1403 -0.1171
  599MOL0     O78939  10.452   9.612   3.770  0.0097 -0.1423  0.3906
  599MOL0     C78940  10.576   9.640   3.815 -0.3636 -1.0280  0.0437
  599MOL0     C78941  10.596   9.735   3.914  0.5964 -0.7028 -0.5932
  599MOL0     C78942  10.721   9.785   3.952  0.4401 -0.1782 -0.3309
  599MOL0     C78943  10.837   9.718   3.905  0.3699 -0.4993 -0.3870
  599MOL0     O78944  10.966   9.739   3.964  0.2531 -0.1933 -0.2368
  599MOL0     C78945  11.071   9.666   3.908 -0.2063  0.1424  0.5260
  599MOL0     C78946  11.204   9.749   3.939  0.6700  0.2410 -0.1979
  599MOL0     C78947  11.315   9.677   3.872 -1.5537 -0.0500 -0.2888
  599MOL0     C78948  11.451   9.741   3.914 -0.5791 -0.2451 -0.1323
  599MOL0     C78949  11.557   9.695   3.808  0.2069  1.3996 -0.7641
  599MOL0     C78950  11.691   9.742   3.851  0.2870  0.2158 -0.4395
  599MOL0     C78951  11.812   9.696   3.757 -0.2978  1.0629 -0.9297
  599MOL0     C78952  11.940   9.694   3.836 -0.1745  0.1553  0.7622
  599MOL0     N78953  11.947   9.588   3.943  0.4691  0.1430 -0.3216
  599MOL0     C78954  11.928   9.613   4.076  0.7331 -0.0993 -0.7110
  599MOL0     C78955  11.950   9.496   4.136  0.5994  0.6952  0.5910
  599MOL0     C78956  11.933   9.463   4.288 -0.3076  0.2221  0.2609
  599MOL0     C78957  11.784   9.466   4.341  0.4430  0.8604 -0.7152
  599MOL0     C78958  11.699   9.364   4.267 -0.0629  0.3917 -0.3767
  599MOL0     C78959  11.546   9.382   4.281  0.2523 -0.6569  0.4679
  599MOL0     O78960  11.514   9.517   4.243 -0.2196 -0.4666  0.2962
  599MOL0     C78961  11.400   9.566   4.287  0.6721 -0.8854 -1.2863
  599MOL0     C78962  11.283   9.500   4.319 -1.2411  0.8852 -1.7117
  599MOL0     C78963  11.172   9.556   4.377 -0.1084 -0.3821 -0.5080
  599MOL0     C78964  11.163   9.694   4.401  0.8488 -0.0254 -0.0814
  599MOL0     C78965  11.030   9.752   4.442 -0.3417 -0.1395 -0.1763
  599MOL0     O78966  10.930   9.669   4.477 -0.5740 -0.1465  0.1650
  599MOL0     C78967  10.808   9.718   4.515 -0.2552 -0.5669 -0.0078
  599MOL0     C78968  10.735   9.819   4.444  0.0613 -0.8843  1.0393
  599MOL0     C78969  10.618   9.864   4.498 -0.3129  0.5717 -0.1171
  599MOL0     C78970  10.561   9.814   4.615 -0.5267  0.0662 -0.1086
  599MOL0     O78971  10.440   9.868   4.655 -0.0199 -0.1848  0.3108
  599MOL0     C78972  10.417   9.897   4.796  0.0357  0.8226  1.1045
  599MOL0     C78973  10.353   9.776   4.873 -0.5061 -0.3823  0.4572
  599MOL0     C78974  10.209   9.738   4.832 -0.9241  0.1858 -0.0297
  599MOL0     C78975  10.196   9.659   4.695  0.7002  0.2915  0.0822
  599MOL0     C78976  10.046   9.601   4.682 -0.5659 -0.7310  0.0090
  599MOL0     C78977  10.037   9.507   4.562  0.1632 -0.2323 -0.1588
  599MOL0     C78978   9.886   9.464   4.525  0.9367 -0.3837  0.2505
  599MOL0     C78979   9.893   9.349   4.430 -0.3978  0.3187  0.1778
  599MOL0    Cl78980   9.908   9.188   4.516 -0.1802  0.2182 -0.0454
  599MOL0     C78981  10.635   9.726   4.682 -0.5218 -0.1005  0.0751
  599MOL0     C78982  10.755   9.677   4.634 -0.0282 -0.0374  0.3544
  599MOL0     O78983  11.024   9.876   4.461  0.1813 -1.0123  0.2174
  599MOL0     C78984  11.280   9.772   4.375  1.4118  0.1642  0.1692
  599MOL0     C78985  11.388   9.707   4.316  0.2252  0.4134  0.5652
  599MOL0     N78986  11.995   9.403   4.037 -0.0382  0.2666  0.2279
  599MOL0     N78987  11.985   9.460   3.918 -0.3186 -0.1830  0.6090
  599MOL0     C78988  10.816   9.617   3.811 -0.1592  0.6247 -0.0046
  599MOL0     C78989  10.689   9.586   3.758  0.3370  0.3028 -0.6981
  599MOL0     C78990  10.269   9.470   3.702 -0.4059 -0.0510  0.0214
  599MOL0     C78991  10.207   9.577   3.634  0.2525 -0.0800  1.2962
  599MOL0     C78992  10.098   9.558   3.555 -0.3017 -0.2237  0.5589
  599MOL0     C78993  10.039   9.432   3.543  0.7595  0.0642 -0.5462
  599MOL0     O78994   9.930   9.421   3.469  0.7270  0.5335  0.4015
  599MOL0     C78995   9.856   9.307   3.439  0.5487  0.0493  0.0708
  599MOL0     C78996   9.785   9.247   3.565  0.4994 -0.3713 -0.3336
  599MOL0     C78997   9.677   9.132   3.533  0.1555 -0.5747 -0.2114
  599MOL0     C78998   9.565   9.130   3.644 -0.5346  0.4355 -0.2936
  599MOL0     C78999   9.461   9.032   3.610 -0.1451 -1.0433 -0.1189
  599MOL0     C79000   9.370   8.956   3.582 -0.0161 -0.4696 -0.3911
  599MOL0     C79001  10.104   9.322   3.604  0.0185 -0.2495 -0.9669
  599MOL0     C79002  10.218   9.342   3.683  0.0178  0.1227 -0.5533
  599MOL0     H79003  10.509   9.781   3.959  1.3594  1.9752 -1.6880
  599MOL0     H79004  10.736   9.853   4.036  1.7908 -1.3270  0.4116
  599MOL0     H79005  11.079   9.650   3.800  3.3643 -4.4107  1.1576
  599MOL0     H79006  11.079   9.566   3.952  2.7784  0.3165  0.5394
  599MOL0     H79007  11.204   9.756   4.048 -1.0403 -0.4513 -0.1224
  599MOL0     H79008  11.193   9.846   3.891 -0.2993  0.7138  0.9373
  599MOL0     H79009  11.307   9.665   3.763  1.1146  1.9239 -0.8003
  599MOL0     H79010  11.315   9.575   3.912  1.4659 -0.6922 -1.6638
  599MOL0     H79011  11.450   9.850   3.922  1.0790 -0.1393 -0.8402
  599MOL0     H79012  11.480   9.706   4.013  0.3484  0.4565 -0.1314
  599MOL0     H79013  11.525   9.751   3.719 -0.9373  0.3002 -1.0794
  599MOL0     H79014  11.562   9.587   3.790 -0.4352  1.7350 -3.4408
  599MOL0     H79015  11.706   9.697   3.949  3.5572 -0.7729 -1.2585
  599MOL0     H79016  11.684   9.851   3.855 -1.9127  0.1883 -1.8589
  599MOL0     H79017  11.795   9.594   3.720 -1.7527  0.4570  1.2304
  599MOL0     H79018  11.822   9.758   3.667 -1.4095  1.8057 -0.5621
  599MOL0     H79019  11.951   9.791   3.886  1.0015 -0.9670  2.8321
  599MOL0     H79020  12.028   9.688   3.772  0.0740 -0.0090  1.1166
  599MOL0     H79021  11.894   9.702   4.128  1.4115  0.7945 -1.7501
  599MOL0     H79022  11.994   9.541   4.335  0.2031 -0.9268  1.5399
  599MOL0     H79023  11.978   9.370   4.323 -2.1828 -0.0607  2.1651
  599MOL0     H79024  11.741   9.564   4.318 -2.1515  0.0518  0.3599
  599MOL0     H79025  11.767   9.454   4.449  0.9090  1.6241 -0.5445
  599MOL0     H79026  11.724   9.371   4.161 -0.6724  2.1752 -0.4513
  599MOL0     H79027  11.728   9.267   4.305 -2.3488  0.0238  0.6140
  599MOL0     H79028  11.511   9.359   4.382  2.5942 -0.5791  1.3587
  599MOL0     H79029  11.492   9.312   4.216  1.0941  1.2567 -2.5236
  599MOL0     H79030  11.285   9.392   4.313 -1.6362  0.7429  0.1467
  599MOL0     H79031  11.096   9.488   4.415  0.4073  0.4351  2.1917
  599MOL0     H79032  10.772   9.858   4.349  1.6471 -0.6476  1.7181
  599MOL0     H79033  10.561   9.946   4.455 -0.7900  1.5257  2.1842
  599MOL0     H79034  10.360   9.987   4.816 -0.0587  1.0085  0.0426
  599MOL0     H79035  10.516   9.915   4.840 -0.1267  1.5272  1.1811
  599MOL0     H79036  10.348   9.807   4.977 -0.6743 -2.6155  1.1774
  599MOL0     H79037  10.423   9.691   4.869  0.2004  0.1161  1.7563
  599MOL0     H79038  10.141   9.823   4.824 -1.6600 -0.1546  1.9761
  599MOL0     H79039  10.171   9.683   4.918  0.7615  2.6510  2.4329
  599MOL0     H79040  10.213   9.733   4.616  1.4065  0.0335 -0.0100
  599MOL0     H79041  10.267   9.576   4.683 -1.2513 -1.1250 -3.3709
  599MOL0     H79042   9.977   9.685   4.664 -1.9036 -1.3359  1.9772
  599MOL0     H79043  10.020   9.555   4.777  0.4867  1.1646  1.2769
  599MOL0     H79044  10.083   9.409   4.574 -1.8877 -1.3587 -0.9462
  599MOL0     H79045  10.092   9.566   4.488  1.2404  1.9375  2.2054
  599MOL0     H79046   9.827   9.428   4.610 -0.0484  0.9344  0.1510
  599MOL0     H79047   9.821   9.541   4.484 -0.0286 -0.4529  1.5969
  599MOL0     H79048   9.964   9.370   4.350 -0.7021 -2.1397 -0.8229
  599MOL0     H79049   9.794   9.348   4.384 -0.4849  0.6597  0.3628
  599MOL0     H79050  10.598   9.684   4.775 -0.6836  0.9992  0.5192
  599MOL0     H79051  10.810   9.613   4.701  0.1103  1.3782  1.6384
  599MOL0     H79052  11.281   9.875   4.408 -0.7346 -0.1263  1.3169
  599MOL0     H79053  11.481   9.760   4.301  1.0394 -0.9432  0.6618
  599MOL0     H79054  10.900   9.557   3.778 -0.8109 -0.4672  0.2933
  599MOL0     H79055  10.661   9.523   3.674 -0.0906 -0.3586 -0.0748
  599MOL0     H79056  10.247   9.677   3.645 -0.7351  1.1785 -3.8956
  599MOL0     H79057  10.045   9.636   3.501 -0.7271 -0.1789  1.0297
  599MOL0     H79058   9.911   9.225   3.392 -1.4771 -2.8376  2.3293
  599MOL0     H79059   9.778   9.333   3.368 -1.4764  0.9286  2.4493
  599MOL0     H79060   9.856   9.205   3.637  0.9763  0.3085 -0.3973
  599MOL0     H79061   9.735   9.333   3.610 -0.0603  0.9951 -3.3718
  599MOL0     H79062   9.712   9.028   3.538  2.4338  0.1435  0.0484
  599MOL0     H79063   9.632   9.156   3.437  1.7032 -0.8635 -1.0417
  599MOL0     H79064   9.601   9.098   3.742 -0.9098  1.7598  0.3016
  599MOL0     H79065   9.511   9.224   3.662  0.0061  1.5271 -3.6412
  599MOL0     H79066   9.284   8.898   3.557 -1.4180  2.0661 -1.8882
  599MOL0     H79067  10.058   9.226   3.583 -3.6124  1.7624 -3.3392
  599MOL0     H79068  10.267   9.254   3.722  0.3187  0.7247  0.4693
  600MOL0     O79069   0.355   2.917   9.066 -0.2132 -0.4127 -0.5394
  600MOL0     C79070   0.424   2.931   8.965 -0.6104 -0.1276  0.3896
  600MOL0     O79071   0.387   2.984   8.837 -0.7466 -0.4818 -0.1214
  600MOL0     C79072   0.262   3.013   8.785 -1.4280 -0.3551 -0.1368
  600MOL0     C79073   0.244   3.028   8.646 -0.0068  0.7750  0.2442
  600MOL0     C79074   0.115   3.046   8.594  0.0325  0.0390 -0.2193
  600MOL0     C79075   0.006   3.027   8.680  0.0886  0.4044  0.0188
  600MOL0     O79076  -0.123   3.035   8.633  0.2171 -0.1055 -0.5167
  600MOL0     C79077  -0.145   3.157   8.550 -0.3424 -0.2440 -0.2543
  600MOL0     C79078  -0.176   3.272   8.645  0.6179  0.8798 -0.5544
  600MOL0     C79079  -0.201   3.405   8.570  0.3534  0.2510 -0.3964
  600MOL0     C79080  -0.286   3.505   8.644 -0.6921  0.1865 -0.5004
  600MOL0     C79081  -0.436   3.468   8.649  0.2350  0.2536  0.1224
  600MOL0     C79082  -0.515   3.584   8.721 -0.4430  0.0823  0.2667
  600MOL0     C79083  -0.511   3.719   8.647 -0.4823  0.2739 -0.8647
  600MOL0     C79084  -0.637   3.805   8.668 -0.9082 -0.4253 -0.7367
  600MOL0     N79085  -0.751   3.756   8.593  0.8257  0.2300  0.0835
  600MOL0     C79086  -0.871   3.827   8.589 -0.1825 -0.5377  0.0507
  600MOL0     C79087  -0.954   3.762   8.500 -0.8546 -0.3847  0.0249
  600MOL0     C79088  -1.097   3.794   8.447 -0.5558 -0.6341 -0.1400
  600MOL0     C79089  -1.211   3.761   8.536 -0.3297 -0.3425 -0.4095
  600MOL0     C79090  -1.341   3.771   8.463  0.7358  0.2602  1.0043
  600MOL0     C79091  -1.371   3.634   8.392 -0.3790 -0.4754  0.5484
  600MOL0     O79092  -1.453   3.652   8.275 -0.4577  0.2082 -0.3324
  600MOL0     C79093  -1.585   3.651   8.281  0.1261  0.2683 -0.3079
  600MOL0     C79094  -1.661   3.662   8.402  0.1245  0.2724 -0.1271
  600MOL0     C79095  -1.797   3.649   8.405  0.7626  0.0185 -0.2461
  600MOL0     C79096  -1.862   3.638   8.282 -0.2554  0.5882  0.8608
  600MOL0     C79097  -2.009   3.634   8.274 -0.7194 -0.1795 -0.5476
  600MOL0     O79098  -2.072   3.574   8.393 -0.5036  0.0971  0.2140
  600MOL0     C79099  -2.202   3.552   8.408  0.9222  0.8440 -1.0965
  600MOL0     C79100  -2.289   3.510   8.303 -0.2163 -0.1620  0.8298
  600MOL0     C79101  -2.422   3.505   8.329 -0.4574  0.2907 -0.4141
  600MOL0     C79102  -2.479   3.523   8.454  0.0925  0.3894  0.3111
  600MOL0     O79103  -2.621   3.505   8.454 -0.4115  0.3134 -0.1524
  600MOL0     C79104  -2.687   3.613   8.522  0.3871 -0.4390 -0.0693
  600MOL0     C79105  -2.831   3.634   8.470 -0.0148  0.7129 -0.5535
  600MOL0     C79106  -2.917   3.509   8.487  0.2303 -0.0325  1.0069
  600MOL0     C79107  -3.068   3.533   8.442 -0.1225  0.0367 -0.0576
  600MOL0     C79108  -3.113   3.415   8.357  0.7918  0.8980 -0.8140
  600MOL0     C79109  -3.266   3.435   8.325 -0.4150 -1.0239 -0.6009
  600MOL0     C79110  -3.345   3.317   8.251 -0.0695  0.1923 -0.2606
  600MOL0     C79111  -3.288   3.265   8.121 -0.4740 -0.2015 -0.2974
  600MOL0    Cl79112  -3.405   3.169   8.019 -0.2708  0.0617 -0.2310
  600MOL0     C79113  -2.390   3.563   8.557 -0.5160 -0.1637 -1.0495
  600MOL0     C79114  -2.253   3.574   8.532 -0.5592  0.4864 -0.9890
  600MOL0     O79115  -2.073   3.682   8.174  0.2411  0.2025  0.0592
  600MOL0     C79116  -1.793   3.640   8.162  0.3059  0.1965  0.6547
  600MOL0     C79117  -1.655   3.641   8.162 -0.3124  0.5051 -0.6121
  600MOL0     N79118  -0.875   3.652   8.458  0.4007 -0.3362  0.1757
  600MOL0     N79119  -0.760   3.644   8.515  0.4293 -0.0766 -0.1818
  600MOL0     C79120   0.019   3.010   8.815  0.3623  0.0595  0.2555
  600MOL0     C79121   0.146   3.006   8.873 -0.3252 -0.3253 -0.0501
  600MOL0     C79122   0.571   2.899   8.981  0.4816  0.0158 -0.6176
  600MOL0     C79123   0.616   2.878   9.112  0.1249  0.7585 -0.1478
  600MOL0     C79124   0.745   2.861   9.140 -0.4369 -0.3719  0.0841
  600MOL0     C79125   0.844   2.873   9.040  0.2101  0.3999 -0.7981
  600MOL0     O79126   0.976   2.869   9.080  0.3805  0.7355  0.8215
  600MOL0     C79127   1.017   2.832   9.214  0.6877  0.3757 -0.0822
  600MOL0     C79128   1.168   2.799   9.211  0.5103  0.0451  0.1021
  600MOL0     C79129   1.229   2.800   9.353 -0.3137 -0.2404  0.4410
  600MOL0     C79130   1.379   2.837   9.354 -0.0543  0.6667 -0.4113
  600MOL0     C79131   1.426   2.830   9.494 -0.8055 -0.2175 -0.6298
  600MOL0     C79132   1.484   2.821   9.601  0.1148  0.0202 -0.6597
  600MOL0     C79133   0.799   2.903   8.908 -0.2247 -0.7348  0.4262
  600MOL0     C79134   0.659   2.903   8.876 -0.7831 -0.8174 -0.3071
  600MOL0     H79135   0.323   3.024   8.572  0.8106 -0.4845  1.1469
  600MOL0     H79136   0.090   3.055   8.489 -0.7995 -0.5045 -0.0804
  600MOL0     H79137  -0.224   3.142   8.476  0.2158  1.0195 -1.1481
  600MOL0     H79138  -0.059   3.180   8.486 -0.2336 -0.8080 -0.3156
  600MOL0     H79139  -0.101   3.285   8.724 -0.6163  0.8012  0.6802
  600MOL0     H79140  -0.268   3.242   8.695  0.4147  2.0213 -0.2090
  600MOL0     H79141  -0.256   3.383   8.478 -1.6550  2.2872  0.2152
  600MOL0     H79142  -0.103   3.439   8.535  0.6288 -1.0167 -0.9392
  600MOL0     H79143  -0.247   3.524   8.744 -2.1951  2.2263 -0.2556
  600MOL0     H79144  -0.275   3.597   8.586  0.9925  1.1645  1.2759
  600MOL0     H79145  -0.449   3.367   8.690 -0.9172  0.3445  0.0135
  600MOL0     H79146  -0.477   3.471   8.548 -0.4087 -0.7657  0.3431
  600MOL0     H79147  -0.487   3.595   8.827  0.7876 -1.8125  0.1739
  600MOL0     H79148  -0.622   3.562   8.708 -0.2165  0.7391 -3.7369
  600MOL0     H79149  -0.418   3.769   8.678 -1.2749  1.4678 -0.3038
  600MOL0     H79150  -0.507   3.698   8.540 -1.1439  2.4743 -1.3846
  600MOL0     H79151  -0.618   3.909   8.638 -0.7802 -0.3588 -0.4237
  600MOL0     H79152  -0.669   3.816   8.772  0.9324 -0.5624 -0.1239
  600MOL0     H79153  -0.901   3.911   8.650  0.6879  0.0745 -0.3412
  600MOL0     H79154  -1.106   3.723   8.364 -0.8950 -0.4532 -0.2620
  600MOL0     H79155  -1.102   3.895   8.407 -2.2419 -0.7153 -0.2069
  600MOL0     H79156  -1.213   3.838   8.614  1.4150  1.9976 -2.5324
  600MOL0     H79157  -1.188   3.658   8.567 -0.1869 -1.0218 -2.6185
  600MOL0     H79158  -1.422   3.797   8.532 -0.7618  2.0381 -1.2730
  600MOL0     H79159  -1.344   3.843   8.382  2.0303 -0.2613  0.4669
  600MOL0     H79160  -1.430   3.577   8.464 -2.5690  2.4115  1.2648
  600MOL0     H79161  -1.287   3.579   8.350  1.0143  1.4848  0.6436
  600MOL0     H79162  -1.616   3.665   8.501  0.2077 -1.5250 -0.0907
  600MOL0     H79163  -1.853   3.633   8.496  1.4781 -2.6220 -0.1579
  600MOL0     H79164  -2.248   3.489   8.205 -1.0545  0.8927  0.2421
  600MOL0     H79165  -2.489   3.485   8.245  1.5353 -2.3673 -1.4988
  600MOL0     H79166  -2.628   3.702   8.501 -0.2621 -0.0486 -0.2811
  600MOL0     H79167  -2.684   3.597   8.630 -1.2026 -1.4617 -0.1347
  600MOL0     H79168  -2.831   3.660   8.364 -1.0950 -2.8719 -1.5848
  600MOL0     H79169  -2.879   3.716   8.524  2.1908  1.7462 -0.0661
  600MOL0     H79170  -2.909   3.488   8.594  1.2972  0.3588  1.0183
  600MOL0     H79171  -2.865   3.426   8.438  0.2820  0.6386 -0.1277
  600MOL0     H79172  -3.126   3.546   8.534 -0.4421  2.1889 -0.4958
  600MOL0     H79173  -3.078   3.627   8.386  1.4219 -0.3775 -1.0817
  600MOL0     H79174  -3.101   3.320   8.410  2.8529  0.8103 -1.3674
  600MOL0     H79175  -3.056   3.403   8.265  1.7855 -1.4374  0.0349
  600MOL0     H79176  -3.274   3.531   8.272  1.9086  1.5104  3.1708
  600MOL0     H79177  -3.308   3.446   8.425  1.8527 -2.1068  0.5413
  600MOL0     H79178  -3.345   3.230   8.317 -0.6352  1.2249  1.1454
  600MOL0     H79179  -3.451   3.343   8.245 -0.5099 -1.4303 -0.0693
  600MOL0     H79180  -3.197   3.208   8.142 -0.2583 -0.4077 -1.6459
  600MOL0     H79181  -3.265   3.353   8.059  3.2038  0.1700  1.3418
  600MOL0     H79182  -2.430   3.588   8.655 -1.0421  1.9138 -1.7381
  600MOL0     H79183  -2.194   3.603   8.618 -2.5048  1.1601  0.1724
  600MOL0     H79184  -1.834   3.617   8.064  1.5008 -1.2275  0.4501
  600MOL0     H79185  -1.602   3.643   8.068 -1.7498  1.1332 -1.4484
  600MOL0     H79186  -0.069   3.004   8.879 -0.2560 -2.2420 -0.6938
  600MOL0     H79187   0.153   2.978   8.978 -1.0478 -6.1732 -1.2334
  600MOL0     H79188   0.549   2.860   9.196  0.7824 -0.1420  0.2105
  600MOL0     H79189   0.751   2.844   9.247 -1.3060  0.9828  0.3749
  600MOL0     H79190   0.973   2.741   9.256 -0.3971  1.1852  0.5523
  600MOL0     H79191   0.992   2.918   9.276 -0.3743 -0.4323  0.6361
  600MOL0     H79192   1.189   2.704   9.161 -1.7383 -0.6715  0.4284
  600MOL0     H79193   1.224   2.873   9.153  2.7162 -0.9351  0.8918
  600MOL0     H79194   1.226   2.701   9.400  1.9649  0.0929  1.4247
  600MOL0     H79195   1.176   2.868   9.421 -1.3235  0.4959 -1.0470
  600MOL0     H79196   1.438   2.764   9.298  0.3603  0.5968  0.1134
  600MOL0     H79197   1.403   2.936   9.313  0.2775  1.7176  2.1313
  600MOL0     H79198   1.530   2.819   9.697 -0.2942  3.3174 -0.2749
  600MOL0     H79199   0.880   2.907   8.837 -0.2623  0.6927  0.4393
  600MOL0     H79200   0.618   2.917   8.777 -0.5601 -0.1454 -0.3112
  601MOL0     O79201   1.194   0.922   0.617  0.0595  0.6774 -0.0526
  601MOL0     C79202   1.310   0.893   0.595 -0.9353 -0.5789 -0.1546
  601MOL0     O79203   1.392   0.959   0.507 -0.1767 -0.1577 -0.2889
  601MOL0     C79204   1.333   1.077   0.459 -0.3514  0.4635 -0.8560
  601MOL0     C79205   1.340   1.199   0.532  0.6049 -0.3224 -0.7336
  601MOL0     C79206   1.286   1.317   0.473 -0.5349  0.9000 -0.4385
  601MOL0     C79207   1.235   1.317   0.338  0.4135 -1.0460 -0.2478
  601MOL0     O79208   1.215   1.445   0.288 -0.1569  0.1632 -0.5576
  601MOL0     C79209   1.138   1.454   0.167  0.3408 -0.1544 -1.2445
  601MOL0     C79210   0.990   1.477   0.200 -0.9132 -0.2150  0.7335
  601MOL0     C79211   0.906   1.492   0.072 -0.1290  0.0735  0.4574
  601MOL0     C79212   0.778   1.564   0.092  0.2111  0.7249 -0.4653
  601MOL0     C79213   0.697   1.591  -0.045  0.3902  0.3432 -0.0757
  601MOL0     C79214   0.593   1.701  -0.036 -0.1145 -1.2177 -0.7780
  601MOL0     C79215   0.662   1.841  -0.040 -0.2845 -0.0298 -0.4017
  601MOL0     C79216   0.571   1.950  -0.011  0.7594 -1.1506  0.6373
  601MOL0     N79217   0.466   1.976  -0.112  0.4576  0.1663  0.4031
  601MOL0     C79218   0.469   1.966  -0.250  0.4008  0.0624 -0.0901
  601MOL0     C79219   0.356   2.026  -0.285  0.0377 -0.1478 -0.1743
  601MOL0     C79220   0.300   2.038  -0.428  0.0935  0.0194 -0.1345
  601MOL0     C79221   0.357   2.158  -0.510 -0.9363  0.2590 -0.6374
  601MOL0     C79222   0.314   2.140  -0.661 -0.1300  0.0034  0.1647
  601MOL0     C79223   0.169   2.200  -0.682  0.7324  0.2422  0.2902
  601MOL0     O79224   0.073   2.100  -0.649 -0.2833 -0.3444  0.4949
  601MOL0     C79225  -0.056   2.129  -0.675 -1.0251  0.2945  0.6124
  601MOL0     C79226  -0.145   2.040  -0.615  0.1098  0.1968  0.2128
  601MOL0     C79227  -0.279   2.041  -0.646  0.0986 -0.2663 -0.5869
  601MOL0     C79228  -0.335   2.135  -0.746  0.3273  0.3165 -0.5130
  601MOL0     C79229  -0.478   2.137  -0.787 -0.1578 -0.4898 -0.6589
  601MOL0     O79230  -0.554   2.023  -0.757  0.4757 -0.1494  0.4234
  601MOL0     C79231  -0.674   2.001  -0.811 -0.3347 -0.0232 -0.1861
  601MOL0     C79232  -0.681   1.920  -0.928  0.1049  0.1596 -0.3504
  601MOL0     C79233  -0.807   1.875  -0.982 -0.7425  0.0093 -1.5043
  601MOL0     C79234  -0.923   1.928  -0.922  1.1410 -0.0857  0.2308
  601MOL0     O79235  -1.040   1.882  -0.981  0.3373 -0.0569  0.2028
  601MOL0     C79236  -1.158   1.866  -0.895 -0.2594 -0.9983 -0.0442
  601MOL0     C79237  -1.289   1.865  -0.979 -0.3205 -0.9242 -0.1906
  601MOL0     C79238  -1.410   1.888  -0.887 -0.1148 -0.1497 -0.5824
  601MOL0     C79239  -1.545   1.920  -0.958  0.4464  0.5713  0.1146
  601MOL0     C79240  -1.539   2.035  -1.070 -0.6761 -0.6707 -0.8279
  601MOL0     C79241  -1.496   2.174  -1.018  0.4849  0.7218 -0.3322
  601MOL0     C79242  -1.597   2.233  -0.911  0.6424  0.0053  0.1917
  601MOL0     C79243  -1.572   2.382  -0.890 -0.1676  0.3196  0.1897
  601MOL0    Cl79244  -1.625   2.409  -0.710  0.3694 -0.3530 -0.4998
  601MOL0     C79245  -0.914   2.014  -0.813 -0.7863 -0.2040 -0.1406
  601MOL0     C79246  -0.789   2.045  -0.751 -0.6117 -0.3665 -0.6677
  601MOL0     O79247  -0.527   2.237  -0.853 -0.3682  0.4603 -0.2382
  601MOL0     C79248  -0.242   2.223  -0.803 -0.8581  0.6088  0.7198
  601MOL0     C79249  -0.102   2.216  -0.775  0.7449 -1.5718 -0.3507
  601MOL0     N79250   0.287   2.082  -0.183 -0.4323  0.1450 -0.6985
  601MOL0     N79251   0.352   2.049  -0.074 -0.1357 -0.3477 -0.1400
  601MOL0     C79252   1.225   1.188   0.268 -0.0672 -0.6316  0.5388
  601MOL0     C79253   1.286   1.072   0.332  1.1514  0.1834  0.0517
  601MOL0     C79254   1.378   0.794   0.682 -0.0198  0.0871  0.9521
  601MOL0     C79255   1.517   0.765   0.663  0.3402  0.0488 -0.2993
  601MOL0     C79256   1.581   0.681   0.741 -0.3996  1.3284  0.3155
  601MOL0     C79257   1.515   0.616   0.842  0.1570 -0.8694  0.9583
  601MOL0     O79258   1.580   0.539   0.932  0.1595 -0.2059  1.2308
  601MOL0     C79259   1.708   0.500   0.907  0.1747  0.6379 -0.3677
  601MOL0     C79260   1.712   0.386   1.004  0.2391  0.0440 -0.1597
  601MOL0     C79261   1.848   0.315   1.002 -0.6126 -0.0728  0.4095
  601MOL0     C79262   1.957   0.403   1.076 -0.3646 -0.3389 -0.3271
  601MOL0     C79263   2.087   0.325   1.093 -0.4575 -0.3632 -0.4173
  601MOL0     C79264   2.197   0.286   1.082 -0.3103 -0.5644 -0.6140
  601MOL0     C79265   1.385   0.649   0.866 -0.4648  0.1675 -0.3623
  601MOL0     C79266   1.309   0.733   0.785  0.3937  0.0668 -0.9944
  601MOL0     H79267   1.390   1.199   0.628  1.0551 -4.5908 -0.7538
  601MOL0     H79268   1.278   1.407   0.533 -2.6040  0.1966  0.4292
  601MOL0     H79269   1.150   1.371   0.098 -3.1976 -1.3558 -0.6089
  601MOL0     H79270   1.180   1.539   0.113  0.3789 -0.5236 -1.8033
  601MOL0     H79271   0.995   1.565   0.264  0.7343 -0.7249  1.3761
  601MOL0     H79272   0.958   1.388   0.255 -0.7300 -1.2692 -0.7875
  601MOL0     H79273   0.889   1.395   0.026  4.6557  0.2940 -2.4726
  601MOL0     H79274   0.973   1.546   0.005 -0.2319 -0.4221 -0.0513
  601MOL0     H79275   0.708   1.516   0.162 -1.4605  0.7318 -2.0375
  601MOL0     H79276   0.800   1.661   0.137 -1.5066  1.0583 -0.2395
  601MOL0     H79277   0.645   1.496  -0.063  0.5183  0.7350 -2.8706
  601MOL0     H79278   0.759   1.611  -0.133  0.6938  0.3221  0.1321
  601MOL0     H79279   0.527   1.697   0.051 -2.2669  1.0270 -2.1605
  601MOL0     H79280   0.523   1.704  -0.120 -2.7248 -3.6387  1.1303
  601MOL0     H79281   0.738   1.843   0.038 -1.2955  1.0746  0.5999
  601MOL0     H79282   0.711   1.864  -0.136 -0.5640  2.7283  0.0188
  601MOL0     H79283   0.631   2.039   0.011  0.8814 -1.6326  2.3725
  601MOL0     H79284   0.526   1.930   0.087  0.2959  0.9833  0.9264
  601MOL0     H79285   0.545   1.930  -0.318  0.6305 -2.9635  1.5824
  601MOL0     H79286   0.192   2.044  -0.417  0.2767  2.1759  0.8922
  601MOL0     H79287   0.345   1.953  -0.480  1.5299  0.9090 -0.4140
  601MOL0     H79288   0.465   2.142  -0.504 -0.9437  0.6258  2.3882
  601MOL0     H79289   0.334   2.256  -0.466 -1.3662  0.7670 -1.9344
  601MOL0     H79290   0.379   2.189  -0.734 -3.0165  0.5437 -2.2496
  601MOL0     H79291   0.319   2.038  -0.701  0.1119  0.7652 -1.8928
  601MOL0     H79292   0.168   2.216  -0.790 -2.3612  2.4126  0.4722
  601MOL0     H79293   0.143   2.288  -0.622 -0.1820 -1.1614  2.0423
  601MOL0     H79294  -0.111   1.971  -0.539  0.4033 -3.0116 -2.5614
  601MOL0     H79295  -0.335   1.965  -0.593 -1.1197  2.1277  1.8297
  601MOL0     H79296  -0.596   1.883  -0.985  0.8071 -1.6090  1.7002
  601MOL0     H79297  -0.828   1.791  -1.049 -0.0266 -1.5346  0.1384
  601MOL0     H79298  -1.160   1.953  -0.828 -0.2800  0.6045 -2.0221
  601MOL0     H79299  -1.149   1.773  -0.837 -0.7344 -0.5135  0.8365
  601MOL0     H79300  -1.306   1.775  -1.040 -1.9776 -0.5773 -0.2846
  601MOL0     H79301  -1.289   1.955  -1.040 -0.2901 -0.7740  0.0301
  601MOL0     H79302  -1.396   1.961  -0.807  1.3696 -1.9099  0.8546
  601MOL0     H79303  -1.419   1.793  -0.833  2.2533 -0.8266 -1.2603
  601MOL0     H79304  -1.582   1.833  -1.014 -5.6866  1.0558  2.6770
  601MOL0     H79305  -1.617   1.943  -0.880  1.8830 -1.0283  2.0125
  601MOL0     H79306  -1.635   2.042  -1.122 -0.9520 -3.2148 -0.7600
  601MOL0     H79307  -1.464   2.021  -1.149 -0.3962  2.1787 -1.1724
  601MOL0     H79308  -1.481   2.244  -1.101 -0.3020  2.0845  0.6338
  601MOL0     H79309  -1.404   2.163  -0.960 -1.2261  1.1445  2.6947
  601MOL0     H79310  -1.702   2.212  -0.936 -0.0337  0.5386  2.3696
  601MOL0     H79311  -1.586   2.181  -0.816 -0.5792 -3.0054 -1.1790
  601MOL0     H79312  -1.640   2.439  -0.954 -2.3415  0.0729  2.1676
  601MOL0     H79313  -1.471   2.421  -0.906 -0.1194 -0.5811 -2.0985
  601MOL0     H79314  -1.000   2.071  -0.779  0.2165  3.3986 -2.9021
  601MOL0     H79315  -0.787   2.105  -0.660  0.1806 -0.7802 -0.4105
  601MOL0     H79316  -0.273   2.286  -0.886  1.4371  0.5537 -0.2361
  601MOL0     H79317  -0.033   2.272  -0.839  0.5741 -1.6614 -0.6140
  601MOL0     H79318   1.207   1.184   0.161  3.4376  0.6307 -0.2426
  601MOL0     H79319   1.284   0.982   0.270 -0.1151 -0.3349  0.8111
  601MOL0     H79320   1.571   0.804   0.577  0.6540 -0.7441 -0.4627
  601MOL0     H79321   1.675   0.635   0.714  0.4987  2.0584  2.0138
  601MOL0     H79322   1.786   0.575   0.925  0.6364  1.0164 -3.3421
  601MOL0     H79323   1.713   0.449   0.810 -0.0398  1.0807 -0.6145
  601MOL0     H79324   1.706   0.423   1.107  2.0453 -4.5457  1.8787
  601MOL0     H79325   1.636   0.310   0.985  0.2794 -0.1080  0.2774
  601MOL0     H79326   1.876   0.306   0.897 -2.3030  1.8805 -0.2767
  601MOL0     H79327   1.853   0.215   1.047  1.1163 -0.1712  0.0579
  601MOL0     H79328   1.980   0.486   1.008 -1.6576  0.4105  0.1179
  601MOL0     H79329   1.913   0.435   1.171 -2.7475 -5.9222  0.8128
  601MOL0     H79330   2.290   0.237   1.064 -0.8648 -1.6297 -0.7063
  601MOL0     H79331   1.343   0.595   0.951  1.6294 -1.3127 -0.1900
  601MOL0     H79332   1.213   0.761   0.826 -0.1633 -2.0515 -0.7485
  602MOL0     O79333   7.957   2.190   9.762 -0.1097  0.4255  0.0312
  602MOL0     C79334   7.990   2.304   9.732 -0.0345 -0.2726 -0.0619
  602MOL0     O79335   7.901   2.412   9.689 -0.1807 -0.0994 -0.3150
  602MOL0     C79336   7.768   2.393   9.657  0.3727 -0.0284 -0.1810
  602MOL0     C79337   7.702   2.513   9.660  0.1982 -0.2222  0.4638
  602MOL0     C79338   7.562   2.507   9.646 -0.0725 -0.4003  0.0132
  602MOL0     C79339   7.496   2.392   9.629 -0.5714  0.5376  0.2077
  602MOL0     O79340   7.367   2.411   9.606 -0.4177  0.8002 -0.2783
  602MOL0     C79341   7.273   2.298   9.601  0.4720  0.0428 -0.0176
  602MOL0     C79342   7.225   2.267   9.746  0.3087  0.1110  1.0627
  602MOL0     C79343   7.084   2.195   9.742  0.1948 -0.1064  0.8095
  602MOL0     C79344   7.088   2.057   9.674 -0.5782  0.1453 -1.0569
  602MOL0     C79345   6.945   1.992   9.675 -0.5031 -0.3273 -0.1977
  602MOL0     C79346   6.950   1.854   9.603  0.3546  0.7018 -0.0743
  602MOL0     C79347   6.815   1.801   9.591  0.3005  0.0689  0.7110
  602MOL0     C79348   6.757   1.720   9.705 -0.0078  0.3784  1.2050
  602MOL0     N79349   6.618   1.684   9.676  0.0855 -0.1455 -0.1842
  602MOL0     C79350   6.509   1.766   9.653 -0.0004  0.5212  1.0490
  602MOL0     C79351   6.398   1.688   9.637  0.6807  0.7338  0.8095
  602MOL0     C79352   6.258   1.731   9.630  0.3510  0.0636 -0.2717
  602MOL0     C79353   6.215   1.830   9.741  0.8047 -0.4569  0.3394
  602MOL0     C79354   6.068   1.879   9.725  0.2331 -0.1467  0.1315
  602MOL0     C79355   5.966   1.770   9.773 -0.2909 -0.1211  0.0615
  602MOL0     O79356   5.826   1.806   9.748  0.2064 -0.3630 -0.0798
  602MOL0     C79357   5.734   1.718   9.798 -0.0797  0.5611  0.1926
  602MOL0     C79358   5.768   1.582   9.835  0.3446 -0.0328  0.6963
  602MOL0     C79359   5.669   1.484   9.847  0.6436 -0.8885  0.5041
  602MOL0     C79360   5.534   1.510   9.818 -0.1230  0.0988  0.0961
  602MOL0     C79361   5.425   1.412   9.844 -0.0823  0.3794 -0.6166
  602MOL0     O79362   5.461   1.279   9.813  0.1201 -0.8022 -0.0624
  602MOL0     C79363   5.371   1.178   9.836  0.2507  0.1275  0.5804
  602MOL0     C79364   5.372   1.077   9.745 -0.5348  0.2687  0.2172
  602MOL0     C79365   5.283   0.973   9.754 -0.7709  1.0056 -0.0788
  602MOL0     C79366   5.195   0.965   9.864 -0.5691 -0.1876 -0.0234
  602MOL0     O79367   5.098   0.866   9.853 -0.0683 -0.3279  0.1360
  602MOL0     C79368   4.979   0.869   9.931  0.4739  0.1249  0.7234
  602MOL0     C79369   4.894   0.739   9.896 -0.3947 -0.1142  0.5410
  602MOL0     C79370   4.740   0.763   9.929 -0.0921 -0.7749  0.3124
  602MOL0     C79371   4.685   0.866   9.828 -0.4751  0.3665 -0.0332
  602MOL0     C79372   4.539   0.891   9.831 -0.4826  0.0985  0.2314
  602MOL0     C79373   4.496   1.029   9.785  0.4591  0.6465 -0.0252
  602MOL0     C79374   4.555   1.144   9.859 -0.2311  0.0924 -0.2967
  602MOL0     C79375   4.469   1.274   9.847 -0.4033  0.3885  0.0927
  602MOL0    Cl79376   4.309   1.265   9.938  0.0656  0.0149 -0.1660
  602MOL0     C79377   5.195   1.060   9.965 -0.6573 -0.2189  0.3595
  602MOL0     C79378   5.286   1.170   9.952 -0.0390 -0.7946  0.5781
  602MOL0     O79379   5.314   1.452   9.886 -0.4756 -0.0404  0.2977
  602MOL0     C79380   5.497   1.643   9.793 -0.9925 -0.4106 -0.1855
  602MOL0     C79381   5.594   1.737   9.779 -0.7887 -0.2065 -0.0201
  602MOL0     N79382   6.444   1.563   9.674  0.6688 -0.1721  0.0377
  602MOL0     N79383   6.567   1.562   9.705 -0.3851  0.1274  0.0014
  602MOL0     C79384   7.565   2.277   9.605  0.2866 -0.1384 -0.0328
  602MOL0     C79385   7.701   2.276   9.623 -1.6606  0.3207  0.2772
  602MOL0     C79386   8.136   2.343   9.735  0.1143 -0.1846  0.4704
  602MOL0     C79387   8.188   2.472   9.706 -0.4783 -0.4047 -0.0455
  602MOL0     C79388   8.320   2.506   9.711 -0.6401  0.4882 -0.5708
  602MOL0     C79389   8.413   2.415   9.762 -0.2208 -0.2808  0.3679
  602MOL0     O79390   8.544   2.452   9.786  0.2183  0.4777 -0.2267
  602MOL0     C79391   8.620   2.360   9.872 -0.9330 -0.9695  0.4603
  602MOL0     C79392   8.768   2.404   9.890 -0.1955 -0.2658 -0.6762
  602MOL0     C79393   8.860   2.419   9.772 -0.8425 -0.8367  0.0071
  602MOL0     C79394   9.001   2.414   9.824 -0.2641 -0.2841 -0.3308
  602MOL0     C79395   9.106   2.445   9.723  0.0738  0.6403  0.5012
  602MOL0     C79396   9.199   2.466   9.648  0.5135  0.7662  0.9216
  602MOL0     C79397   8.369   2.281   9.788  0.7052  0.3860 -0.1530
  602MOL0     C79398   8.233   2.251   9.779 -0.4107  0.3364  0.0915
  602MOL0     H79399   7.754   2.607   9.676 -1.0075  0.3072  1.4818
  602MOL0     H79400   7.512   2.603   9.643  0.0959 -0.2908  0.4895
  602MOL0     H79401   7.309   2.203   9.560 -1.3205 -1.2943  1.3849
  602MOL0     H79402   7.180   2.333   9.557 -0.8764 -0.6814  2.1100
  602MOL0     H79403   7.218   2.362   9.799 -0.0414 -0.4488  2.0591
  602MOL0     H79404   7.307   2.211   9.793  0.7731 -0.0650  0.0796
  602MOL0     H79405   7.019   2.260   9.683 -0.6215  0.5087  2.3350
  602MOL0     H79406   7.039   2.181   9.841 -1.1352  1.5367  0.4786
  602MOL0     H79407   7.124   2.074   9.572  0.3667 -3.2151 -1.4163
  602MOL0     H79408   7.157   1.992   9.727 -0.4250  0.2760 -1.0976
  602MOL0     H79409   6.881   2.057   9.615  0.3781  0.3103 -0.4708
  602MOL0     H79410   6.906   1.979   9.776 -1.5598 -1.3616 -0.7051
  602MOL0     H79411   7.003   1.775   9.657 -1.0580  0.2170  0.6468
  602MOL0     H79412   6.980   1.857   9.498 -1.0639 -2.4962 -0.6682
  602MOL0     H79413   6.755   1.890   9.571  3.4433  3.1942  3.8970
  602MOL0     H79414   6.824   1.740   9.500  2.0777  1.1734  0.1091
  602MOL0     H79415   6.759   1.782   9.795 -1.3645 -0.9557  2.2134
  602MOL0     H79416   6.809   1.625   9.722  0.6176  0.3201 -0.7773
  602MOL0     H79417   6.508   1.874   9.647 -2.8456  0.5123 -0.1341
  602MOL0     H79418   6.196   1.641   9.626  1.5492 -0.8179  0.1586
  602MOL0     H79419   6.248   1.790   9.538 -0.1621  0.3893 -0.0087
  602MOL0     H79420   6.284   1.915   9.739 -0.2660  0.4249 -0.3939
  602MOL0     H79421   6.224   1.785   9.841 -0.4937  0.1894  0.7807
  602MOL0     H79422   6.059   1.962   9.796  2.5177  0.5744 -0.3372
  602MOL0     H79423   6.042   1.907   9.622  0.7308  0.0456  0.0548
  602MOL0     H79424   5.971   1.747   9.880 -2.6810  1.0454  0.4917
  602MOL0     H79425   5.984   1.673   9.725 -2.9512 -0.1594 -1.0001
  602MOL0     H79426   5.865   1.550   9.870  0.8670  0.5954 -0.1215
  602MOL0     H79427   5.696   1.383   9.877 -0.3531 -1.0161  1.0413
  602MOL0     H79428   5.436   1.086   9.658 -1.4168 -0.1014 -0.4902
  602MOL0     H79429   5.284   0.894   9.680 -1.3154  1.0573 -0.1452
  602MOL0     H79430   4.924   0.959   9.901  0.3007  0.2698  1.4547
  602MOL0     H79431   4.998   0.867  10.038 -1.5034 -1.9768  1.1122
  602MOL0     H79432   4.940   0.656   9.950 -0.3356 -0.2816  0.2356
  602MOL0     H79433   4.905   0.712   9.791  0.0993 -1.9285  1.0338
  602MOL0     H79434   4.732   0.799  10.032  0.3279  1.0030 -0.2426
  602MOL0     H79435   4.679   0.674   9.916  0.2201 -0.5019 -5.3941
  602MOL0     H79436   4.747   0.956   9.837  2.5159 -1.4346 -1.2491
  602MOL0     H79437   4.708   0.816   9.734  1.7143 -1.9670  1.6027
  602MOL0     H79438   4.509   0.864   9.933 -1.7774 -1.9362 -0.6210
  602MOL0     H79439   4.483   0.831   9.758  0.2407  1.1704 -1.2695
  602MOL0     H79440   4.388   1.038   9.791  0.7169  5.0735  2.5369
  602MOL0     H79441   4.528   1.044   9.682  1.4823 -2.3826 -0.2646
  602MOL0     H79442   4.565   1.109   9.962 -0.9113 -1.6744 -0.8024
  602MOL0     H79443   4.652   1.168   9.814 -0.5289  2.2132  0.0787
  602MOL0     H79444   4.448   1.285   9.740 -0.3455  0.3327  0.0753
  602MOL0     H79445   4.520   1.363   9.887  0.2846 -1.6262  4.2802
  602MOL0     H79446   5.136   1.050  10.056  2.9553 -4.3604  2.6491
  602MOL0     H79447   5.289   1.252  10.024  1.7634 -1.2013  1.0243
  602MOL0     H79448   5.391   1.664   9.780 -1.0837 -1.7556 -2.0615
  602MOL0     H79449   5.586   1.833   9.729  1.8890 -0.3806 -0.9459
  602MOL0     H79450   7.516   2.188   9.570  1.6323 -1.0476  0.3053
  602MOL0     H79451   7.751   2.180   9.616 -2.1646 -0.0541  1.5038
  602MOL0     H79452   8.130   2.562   9.687  2.2936  1.3020 -0.8736
  602MOL0     H79453   8.362   2.604   9.690  0.6773  0.3189  1.0947
  602MOL0     H79454   8.637   2.265   9.821  1.9587 -1.5862  2.3641
  602MOL0     H79455   8.579   2.353   9.973  0.4488  1.2444  1.2596
  602MOL0     H79456   8.749   2.497   9.944 -0.9334 -0.8648  0.1178
  602MOL0     H79457   8.809   2.333   9.962 -0.1250 -1.4419 -1.8477
  602MOL0     H79458   8.845   2.512   9.716  0.1827 -0.8821 -0.3662
  602MOL0     H79459   8.852   2.340   9.697  2.5801  0.3693 -1.8685
  602MOL0     H79460   9.015   2.478   9.911 -0.0065 -0.8974  0.0914
  602MOL0     H79461   9.025   2.313   9.859  3.1627  0.3624 -0.4754
  602MOL0     H79462   9.280   2.487   9.582  0.8270  1.6242  1.5607
  602MOL0     H79463   8.436   2.205   9.827  1.5730  1.0846 -0.2500
  602MOL0     H79464   8.203   2.152   9.811  3.3942 -1.6624 -1.8019
  603MOL0     O79465   8.250   6.942   2.124  0.3971  0.1839  0.0711
  603MOL0     C79466   8.225   6.827   2.097  0.1544 -0.0823 -0.3676
  603MOL0     O79467   8.103   6.775   2.107 -0.3119  0.3925 -0.6579
  603MOL0     C79468   7.989   6.858   2.102 -0.4427 -0.3989 -0.0997
  603MOL0     C79469   7.939   6.919   2.214 -0.2385  0.1911  0.1417
  603MOL0     C79470   7.834   7.007   2.201 -0.0788 -0.2745  0.4926
  603MOL0     C79471   7.779   7.036   2.071 -0.0523 -0.5861 -0.2202
  603MOL0     O79472   7.693   7.142   2.049  0.4489  0.1417 -0.1312
  603MOL0     C79473   7.568   7.122   2.121  0.1901  0.5110  0.0763
  603MOL0     C79474   7.473   7.225   2.062  0.8764  0.1784 -0.4445
  603MOL0     C79475   7.317   7.210   2.088 -0.1090 -0.0531 -0.0091
  603MOL0     C79476   7.225   7.306   2.007  0.3713  0.8975 -0.1713
  603MOL0     C79477   7.083   7.301   2.056  0.3436  0.5456 -0.0082
  603MOL0     C79478   6.967   7.355   1.962 -1.0407  0.0201 -0.2716
  603MOL0     C79479   6.956   7.298   1.825  0.5102 -0.1779  0.0747
  603MOL0     C79480   6.875   7.386   1.746  0.2597 -0.1503  0.2071
  603MOL0     N79481   6.740   7.399   1.791  0.5142 -0.1987 -0.7034
  603MOL0     C79482   6.678   7.514   1.852 -0.5358 -0.5693 -0.0711
  603MOL0     C79483   6.550   7.466   1.862  0.9393  1.0767  0.4202
  603MOL0     C79484   6.442   7.572   1.888  0.2810 -0.1289 -0.1541
  603MOL0     C79485   6.308   7.520   1.930  1.3347  0.1301 -0.3159
  603MOL0     C79486   6.207   7.637   1.961 -0.7199 -0.4276  0.9767
  603MOL0     C79487   6.061   7.583   1.960 -0.1642  0.1459  0.0079
  603MOL0     O79488   6.032   7.529   2.087 -0.0279  1.4084  0.5885
  603MOL0     C79489   5.902   7.518   2.132 -0.4711 -0.2710  1.2058
  603MOL0     C79490   5.877   7.496   2.268 -0.1177  0.3664  1.2959
  603MOL0     C79491   5.747   7.510   2.312 -0.3451 -0.0750  0.2377
  603MOL0     C79492   5.633   7.516   2.227  0.9425 -0.2011 -0.3705
  603MOL0     C79493   5.497   7.520   2.280 -0.3129  0.6138 -0.3088
  603MOL0     O79494   5.395   7.532   2.180  0.2914  0.4011 -0.3178
  603MOL0     C79495   5.263   7.546   2.209 -0.4476 -0.0140  0.1351
  603MOL0     C79496   5.195   7.541   2.332  0.2554  0.0742 -0.8444
  603MOL0     C79497   5.057   7.571   2.338  0.2249 -0.6087  0.0572
  603MOL0     C79498   4.985   7.609   2.219 -0.6032  0.2840 -0.1159
  603MOL0     O79499   4.852   7.625   2.211  0.1182  0.7103 -0.0011
  603MOL0     C79500   4.782   7.645   2.339 -0.4985 -0.1011 -0.3108
  603MOL0     C79501   4.626   7.685   2.324 -0.7836  0.3444  0.1681
  603MOL0     C79502   4.584   7.775   2.433 -1.2681  0.3725 -0.4560
  603MOL0     C79503   4.430   7.790   2.426 -1.4467 -0.3977  0.4109
  603MOL0     C79504   4.367   7.893   2.524 -0.4635 -0.6449 -0.4108
  603MOL0     C79505   4.391   7.862   2.677  0.4444  0.0200 -0.3678
  603MOL0     C79506   4.311   7.967   2.765 -0.4461  0.0855 -0.5326
  603MOL0     C79507   4.377   7.970   2.903  0.3340 -0.1729 -0.7356
  603MOL0    Cl79508   4.282   8.078   3.005  0.0051  0.2589 -0.3236
  603MOL0     C79509   5.058   7.616   2.103  0.2571 -0.4812 -0.3797
  603MOL0     C79510   5.186   7.577   2.098 -0.2309 -0.6903 -0.2531
  603MOL0     O79511   5.479   7.513   2.399 -0.1690 -0.1494  0.1327
  603MOL0     C79512   5.656   7.525   2.088 -0.8514  0.1549  0.3430
  603MOL0     C79513   5.793   7.533   2.046  0.0945 -0.8891 -0.8571
  603MOL0     N79514   6.543   7.331   1.826  0.8547 -0.7810  0.1871
  603MOL0     N79515   6.651   7.291   1.783  0.2907  0.0358  0.3867
  603MOL0     C79516   7.840   6.981   1.958 -0.3416 -0.7606  0.4237
  603MOL0     C79517   7.934   6.882   1.979 -1.0509  0.2338  0.3338
  603MOL0     C79518   8.348   6.738   2.076 -0.6101  0.2420 -0.6415
  603MOL0     C79519   8.328   6.605   2.033 -0.7336  0.2479 -0.4334
  603MOL0     C79520   8.440   6.518   2.018  0.1761 -0.6493  0.3250
  603MOL0     C79521   8.571   6.561   2.038 -0.9461 -0.0024  0.6763
  603MOL0     O79522   8.671   6.473   2.023  0.1716 -0.6518 -0.2119
  603MOL0     C79523   8.807   6.514   2.001 -0.2153  0.0241  0.2598
  603MOL0     C79524   8.886   6.388   1.956  0.3427 -0.4375 -0.0121
  603MOL0     C79525   9.029   6.417   1.936 -0.7468  1.0001  0.2836
  603MOL0     C79526   9.102   6.490   2.050 -0.1789  0.3235 -0.9052
  603MOL0     C79527   9.241   6.471   2.026  0.5590  0.2745 -0.0162
  603MOL0     C79528   9.355   6.451   1.986 -0.5974  0.1553  0.1898
  603MOL0     C79529   8.589   6.704   2.064  0.3725  0.5234  0.1572
  603MOL0     C79530   8.481   6.792   2.089 -0.8660  0.0368 -0.2202
  603MOL0     H79531   7.990   6.916   2.310 -0.7699  1.0075  0.4512
  603MOL0     H79532   7.789   7.054   2.288 -3.2153  3.6565 -2.8199
  603MOL0     H79533   7.574   7.138   2.229 -0.4690 -0.4807  0.2661
  603MOL0     H79534   7.527   7.021   2.112 -0.1481  0.3908  2.3993
  603MOL0     H79535   7.476   7.201   1.955 -0.9010  1.4625 -0.8238
  603MOL0     H79536   7.505   7.327   2.087 -2.1398  0.3752  3.5316
  603MOL0     H79537   7.298   7.230   2.195  1.0826 -0.1787  0.2317
  603MOL0     H79538   7.287   7.107   2.071  1.5778 -0.8761  1.6574
  603MOL0     H79539   7.264   7.409   2.009  2.5388  0.1445 -0.7407
  603MOL0     H79540   7.231   7.267   1.906  1.3103 -0.0596  0.2405
  603MOL0     H79541   7.083   7.357   2.151  0.8545  1.4420 -0.5181
  603MOL0     H79542   7.048   7.200   2.079  0.0552 -0.6940 -4.9226
  603MOL0     H79543   6.978   7.464   1.964  2.4323 -0.2429  1.0044
  603MOL0     H79544   6.873   7.352   2.018 -1.2424  1.3087 -0.5008
  603MOL0     H79545   7.059   7.303   1.789  0.6909  1.1784  0.7315
  603MOL0     H79546   6.917   7.197   1.806 -1.1260  0.9251 -3.2022
  603MOL0     H79547   6.872   7.351   1.643  1.0320 -2.5225  0.9299
  603MOL0     H79548   6.917   7.487   1.741 -1.3405  0.5061 -0.7469
  603MOL0     H79549   6.716   7.610   1.884  1.2006 -1.8163  1.8260
  603MOL0     H79550   6.421   7.620   1.792 -2.1680 -3.5331 -1.5505
  603MOL0     H79551   6.468   7.640   1.969 -0.0646 -0.9454  0.6724
  603MOL0     H79552   6.317   7.453   2.016 -2.4354 -2.4027 -1.6150
  603MOL0     H79553   6.264   7.464   1.846 -0.6374  1.1916 -0.0587
  603MOL0     H79554   6.222   7.684   2.059 -0.6293  1.2963  0.1861
  603MOL0     H79555   6.224   7.712   1.883 -0.5538 -0.4471  0.9923
  603MOL0     H79556   6.036   7.508   1.885 -3.5339 -1.8305  2.7835
  603MOL0     H79557   5.998   7.672   1.948  2.1762  1.9041 -0.0172
  603MOL0     H79558   5.958   7.490   2.340 -0.7482 -2.1804  1.8876
  603MOL0     H79559   5.729   7.492   2.417 -0.2419  2.0583  0.6658
  603MOL0     H79560   5.243   7.505   2.422  0.8770  1.9016 -0.4093
  603MOL0     H79561   5.006   7.553   2.432  1.2937 -3.0284  0.2377
  603MOL0     H79562   4.847   7.712   2.397  0.6668 -2.3063  1.0893
  603MOL0     H79563   4.794   7.553   2.397  0.3536 -0.2442 -0.6921
  603MOL0     H79564   4.563   7.596   2.334 -1.6309  0.8286 -0.7580
  603MOL0     H79565   4.613   7.735   2.228  2.6542  1.8678  0.3581
  603MOL0     H79566   4.625   7.875   2.422 -1.3294  0.4556  0.0715
  603MOL0     H79567   4.610   7.732   2.530 -0.6459 -0.8247 -1.1233
  603MOL0     H79568   4.405   7.826   2.326 -1.1995 -1.9352 -0.2388
  603MOL0     H79569   4.384   7.692   2.444  1.6426 -1.5479  2.9714
  603MOL0     H79570   4.260   7.911   2.516 -1.0123 -3.2508  0.2144
  603MOL0     H79571   4.414   7.987   2.493 -2.8924  0.3502 -1.2589
  603MOL0     H79572   4.498   7.857   2.701  0.7053 -1.9920 -1.6835
  603MOL0     H79573   4.350   7.764   2.703 -0.8822  0.4947 -0.5951
  603MOL0     H79574   4.322   8.066   2.718  1.3623  0.4581  0.5761
  603MOL0     H79575   4.204   7.943   2.766 -0.7282  1.2738 -1.0092
  603MOL0     H79576   4.478   8.011   2.898  0.2476 -0.0005 -1.1416
  603MOL0     H79577   4.375   7.872   2.951 -0.9513 -0.9830 -2.3615
  603MOL0     H79578   5.008   7.644   2.011 -1.0604  0.7759  0.6542
  603MOL0     H79579   5.234   7.576   2.001 -0.3415 -0.5692 -0.3095
  603MOL0     H79580   5.582   7.518   2.009 -0.5690 -1.7229  0.2083
  603MOL0     H79581   5.812   7.540   1.940  0.1709 -3.4521 -1.0800
  603MOL0     H79582   7.821   7.017   1.858 -0.6225 -1.7810  0.1010
  603MOL0     H79583   7.977   6.816   1.905 -1.0100 -1.3408  1.7118
  603MOL0     H79584   8.228   6.566   2.018  0.3408 -3.2880  0.3652
  603MOL0     H79585   8.411   6.420   1.983 -4.1159  0.7494 -0.7062
  603MOL0     H79586   8.848   6.558   2.093 -0.5066  1.1649 -0.1296
  603MOL0     H79587   8.834   6.585   1.922  1.4966 -1.7282 -0.8146
  603MOL0     H79588   8.867   6.316   2.037 -0.7263  0.3980  0.5061
  603MOL0     H79589   8.842   6.331   1.873  0.3803  0.0907 -0.4004
  603MOL0     H79590   9.023   6.489   1.854 -3.3880  0.9874  0.3702
  603MOL0     H79591   9.067   6.324   1.893 -0.5191  0.9723  0.5391
  603MOL0     H79592   9.077   6.597   2.048 -0.9522  0.1607 -0.3149
  603MOL0     H79593   9.075   6.453   2.149 -2.5673  1.1843 -1.1554
  603MOL0     H79594   9.451   6.431   1.943  0.4522 -0.1961  2.5101
  603MOL0     H79595   8.693   6.733   2.074  0.0875  1.1300  1.6516
  603MOL0     H79596   8.507   6.897   2.106  0.0808 -0.2602  0.2350
  604MOL0     O79597   8.259   1.784   0.567 -0.4502  0.1145  0.3143
  604MOL0     C79598   8.259   1.674   0.515 -0.1028 -0.5732  0.4001
  604MOL0     O79599   8.153   1.601   0.479 -0.6248 -0.0938  0.0286
  604MOL0     C79600   8.027   1.653   0.506 -0.0985  1.3731  0.2106
  604MOL0     C79601   7.994   1.780   0.441  0.3767 -0.1520  0.6906
  604MOL0     C79602   7.866   1.828   0.465 -0.2768 -0.6208 -0.9253
  604MOL0     C79603   7.782   1.767   0.565  0.5504  0.7467 -0.6193
  604MOL0     O79604   7.662   1.825   0.601 -0.3877  1.1458  0.2175
  604MOL0     C79605   7.637   1.846   0.745 -0.1813  0.3463  1.1416
  604MOL0     C79606   7.504   1.778   0.788 -0.4122  0.2791  0.8145
  604MOL0     C79607   7.393   1.872   0.749  0.4693 -0.1148 -0.4233
  604MOL0     C79608   7.259   1.798   0.762 -0.2399  0.4029  0.4799
  604MOL0     C79609   7.144   1.896   0.734 -0.0449 -0.2540  0.7595
  604MOL0     C79610   7.012   1.827   0.773 -0.5900 -0.0506  0.2904
  604MOL0     C79611   6.891   1.927   0.748  0.3843 -0.0711  0.3855
  604MOL0     C79612   6.757   1.864   0.775 -0.2465  0.7068 -0.4633
  604MOL0     N79613   6.644   1.951   0.764  0.4990 -0.1926 -0.3035
  604MOL0     C79614   6.584   1.993   0.646 -0.1893 -0.1886 -0.4853
  604MOL0     C79615   6.478   2.064   0.688 -1.1188 -0.3274  0.2997
  604MOL0     C79616   6.378   2.113   0.597 -0.2317 -0.0091 -0.2383
  604MOL0     C79617   6.355   2.268   0.636  0.0010  0.0345  0.0394
  604MOL0     C79618   6.224   2.313   0.574 -0.7937  0.5498  0.8114
  604MOL0     C79619   6.241   2.365   0.435  0.1375 -0.2103  0.6202
  604MOL0     O79620   6.119   2.388   0.375  0.4963  0.2690 -0.6595
  604MOL0     C79621   6.105   2.456   0.257 -0.2520 -0.8344  0.6845
  604MOL0     C79622   5.980   2.484   0.224  0.1984 -0.1109  0.5329
  604MOL0     C79623   5.946   2.544   0.104 -0.3513  0.6493 -0.8206
  604MOL0     C79624   6.049   2.565   0.008 -0.5825 -0.2179 -0.3842
  604MOL0     C79625   6.015   2.637  -0.123  1.1029 -1.1505 -1.1327
  604MOL0     O79626   6.119   2.677  -0.203 -0.5359  0.0038  0.5562
  604MOL0     C79627   6.096   2.747  -0.309  0.1387 -0.2780  0.1465
  604MOL0     C79628   6.147   2.872  -0.313 -0.4394 -0.0206 -0.8913
  604MOL0     C79629   6.125   2.952  -0.423  0.4047 -0.0379  0.6870
  604MOL0     C79630   6.047   2.904  -0.532 -0.1410 -1.0395  0.6676
  604MOL0     O79631   6.011   2.997  -0.629  0.2718  0.2931 -0.2059
  604MOL0     C79632   5.918   3.099  -0.584 -0.2822 -0.0432  0.1639
  604MOL0     C79633   5.843   3.166  -0.706 -0.0185 -0.1978  0.0479
  604MOL0     C79634   5.779   3.055  -0.793  0.2121 -0.5596  0.7938
  604MOL0     C79635   5.733   3.116  -0.923 -0.1020  0.9057  0.2208
  604MOL0     C79636   5.675   3.000  -1.016  1.0569 -0.0167  0.1642
  604MOL0     C79637   5.644   3.067  -1.149  0.1623 -0.5858  0.1790
  604MOL0     C79638   5.591   2.961  -1.254 -0.0375 -0.0135  0.0002
  604MOL0     C79639   5.606   3.031  -1.386 -0.8830 -0.4729  0.4985
  604MOL0    Cl79640   5.570   2.904  -1.515  0.1348 -0.1109 -0.1620
  604MOL0     C79641   5.995   2.771  -0.538  0.5524  0.4048 -0.3965
  604MOL0     C79642   6.019   2.697  -0.418 -0.0726  0.6827  0.0526
  604MOL0     O79643   5.894   2.658  -0.146 -0.0618  0.5667 -0.1794
  604MOL0     C79644   6.182   2.533   0.034  0.0016  0.1066 -1.1643
  604MOL0     C79645   6.209   2.480   0.162  0.2512  0.4136 -0.5564
  604MOL0     N79646   6.468   2.064   0.828 -0.9949 -0.2359 -0.0030
  604MOL0     N79647   6.575   1.999   0.878  0.8194 -0.0116 -0.0722
  604MOL0     C79648   7.822   1.651   0.629  0.1997  0.2478 -0.2272
  604MOL0     C79649   7.945   1.595   0.602  0.2843 -0.1792  0.9896
  604MOL0     C79650   8.400   1.626   0.495 -0.0594  0.3302 -0.3021
  604MOL0     C79651   8.519   1.707   0.515  0.0972  1.0109 -0.1956
  604MOL0     C79652   8.643   1.665   0.471  0.0674  0.7686 -0.7201
  604MOL0     C79653   8.657   1.532   0.420 -1.1201  0.4032  0.4888
  604MOL0     O79654   8.782   1.479   0.385 -0.0427  0.7785 -0.6199
  604MOL0     C79655   8.896   1.565   0.384  0.0246  0.2833  0.9020
  604MOL0     C79656   9.009   1.515   0.304 -0.9204 -0.1012 -0.5523
  604MOL0     C79657   9.130   1.619   0.302 -0.4426  0.2382  0.0055
  604MOL0     C79658   9.236   1.585   0.194  0.3860  0.9614 -0.9117
  604MOL0     C79659   9.282   1.444   0.216 -1.2611  0.8795 -0.2586
  604MOL0     C79660   9.322   1.329   0.247  0.0700 -0.4474  0.4771
  604MOL0     C79661   8.554   1.453   0.398 -0.2704  0.9842 -0.2830
  604MOL0     C79662   8.430   1.502   0.435  0.0152  0.4887  0.4400
  604MOL0     H79663   8.051   1.828   0.363 -1.8542  1.3994 -0.0926
  604MOL0     H79664   7.829   1.919   0.418  1.0584  1.3048  1.4732
  604MOL0     H79665   7.623   1.952   0.767  1.2625  0.6536  0.6809
  604MOL0     H79666   7.716   1.807   0.810  0.5364  0.0017  0.0972
  604MOL0     H79667   7.495   1.783   0.897 -0.9917  2.1978  0.7298
  604MOL0     H79668   7.486   1.683   0.738 -0.1859  1.6160 -2.0336
  604MOL0     H79669   7.414   1.903   0.646  1.4720  0.0164 -0.1885
  604MOL0     H79670   7.394   1.966   0.805  0.6028  2.2628 -4.0744
  604MOL0     H79671   7.250   1.699   0.716 -1.0230 -0.8887  3.1699
  604MOL0     H79672   7.262   1.777   0.869  0.4893  0.4785  0.4818
  604MOL0     H79673   7.157   1.910   0.626  3.0352  0.0274  1.0719
  604MOL0     H79674   7.160   1.987   0.793  1.7727 -2.0804  3.3065
  604MOL0     H79675   7.007   1.786   0.875 -2.8579 -1.9197 -0.4870
  604MOL0     H79676   6.991   1.746   0.702 -1.4121  1.5952 -1.4261
  604MOL0     H79677   6.902   2.022   0.802 -1.0417 -0.0757  0.7063
  604MOL0     H79678   6.904   1.962   0.645  1.2347  1.5773  1.0126
  604MOL0     H79679   6.764   1.819   0.875 -0.0342 -0.4047 -0.9751
  604MOL0     H79680   6.741   1.779   0.708 -1.0723 -1.6394  2.4719
  604MOL0     H79681   6.605   1.972   0.541  1.8631  1.8108 -0.5238
  604MOL0     H79682   6.291   2.048   0.592 -0.4562  0.2237  0.5393
  604MOL0     H79683   6.427   2.128   0.500 -1.8564 -1.5314 -1.3465
  604MOL0     H79684   6.440   2.328   0.601 -0.2296 -0.1572 -0.8674
  604MOL0     H79685   6.352   2.290   0.743 -1.0672  3.2222 -0.5446
  604MOL0     H79686   6.156   2.229   0.558 -0.8167  0.8456 -0.8179
  604MOL0     H79687   6.181   2.394   0.634 -0.6643  1.3386 -0.1369
  604MOL0     H79688   6.301   2.297   0.375  0.3473  0.5325 -0.0247
  604MOL0     H79689   6.297   2.458   0.452  1.5180 -0.5549 -1.6760
  604MOL0     H79690   5.906   2.472   0.303  1.3959  1.0074  1.8799
  604MOL0     H79691   5.846   2.575   0.076  0.1132  3.1235  0.0054
  604MOL0     H79692   6.205   2.922  -0.235  0.5925  2.4506 -3.0896
  604MOL0     H79693   6.141   3.057  -0.401 -0.5898 -0.0942  1.7539
  604MOL0     H79694   5.969   3.181  -0.532  0.7383 -1.0972  0.8758
  604MOL0     H79695   5.844   3.052  -0.518  2.4917 -2.5393  1.7850
  604MOL0     H79696   5.913   3.225  -0.765 -0.0887 -2.2106 -2.2189
  604MOL0     H79697   5.773   3.244  -0.674  0.9461  0.1950  1.2695
  604MOL0     H79698   5.690   3.011  -0.747  1.5755 -5.2410 -0.5246
  604MOL0     H79699   5.856   2.978  -0.801  3.3674  2.5272 -2.0290
  604MOL0     H79700   5.654   3.190  -0.908 -1.0328 -0.0962  0.3962
  604MOL0     H79701   5.824   3.154  -0.971  1.1339  0.5816  2.2121
  604MOL0     H79702   5.586   2.954  -0.973  1.6742 -1.1688  0.2417
  604MOL0     H79703   5.756   2.929  -1.033  0.5586 -0.6533  0.4440
  604MOL0     H79704   5.744   3.100  -1.179 -0.0147  0.4379  0.6718
  604MOL0     H79705   5.581   3.155  -1.134 -0.6607 -1.1802  0.2772
  604MOL0     H79706   5.650   2.870  -1.249  0.6983  0.5044  1.0563
  604MOL0     H79707   5.487   2.935  -1.234 -0.0678  0.5062  0.5592
  604MOL0     H79708   5.703   3.077  -1.407 -0.6709 -0.9643  0.3836
  604MOL0     H79709   5.532   3.111  -1.388  1.4109  1.7454 -1.6590
  604MOL0     H79710   5.937   2.724  -0.617 -0.7159 -0.8245  1.2053
  604MOL0     H79711   5.975   2.598  -0.408 -0.1275  0.4889 -1.7603
  604MOL0     H79712   6.258   2.548  -0.042 -0.2453 -1.9952 -1.8867
  604MOL0     H79713   6.311   2.465   0.194  0.4119 -0.1004 -1.2831
  604MOL0     H79714   7.755   1.608   0.703  1.6181 -2.0555 -0.1635
  604MOL0     H79715   7.973   1.499   0.645 -0.9988 -1.2892 -0.5558
  604MOL0     H79716   8.504   1.805   0.559 -0.9252  1.4170 -1.4091
  604MOL0     H79717   8.727   1.732   0.491  1.1622 -0.5809 -0.6040
  604MOL0     H79718   8.933   1.600   0.481  0.7907  0.4849  0.5383
  604MOL0     H79719   8.865   1.661   0.341  1.5030  1.6894  2.7764
  604MOL0     H79720   9.052   1.426   0.352  0.5530  0.6939 -0.3239
  604MOL0     H79721   8.983   1.482   0.203 -1.1645 -2.6258  0.2661
  604MOL0     H79722   9.184   1.611   0.397  0.2433 -0.0063 -0.3969
  604MOL0     H79723   9.081   1.713   0.277 -0.3842 -0.3752 -2.6529
  604MOL0     H79724   9.188   1.601   0.097  0.2323 -1.3001 -1.2507
  604MOL0     H79725   9.314   1.661   0.188  0.4178  0.8240 -4.0158
  604MOL0     H79726   9.331   1.228   0.279  0.2248 -0.5606  0.0882
  604MOL0     H79727   8.566   1.366   0.333  2.5446 -0.1950  1.6242
  604MOL0     H79728   8.344   1.440   0.409  0.3079 -0.5252  1.7673
  605MOL0     O79729   3.613   5.955   4.141 -0.2360 -0.0740 -0.1012
  605MOL0     C79730   3.667   5.958   4.253  0.1084 -0.1443 -0.3331
  605MOL0     O79731   3.599   5.968   4.373  0.1478  0.2354  0.1345
  605MOL0     C79732   3.459   5.987   4.361 -0.0220 -0.4171  0.2959
  605MOL0     C79733   3.400   6.102   4.309  0.0516  0.7134  0.2709
  605MOL0     C79734   3.261   6.119   4.304 -1.1881  0.2001 -0.3963
  605MOL0     C79735   3.182   6.023   4.364  0.1163  0.3665 -0.1307
  605MOL0     O79736   3.041   6.031   4.361  0.2524 -0.3773  0.6612
  605MOL0     C79737   2.979   6.142   4.420  0.0234 -0.1506  0.2012
  605MOL0     C79738   2.985   6.145   4.575 -0.1837  0.2836 -0.1526
  605MOL0     C79739   2.881   6.062   4.640 -0.1580  0.2371  0.5290
  605MOL0     C79740   2.846   6.124   4.777 -0.9250  0.0835  0.0836
  605MOL0     C79741   2.731   6.044   4.837  0.6130 -0.3051  0.3745
  605MOL0     C79742   2.786   5.935   4.939 -0.1438 -0.1667  0.6738
  605MOL0     C79743   2.682   5.887   5.040  0.9360  0.0673 -0.0455
  605MOL0     C79744   2.743   5.827   5.166  0.5584  0.6452  0.5130
  605MOL0     N79745   2.806   5.694   5.135  0.1539 -0.2999  0.1002
  605MOL0     C79746   2.942   5.664   5.126 -0.2107 -0.3055 -0.2785
  605MOL0     C79747   2.943   5.530   5.104 -0.7162 -0.3553  0.8372
  605MOL0     C79748   3.059   5.431   5.084  0.7982  1.0047  0.0762
  605MOL0     C79749   3.198   5.483   5.101  0.6365  1.1301  0.1421
  605MOL0     C79750   3.301   5.366   5.118 -0.5755  0.0979  0.2573
  605MOL0     C79751   3.449   5.396   5.067 -0.2211  0.2237 -0.5011
  605MOL0     O79752   3.458   5.395   4.921 -0.2055 -0.1293  0.0260
  605MOL0     C79753   3.569   5.445   4.865  1.3156 -1.6796  0.5969
  605MOL0     C79754   3.704   5.417   4.901  0.0818  0.2585 -0.3008
  605MOL0     C79755   3.805   5.463   4.814  0.0620 -0.4926 -0.0269
  605MOL0     C79756   3.781   5.525   4.691  0.2257  0.5811 -0.0938
  605MOL0     C79757   3.888   5.570   4.606  0.0558 -0.0633  0.8272
  605MOL0     O79758   4.014   5.532   4.641 -0.3594 -1.0736  0.0566
  605MOL0     C79759   4.115   5.543   4.543 -0.4265  0.0138  0.7686
  605MOL0     C79760   4.182   5.660   4.505  0.4473  0.4842  0.2590
  605MOL0     C79761   4.282   5.655   4.404 -0.1972 -0.5988  0.1781
  605MOL0     C79762   4.318   5.538   4.340  0.3097  0.7830 -0.1286
  605MOL0     O79763   4.423   5.538   4.245 -0.0465  0.1331  0.0336
  605MOL0     C79764   4.493   5.415   4.246  0.8572 -0.7340  0.7848
  605MOL0     C79765   4.617   5.437   4.156 -0.4984 -0.4271 -0.2606
  605MOL0     C79766   4.714   5.317   4.165  0.4006  0.5363  0.2103
  605MOL0     C79767   4.852   5.332   4.113 -0.6349  1.0354  0.3409
  605MOL0     C79768   4.953   5.237   4.172 -0.4113  0.1671 -0.7571
  605MOL0     C79769   5.094   5.243   4.104  0.2380 -1.6900  0.2820
  605MOL0     C79770   5.191   5.128   4.132  0.4540 -0.0702  0.8743
  605MOL0     C79771   5.286   5.156   4.245  0.4919 -0.3301 -0.2281
  605MOL0    Cl79772   5.398   5.286   4.202  0.5243 -0.1241 -0.1485
  605MOL0     C79773   4.239   5.421   4.370 -0.1245  0.3874 -1.5731
  605MOL0     C79774   4.143   5.422   4.476  0.2249  0.0356 -0.4622
  605MOL0     O79775   3.858   5.637   4.504  0.1707  0.6015  0.6672
  605MOL0     C79776   3.648   5.534   4.650  0.0973  0.1691  0.0597
  605MOL0     C79777   3.539   5.502   4.741 -0.2196  0.1271 -0.6776
  605MOL0     N79778   2.817   5.486   5.097  0.7227 -0.1912 -0.1027
  605MOL0     N79779   2.736   5.582   5.127  0.6349 -0.2005  0.1872
  605MOL0     C79780   3.233   5.919   4.430 -0.4282  0.1695  0.6584
  605MOL0     C79781   3.374   5.893   4.428 -0.3232 -0.2618  0.1216
  605MOL0     C79782   3.809   5.974   4.250 -0.0531 -0.2297 -0.4827
  605MOL0     C79783   3.898   5.965   4.138  0.5905  0.0273 -0.7620
  605MOL0     C79784   4.035   5.989   4.150  0.1855  0.1532 -0.2800
  605MOL0     C79785   4.093   6.036   4.269 -0.4489 -0.5143 -0.0694
  605MOL0     O79786   4.224   6.080   4.284 -0.0027  0.4581  0.3075
  605MOL0     C79787   4.315   6.071   4.173 -0.1267 -0.5223 -0.2386
  605MOL0     C79788   4.460   6.114   4.205  1.0621  0.7124  0.4827
  605MOL0     C79789   4.541   6.002   4.276  0.1794  0.3423 -0.2201
  605MOL0     C79790   4.675   6.054   4.324 -0.2838  0.1237 -0.3573
  605MOL0     C79791   4.777   5.955   4.373 -0.3284  0.0244  0.2682
  605MOL0     C79792   4.850   5.857   4.407  1.3501 -0.7557  0.9391
  605MOL0     C79793   4.011   6.048   4.378  1.0663  0.0303  0.0297
  605MOL0     C79794   3.876   6.019   4.371 -0.2398  0.0964 -0.0706
  605MOL0     H79795   3.461   6.178   4.263 -0.5521  0.7128 -0.5524
  605MOL0     H79796   3.228   6.212   4.258  3.8693  1.6696 -1.7090
  605MOL0     H79797   2.872   6.133   4.399 -0.0012  1.7713 -0.7593
  605MOL0     H79798   3.016   6.236   4.377  0.4528 -0.5771 -0.3676
  605MOL0     H79799   2.974   6.250   4.606 -0.7308 -0.4774  2.5494
  605MOL0     H79800   3.082   6.104   4.606 -0.9933 -1.3319  0.3792
  605MOL0     H79801   2.922   5.962   4.654 -0.1603  0.3419  1.3241
  605MOL0     H79802   2.792   6.055   4.577  0.8926  0.0259 -0.9838
  605MOL0     H79803   2.928   6.139   4.848 -3.0152  2.0087  2.3138
  605MOL0     H79804   2.815   6.228   4.759 -0.3276 -0.1832 -3.2043
  605MOL0     H79805   2.667   5.996   4.762 -1.7808 -0.3286  2.2994
  605MOL0     H79806   2.666   6.119   4.884  2.0318 -1.1633  4.0631
  605MOL0     H79807   2.867   5.978   4.999 -0.6680  1.7839  0.0652
  605MOL0     H79808   2.826   5.848   4.887  2.1759  1.7307 -0.9482
  605MOL0     H79809   2.616   5.967   5.077 -5.2247 -3.5644 -1.7876
  605MOL0     H79810   2.608   5.822   4.993  1.7159 -0.4768 -0.5244
  605MOL0     H79811   2.676   5.812   5.252  2.4062  1.0086  2.0968
  605MOL0     H79812   2.816   5.899   5.203 -2.2217  4.1202 -0.2192
  605MOL0     H79813   3.016   5.742   5.144 -0.5747  0.3149 -1.3716
  605MOL0     H79814   3.041   5.372   4.995  0.6517  1.8608 -0.4747
  605MOL0     H79815   3.038   5.353   5.158 -0.4338 -0.7645 -2.0274
  605MOL0     H79816   3.204   5.549   5.188 -0.8443  2.2105 -0.5309
  605MOL0     H79817   3.221   5.546   5.014 -0.3686  0.5569 -0.5660
  605MOL0     H79818   3.304   5.342   5.224 -0.9848 -0.3209  0.1760
  605MOL0     H79819   3.273   5.270   5.075  1.2596 -1.3735  2.1678
  605MOL0     H79820   3.519   5.325   5.112  0.7697  1.0834 -0.6539
  605MOL0     H79821   3.474   5.496   5.104 -1.7173 -0.0274  1.3784
  605MOL0     H79822   3.722   5.374   4.999  0.7876 -1.2152 -1.0514
  605MOL0     H79823   3.898   5.455   4.869 -1.3839 -1.7058  2.4089
  605MOL0     H79824   4.170   5.750   4.565 -2.3023  0.3654  0.0093
  605MOL0     H79825   4.343   5.744   4.398 -2.4367  1.0595  0.5366
  605MOL0     H79826   4.437   5.335   4.195  2.1291 -0.3101 -1.4208
  605MOL0     H79827   4.524   5.383   4.346 -1.2020 -2.6466  0.8973
  605MOL0     H79828   4.677   5.520   4.193  0.8816 -1.1437 -0.8038
  605MOL0     H79829   4.577   5.466   4.059 -1.4599  1.4196  0.6433
  605MOL0     H79830   4.665   5.230   4.121  1.5541  0.0380 -0.1352
  605MOL0     H79831   4.726   5.299   4.273 -0.5749  2.7350  0.7315
  605MOL0     H79832   4.846   5.321   4.004 -2.7523  1.6961  0.3275
  605MOL0     H79833   4.891   5.433   4.126 -0.5798  1.0379  0.1618
  605MOL0     H79834   4.914   5.137   4.153 -0.3158  0.1870 -1.0685
  605MOL0     H79835   4.974   5.258   4.277  5.0329  1.8609 -1.8516
  605MOL0     H79836   5.134   5.343   4.120  2.1589 -2.0397 -1.8697
  605MOL0     H79837   5.074   5.239   3.997 -0.0166 -0.8359  0.2894
  605MOL0     H79838   5.119   5.047   4.145  0.7948 -0.7922 -1.2551
  605MOL0     H79839   5.256   5.115   4.045  1.0751 -2.3862  1.6278
  605MOL0     H79840   5.345   5.064   4.254 -2.2769 -2.1142  1.2560
  605MOL0     H79841   5.230   5.169   4.338  2.9669 -0.2791  1.3369
  605MOL0     H79842   4.257   5.322   4.330 -2.0160 -1.0090  0.7854
  605MOL0     H79843   4.100   5.329   4.511  0.7391 -0.1452 -0.3075
  605MOL0     H79844   3.617   5.572   4.554  0.4519 -2.1656 -1.0475
  605MOL0     H79845   3.439   5.534   4.716 -0.0340 -1.3475 -3.6515
  605MOL0     H79846   3.152   5.859   4.470 -0.8998  0.9644  0.8994
  605MOL0     H79847   3.418   5.803   4.470 -1.6498 -1.1059 -0.2503
  605MOL0     H79848   3.851   5.931   4.046  1.0879 -0.9424 -0.6706
  605MOL0     H79849   4.102   5.969   4.067 -0.1007 -0.2987 -0.4004
  605MOL0     H79850   4.278   6.140   4.096  1.5797 -0.0879 -0.7131
  605MOL0     H79851   4.319   5.973   4.125  2.0138 -0.8517  0.5013
  605MOL0     H79852   4.506   6.133   4.107 -0.5191 -3.3424 -1.2586
  605MOL0     H79853   4.446   6.192   4.280  0.3000 -1.9047  3.2836
  605MOL0     H79854   4.555   5.925   4.200 -0.6744  1.3642 -1.4566
  605MOL0     H79855   4.476   5.958   4.352 -1.8235 -0.7451 -2.4349
  605MOL0     H79856   4.713   6.101   4.233  0.0346  2.3576  0.8615
  605MOL0     H79857   4.651   6.126   4.403 -0.8172 -0.3710 -0.0558
  605MOL0     H79858   4.910   5.777   4.446  0.2425 -1.4656  1.2257
  605MOL0     H79859   4.060   6.073   4.472  1.8659  0.8676 -0.5846
  605MOL0     H79860   3.816   6.048   4.457 -0.9797 -2.1657  0.2275
  606MOL0     O79861   5.714   2.433   1.988 -0.3755 -0.3668  0.2468
  606MOL0     C79862   5.799   2.389   1.912 -0.4435  0.0032 -0.4242
  606MOL0     O79863   5.770   2.339   1.791 -0.0964  0.6338  0.3714
  606MOL0     C79864   5.636   2.314   1.766 -0.9095 -0.2384 -1.1804
  606MOL0     C79865   5.557   2.407   1.703 -0.4394 -0.4394 -1.1820
  606MOL0     C79866   5.421   2.390   1.679 -0.5800 -0.4659  0.8553
  606MOL0     C79867   5.371   2.255   1.710 -0.5539 -0.3963 -0.5105
  606MOL0     O79868   5.249   2.216   1.674 -0.0106  0.3193 -0.4559
  606MOL0     C79869   5.157   2.332   1.651 -0.7292  0.1201  0.4964
  606MOL0     C79870   5.017   2.271   1.637  0.3748 -0.3541 -0.5545
  606MOL0     C79871   4.915   2.382   1.619  0.4957 -0.2118 -0.7743
  606MOL0     C79872   4.782   2.330   1.679 -0.5777 -0.1381 -0.1826
  606MOL0     C79873   4.661   2.387   1.607  0.1139 -0.2545  0.3002
  606MOL0     C79874   4.528   2.343   1.678 -0.9532  0.4298 -0.5328
  606MOL0     C79875   4.396   2.362   1.598  0.8106 -0.6694  0.7425
  606MOL0     C79876   4.280   2.313   1.680  0.3143  0.5258  0.3617
  606MOL0     N79877   4.156   2.357   1.610 -0.5300 -0.0312 -0.4820
  606MOL0     C79878   4.095   2.478   1.609  0.0138  0.0551 -0.3373
  606MOL0     C79879   3.984   2.467   1.531 -0.1607 -0.3261  0.7173
  606MOL0     C79880   3.894   2.584   1.501 -0.4181 -0.2644  0.5349
  606MOL0     C79881   3.747   2.542   1.513  1.1450  0.7524  0.0765
  606MOL0     C79882   3.704   2.454   1.388  0.0639  0.8512 -0.4171
  606MOL0     C79883   3.554   2.416   1.385  0.3526  0.3857 -0.5387
  606MOL0     O79884   3.479   2.531   1.364 -0.1882 -0.4915 -0.3188
  606MOL0     C79885   3.343   2.543   1.331  0.1125 -0.2699  0.5222
  606MOL0     C79886   3.299   2.654   1.262 -0.7025 -0.3388 -0.2640
  606MOL0     C79887   3.165   2.674   1.228  0.7364 -0.7116  0.3425
  606MOL0     C79888   3.069   2.571   1.250  0.8766 -0.3499 -0.2330
  606MOL0     C79889   2.928   2.588   1.209 -0.6341 -0.6662 -0.0533
  606MOL0     O79890   2.835   2.503   1.258 -0.2375  0.0659  0.3603
  606MOL0     C79891   2.719   2.501   1.187  0.6798 -0.0467  0.3356
  606MOL0     C79892   2.603   2.523   1.247 -0.1620  0.7302 -0.1400
  606MOL0     C79893   2.487   2.532   1.185  0.9679  0.3030 -0.2366
  606MOL0     C79894   2.480   2.480   1.056  0.4140 -0.5439  0.0268
  606MOL0     O79895   2.352   2.477   1.002 -0.3719 -0.0387 -0.5363
  606MOL0     C79896   2.331   2.374   0.900 -0.7285  0.5755 -0.2638
  606MOL0     C79897   2.183   2.348   0.870  0.1225 -0.4466 -0.3084
  606MOL0     C79898   2.109   2.313   1.006  0.8021  0.6875  0.3255
  606MOL0     C79899   1.957   2.290   0.969  0.5758  0.5492 -0.3358
  606MOL0     C79900   1.877   2.236   1.081  0.3192  1.2095  0.2646
  606MOL0     C79901   1.733   2.216   1.057  0.1225  0.6849  1.1200
  606MOL0     C79902   1.666   2.162   1.189 -0.6015 -0.2179  0.3471
  606MOL0     C79903   1.538   2.076   1.143 -0.7040  0.6304 -0.3640
  606MOL0    Cl79904   1.450   2.020   1.293  0.6678 -0.1550  0.1944
  606MOL0     C79905   2.599   2.447   0.989  0.7967  0.1200  0.0460
  606MOL0     C79906   2.717   2.461   1.057  0.0740 -0.0356 -0.3402
  606MOL0     O79907   2.899   2.697   1.154  1.3025 -0.3800  0.3333
  606MOL0     C79908   3.113   2.457   1.317  0.4441 -0.3823  0.4327
  606MOL0     C79909   3.244   2.443   1.356 -0.8693 -0.7636 -0.3332
  606MOL0     N79910   3.981   2.335   1.481 -0.0475  0.0684  0.4052
  606MOL0     N79911   4.085   2.272   1.524 -0.5501 -0.0490 -0.2001
  606MOL0     C79912   5.453   2.160   1.768 -0.4546  0.4013  0.0858
  606MOL0     C79913   5.592   2.186   1.799  0.4652 -0.6784 -0.5000
  606MOL0     C79914   5.939   2.425   1.955 -0.3080 -0.1050  0.6992
  606MOL0     C79915   5.979   2.424   2.088  0.9331  0.9088  0.4683
  606MOL0     C79916   6.119   2.445   2.118 -0.1201  0.0660 -0.0869
  606MOL0     C79917   6.212   2.469   2.024  0.2351  0.3525  0.4841
  606MOL0     O79918   6.339   2.492   2.059 -0.1785  0.0446 -0.0607
  606MOL0     C79919   6.406   2.408   2.153 -0.1680  0.1352 -0.3283
  606MOL0     C79920   6.553   2.442   2.178 -0.5242 -0.0569 -0.4411
  606MOL0     C79921   6.571   2.600   2.198 -0.7166  0.0167 -0.1699
  606MOL0     C79922   6.632   2.624   2.329  0.1128 -1.1265  0.0700
  606MOL0     C79923   6.538   2.633   2.436  0.0671  0.0372 -0.1967
  606MOL0     C79924   6.467   2.628   2.534 -0.5220 -0.3783 -0.9048
  606MOL0     C79925   6.172   2.477   1.896 -0.6972 -0.5572  0.5325
  606MOL0     C79926   6.043   2.447   1.858  0.2405 -0.0345  0.1268
  606MOL0     H79927   5.604   2.500   1.673 -2.2255  1.2219  0.7557
  606MOL0     H79928   5.353   2.465   1.638 -3.0346 -1.6670  2.4792
  606MOL0     H79929   5.187   2.397   1.568  1.6473  0.1928  1.3472
  606MOL0     H79930   5.150   2.393   1.741 -2.6051  0.2338  0.3271
  606MOL0     H79931   5.003   2.215   1.730  3.3016  0.1912  0.3366
  606MOL0     H79932   5.001   2.219   1.542  1.5547  1.1292 -1.5995
  606MOL0     H79933   4.907   2.412   1.514  3.0133 -1.3963 -1.4064
  606MOL0     H79934   4.932   2.473   1.676 -0.5606  0.5805 -1.6871
  606MOL0     H79935   4.780   2.221   1.677 -0.9442 -0.1392  0.1865
  606MOL0     H79936   4.773   2.371   1.780 -3.1549  0.9551 -0.7774
  606MOL0     H79937   4.664   2.346   1.506  1.6593 -0.0096  0.2250
  606MOL0     H79938   4.668   2.494   1.586  4.7454 -0.9095 -2.9914
  606MOL0     H79939   4.514   2.405   1.767 -2.4154  1.7495 -1.6279
  606MOL0     H79940   4.544   2.235   1.684 -2.4538  0.2519  4.2230
  606MOL0     H79941   4.382   2.468   1.578 -1.1936 -0.7410  1.5697
  606MOL0     H79942   4.392   2.305   1.505 -1.8224 -2.4362  1.8370
  606MOL0     H79943   4.289   2.355   1.781  0.8871 -2.0549  1.4850
  606MOL0     H79944   4.275   2.204   1.687 -0.0937  0.5961  1.2769
  606MOL0     H79945   4.129   2.576   1.641  2.2017 -0.7375 -0.0523
  606MOL0     H79946   3.916   2.611   1.397  2.6017 -1.6315  0.6991
  606MOL0     H79947   3.910   2.672   1.564  1.6532 -2.0493  2.7117
  606MOL0     H79948   3.674   2.624   1.517  0.3955  0.2626 -1.9739
  606MOL0     H79949   3.727   2.493   1.609 -2.4525  0.2396 -0.7853
  606MOL0     H79950   3.733   2.499   1.293  4.1470  1.4563  0.9427
  606MOL0     H79951   3.753   2.356   1.389 -2.1853 -0.3524 -0.5726
  606MOL0     H79952   3.528   2.359   1.474  3.0826 -2.1007 -1.1976
  606MOL0     H79953   3.534   2.347   1.302 -1.3425 -0.1180  0.2430
  606MOL0     H79954   3.371   2.734   1.250 -0.2305 -0.7710 -0.3652
  606MOL0     H79955   3.131   2.771   1.192  3.0094  0.1009  0.2141
  606MOL0     H79956   2.603   2.542   1.354  0.0196  1.0581 -0.1961
  606MOL0     H79957   2.399   2.570   1.234 -1.4938 -3.0296 -1.6796
  606MOL0     H79958   2.372   2.279   0.935 -0.7611  0.3512 -0.8249
  606MOL0     H79959   2.375   2.413   0.808  0.9998  1.8418  1.0188
  606MOL0     H79960   2.173   2.276   0.789  0.6784  0.7414 -1.4668
  606MOL0     H79961   2.134   2.440   0.835  0.0761 -0.7500 -1.0618
  606MOL0     H79962   2.121   2.383   1.089 -1.1860 -0.6925  1.8586
  606MOL0     H79963   2.150   2.221   1.049  1.1218  0.0155 -1.3596
  606MOL0     H79964   1.914   2.386   0.937  0.4049 -0.9503 -5.5842
  606MOL0     H79965   1.955   2.219   0.886 -2.9204 -0.9558  0.8743
  606MOL0     H79966   1.885   2.301   1.169 -1.0435 -1.5690  2.5871
  606MOL0     H79967   1.922   2.140   1.106 -0.1222  0.8926 -0.1513
  606MOL0     H79968   1.721   2.144   0.976 -2.1697  0.3740  1.6747
  606MOL0     H79969   1.688   2.312   1.031 -0.1700  0.4176  0.6391
  606MOL0     H79970   1.732   2.109   1.258  0.0692  0.0349 -0.0888
  606MOL0     H79971   1.615   2.242   1.243 -1.1997  0.6388 -1.4169
  606MOL0     H79972   1.564   1.997   1.072  0.1453 -0.5109  1.1706
  606MOL0     H79973   1.459   2.130   1.090 -4.1358 -0.7078  2.9109
  606MOL0     H79974   2.605   2.400   0.891 -0.0353 -3.9613  1.7466
  606MOL0     H79975   2.811   2.436   1.009 -0.5151 -1.2332 -0.9088
  606MOL0     H79976   3.048   2.371   1.333  1.7475 -1.3683  0.6425
  606MOL0     H79977   3.273   2.346   1.395  1.5728 -0.9839 -2.4236
  606MOL0     H79978   5.430   2.055   1.787  0.6846  0.2174  0.5969
  606MOL0     H79979   5.654   2.107   1.841 -0.9669 -1.2463  0.6435
  606MOL0     H79980   5.902   2.402   2.162 -0.5712 -2.6680 -1.8614
  606MOL0     H79981   6.154   2.435   2.221 -0.1137  1.1119  0.0181
  606MOL0     H79982   6.397   2.306   2.117  2.5492 -0.5533  0.6812
  606MOL0     H79983   6.351   2.408   2.248 -1.1189  0.3862 -0.8587
  606MOL0     H79984   6.600   2.381   2.255 -3.5941 -0.3124  1.4039
  606MOL0     H79985   6.586   2.421   2.076  0.6735 -0.5038  0.0187
  606MOL0     H79986   6.477   2.656   2.192 -0.1450  1.3114  1.8313
  606MOL0     H79987   6.629   2.646   2.118  0.2089  0.1137  0.5453
  606MOL0     H79988   6.707   2.546   2.344 -0.5112 -1.8014 -0.2829
  606MOL0     H79989   6.678   2.723   2.325 -0.3567 -0.3886  5.3240
  606MOL0     H79990   6.414   2.613   2.626 -0.6002  1.6824 -0.5460
  606MOL0     H79991   6.244   2.506   1.820  0.6129 -1.4522  1.3931
  606MOL0     H79992   6.014   2.449   1.754  3.0134  0.9231 -0.7154
  607MOL0     O79993   3.733  11.120   1.355  0.3995  0.2972  0.7047
  607MOL0     C79994   3.813  11.025   1.343 -0.1610  0.2825 -0.6652
  607MOL0     O79995   3.778  10.896   1.352 -0.6644  0.0480  0.6105
  607MOL0     C79996   3.646  10.869   1.375 -0.0248 -0.3152  0.0225
  607MOL0     C79997   3.591  10.889   1.496 -0.0837 -0.0213 -0.3694
  607MOL0     C79998   3.452  10.865   1.518  0.5721 -1.1029  0.3628
  607MOL0     C79999   3.362  10.825   1.409 -0.5927 -0.0420 -0.5839
  607MOL0     O80000   3.229  10.830   1.407  0.0071  0.1404  0.1446
  607MOL0     C80001   3.154  10.908   1.496  0.3241  0.0379  0.4035
  607MOL0     C80002   3.123  10.839   1.626 -0.6025  0.3329  0.7225
  607MOL0     C80003   3.001  10.752   1.608 -0.3608  0.1260  0.0430
  607MOL0     C80004   2.920  10.727   1.744 -1.3384  0.2791  0.0301
  607MOL0     C80005   2.782  10.673   1.714 -0.8197 -0.1729  0.4919
  607MOL0     C80006   2.798  10.527   1.660 -0.0915 -0.3943  0.6769
  607MOL0     C80007   2.655  10.473   1.627  0.9851  0.5445  0.0070
  607MOL0     C80008   2.652  10.335   1.546 -0.6532  0.4485  0.2328
  607MOL0     N80009   2.525  10.272   1.549 -0.6606 -0.3907  0.7066
  607MOL0     C80010   2.441  10.268   1.443 -0.5824  0.0172 -0.4878
  607MOL0     C80011   2.322  10.213   1.491 -0.0302  0.1143 -0.4593
  607MOL0     C80012   2.190  10.184   1.414 -0.9588  0.3825  0.0220
  607MOL0     C80013   2.099  10.307   1.417  0.0610  0.5310 -0.5190
  607MOL0     C80014   1.992  10.298   1.310 -0.1673 -0.6972 -0.2885
  607MOL0     C80015   1.923  10.163   1.294 -1.0008 -1.0073  0.4005
  607MOL0     O80016   1.854  10.136   1.416  0.9398 -0.3847  0.6783
  607MOL0     C80017   1.716  10.135   1.417 -0.0483  0.6816 -0.7073
  607MOL0     C80018   1.631  10.181   1.317 -0.5639  0.6517  0.4185
  607MOL0     C80019   1.490  10.162   1.323 -0.5678 -0.3651  0.0875
  607MOL0     C80020   1.433  10.113   1.443 -0.5398  0.2439  0.8309
  607MOL0     C80021   1.287  10.101   1.464 -0.7691  0.1989  0.2870
  607MOL0     O80022   1.215  10.066   1.355 -0.2972 -1.0378 -0.3285
  607MOL0     C80023   1.081  10.041   1.363  0.2637 -0.2315  0.3876
  607MOL0     C80024   0.990  10.122   1.423 -0.1477  0.2331  1.2094
  607MOL0     C80025   0.853  10.093   1.430  0.5849 -0.1379  0.5219
  607MOL0     C80026   0.796   9.986   1.367 -0.6831  0.1068  0.2975
  607MOL0     O80027   0.664   9.962   1.381  0.3276  0.1930 -0.3277
  607MOL0     C80028   0.595   9.876   1.290  0.2869  0.1924  0.2050
  607MOL0     C80029   0.573   9.951   1.160  0.3162  0.3701 -0.5968
  607MOL0     C80030   0.461   9.878   1.074  0.5637  0.6522 -0.9297
  607MOL0     C80031   0.321   9.852   1.141  0.4963  0.0026  0.8612
  607MOL0     C80032   0.228   9.789   1.038 -0.6967 -0.5777  0.1293
  607MOL0     C80033   0.172   9.875   0.929 -0.5351 -0.8287  0.2412
  607MOL0     C80034   0.086   9.995   0.969  0.0009 -0.4649 -0.0001
  607MOL0     C80035  -0.037   9.972   1.047  0.0472  0.0801  0.1597
  607MOL0    Cl80036  -0.097  10.117   1.124  0.0606 -0.2107  0.5031
  607MOL0     C80037   0.894   9.900   1.304 -0.0043 -0.2176 -0.2266
  607MOL0     C80038   1.031   9.929   1.303  0.1708  0.2698  0.2045
  607MOL0     O80039   1.243  10.109   1.575 -0.0822 -0.3625 -0.2419
  607MOL0     C80040   1.521  10.085   1.549 -0.6824  0.1524  0.2421
  607MOL0     C80041   1.652  10.089   1.529 -0.4062 -0.1171  0.0947
  607MOL0     N80042   2.352  10.186   1.622  0.3228 -0.3645  0.6708
  607MOL0     N80043   2.471  10.220   1.659  0.3400  0.1131  0.2964
  607MOL0     C80044   3.420  10.791   1.292 -0.6119 -0.0464  0.5240
  607MOL0     C80045   3.560  10.811   1.273  0.0456 -0.0951  0.3400
  607MOL0     C80046   3.945  11.059   1.300  0.0160 -0.5280  0.3038
  607MOL0     C80047   4.041  10.958   1.261 -0.2144  0.0406 -0.3863
  607MOL0     C80048   4.164  10.978   1.197 -0.1476 -1.8413 -0.1757
  607MOL0     C80049   4.204  11.108   1.179 -0.6117 -0.4532 -0.0237
  607MOL0     O80050   4.330  11.144   1.128 -1.0495 -0.3839  0.2104
  607MOL0     C80051   4.435  11.126   1.231 -0.1455 -0.6161  0.4328
  607MOL0     C80052   4.542  11.239   1.209 -0.5700 -1.4013  0.3003
  607MOL0     C80053   4.677  11.230   1.293  0.4347  0.7117  0.6166
  607MOL0     C80054   4.794  11.185   1.216  0.0253 -0.0242  0.9437
  607MOL0     C80055   4.900  11.166   1.313  1.1145 -0.3756  0.1119
  607MOL0     C80056   4.980  11.139   1.400  0.2116  0.5388  0.0668
  607MOL0     C80057   4.129  11.214   1.225  0.2318  0.2431  0.1592
  607MOL0     C80058   3.998  11.188   1.283 -0.4739 -0.2274  0.0612
  607MOL0     H80059   3.653  10.931   1.574  0.1875 -1.4793  0.2274
  607MOL0     H80060   3.412  10.883   1.617  0.8364 -3.9746  1.0834
  607MOL0     H80061   3.061  10.939   1.447 -0.4631  4.4769  3.9720
  607MOL0     H80062   3.208  11.002   1.509 -1.1177  0.6800  2.1435
  607MOL0     H80063   3.091  10.911   1.702  1.2616  0.1532  1.7339
  607MOL0     H80064   3.206  10.781   1.668 -1.0265 -2.1306 -1.5840
  607MOL0     H80065   3.030  10.653   1.571 -0.7837 -0.9967  2.5108
  607MOL0     H80066   2.929  10.794   1.537 -0.7912 -3.6172 -1.9657
  607MOL0     H80067   2.966  10.653   1.810 -1.2833 -0.2996 -0.6496
  607MOL0     H80068   2.902  10.818   1.802 -2.0536  1.3667 -1.8188
  607MOL0     H80069   2.746  10.746   1.641  1.0887 -1.5997 -2.0370
  607MOL0     H80070   2.717  10.677   1.802 -0.4999  3.7182  0.7553
  607MOL0     H80071   2.845  10.474   1.743 -0.4676  0.2509  1.3139
  607MOL0     H80072   2.860  10.523   1.570 -0.7953 -0.6294  0.1942
  607MOL0     H80073   2.596  10.455   1.717 -0.2770  3.3023 -0.1677
  607MOL0     H80074   2.592  10.543   1.571 -1.3875 -0.0951  1.7447
  607MOL0     H80075   2.722  10.260   1.585 -0.3559  1.0355  0.8572
  607MOL0     H80076   2.686  10.353   1.444 -0.4655 -2.5093 -0.3120
  607MOL0     H80077   2.457  10.294   1.339  3.0497 -1.9587 -0.6054
  607MOL0     H80078   2.146  10.093   1.455  1.2076 -1.2387 -1.0331
  607MOL0     H80079   2.212  10.168   1.307 -2.6743  1.2092 -0.4894
  607MOL0     H80080   2.169  10.391   1.417  0.9895 -0.2229 -1.3096
  607MOL0     H80081   2.038  10.318   1.507 -0.0108 -1.0144 -0.3556
  607MOL0     H80082   1.918  10.375   1.338 -1.3294 -2.8307  3.1401
  607MOL0     H80083   2.039  10.326   1.215  0.6067  0.0438  0.3038
  607MOL0     H80084   2.008  10.094   1.293  2.0147  2.2161  4.0016
  607MOL0     H80085   1.869  10.156   1.199  2.7092  2.6269 -2.2910
  607MOL0     H80086   1.658  10.223   1.220 -2.0809  2.1806  0.6242
  607MOL0     H80087   1.431  10.188   1.236  1.6739  1.0275 -1.1034
  607MOL0     H80088   1.026  10.219   1.457 -1.3992  1.7496 -1.4970
  607MOL0     H80089   0.793  10.158   1.494 -1.0768 -0.1880 -0.9194
  607MOL0     H80090   0.503   9.845   1.341  1.5115  0.2961  2.5999
  607MOL0     H80091   0.643   9.778   1.283 -0.5210 -0.1306 -1.4822
  607MOL0     H80092   0.665   9.960   1.103  0.7781 -1.9979 -0.2860
  607MOL0     H80093   0.541  10.055   1.178  0.6402  0.2099  1.0180
  607MOL0     H80094   0.512   9.785   1.049  1.2769 -0.4190  3.6761
  607MOL0     H80095   0.432   9.938   0.987 -2.3113 -0.4207 -0.7946
  607MOL0     H80096   0.323   9.789   1.230 -3.2746  0.9876  1.8487
  607MOL0     H80097   0.268   9.940   1.179  2.8050 -0.0092  4.5545
  607MOL0     H80098   0.139   9.747   1.086 -0.3126 -1.0797  0.4123
  607MOL0     H80099   0.288   9.705   1.001 -0.2950 -0.3472  0.2566
  607MOL0     H80100   0.106   9.812   0.868  1.9728 -1.5759 -1.8665
  607MOL0     H80101   0.255   9.907   0.866  1.0541 -1.3349  1.9680
  607MOL0     H80102   0.153  10.063   1.022  1.2582 -0.7039 -1.2138
  607MOL0     H80103   0.055  10.038   0.873 -2.8098 -3.6153 -0.7135
  607MOL0     H80104  -0.029   9.892   1.121 -0.2911 -0.7365 -0.6594
  607MOL0     H80105  -0.116   9.935   0.980 -1.5688  1.7899  1.0485
  607MOL0     H80106   0.865   9.805   1.260 -0.2697  1.0556 -3.0549
  607MOL0     H80107   1.097   9.859   1.253  2.4957  0.0747  3.2691
  607MOL0     H80108   1.483  10.052   1.645 -3.2750  1.9015 -0.0737
  607MOL0     H80109   1.710  10.061   1.616  2.0148 -1.4407 -1.8270
  607MOL0     H80110   3.352  10.756   1.215 -2.3514 -3.4816  3.3092
  607MOL0     H80111   3.612  10.789   1.180 -0.4407 -0.7127  0.2107
  607MOL0     H80112   4.006  10.856   1.268  0.9072 -0.4879 -1.9355
  607MOL0     H80113   4.231  10.900   1.162 -0.3710 -1.3724 -1.7294
  607MOL0     H80114   4.474  11.024   1.228  1.9274  0.1398 -0.0963
  607MOL0     H80115   4.401  11.134   1.335 -0.9413  0.0737  0.1272
  607MOL0     H80116   4.571  11.229   1.104  2.5506  0.2734  0.8628
  607MOL0     H80117   4.502  11.339   1.227  0.1792 -1.3389  1.8042
  607MOL0     H80118   4.661  11.170   1.383  2.3728  0.4675  0.8535
  607MOL0     H80119   4.701  11.333   1.323  0.6657  1.2508 -1.3157
  607MOL0     H80120   4.775  11.087   1.170  1.7122  0.3703 -0.7119
  607MOL0     H80121   4.827  11.250   1.135 -0.9958  0.2616  0.7440
  607MOL0     H80122   5.057  11.113   1.470  1.7367  0.5778 -1.5339
  607MOL0     H80123   4.162  11.317   1.217 -1.7346  0.9741  0.9677
  607MOL0     H80124   3.932  11.271   1.309 -0.3927 -0.0018 -0.4388
  608MOL0     O80125  10.904   2.573   4.494  0.7383 -0.2647 -1.1716
  608MOL0     C80126  10.956   2.565   4.605  0.0725  0.0625  0.0323
  608MOL0     O80127  10.893   2.568   4.728  0.5430  0.8912 -0.0042
  608MOL0     C80128  10.754   2.569   4.743  0.4037  0.5202  0.1161
  608MOL0     C80129  10.658   2.521   4.654  0.1063  0.4399  0.2750
  608MOL0     C80130  10.520   2.524   4.685  1.0311 -0.4575  1.5165
  608MOL0     C80131  10.484   2.581   4.811 -0.0373 -0.3557  0.1995
  608MOL0     O80132  10.353   2.614   4.833 -0.0365  0.3600 -0.3163
  608MOL0     C80133  10.261   2.513   4.805 -0.2803  0.1927 -0.0177
  608MOL0     C80134  10.137   2.525   4.895  0.7709 -0.2985 -0.7860
  608MOL0     C80135  10.040   2.408   4.862  0.0693  0.6907  0.1578
  608MOL0     C80136   9.919   2.415   4.949  0.7207 -0.1114  0.5698
  608MOL0     C80137   9.828   2.308   4.902  0.3593  0.4911  0.4595
  608MOL0     C80138   9.874   2.168   4.947 -0.7520  0.3480 -0.1913
  608MOL0     C80139   9.760   2.073   4.910  0.0477  0.3477  0.0144
  608MOL0     C80140   9.800   1.930   4.908 -1.0524 -0.1812 -0.9815
  608MOL0     N80141   9.691   1.843   4.940 -0.2778  1.2147  0.0991
  608MOL0     C80142   9.564   1.863   4.898  0.5245 -0.5215  0.4924
  608MOL0     C80143   9.485   1.775   4.965 -0.0947 -0.1228  0.7114
  608MOL0     C80144   9.334   1.772   4.944 -0.2787  0.7067  0.1983
  608MOL0     C80145   9.313   1.759   4.800  0.3095  0.3397  0.8400
  608MOL0     C80146   9.171   1.705   4.770  1.2474 -0.0890 -0.0565
  608MOL0     C80147   9.062   1.811   4.783 -0.5656  0.2254 -0.6696
  608MOL0     O80148   8.938   1.737   4.777 -0.0914 -0.5075 -0.1087
  608MOL0     C80149   8.832   1.795   4.841 -0.1812  0.0629 -0.1708
  608MOL0     C80150   8.728   1.706   4.842  0.2241  0.4725 -0.0617
  608MOL0     C80151   8.614   1.735   4.922 -0.1781  0.3971 -0.0421
  608MOL0     C80152   8.601   1.855   4.989  0.3445  0.0207  0.5318
  608MOL0     C80153   8.474   1.887   5.059 -0.0250 -0.7839  0.3841
  608MOL0     O80154   8.448   2.024   5.067  0.1203  0.4110 -0.1513
  608MOL0     C80155   8.328   2.064   5.102  0.7205  0.2932 -0.6889
  608MOL0     C80156   8.216   2.041   5.024 -0.0797  0.1807  0.3938
  608MOL0     C80157   8.089   2.092   5.052 -0.4759  0.1168  0.2445
  608MOL0     C80158   8.059   2.162   5.172 -0.0511  0.4378 -0.7320
  608MOL0     O80159   7.933   2.195   5.217 -0.5645 -0.4303 -0.2440
  608MOL0     C80160   7.835   2.219   5.112 -0.6016 -0.9688  0.7501
  608MOL0     C80161   7.699   2.248   5.171  0.1476 -0.0217  0.3089
  608MOL0     C80162   7.655   2.153   5.285 -0.0062 -0.1115 -0.4716
  608MOL0     C80163   7.634   2.009   5.237 -0.9433 -0.1333  0.5420
  608MOL0     C80164   7.613   1.907   5.356  0.9821 -0.0241  0.6574
  608MOL0     C80165   7.625   1.758   5.311  0.2246  0.3550 -0.8162
  608MOL0     C80166   7.648   1.670   5.444  0.4337  0.5750  0.4811
  608MOL0     C80167   7.658   1.528   5.400 -1.0386  0.2235 -0.0079
  608MOL0    Cl80168   7.819   1.512   5.307  0.3217  0.1518  0.0738
  608MOL0     C80169   8.177   2.182   5.256  0.2737 -0.1290  0.9792
  608MOL0     C80170   8.311   2.139   5.218  0.9907  0.3982 -0.7839
  608MOL0     O80171   8.397   1.795   5.099  0.3974 -0.0873 -0.4885
  608MOL0     C80172   8.706   1.951   4.980  0.5467  0.5249 -1.2988
  608MOL0     C80173   8.822   1.913   4.910 -0.5999 -1.1420  0.2601
  608MOL0     N80174   9.571   1.701   5.035 -0.1249 -0.3748 -0.5957
  608MOL0     N80175   9.692   1.741   5.030 -0.1841 -0.0699  0.0267
  608MOL0     C80176  10.580   2.612   4.904  0.4124  0.1083  0.4072
  608MOL0     C80177  10.716   2.603   4.873 -0.3820 -0.1459 -0.1535
  608MOL0     C80178  11.099   2.582   4.610  0.6081  0.1649 -0.6697
  608MOL0     C80179  11.169   2.559   4.734 -0.4026 -0.8126  0.8204
  608MOL0     C80180  11.309   2.568   4.744  0.4063  0.6997  0.3493
  608MOL0     C80181  11.382   2.603   4.632  0.3465 -0.1922  0.3877
  608MOL0     O80182  11.518   2.627   4.650 -0.2666  0.6058 -0.3755
  608MOL0     C80183  11.590   2.657   4.532  0.3711 -1.1431 -0.3328
  608MOL0     C80184  11.740   2.651   4.584 -0.6589  0.5824  0.5795
  608MOL0     C80185  11.799   2.509   4.564 -0.8016 -0.1218  0.2441
  608MOL0     C80186  11.949   2.522   4.537 -0.1722 -0.2746 -0.4055
  608MOL0     C80187  12.007   2.396   4.491 -0.0816 -0.5323  0.2768
  608MOL0     C80188  12.046   2.289   4.456  0.3233  0.5529  0.5205
  608MOL0     C80189  11.307   2.605   4.507  0.2138  0.4179 -0.7166
  608MOL0     C80190  11.168   2.593   4.491 -0.2130  0.6312  0.1697
  608MOL0     H80191  10.688   2.503   4.551  2.4683  2.1296  0.5829
  608MOL0     H80192  10.452   2.514   4.601  0.8246 -0.5468  1.6928
  608MOL0     H80193  10.310   2.416   4.817 -1.6624 -0.5258  0.0420
  608MOL0     H80194  10.220   2.525   4.704  0.7191  0.6863 -0.3731
  608MOL0     H80195  10.095   2.625   4.883 -0.1757 -0.7726 -1.5060
  608MOL0     H80196  10.179   2.527   4.996  0.7142 -0.2199 -0.7633
  608MOL0     H80197  10.076   2.305   4.876 -1.4799  0.3681  2.2455
  608MOL0     H80198  10.022   2.410   4.754  1.0620 -0.1242 -0.0348
  608MOL0     H80199   9.950   2.401   5.053  1.2536 -0.6350  0.3474
  608MOL0     H80200   9.869   2.511   4.937  2.7585  0.9400  0.1873
  608MOL0     H80201   9.806   2.311   4.795 -1.8200  2.8547  0.8641
  608MOL0     H80202   9.730   2.316   4.951  0.1184  2.0440 -0.2054
  608MOL0     H80203   9.888   2.175   5.055 -1.4894 -1.1627  0.0276
  608MOL0     H80204   9.964   2.137   4.894 -0.1927  2.3887 -0.4986
  608MOL0     H80205   9.683   2.094   4.985  0.3828 -0.8723  0.7357
  608MOL0     H80206   9.713   2.102   4.816 -0.3347  2.2173  0.7322
  608MOL0     H80207   9.882   1.921   4.981  0.5234  3.8845 -1.9402
  608MOL0     H80208   9.848   1.897   4.816 -0.2191 -0.2036 -0.5554
  608MOL0     H80209   9.547   1.948   4.832 -1.6907  0.6114  2.3755
  608MOL0     H80210   9.281   1.859   4.984  1.8091  3.1598 -2.0229
  608MOL0     H80211   9.310   1.681   5.001  3.6737 -0.7468 -0.1069
  608MOL0     H80212   9.380   1.691   4.747 -2.6023 -0.6268 -1.9111
  608MOL0     H80213   9.326   1.858   4.755  3.4107  0.1602  1.1412
  608MOL0     H80214   9.170   1.680   4.664 -2.5915  0.3722 -0.2844
  608MOL0     H80215   9.154   1.618   4.833  1.2046 -0.6679 -0.8557
  608MOL0     H80216   9.074   1.868   4.691  1.4917 -1.5232 -1.5836
  608MOL0     H80217   9.086   1.873   4.870  3.5100 -2.6428  0.5821
  608MOL0     H80218   8.741   1.613   4.787 -1.1258  1.2976 -1.8684
  608MOL0     H80219   8.534   1.663   4.932  2.3768 -2.7828 -0.8677
  608MOL0     H80220   8.229   1.979   4.936  1.0089 -0.1954  0.8097
  608MOL0     H80221   8.009   2.065   4.984 -1.8475  0.4810  1.6537
  608MOL0     H80222   7.833   2.125   5.054  1.1726 -0.9377  0.5912
  608MOL0     H80223   7.864   2.306   5.053 -1.3621 -1.6307 -0.6628
  608MOL0     H80224   7.628   2.216   5.094 -0.1425  1.6450 -0.1389
  608MOL0     H80225   7.689   2.353   5.199  0.4799 -0.0467  0.5261
  608MOL0     H80226   7.565   2.196   5.330  1.4615  0.8519  1.7822
  608MOL0     H80227   7.734   2.170   5.360  2.4510 -1.9520 -2.4713
  608MOL0     H80228   7.551   2.006   5.166 -0.0688  1.0729 -0.5812
  608MOL0     H80229   7.720   1.973   5.180 -0.7264 -2.2988  2.0913
  608MOL0     H80230   7.515   1.920   5.403  0.5611 -0.0539 -0.2047
  608MOL0     H80231   7.690   1.926   5.431 -1.3747  0.0472  3.1997
  608MOL0     H80232   7.708   1.754   5.240 -0.0645 -0.1286 -1.1252
  608MOL0     H80233   7.534   1.721   5.264 -0.7201 -0.1305  1.2646
  608MOL0     H80234   7.738   1.708   5.493 -0.4709  2.3284  0.8622
  608MOL0     H80235   7.574   1.676   5.524  0.3278  3.1694  0.2686
  608MOL0     H80236   7.576   1.500   5.333  0.7115 -1.6764 -1.4760
  608MOL0     H80237   7.647   1.463   5.487  0.4275 -0.7941 -0.5605
  608MOL0     H80238   8.152   2.226   5.352 -0.6903 -3.1117  2.2276
  608MOL0     H80239   8.387   2.152   5.294  0.6644 -2.2955  0.1252
  608MOL0     H80240   8.683   2.050   5.018 -0.8525 -0.3780  0.3393
  608MOL0     H80241   8.906   1.982   4.911 -0.1552 -1.6661  1.6837
  608MOL0     H80242  10.549   2.639   5.004  0.3493 -1.0344  0.7097
  608MOL0     H80243  10.787   2.631   4.950 -0.2812 -0.8683  0.0174
  608MOL0     H80244  11.116   2.534   4.825 -0.6652  0.2874  0.9765
  608MOL0     H80245  11.351   2.560   4.844  3.2471  1.6852 -0.6723
  608MOL0     H80246  11.556   2.753   4.491 -0.5950 -1.0692  0.5932
  608MOL0     H80247  11.575   2.580   4.456 -2.0280  0.8427 -2.0066
  608MOL0     H80248  11.804   2.710   4.518 -3.9899  1.3000 -2.2791
  608MOL0     H80249  11.751   2.690   4.685 -1.8161  1.4603  0.3788
  608MOL0     H80250  11.750   2.466   4.476 -0.1083 -1.4695  0.4812
  608MOL0     H80251  11.790   2.448   4.655  0.4551 -1.4454 -0.4665
  608MOL0     H80252  11.965   2.596   4.459 -2.3508 -1.8290 -2.4965
  608MOL0     H80253  11.998   2.554   4.629 -3.6283 -0.4016  1.6750
  608MOL0     H80254  12.077   2.201   4.403 -1.6652  2.1308 -3.7538
  608MOL0     H80255  11.361   2.623   4.415  0.2988 -0.2844 -0.8076
  608MOL0     H80256  11.135   2.577   4.389  2.9581 -2.7545 -0.5154
  609MOL0     O80257   7.314   6.745   8.099  0.5028 -0.4941  0.0134
  609MOL0     C80258   7.391   6.833   8.117 -0.5262  0.1330  0.4072
  609MOL0     O80259   7.384   6.968   8.081  0.0629  0.2162  0.5625
  609MOL0     C80260   7.278   7.005   8.002  0.5754 -0.4254  0.3743
  609MOL0     C80261   7.196   7.107   8.051 -0.1643  0.3282 -0.4091
  609MOL0     C80262   7.077   7.142   7.980 -0.4881  0.9199 -0.5338
  609MOL0     C80263   7.046   7.082   7.861 -0.1057  0.2684  0.9667
  609MOL0     O80264   6.940   7.132   7.806  1.4105  0.2255 -0.0272
  609MOL0     C80265   6.921   7.121   7.661  0.2551 -0.1478 -0.5753
  609MOL0     C80266   6.799   7.194   7.617 -0.0040  0.2390 -0.4458
  609MOL0     C80267   6.668   7.146   7.681  0.4112  0.1043  0.3374
  609MOL0     C80268   6.559   7.239   7.630 -0.5172  0.0267  0.4361
  609MOL0     C80269   6.424   7.228   7.699  0.1149  0.7409  0.3689
  609MOL0     C80270   6.305   7.178   7.601  0.6045 -0.2081 -0.3960
  609MOL0     C80271   6.178   7.143   7.680  0.3121 -0.3120  0.6058
  609MOL0     C80272   6.113   7.258   7.762 -0.1931  0.0054 -0.2690
  609MOL0     N80273   6.037   7.358   7.671  0.3063 -0.1544  0.7159
  609MOL0     C80274   6.084   7.434   7.566 -0.6405 -0.0079  0.5898
  609MOL0     C80275   5.980   7.509   7.523 -0.2278  0.7786  0.0752
  609MOL0     C80276   5.975   7.591   7.393  0.4137  0.2513  0.3094
  609MOL0     C80277   5.971   7.739   7.419 -0.6703 -0.1617 -0.5327
  609MOL0     C80278   5.893   7.806   7.305 -0.0745 -0.9745  0.0380
  609MOL0     C80279   5.908   7.963   7.294 -0.0865  0.6853 -0.8345
  609MOL0     O80280   5.850   8.031   7.404 -0.2662 -0.3568  0.4305
  609MOL0     C80281   5.713   8.030   7.407  0.9012  0.2472  0.4049
  609MOL0     C80282   5.663   8.048   7.531  0.4937  0.8594  0.1413
  609MOL0     C80283   5.522   8.049   7.555 -0.2936 -0.3550 -0.4658
  609MOL0     C80284   5.432   8.049   7.455  0.6638  0.5823  0.3921
  609MOL0     C80285   5.289   8.087   7.470 -0.0175  0.2637 -0.6214
  609MOL0     O80286   5.242   8.099   7.602  0.2276  0.5062  0.1699
  609MOL0     C80287   5.122   8.163   7.627 -0.4131 -0.6902 -0.5399
  609MOL0     C80288   5.020   8.094   7.693 -0.0133 -0.6756  0.0866
  609MOL0     C80289   4.891   8.158   7.707 -0.7980 -0.0403 -0.4194
  609MOL0     C80290   4.868   8.278   7.648 -0.0693  0.3762 -0.5343
  609MOL0     O80291   4.748   8.339   7.679  0.7527  0.4772  0.4068
  609MOL0     C80292   4.693   8.432   7.586 -0.5569 -0.2718  0.5384
  609MOL0     C80293   4.568   8.490   7.646  0.3051 -0.5313 -0.6306
  609MOL0     C80294   4.506   8.598   7.550 -0.5990 -0.2817  0.2702
  609MOL0     C80295   4.405   8.693   7.627  0.7881  0.0977 -0.0419
  609MOL0     C80296   4.308   8.630   7.717 -0.3055 -0.0133 -0.6918
  609MOL0     C80297   4.194   8.721   7.758 -0.0577  0.3891 -0.5026
  609MOL0     C80298   4.080   8.629   7.803 -0.6477  0.0316  0.2616
  609MOL0     C80299   3.971   8.616   7.691  0.6051 -0.2668  0.6650
  609MOL0    Cl80300   3.910   8.785   7.666 -0.0156 -0.3046  0.0533
  609MOL0     C80301   4.975   8.349   7.587 -0.2537  0.3447 -0.4877
  609MOL0     C80302   5.105   8.292   7.580  0.1826 -0.2661 -0.8837
  609MOL0     O80303   5.220   8.102   7.372 -0.7180 -0.7028  0.4550
  609MOL0     C80304   5.485   8.033   7.321 -0.4785 -0.1196 -0.9517
  609MOL0     C80305   5.623   8.015   7.297  0.0915  0.1272 -0.3173
  609MOL0     N80306   5.875   7.470   7.604 -0.3880 -0.4053  0.4480
  609MOL0     N80307   5.908   7.383   7.688  0.3022 -0.0680  0.2386
  609MOL0     C80308   7.130   6.979   7.808 -0.2466  0.3933 -0.2423
  609MOL0     C80309   7.256   6.949   7.871  0.8677 -0.6337  0.2340
  609MOL0     C80310   7.512   6.794   8.188  0.2373 -0.4696 -0.9144
  609MOL0     C80311   7.624   6.868   8.175 -0.5602 -0.2954  0.5125
  609MOL0     C80312   7.734   6.855   8.261  0.6259 -0.2988 -0.6362
  609MOL0     C80313   7.732   6.752   8.365 -0.4353  0.2329 -0.2308
  609MOL0     O80314   7.849   6.730   8.429  0.8267 -0.1365 -0.3759
  609MOL0     C80315   7.851   6.664   8.551 -0.5913  0.4648 -0.9157
  609MOL0     C80316   7.942   6.547   8.565 -0.1802  0.3192 -0.7986
  609MOL0     C80317   8.098   6.568   8.564  0.2067  0.3759 -0.3793
  609MOL0     C80318   8.136   6.657   8.684 -0.4346  0.0130 -0.1327
  609MOL0     C80319   8.278   6.687   8.678  0.3855  0.0313  0.0052
  609MOL0     C80320   8.398   6.721   8.672  0.6133  1.3867  0.3529
  609MOL0     C80321   7.619   6.672   8.368  0.9419 -0.3220  0.5305
  609MOL0     C80322   7.507   6.693   8.285 -0.6543  0.4010  0.2574
  609MOL0     H80323   7.216   7.151   8.148  1.3723 -3.1775  1.0419
  609MOL0     H80324   7.014   7.217   8.026 -0.7610  0.3010  0.1106
  609MOL0     H80325   6.902   7.016   7.637 -1.0545 -0.0058 -0.2708
  609MOL0     H80326   7.008   7.160   7.608  1.2629 -2.7891 -1.0197
  609MOL0     H80327   6.787   7.197   7.509 -0.4584  1.4080 -0.3758
  609MOL0     H80328   6.819   7.297   7.647  1.0656  0.0955 -0.6205
  609MOL0     H80329   6.682   7.146   7.790  3.4912  0.7839  0.0378
  609MOL0     H80330   6.643   7.046   7.642  3.8835 -0.1378 -1.6416
  609MOL0     H80331   6.589   7.343   7.614  0.2449  0.1248  2.3115
  609MOL0     H80332   6.548   7.204   7.527  0.6063  0.0275  0.3049
  609MOL0     H80333   6.400   7.326   7.740  1.4474  1.6615 -0.9437
  609MOL0     H80334   6.432   7.159   7.783  0.9118  0.3618 -0.0023
  609MOL0     H80335   6.336   7.085   7.552  0.5460 -1.4282  1.7653
  609MOL0     H80336   6.287   7.258   7.528 -1.1227 -2.2947 -2.4240
  609MOL0     H80337   6.109   7.091   7.613  0.7543  0.2162 -0.2818
  609MOL0     H80338   6.213   7.060   7.742  2.7815 -0.0605 -0.3233
  609MOL0     H80339   6.180   7.314   7.829 -0.2614 -2.0197  1.6155
  609MOL0     H80340   6.050   7.216   7.841 -0.9049  0.6319 -0.4853
  609MOL0     H80341   6.184   7.435   7.525 -0.7569  0.5158  0.3135
  609MOL0     H80342   5.882   7.573   7.337  0.7702 -1.5673  0.2388
  609MOL0     H80343   6.060   7.573   7.326 -1.6726  1.9443 -3.0823
  609MOL0     H80344   6.069   7.786   7.431 -1.4601  1.0812  1.6665
  609MOL0     H80345   5.917   7.759   7.512  1.8740  2.6143  0.5387
  609MOL0     H80346   5.933   7.765   7.211  2.8542  1.8078 -0.0977
  609MOL0     H80347   5.787   7.779   7.309 -0.6467 -0.5908 -5.1862
  609MOL0     H80348   5.863   7.997   7.200 -0.1971 -0.7673 -1.3212
  609MOL0     H80349   6.014   7.989   7.301  0.3081 -1.1102  0.5710
  609MOL0     H80350   5.735   8.047   7.612 -0.2716 -0.1125  0.8309
  609MOL0     H80351   5.489   8.073   7.655  0.5397  3.3464 -0.9562
  609MOL0     H80352   5.038   7.991   7.725  1.5137  0.0705  1.8442
  609MOL0     H80353   4.809   8.105   7.754  0.4833 -0.8220  1.0093
  609MOL0     H80354   4.672   8.385   7.489  1.2000 -0.2465  0.0954
  609MOL0     H80355   4.763   8.515   7.571 -0.6147  0.1699  2.4367
  609MOL0     H80356   4.593   8.537   7.742 -0.1985 -2.1738  0.3479
  609MOL0     H80357   4.487   8.420   7.668 -0.4316  1.1147  2.5532
  609MOL0     H80358   4.461   8.557   7.459  0.0113  0.5092 -0.4052
  609MOL0     H80359   4.586   8.665   7.518  2.3176 -2.2797  2.8418
  609MOL0     H80360   4.456   8.768   7.689 -0.2473  0.2032  0.7171
  609MOL0     H80361   4.347   8.739   7.547  0.2594 -0.8252 -0.2141
  609MOL0     H80362   4.356   8.588   7.806  0.2863  0.8801 -0.5684
  609MOL0     H80363   4.260   8.548   7.663 -0.0578  0.3517 -1.4720
  609MOL0     H80364   4.169   8.787   7.675 -1.2329 -1.9011 -2.1053
  609MOL0     H80365   4.213   8.793   7.838 -0.7497  1.3462 -1.1846
  609MOL0     H80366   4.119   8.527   7.814  2.2324  0.8660 -1.2454
  609MOL0     H80367   4.034   8.676   7.890 -2.4013 -1.0547 -0.0374
  609MOL0     H80368   3.896   8.543   7.720  1.7303 -2.2829 -1.2801
  609MOL0     H80369   4.019   8.577   7.601  0.2882 -0.7326  0.6953
  609MOL0     H80370   4.963   8.447   7.542 -1.0433  0.8478  0.7715
  609MOL0     H80371   5.177   8.344   7.519 -2.4060  0.7097 -3.3550
  609MOL0     H80372   5.414   8.041   7.239  0.0518 -1.0647 -1.5222
  609MOL0     H80373   5.664   7.988   7.201  0.1813  0.1836 -0.2943
  609MOL0     H80374   7.118   6.923   7.715  1.1470  1.9618 -1.4461
  609MOL0     H80375   7.314   6.871   7.824  3.2026  1.2615 -0.1933
  609MOL0     H80376   7.626   6.952   8.106 -0.4506 -2.1641 -1.8782
  609MOL0     H80377   7.823   6.915   8.248  1.2203 -1.4887 -2.5360
  609MOL0     H80378   7.754   6.627   8.584 -0.0961  0.8386  1.0710
  609MOL0     H80379   7.868   6.734   8.633  0.6465 -0.5141 -0.3015
  609MOL0     H80380   7.910   6.474   8.640 -0.5291  1.2509 -0.0228
  609MOL0     H80381   7.932   6.490   8.472  0.5376 -0.2415 -0.5432
  609MOL0     H80382   8.122   6.613   8.467 -0.2790 -0.7615 -1.0456
  609MOL0     H80383   8.149   6.471   8.568  2.1000  1.2916 -1.0829
  609MOL0     H80384   8.085   6.754   8.691  0.6477  0.5204  0.8575
  609MOL0     H80385   8.115   6.614   8.782 -0.8422  1.8598  0.6253
  609MOL0     H80386   8.493   6.769   8.670  0.3531  1.9603  1.2389
  609MOL0     H80387   7.616   6.580   8.426  1.7909 -2.0218 -1.9333
  609MOL0     H80388   7.418   6.632   8.290 -1.4860  1.6219  0.6458
  610MOL0     O80389   5.798   1.572   6.771 -0.2846  0.4156  0.8555
  610MOL0     C80390   5.798   1.546   6.652 -0.6997  0.2650  0.5989
  610MOL0     O80391   5.688   1.532   6.565 -0.2291 -0.5922  0.0631
  610MOL0     C80392   5.560   1.563   6.597 -0.1028  0.1756  0.3348
  610MOL0     C80393   5.465   1.564   6.498 -0.8552  0.5845 -0.6291
  610MOL0     C80394   5.333   1.593   6.523 -0.2775  0.3283 -0.3012
  610MOL0     C80395   5.289   1.622   6.652 -0.3768  0.1438 -0.0977
  610MOL0     O80396   5.159   1.660   6.676  0.0408 -0.4683 -0.7414
  610MOL0     C80397   5.081   1.720   6.575  0.6324  0.3085 -0.0268
  610MOL0     C80398   4.954   1.772   6.629  0.0322  0.3644 -1.0314
  610MOL0     C80399   4.864   1.662   6.692 -0.3900 -0.7122 -0.8993
  610MOL0     C80400   4.725   1.719   6.719  0.1646  0.5825  0.8439
  610MOL0     C80401   4.699   1.797   6.850 -0.3801  0.2053  0.1235
  610MOL0     C80402   4.719   1.704   6.974  0.0465 -0.2695  0.1339
  610MOL0     C80403   4.665   1.787   7.090  0.1455  0.4062 -0.3498
  610MOL0     C80404   4.661   1.705   7.221  0.3720  0.5426  0.4288
  610MOL0     N80405   4.784   1.647   7.271  0.4208 -0.2061  0.5006
  610MOL0     C80406   4.869   1.699   7.367  0.5043  0.7510  0.2711
  610MOL0     C80407   4.968   1.616   7.362  0.2515  0.5630  0.4406
  610MOL0     C80408   5.087   1.626   7.456  0.8753  0.0076 -0.2207
  610MOL0     C80409   5.171   1.498   7.444 -0.6265  0.3965  0.1354
  610MOL0     C80410   5.286   1.481   7.554  0.2525 -0.2343  0.2327
  610MOL0     C80411   5.355   1.349   7.545  0.3759 -0.1219 -0.2523
  610MOL0     O80412   5.477   1.363   7.624 -0.7414  0.2349 -0.1401
  610MOL0     C80413   5.557   1.259   7.632  0.7411 -0.3260 -0.0641
  610MOL0     C80414   5.541   1.137   7.560 -0.3059  0.4090  0.2139
  610MOL0     C80415   5.634   1.042   7.554  0.5721 -0.9294  0.7974
  610MOL0     C80416   5.747   1.056   7.628 -0.2690  0.8113 -0.1871
  610MOL0     C80417   5.845   0.946   7.620 -0.1389 -0.4523  0.1472
  610MOL0     O80418   5.948   0.956   7.709 -0.8968  0.0767  0.2373
  610MOL0     C80419   6.044   0.862   7.711 -0.9617 -0.0320 -0.3799
  610MOL0     C80420   6.097   0.825   7.830 -0.0575 -0.1534 -0.0573
  610MOL0     C80421   6.190   0.712   7.834  0.2234 -0.0147 -0.9465
  610MOL0     C80422   6.237   0.657   7.711  0.6438  0.6294 -0.5623
  610MOL0     O80423   6.326   0.556   7.695  0.2950  0.0270 -0.1226
  610MOL0     C80424   6.420   0.541   7.801 -0.5457 -0.6838  0.6747
  610MOL0     C80425   6.513   0.432   7.767 -0.0312 -0.5226 -0.3723
  610MOL0     C80426   6.627   0.434   7.865 -0.1000 -0.0237  0.6504
  610MOL0     C80427   6.734   0.323   7.843  0.9372  0.3407 -0.3493
  610MOL0     C80428   6.805   0.315   7.710  0.1221 -0.8624 -0.0079
  610MOL0     C80429   6.887   0.188   7.708 -0.2001  0.1612  0.2587
  610MOL0     C80430   7.002   0.207   7.604 -0.1040  0.2517 -0.0254
  610MOL0     C80431   7.085   0.083   7.599  0.0577 -0.1758  0.7187
  610MOL0    Cl80432   7.224   0.109   7.486 -0.1322  0.0465  0.3386
  610MOL0     C80433   6.188   0.701   7.592  0.6865  0.0748 -0.3190
  610MOL0     C80434   6.099   0.807   7.594  0.0777  0.6526  0.9655
  610MOL0     O80435   5.818   0.851   7.550  0.2785 -0.4723 -0.0037
  610MOL0     C80436   5.768   1.170   7.708 -0.0682 -0.1922 -0.4397
  610MOL0     C80437   5.677   1.269   7.702  0.4079 -0.3836 -0.0155
  610MOL0     N80438   4.946   1.517   7.271  0.1410  0.0373 -0.0228
  610MOL0     N80439   4.834   1.537   7.213  1.3220 -0.2872  0.8733
  610MOL0     C80440   5.375   1.624   6.749 -0.3967  0.0429  0.1994
  610MOL0     C80441   5.508   1.582   6.730 -0.1893 -0.4316  1.0273
  610MOL0     C80442   5.932   1.517   6.597 -0.8105 -0.1846  0.3575
  610MOL0     C80443   5.947   1.519   6.453  0.0138  0.5563 -0.0639
  610MOL0     C80444   6.071   1.500   6.388  0.3745 -0.2678 -0.5518
  610MOL0     C80445   6.179   1.479   6.464 -0.6358 -0.6732 -0.2854
  610MOL0     O80446   6.294   1.447   6.396  0.0710  0.4162  0.1700
  610MOL0     C80447   6.402   1.388   6.458 -0.8035 -0.0750  0.1136
  610MOL0     C80448   6.505   1.377   6.340 -0.0371 -0.1396  0.2974
  610MOL0     C80449   6.459   1.258   6.248 -0.2036  0.6575  0.4535
  610MOL0     C80450   6.546   1.247   6.122 -0.5178  0.9743 -0.1060
  610MOL0     C80451   6.528   1.353   6.024 -0.1770  0.3757 -0.4957
  610MOL0     C80452   6.485   1.449   5.958 -0.5999  0.0991 -0.9945
  610MOL0     C80453   6.163   1.474   6.605  0.6022  0.1623  0.3993
  610MOL0     C80454   6.048   1.498   6.673  0.0672  0.1180  0.1468
  610MOL0     H80455   5.496   1.539   6.397  0.5057  1.3759 -0.4362
  610MOL0     H80456   5.275   1.599   6.432 -0.9449 -1.5825 -0.0467
  610MOL0     H80457   5.064   1.645   6.497 -2.1492 -0.4800  1.2269
  610MOL0     H80458   5.127   1.806   6.526 -1.3102  0.6992 -1.2942
  610MOL0     H80459   4.891   1.818   6.552 -1.6773  0.5976  0.4506
  610MOL0     H80460   4.987   1.840   6.708  1.4961 -1.5172  0.0773
  610MOL0     H80461   4.913   1.638   6.786 -1.7541  1.3978  0.4302
  610MOL0     H80462   4.857   1.578   6.622 -1.6596 -2.1534  0.8743
  610MOL0     H80463   4.688   1.770   6.629  0.2217 -1.8675 -0.6617
  610MOL0     H80464   4.658   1.632   6.723  0.5026  0.3615  1.9690
  610MOL0     H80465   4.593   1.821   6.840 -0.5927 -0.3181  0.9974
  610MOL0     H80466   4.770   1.879   6.861  0.7604 -0.4735 -1.7328
  610MOL0     H80467   4.821   1.665   6.974 -0.1322 -0.7691 -0.9791
  610MOL0     H80468   4.661   1.611   6.971 -2.2434  1.0501  1.1131
  610MOL0     H80469   4.731   1.871   7.113 -2.1111  1.3799  3.4403
  610MOL0     H80470   4.566   1.825   7.064  0.4783  1.9693  0.5444
  610MOL0     H80471   4.577   1.637   7.201 -2.6168  3.8950  0.4914
  610MOL0     H80472   4.631   1.777   7.298 -1.2371  0.9481 -0.5189
  610MOL0     H80473   4.841   1.787   7.424  0.9831  1.1231 -0.0568
  610MOL0     H80474   5.053   1.631   7.560 -0.7493 -1.0656 -0.6596
  610MOL0     H80475   5.144   1.717   7.436  3.2232 -0.8858  1.7477
  610MOL0     H80476   5.220   1.485   7.348  0.9596  2.1396  0.6359
  610MOL0     H80477   5.106   1.412   7.463  2.2433 -1.3607  3.0306
  610MOL0     H80478   5.365   1.549   7.522 -0.1567 -0.1436 -0.6243
  610MOL0     H80479   5.256   1.506   7.656 -2.0174 -0.5458 -0.2893
  610MOL0     H80480   5.373   1.330   7.439 -1.8483  1.7867 -1.0516
  610MOL0     H80481   5.289   1.274   7.589 -1.6510  0.1315 -2.6392
  610MOL0     H80482   5.449   1.115   7.506  1.4989 -2.0679 -2.1393
  610MOL0     H80483   5.614   0.958   7.488 -2.8444 -0.4292  1.0156
  610MOL0     H80484   6.074   0.859   7.931  0.3855 -1.3702  0.4803
  610MOL0     H80485   6.229   0.692   7.934 -2.0976 -1.3798 -0.2462
  610MOL0     H80486   6.368   0.510   7.892 -0.0863  1.6299  1.7951
  610MOL0     H80487   6.470   0.637   7.821 -2.0524 -0.0559  1.5683
  610MOL0     H80488   6.539   0.443   7.661  0.5023  1.3853 -0.0902
  610MOL0     H80489   6.460   0.338   7.784 -0.5041  0.1116  1.9687
  610MOL0     H80490   6.593   0.424   7.968  3.2896 -1.4126  1.7972
  610MOL0     H80491   6.679   0.529   7.847 -1.5526  0.7892  0.6063
  610MOL0     H80492   6.810   0.350   7.917  0.3739  0.5006  0.1745
  610MOL0     H80493   6.689   0.228   7.873  0.6042 -0.2535 -2.5470
  610MOL0     H80494   6.877   0.397   7.708 -1.1939  0.4996  2.4474
  610MOL0     H80495   6.737   0.328   7.625 -2.4431  2.1671  2.2495
  610MOL0     H80496   6.822   0.104   7.683 -0.3407  0.2174  0.4334
  610MOL0     H80497   6.932   0.165   7.805  0.1458 -0.5220 -0.0562
  610MOL0     H80498   6.958   0.226   7.506 -1.5152 -2.0503  0.0857
  610MOL0     H80499   7.060   0.296   7.631  0.1303 -0.6812  2.8814
  610MOL0     H80500   7.017   0.004   7.565 -2.2690  0.4470  3.5306
  610MOL0     H80501   7.111   0.057   7.702 -0.1391 -1.0246  0.5683
  610MOL0     H80502   6.230   0.657   7.502  1.0829  0.6054 -0.3987
  610MOL0     H80503   6.059   0.833   7.497 -0.1563 -1.3616  0.4765
  610MOL0     H80504   5.853   1.167   7.775 -1.0636 -0.8375  0.8391
  610MOL0     H80505   5.702   1.364   7.748  0.6134 -0.2202 -0.4608
  610MOL0     H80506   5.337   1.661   6.843 -1.7357  1.3814 -0.8309
  610MOL0     H80507   5.571   1.591   6.818 -2.5756  1.0655  2.6826
  610MOL0     H80508   5.865   1.528   6.382  0.8274  3.4116 -0.7431
  610MOL0     H80509   6.085   1.495   6.280 -0.6580 -1.2888 -0.6588
  610MOL0     H80510   6.372   1.294   6.506 -3.7684 -1.1345 -3.3324
  610MOL0     H80511   6.439   1.454   6.536  0.8540  0.9800 -1.4894
  610MOL0     H80512   6.510   1.466   6.277 -0.5294 -0.7422 -0.6292
  610MOL0     H80513   6.603   1.350   6.380  0.2995 -0.2904 -0.6059
  610MOL0     H80514   6.356   1.283   6.217  0.2318  1.5733 -0.3100
  610MOL0     H80515   6.473   1.170   6.312  4.2725  2.4809  2.3996
  610MOL0     H80516   6.653   1.242   6.146 -0.9655  1.6701  2.2508
  610MOL0     H80517   6.533   1.149   6.075  4.7713 -1.1339  1.9774
  610MOL0     H80518   6.444   1.531   5.903 -0.3955  1.9802  1.4963
  610MOL0     H80519   6.245   1.456   6.675 -0.1525  1.3299  1.6271
  610MOL0     H80520   6.045   1.503   6.781  1.9687 -1.6387  0.3451
  611MOL0     O80521   2.892   1.325   9.391 -0.8715  0.2432 -0.7091
  611MOL0     C80522   2.967   1.399   9.458  0.5511  0.2948 -0.4608
  611MOL0     O80523   2.965   1.537   9.480 -0.1378  0.5532 -0.2781
  611MOL0     C80524   2.893   1.613   9.390  0.4760 -0.1921 -0.3938
  611MOL0     C80525   2.879   1.604   9.247  0.0516 -0.3121 -0.3859
  611MOL0     C80526   2.820   1.709   9.161  0.4198  0.2473 -0.3213
  611MOL0     C80527   2.762   1.816   9.226 -0.5122 -0.3495 -0.4238
  611MOL0     O80528   2.686   1.907   9.167  0.2054  0.1029  0.5020
  611MOL0     C80529   2.630   1.880   9.036 -1.8362 -0.3811  0.3668
  611MOL0     C80530   2.539   1.995   8.989 -0.3380 -0.8495 -0.2541
  611MOL0     C80531   2.614   2.110   8.918  0.6757 -0.4953  0.2034
  611MOL0     C80532   2.524   2.192   8.827  0.5820 -0.2919  0.4085
  611MOL0     C80533   2.576   2.329   8.790  0.3312  0.2642 -0.8267
  611MOL0     C80534   2.710   2.321   8.715  0.2332 -0.1158  0.4987
  611MOL0     C80535   2.732   2.453   8.639  0.9438 -0.3370  0.4887
  611MOL0     C80536   2.862   2.455   8.557  0.1898 -0.0385  0.4425
  611MOL0     N80537   2.974   2.466   8.647 -1.1426  0.2290 -0.1543
  611MOL0     C80538   3.047   2.361   8.675 -0.0292  0.0840  0.3093
  611MOL0     C80539   3.129   2.404   8.774 -0.9710 -0.1105 -0.1108
  611MOL0     C80540   3.226   2.326   8.860  0.9498 -0.1340 -0.2686
  611MOL0     C80541   3.373   2.380   8.858 -0.7802 -0.4020  0.7539
  611MOL0     C80542   3.478   2.296   8.933  0.0183 -0.2583  0.9187
  611MOL0     C80543   3.591   2.387   8.965 -0.8792  1.1913 -0.7021
  611MOL0     O80544   3.660   2.422   8.848  0.0038  0.2238  0.2633
  611MOL0     C80545   3.786   2.476   8.860  0.1190  0.1757 -0.4488
  611MOL0     C80546   3.893   2.440   8.950  0.8383  0.4925  0.5817
  611MOL0     C80547   4.009   2.504   8.936  0.2670 -0.4969 -0.9640
  611MOL0     C80548   4.033   2.599   8.829 -0.1172  0.4708  0.2359
  611MOL0     C80549   4.169   2.650   8.809  0.5089 -0.0019 -0.9863
  611MOL0     O80550   4.252   2.632   8.909 -0.8215  0.3653 -0.2895
  611MOL0     C80551   4.384   2.662   8.890  0.0983 -0.8498 -0.1817
  611MOL0     C80552   4.442   2.743   8.991  0.2688 -0.1245 -0.1587
  611MOL0     C80553   4.580   2.766   8.990 -0.7771  0.4069  0.2815
  611MOL0     C80554   4.664   2.718   8.891  0.1203 -0.6038 -0.0320
  611MOL0     O80555   4.797   2.761   8.896  0.6919 -0.4743 -0.1336
  611MOL0     C80556   4.874   2.709   8.785  0.4987  0.8991  0.2980
  611MOL0     C80557   5.020   2.722   8.838 -0.1530  0.1999  0.8310
  611MOL0     C80558   5.067   2.857   8.880  0.0215  0.1703  0.0718
  611MOL0     C80559   5.217   2.869   8.907  1.0995 -0.6729  0.0938
  611MOL0     C80560   5.242   3.018   8.937  0.4541  0.9134 -0.8013
  611MOL0     C80561   5.393   3.050   8.922 -0.0961  0.4793  0.1391
  611MOL0     C80562   5.491   2.955   9.004  0.3604 -1.0422  0.2331
  611MOL0     C80563   5.627   3.027   9.020  0.3402  1.0507  0.0109
  611MOL0    Cl80564   5.735   2.910   9.100 -0.0916 -0.1825  0.3372
  611MOL0     C80565   4.609   2.647   8.788  0.6792  0.4270  0.7266
  611MOL0     C80566   4.467   2.620   8.788  0.1706 -0.3261  1.0364
  611MOL0     O80567   4.185   2.710   8.706  0.1213  0.5975  0.3180
  611MOL0     C80568   3.928   2.627   8.738 -0.1620 -0.2871 -0.2064
  611MOL0     C80569   3.806   2.569   8.756  0.0427  0.0135  0.1822
  611MOL0     N80570   3.100   2.544   8.789  0.6300  0.9582 -0.1830
  611MOL0     N80571   3.004   2.576   8.718 -1.2935  0.2396  0.1680
  611MOL0     C80572   2.771   1.821   9.365 -1.2045 -0.5012  0.4639
  611MOL0     C80573   2.831   1.722   9.440  0.1981  0.3086  0.0981
  611MOL0     C80574   3.077   1.342   9.538 -0.6979  0.0856  0.4395
  611MOL0     C80575   3.086   1.205   9.569  0.6001 -0.1836  0.2030
  611MOL0     C80576   3.180   1.149   9.645  0.4816  1.4169  0.7117
  611MOL0     C80577   3.292   1.220   9.675 -0.6698 -0.0891 -0.4932
  611MOL0     O80578   3.400   1.169   9.735 -0.2811  0.7719  0.6323
  611MOL0     C80579   3.421   1.035   9.751 -0.2595 -0.5280 -0.1267
  611MOL0     C80580   3.545   1.017   9.836  0.4823 -0.2587  0.1942
  611MOL0     C80581   3.583   0.876   9.856  0.3470  1.0065 -0.1628
  611MOL0     C80582   3.720   0.857   9.917 -1.2656 -0.6060 -0.1927
  611MOL0     C80583   3.728   0.920  10.051 -0.7507  0.3449 -0.6481
  611MOL0     C80584   3.751   0.960  10.169  0.6522  0.2573  0.6505
  611MOL0     C80585   3.297   1.362   9.647 -0.2653 -0.1787  0.1472
  611MOL0     C80586   3.183   1.418   9.588  0.3023  0.3070  0.1847
  611MOL0     H80587   2.932   1.517   9.208  0.7935  0.5188 -1.3152
  611MOL0     H80588   2.818   1.697   9.053  1.5228 -2.7431 -0.1014
  611MOL0     H80589   2.564   1.793   9.040 -2.2075 -0.2154 -1.3900
  611MOL0     H80590   2.709   1.859   8.963 -1.4321  0.3818  0.5815
  611MOL0     H80591   2.478   2.028   9.073  2.1028 -1.9206  2.0985
  611MOL0     H80592   2.477   1.952   8.910 -0.7850  0.3434 -0.5627
  611MOL0     H80593   2.710   2.090   8.871  1.7822  1.7910  1.3043
  611MOL0     H80594   2.637   2.184   8.995 -1.3416  0.4829 -0.0665
  611MOL0     H80595   2.502   2.146   8.730 -0.9410  0.5569  0.3199
  611MOL0     H80596   2.425   2.206   8.871  0.5342 -0.5167  0.3769
  611MOL0     H80597   2.592   2.386   8.882  1.3852  1.4054 -1.6794
  611MOL0     H80598   2.494   2.377   8.735 -2.6325 -0.5889  2.4740
  611MOL0     H80599   2.705   2.241   8.641 -3.2872  0.1424  0.2896
  611MOL0     H80600   2.787   2.306   8.792  0.0190  0.4798  0.8323
  611MOL0     H80601   2.654   2.453   8.562  0.5276 -2.7852  0.8191
  611MOL0     H80602   2.725   2.537   8.709  0.0055 -1.7652  2.2009
  611MOL0     H80603   2.855   2.533   8.480 -4.6879  1.6403  2.2095
  611MOL0     H80604   2.863   2.357   8.509 -0.5827  0.3872 -0.4971
  611MOL0     H80605   3.060   2.258   8.642  1.1613  0.5629 -0.8083
  611MOL0     H80606   3.227   2.224   8.820  2.6439 -0.0673 -0.4601
  611MOL0     H80607   3.183   2.315   8.960 -0.0923 -3.2234 -0.9470
  611MOL0     H80608   3.369   2.483   8.895  0.6229  0.2390 -0.7100
  611MOL0     H80609   3.417   2.396   8.758 -1.7547 -0.8805  0.2374
  611MOL0     H80610   3.440   2.257   9.028 -1.1416  1.5905  1.2806
  611MOL0     H80611   3.504   2.215   8.865  2.2554  1.4344 -0.3469
  611MOL0     H80612   3.655   2.329   9.032 -1.9534 -0.2563 -0.8914
  611MOL0     H80613   3.554   2.475   9.019  0.3365  0.3342  1.6534
  611MOL0     H80614   3.869   2.366   9.026 -1.3550 -0.3768 -0.8263
  611MOL0     H80615   4.086   2.487   9.010  0.4016  0.3431 -0.9004
  611MOL0     H80616   4.391   2.785   9.078  2.4977  3.0666 -0.1923
  611MOL0     H80617   4.625   2.820   9.073 -0.3738 -0.1363  0.4219
  611MOL0     H80618   4.860   2.776   8.700  3.1467 -1.4398 -2.2167
  611MOL0     H80619   4.860   2.606   8.750 -0.7483  1.0856  0.2057
  611MOL0     H80620   5.087   2.675   8.766 -1.6215 -0.9887  0.1861
  611MOL0     H80621   5.042   2.651   8.918  3.3734 -2.7480 -2.3297
  611MOL0     H80622   5.010   2.885   8.969 -3.5573 -2.1007 -1.2597
  611MOL0     H80623   5.041   2.932   8.804  2.6706  0.1230 -0.9800
  611MOL0     H80624   5.246   2.805   8.991 -0.2961 -3.0973 -1.1809
  611MOL0     H80625   5.272   2.829   8.822 -0.1091 -4.0844  0.7813
  611MOL0     H80626   5.205   3.041   9.037  0.6485  1.9152 -0.9507
  611MOL0     H80627   5.189   3.084   8.869 -0.6180  2.7552  1.6809
  611MOL0     H80628   5.421   3.152   8.949  1.6514  0.6883 -2.1707
  611MOL0     H80629   5.426   3.050   8.817  1.9526  0.5774  0.7390
  611MOL0     H80630   5.452   2.935   9.104  3.1919 -1.0069  1.4498
  611MOL0     H80631   5.514   2.862   8.951  1.0463 -3.0254  3.7182
  611MOL0     H80632   5.621   3.109   9.093  3.3293  1.2365  0.1651
  611MOL0     H80633   5.674   3.047   8.923  2.7767  0.9936  1.0954
  611MOL0     H80634   4.656   2.618   8.694 -1.0881 -0.3939  0.0519
  611MOL0     H80635   4.423   2.574   8.701  2.7535  1.5297 -1.4116
  611MOL0     H80636   3.938   2.696   8.655 -3.3830 -0.0531 -0.5250
  611MOL0     H80637   3.725   2.585   8.685 -0.8956 -2.1195  0.6745
  611MOL0     H80638   2.731   1.907   9.417  0.6747  0.8039 -0.1582
  611MOL0     H80639   2.830   1.744   9.546 -0.6870  2.6851 -0.3267
  611MOL0     H80640   3.001   1.148   9.536 -0.0014  0.8877 -0.1583
  611MOL0     H80641   3.171   1.043   9.666  0.4174  1.2616 -0.0823
  611MOL0     H80642   3.435   0.987   9.653  0.5272  0.5514 -0.5631
  611MOL0     H80643   3.348   0.986   9.816 -0.1339 -1.1347 -0.4317
  611MOL0     H80644   3.623   1.073   9.783 -1.4537  0.4655 -2.0226
  611MOL0     H80645   3.532   1.061   9.935  1.2569 -1.0102  0.6457
  611MOL0     H80646   3.570   0.836   9.755 -5.7770  2.4648 -0.3548
  611MOL0     H80647   3.509   0.835   9.926  2.0253  2.2713  2.5172
  611MOL0     H80648   3.752   0.752   9.922  2.0906  0.3113 -0.0934
  611MOL0     H80649   3.785   0.906   9.843 -3.1595  0.8563 -0.9540
  611MOL0     H80650   3.777   1.000  10.265  1.7146  0.5140  0.2668
  611MOL0     H80651   3.382   1.421   9.679 -1.5992  1.5166  0.7578
  611MOL0     H80652   3.185   1.526   9.585  1.4017  0.2979  0.1411
  612MOL0     O80653   4.164   7.525   4.050 -0.0133  0.4856 -0.0973
  612MOL0     C80654   4.242   7.533   4.145  0.4538  0.4200  0.4531
  612MOL0     O80655   4.217   7.486   4.273  0.4103 -0.0369 -0.2721
  612MOL0     C80656   4.106   7.413   4.311  0.0587  0.4060  0.6241
  612MOL0     C80657   3.973   7.434   4.268 -0.4517  0.6827 -0.0257
  612MOL0     C80658   3.869   7.361   4.340 -0.6934 -0.4723  0.0425
  612MOL0     C80659   3.897   7.277   4.443 -0.1202  0.1518 -0.2949
  612MOL0     O80660   3.794   7.225   4.514 -0.3261  0.6159  0.2991
  612MOL0     C80661   3.816   7.153   4.640 -0.6164 -0.8485  0.3715
  612MOL0     C80662   3.689   7.163   4.723  0.1847  0.6821  0.5905
  612MOL0     C80663   3.635   7.301   4.758  0.2250  0.1153 -0.0777
  612MOL0     C80664   3.533   7.285   4.873 -0.0017 -0.2135 -0.2680
  612MOL0     C80665   3.452   7.408   4.926  0.2185 -0.4736 -0.6830
  612MOL0     C80666   3.535   7.537   4.953 -0.7139  1.1701  0.4052
  612MOL0     C80667   3.449   7.651   5.021 -0.5128  0.0512  0.8524
  612MOL0     C80668   3.531   7.774   5.053  0.1585  0.4903  0.4343
  612MOL0     N80669   3.612   7.841   4.956 -0.5098  0.1559 -0.0646
  612MOL0     C80670   3.561   7.908   4.851 -0.0872 -0.5282  0.0806
  612MOL0     C80671   3.674   7.958   4.787 -0.2935  0.2294  0.4552
  612MOL0     C80672   3.670   8.024   4.650 -0.0358  0.3336  0.4447
  612MOL0     C80673   3.779   8.125   4.632  0.0349  0.5892  0.0457
  612MOL0     C80674   3.757   8.250   4.713  0.5470  0.1675 -0.0450
  612MOL0     C80675   3.877   8.335   4.707 -0.5072  0.3688  1.3722
  612MOL0     O80676   3.963   8.311   4.822  0.7125  0.4404  0.1961
  612MOL0     C80677   4.062   8.398   4.842 -0.2484 -0.4110  0.2362
  612MOL0     C80678   4.102   8.499   4.755  0.6802 -0.5681 -0.1592
  612MOL0     C80679   4.212   8.568   4.788 -0.2246  0.2842  0.5183
  612MOL0     C80680   4.288   8.550   4.907 -0.1180  0.0577  0.1422
  612MOL0     C80681   4.409   8.642   4.930  0.2256  0.4220  0.3310
  612MOL0     O80682   4.452   8.648   5.059  0.3349  0.0737  0.1513
  612MOL0     C80683   4.541   8.740   5.104 -0.6813 -0.7136 -0.3743
  612MOL0     C80684   4.517   8.876   5.101 -0.1010  0.0051  0.0662
  612MOL0     C80685   4.609   8.970   5.154  0.1190  0.4353  0.2909
  612MOL0     C80686   4.734   8.930   5.201 -0.4159  0.4499 -0.4242
  612MOL0     O80687   4.816   9.033   5.249  0.0641  0.2677  0.6332
  612MOL0     C80688   4.933   9.005   5.319  0.4361 -0.7203  0.6798
  612MOL0     C80689   5.030   9.124   5.313 -0.2258 -0.3939  0.0506
  612MOL0     C80690   4.966   9.247   5.393 -0.8550  0.4093 -1.0271
  612MOL0     C80691   5.072   9.347   5.423 -0.2592  0.0977 -0.5442
  612MOL0     C80692   5.180   9.302   5.519 -0.3470  0.3075  0.9078
  612MOL0     C80693   5.231   9.414   5.606 -0.5471 -0.3063 -0.6818
  612MOL0     C80694   5.287   9.530   5.521  0.7963 -0.2409  0.8384
  612MOL0     C80695   5.413   9.600   5.573  0.3322 -0.2891 -0.3337
  612MOL0    Cl80696   5.395   9.682   5.731  0.3694 -0.3374  0.4375
  612MOL0     C80697   4.764   8.792   5.204  0.3467 -0.5459  0.8042
  612MOL0     C80698   4.667   8.707   5.155  0.6653  0.6680 -0.9376
  612MOL0     O80699   4.462   8.702   4.835  0.4373  0.9415  0.0948
  612MOL0     C80700   4.248   8.449   4.991  0.3718 -0.0175 -0.5377
  612MOL0     C80701   4.136   8.372   4.956  0.5445 -0.2558 -0.3034
  612MOL0     N80702   3.788   7.923   4.862 -0.3013  0.7354  0.4677
  612MOL0     N80703   3.751   7.850   4.955  0.5989  0.3059 -0.3379
  612MOL0     C80704   4.033   7.253   4.475  0.5912  0.1105  0.5236
  612MOL0     C80705   4.134   7.320   4.412  0.1489  0.9436 -0.0328
  612MOL0     C80706   4.371   7.594   4.118 -0.3800  0.0149 -0.2983
  612MOL0     C80707   4.386   7.659   3.995  0.0851  0.6903 -0.0170
  612MOL0     C80708   4.515   7.702   3.956 -0.1322  0.1862 -0.0947
  612MOL0     C80709   4.618   7.708   4.053  0.3516  0.2084  0.6734
  612MOL0     O80710   4.745   7.754   4.020  0.0535  0.0245 -0.1824
  612MOL0     C80711   4.762   7.834   3.899 -0.4418 -0.4669 -0.4635
  612MOL0     C80712   4.842   7.749   3.796  0.7192 -0.4796 -0.9168
  612MOL0     C80713   4.924   7.825   3.687  0.7000  1.1106  0.8705
  612MOL0     C80714   4.997   7.739   3.579  0.1756 -1.2310 -0.6389
  612MOL0     C80715   5.124   7.701   3.635 -0.4331  0.4135  0.0003
  612MOL0     C80716   5.239   7.675   3.667 -0.3985  0.0165  0.3505
  612MOL0     C80717   4.592   7.662   4.188  0.6704 -0.0894  0.6717
  612MOL0     C80718   4.469   7.603   4.214  0.0611 -0.0744 -0.4310
  612MOL0     H80719   3.955   7.516   4.199  1.3261  2.6734  1.7360
  612MOL0     H80720   3.765   7.383   4.319  0.6157  2.3089 -5.1978
  612MOL0     H80721   3.894   7.212   4.688  0.8887 -0.5845 -2.2074
  612MOL0     H80722   3.846   7.049   4.631 -0.9293 -0.8613 -0.5871
  612MOL0     H80723   3.720   7.119   4.818  2.3010  1.9828  0.5789
  612MOL0     H80724   3.609   7.099   4.685  1.8225  0.5884 -3.1793
  612MOL0     H80725   3.597   7.355   4.670  2.2577  2.7055  0.4895
  612MOL0     H80726   3.721   7.356   4.798  0.1329 -1.1488  1.9873
  612MOL0     H80727   3.473   7.196   4.855  0.0457 -0.4945  0.9034
  612MOL0     H80728   3.595   7.265   4.960  0.8656  0.9544 -0.5946
  612MOL0     H80729   3.408   7.376   5.020  2.4160 -0.7595  0.3139
  612MOL0     H80730   3.375   7.448   4.860  1.1656  4.1503  0.6556
  612MOL0     H80731   3.555   7.580   4.854  0.2193 -1.2015 -0.5084
  612MOL0     H80732   3.626   7.508   5.005  0.4369  1.3937 -1.4142
  612MOL0     H80733   3.374   7.682   4.948 -0.0952  0.6428  0.6722
  612MOL0     H80734   3.393   7.615   5.108 -1.6938 -1.1768 -0.3716
  612MOL0     H80735   3.594   7.744   5.137  0.4062 -2.3256 -0.6506
  612MOL0     H80736   3.462   7.851   5.088  1.0194  0.8455  1.4164
  612MOL0     H80737   3.458   7.908   4.817 -0.3450  2.0595  0.6562
  612MOL0     H80738   3.571   8.070   4.644 -1.8553 -3.3599 -1.6880
  612MOL0     H80739   3.682   7.950   4.570 -0.6444  0.7713 -0.0565
  612MOL0     H80740   3.793   8.148   4.526 -0.3328  1.9232  0.2685
  612MOL0     H80741   3.877   8.078   4.648  0.8215  1.1895 -2.6084
  612MOL0     H80742   3.676   8.305   4.666 -0.0467 -1.2527 -0.7513
  612MOL0     H80743   3.728   8.225   4.816  1.1726  0.1030  0.1198
  612MOL0     H80744   3.835   8.436   4.703 -1.7042 -0.1181 -2.0197
  612MOL0     H80745   3.928   8.325   4.610  1.0243  4.3493  1.5680
  612MOL0     H80746   4.046   8.511   4.662 -0.6680  0.2364  0.7145
  612MOL0     H80747   4.248   8.636   4.711  1.7006  0.4190  1.4605
  612MOL0     H80748   4.430   8.910   5.044  0.0138 -0.7844 -0.5934
  612MOL0     H80749   4.585   9.076   5.153 -1.3168  0.1208 -0.6129
  612MOL0     H80750   4.982   8.915   5.280  2.9211  1.3120 -1.2551
  612MOL0     H80751   4.912   8.974   5.422 -0.0544  0.0504  0.8203
  612MOL0     H80752   5.039   9.149   5.207  0.5616  1.9878  0.6162
  612MOL0     H80753   5.128   9.098   5.352 -0.4343 -0.7962  0.3126
  612MOL0     H80754   4.920   9.214   5.487 -0.9671  1.2479 -0.7798
  612MOL0     H80755   4.891   9.305   5.339 -1.4981  1.0823  0.5326
  612MOL0     H80756   5.117   9.397   5.337  1.8754  2.7821  1.9297
  612MOL0     H80757   5.021   9.429   5.474  1.0345  0.7247 -0.2106
  612MOL0     H80758   5.265   9.264   5.461 -2.1375  0.7077 -2.1700
  612MOL0     H80759   5.141   9.224   5.586 -2.8399  0.4501 -0.2689
  612MOL0     H80760   5.312   9.376   5.668 -0.2946 -0.6943 -1.2428
  612MOL0     H80761   5.155   9.453   5.675 -0.3362 -2.1152  0.6686
  612MOL0     H80762   5.317   9.492   5.423 -0.2255  4.8577 -1.8199
  612MOL0     H80763   5.203   9.598   5.504  1.5514  0.2039 -1.5930
  612MOL0     H80764   5.437   9.668   5.491  0.8995  0.7509  0.6594
  612MOL0     H80765   5.495   9.528   5.584 -0.9979 -1.7737  0.2042
  612MOL0     H80766   4.855   8.749   5.246  1.3533  0.4171 -0.2933
  612MOL0     H80767   4.694   8.601   5.159 -2.2944 -0.2480 -2.3302
  612MOL0     H80768   4.315   8.423   5.072  0.1070 -1.9436 -0.8914
  612MOL0     H80769   4.101   8.289   5.016  1.9026 -0.7512 -0.1617
  612MOL0     H80770   4.048   7.174   4.547 -1.8806 -3.7619 -2.8048
  612MOL0     H80771   4.237   7.320   4.446  0.0357 -0.5493  0.3933
  612MOL0     H80772   4.306   7.659   3.922 -0.3590  1.6671  0.4454
  612MOL0     H80773   4.528   7.729   3.852 -0.3073  0.8837  0.0601
  612MOL0     H80774   4.800   7.931   3.932 -2.5988 -0.0748  1.1281
  612MOL0     H80775   4.672   7.864   3.844  0.0199  2.3756  0.1997
  612MOL0     H80776   4.910   7.680   3.848 -1.8213 -2.1031  0.4404
  612MOL0     H80777   4.772   7.682   3.745  0.6471 -1.8401  0.8626
  612MOL0     H80778   4.997   7.880   3.747 -0.8044  1.0811  2.8458
  612MOL0     H80779   4.850   7.891   3.640 -0.2815  0.4700  1.4640
  612MOL0     H80780   4.934   7.650   3.564 -0.6500 -1.0791  1.5910
  612MOL0     H80781   5.000   7.804   3.491  1.0360  0.9837  0.9426
  612MOL0     H80782   5.343   7.675   3.692  0.3873 -2.5675 -2.3230
  612MOL0     H80783   4.663   7.669   4.269  1.2915 -1.7966  0.3242
  612MOL0     H80784   4.443   7.583   4.317  1.2297  2.8751  0.5528
  613MOL0     O80785  11.059   3.856   8.196 -0.4415 -0.5286  0.4988
  613MOL0     C80786  11.115   3.784   8.278 -0.6885 -0.4273 -0.2036
  613MOL0     O80787  11.087   3.654   8.301  0.7762 -0.6171 -0.4420
  613MOL0     C80788  10.970   3.605   8.261  0.2931  1.3727  0.2403
  613MOL0     C80789  10.975   3.464   8.233 -0.0641  0.1280  0.2394
  613MOL0     C80790  10.867   3.394   8.199  1.2683  0.4636  0.2198
  613MOL0     C80791  10.743   3.451   8.196 -0.3219 -0.0580  0.4090
  613MOL0     O80792  10.638   3.372   8.166 -0.4164  0.5630  0.3456
  613MOL0     C80793  10.534   3.429   8.099 -0.3683  0.3018  0.0096
  613MOL0     C80794  10.447   3.314   8.041 -0.3336  0.4630  0.2651
  613MOL0     C80795  10.331   3.368   7.967  0.0382 -0.3402  0.0893
  613MOL0     C80796  10.228   3.251   7.914 -0.8037 -0.2523 -0.2364
  613MOL0     C80797  10.100   3.315   7.873 -0.0821  0.1033 -0.0732
  613MOL0     C80798  10.002   3.210   7.810  0.5896 -0.0640  0.0767
  613MOL0     C80799   9.961   3.097   7.903 -0.4684 -0.6063 -0.2872
  613MOL0     C80800  10.028   2.965   7.873 -0.5406  0.4896  1.2904
  613MOL0     N80801  10.004   2.853   7.971 -0.2403  0.0630 -0.1711
  613MOL0     C80802   9.903   2.760   7.953  0.5566  0.2360 -0.0123
  613MOL0     C80803   9.913   2.679   8.061 -0.1764 -0.3364  0.1814
  613MOL0     C80804   9.836   2.562   8.108 -0.3908 -0.0056  0.1897
  613MOL0     C80805   9.692   2.594   8.140  0.4568  0.3145 -0.0812
  613MOL0     C80806   9.597   2.594   8.022  0.2164 -0.4081  0.0790
  613MOL0     C80807   9.543   2.451   7.973 -0.3590 -0.3130 -0.9742
  613MOL0     O80808   9.421   2.471   7.896  0.5060 -0.4928 -0.5052
  613MOL0     C80809   9.349   2.348   7.880  0.1097  0.4112  0.1090
  613MOL0     C80810   9.386   2.211   7.920  0.3780  1.1169  1.7997
  613MOL0     C80811   9.297   2.103   7.885 -0.6096 -0.0881 -0.5065
  613MOL0     C80812   9.173   2.128   7.814  0.8767 -0.0576 -1.1799
  613MOL0     C80813   9.072   2.023   7.785 -0.0083  1.7195 -0.1411
  613MOL0     O80814   9.119   1.902   7.766  0.5492  0.2042 -0.9531
  613MOL0     C80815   9.033   1.806   7.741  0.2407 -0.4396 -0.0180
  613MOL0     C80816   8.997   1.708   7.829 -0.7471 -0.0658  1.0982
  613MOL0     C80817   8.902   1.610   7.798  0.6804  0.0245 -0.6947
  613MOL0     C80818   8.840   1.611   7.663 -0.4679  0.2611  0.0382
  613MOL0     O80819   8.739   1.522   7.629 -0.4236 -0.6617  0.7010
  613MOL0     C80820   8.703   1.433   7.735 -0.6882  0.5286 -0.5981
  613MOL0     C80821   8.601   1.325   7.709  0.2165 -0.5339 -0.0928
  613MOL0     C80822   8.655   1.196   7.641  0.5578 -0.1501 -0.4589
  613MOL0     C80823   8.694   1.209   7.497  0.5440  0.3288  0.3712
  613MOL0     C80824   8.678   1.073   7.413 -0.4225 -0.6377 -0.8549
  613MOL0     C80825   8.691   1.098   7.261 -0.1994  0.3894  0.5486
  613MOL0     C80826   8.671   0.962   7.181 -0.7961  0.3256 -0.4816
  613MOL0     C80827   8.782   0.856   7.186 -0.4793 -0.5137 -0.0517
  613MOL0    Cl80828   8.754   0.723   7.306  0.1698  0.2627  0.0907
  613MOL0     C80829   8.882   1.706   7.572 -0.5060 -0.6936 -0.1527
  613MOL0     C80830   8.983   1.800   7.609  0.0959 -0.5706 -0.2660
  613MOL0     O80831   8.953   2.051   7.780  0.2070  0.0415  0.6008
  613MOL0     C80832   9.139   2.264   7.774 -0.7065  0.0556 -0.8199
  613MOL0     C80833   9.228   2.366   7.809  0.3024  0.1037 -0.6350
  613MOL0     N80834  10.022   2.724   8.137 -0.2021  0.4544 -0.6094
  613MOL0     N80835  10.060   2.837   8.092 -0.3750 -0.3820  0.1882
  613MOL0     C80836  10.721   3.590   8.231  0.1560 -0.0588  0.6755
  613MOL0     C80837  10.840   3.659   8.262 -0.2824 -0.5656 -0.2001
  613MOL0     C80838  11.221   3.847   8.363 -0.2350 -0.9843  0.0246
  613MOL0     C80839  11.262   3.985   8.353 -1.3742 -0.1688  0.0937
  613MOL0     C80840  11.363   4.038   8.436  0.1739 -0.0281 -0.1410
  613MOL0     C80841  11.417   3.959   8.536 -0.6671  1.8960 -0.0185
  613MOL0     O80842  11.516   4.000   8.627  0.5425 -0.0230  0.1824
  613MOL0     C80843  11.639   3.927   8.636 -0.4920 -0.1450  0.4205
  613MOL0     C80844  11.717   4.012   8.736 -0.1031 -0.0785 -0.1916
  613MOL0     C80845  11.852   3.958   8.767  0.3581 -0.3163 -0.4604
  613MOL0     C80846  11.950   4.066   8.814 -0.2119 -0.5677 -0.0405
  613MOL0     C80847  12.078   4.013   8.853  0.3907 -0.2370 -0.6175
  613MOL0     C80848  12.189   3.969   8.871  1.0352  0.8491 -0.1118
  613MOL0     C80849  11.380   3.819   8.536 -0.3594  0.2870  0.2704
  613MOL0     C80850  11.277   3.766   8.455 -0.1140  0.5524 -0.5836
  613MOL0     H80851  11.067   3.408   8.249 -0.5048 -0.4257  0.9395
  613MOL0     H80852  10.878   3.287   8.184  2.5789  0.5653  0.3278
  613MOL0     H80853  10.575   3.491   8.018  1.4309 -1.0201 -0.1590
  613MOL0     H80854  10.484   3.498   8.167 -1.2941 -0.9674  0.6548
  613MOL0     H80855  10.408   3.245   8.115 -1.8310 -2.2362 -2.7864
  613MOL0     H80856  10.504   3.248   7.975 -1.6928  0.0123 -0.5124
  613MOL0     H80857  10.367   3.438   7.892 -2.9092  2.5504  1.1673
  613MOL0     H80858  10.264   3.421   8.035  0.3505 -0.8753  0.8347
  613MOL0     H80859  10.276   3.201   7.829  1.6767 -3.7952  2.8860
  613MOL0     H80860  10.222   3.174   7.991  2.5384  0.3131  0.7826
  613MOL0     H80861  10.113   3.389   7.794 -2.8827 -0.2808 -1.0319
  613MOL0     H80862  10.050   3.362   7.958  1.7359 -0.1450  1.1816
  613MOL0     H80863  10.039   3.174   7.714  0.7323 -1.9121  0.7891
  613MOL0     H80864   9.918   3.276   7.787  2.3754  2.3692  0.1020
  613MOL0     H80865   9.974   3.117   8.010  0.4626  0.1625 -0.5372
  613MOL0     H80866   9.854   3.084   7.888 -0.4346  0.4141 -1.5637
  613MOL0     H80867  10.135   2.981   7.866 -0.6523  1.5364  1.7356
  613MOL0     H80868   9.983   2.923   7.783  0.1553 -2.7294  2.3040
  613MOL0     H80869   9.827   2.749   7.876 -1.2665 -2.1480  1.9738
  613MOL0     H80870   9.876   2.514   8.198 -2.5385 -2.4020 -0.0289
  613MOL0     H80871   9.839   2.488   8.028  0.4042 -0.4135  0.5853
  613MOL0     H80872   9.689   2.688   8.196 -0.3247 -1.2090  2.6158
  613MOL0     H80873   9.634   2.523   8.199 -3.1381 -0.9613 -4.5773
  613MOL0     H80874   9.506   2.650   8.049  0.0087  1.0712 -3.1963
  613MOL0     H80875   9.650   2.650   7.944  2.6462  0.5803  2.2713
  613MOL0     H80876   9.524   2.391   8.062 -1.4523  1.7353  0.2483
  613MOL0     H80877   9.614   2.392   7.914  0.0494 -0.6155 -0.1866
  613MOL0     H80878   9.481   2.178   7.961  0.5437 -0.9945 -0.1322
  613MOL0     H80879   9.315   2.004   7.925 -0.2036  0.6145  1.1151
  613MOL0     H80880   9.039   1.728   7.927 -0.5631 -2.3212  1.5260
  613MOL0     H80881   8.873   1.548   7.882  3.2861  1.6991  1.6068
  613MOL0     H80882   8.654   1.492   7.813 -0.9237  0.9629 -1.0650
  613MOL0     H80883   8.783   1.371   7.775 -1.0535  0.4403  0.0122
  613MOL0     H80884   8.513   1.352   7.649  0.8880 -4.0109 -2.9777
  613MOL0     H80885   8.563   1.292   7.807  2.4094 -0.7228  0.7354
  613MOL0     H80886   8.571   1.126   7.640  1.4607 -1.4474  2.9939
  613MOL0     H80887   8.736   1.150   7.697  1.9597  0.7223 -1.6861
  613MOL0     H80888   8.646   1.294   7.447  0.4186  0.1213  0.1384
  613MOL0     H80889   8.796   1.248   7.507 -0.0973  2.3239 -0.2763
  613MOL0     H80890   8.581   1.030   7.440 -0.5318 -0.2885 -0.6821
  613MOL0     H80891   8.766   1.021   7.451 -0.4027 -0.2320 -0.3322
  613MOL0     H80892   8.782   1.153   7.235 -0.8554 -0.0102 -3.0387
  613MOL0     H80893   8.611   1.162   7.224  3.3215  3.2421 -2.9101
  613MOL0     H80894   8.576   0.918   7.214 -0.0190 -1.4267 -0.4536
  613MOL0     H80895   8.667   0.997   7.077 -1.7981  0.2686 -0.4704
  613MOL0     H80896   8.878   0.903   7.209 -0.2698 -0.0243 -1.7806
  613MOL0     H80897   8.807   0.812   7.089  0.6559 -0.5705  0.2476
  613MOL0     H80898   8.840   1.717   7.473  1.1111  2.0195 -0.6617
  613MOL0     H80899   9.015   1.886   7.551  0.2125  0.3424  1.1233
  613MOL0     H80900   9.042   2.291   7.734 -0.2650  2.7683 -0.2720
  613MOL0     H80901   9.210   2.470   7.782  0.9780  0.4573  0.2463
  613MOL0     H80902  10.631   3.650   8.232 -0.1497 -0.2268 -3.2527
  613MOL0     H80903  10.834   3.763   8.295 -0.1553 -0.3938 -0.7099
  613MOL0     H80904  11.219   4.059   8.286  1.6113 -0.5997 -2.5174
  613MOL0     H80905  11.393   4.142   8.446 -1.0283  0.2841  0.5169
  613MOL0     H80906  11.687   3.927   8.537 -2.6243  1.0390 -0.6778
  613MOL0     H80907  11.620   3.823   8.666 -2.1680  0.0238  0.0513
  613MOL0     H80908  11.715   4.118   8.710  1.5824  0.2445  0.8152
  613MOL0     H80909  11.659   4.009   8.828 -2.1767  0.0805 -1.4395
  613MOL0     H80910  11.888   3.909   8.675 -2.2062 -1.7710 -0.8067
  613MOL0     H80911  11.839   3.879   8.841 -0.4032 -0.4318 -0.7088
  613MOL0     H80912  11.967   4.132   8.729  1.2087 -0.1429  0.5468
  613MOL0     H80913  11.913   4.125   8.898 -0.6405  0.1931 -0.7585
  613MOL0     H80914  12.294   3.951   8.879  0.8878 -1.1447 -1.7625
  613MOL0     H80915  11.428   3.753   8.607  0.0516 -0.0097 -0.2752
  613MOL0     H80916  11.257   3.662   8.479  4.4452 -0.0539  1.6304
  614MOL0     O80917   2.651   7.855   7.470 -0.6081 -0.0666 -0.9317
  614MOL0     C80918   2.682   7.772   7.384 -0.2297 -0.6886  0.1235
  614MOL0     O80919   2.604   7.665   7.339 -0.2751 -0.3524  0.4338
  614MOL0     C80920   2.478   7.633   7.384  0.6979  0.1288 -0.3699
  614MOL0     C80921   2.412   7.520   7.321  0.1129 -0.1403  0.6387
  614MOL0     C80922   2.283   7.478   7.360 -0.6801 -0.1433 -0.1326
  614MOL0     C80923   2.216   7.541   7.455  0.0329  0.6113  0.1857
  614MOL0     O80924   2.084   7.504   7.490 -0.2245 -0.0284 -0.1490
  614MOL0     C80925   2.070   7.454   7.618  0.2381 -0.8174 -0.6331
  614MOL0     C80926   1.967   7.344   7.617  0.8263  0.3543 -0.6796
  614MOL0     C80927   1.820   7.391   7.614  0.9296 -0.0197 -0.7733
  614MOL0     C80928   1.723   7.278   7.609  0.0990  0.3997 -0.2968
  614MOL0     C80929   1.582   7.321   7.588 -0.4001  0.1174 -0.0241
  614MOL0     C80930   1.481   7.205   7.598 -0.3299 -0.1728  0.6034
  614MOL0     C80931   1.345   7.260   7.597  0.0661 -0.4310  0.5290
  614MOL0     C80932   1.237   7.166   7.643  0.2201 -0.9417  0.5804
  614MOL0     N80933   1.108   7.243   7.638 -0.2055 -0.9789  0.0789
  614MOL0     C80934   1.022   7.256   7.742 -0.2547  0.1682 -0.1945
  614MOL0     C80935   0.915   7.315   7.693  0.6816 -0.6190  0.3398
  614MOL0     C80936   0.781   7.326   7.757  0.4010  0.6598  0.3207
  614MOL0     C80937   0.669   7.276   7.664  0.2297 -0.2263  0.7298
  614MOL0     C80938   0.536   7.306   7.735 -0.7881  0.1245 -0.2258
  614MOL0     C80939   0.411   7.260   7.668  0.0052 -0.0978 -0.1971
  614MOL0     O80940   0.354   7.359   7.588  0.6059  0.3058 -0.2198
  614MOL0     C80941   0.222   7.336   7.547 -0.2198 -0.0017 -1.2972
  614MOL0     C80942   0.140   7.228   7.582 -0.8737 -0.0018 -0.5009
  614MOL0     C80943   0.009   7.210   7.523  0.0013  0.0138  0.1491
  614MOL0     C80944  -0.048   7.310   7.432 -0.5998 -0.7397 -0.8546
  614MOL0     C80945  -0.174   7.287   7.356  0.4295  0.3613  0.2268
  614MOL0     O80946  -0.234   7.159   7.375  0.3196  0.3339 -0.2255
  614MOL0     C80947  -0.366   7.153   7.327  0.0654  0.2588 -0.1158
  614MOL0     C80948  -0.391   7.125   7.197  0.1737 -0.1037  0.3687
  614MOL0     C80949  -0.525   7.105   7.150 -0.8961  0.5914  0.3968
  614MOL0     C80950  -0.639   7.129   7.232 -0.4396 -0.0607 -0.7413
  614MOL0     O80951  -0.767   7.117   7.183 -0.0379 -0.2988 -0.8573
  614MOL0     C80952  -0.800   7.176   7.056  0.1482  0.5315 -0.7783
  614MOL0     C80953  -0.842   7.322   7.077 -0.4642  0.1315  0.0161
  614MOL0     C80954  -0.729   7.417   7.092  0.1457 -0.1859 -0.2151
  614MOL0     C80955  -0.777   7.567   7.090  0.0085 -0.1735  0.7320
  614MOL0     C80956  -0.656   7.665   7.071  2.0251  0.3528 -0.7780
  614MOL0     C80957  -0.547   7.648   7.179  0.3392  0.3425 -0.0417
  614MOL0     C80958  -0.424   7.738   7.164 -0.7193 -0.1999  0.3284
  614MOL0     C80959  -0.337   7.665   7.058 -0.3267  0.3175  0.5139
  614MOL0    Cl80960  -0.365   7.700   6.880 -0.0304  0.3051 -0.3015
  614MOL0     C80961  -0.610   7.150   7.362 -0.1359  0.3985 -1.0283
  614MOL0     C80962  -0.481   7.155   7.414  1.2427  0.4747  0.0137
  614MOL0     O80963  -0.224   7.380   7.290 -0.9039  0.8149 -0.1338
  614MOL0     C80964   0.037   7.416   7.397 -0.0646 -0.4216 -0.3324
  614MOL0     C80965   0.163   7.431   7.454 -0.0620  0.3323  0.5559
  614MOL0     N80966   0.940   7.348   7.561 -0.1528 -0.0868  0.5236
  614MOL0     N80967   1.056   7.305   7.532  0.1274 -0.0318 -0.6648
  614MOL0     C80968   2.282   7.642   7.525  0.3796  0.8160 -0.4414
  614MOL0     C80969   2.408   7.692   7.489  0.8222 -0.2075  0.6600
  614MOL0     C80970   2.812   7.804   7.313  0.8834  1.4440 -0.2785
  614MOL0     C80971   2.877   7.918   7.339 -0.3348  0.1593  0.1060
  614MOL0     C80972   3.002   7.938   7.280 -0.4469 -0.2140  0.5785
  614MOL0     C80973   3.059   7.854   7.184  0.9800  0.5610 -0.0798
  614MOL0     O80974   3.172   7.899   7.135  0.0417 -0.3199  0.1220
  614MOL0     C80975   3.234   7.814   7.042  0.3638 -0.4870  0.2253
  614MOL0     C80976   3.359   7.886   6.994 -0.2327 -0.7414  0.2150
  614MOL0     C80977   3.450   7.783   6.927  0.6693  0.3356 -0.5263
  614MOL0     C80978   3.561   7.840   6.850  0.1366 -0.8145  0.5628
  614MOL0     C80979   3.647   7.752   6.775 -0.1286  0.3403 -0.2243
  614MOL0     C80980   3.724   7.675   6.724  0.6951 -0.8809 -0.4024
  614MOL0     C80981   2.986   7.740   7.152  0.4218  0.3043  0.1431
  614MOL0     C80982   2.862   7.712   7.215 -0.3110  0.1470  0.1078
  614MOL0     H80983   2.463   7.470   7.239 -0.5651  0.6865 -0.3064
  614MOL0     H80984   2.225   7.409   7.300 -5.5217  1.6847  1.9336
  614MOL0     H80985   2.026   7.523   7.690  1.3497 -1.2025  0.4693
  614MOL0     H80986   2.166   7.417   7.656 -0.3385 -0.0347  1.8226
  614MOL0     H80987   1.985   7.264   7.689 -0.9953 -1.0862 -1.7221
  614MOL0     H80988   1.989   7.284   7.528  2.8716  0.7796 -0.5021
  614MOL0     H80989   1.811   7.458   7.528  4.2052  0.7907 -0.6215
  614MOL0     H80990   1.787   7.443   7.705 -2.2828 -0.8560 -1.3171
  614MOL0     H80991   1.752   7.225   7.518  0.0143 -0.3869  0.1310
  614MOL0     H80992   1.726   7.209   7.694  2.4086 -0.2688 -0.8578
  614MOL0     H80993   1.578   7.364   7.487  0.0983 -1.8927 -0.9454
  614MOL0     H80994   1.558   7.393   7.667  0.0512  1.2785 -0.9052
  614MOL0     H80995   1.489   7.147   7.691 -5.5477 -3.1032 -0.3950
  614MOL0     H80996   1.498   7.130   7.521  0.0930 -1.0163  1.4927
  614MOL0     H80997   1.332   7.342   7.669 -1.9491  0.3938 -0.6944
  614MOL0     H80998   1.333   7.305   7.498 -0.5005 -2.5536 -0.4254
  614MOL0     H80999   1.232   7.115   7.739 -0.4607 -1.7136  0.1480
  614MOL0     H81000   1.230   7.097   7.558 -0.9844  0.4718 -0.5337
  614MOL0     H81001   1.026   7.200   7.835 -2.8858 -0.1467 -0.1924
  614MOL0     H81002   0.767   7.429   7.791 -2.0711  0.3788  0.3556
  614MOL0     H81003   0.781   7.253   7.838  2.5419 -2.5037 -2.2717
  614MOL0     H81004   0.681   7.169   7.641 -1.1570  0.0394 -1.6408
  614MOL0     H81005   0.675   7.327   7.567 -3.0444 -1.8590 -0.4758
  614MOL0     H81006   0.545   7.253   7.831  0.0019 -2.4500 -1.6133
  614MOL0     H81007   0.523   7.410   7.766 -0.4715  0.5120 -1.3425
  614MOL0     H81008   0.350   7.203   7.739 -1.3247  0.2488 -1.0194
  614MOL0     H81009   0.432   7.172   7.606  1.6965 -0.4349  0.7685
  614MOL0     H81010   0.177   7.162   7.660  2.9476  1.8298 -0.5222
  614MOL0     H81011  -0.044   7.120   7.553  0.2533 -0.4485 -0.7579
  614MOL0     H81012  -0.318   7.115   7.116 -0.1785  1.6058 -0.2134
  614MOL0     H81013  -0.534   7.070   7.047  2.0365 -2.4371  0.9736
  614MOL0     H81014  -0.889   7.117   7.034  0.2325  0.4947 -1.0266
  614MOL0     H81015  -0.722   7.167   6.979 -0.0358 -1.6645 -0.7820
  614MOL0     H81016  -0.917   7.336   7.154 -2.4379  0.5078 -1.8864
  614MOL0     H81017  -0.890   7.347   6.982 -2.2505 -1.3404  0.4906
  614MOL0     H81018  -0.662   7.390   7.010 -2.4292 -1.3996 -2.0700
  614MOL0     H81019  -0.678   7.381   7.182  0.6916 -2.5077 -1.3501
  614MOL0     H81020  -0.848   7.583   7.008  0.0072 -1.3956  0.4798
  614MOL0     H81021  -0.840   7.594   7.176 -0.9484 -0.8387  0.2537
  614MOL0     H81022  -0.698   7.766   7.077  1.7213  0.2058 -0.3743
  614MOL0     H81023  -0.607   7.637   6.977  0.7665 -1.2830 -1.0077
  614MOL0     H81024  -0.518   7.543   7.188  1.7978  0.7569  0.3603
  614MOL0     H81025  -0.593   7.668   7.276  1.0638 -4.4507  1.5641
  614MOL0     H81026  -0.454   7.841   7.144 -0.2816  0.2912  2.0109
  614MOL0     H81027  -0.363   7.754   7.253 -1.2420  1.8904  0.3616
  614MOL0     H81028  -0.332   7.559   7.085  0.2338  0.1911 -0.0421
  614MOL0     H81029  -0.234   7.699   7.075 -0.9573  1.3133  2.7041
  614MOL0     H81030  -0.692   7.161   7.432 -0.0697 -1.4857 -0.5988
  614MOL0     H81031  -0.476   7.167   7.522 -1.2504 -1.4466  0.4434
  614MOL0     H81032  -0.001   7.498   7.336  0.9200  0.7993  0.6496
  614MOL0     H81033   0.221   7.520   7.435  1.5273 -0.7360  0.1484
  614MOL0     H81034   2.229   7.697   7.601  2.2415 -0.7473  2.1292
  614MOL0     H81035   2.442   7.778   7.546  2.0650  0.2714 -0.7590
  614MOL0     H81036   2.840   7.994   7.406  0.1976  1.7319 -1.3236
  614MOL0     H81037   3.062   8.025   7.305  0.7968 -0.7530 -0.4387
  614MOL0     H81038   3.176   7.801   6.949  0.8713  0.5450 -0.2540
  614MOL0     H81039   3.259   7.719   7.089 -1.9893 -0.8742  0.8279
  614MOL0     H81040   3.343   7.978   6.938 -2.3423 -2.4042 -2.1340
  614MOL0     H81041   3.415   7.913   7.084  1.3492 -1.6894 -0.4415
  614MOL0     H81042   3.394   7.720   6.857  0.5610  0.6769 -0.7479
  614MOL0     H81043   3.492   7.711   6.998  0.6316 -1.4040 -2.1724
  614MOL0     H81044   3.529   7.920   6.782 -1.1572  0.7513  2.8786
  614MOL0     H81045   3.616   7.899   6.924  1.4323 -1.5895  0.2613
  614MOL0     H81046   3.785   7.593   6.691 -1.5356 -1.8625 -2.4026
  614MOL0     H81047   3.022   7.671   7.077  0.0684 -2.6090  2.4746
  614MOL0     H81048   2.810   7.618   7.195 -1.0819  0.3779  0.9401
  615MOL0     O81049   6.071   3.604   2.520 -0.4472  0.6673  1.1021
  615MOL0     C81050   6.091   3.683   2.425 -0.4457 -0.4813 -0.3912
  615MOL0     O81051   6.208   3.752   2.399 -0.0910  0.3506  0.3841
  615MOL0     C81052   6.326   3.706   2.458  0.2968 -0.2576 -0.1847
  615MOL0     C81053   6.420   3.806   2.491  1.2124  0.4760  0.1854
  615MOL0     C81054   6.548   3.775   2.522 -0.8242  0.0029  0.7145
  615MOL0     C81055   6.596   3.649   2.537  1.1311  0.0623 -0.0065
  615MOL0     O81056   6.723   3.613   2.577  0.1729  0.1206 -0.2145
  615MOL0     C81057   6.830   3.656   2.493 -0.3929  0.5505  0.1360
  615MOL0     C81058   6.909   3.536   2.432  0.6297  0.4514 -0.3748
  615MOL0     C81059   7.014   3.491   2.535  0.6198  0.2428  0.3909
  615MOL0     C81060   7.128   3.391   2.498  0.4723 -0.4725 -0.7721
  615MOL0     C81061   7.191   3.346   2.633 -0.4717 -0.1888 -0.2459
  615MOL0     C81062   7.312   3.249   2.612 -0.1879 -0.4306 -0.0300
  615MOL0     C81063   7.389   3.222   2.744  0.5069 -0.1955  0.1123
  615MOL0     C81064   7.315   3.142   2.853 -0.1912 -0.4641  0.3389
  615MOL0     N81065   7.235   3.031   2.799  0.7920  0.0096  0.5781
  615MOL0     C81066   7.099   3.027   2.779  0.5224  0.4717 -0.7157
  615MOL0     C81067   7.066   2.895   2.741 -0.1177  0.1129 -0.8436
  615MOL0     C81068   6.938   2.828   2.710 -0.1153 -1.0664 -0.5248
  615MOL0     C81069   6.848   2.913   2.610  0.2867  0.4516 -0.1179
  615MOL0     C81070   6.749   2.993   2.685 -0.0715  0.0111  0.3973
  615MOL0     C81071   6.625   3.040   2.606 -0.2722  0.2443  0.3674
  615MOL0     O81072   6.676   3.126   2.500 -0.2864  0.0949  1.3138
  615MOL0     C81073   6.588   3.164   2.402  1.0873  0.3559 -0.1175
  615MOL0     C81074   6.624   3.250   2.298 -0.4914 -0.4759 -0.8557
  615MOL0     C81075   6.528   3.291   2.205  0.7757  0.3014  0.4857
  615MOL0     C81076   6.400   3.231   2.203  0.1199 -0.3451  0.4158
  615MOL0     C81077   6.297   3.273   2.110  0.0326 -0.2143  0.3832
  615MOL0     O81078   6.171   3.234   2.124  0.9759  0.0498  0.4738
  615MOL0     C81079   6.077   3.276   2.031  0.1446 -0.0062 -0.5324
  615MOL0     C81080   5.975   3.351   2.087 -0.6335  0.3853  0.3368
  615MOL0     C81081   5.868   3.387   2.006 -0.4557 -0.0245  0.5284
  615MOL0     C81082   5.856   3.339   1.875 -0.3408 -0.3088 -0.9329
  615MOL0     O81083   5.741   3.377   1.815  0.5859  0.1106  0.2016
  615MOL0     C81084   5.707   3.312   1.687 -0.3619  0.2884 -0.6756
  615MOL0     C81085   5.567   3.371   1.651 -0.0373 -0.0252  0.0889
  615MOL0     C81086   5.515   3.281   1.542 -0.6395  0.4543 -0.6432
  615MOL0     C81087   5.377   3.324   1.503 -0.0874 -0.8111 -0.4614
  615MOL0     C81088   5.332   3.259   1.369 -0.4091 -0.7483 -0.2080
  615MOL0     C81089   5.187   3.306   1.338  0.3718  0.3506 -0.3315
  615MOL0     C81090   5.136   3.261   1.191 -0.1987 -0.6714 -0.1195
  615MOL0     C81091   5.014   3.334   1.142 -0.2391 -0.3986 -0.4079
  615MOL0    Cl81092   4.874   3.305   1.262 -0.1938 -0.1862 -0.0507
  615MOL0     C81093   5.963   3.260   1.820 -0.0392 -0.2218 -0.0271
  615MOL0     C81094   6.074   3.230   1.900 -0.6334 -0.5803 -0.1301
  615MOL0     O81095   6.337   3.337   2.011 -0.0472  0.8877  0.2950
  615MOL0     C81096   6.370   3.133   2.298  0.3830 -0.5506 -0.4176
  615MOL0     C81097   6.460   3.101   2.396 -0.6510 -0.0469  0.3486
  615MOL0     N81098   7.190   2.834   2.724  0.0074  0.5647  0.1917
  615MOL0     N81099   7.282   2.907   2.771  1.0005 -0.0390  0.6386
  615MOL0     C81100   6.498   3.547   2.519  0.3813  0.5369 -0.0299
  615MOL0     C81101   6.366   3.573   2.469 -0.4089 -0.4165  0.6285
  615MOL0     C81102   5.984   3.712   2.336  1.4188  0.4782 -0.7857
  615MOL0     C81103   6.019   3.731   2.212  0.2998  0.5452  0.7299
  615MOL0     C81104   5.921   3.743   2.115  0.1524  0.1493 -0.5821
  615MOL0     C81105   5.785   3.731   2.155 -0.4192 -0.3849 -0.6132
  615MOL0     O81106   5.684   3.750   2.064  0.1608  0.3708 -0.1916
  615MOL0     C81107   5.716   3.729   1.926  0.0700  0.2093 -0.1318
  615MOL0     C81108   5.592   3.722   1.837  0.0938 -0.0110  0.3690
  615MOL0     C81109   5.482   3.636   1.905  0.5763 -0.1834  0.6495
  615MOL0     C81110   5.358   3.630   1.808 -0.0395 -0.1862  0.0816
  615MOL0     C81111   5.258   3.524   1.839 -0.0047 -0.5258 -0.8639
  615MOL0     C81112   5.175   3.437   1.858  0.7274 -0.4134 -0.5107
  615MOL0     C81113   5.756   3.708   2.295  0.0851 -0.0855 -0.1472
  615MOL0     C81114   5.855   3.693   2.385  0.8248  0.1808  0.9408
  615MOL0     H81115   6.392   3.910   2.479 -2.6438 -0.2382  1.3882
  615MOL0     H81116   6.619   3.848   2.559  0.8969 -2.8885  3.6055
  615MOL0     H81117   6.898   3.729   2.540 -0.9871 -0.2582  2.4006
  615MOL0     H81118   6.795   3.715   2.408  1.7850 -0.8302 -1.8404
  615MOL0     H81119   6.960   3.576   2.344 -0.7322  1.9382 -0.5263
  615MOL0     H81120   6.848   3.449   2.406 -1.5759  0.5828  3.5270
  615MOL0     H81121   6.941   3.452   2.607 -0.5020  3.0053  0.8419
  615MOL0     H81122   7.058   3.576   2.586 -3.3602  1.9548  1.3370
  615MOL0     H81123   7.086   3.300   2.454 -0.8946 -0.6446  0.7911
  615MOL0     H81124   7.199   3.439   2.429  0.1859  0.4581 -0.4302
  615MOL0     H81125   7.110   3.313   2.698 -2.3472  0.0721 -2.3151
  615MOL0     H81126   7.232   3.434   2.681 -0.5214  0.9205 -2.1450
  615MOL0     H81127   7.378   3.312   2.552 -2.1555  2.9929  1.0851
  615MOL0     H81128   7.284   3.158   2.559 -1.0446  0.0078 -0.3538
  615MOL0     H81129   7.477   3.163   2.719  0.6547  0.0064  0.1587
  615MOL0     H81130   7.435   3.308   2.792 -2.0758  0.3130  1.9125
  615MOL0     H81131   7.257   3.212   2.914  1.2828  0.4532  0.7518
  615MOL0     H81132   7.389   3.091   2.916 -0.0396 -1.6097 -0.7424
  615MOL0     H81133   7.027   3.095   2.824  1.5983  0.2281  1.4932
  615MOL0     H81134   6.885   2.815   2.805 -2.3639  0.8943 -1.3840
  615MOL0     H81135   6.971   2.730   2.675 -0.2118 -3.0414  4.1001
  615MOL0     H81136   6.807   2.837   2.543 -2.0759  0.0052  1.7048
  615MOL0     H81137   6.914   2.974   2.547  0.0916  3.2337  2.1489
  615MOL0     H81138   6.702   2.936   2.766 -2.8997  1.2144 -0.2756
  615MOL0     H81139   6.794   3.083   2.729 -1.7124  0.2427  1.7135
  615MOL0     H81140   6.567   3.092   2.682  0.2170 -0.5347  1.3052
  615MOL0     H81141   6.573   2.952   2.567 -2.0412  1.9926 -1.4534
  615MOL0     H81142   6.719   3.301   2.287 -0.1157 -0.1518  2.7794
  615MOL0     H81143   6.553   3.358   2.123 -0.2015  0.5045  0.3397
  615MOL0     H81144   5.979   3.387   2.189 -3.7057  2.7315 -0.1973
  615MOL0     H81145   5.799   3.464   2.039  2.3232  3.2072 -0.6054
  615MOL0     H81146   5.715   3.204   1.700 -2.1466  0.3107  1.0832
  615MOL0     H81147   5.772   3.346   1.606 -1.3686  2.2959 -0.7045
  615MOL0     H81148   5.601   3.468   1.613  3.3782 -0.9978  0.3331
  615MOL0     H81149   5.499   3.369   1.737  1.3839 -0.3880  1.2538
  615MOL0     H81150   5.504   3.182   1.587  0.8366  1.6253  2.6710
  615MOL0     H81151   5.582   3.272   1.456 -2.1319 -0.2380 -1.7851
  615MOL0     H81152   5.307   3.302   1.584  1.6211  2.5520  2.1712
  615MOL0     H81153   5.359   3.431   1.491 -1.5848 -1.2512 -3.0405
  615MOL0     H81154   5.336   3.150   1.370 -0.8111 -0.7742 -0.9425
  615MOL0     H81155   5.395   3.300   1.290 -2.1697  1.5126 -0.5524
  615MOL0     H81156   5.195   3.415   1.342 -0.2273  0.3639  1.8219
  615MOL0     H81157   5.118   3.271   1.416  2.8159  1.8198  2.7210
  615MOL0     H81158   5.217   3.271   1.118 -0.5967  1.2632 -0.3505
  615MOL0     H81159   5.115   3.154   1.200  0.7163 -1.0043 -1.5399
  615MOL0     H81160   4.994   3.302   1.039  1.6681 -1.1103 -0.5978
  615MOL0     H81161   5.041   3.439   1.134  0.4496 -0.6235 -1.1860
  615MOL0     H81162   5.966   3.223   1.717  0.2632  3.9934 -1.7168
  615MOL0     H81163   6.157   3.165   1.876  0.7172  0.8208  0.5818
  615MOL0     H81164   6.273   3.085   2.298 -1.8345  3.3177  2.7069
  615MOL0     H81165   6.418   3.035   2.472  1.8165 -1.3462  0.6801
  615MOL0     H81166   6.532   3.444   2.524  0.4803  0.6204  1.0927
  615MOL0     H81167   6.298   3.489   2.458 -0.0618 -0.4057 -2.5772
  615MOL0     H81168   6.122   3.739   2.178 -0.4338 -0.7354 -2.0497
  615MOL0     H81169   5.958   3.758   2.014  0.5753 -1.2805 -0.6547
  615MOL0     H81170   5.770   3.634   1.921 -0.9527 -0.7084  3.3860
  615MOL0     H81171   5.774   3.812   1.884 -0.4870  1.1186  0.8390
  615MOL0     H81172   5.558   3.826   1.830  2.4937  1.0335  2.4947
  615MOL0     H81173   5.627   3.688   1.739  0.7889  0.5139  0.4240
  615MOL0     H81174   5.448   3.690   1.995  0.7834  1.4150 -0.1935
  615MOL0     H81175   5.527   3.537   1.915  0.6950 -0.2514 -0.4562
  615MOL0     H81176   5.299   3.721   1.813 -4.0267 -2.6202  2.3875
  615MOL0     H81177   5.395   3.618   1.706 -2.1055 -1.0017 -0.6160
  615MOL0     H81178   5.104   3.358   1.865  1.8457 -1.3562  0.5433
  615MOL0     H81179   5.650   3.712   2.319  0.2382  3.1845  0.3806
  615MOL0     H81180   5.824   3.675   2.488  1.1786 -0.5314  0.9313
  616MOL0     O81181   8.853   1.250  10.305  0.4418 -0.3982 -0.3079
  616MOL0     C81182   8.813   1.197  10.411 -0.8280  0.2298 -0.8147
  616MOL0     O81183   8.882   1.191  10.527 -0.5332  0.1641 -0.0954
  616MOL0     C81184   9.008   1.247  10.525  1.3268 -0.3584 -0.7166
  616MOL0     C81185   9.116   1.161  10.535 -0.6833 -0.0466 -0.3463
  616MOL0     C81186   9.241   1.220  10.546 -0.4021 -1.2431 -0.4264
  616MOL0     C81187   9.260   1.360  10.534 -0.3451  1.2952  1.0360
  616MOL0     O81188   9.380   1.426  10.522 -0.8860  0.3812  0.6966
  616MOL0     C81189   9.501   1.354  10.529  0.4240 -0.4775  0.2397
  616MOL0     C81190   9.604   1.473  10.507  0.5467  0.6278 -0.4977
  616MOL0     C81191   9.753   1.442  10.537 -0.1187  1.0023  0.7940
  616MOL0     C81192   9.815   1.375  10.407  0.4063 -0.9329 -0.0698
  616MOL0     C81193   9.950   1.299  10.445  0.6610  0.0854  0.8041
  616MOL0     C81194   9.921   1.165  10.503 -0.3945  1.3471 -0.1617
  616MOL0     C81195   9.850   1.062  10.414  0.4674  0.2060  0.2465
  616MOL0     C81196   9.879   0.918  10.469  1.1178  0.6559 -0.4022
  616MOL0     N81197   9.806   0.803  10.398  0.8329 -0.7070  0.3093
  616MOL0     C81198   9.830   0.757  10.270 -0.5138  0.8062 -0.5268
  616MOL0     C81199   9.735   0.666  10.249 -0.5297 -0.4407 -0.6056
  616MOL0     C81200   9.714   0.600  10.120  0.1121  0.8058  0.0087
  616MOL0     C81201   9.635   0.696  10.025 -1.0505  0.0208  0.0947
  616MOL0     C81202   9.626   0.633   9.879 -0.1157 -0.3219 -0.3491
  616MOL0     C81203   9.506   0.674   9.787  0.1894  0.3575 -0.0011
  616MOL0     O81204   9.383   0.615   9.833  0.5614  0.6957 -0.1723
  616MOL0     C81205   9.268   0.641   9.764 -0.6099 -0.2136 -0.0461
  616MOL0     C81206   9.157   0.555   9.778 -0.0148 -0.8594 -0.5986
  616MOL0     C81207   9.040   0.570   9.702 -0.3145 -0.5933 -0.6649
  616MOL0     C81208   9.021   0.681   9.629 -0.3757 -0.7415 -0.2689
  616MOL0     C81209   8.883   0.719   9.578  0.7719 -1.1451 -1.1442
  616MOL0     O81210   8.794   0.612   9.582 -0.7973 -0.1015 -0.3754
  616MOL0     C81211   8.669   0.640   9.535 -0.0390 -0.0912  0.2674
  616MOL0     C81212   8.576   0.708   9.615  0.8404 -0.5838 -0.3604
  616MOL0     C81213   8.440   0.737   9.568  0.0951 -0.0074 -0.1410
  616MOL0     C81214   8.398   0.672   9.451 -0.2183 -0.2944  0.3736
  616MOL0     O81215   8.267   0.691   9.417 -0.2476 -0.2764 -0.5196
  616MOL0     C81216   8.208   0.579   9.343  0.1265 -0.1503  0.0744
  616MOL0     C81217   8.049   0.597   9.352  0.5254  0.0750 -0.3535
  616MOL0     C81218   7.996   0.567   9.484  0.3441  0.3465  0.5680
  616MOL0     C81219   7.848   0.562   9.500  0.1515  0.2845  0.8668
  616MOL0     C81220   7.793   0.467   9.601 -1.1861 -0.1347 -0.0152
  616MOL0     C81221   7.637   0.449   9.610 -0.4335 -0.6456  0.5698
  616MOL0     C81222   7.593   0.388   9.742 -1.1276  0.5244  0.0785
  616MOL0     C81223   7.440   0.386   9.750  0.4658 -0.4401 -0.6537
  616MOL0    Cl81224   7.368   0.312   9.606 -0.2510  0.0215 -0.4168
  616MOL0     C81225   8.490   0.600   9.373  1.2334 -0.5261  0.7234
  616MOL0     C81226   8.628   0.587   9.410 -0.2592  0.8329  0.4663
  616MOL0     O81227   8.860   0.827   9.525 -0.1428  0.3465  0.3728
  616MOL0     C81228   9.124   0.770   9.615 -0.1036 -0.3345 -0.0993
  616MOL0     C81229   9.247   0.749   9.674  0.4067  0.1350  0.2705
  616MOL0     N81230   9.658   0.653  10.366  0.0134 -0.4049 -0.0014
  616MOL0     N81231   9.699   0.742  10.450 -0.5531 -0.2926 -0.3752
  616MOL0     C81232   9.145   1.435  10.503 -0.0111 -0.6068 -0.5438
  616MOL0     C81233   9.022   1.381  10.514 -0.1267  0.1324 -0.0231
  616MOL0     C81234   8.695   1.122  10.406  0.7754  1.0706  1.2230
  616MOL0     C81235   8.634   1.072  10.518 -0.0190  0.7573 -0.4329
  616MOL0     C81236   8.516   1.009  10.524  0.2788 -0.5561 -1.4606
  616MOL0     C81237   8.443   1.000  10.404  0.5063 -0.1660 -0.0639
  616MOL0     O81238   8.325   0.935  10.415 -0.1976 -0.0863 -0.0193
  616MOL0     C81239   8.242   0.918  10.304  0.7215  0.8128  0.0650
  616MOL0     C81240   8.122   0.846  10.333  0.2083  0.2231 -0.5444
  616MOL0     C81241   8.147   0.697  10.337 -0.6953 -0.5830  0.6046
  616MOL0     C81242   8.034   0.614  10.378  0.2697 -0.2647  0.6591
  616MOL0     C81243   8.010   0.630  10.522  0.1565  0.2846 -0.3673
  616MOL0     C81244   7.996   0.654  10.639 -0.0673 -0.1992 -0.1779
  616MOL0     C81245   8.495   1.053  10.287 -0.6092 -0.4577  0.1713
  616MOL0     C81246   8.628   1.112  10.287  0.6488 -0.2986  0.0402
  616MOL0     H81247   9.111   1.052  10.535 -0.8653 -0.0519 -1.7104
  616MOL0     H81248   9.318   1.149  10.573  0.3372  0.3656  2.0578
  616MOL0     H81249   9.520   1.285  10.446  0.9432 -1.5738  1.2574
  616MOL0     H81250   9.501   1.309  10.628 -0.7868 -0.3750  0.3049
  616MOL0     H81251   9.574   1.551  10.577  0.4263 -0.8037  1.0903
  616MOL0     H81252   9.600   1.517  10.406  2.0258  0.1821 -0.7710
  616MOL0     H81253   9.771   1.383  10.627  1.3703 -0.7105 -0.5392
  616MOL0     H81254   9.813   1.532  10.552  0.9672  0.2692  1.0076
  616MOL0     H81255   9.741   1.310  10.358  0.2874  0.0777 -1.2929
  616MOL0     H81256   9.843   1.455  10.338  0.5499  0.4657  1.5720
  616MOL0     H81257   9.997   1.369  10.515 -3.4484  1.1311  2.8229
  616MOL0     H81258  10.008   1.285  10.353 -1.6477 -2.1460 -0.4483
  616MOL0     H81259   9.871   1.172  10.600 -2.0623 -2.7709 -0.5332
  616MOL0     H81260  10.019   1.122  10.526 -0.8698 -1.0427 -2.2095
  616MOL0     H81261   9.742   1.079  10.412  0.2525 -1.1368 -1.1358
  616MOL0     H81262   9.884   1.058  10.310 -0.0127 -1.0517  0.1208
  616MOL0     H81263   9.858   0.907  10.576  0.4961  1.0167 -0.4867
  616MOL0     H81264   9.986   0.895  10.461  0.6354 -1.1043 -4.9526
  616MOL0     H81265   9.911   0.779  10.200 -0.3996  0.5081 -0.4910
  616MOL0     H81266   9.649   0.513  10.138 -1.4059  1.1429 -3.1037
  616MOL0     H81267   9.811   0.572  10.078  0.3439  0.1402  0.9670
  616MOL0     H81268   9.680   0.795  10.018  0.1625 -0.5737 -0.7965
  616MOL0     H81269   9.535   0.719  10.063 -1.9772  0.1164 -2.2432
  616MOL0     H81270   9.714   0.666   9.824  0.4547 -0.1137  0.6665
  616MOL0     H81271   9.626   0.524   9.878  1.6078 -0.3475 -0.6955
  616MOL0     H81272   9.519   0.657   9.680 -1.2585 -1.3943  0.0602
  616MOL0     H81273   9.486   0.781   9.799 -1.7157 -0.1360  1.9362
  616MOL0     H81274   9.146   0.470   9.845 -0.5494  1.9163  3.1109
  616MOL0     H81275   8.962   0.495   9.707 -2.7642  1.8345  0.1942
  616MOL0     H81276   8.608   0.757   9.707 -2.6730 -0.0727  0.7560
  616MOL0     H81277   8.357   0.787   9.618 -0.3429 -0.7186 -0.1437
  616MOL0     H81278   8.250   0.484   9.380  3.2634  0.2628 -2.0439
  616MOL0     H81279   8.241   0.587   9.239 -0.8824 -0.5310 -0.2804
  616MOL0     H81280   8.007   0.535   9.272 -0.9775  0.5313  0.0479
  616MOL0     H81281   8.039   0.703   9.327 -0.0500  0.1141  0.0224
  616MOL0     H81282   8.037   0.643   9.552 -3.6093  0.1012  3.5706
  616MOL0     H81283   8.047   0.477   9.521  0.1478  0.8305  2.0718
  616MOL0     H81284   7.798   0.658   9.517 -2.1274 -1.0763  2.5750
  616MOL0     H81285   7.822   0.522   9.402  0.4505 -0.7163  1.1789
  616MOL0     H81286   7.834   0.509   9.694  1.6022  0.7254 -1.5050
  616MOL0     H81287   7.835   0.368   9.585 -1.4433 -0.6420  2.1721
  616MOL0     H81288   7.622   0.381   9.526  3.9811 -1.7554  0.4646
  616MOL0     H81289   7.578   0.540   9.595  1.8258  0.4925 -2.4729
  616MOL0     H81290   7.628   0.284   9.742 -1.3017  0.4508 -1.2957
  616MOL0     H81291   7.630   0.447   9.826 -1.0171  2.1579 -1.0684
  616MOL0     H81292   7.401   0.486   9.773  0.9098  0.0787 -2.0739
  616MOL0     H81293   7.403   0.335   9.839 -0.8695  1.4859 -0.0313
  616MOL0     H81294   8.453   0.549   9.285  2.3707  1.3906 -0.9552
  616MOL0     H81295   8.706   0.528   9.362 -0.0212 -0.6801  2.5561
  616MOL0     H81296   9.110   0.860   9.555  2.7300  0.0598 -0.2924
  616MOL0     H81297   9.333   0.811   9.651  0.2962 -0.5997 -2.3842
  616MOL0     H81298   9.149   1.538  10.470 -0.2299 -0.6359 -0.6629
  616MOL0     H81299   8.930   1.431  10.484  0.1480  0.3834 -0.4478
  616MOL0     H81300   8.679   1.079  10.617 -1.5050  0.3447  0.3109
  616MOL0     H81301   8.471   0.973  10.615  0.0661  1.4798 -0.7103
  616MOL0     H81302   8.302   0.864  10.230 -0.5698  0.0157 -0.4172
  616MOL0     H81303   8.218   1.017  10.263 -0.1088  1.8263  2.7885
  616MOL0     H81304   8.070   0.879  10.424 -0.6808 -2.0245 -0.1467
  616MOL0     H81305   8.061   0.882  10.250  0.4845  5.2769  1.1082
  616MOL0     H81306   8.227   0.671  10.406 -1.0819  0.8927  1.6468
  616MOL0     H81307   8.188   0.669  10.239 -2.3943  2.3319 -1.0943
  616MOL0     H81308   7.946   0.649  10.322 -0.6030  1.8268  3.1400
  616MOL0     H81309   8.048   0.510  10.349 -3.0792 -0.7771  0.4337
  616MOL0     H81310   7.973   0.661  10.744  3.1909  2.9929  0.5072
  616MOL0     H81311   8.447   1.061  10.190 -1.3149 -1.6264  0.4104
  616MOL0     H81312   8.678   1.135  10.193 -1.4444  0.2579 -1.0137
  617MOL0     O81313   1.152   4.497   0.816  0.2672 -0.5292  0.0654
  617MOL0     C81314   1.126   4.484   0.692 -0.2813  0.2063 -1.1394
  617MOL0     O81315   1.037   4.387   0.643 -0.4169  0.0674  0.3218
  617MOL0     C81316   0.947   4.316   0.719 -0.3155  0.0694 -0.2407
  617MOL0     C81317   0.898   4.205   0.652  0.5472  0.4994  0.2949
  617MOL0     C81318   0.792   4.122   0.693 -1.1136 -0.0844 -0.9858
  617MOL0     C81319   0.721   4.159   0.815 -0.6010 -0.1094  0.4329
  617MOL0     O81320   0.608   4.088   0.858  0.1374  0.3345 -0.2129
  617MOL0     C81321   0.507   4.159   0.942 -0.0480  0.3163  0.3490
  617MOL0     C81322   0.384   4.065   0.936 -0.6885 -0.3737 -0.2209
  617MOL0     C81323   0.264   4.134   1.005  0.2823 -0.0806  0.2865
  617MOL0     C81324   0.145   4.043   0.993  0.4422 -0.0069 -0.7278
  617MOL0     C81325   0.007   4.111   1.026  0.5292  0.7342  0.2023
  617MOL0     C81326  -0.108   4.011   1.008  0.7406 -0.1016  0.7790
  617MOL0     C81327  -0.249   4.070   1.036  0.0576  0.1355 -0.5969
  617MOL0     C81328  -0.373   3.979   1.033 -1.1491  0.7195  0.4200
  617MOL0     N81329  -0.411   3.948   0.893 -0.9934 -0.0288  0.2826
  617MOL0     C81330  -0.507   4.020   0.818 -0.1670 -1.2129 -0.4414
  617MOL0     C81331  -0.513   3.956   0.697  0.5457  0.5753  0.0320
  617MOL0     C81332  -0.628   3.977   0.601 -1.3020  0.1054  0.0618
  617MOL0     C81333  -0.770   3.954   0.648 -0.2033 -0.8891 -0.3258
  617MOL0     C81334  -0.827   4.077   0.729 -0.0108  0.7255  0.3354
  617MOL0     C81335  -0.981   4.062   0.718  0.8617  0.7397  0.2453
  617MOL0     O81336  -1.041   3.972   0.817 -0.0854  0.7374  0.4835
  617MOL0     C81337  -1.174   3.967   0.817 -0.3821  0.2291 -0.0792
  617MOL0     C81338  -1.257   4.041   0.730  0.4462  0.6529 -0.0963
  617MOL0     C81339  -1.399   4.036   0.741  0.1203  0.2763 -0.1158
  617MOL0     C81340  -1.464   3.954   0.832  0.1670  0.2209  0.6541
  617MOL0     C81341  -1.612   3.919   0.833 -0.3495 -0.3598  1.0752
  617MOL0     O81342  -1.682   3.985   0.744 -0.0844  0.5752  0.1617
  617MOL0     C81343  -1.816   3.978   0.755 -0.7312  1.3353  0.4142
  617MOL0     C81344  -1.891   3.880   0.691 -0.1981  0.1262  0.8313
  617MOL0     C81345  -2.035   3.883   0.706 -0.2032  0.4776 -0.3377
  617MOL0     C81346  -2.102   3.989   0.787 -0.0447  1.1511  0.4082
  617MOL0     O81347  -2.243   4.000   0.788  0.6386 -1.0284 -0.8886
  617MOL0     C81348  -2.307   3.872   0.783 -0.3194 -0.0039 -0.5729
  617MOL0     C81349  -2.458   3.899   0.824  0.1344  0.6959 -0.1976
  617MOL0     C81350  -2.548   3.772   0.787 -0.3350  0.3114  0.4177
  617MOL0     C81351  -2.697   3.767   0.830 -0.3027 -0.0867  0.2381
  617MOL0     C81352  -2.786   3.847   0.727  0.4117  0.7699  0.8791
  617MOL0     C81353  -2.940   3.825   0.764  0.8002 -0.8358 -0.1939
  617MOL0     C81354  -3.031   3.892   0.659 -0.6823 -0.0493 -1.2438
  617MOL0     C81355  -3.024   3.852   0.509  0.1730  0.7962 -0.1307
  617MOL0    Cl81356  -3.122   3.703   0.495 -0.0543 -0.3929  0.2059
  617MOL0     C81357  -2.022   4.075   0.854 -0.4939 -0.6178  0.6392
  617MOL0     C81358  -1.883   4.068   0.844  0.5545  0.1360 -0.8694
  617MOL0     O81359  -1.650   3.827   0.907 -0.0446 -0.2729  0.2026
  617MOL0     C81360  -1.380   3.877   0.915  0.8119 -0.4832  0.7198
  617MOL0     C81361  -1.239   3.893   0.918 -0.6534  0.0267  0.8991
  617MOL0     N81362  -0.414   3.859   0.681 -0.1473 -0.4260 -0.0415
  617MOL0     N81363  -0.351   3.858   0.800  0.7119 -0.2944 -0.7597
  617MOL0     C81364   0.778   4.267   0.891  0.4161 -0.9823  0.5958
  617MOL0     C81365   0.882   4.347   0.842 -0.2471 -0.3144 -0.0399
  617MOL0     C81366   1.190   4.558   0.593  0.8176 -0.3383  0.2739
  617MOL0     C81367   1.290   4.648   0.628 -0.0826  0.4608  0.3053
  617MOL0     C81368   1.369   4.710   0.534  0.4311  0.1622  0.3791
  617MOL0     C81369   1.323   4.707   0.402  0.2744  0.0882  0.1809
  617MOL0     O81370   1.389   4.791   0.312 -0.1762 -0.2626 -0.5723
  617MOL0     C81371   1.355   4.783   0.175 -0.3625 -0.4548 -0.6380
  617MOL0     C81372   1.453   4.875   0.095 -0.0399 -0.0634 -0.1120
  617MOL0     C81373   1.592   4.821   0.093 -0.0383  0.1707 -0.3568
  617MOL0     C81374   1.688   4.911   0.023 -0.3035 -0.4095 -0.9496
  617MOL0     C81375   1.826   4.869   0.042 -0.5471  0.0031  0.3905
  617MOL0     C81376   1.940   4.830   0.055  0.3776  0.4082  0.2883
  617MOL0     C81377   1.221   4.617   0.368  0.1320 -0.3403 -0.7732
  617MOL0     C81378   1.157   4.544   0.459  0.2416  0.5374  0.1142
  617MOL0     H81379   0.942   4.174   0.557  0.2277 -1.9492  0.8857
  617MOL0     H81380   0.754   4.045   0.628 -2.6627  0.1572 -0.4079
  617MOL0     H81381   0.492   4.256   0.894 -2.7824 -0.3258 -0.2719
  617MOL0     H81382   0.532   4.174   1.048 -1.1223  1.8817  0.4231
  617MOL0     H81383   0.407   3.980   1.001  0.1935 -0.9785 -1.2824
  617MOL0     H81384   0.366   4.032   0.834 -1.1830 -2.0617  0.3653
  617MOL0     H81385   0.252   4.228   0.950  3.5324  1.1895  1.4689
  617MOL0     H81386   0.277   4.157   1.111 -2.7599  0.6733  0.5778
  617MOL0     H81387   0.140   4.008   0.889  2.5342 -1.2917 -0.4549
  617MOL0     H81388   0.168   3.958   1.058  1.7867  0.6343 -0.3308
  617MOL0     H81389  -0.001   4.202   0.966  3.6949  1.5459  0.8271
  617MOL0     H81390   0.006   4.149   1.129 -1.5275  2.0390 -0.2324
  617MOL0     H81391  -0.097   3.927   1.078  1.3852  0.0045  0.8079
  617MOL0     H81392  -0.115   3.965   0.909 -0.4359 -0.1069  0.8549
  617MOL0     H81393  -0.236   4.120   1.133  2.6465 -4.3661  1.7014
  617MOL0     H81394  -0.280   4.139   0.956 -1.4088 -0.3843 -0.4991
  617MOL0     H81395  -0.460   4.014   1.089 -1.2652 -1.7137  1.8878
  617MOL0     H81396  -0.351   3.884   1.082 -1.0122  1.4049  1.7327
  617MOL0     H81397  -0.573   4.099   0.853  3.4582  2.4111 -1.0506
  617MOL0     H81398  -0.613   3.910   0.516  3.0417 -2.5357  2.5353
  617MOL0     H81399  -0.623   4.082   0.570 -2.0489  0.8674  2.3298
  617MOL0     H81400  -0.773   3.867   0.714 -0.1754 -0.3616  0.3830
  617MOL0     H81401  -0.825   3.925   0.558 -0.2773 -1.9221  0.0337
  617MOL0     H81402  -0.792   4.093   0.832 -2.7548  2.1333  1.1609
  617MOL0     H81403  -0.810   4.164   0.665 -0.8608 -0.1478 -1.1282
  617MOL0     H81404  -1.003   4.030   0.615  0.8343 -1.5462  0.9098
  617MOL0     H81405  -1.023   4.161   0.736  2.6625  1.4169  0.9260
  617MOL0     H81406  -1.211   4.111   0.661 -0.0558  0.3788 -0.7227
  617MOL0     H81407  -1.464   4.086   0.670 -0.8549 -0.0063  0.5518
  617MOL0     H81408  -1.840   3.812   0.625 -2.0362 -0.0516 -0.4925
  617MOL0     H81409  -2.090   3.817   0.639 -1.6560  2.6352 -1.4007
  617MOL0     H81410  -2.261   3.801   0.852 -0.8109  0.6483  0.4535
  617MOL0     H81411  -2.301   3.834   0.680  1.9450  0.0779 -0.5157
  617MOL0     H81412  -2.492   3.991   0.776 -0.3630  0.6801  0.1198
  617MOL0     H81413  -2.463   3.922   0.931  4.1985  1.7784 -0.0836
  617MOL0     H81414  -2.498   3.692   0.843 -2.1259 -1.5322 -0.5000
  617MOL0     H81415  -2.528   3.735   0.685  1.4322  2.5472 -0.1475
  617MOL0     H81416  -2.727   3.662   0.829 -2.9549  0.5487  2.2395
  617MOL0     H81417  -2.705   3.810   0.930 -0.2840 -0.6044  0.4651
  617MOL0     H81418  -2.755   3.811   0.628 -0.7220  0.3148  0.6781
  617MOL0     H81419  -2.759   3.953   0.727 -3.0596  1.8470  4.0179
  617MOL0     H81420  -2.953   3.872   0.862 -2.0048  0.2420 -0.9724
  617MOL0     H81421  -2.975   3.721   0.765 -1.5188 -0.1178 -0.0646
  617MOL0     H81422  -3.135   3.891   0.692 -0.5971 -0.0668 -0.9654
  617MOL0     H81423  -3.000   3.997   0.661  1.5317 -0.6448 -1.6127
  617MOL0     H81424  -2.922   3.846   0.470  0.4716  1.4663  0.5298
  617MOL0     H81425  -3.070   3.931   0.448 -0.9839  1.9557  2.1239
  617MOL0     H81426  -2.063   4.160   0.906  2.2118  0.8855  0.5184
  617MOL0     H81427  -1.826   4.139   0.903  1.2098  0.0363 -1.3751
  617MOL0     H81428  -1.429   3.807   0.982  1.1026 -2.7591 -1.3070
  617MOL0     H81429  -1.179   3.820   0.970  1.1116 -0.7885 -2.0441
  617MOL0     H81430   0.722   4.303   0.977 -2.4929  0.5301 -1.7328
  617MOL0     H81431   0.907   4.435   0.901 -1.3077 -1.6149  2.5045
  617MOL0     H81432   1.330   4.653   0.728  0.0272  0.2997  0.2704
  617MOL0     H81433   1.459   4.759   0.570 -0.2856  1.3391  0.6010
  617MOL0     H81434   1.255   4.822   0.152  0.8015  2.4053 -1.3086
  617MOL0     H81435   1.363   4.681   0.137 -2.0369 -0.6860 -0.4402
  617MOL0     H81436   1.428   4.881  -0.012  0.1209 -2.8148 -0.3714
  617MOL0     H81437   1.454   4.979   0.129 -2.4136 -0.2045  0.5862
  617MOL0     H81438   1.579   4.733   0.029  1.4876  0.8437 -1.6500
  617MOL0     H81439   1.631   4.796   0.192  3.8010  2.9333 -0.9423
  617MOL0     H81440   1.681   4.905  -0.086  1.5500 -1.8972 -1.0561
  617MOL0     H81441   1.672   5.015   0.052 -1.0358 -0.3692 -1.4915
  617MOL0     H81442   2.036   4.784   0.053  0.0688 -0.2309 -0.9608
  617MOL0     H81443   1.176   4.615   0.269  2.0330  1.0968 -1.7169
  617MOL0     H81444   1.079   4.477   0.426 -2.3833  3.2272  0.4112
  618MOL0     O81445   8.501   1.086   4.989 -0.0097  0.4143  0.0279
  618MOL0     C81446   8.395   1.037   5.038  0.1609  0.7957  0.5798
  618MOL0     O81447   8.314   0.936   4.978 -0.0696  0.2287 -0.0406
  618MOL0     C81448   8.331   0.893   4.851 -0.2994  0.3141  0.4531
  618MOL0     C81449   8.355   0.974   4.741  0.0182  1.0385  0.5542
  618MOL0     C81450   8.362   0.934   4.607 -0.5237  0.4847 -0.9276
  618MOL0     C81451   8.334   0.797   4.579  0.9559 -0.0565 -0.0773
  618MOL0     O81452   8.334   0.739   4.456 -0.0514 -0.4136  0.1779
  618MOL0     C81453   8.371   0.818   4.342 -0.8686  0.0631 -0.0964
  618MOL0     C81454   8.248   0.889   4.293 -0.5161  0.2507 -0.3618
  618MOL0     C81455   8.140   0.809   4.222  0.1861  1.0306  0.8863
  618MOL0     C81456   8.150   0.822   4.070 -0.0110 -0.5485  0.8388
  618MOL0     C81457   8.025   0.760   4.001 -0.6036 -0.0266  0.7111
  618MOL0     C81458   8.066   0.757   3.847 -0.4425 -0.2255  0.0658
  618MOL0     C81459   7.941   0.743   3.756 -0.4772  0.5662  0.3762
  618MOL0     C81460   7.863   0.878   3.758  0.7274  0.2969 -0.1128
  618MOL0     N81461   7.768   0.896   3.652  0.3991  1.0593  1.0203
  618MOL0     C81462   7.693   0.794   3.594 -0.2045  0.7562 -1.2221
  618MOL0     C81463   7.656   0.832   3.470  0.3387  0.3386  0.7056
  618MOL0     C81464   7.562   0.750   3.378  0.4388  0.0751 -0.2544
  618MOL0     C81465   7.467   0.851   3.308  0.2065  0.2292  0.3246
  618MOL0     C81466   7.376   0.783   3.200  0.4948  0.1736  0.5397
  618MOL0     C81467   7.287   0.663   3.245 -0.4444  0.4122  0.9719
  618MOL0     O81468   7.197   0.615   3.147 -0.1477  0.6785 -0.0564
  618MOL0     C81469   7.062   0.640   3.153 -0.2656  0.0914 -0.2392
  618MOL0     C81470   6.996   0.720   3.246 -0.4528  0.7805  0.2397
  618MOL0     C81471   6.856   0.726   3.232  0.5314 -0.8955 -1.0380
  618MOL0     C81472   6.792   0.660   3.123 -0.6839 -0.2593  0.1021
  618MOL0     C81473   6.645   0.679   3.096 -0.4171 -0.8300 -0.1758
  618MOL0     O81474   6.578   0.585   3.013 -0.0584  0.8696 -0.6088
  618MOL0     C81475   6.442   0.589   2.991  0.1247  0.2885 -0.4724
  618MOL0     C81476   6.401   0.501   2.891  0.5594 -0.3166  0.2571
  618MOL0     C81477   6.263   0.494   2.845 -0.8336  0.0463 -0.6369
  618MOL0     C81478   6.165   0.578   2.900  0.1454  0.2973  0.2379
  618MOL0     O81479   6.029   0.562   2.868  0.0674  0.2010  0.3269
  618MOL0     C81480   5.932   0.577   2.976  0.2638 -0.4886  0.1284
  618MOL0     C81481   5.791   0.571   2.922 -0.8810  0.1406 -0.1770
  618MOL0     C81482   5.759   0.423   2.894 -0.2472  0.7567  0.0458
  618MOL0     C81483   5.641   0.407   2.808 -0.6015  0.6940  0.2814
  618MOL0     C81484   5.580   0.262   2.821 -0.0935 -0.2145 -0.5151
  618MOL0     C81485   5.496   0.222   2.698 -0.0035 -0.5193  0.1866
  618MOL0     C81486   5.392   0.324   2.654 -0.9166 -0.3915 -0.8663
  618MOL0     C81487   5.368   0.340   2.502 -1.5368  0.3997 -1.2116
  618MOL0    Cl81488   5.502   0.424   2.433  0.3354 -0.4730 -0.5556
  618MOL0     C81489   6.209   0.672   2.998  0.8559 -0.4988 -0.2062
  618MOL0     C81490   6.343   0.684   3.037  0.2984 -1.2475 -0.2116
  618MOL0     O81491   6.603   0.789   3.130  0.2163  0.1601 -0.4373
  618MOL0     C81492   6.851   0.568   3.048 -0.2179 -0.6396 -0.6162
  618MOL0     C81493   6.989   0.561   3.070 -0.9212  0.6753 -0.2516
  618MOL0     N81494   7.713   0.952   3.447  1.1496  0.0615 -0.5884
  618MOL0     N81495   7.765   0.990   3.560  0.2639 -0.4087 -0.5221
  618MOL0     C81496   8.307   0.709   4.690  0.3392 -0.4647 -0.2643
  618MOL0     C81497   8.302   0.757   4.822  0.3120  0.0002 -0.0283
  618MOL0     C81498   8.351   1.093   5.166 -0.0636  0.4723 -0.0382
  618MOL0     C81499   8.436   1.168   5.239 -0.7420 -1.6644  0.2645
  618MOL0     C81500   8.397   1.214   5.366  0.4253 -0.4180 -0.2144
  618MOL0     C81501   8.273   1.182   5.424  0.0211  0.3678 -0.6890
  618MOL0     O81502   8.251   1.249   5.541  0.3853  0.3158 -0.6489
  618MOL0     C81503   8.124   1.312   5.555  0.0084  0.7415 -0.4280
  618MOL0     C81504   8.038   1.261   5.674 -0.4450 -0.3203  0.7327
  618MOL0     C81505   7.901   1.349   5.684 -0.8594  0.1145  0.4345
  618MOL0     C81506   7.922   1.454   5.795  1.0492  0.1525  1.0416
  618MOL0     C81507   7.809   1.553   5.805 -0.3859 -0.4046  0.2985
  618MOL0     C81508   7.717   1.624   5.821  0.2062 -0.9203  0.0467
  618MOL0     C81509   8.186   1.112   5.337  0.1614 -0.3751 -1.1578
  618MOL0     C81510   8.219   1.067   5.210 -0.1597  0.2312 -0.3118
  618MOL0     H81511   8.373   1.079   4.764  3.5318  1.0592 -1.4817
  618MOL0     H81512   8.396   1.006   4.534  1.3049 -0.8327 -1.4737
  618MOL0     H81513   8.402   0.758   4.256 -1.1385  0.3509 -0.3966
  618MOL0     H81514   8.454   0.885   4.364 -3.1915  2.9484  0.4435
  618MOL0     H81515   8.268   0.978   4.233  0.0997 -0.2259 -0.8737
  618MOL0     H81516   8.200   0.932   4.381  1.6984  0.6876  0.7035
  618MOL0     H81517   8.040   0.846   4.246 -0.6492  0.4412 -1.3786
  618MOL0     H81518   8.141   0.704   4.252 -3.0051 -0.2677 -2.6745
  618MOL0     H81519   8.161   0.927   4.042  0.8179 -0.5904  0.9748
  618MOL0     H81520   8.243   0.772   4.041  0.0198 -0.2892  0.4841
  618MOL0     H81521   7.943   0.829   4.022 -0.5195  0.8656 -1.5862
  618MOL0     H81522   8.006   0.656   4.027  2.0979 -2.4090 -5.0670
  618MOL0     H81523   8.128   0.668   3.833 -0.6822 -0.4200  0.2364
  618MOL0     H81524   8.114   0.847   3.809 -3.3739  0.4499 -2.5647
  618MOL0     H81525   7.966   0.716   3.653  0.4173  2.0845  0.1765
  618MOL0     H81526   7.873   0.663   3.788  2.8059 -4.3410 -3.3460
  618MOL0     H81527   7.931   0.962   3.745  0.7589  0.6714  2.1164
  618MOL0     H81528   7.815   0.893   3.855 -1.8984  0.8881 -1.4242
  618MOL0     H81529   7.674   0.699   3.642  1.3059  1.1979  0.3153
  618MOL0     H81530   7.503   0.677   3.434 -0.0818  1.1811  0.6683
  618MOL0     H81531   7.610   0.703   3.291 -2.7415 -2.0268 -1.0296
  618MOL0     H81532   7.521   0.931   3.256  0.2225  3.4948  4.7282
  618MOL0     H81533   7.414   0.907   3.386  1.5922  1.1057  0.6792
  618MOL0     H81534   7.322   0.870   3.164  0.8790 -0.3269 -1.3529
  618MOL0     H81535   7.445   0.748   3.122 -1.6304  0.7279 -1.7330
  618MOL0     H81536   7.233   0.692   3.336 -0.2353  1.1792  0.8566
  618MOL0     H81537   7.342   0.573   3.273 -0.5300 -0.1327 -0.5551
  618MOL0     H81538   7.042   0.786   3.319 -0.6468 -0.4883  1.5531
  618MOL0     H81539   6.801   0.791   3.298  5.4610  2.1369  0.6526
  618MOL0     H81540   6.464   0.441   2.827 -2.5850 -0.8815 -2.6219
  618MOL0     H81541   6.232   0.435   2.759  0.9995 -3.5153  0.9468
  618MOL0     H81542   5.954   0.667   3.034  1.9757 -0.1229 -1.0221
  618MOL0     H81543   5.939   0.497   3.050  1.9032 -0.7405 -0.2719
  618MOL0     H81544   5.770   0.630   2.832 -0.6794 -1.4085 -1.2682
  618MOL0     H81545   5.725   0.618   2.996 -0.6777 -0.2319  0.2442
  618MOL0     H81546   5.748   0.369   2.988 -1.8136  1.2586  0.1715
  618MOL0     H81547   5.837   0.368   2.840  0.3933  2.0317 -0.3573
  618MOL0     H81548   5.568   0.485   2.831  0.1611  1.5846 -0.2480
  618MOL0     H81549   5.679   0.426   2.707  1.2797  0.9138  1.0047
  618MOL0     H81550   5.521   0.250   2.913  0.4420  0.1527 -0.1161
  618MOL0     H81551   5.669   0.199   2.834  1.1446  1.4953 -0.3189
  618MOL0     H81552   5.444   0.128   2.720  0.1242 -0.4263  0.9077
  618MOL0     H81553   5.557   0.199   2.610 -1.9091  1.8417 -1.9425
  618MOL0     H81554   5.302   0.294   2.708 -0.4499  3.0712  2.2344
  618MOL0     H81555   5.412   0.426   2.688 -3.9798 -0.4824  1.6060
  618MOL0     H81556   5.276   0.398   2.498 -1.8597  0.7686  4.1091
  618MOL0     H81557   5.360   0.237   2.466  0.1440 -0.3474  0.3832
  618MOL0     H81558   6.151   0.744   3.053 -0.3801  0.6182 -2.7819
  618MOL0     H81559   6.372   0.766   3.102  0.1929 -0.0636 -1.6047
  618MOL0     H81560   6.801   0.522   2.963 -1.6208  1.7239 -1.1741
  618MOL0     H81561   7.046   0.513   2.991 -4.1076  0.9422 -2.9213
  618MOL0     H81562   8.291   0.605   4.665  1.2167 -0.8399  0.6763
  618MOL0     H81563   8.269   0.692   4.902  0.1207  0.7369  0.5012
  618MOL0     H81564   8.538   1.175   5.200 -0.8835  0.0359  0.1084
  618MOL0     H81565   8.461   1.282   5.421  0.0373 -1.0350  1.0423
  618MOL0     H81566   8.064   1.293   5.465  2.8406 -0.7579 -2.1282
  618MOL0     H81567   8.150   1.416   5.575  3.1907 -0.2715  1.4534
  618MOL0     H81568   8.008   1.155   5.674  1.7331 -0.9932 -0.3383
  618MOL0     H81569   8.094   1.269   5.767  0.7396 -0.7183  0.0794
  618MOL0     H81570   7.821   1.279   5.711 -1.1023 -0.3629 -1.3907
  618MOL0     H81571   7.884   1.391   5.584  2.1540  0.7009  0.0621
  618MOL0     H81572   7.939   1.408   5.893 -1.6118  1.2756  2.1374
  618MOL0     H81573   8.010   1.513   5.769  0.9703 -0.3030 -0.3397
  618MOL0     H81574   7.640   1.698   5.828  0.7353 -0.2629 -0.8536
  618MOL0     H81575   8.096   1.079   5.388 -0.6429  2.3470 -0.6706
  618MOL0     H81576   8.154   1.000   5.154 -0.5124  0.1224  0.2250
  619MOL0     O81577   4.698   6.738   2.932 -0.7768 -0.0647 -0.0500
  619MOL0     C81578   4.722   6.773   2.817 -0.1386  0.4300  0.8082
  619MOL0     O81579   4.624   6.774   2.716  0.7693 -0.8610 -0.1894
  619MOL0     C81580   4.501   6.745   2.765  0.8046 -0.4517 -0.6813
  619MOL0     C81581   4.441   6.846   2.841  0.1327  0.0770  0.2492
  619MOL0     C81582   4.312   6.825   2.886 -0.4735 -0.3471  0.0798
  619MOL0     C81583   4.230   6.709   2.859  0.2105  0.2598 -0.1937
  619MOL0     O81584   4.104   6.694   2.909  0.4754  0.1263 -0.5068
  619MOL0     C81585   4.019   6.592   2.854 -0.2831 -0.1075  0.3057
  619MOL0     C81586   4.021   6.450   2.902  0.2210 -0.1799  0.0475
  619MOL0     C81587   3.933   6.364   2.820  0.4591  0.1379  0.5662
  619MOL0     C81588   3.943   6.211   2.847  0.1748  0.1712  0.1329
  619MOL0     C81589   3.971   6.133   2.721  0.3493 -0.3357 -0.1596
  619MOL0     C81590   4.002   5.988   2.756 -0.2367 -0.0675  0.5063
  619MOL0     C81591   4.038   5.913   2.630  0.7167  0.6937  0.1303
  619MOL0     C81592   4.083   5.767   2.652  0.0613  0.1749 -0.7640
  619MOL0     N81593   3.984   5.705   2.747  0.4601  0.5124 -0.2793
  619MOL0     C81594   4.012   5.643   2.867  0.0775  1.2862 -0.0594
  619MOL0     C81595   3.895   5.590   2.912  1.2125  0.3650  0.5226
  619MOL0     C81596   3.876   5.526   3.047 -0.3953 -0.4788  0.1811
  619MOL0     C81597   3.859   5.369   3.046 -0.0379 -0.2189 -0.5233
  619MOL0     C81598   3.857   5.321   3.187  0.2942 -0.1992  0.3825
  619MOL0     C81599   3.746   5.375   3.276 -0.2846 -0.9181 -0.0558
  619MOL0     O81600   3.626   5.315   3.228 -0.9244  0.4695 -0.1968
  619MOL0     C81601   3.509   5.342   3.295 -0.1290  0.0889  0.0857
  619MOL0     C81602   3.480   5.417   3.406  0.0415  0.1790  0.0298
  619MOL0     C81603   3.356   5.436   3.455 -0.1237  0.1913 -0.1646
  619MOL0     C81604   3.247   5.385   3.392 -0.9194 -0.0528 -0.4404
  619MOL0     C81605   3.107   5.421   3.445 -0.0478 -0.1657  0.3607
  619MOL0     O81606   3.094   5.514   3.543 -0.1242  0.4533 -0.5942
  619MOL0     C81607   2.961   5.558   3.578  0.0215  0.3417 -0.2952
  619MOL0     C81608   2.881   5.622   3.474  0.0904  0.4237 -0.4512
  619MOL0     C81609   2.752   5.673   3.499 -0.3238  0.7742  1.1083
  619MOL0     C81610   2.689   5.650   3.622  0.1949  0.4343  0.0845
  619MOL0     O81611   2.568   5.710   3.638  0.3765  0.6594  0.0634
  619MOL0     C81612   2.464   5.651   3.728 -0.2545  0.3256 -0.9073
  619MOL0     C81613   2.329   5.684   3.669  1.3198  0.2795 -0.9023
  619MOL0     C81614   2.232   5.587   3.743  0.1441 -0.0593 -0.3350
  619MOL0     C81615   2.090   5.627   3.724  0.5363  0.2511 -0.2185
  619MOL0     C81616   1.982   5.528   3.781 -0.3044 -0.0375  0.4125
  619MOL0     C81617   1.842   5.587   3.753  0.3177 -0.1838  0.5747
  619MOL0     C81618   1.734   5.484   3.796  0.3951 -0.3337 -0.3769
  619MOL0     C81619   1.598   5.538   3.755 -0.5023 -0.2025 -0.2926
  619MOL0    Cl81620   1.589   5.583   3.580 -0.3450  0.3351  0.1720
  619MOL0     C81621   2.759   5.581   3.728 -0.2061  0.8819  0.4460
  619MOL0     C81622   2.896   5.539   3.701  0.1753 -0.0419  0.5974
  619MOL0     O81623   3.019   5.342   3.411 -0.1942  0.3845 -0.3917
  619MOL0     C81624   3.260   5.303   3.276 -1.2592 -0.7618  0.1505
  619MOL0     C81625   3.394   5.286   3.236 -0.1952  0.0273 -0.2815
  619MOL0     N81626   3.804   5.613   2.807 -1.0905  0.1084  0.0953
  619MOL0     N81627   3.860   5.682   2.709  0.1653  0.3433 -0.5184
  619MOL0     C81628   4.296   6.609   2.791 -1.3546 -0.6200  0.2707
  619MOL0     C81629   4.430   6.631   2.735  0.8647  0.1526  0.6465
  619MOL0     C81630   4.868   6.793   2.779  1.3642  0.5376 -0.6173
  619MOL0     C81631   4.972   6.767   2.875 -0.0271  0.7321  0.2339
  619MOL0     C81632   5.111   6.763   2.832  0.6519  0.4802  0.0407
  619MOL0     C81633   5.138   6.797   2.704 -0.4655  0.0084 -0.2324
  619MOL0     O81634   5.274   6.803   2.676  0.4678 -0.2678 -0.7723
  619MOL0     C81635   5.320   6.802   2.541 -0.7896  0.5349  0.2670
  619MOL0     C81636   5.477   6.809   2.536 -0.2499 -0.6014 -0.6069
  619MOL0     C81637   5.529   6.942   2.598  0.5558  0.1934  0.3175
  619MOL0     C81638   5.682   6.944   2.610  0.6231 -1.0878  0.1583
  619MOL0     C81639   5.728   7.084   2.628 -0.0734 -0.2040 -0.6933
  619MOL0     C81640   5.775   7.198   2.643 -0.0089  0.1888 -0.0617
  619MOL0     C81641   5.036   6.814   2.604  0.2586 -0.9862 -0.3730
  619MOL0     C81642   4.903   6.807   2.648 -0.2362  0.2361  0.2391
  619MOL0     H81643   4.494   6.940   2.859 -0.8391  0.3812  1.6919
  619MOL0     H81644   4.267   6.907   2.941  0.2917  2.6469 -3.3382
  619MOL0     H81645   4.021   6.596   2.745 -2.6069 -0.1241  0.2032
  619MOL0     H81646   3.917   6.630   2.869 -0.1523 -0.4214  2.2116
  619MOL0     H81647   3.986   6.445   3.006  0.6360 -1.1224  0.1509
  619MOL0     H81648   4.120   6.403   2.901 -0.0411 -0.7497  0.2884
  619MOL0     H81649   3.959   6.393   2.718 -3.9253  2.5530 -0.1030
  619MOL0     H81650   3.825   6.374   2.832  0.1429  1.7165 -2.5565
  619MOL0     H81651   4.022   6.212   2.923  0.6498  0.8736 -0.3560
  619MOL0     H81652   3.845   6.182   2.886 -0.0791 -2.2805 -2.0581
  619MOL0     H81653   4.057   6.177   2.669  1.5303 -2.2692  0.0671
  619MOL0     H81654   3.878   6.127   2.664  0.0775 -0.8601  0.3256
  619MOL0     H81655   3.910   5.940   2.792 -0.6412 -0.6611 -1.2306
  619MOL0     H81656   4.081   5.986   2.832 -1.7418 -0.6951  2.1274
  619MOL0     H81657   3.946   5.911   2.570  0.0379 -0.2039  1.1504
  619MOL0     H81658   4.112   5.972   2.576 -1.0156  3.1741  0.2643
  619MOL0     H81659   4.184   5.766   2.695 -0.9234 -1.5737  1.7612
  619MOL0     H81660   4.083   5.714   2.556  2.4719  0.0711 -0.7685
  619MOL0     H81661   4.107   5.646   2.919  0.5851  1.9747 -0.9953
  619MOL0     H81662   3.789   5.568   3.096 -0.2459  0.4813 -0.3574
  619MOL0     H81663   3.958   5.557   3.113 -1.1634 -0.6842  1.2541
  619MOL0     H81664   3.945   5.321   2.999  1.5146  0.3619  1.5613
  619MOL0     H81665   3.770   5.341   2.990  1.2824 -1.8208 -1.9449
  619MOL0     H81666   3.856   5.212   3.194 -1.1677 -0.2267  0.0482
  619MOL0     H81667   3.954   5.337   3.234 -0.0492 -2.4886  2.0253
  619MOL0     H81668   3.728   5.483   3.269 -0.1683 -0.9935 -3.3846
  619MOL0     H81669   3.763   5.354   3.382 -0.2679 -1.0904 -0.0916
  619MOL0     H81670   3.560   5.470   3.457 -1.3310  0.7671  1.6616
  619MOL0     H81671   3.333   5.507   3.534 -0.4460  0.0764 -0.1538
  619MOL0     H81672   2.922   5.633   3.374  1.2648 -2.0208 -0.3201
  619MOL0     H81673   2.701   5.727   3.420  2.2255  1.6112 -0.0848
  619MOL0     H81674   2.475   5.681   3.832  1.2217  2.1200 -1.5281
  619MOL0     H81675   2.471   5.542   3.730 -1.1264  0.2749  1.0072
  619MOL0     H81676   2.324   5.666   3.561 -0.8974  1.6063 -1.0740
  619MOL0     H81677   2.299   5.785   3.699  1.1320 -0.3198  1.1111
  619MOL0     H81678   2.247   5.576   3.851  0.3137 -0.9585 -0.4399
  619MOL0     H81679   2.249   5.491   3.693  1.4433  0.5317 -1.0725
  619MOL0     H81680   2.064   5.717   3.780  2.0031 -0.3415  1.5128
  619MOL0     H81681   2.074   5.649   3.618  0.4545 -2.9775 -0.9669
  619MOL0     H81682   1.999   5.518   3.888  1.2238  2.2555  0.4733
  619MOL0     H81683   1.986   5.428   3.737 -1.7766  0.4325 -0.8985
  619MOL0     H81684   1.834   5.608   3.646  0.0122 -1.5870  0.2981
  619MOL0     H81685   1.820   5.684   3.799 -2.6563 -0.2923 -0.4232
  619MOL0     H81686   1.745   5.382   3.759 -1.0481 -0.9155  0.6998
  619MOL0     H81687   1.738   5.473   3.905 -0.9398  0.0724 -0.2776
  619MOL0     H81688   1.571   5.623   3.818 -0.9187  1.0692 -2.0991
  619MOL0     H81689   1.521   5.465   3.784  1.6661 -2.7724 -0.5560
  619MOL0     H81690   2.717   5.579   3.828 -0.4608  4.3934  0.5505
  619MOL0     H81691   2.953   5.490   3.779  1.1934 -0.2238 -0.2345
  619MOL0     H81692   3.180   5.260   3.217 -0.1279 -2.1262 -0.4549
  619MOL0     H81693   3.405   5.236   3.141  0.8349  1.5049 -0.9784
  619MOL0     H81694   4.245   6.520   2.755 -0.6927 -0.7649 -0.3260
  619MOL0     H81695   4.478   6.566   2.663 -1.3868  1.0153 -1.8071
  619MOL0     H81696   4.951   6.747   2.980  1.3934 -2.5482 -0.0098
  619MOL0     H81697   5.179   6.739   2.912 -0.2963  0.2216  0.7915
  619MOL0     H81698   5.279   6.887   2.486  0.6470  1.0537 -0.0378
  619MOL0     H81699   5.279   6.716   2.487 -0.4707  0.1384  0.6454
  619MOL0     H81700   5.513   6.722   2.593  1.0292 -1.4195 -2.5331
  619MOL0     H81701   5.520   6.785   2.438  2.3699 -1.8953  0.7579
  619MOL0     H81702   5.501   6.955   2.703 -0.6408  0.0256  0.0372
  619MOL0     H81703   5.488   7.027   2.542  1.6301  0.2299 -0.4415
  619MOL0     H81704   5.712   6.883   2.696 -2.2370 -0.9053  1.4244
  619MOL0     H81705   5.716   6.899   2.516 -1.6901 -3.1101  0.1919
  619MOL0     H81706   5.835   7.285   2.659  1.2740 -0.6083 -0.4263
  619MOL0     H81707   5.067   6.844   2.505  0.1732  1.2945  0.2211
  619MOL0     H81708   4.827   6.832   2.574  2.3526  0.1301 -2.6912
  620MOL0     O81709   0.951   2.698   2.595 -0.5030  0.2534  0.5227
  620MOL0     C81710   0.845   2.707   2.648  0.0674  0.5745 -0.1258
  620MOL0     O81711   0.823   2.761   2.766  0.4683 -0.0494  0.0390
  620MOL0     C81712   0.937   2.800   2.837  0.6881 -0.1809  0.0764
  620MOL0     C81713   1.020   2.713   2.902  0.0113  0.1202  0.2333
  620MOL0     C81714   1.120   2.773   2.982 -0.4352  0.0897 -0.1905
  620MOL0     C81715   1.137   2.913   2.996  0.2543  0.0472  0.6872
  620MOL0     O81716   1.238   2.955   3.074 -0.8178  0.2585  0.2029
  620MOL0     C81717   1.281   3.093   3.075  0.6275 -0.1379 -0.0905
  620MOL0     C81718   1.435   3.105   3.070 -0.4863 -0.1477  0.0629
  620MOL0     C81719   1.493   3.060   3.206  0.5593  0.3836  0.9098
  620MOL0     C81720   1.641   3.021   3.188  0.9726 -0.5637  0.8821
  620MOL0     C81721   1.702   3.022   3.328 -0.3872  0.5145 -0.5634
  620MOL0     C81722   1.850   2.981   3.313  1.1887  0.8812 -0.9116
  620MOL0     C81723   1.923   2.975   3.444 -0.4074  0.5501  0.7658
  620MOL0     C81724   2.076   3.005   3.428  0.2626 -0.2591  0.1100
  620MOL0     N81725   2.159   2.892   3.378 -0.1398  0.2762  0.2618
  620MOL0     C81726   2.215   2.807   3.467  0.1230 -0.6035 -0.1898
  620MOL0     C81727   2.236   2.698   3.397  0.1118  0.3336 -0.4701
  620MOL0     C81728   2.304   2.567   3.433 -0.0832 -0.8220 -1.1380
  620MOL0     C81729   2.256   2.507   3.562  0.0055  0.0263 -0.5105
  620MOL0     C81730   2.345   2.560   3.678  0.3181 -0.5800  0.6392
  620MOL0     C81731   2.470   2.475   3.701  0.6849 -0.1841  0.9762
  620MOL0     O81732   2.517   2.503   3.829 -0.0537  0.4840 -1.0223
  620MOL0     C81733   2.659   2.519   3.846 -0.1339 -0.1212 -0.2280
  620MOL0     C81734   2.703   2.572   3.974 -0.1426 -0.2684  0.6242
  620MOL0     C81735   2.845   2.571   4.003 -0.1358  0.9609 -0.2481
  620MOL0     C81736   2.940   2.520   3.908  0.4730 -0.0017  0.3465
  620MOL0     C81737   3.085   2.518   3.930 -0.6778  0.5824 -0.3001
  620MOL0     O81738   3.126   2.610   4.023  0.6864 -0.1218  0.4031
  620MOL0     C81739   3.256   2.667   4.038  0.9743  0.3548  0.6741
  620MOL0     C81740   3.368   2.655   3.951 -0.5522 -0.3490 -0.3453
  620MOL0     C81741   3.490   2.713   3.980 -0.4180  0.0508  0.0950
  620MOL0     C81742   3.513   2.778   4.106 -0.2067  0.0624  0.3020
  620MOL0     O81743   3.626   2.821   4.161 -0.1218 -0.1647  0.3510
  620MOL0     C81744   3.750   2.803   4.102  0.3881  0.0730  0.5017
  620MOL0     C81745   3.845   2.891   4.185 -0.4122  0.6256 -0.3864
  620MOL0     C81746   3.990   2.895   4.118  1.1069 -0.4445 -0.2325
  620MOL0     C81747   4.071   2.990   4.196 -0.5734 -0.4973 -1.0299
  620MOL0     C81748   4.213   2.971   4.136  0.1741 -0.6758  0.6274
  620MOL0     C81749   4.319   3.046   4.230  0.2250  0.7852 -0.0949
  620MOL0     C81750   4.456   3.043   4.161  0.0117 -0.4039  0.4216
  620MOL0     C81751   4.552   3.142   4.221  0.3785  0.0151 -0.2011
  620MOL0    Cl81752   4.709   3.104   4.151 -0.2274 -0.1102  0.1015
  620MOL0     C81753   3.394   2.794   4.188 -0.4035  0.8789 -0.4493
  620MOL0     C81754   3.269   2.738   4.156 -0.1624 -0.9877  0.2459
  620MOL0     O81755   3.162   2.456   3.856 -0.4495  0.7999  0.1944
  620MOL0     C81756   2.886   2.466   3.786 -0.7765  0.4726 -1.2725
  620MOL0     C81757   2.748   2.468   3.753 -0.9054 -0.0402 -0.0580
  620MOL0     N81758   2.191   2.729   3.264 -0.1273  0.1214 -0.1596
  620MOL0     N81759   2.141   2.843   3.256 -0.5289 -0.1354 -0.2027
  620MOL0     C81760   1.058   2.998   2.921  0.2737 -0.1548 -0.6372
  620MOL0     C81761   0.957   2.937   2.835 -0.1278 -0.2680 -0.1704
  620MOL0     C81762   0.727   2.677   2.561  0.2022  0.8793 -0.3488
  620MOL0     C81763   0.741   2.628   2.432  0.2184 -0.1139 -0.4172
  620MOL0     C81764   0.624   2.599   2.359  0.2236 -0.4621 -0.1960
  620MOL0     C81765   0.499   2.632   2.410 -0.2539  0.2348  0.0369
  620MOL0     O81766   0.390   2.605   2.334  0.0764 -0.1895  0.4935
  620MOL0     C81767   0.298   2.501   2.393 -0.1958 -0.5564  0.1178
  620MOL0     C81768   0.282   2.387   2.291 -0.0061 -0.4638 -0.4535
  620MOL0     C81769   0.185   2.279   2.333  0.0697 -0.0639  0.1090
  620MOL0     C81770   0.175   2.175   2.220  0.4239 -0.3808  0.6339
  620MOL0     C81771   0.294   2.094   2.209  0.0304  0.0156 -0.0315
  620MOL0     C81772   0.389   2.020   2.207 -0.2448  0.6681  0.1694
  620MOL0     C81773   0.483   2.694   2.535  0.1338 -0.1884  0.5879
  620MOL0     C81774   0.595   2.712   2.607  0.5456 -0.5142 -0.5854
  620MOL0     H81775   1.003   2.607   2.913  1.8960 -0.4007 -1.2498
  620MOL0     H81776   1.175   2.699   3.039  1.0784  1.0076 -0.3928
  620MOL0     H81777   1.228   3.141   3.159 -0.1486 -0.0440 -0.6229
  620MOL0     H81778   1.244   3.158   2.996 -1.7330  0.1578  1.1602
  620MOL0     H81779   1.477   3.201   3.041 -0.6742  0.4226  1.5923
  620MOL0     H81780   1.464   3.039   2.988 -0.2318  0.7247 -0.5544
  620MOL0     H81781   1.429   2.978   3.240 -0.7861 -0.2488 -2.6840
  620MOL0     H81782   1.471   3.140   3.278 -0.2797 -2.7374  4.4181
  620MOL0     H81783   1.646   2.921   3.144 -1.6029 -0.6474  0.6434
  620MOL0     H81784   1.689   3.104   3.135 -0.8450  1.8876  2.8580
  620MOL0     H81785   1.651   2.951   3.394  1.0701  1.8601  2.1584
  620MOL0     H81786   1.689   3.113   3.387 -3.5111 -1.7034  2.5643
  620MOL0     H81787   1.901   3.053   3.248  2.8719  0.0344 -0.5877
  620MOL0     H81788   1.850   2.882   3.268 -1.0481  0.4251 -0.0221
  620MOL0     H81789   1.879   3.051   3.509 -1.0438  0.5280  0.3674
  620MOL0     H81790   1.926   2.881   3.500  2.7409  0.2070  0.2238
  620MOL0     H81791   2.101   3.028   3.532 -0.1535 -0.9701  0.3657
  620MOL0     H81792   2.089   3.090   3.360  0.3049 -1.1188 -0.9720
  620MOL0     H81793   2.231   2.833   3.572 -1.2902  0.2952 -0.1607
  620MOL0     H81794   2.412   2.580   3.430 -0.2972  1.5185 -0.4175
  620MOL0     H81795   2.288   2.494   3.353  0.0541 -1.9545 -0.1681
  620MOL0     H81796   2.264   2.400   3.544  1.0732  0.2892 -1.7791
  620MOL0     H81797   2.151   2.516   3.590 -0.1966 -1.0787 -0.8754
  620MOL0     H81798   2.373   2.665   3.662 -0.6010 -0.3572  0.3961
  620MOL0     H81799   2.290   2.548   3.772 -0.0406 -0.5380  0.4390
  620MOL0     H81800   2.544   2.511   3.629 -1.0529  0.1262 -0.7203
  620MOL0     H81801   2.446   2.369   3.693  1.5422 -0.2965 -0.3808
  620MOL0     H81802   2.636   2.601   4.055  0.5718 -1.7221  1.7936
  620MOL0     H81803   2.873   2.617   4.097  0.7916 -2.2721  1.1993
  620MOL0     H81804   3.358   2.611   3.853 -0.7282  0.4244 -0.6843
  620MOL0     H81805   3.563   2.711   3.899  1.8330  1.6193  1.9511
  620MOL0     H81806   3.743   2.834   3.998 -3.0989 -2.9397 -0.3571
  620MOL0     H81807   3.782   2.699   4.106  1.0152  0.1963 -1.0132
  620MOL0     H81808   3.849   2.861   4.290 -0.3456  0.7868 -0.3428
  620MOL0     H81809   3.800   2.991   4.187 -2.0411  0.1499 -4.2719
  620MOL0     H81810   3.979   2.907   4.010 -1.6270  0.9175  0.0862
  620MOL0     H81811   4.037   2.798   4.134  3.4838  0.9795  2.2733
  620MOL0     H81812   4.038   3.093   4.188 -1.0113 -0.6608 -1.3845
  620MOL0     H81813   4.080   2.959   4.300 -0.5908 -0.7113 -1.0908
  620MOL0     H81814   4.231   3.013   4.036 -0.9886  0.6374  0.9439
  620MOL0     H81815   4.247   2.867   4.140 -0.7953 -0.9756  2.9521
  620MOL0     H81816   4.326   3.010   4.333  1.8916 -0.3326 -0.5446
  620MOL0     H81817   4.290   3.151   4.242 -4.1439 -0.3510  1.3503
  620MOL0     H81818   4.504   2.944   4.167  3.0435  0.9485  0.5501
  620MOL0     H81819   4.449   3.077   4.058  4.0714  0.7708  0.3582
  620MOL0     H81820   4.553   3.138   4.331 -0.4255  1.8087 -0.1012
  620MOL0     H81821   4.514   3.240   4.193 -0.9626 -1.1739 -2.9090
  620MOL0     H81822   3.399   2.840   4.286 -1.8333 -0.6721  0.3837
  620MOL0     H81823   3.180   2.740   4.218 -0.9394 -0.0922 -0.8639
  620MOL0     H81824   2.956   2.416   3.720  0.8528 -1.0502  1.4097
  620MOL0     H81825   2.722   2.408   3.666 -0.2860  0.6833 -0.7600
  620MOL0     H81826   1.054   3.107   2.918  0.3908 -0.1112  0.2740
  620MOL0     H81827   0.889   2.989   2.769 -3.2705 -0.1315  2.8645
  620MOL0     H81828   0.833   2.609   2.377 -0.3839  3.2915 -2.8663
  620MOL0     H81829   0.623   2.565   2.256 -0.9251  3.7210 -1.7752
  620MOL0     H81830   0.204   2.548   2.422  0.3577 -0.5988  2.0864
  620MOL0     H81831   0.342   2.471   2.488 -0.5108  3.1433  1.5938
  620MOL0     H81832   0.255   2.446   2.203  3.8828  2.6361  0.1326
  620MOL0     H81833   0.379   2.342   2.267 -0.8492 -1.9403 -1.2095
  620MOL0     H81834   0.088   2.328   2.340  0.3233  0.4553  0.0333
  620MOL0     H81835   0.223   2.235   2.425 -1.9544 -0.9372  0.5731
  620MOL0     H81836   0.074   2.134   2.219 -0.2835  1.0711 -2.8393
  620MOL0     H81837   0.174   2.228   2.124  0.5124 -2.9729 -0.8832
  620MOL0     H81838   0.466   1.949   2.186  0.2362  0.9615  0.8823
  620MOL0     H81839   0.395   2.735   2.584 -2.0784 -1.2838 -2.2089
  620MOL0     H81840   0.588   2.756   2.706  2.0320  3.9171 -2.1970
  621MOL0     O81841   3.237   0.791  10.026 -0.5612  0.2190  0.0257
  621MOL0     C81842   3.242   0.673   9.994  0.3326 -1.1341  1.1128
  621MOL0     O81843   3.318   0.579  10.062  0.4440  0.3541 -0.9238
  621MOL0     C81844   3.390   0.626  10.165 -0.5299  1.0508  0.2609
  621MOL0     C81845   3.530   0.630  10.151 -1.3086  1.0179  0.0301
  621MOL0     C81846   3.614   0.651  10.262 -0.6034 -0.0045  0.0979
  621MOL0     C81847   3.560   0.672  10.392 -0.5599  0.0030 -1.5184
  621MOL0     O81848   3.641   0.709  10.501  0.3966 -0.6959  0.5411
  621MOL0     C81849   3.778   0.677  10.493  0.3400 -0.3586  0.7034
  621MOL0     C81850   3.827   0.691  10.630 -0.1020  0.4644 -0.0150
  621MOL0     C81851   3.975   0.638  10.641 -0.1419  0.1067 -0.2187
  621MOL0     C81852   4.018   0.600  10.781 -1.0122  0.2033 -0.8351
  621MOL0     C81853   4.168   0.583  10.792  0.0639  0.7169  0.1251
  621MOL0     C81854   4.212   0.580  10.945  0.2718  0.2284 -1.0469
  621MOL0     C81855   4.356   0.537  10.973 -0.1236 -0.5553 -0.6366
  621MOL0     C81856   4.393   0.536  11.115  0.4885 -0.0695  0.5255
  621MOL0     N81857   4.380   0.670  11.170  0.5506 -0.8674 -0.4448
  621MOL0     C81858   4.471   0.765  11.159  0.4000  0.2325 -0.6495
  621MOL0     C81859   4.440   0.868  11.236  0.0205  0.1024 -0.8914
  621MOL0     C81860   4.534   0.991  11.256  1.2172  0.3845  0.3916
  621MOL0     C81861   4.628   0.959  11.362  0.0514  0.2333  0.1339
  621MOL0     C81862   4.573   0.958  11.501 -0.0694  0.4613 -0.1278
  621MOL0     C81863   4.685   0.924  11.595  0.1693 -0.4049  0.0656
  621MOL0     O81864   4.642   0.981  11.722  0.7341  0.6255  0.5802
  621MOL0     C81865   4.513   0.957  11.775  0.0499  0.1665  0.3275
  621MOL0     C81866   4.470   0.824  11.799 -0.3036 -0.4281 -0.5034
  621MOL0     C81867   4.342   0.794  11.849  0.2103 -0.1041 -0.1629
  621MOL0     C81868   4.270   0.898  11.908  0.6929  0.0551 -0.4883
  621MOL0     C81869   4.136   0.870  11.963 -0.0327 -0.4367 -0.6313
  621MOL0     O81870   4.106   0.740  11.991 -0.0684  0.6439 -0.4423
  621MOL0     C81871   3.975   0.711  12.024 -0.4764 -0.1817 -0.6343
  621MOL0     C81872   3.971   0.618  12.131  0.0779 -0.1277 -0.0422
  621MOL0     C81873   3.851   0.557  12.164 -0.4423  1.1600 -0.0357
  621MOL0     C81874   3.726   0.594  12.108 -0.0814  1.0569 -0.5915
  621MOL0     O81875   3.620   0.523  12.161 -0.4343 -0.1530 -0.3790
  621MOL0     C81876   3.526   0.474  12.065  0.2681 -0.3042 -0.5180
  621MOL0     C81877   3.409   0.578  12.046  0.0640  0.5096  0.8118
  621MOL0     C81878   3.273   0.508  12.016 -0.2252 -0.4430 -0.7005
  621MOL0     C81879   3.170   0.611  11.983 -0.8739  0.3925 -0.0254
  621MOL0     C81880   3.025   0.561  11.956  0.4134 -0.0582  0.8098
  621MOL0     C81881   2.931   0.575  12.075  0.3983  0.4225  0.3653
  621MOL0     C81882   2.791   0.531  12.025 -0.2921 -0.7292  0.0652
  621MOL0     C81883   2.688   0.541  12.136 -0.6443  0.2100  0.4181
  621MOL0    Cl81884   2.669   0.720  12.169  0.2496 -0.4577 -0.0623
  621MOL0     C81885   3.736   0.693  12.006 -0.4680 -0.4614 -0.0607
  621MOL0     C81886   3.860   0.745  11.962  0.8915 -0.2856  0.7157
  621MOL0     O81887   4.058   0.964  11.981 -0.1042 -0.4471 -0.2516
  621MOL0     C81888   4.311   1.035  11.890 -0.0776  0.2518 -0.5985
  621MOL0     C81889   4.439   1.067  11.824  0.3402  0.2001  0.2044
  621MOL0     N81890   4.316   0.834  11.291 -0.6358  0.3598  0.7553
  621MOL0     N81891   4.275   0.720  11.250  0.5986  0.0834 -0.3220
  621MOL0     C81892   3.417   0.667  10.404 -0.2152 -0.4323 -0.3656
  621MOL0     C81893   3.338   0.637  10.288  0.0602 -0.1797 -0.8257
  621MOL0     C81894   3.158   0.628   9.889 -0.3398 -0.1248  0.8558
  621MOL0     C81895   3.140   0.485   9.864  0.3486 -0.3355 -0.1399
  621MOL0     C81896   3.060   0.450   9.755  0.7551  0.4181  0.1974
  621MOL0     C81897   2.984   0.537   9.675  0.8431 -0.1343  0.7218
  621MOL0     O81898   2.888   0.483   9.587  0.3346 -0.2439  0.2423
  621MOL0     C81899   2.777   0.562   9.539 -0.4315 -1.2351 -0.4928
  621MOL0     C81900   2.807   0.622   9.403  0.2714 -0.6899 -0.3058
  621MOL0     C81901   2.802   0.518   9.291  0.0116  0.2945  0.2826
  621MOL0     C81902   2.760   0.574   9.146  0.4968 -0.9203  0.0608
  621MOL0     C81903   2.616   0.616   9.140 -0.3094 -0.1859 -0.6304
  621MOL0     C81904   2.492   0.641   9.137 -1.3771  0.0564 -0.7076
  621MOL0     C81905   2.996   0.676   9.699  0.3684  0.5052 -0.3054
  621MOL0     C81906   3.083   0.723   9.808  0.3671 -0.6989  0.1605
  621MOL0     H81907   3.575   0.598  10.057 -3.3551  3.4109 -1.8978
  621MOL0     H81908   3.719   0.656  10.237 -0.7761  5.8171 -0.7993
  621MOL0     H81909   3.824   0.749  10.424 -1.1233 -0.3912 -0.3552
  621MOL0     H81910   3.792   0.580  10.445  0.1517 -0.6999  1.3357
  621MOL0     H81911   3.754   0.640  10.694  0.1991  0.1351  0.0663
  621MOL0     H81912   3.824   0.797  10.660 -1.9661  0.7500 -1.0904
  621MOL0     H81913   4.040   0.711  10.593  2.9330  0.2751  3.6338
  621MOL0     H81914   3.991   0.543  10.588  0.3427  0.7608 -1.2657
  621MOL0     H81915   3.980   0.665  10.860  0.1729 -0.2141  0.1127
  621MOL0     H81916   3.979   0.500  10.802 -2.7980  0.7238 -1.4755
  621MOL0     H81917   4.224   0.668  10.749  1.3304 -2.2758 -4.9564
  621MOL0     H81918   4.192   0.493  10.736 -0.4515 -0.2449  1.4156
  621MOL0     H81919   4.150   0.500  10.987 -2.0280  1.0690 -2.6409
  621MOL0     H81920   4.182   0.676  10.988 -0.0759 -0.5559  0.5683
  621MOL0     H81921   4.380   0.438  10.933  0.6862 -0.6126 -0.0529
  621MOL0     H81922   4.430   0.604  10.930 -1.2637  0.6545 -0.7684
  621MOL0     H81923   4.497   0.504  11.127  1.1128  2.4910  3.0190
  621MOL0     H81924   4.327   0.467  11.168  0.5529 -2.7564 -2.5251
  621MOL0     H81925   4.565   0.760  11.103  0.1237 -2.1321 -1.0388
  621MOL0     H81926   4.481   1.085  11.274  0.4164  0.0253 -0.0339
  621MOL0     H81927   4.588   1.007  11.162 -0.5818  0.5499 -0.6679
  621MOL0     H81928   4.714   1.023  11.345  0.8094 -0.8864 -0.3788
  621MOL0     H81929   4.666   0.859  11.337  2.9627  1.5932 -1.3216
  621MOL0     H81930   4.536   1.059  11.524 -2.2960 -0.4831  0.7435
  621MOL0     H81931   4.491   0.885  11.508  0.6532 -0.5088 -1.3971
  621MOL0     H81932   4.779   0.971  11.565  0.3759  1.6269  3.4102
  621MOL0     H81933   4.691   0.816  11.609 -2.4660 -1.0298 -2.5976
  621MOL0     H81934   4.529   0.735  11.775 -1.6654 -0.7947 -2.8475
  621MOL0     H81935   4.309   0.691  11.846 -0.7895  0.2213 -2.3925
  621MOL0     H81936   4.070   0.580  12.155 -0.9838 -3.4464 -0.4202
  621MOL0     H81937   3.853   0.475  12.235 -1.1746 -0.3885 -1.7517
  621MOL0     H81938   3.493   0.376  12.101 -0.5469 -0.4556 -1.6411
  621MOL0     H81939   3.578   0.449  11.972 -1.1549  0.2724 -1.4881
  621MOL0     H81940   3.441   0.642  11.962  2.8064  0.7523  1.9198
  621MOL0     H81941   3.386   0.636  12.135  1.0019  1.5115  0.4390
  621MOL0     H81942   3.236   0.458  12.105  1.6743  0.6233  0.7623
  621MOL0     H81943   3.283   0.445  11.926  0.6234 -0.2159 -0.7781
  621MOL0     H81944   3.165   0.690  12.059  0.6934 -1.3453  1.9890
  621MOL0     H81945   3.204   0.652  11.888 -4.3803 -2.2265 -2.7045
  621MOL0     H81946   3.035   0.453  11.939 -4.4144 -0.7566  0.8897
  621MOL0     H81947   2.995   0.605  11.861  0.6548 -1.3319  0.1198
  621MOL0     H81948   2.932   0.679  12.109 -0.4187  0.0106  1.7222
  621MOL0     H81949   2.964   0.502  12.150 -2.2938 -0.6829  0.5865
  621MOL0     H81950   2.764   0.601  11.945 -1.3738 -0.7984  0.3561
  621MOL0     H81951   2.791   0.432  11.979  0.4375  0.4402 -2.6770
  621MOL0     H81952   2.726   0.491  12.225  0.3939  2.1571  1.1208
  621MOL0     H81953   2.584   0.513  12.117 -0.1046 -0.6124 -1.6209
  621MOL0     H81954   3.647   0.732  11.955  1.3548  1.1535 -2.2429
  621MOL0     H81955   3.859   0.822  11.885 -0.9915 -0.7443  0.2468
  621MOL0     H81956   4.267   1.127  11.926  1.1412  0.1745  1.2759
  621MOL0     H81957   4.479   1.167  11.808  0.3624  0.0851 -0.5034
  621MOL0     H81958   3.377   0.689  10.503 -0.4567  0.1133 -0.5769
  621MOL0     H81959   3.231   0.636  10.302 -0.0417 -1.8440 -1.4343
  621MOL0     H81960   3.201   0.415   9.921  0.3939  0.7725  1.2301
  621MOL0     H81961   3.036   0.346   9.733 -0.8508  1.1861 -2.0293
  621MOL0     H81962   2.743   0.637   9.612 -0.1194  1.0660 -2.6036
  621MOL0     H81963   2.689   0.498   9.524 -2.0798  0.6102  0.7316
  621MOL0     H81964   2.736   0.700   9.373  0.9848  0.7172  1.4601
  621MOL0     H81965   2.911   0.655   9.403  0.8555 -2.4469 -0.0167
  621MOL0     H81966   2.747   0.429   9.322 -0.3377  0.9575  1.6416
  621MOL0     H81967   2.904   0.479   9.286  0.0792  0.5252 -0.2381
  621MOL0     H81968   2.826   0.658   9.122  0.3435 -1.2181 -1.5276
  621MOL0     H81969   2.780   0.500   9.067 -1.5618 -0.4419 -0.9950
  621MOL0     H81970   2.388   0.662   9.148 -1.2039 -0.4062  4.0559
  621MOL0     H81971   2.944   0.755   9.646  1.0321  2.3437  1.6494
  621MOL0     H81972   3.086   0.831   9.816  1.7741 -0.7600  0.7045
  622MOL0     O81973   6.366  11.099   5.071 -0.1137 -0.4725 -0.1423
  622MOL0     C81974   6.455  11.017   5.063 -0.3343 -0.0203  0.6742
  622MOL0     O81975   6.470  10.935   4.956  0.3056 -0.3399 -0.6935
  622MOL0     C81976   6.369  10.930   4.860  0.3645 -0.1142 -0.0782
  622MOL0     C81977   6.353  11.026   4.756 -0.6000  0.0101  0.7566
  622MOL0     C81978   6.231  11.018   4.682 -0.2870 -0.1398 -1.1874
  622MOL0     C81979   6.140  10.905   4.691  0.5620 -0.0232  0.4575
  622MOL0     O81980   6.034  10.899   4.605 -0.2230 -0.4165  0.3256
  622MOL0     C81981   5.931  10.804   4.612 -0.7114  0.3337 -0.8530
  622MOL0     C81982   5.820  10.852   4.526 -0.1794  0.1351  0.1789
  622MOL0     C81983   5.696  10.768   4.540  0.4581  0.7231 -0.3061
  622MOL0     C81984   5.590  10.799   4.431 -0.2394  0.5224  0.0664
  622MOL0     C81985   5.479  10.694   4.413  1.1306  0.6292  0.2054
  622MOL0     C81986   5.388  10.710   4.536  0.2844  0.1184 -0.0692
  622MOL0     C81987   5.266  10.617   4.510 -0.5178 -0.4015 -0.2906
  622MOL0     C81988   5.204  10.577   4.645 -0.1026  0.6770  0.2335
  622MOL0     N81989   5.067  10.535   4.617  0.0668 -0.0945 -0.1615
  622MOL0     C81990   4.962  10.628   4.634  0.1355  0.7512 -0.1130
  622MOL0     C81991   4.856  10.557   4.592  0.2285 -0.3638  0.1919
  622MOL0     C81992   4.718  10.616   4.594  0.1885 -0.0955  0.6666
  622MOL0     C81993   4.641  10.559   4.712 -0.1703  0.5414  0.7745
  622MOL0     C81994   4.490  10.584   4.701  0.2419  0.2195 -0.4220
  622MOL0     C81995   4.397  10.494   4.784 -0.7537 -1.4757  0.4832
  622MOL0     O81996   4.271  10.546   4.814  0.1428 -0.0938  0.0584
  622MOL0     C81997   4.204  10.508   4.928 -0.3305  0.3604  0.3111
  622MOL0     C81998   4.250  10.430   5.026  0.2055  0.3193  0.0203
  622MOL0     C81999   4.167  10.400   5.140 -0.2133  0.9512 -0.6096
  622MOL0     C82000   4.033  10.442   5.151 -0.5343 -0.7082  0.4249
  622MOL0     C82001   3.950  10.424   5.279 -0.7165  0.2839 -0.0069
  622MOL0     O82002   3.822  10.404   5.269  0.0830  0.8819  0.7130
  622MOL0     C82003   3.752  10.408   5.386  1.0231 -0.3198  0.0007
  622MOL0     C82004   3.683  10.297   5.432  0.5890  0.5288  0.6348
  622MOL0     C82005   3.609  10.300   5.554  0.9099 -0.3135 -0.3559
  622MOL0     C82006   3.609  10.412   5.644 -0.3656  0.1045 -0.4643
  622MOL0     O82007   3.546  10.417   5.772  0.0502  0.3577 -0.0918
  622MOL0     C82008   3.401  10.417   5.761 -0.0111  0.1363 -0.6272
  622MOL0     C82009   3.337  10.467   5.886 -0.1243 -0.2237  0.1815
  622MOL0     C82010   3.187  10.502   5.880  0.3375  0.0624  0.3286
  622MOL0     C82011   3.093  10.424   5.780 -0.2101  0.9982 -0.6650
  622MOL0     C82012   3.043  10.301   5.854  0.4517  0.7514 -0.8900
  622MOL0     C82013   2.940  10.213   5.784 -0.9890  0.4727 -0.4287
  622MOL0     C82014   2.944  10.066   5.806 -0.0379  0.4570 -0.1593
  622MOL0     C82015   2.850  10.006   5.703  0.7376  0.0042 -0.0861
  622MOL0    Cl82016   2.915  10.006   5.533 -0.2724  0.1030 -0.5168
  622MOL0     C82017   3.677  10.526   5.598 -0.1717 -0.0987 -0.1233
  622MOL0     C82018   3.735  10.526   5.473 -0.2332  0.3956 -0.1857
  622MOL0     O82019   4.011  10.443   5.388  0.0924 -0.3853 -0.0470
  622MOL0     C82020   3.986  10.524   5.038  0.1327 -0.2157 -0.9653
  622MOL0     C82021   4.072  10.553   4.934  0.0975 -0.6407 -0.2929
  622MOL0     N82022   4.894  10.426   4.564 -0.4188 -0.7015  0.9263
  622MOL0     N82023   5.017  10.409   4.582 -0.2082  0.7673 -0.0833
  622MOL0     C82024   6.166  10.809   4.784  0.0351  0.0016  0.0553
  622MOL0     C82025   6.275  10.829   4.870  0.2668  0.2275 -0.3969
  622MOL0     C82026   6.557  11.012   5.170 -0.7500 -0.9198 -0.0549
  622MOL0     C82027   6.534  11.074   5.295 -0.9064 -0.9135  0.5443
  622MOL0     C82028   6.644  11.085   5.379 -0.0003 -0.3205 -0.1613
  622MOL0     C82029   6.771  11.036   5.350  0.7711  0.6345  0.1615
  622MOL0     O82030   6.876  11.065   5.435  0.3538 -0.6189 -0.3013
  622MOL0     C82031   6.949  10.964   5.507 -0.4157 -0.5835  1.0668
  622MOL0     C82032   6.944  10.999   5.649 -0.1792 -0.1408 -1.3321
  622MOL0     C82033   7.027  11.126   5.680 -0.3450  0.2607  0.2889
  622MOL0     C82034   6.970  11.207   5.787 -0.1792  0.9548 -0.5052
  622MOL0     C82035   6.837  11.265   5.753  0.7159  0.2844  0.5423
  622MOL0     C82036   6.728  11.301   5.713 -0.4308  0.3025  0.2634
  622MOL0     C82037   6.786  10.967   5.228 -0.3735  0.1998 -0.0724
  622MOL0     C82038   6.685  10.955   5.139  0.2583  0.2330 -0.0564
  622MOL0     H82039   6.413  11.115   4.742 -2.9054  1.2474 -2.8884
  622MOL0     H82040   6.219  11.090   4.602  1.0319  2.3631  0.7444
  622MOL0     H82041   5.907  10.783   4.717  1.9878  1.5467  0.0883
  622MOL0     H82042   5.965  10.712   4.563 -0.1834  1.0450 -1.8615
  622MOL0     H82043   5.863  10.852   4.425  2.5351  2.0158  1.2098
  622MOL0     H82044   5.797  10.957   4.544  0.6106  0.3399  0.0407
  622MOL0     H82045   5.656  10.787   4.640  1.7977 -0.4831  0.4893
  622MOL0     H82046   5.730  10.665   4.523  0.7081  0.6068  0.8187
  622MOL0     H82047   5.546  10.893   4.464  1.9242  1.3446  0.8143
  622MOL0     H82048   5.641  10.815   4.336  2.8234 -3.5799  0.6997
  622MOL0     H82049   5.512  10.590   4.417 -0.0422  0.1847 -0.8820
  622MOL0     H82050   5.419  10.713   4.324  0.4958 -0.6104  0.3468
  622MOL0     H82051   5.365  10.815   4.560 -1.1416 -1.2072  6.1480
  622MOL0     H82052   5.443  10.683   4.627 -1.5908  0.0831  1.0915
  622MOL0     H82053   5.197  10.672   4.446  0.4334  0.2441 -0.7840
  622MOL0     H82054   5.301  10.528   4.458 -0.1030 -1.2195  1.2985
  622MOL0     H82055   5.215  10.657   4.719 -0.8027  1.1880 -0.1991
  622MOL0     H82056   5.257  10.486   4.675 -1.0204  0.5673  1.5785
  622MOL0     H82057   4.966  10.726   4.680  3.1183  0.0335  1.3882
  622MOL0     H82058   4.664  10.589   4.503 -1.8559  2.3783  1.0215
  622MOL0     H82059   4.706  10.724   4.603 -0.0947  0.3394 -3.2349
  622MOL0     H82060   4.674  10.608   4.804 -1.6192 -1.7066  2.6148
  622MOL0     H82061   4.666  10.453   4.721 -1.7090  0.0030 -0.7410
  622MOL0     H82062   4.480  10.682   4.749  1.3721  0.5455 -0.8307
  622MOL0     H82063   4.455  10.578   4.598 -0.0609  0.8731 -0.3596
  622MOL0     H82064   4.457  10.470   4.873  3.7737  0.2173 -1.7682
  622MOL0     H82065   4.374  10.404   4.727 -1.1838  0.6607 -2.9884
  622MOL0     H82066   4.354  10.398   5.030 -0.3945 -1.6468  1.7048
  622MOL0     H82067   4.210  10.346   5.224 -0.9775  1.9995  0.4862
  622MOL0     H82068   3.674  10.208   5.371 -3.3708  0.6394  0.7556
  622MOL0     H82069   3.563  10.209   5.592 -0.1391  0.0646 -0.6755
  622MOL0     H82070   3.366  10.314   5.759  0.5075 -0.0541 -0.0956
  622MOL0     H82071   3.369  10.471   5.671  1.8588 -0.3783 -1.6457
  622MOL0     H82072   3.383  10.561   5.919 -2.4557  1.9574 -2.3534
  622MOL0     H82073   3.347  10.392   5.965 -0.3970 -0.0530  0.3832
  622MOL0     H82074   3.174  10.604   5.843  1.7595  0.4118  0.7486
  622MOL0     H82075   3.146  10.509   5.981 -0.8324 -1.5017 -0.0081
  622MOL0     H82076   3.007  10.487   5.753 -1.2610  0.7586  1.8525
  622MOL0     H82077   3.147  10.400   5.688  0.3163 -0.2633 -0.0473
  622MOL0     H82078   2.996  10.334   5.947  1.1843  1.1652 -0.6610
  622MOL0     H82079   3.120  10.227   5.878 -0.1243  0.0003 -1.3321
  622MOL0     H82080   2.971  10.226   5.680  2.4442  0.9894  0.5357
  622MOL0     H82081   2.837  10.249   5.794 -1.0995 -0.0428  0.3498
  622MOL0     H82082   3.045  10.025   5.795 -0.3946 -0.7983  0.9159
  622MOL0     H82083   2.908  10.039   5.905  0.8266  0.3098  0.1276
  622MOL0     H82084   2.751  10.053   5.708 -0.3593 -2.1058 -0.9045
  622MOL0     H82085   2.828   9.905   5.740 -0.7757  0.5746  0.6692
  622MOL0     H82086   3.675  10.615   5.659  0.5175 -1.8586  2.6126
  622MOL0     H82087   3.774  10.616   5.426 -1.5105  1.0683 -0.0017
  622MOL0     H82088   3.883  10.557   5.041  0.0412 -0.2603  3.4529
  622MOL0     H82089   4.048  10.618   4.850  1.5638 -0.7516 -0.8270
  622MOL0     H82090   6.101  10.723   4.793  1.7689 -1.2698  1.0483
  622MOL0     H82091   6.280  10.773   4.963  1.5632  2.1249  0.7488
  622MOL0     H82092   6.438  11.117   5.325 -0.7018  0.1182 -0.2190
  622MOL0     H82093   6.636  11.129   5.478  1.8811  1.6630 -0.8142
  622MOL0     H82094   7.054  10.960   5.477 -0.0668 -2.3282  2.3258
  622MOL0     H82095   6.914  10.864   5.482 -0.4413 -0.3695  0.2071
  622MOL0     H82096   6.840  11.013   5.682  0.0773  0.4830 -0.7670
  622MOL0     H82097   6.990  10.911   5.695 -0.9507  0.0813 -0.0778
  622MOL0     H82098   7.042  11.195   5.597  1.2777 -1.1018 -0.6059
  622MOL0     H82099   7.125  11.091   5.713 -1.7186 -2.6823  1.5985
  622MOL0     H82100   6.944  11.144   5.872 -4.7986 -1.2205 -3.1319
  622MOL0     H82101   7.043  11.283   5.816 -1.5438  1.7625  0.9396
  622MOL0     H82102   6.636  11.341   5.676 -1.5660 -2.1149  0.3127
  622MOL0     H82103   6.877  10.911   5.212 -0.5254 -0.1973  0.4295
  622MOL0     H82104   6.704  10.893   5.052  0.4487  1.3251 -0.8093
  623MOL0     O82105   9.366   1.522   3.189 -0.1112 -0.2195  0.5280
  623MOL0     C82106   9.447   1.483   3.101  0.0578 -1.4507  0.3124
  623MOL0     O82107   9.442   1.519   2.966 -0.1565  0.3144 -0.0125
  623MOL0     C82108   9.320   1.551   2.920  0.7269  0.2044  1.2434
  623MOL0     C82109   9.212   1.476   2.932  0.6288 -0.4882 -0.0040
  623MOL0     C82110   9.088   1.526   2.890 -0.3398 -0.6103 -0.1132
  623MOL0     C82111   9.083   1.644   2.803  0.7787 -0.4586  0.8565
  623MOL0     O82112   8.969   1.675   2.739  0.2732  0.4753 -0.7062
  623MOL0     C82113   8.973   1.735   2.609  0.2527 -0.7598  0.2834
  623MOL0     C82114   8.876   1.672   2.511  0.8463 -0.2498  0.4727
  623MOL0     C82115   8.940   1.543   2.472  0.1108  0.9351  0.6678
  623MOL0     C82116   8.878   1.470   2.348 -0.5504  1.3400 -0.1893
  623MOL0     C82117   8.729   1.436   2.374  0.0658 -0.3652  0.0497
  623MOL0     C82118   8.681   1.362   2.252 -0.2419 -0.3246  0.4501
  623MOL0     C82119   8.528   1.321   2.259 -0.2004  1.0774  0.3606
  623MOL0     C82120   8.497   1.244   2.392  0.6659  0.5595 -0.5275
  623MOL0     N82121   8.368   1.179   2.401 -0.0714  0.7210  0.6604
  623MOL0     C82122   8.284   1.182   2.502  0.7159 -0.1365 -0.5813
  623MOL0     C82123   8.170   1.115   2.460  0.1636  0.4565 -0.6262
  623MOL0     C82124   8.041   1.094   2.531 -0.4888  0.7830  0.4987
  623MOL0     C82125   7.950   1.004   2.450 -0.5814  0.1810 -0.3596
  623MOL0     C82126   7.816   0.992   2.520  0.4321  0.0978 -0.3411
  623MOL0     C82127   7.723   0.894   2.456  0.2979 -0.0973 -0.3919
  623MOL0     O82128   7.606   0.913   2.531 -0.2526 -0.0485 -0.1584
  623MOL0     C82129   7.489   0.869   2.480  0.0491  1.2687  0.3066
  623MOL0     C82130   7.364   0.922   2.519 -0.5278 -0.4021 -0.4579
  623MOL0     C82131   7.251   0.875   2.454 -0.1078 -0.0073  0.5308
  623MOL0     C82132   7.257   0.767   2.359  0.3303  0.9975  0.1365
  623MOL0     C82133   7.136   0.714   2.290  0.0605  0.1618  0.0216
  623MOL0     O82134   7.010   0.756   2.323  0.1603 -0.0163  0.2136
  623MOL0     C82135   6.904   0.696   2.254 -0.1567  0.8508  0.3517
  623MOL0     C82136   6.876   0.732   2.122  0.1670  0.3597  0.1899
  623MOL0     C82137   6.779   0.657   2.055  0.2079 -0.4116 -0.5153
  623MOL0     C82138   6.694   0.570   2.129 -0.5002  0.0014  0.5741
  623MOL0     O82139   6.595   0.496   2.058  0.7712 -0.8142 -0.5146
  623MOL0     C82140   6.463   0.490   2.120  0.7559  0.0991 -0.4949
  623MOL0     C82141   6.358   0.429   2.037 -0.0666  0.1876  0.3874
  623MOL0     C82142   6.292   0.532   1.935  0.2025  1.0016 -0.4127
  623MOL0     C82143   6.153   0.578   1.976  0.3393 -0.7218 -0.1626
  623MOL0     C82144   6.040   0.474   1.973 -0.1430 -0.2557  0.3270
  623MOL0     C82145   5.920   0.502   2.065 -0.4102 -0.7609 -0.5470
  623MOL0     C82146   5.815   0.398   2.037 -0.1970  0.2545 -0.7077
  623MOL0     C82147   5.689   0.404   2.132 -0.0281 -0.6493 -0.3839
  623MOL0    Cl82148   5.572   0.529   2.075 -0.2451  0.1475 -0.4811
  623MOL0     C82149   6.733   0.527   2.254  0.2862  0.7530 -0.4944
  623MOL0     C82150   6.840   0.592   2.317  0.5409  0.2722 -0.0641
  623MOL0     O82151   7.163   0.635   2.202  0.7427  0.2674 -0.7305
  623MOL0     C82152   7.383   0.705   2.340 -0.4879 -0.2564 -0.1425
  623MOL0     C82153   7.494   0.752   2.398 -0.7252 -0.4412 -0.1472
  623MOL0     N82154   8.190   1.081   2.331  0.0811  0.0287  0.1503
  623MOL0     N82155   8.311   1.110   2.294  0.1979 -0.0815  0.1581
  623MOL0     C82156   9.191   1.727   2.796 -0.3263 -0.0544 -0.3510
  623MOL0     C82157   9.314   1.679   2.859 -1.2044 -0.6418 -0.6415
  623MOL0     C82158   9.549   1.377   3.128 -0.3093 -0.4566 -1.2596
  623MOL0     C82159   9.642   1.344   3.030  0.1615  0.5116 -0.4800
  623MOL0     C82160   9.742   1.248   3.056  0.1297  0.8788 -0.3140
  623MOL0     C82161   9.747   1.176   3.177  0.3979  0.3645 -0.1535
  623MOL0     O82162   9.842   1.075   3.184  0.4484 -0.0096 -0.6309
  623MOL0     C82163   9.953   1.116   3.271  0.4665 -0.3819 -0.4049
  623MOL0     C82164  10.021   0.999   3.331  0.3678  0.2519  0.9427
  623MOL0     C82165   9.933   0.931   3.436  0.5001  1.3310  0.6044
  623MOL0     C82166  10.016   0.836   3.534  0.2597  0.3086 -0.2380
  623MOL0     C82167  10.051   0.717   3.458 -0.0860  0.4827  0.7685
  623MOL0     C82168  10.094   0.619   3.404 -0.6398 -0.0948  0.7212
  623MOL0     C82169   9.644   1.204   3.275  0.5631 -1.3168  0.0724
  623MOL0     C82170   9.553   1.301   3.248  0.5461 -0.1924  0.3999
  623MOL0     H82171   9.205   1.382   2.986 -0.1798 -0.1656  0.4817
  623MOL0     H82172   9.000   1.463   2.901  0.6217 -1.9014  0.5116
  623MOL0     H82173   9.074   1.725   2.570  1.0020 -0.2250  1.9834
  623MOL0     H82174   8.940   1.838   2.623 -4.5880 -1.8175 -1.3249
  623MOL0     H82175   8.852   1.731   2.422  2.0210  2.3877  1.8064
  623MOL0     H82176   8.782   1.653   2.563  1.0963  0.4196  1.1770
  623MOL0     H82177   8.939   1.468   2.551  0.3377 -1.2119 -1.2448
  623MOL0     H82178   9.045   1.564   2.452  0.0654 -0.3322 -1.2401
  623MOL0     H82179   8.888   1.530   2.257 -1.3543 -0.6579 -1.6756
  623MOL0     H82180   8.935   1.378   2.336  0.4220  2.0273 -0.9370
  623MOL0     H82181   8.676   1.532   2.384 -3.9196 -2.2224 -1.2852
  623MOL0     H82182   8.736   1.383   2.469  1.8607 -1.2454 -0.5330
  623MOL0     H82183   8.742   1.271   2.248  2.6477  1.5254 -0.6301
  623MOL0     H82184   8.713   1.413   2.160 -0.9649 -1.1963 -0.3033
  623MOL0     H82185   8.468   1.411   2.244 -2.1716 -0.5111 -2.2049
  623MOL0     H82186   8.517   1.253   2.174  2.2701 -0.9333  1.5219
  623MOL0     H82187   8.503   1.312   2.477 -0.4278  0.3750 -0.2858
  623MOL0     H82188   8.573   1.170   2.419 -2.6553 -1.4596  4.7418
  623MOL0     H82189   8.303   1.223   2.601  0.3972 -3.5706  1.0257
  623MOL0     H82190   7.994   1.193   2.534  1.4078  1.7671 -0.2503
  623MOL0     H82191   8.057   1.055   2.631  2.1739  2.1039  0.6649
  623MOL0     H82192   7.986   0.902   2.434  2.4271  1.1819 -0.6179
  623MOL0     H82193   7.943   1.054   2.352  0.6147  0.2871 -0.4107
  623MOL0     H82194   7.827   0.960   2.624  0.0403 -2.6976 -1.0855
  623MOL0     H82195   7.774   1.093   2.520  2.7328  1.1153 -0.7362
  623MOL0     H82196   7.762   0.794   2.473  0.9800  0.1229 -0.6081
  623MOL0     H82197   7.713   0.920   2.350  0.2042  2.1343  0.1158
  623MOL0     H82198   7.355   1.011   2.580 -1.1904  0.9586 -2.4380
  623MOL0     H82199   7.155   0.924   2.466 -0.4788 -0.4555 -0.5127
  623MOL0     H82200   6.921   0.823   2.084 -5.4288  2.2778 -2.8900
  623MOL0     H82201   6.784   0.662   1.947 -1.5052  0.6887 -0.5849
  623MOL0     H82202   6.434   0.595   2.126 -2.0612 -0.5830 -1.1522
  623MOL0     H82203   6.457   0.436   2.214 -2.5321  0.3121 -0.4765
  623MOL0     H82204   6.288   0.382   2.106  0.3172  1.6050  1.8094
  623MOL0     H82205   6.392   0.346   1.974 -1.3273  0.1207 -0.2438
  623MOL0     H82206   6.280   0.476   1.841  0.4770  3.6100 -2.1026
  623MOL0     H82207   6.356   0.614   1.903 -0.0850  0.0533 -3.8670
  623MOL0     H82208   6.150   0.622   2.077 -3.1088  0.5364 -0.6745
  623MOL0     H82209   6.131   0.660   1.907 -2.3359 -0.2379  1.1434
  623MOL0     H82210   6.086   0.381   2.007  1.8064  0.2778 -0.6997
  623MOL0     H82211   6.005   0.453   1.872 -0.3434  3.2183 -0.4515
  623MOL0     H82212   5.879   0.595   2.025  0.7590 -1.3465 -3.3302
  623MOL0     H82213   5.943   0.508   2.172  0.3372  3.4750 -0.7544
  623MOL0     H82214   5.786   0.423   1.935  1.3368  2.3069 -0.6894
  623MOL0     H82215   5.857   0.297   2.032  0.2278  0.4813 -2.2954
  623MOL0     H82216   5.724   0.421   2.234 -0.8581 -3.0977  0.3736
  623MOL0     H82217   5.631   0.311   2.136 -0.3379 -0.4398  0.1787
  623MOL0     H82218   6.677   0.451   2.309 -1.1200  1.3272 -1.0847
  623MOL0     H82219   6.869   0.565   2.418  2.3992 -2.6256 -1.2574
  623MOL0     H82220   7.397   0.615   2.281 -3.9476 -1.4172  0.5666
  623MOL0     H82221   7.584   0.694   2.380 -0.4298 -0.7710  2.1007
  623MOL0     H82222   9.183   1.817   2.737 -1.4060 -0.5674 -1.0139
  623MOL0     H82223   9.408   1.733   2.848 -1.0050 -1.0915 -1.2558
  623MOL0     H82224   9.651   1.392   2.933  1.1677  0.8409 -0.2405
  623MOL0     H82225   9.826   1.222   2.993 -0.3807 -1.4675 -0.1407
  623MOL0     H82226   9.915   1.180   3.351  1.7221 -1.2356  0.9169
  623MOL0     H82227  10.027   1.172   3.213 -0.1451  0.5498 -0.3181
  623MOL0     H82228  10.048   0.930   3.251  1.3182  1.5833  0.0639
  623MOL0     H82229  10.113   1.032   3.380 -1.8244  2.6655  3.8362
  623MOL0     H82230   9.847   0.875   3.398  0.3070 -0.8256  3.8188
  623MOL0     H82231   9.890   1.017   3.488  3.2321  3.7917 -0.9327
  623MOL0     H82232  10.098   0.877   3.592 -1.1435 -0.3375  2.3468
  623MOL0     H82233   9.952   0.793   3.611  0.7787 -1.7496 -0.8877
  623MOL0     H82234  10.133   0.528   3.362  0.4011  1.1024 -1.0480
  623MOL0     H82235   9.647   1.144   3.365 -1.0834 -1.9161 -0.2455
  623MOL0     H82236   9.482   1.327   3.327  0.2865  0.3777 -0.0109
  624MOL0     O82237  11.034   3.651  10.859 -0.2620 -0.2597 -0.0910
  624MOL0     C82238  11.015   3.561  10.784  0.0328 -0.6287  0.5912
  624MOL0     O82239  11.115   3.487  10.734 -0.3373 -0.1965 -0.8342
  624MOL0     C82240  11.248   3.512  10.763  0.2923  0.2443  0.4042
  624MOL0     C82241  11.334   3.495  10.658 -0.7227  0.8858  0.5305
  624MOL0     C82242  11.470   3.483  10.680  0.3582 -0.2102 -0.7076
  624MOL0     C82243  11.518   3.505  10.817 -0.3717 -0.9013  0.5440
  624MOL0     O82244  11.650   3.518  10.850 -0.4559 -0.4215 -0.0649
  624MOL0     C82245  11.749   3.495  10.751 -0.7338  0.1045 -0.2098
  624MOL0     C82246  11.796   3.349  10.749  0.1686  1.2755 -0.4881
  624MOL0     C82247  11.824   3.284  10.888  0.5477  0.2834  0.1516
  624MOL0     C82248  11.872   3.144  10.866  0.1019 -0.0220  0.8821
  624MOL0     C82249  11.890   3.060  10.996  0.3166  0.3183  0.7972
  624MOL0     C82250  11.987   3.108  11.100 -0.5020 -0.1601  0.3858
  624MOL0     C82251  11.994   3.017  11.229  0.1270  0.1802  0.7800
  624MOL0     C82252  12.118   3.057  11.305  0.3854 -0.4159  0.6631
  624MOL0     N82253  12.121   2.969  11.424  0.3395 -0.0831 -0.6347
  624MOL0     C82254  12.093   3.026  11.544 -0.5875 -0.1296 -0.4016
  624MOL0     C82255  12.089   2.919  11.620 -0.2139 -0.5178 -0.3373
  624MOL0     C82256  12.035   2.922  11.757 -0.2197 -0.6201 -0.3618
  624MOL0     C82257  12.149   2.915  11.864  0.5699  0.4346 -0.6286
  624MOL0     C82258  12.080   2.879  11.998  1.0721  0.0304  0.2592
  624MOL0     C82259  11.969   2.976  12.044  0.3138  0.1335 -0.2894
  624MOL0     O82260  11.841   2.922  12.011  0.3291 -0.1149 -0.7298
  624MOL0     C82261  11.732   2.975  12.078  0.5739  0.4242  0.5244
  624MOL0     C82262  11.628   2.879  12.089 -0.3930 -0.7425 -0.1315
  624MOL0     C82263  11.497   2.911  12.134  0.3408  0.0961 -0.1173
  624MOL0     C82264  11.477   3.042  12.186  1.3124  0.4762  1.1992
  624MOL0     C82265  11.337   3.083  12.244  0.0633 -0.9198 -0.4760
  624MOL0     O82266  11.230   2.993  12.222 -0.3500 -0.2651  0.2808
  624MOL0     C82267  11.090   3.017  12.254 -0.7497  0.9633  0.0503
  624MOL0     C82268  11.034   3.099  12.353 -0.0080  0.4534  0.8872
  624MOL0     C82269  10.899   3.091  12.376 -0.8864 -0.3762  0.6479
  624MOL0     C82270  10.814   3.008  12.301  0.2685 -0.0467  0.3472
  624MOL0     O82271  10.679   2.988  12.326  0.2829  0.1406 -0.0021
  624MOL0     C82272  10.617   3.063  12.433  0.6978  0.2504  0.3802
  624MOL0     C82273  10.563   3.198  12.368  0.5310 -0.1828  1.0161
  624MOL0     C82274  10.447   3.267  12.441 -0.4769 -0.2370 -0.6030
  624MOL0     C82275  10.480   3.299  12.590  0.1842 -0.6850 -0.0264
  624MOL0     C82276  10.356   3.378  12.642 -0.3406  0.4318  0.0420
  624MOL0     C82277  10.378   3.440  12.784  0.5076  0.2638  0.9730
  624MOL0     C82278  10.246   3.486  12.844 -0.8972  0.1914 -0.1519
  624MOL0     C82279  10.242   3.450  12.992  0.4531 -0.5330  0.3478
  624MOL0    Cl82280  10.098   3.538  13.049 -0.2296  0.5794  0.2763
  624MOL0     C82281  10.872   2.929  12.196 -0.6001  0.4084 -0.3213
  624MOL0     C82282  11.010   2.929  12.182 -0.7498  0.4247 -0.5525
  624MOL0     O82283  11.327   3.191  12.297  0.2540  0.1328 -0.0314
  624MOL0     C82284  11.574   3.139  12.164 -0.7349  0.1858  0.5095
  624MOL0     C82285  11.707   3.110  12.114  0.6558  0.3934  0.3228
  624MOL0     N82286  12.133   2.812  11.551 -0.3350 -0.0158  0.0277
  624MOL0     N82287  12.155   2.835  11.426  0.0500 -1.1855 -0.3928
  624MOL0     C82288  11.431   3.523  10.925  0.3865 -0.1454  0.8391
  624MOL0     C82289  11.295   3.516  10.903  1.3993  0.7919  0.0643
  624MOL0     C82290  10.872   3.542  10.731 -0.7426 -0.7179  0.0596
  624MOL0     C82291  10.763   3.581  10.806 -0.1999 -0.7042 -0.0749
  624MOL0     C82292  10.632   3.558  10.770  0.4201 -0.2671 -0.1920
  624MOL0     C82293  10.606   3.518  10.641  0.0059  0.5733  1.3071
  624MOL0     O82294  10.474   3.498  10.605  0.3453 -0.1327 -0.5842
  624MOL0     C82295  10.437   3.427  10.491  0.0010  1.0358 -0.2596
  624MOL0     C82296  10.287   3.444  10.461 -0.1969  0.3964  0.0859
  624MOL0     C82297  10.188   3.458  10.577 -0.1899 -0.4991 -0.1187
  624MOL0     C82298  10.164   3.331  10.667 -0.9291 -0.3205 -0.1612
  624MOL0     C82299  10.105   3.221  10.590  0.1110 -0.0297 -0.0646
  624MOL0     C82300  10.057   3.131  10.526  1.1061  0.2377  0.4462
  624MOL0     C82301  10.714   3.495  10.550  0.0168  0.2781  0.3565
  624MOL0     C82302  10.849   3.499  10.601  0.5619  0.4298  0.0001
  624MOL0     H82303  11.282   3.508  10.564 -0.1857  3.4479  0.5013
  624MOL0     H82304  11.534   3.454  10.597  0.3654  2.7640 -1.8512
  624MOL0     H82305  11.826   3.562  10.791 -1.2597  1.3002 -1.1254
  624MOL0     H82306  11.726   3.533  10.651  0.3958 -0.3704 -0.6669
  624MOL0     H82307  11.894   3.358  10.702 -0.2246  1.3367 -1.3299
  624MOL0     H82308  11.737   3.281  10.686  1.6182 -0.7279  0.2120
  624MOL0     H82309  11.735   3.270  10.950  1.1080 -0.6656  0.7738
  624MOL0     H82310  11.897   3.338  10.948  0.3555 -0.6952  1.2958
  624MOL0     H82311  11.804   3.106  10.789  1.6411 -0.0242 -0.5363
  624MOL0     H82312  11.972   3.157  10.823 -0.3008 -1.2958 -0.5670
  624MOL0     H82313  11.918   2.959  10.966  0.6360  0.4230  0.7409
  624MOL0     H82314  11.793   3.051  11.045  0.7906 -0.9603  1.5503
  624MOL0     H82315  11.953   3.208  11.128 -3.7966 -0.7943 -0.9138
  624MOL0     H82316  12.085   3.132  11.057 -1.2315  2.1633 -0.1398
  624MOL0     H82317  11.906   3.032  11.291 -1.6382 -0.3953 -1.4525
  624MOL0     H82318  12.003   2.913  11.196  2.7824  0.5185  0.1744
  624MOL0     H82319  12.112   3.163  11.332 -0.1962 -0.3470  0.2843
  624MOL0     H82320  12.204   3.036  11.241 -0.4624  0.0370 -0.6643
  624MOL0     H82321  12.056   3.128  11.549 -0.7764 -0.1762 -0.8078
  624MOL0     H82322  11.969   2.836  11.768 -0.4611 -0.1755  2.6724
  624MOL0     H82323  11.978   3.014  11.775 -1.2100 -1.6840  2.5993
  624MOL0     H82324  12.187   3.018  11.863 -0.1031  0.6980 -0.0366
  624MOL0     H82325  12.221   2.837  11.840  0.6193  0.1925  0.2804
  624MOL0     H82326  12.051   2.774  12.014  1.1768  0.3837  3.6759
  624MOL0     H82327  12.158   2.898  12.073 -1.5524  2.0704  2.7311
  624MOL0     H82328  11.999   3.076  12.013  2.8036  0.2390  2.1640
  624MOL0     H82329  11.973   2.970  12.153 -1.1520 -2.8620 -0.2823
  624MOL0     H82330  11.645   2.777  12.055 -1.3013 -0.4457 -1.5680
  624MOL0     H82331  11.423   2.832  12.138  0.4322  0.0152 -0.0077
  624MOL0     H82332  11.105   3.147  12.419 -0.0068  0.1510  1.1089
  624MOL0     H82333  10.864   3.162  12.450  0.2207 -1.5794  2.4053
  624MOL0     H82334  10.683   3.076  12.520  1.7254 -0.6354 -0.2438
  624MOL0     H82335  10.527   3.008  12.462  0.4238 -0.5360 -1.8356
  624MOL0     H82336  10.521   3.192  12.268 -3.3317  2.8695  2.2070
  624MOL0     H82337  10.648   3.266  12.369  1.8677 -1.7500 -0.5524
  624MOL0     H82338  10.358   3.204  12.445  0.6062 -1.8868 -1.3356
  624MOL0     H82339  10.430   3.363  12.391 -0.0548  0.7172  1.0117
  624MOL0     H82340  10.492   3.216  12.661 -2.2590  1.8601  3.7381
  624MOL0     H82341  10.578   3.346  12.598 -0.9849  1.8921  0.1834
  624MOL0     H82342  10.274   3.306  12.646  0.4413 -0.5982 -1.2509
  624MOL0     H82343  10.335   3.459  12.571  2.0131 -0.1480 -1.4509
  624MOL0     H82344  10.457   3.516  12.778  1.4344 -0.6914  0.7316
  624MOL0     H82345  10.424   3.368  12.853  0.0318 -1.1021 -0.0860
  624MOL0     H82346  10.253   3.594  12.835  0.2626 -0.0109 -2.5814
  624MOL0     H82347  10.165   3.444  12.783 -1.3343  1.3696 -0.3942
  624MOL0     H82348  10.335   3.491  13.033  1.3396 -2.1815  0.0673
  624MOL0     H82349  10.241   3.344  13.019  2.5280 -0.8227 -0.5256
  624MOL0     H82350  10.810   2.864  12.136  1.0450 -0.5874 -0.9887
  624MOL0     H82351  11.054   2.862  12.109 -0.1006  0.5794 -0.3124
  624MOL0     H82352  11.572   3.246  12.187  1.6660  0.1806  1.0437
  624MOL0     H82353  11.786   3.185  12.107  2.5282 -1.0836  3.4224
  624MOL0     H82354  11.468   3.530  11.027 -0.9364 -0.5014  1.3708
  624MOL0     H82355  11.223   3.527  10.983 -0.1285  2.6729 -1.4519
  624MOL0     H82356  10.784   3.630  10.900  3.3403 -1.0793 -0.5125
  624MOL0     H82357  10.566   3.571  10.856 -2.0665 -1.1149 -1.8533
  624MOL0     H82358  10.469   3.324  10.507 -0.9425  0.2557 -2.8914
  624MOL0     H82359  10.493   3.469  10.407 -1.5851  0.7959 -1.4781
  624MOL0     H82360  10.284   3.539  10.406 -0.4709  0.5381  0.3397
  624MOL0     H82361  10.257   3.376  10.380  0.5799 -0.9355  0.8877
  624MOL0     H82362  10.094   3.489  10.531 -0.9717  1.1399  2.4239
  624MOL0     H82363  10.218   3.544  10.638 -2.2278 -0.9275  1.5459
  624MOL0     H82364  10.261   3.293  10.703  0.2694  1.8454 -0.9208
  624MOL0     H82365  10.097   3.343  10.752 -1.1773 -1.4299 -0.1753
  624MOL0     H82366  10.018   3.046  10.474 -1.0429 -1.1896  3.9677
  624MOL0     H82367  10.701   3.470  10.446 -2.2705  2.9382 -0.1227
  624MOL0     H82368  10.934   3.468  10.542  1.7398  1.7677  0.9063
  625MOL0     O82369   6.638   4.409   7.411 -0.1145 -0.0206 -0.5035
  625MOL0     C82370   6.737   4.464   7.461  0.6199 -0.1116 -0.1713
  625MOL0     O82371   6.738   4.603   7.495  0.5138 -0.1348 -0.2326
  625MOL0     C82372   6.622   4.666   7.479  0.6959  0.0472  0.5393
  625MOL0     C82373   6.591   4.717   7.350 -0.1964 -0.0354 -0.5533
  625MOL0     C82374   6.474   4.782   7.327 -0.7863 -0.2864 -0.2473
  625MOL0     C82375   6.385   4.820   7.431  0.0745 -0.4079  0.5599
  625MOL0     O82376   6.273   4.892   7.401 -0.1353  0.7687 -0.1632
  625MOL0     C82377   6.192   4.937   7.509 -0.3801  0.4546  0.0513
  625MOL0     C82378   6.254   5.067   7.570  0.0977 -0.0886 -0.6308
  625MOL0     C82379   6.154   5.117   7.674 -1.0017 -0.3744 -0.1615
  625MOL0     C82380   6.047   5.191   7.609  0.6551 -0.2241 -1.2730
  625MOL0     C82381   5.938   5.223   7.706  0.1612  0.2689 -0.0358
  625MOL0     C82382   5.852   5.352   7.674 -0.4946  0.1513 -0.3484
  625MOL0     C82383   5.742   5.379   7.776  0.5119  0.0762  0.4089
  625MOL0     C82384   5.649   5.487   7.716  0.3223 -0.5232  0.9243
  625MOL0     N82385   5.555   5.516   7.820 -0.3839  0.2919  0.0411
  625MOL0     C82386   5.426   5.470   7.816 -0.3471  0.0022  1.1000
  625MOL0     C82387   5.372   5.519   7.927  0.4777 -1.0083 -0.3428
  625MOL0     C82388   5.221   5.505   7.970 -0.5647  1.0991  0.5158
  625MOL0     C82389   5.189   5.539   8.118 -0.7231  0.1567 -0.1484
  625MOL0     C82390   5.037   5.546   8.151 -0.6517 -0.3030 -0.7864
  625MOL0     C82391   4.954   5.666   8.094  0.0106  0.7010  0.1830
  625MOL0     O82392   4.809   5.657   8.099 -0.1633 -0.4432 -0.2263
  625MOL0     C82393   4.748   5.590   7.990  0.6535  0.0025 -0.1999
  625MOL0     C82394   4.788   5.502   7.897  0.0286  0.8284  0.6969
  625MOL0     C82395   4.705   5.436   7.811 -0.6340  0.2073  0.1885
  625MOL0     C82396   4.563   5.455   7.814  0.4720 -0.7441 -0.4918
  625MOL0     C82397   4.473   5.402   7.709  0.4932  0.4180  0.0134
  625MOL0     O82398   4.336   5.417   7.733 -0.3659  0.5809 -0.4903
  625MOL0     C82399   4.254   5.360   7.646  0.0742  0.5126  0.7648
  625MOL0     C82400   4.188   5.240   7.671 -0.6170 -0.3846 -0.3550
  625MOL0     C82401   4.111   5.175   7.579  1.6993 -0.1811  0.3276
  625MOL0     C82402   4.096   5.247   7.449  0.6998  0.3903  0.2003
  625MOL0     O82403   3.993   5.212   7.353  0.1633  0.8463  0.4876
  625MOL0     C82404   3.898   5.103   7.373  1.3347  0.5207  0.1497
  625MOL0     C82405   3.811   5.067   7.248 -0.0700 -0.0017  0.0716
  625MOL0     C82406   3.708   5.177   7.203 -0.2550  0.9405  0.6812
  625MOL0     C82407   3.618   5.238   7.310 -1.0216  0.4710 -0.0558
  625MOL0     C82408   3.538   5.350   7.247 -0.3738  0.5278 -0.5091
  625MOL0     C82409   3.601   5.479   7.190 -0.1767 -0.4599  0.1655
  625MOL0     C82410   3.713   5.542   7.279 -0.8369 -0.0012 -0.8348
  625MOL0     C82411   3.752   5.682   7.227 -0.2542  0.4164  0.4125
  625MOL0    Cl82412   3.610   5.777   7.201 -0.0968  0.2153  0.8247
  625MOL0     C82413   4.161   5.364   7.422  0.4626 -0.6192  0.1754
  625MOL0     C82414   4.242   5.420   7.528  0.1097  0.6166  0.2002
  625MOL0     O82415   4.524   5.333   7.616 -0.5998 -0.6283 -0.0554
  625MOL0     C82416   4.520   5.539   7.914  0.6400  0.2140 -0.3785
  625MOL0     C82417   4.609   5.609   8.000  0.4827  0.6874  0.4887
  625MOL0     N82418   5.465   5.603   7.995  0.2967 -0.4111  1.0553
  625MOL0     N82419   5.573   5.598   7.927  0.4676 -0.2120  0.1460
  625MOL0     C82420   6.422   4.770   7.566  0.5227 -0.2538  0.6157
  625MOL0     C82421   6.543   4.700   7.588  0.6705 -0.4071  0.6784
  625MOL0     C82422   6.858   4.382   7.484  0.2983 -0.3883 -0.2037
  625MOL0     C82423   6.869   4.246   7.442 -0.6257 -0.0099  0.1729
  625MOL0     C82424   6.983   4.172   7.479  1.4634  0.0790 -0.4811
  625MOL0     C82425   7.080   4.233   7.555  0.2033 -0.3643  0.7440
  625MOL0     O82426   7.200   4.166   7.573  0.5003  0.2687  0.0897
  625MOL0     C82427   7.232   4.129   7.704 -0.4949 -0.0457 -0.8365
  625MOL0     C82428   7.320   4.232   7.788  0.4490  0.5630  0.1498
  625MOL0     C82429   7.448   4.259   7.706  1.4114  0.3448  0.5738
  625MOL0     C82430   7.556   4.334   7.779  0.7106 -0.1988  0.3054
  625MOL0     C82431   7.675   4.325   7.694 -0.6910  0.5673  0.6344
  625MOL0     C82432   7.787   4.316   7.638  0.0807  0.0246 -0.2269
  625MOL0     C82433   7.069   4.364   7.597  0.0890 -0.5576 -0.3387
  625MOL0     C82434   6.960   4.441   7.565  0.7220  0.3978  0.5333
  625MOL0     H82435   6.652   4.680   7.267 -1.4900  0.2864 -1.6797
  625MOL0     H82436   6.447   4.821   7.229  0.2414  1.9192  0.2977
  625MOL0     H82437   6.176   4.858   7.583 -1.3636  1.9552  1.5002
  625MOL0     H82438   6.094   4.956   7.465  0.2008 -0.7998 -1.9371
  625MOL0     H82439   6.266   5.130   7.481 -1.7615 -2.7672 -2.9452
  625MOL0     H82440   6.349   5.042   7.618  0.1084  0.9089 -0.1162
  625MOL0     H82441   6.202   5.190   7.739  1.5789 -0.1996 -2.1056
  625MOL0     H82442   6.122   5.033   7.736 -0.1469  0.8151  1.9794
  625MOL0     H82443   6.096   5.278   7.566 -1.3958  1.0177 -1.2254
  625MOL0     H82444   5.996   5.138   7.528 -2.6335 -1.1065  1.1598
  625MOL0     H82445   5.990   5.240   7.801  2.2075  2.0614 -1.3543
  625MOL0     H82446   5.874   5.135   7.716 -0.5557  0.8991  1.0127
  625MOL0     H82447   5.814   5.340   7.572 -0.1662 -0.4308 -0.4034
  625MOL0     H82448   5.933   5.425   7.672  1.9881 -2.2353  2.8777
  625MOL0     H82449   5.686   5.292   7.809  2.8155 -1.5642  0.1956
  625MOL0     H82450   5.794   5.413   7.866  3.1458 -0.6535 -0.7308
  625MOL0     H82451   5.602   5.445   7.627  1.0904 -0.5770  0.5396
  625MOL0     H82452   5.697   5.582   7.691 -0.0972 -0.2344  1.1989
  625MOL0     H82453   5.386   5.395   7.748 -0.3996  0.3390  0.7528
  625MOL0     H82454   5.185   5.403   7.951  0.6283  1.1565 -2.5846
  625MOL0     H82455   5.167   5.578   7.909 -0.2739  1.4474  0.6731
  625MOL0     H82456   5.238   5.636   8.136 -0.3683  0.2339 -1.3864
  625MOL0     H82457   5.235   5.460   8.178  0.0715 -0.9521 -2.1220
  625MOL0     H82458   4.985   5.454   8.121 -0.5412 -0.5784 -0.1475
  625MOL0     H82459   5.025   5.530   8.258  2.7695  1.8824  0.0974
  625MOL0     H82460   4.974   5.685   7.988  0.2970 -0.7064 -0.0289
  625MOL0     H82461   4.983   5.760   8.143 -0.9778  1.3823 -0.4958
  625MOL0     H82462   4.897   5.500   7.895  0.1492  3.8021 -0.4351
  625MOL0     H82463   4.749   5.372   7.735  1.1968  3.1839 -1.4808
  625MOL0     H82464   4.190   5.201   7.773 -1.4026 -0.5921 -0.4073
  625MOL0     H82465   4.063   5.082   7.608  1.3296 -0.4793 -1.1730
  625MOL0     H82466   3.826   5.119   7.453  0.4260  0.9176 -0.7197
  625MOL0     H82467   3.946   5.007   7.394 -0.1952 -0.0552  1.1798
  625MOL0     H82468   3.752   4.975   7.258  1.8672 -1.3273 -0.1245
  625MOL0     H82469   3.889   5.054   7.173  1.9157  1.2469  1.8060
  625MOL0     H82470   3.646   5.121   7.133 -1.3940 -0.8225  2.9807
  625MOL0     H82471   3.761   5.258   7.151 -1.7154  0.6181 -1.3790
  625MOL0     H82472   3.558   5.159   7.357  1.3265 -1.9608 -0.9115
  625MOL0     H82473   3.687   5.281   7.383 -0.9744  0.0868  0.1293
  625MOL0     H82474   3.460   5.384   7.315 -0.9214  0.3069 -1.0167
  625MOL0     H82475   3.482   5.306   7.164  0.2768  1.3455 -1.4262
  625MOL0     H82476   3.518   5.549   7.179  0.3051 -0.1785 -2.0616
  625MOL0     H82477   3.646   5.451   7.094  1.4184 -0.1836  0.7960
  625MOL0     H82478   3.684   5.559   7.383  0.6234  0.9948 -0.5558
  625MOL0     H82479   3.798   5.474   7.278 -0.5238  0.2621  1.6174
  625MOL0     H82480   3.809   5.664   7.135 -2.5231 -1.2946 -0.7538
  625MOL0     H82481   3.815   5.731   7.301 -0.9449  1.7926  0.1417
  625MOL0     H82482   4.148   5.415   7.327 -1.4008 -0.9763  0.1972
  625MOL0     H82483   4.297   5.511   7.508  1.5417  0.1432  1.7588
  625MOL0     H82484   4.414   5.562   7.923  0.3282  0.5682 -3.5446
  625MOL0     H82485   4.573   5.691   8.062 -2.9762 -0.5185  0.3192
  625MOL0     H82486   6.368   4.803   7.654 -1.6979 -0.0960 -0.7237
  625MOL0     H82487   6.563   4.665   7.690  1.0883 -0.7714  0.4776
  625MOL0     H82488   6.792   4.210   7.375  0.2364  0.2817 -1.0103
  625MOL0     H82489   6.981   4.072   7.437  1.1597  0.1415 -0.6209
  625MOL0     H82490   7.271   4.027   7.699  0.2609  0.2348 -0.7061
  625MOL0     H82491   7.147   4.119   7.772  0.3662  0.1586  0.2845
  625MOL0     H82492   7.260   4.322   7.805 -2.3229 -0.7513 -1.8601
  625MOL0     H82493   7.338   4.186   7.885 -2.8977 -0.3473  0.4591
  625MOL0     H82494   7.421   4.319   7.618  1.2164 -1.2386 -0.4749
  625MOL0     H82495   7.495   4.164   7.679  0.6004 -1.0234  3.5280
  625MOL0     H82496   7.527   4.439   7.788  3.3673  0.6701 -0.1584
  625MOL0     H82497   7.573   4.297   7.880 -0.4901 -0.2089  0.5158
  625MOL0     H82498   7.884   4.307   7.594  0.1942 -0.7934  0.1657
  625MOL0     H82499   7.155   4.411   7.644 -1.1412 -0.4871  2.0292
  625MOL0     H82500   6.949   4.546   7.588 -2.2074  0.1570  0.6207
  626MOL0     O82501   6.168   4.295   0.693 -0.0934 -0.4375  0.1851
  626MOL0     C82502   6.165   4.182   0.747  0.2215  0.7771  0.1170
  626MOL0     O82503   6.049   4.112   0.786  0.4869  0.4725 -0.5021
  626MOL0     C82504   5.918   4.159   0.779 -0.6330 -0.2020  0.6821
  626MOL0     C82505   5.819   4.096   0.851  0.3338  0.7616 -0.0460
  626MOL0     C82506   5.686   4.137   0.852  0.1080 -1.0256  0.7587
  626MOL0     C82507   5.652   4.258   0.790  0.8228 -0.3625 -0.6324
  626MOL0     O82508   5.516   4.284   0.781  0.6794 -0.1329 -0.3335
  626MOL0     C82509   5.467   4.384   0.695 -0.2496  0.1565 -0.3025
  626MOL0     C82510   5.316   4.403   0.727 -0.3529 -0.5542 -0.5553
  626MOL0     C82511   5.250   4.503   0.626  0.5456  0.0603  0.9132
  626MOL0     C82512   5.100   4.492   0.651  0.0561  0.3308 -1.0334
  626MOL0     C82513   5.035   4.599   0.568 -0.3969 -0.6182  0.1030
  626MOL0     C82514   4.890   4.601   0.615  0.0052 -0.3772  0.2120
  626MOL0     C82515   4.875   4.678   0.756 -0.7953  1.2306 -0.7514
  626MOL0     C82516   4.721   4.691   0.785 -0.7925  0.2174 -0.1634
  626MOL0     N82517   4.688   4.725   0.924  0.6126  0.2101  0.1986
  626MOL0     C82518   4.587   4.663   0.995  1.0355 -0.6597 -0.2187
  626MOL0     C82519   4.581   4.708   1.122 -0.0336  0.4513  0.2094
  626MOL0     C82520   4.484   4.681   1.235 -0.9071 -0.0166  0.0055
  626MOL0     C82521   4.340   4.694   1.188 -0.7302 -0.8556 -0.0465
  626MOL0     C82522   4.315   4.832   1.124  0.1931  0.0376  0.5563
  626MOL0     C82523   4.162   4.863   1.130  0.2366 -0.4530 -0.0599
  626MOL0     O82524   4.125   4.876   1.268 -0.9353  0.3360 -0.4179
  626MOL0     C82525   3.999   4.932   1.296 -0.5825 -0.4508  0.9682
  626MOL0     C82526   3.892   4.929   1.198  0.0037 -0.9095 -0.0284
  626MOL0     C82527   3.764   4.977   1.225 -0.6514 -0.0417  1.0506
  626MOL0     C82528   3.738   5.032   1.352  0.0733 -0.3807  0.4112
  626MOL0     C82529   3.606   5.088   1.385  1.3102 -0.1297 -0.0617
  626MOL0     O82530   3.516   5.095   1.278  0.0749  0.0919 -0.0366
  626MOL0     C82531   3.395   5.154   1.299  0.1034  0.0906  0.3250
  626MOL0     C82532   3.374   5.292   1.298 -0.8742  0.5850  0.2118
  626MOL0     C82533   3.246   5.336   1.330 -0.0491 -1.3367  0.1192
  626MOL0     C82534   3.140   5.256   1.369 -0.2528  0.3619 -1.2031
  626MOL0     O82535   3.018   5.320   1.391 -0.9978 -0.2274  0.8195
  626MOL0     C82536   2.898   5.247   1.390  0.0292  0.8187 -0.0988
  626MOL0     C82537   2.792   5.351   1.422 -0.1812  0.0705 -0.5631
  626MOL0     C82538   2.655   5.283   1.409  0.9001  0.2555 -0.4658
  626MOL0     C82539   2.558   5.398   1.448  0.2476 -0.3508  0.1722
  626MOL0     C82540   2.418   5.348   1.441 -0.6527 -0.2377  0.1879
  626MOL0     C82541   2.320   5.464   1.454 -0.1686 -0.8227  0.8625
  626MOL0     C82542   2.173   5.415   1.470 -0.0953 -0.8887 -0.2777
  626MOL0     C82543   2.130   5.326   1.353 -0.1960  0.5257 -0.6443
  626MOL0    Cl82544   2.137   5.421   1.212 -0.2088  0.0445 -0.4297
  626MOL0     C82545   3.168   5.118   1.385  0.1455  0.0974 -0.2097
  626MOL0     C82546   3.293   5.072   1.338  0.0289 -0.4166  0.9894
  626MOL0     O82547   3.581   5.108   1.504  0.0970 -0.0398  0.1131
  626MOL0     C82548   3.842   5.035   1.448 -0.1433 -0.0205  0.9208
  626MOL0     C82549   3.972   4.984   1.420  0.7654  0.8208 -0.6597
  626MOL0     N82550   4.675   4.817   1.123 -0.3457 -0.1614 -0.5119
  626MOL0     N82551   4.730   4.820   1.010 -0.1595 -0.7984 -0.3184
  626MOL0     C82552   5.753   4.332   0.727 -0.0378  0.3548  0.2540
  626MOL0     C82553   5.877   4.279   0.714  0.9692  0.3654  0.2728
  626MOL0     C82554   6.299   4.118   0.778 -0.2939 -0.1053 -1.0589
  626MOL0     C82555   6.304   3.986   0.827  0.0304 -0.4449  0.4454
  626MOL0     C82556   6.421   3.929   0.869 -0.3691 -0.4419 -0.2956
  626MOL0     C82557   6.546   3.992   0.853  0.9061 -0.4585 -0.6331
  626MOL0     O82558   6.667   3.932   0.879  0.8794  0.0055  0.0840
  626MOL0     C82559   6.696   3.940   1.024 -0.6337  0.2720  0.7755
  626MOL0     C82560   6.758   3.808   1.080 -0.4964  0.4788 -0.4723
  626MOL0     C82561   6.817   3.826   1.217  0.4511 -0.5790 -0.0768
  626MOL0     C82562   6.938   3.927   1.207  0.6698  0.9972 -0.5120
  626MOL0     C82563   7.046   3.890   1.295  0.6662 -0.5103  0.3221
  626MOL0     C82564   7.122   3.861   1.385 -0.5478 -0.6621  0.0322
  626MOL0     C82565   6.538   4.129   0.820  0.2104  0.4569  0.0655
  626MOL0     C82566   6.423   4.191   0.780 -0.1150  0.4299  1.1139
  626MOL0     H82567   5.846   4.001   0.895  2.6173  1.4546  0.1672
  626MOL0     H82568   5.603   4.085   0.900 -0.6580 -1.3986 -0.9045
  626MOL0     H82569   5.476   4.355   0.589 -1.4685  1.5028 -0.8060
  626MOL0     H82570   5.508   4.481   0.722  4.4687 -1.7969  0.5155
  626MOL0     H82571   5.308   4.446   0.827  3.1060 -0.1952 -0.2979
  626MOL0     H82572   5.272   4.302   0.730  1.1474 -1.2353 -0.4937
  626MOL0     H82573   5.269   4.480   0.521 -0.9604  0.6535  0.4716
  626MOL0     H82574   5.294   4.601   0.644 -0.0548  0.4560  0.2790
  626MOL0     H82575   5.062   4.394   0.622  1.5365 -0.9018  0.9309
  626MOL0     H82576   5.081   4.514   0.756 -0.0607 -0.8542 -0.7953
  626MOL0     H82577   5.048   4.585   0.460  4.8923  3.0266 -0.0897
  626MOL0     H82578   5.084   4.695   0.583  0.8687 -1.3335  0.7141
  626MOL0     H82579   4.839   4.505   0.621 -1.7504  0.4977  0.0436
  626MOL0     H82580   4.836   4.660   0.540 -0.1256 -2.2964 -1.2633
  626MOL0     H82581   4.933   4.624   0.831 -0.6653  1.9915 -0.3032
  626MOL0     H82582   4.933   4.769   0.739 -0.3733  0.6041 -3.1236
  626MOL0     H82583   4.664   4.599   0.767  0.0736 -0.6991  1.5093
  626MOL0     H82584   4.684   4.776   0.727 -2.4847  1.3512  2.4310
  626MOL0     H82585   4.527   4.582   0.957 -1.7321  0.9271  0.5286
  626MOL0     H82586   4.500   4.752   1.317  3.6730  0.6856 -1.2045
  626MOL0     H82587   4.500   4.580   1.274  1.8407  0.2981 -0.1581
  626MOL0     H82588   4.281   4.679   1.279  0.6691 -0.6271  0.9203
  626MOL0     H82589   4.328   4.619   1.110  1.7456 -0.2702 -1.0966
  626MOL0     H82590   4.377   4.911   1.167 -1.2126 -0.4435  3.7275
  626MOL0     H82591   4.336   4.828   1.016 -0.9113 -2.4418  0.3672
  626MOL0     H82592   4.114   4.781   1.076  0.2219  0.1666 -1.0177
  626MOL0     H82593   4.151   4.961   1.082  1.0644  1.2413  2.9664
  626MOL0     H82594   3.897   4.899   1.094 -3.0246 -1.9029 -0.0107
  626MOL0     H82595   3.692   4.965   1.145 -2.3920 -3.2578  2.9021
  626MOL0     H82596   3.458   5.360   1.283  0.1252 -0.6617  0.0038
  626MOL0     H82597   3.215   5.439   1.326 -1.4927 -1.7147  0.9044
  626MOL0     H82598   2.893   5.160   1.455  1.0476 -0.3114 -1.4885
  626MOL0     H82599   2.879   5.223   1.285  0.7609  1.3082 -0.3486
  626MOL0     H82600   2.817   5.429   1.350 -1.2032 -0.0630 -1.0895
  626MOL0     H82601   2.807   5.384   1.526  3.3628 -2.2909 -0.1804
  626MOL0     H82602   2.646   5.213   1.493  0.1133  1.4050  0.4410
  626MOL0     H82603   2.636   5.246   1.307 -1.2812 -2.1817  0.6886
  626MOL0     H82604   2.576   5.445   1.545  0.3987 -0.3230  0.1299
  626MOL0     H82605   2.567   5.478   1.373 -1.1302  0.3045  0.6669
  626MOL0     H82606   2.398   5.279   1.524  1.5220 -0.0425  0.9401
  626MOL0     H82607   2.408   5.287   1.350  0.0827 -1.2537  0.7633
  626MOL0     H82608   2.326   5.531   1.368  2.1899 -3.2636 -1.0625
  626MOL0     H82609   2.345   5.525   1.541 -1.3131 -0.3057  0.8412
  626MOL0     H82610   2.167   5.364   1.566  0.4336  2.8072  1.9422
  626MOL0     H82611   2.105   5.501   1.467  2.1558  1.0863  1.0271
  626MOL0     H82612   2.026   5.299   1.368 -0.7327  2.1949 -1.1196
  626MOL0     H82613   2.184   5.232   1.336 -1.0086 -0.7285  2.9319
  626MOL0     H82614   3.105   5.037   1.420  2.6012 -1.0687  1.8408
  626MOL0     H82615   3.299   4.964   1.327  5.1265 -0.1401 -1.6244
  626MOL0     H82616   3.838   5.094   1.539 -2.3874  1.8781 -0.2827
  626MOL0     H82617   4.041   4.977   1.504  2.4541 -0.0823 -2.0442
  626MOL0     H82618   5.740   4.416   0.660  0.1839 -1.6392 -2.4468
  626MOL0     H82619   5.945   4.331   0.646  1.1140 -0.3555 -0.1438
  626MOL0     H82620   6.218   3.920   0.834  0.1100 -0.5467  0.4552
  626MOL0     H82621   6.417   3.831   0.915  1.5538  1.5792  4.9282
  626MOL0     H82622   6.601   3.950   1.078 -2.2898 -2.0160 -1.4599
  626MOL0     H82623   6.771   4.019   1.033  0.3056 -0.5498  0.3478
  626MOL0     H82624   6.677   3.734   1.075 -0.9272  0.8723  0.4590
  626MOL0     H82625   6.844   3.780   1.017 -1.1123  0.7276 -1.4413
  626MOL0     H82626   6.860   3.735   1.260 -0.2140 -1.7396 -1.7540
  626MOL0     H82627   6.735   3.851   1.285 -0.1833 -3.0592  0.1591
  626MOL0     H82628   6.972   3.939   1.103 -1.3375  1.3153 -1.1775
  626MOL0     H82629   6.894   4.024   1.231 -2.7345 -0.3437 -0.7806
  626MOL0     H82630   7.193   3.851   1.464  2.6381  0.0211 -2.5151
  626MOL0     H82631   6.633   4.181   0.814  1.4495 -1.7866 -1.0947
  626MOL0     H82632   6.419   4.297   0.755 -0.6304  0.5882  1.8374
  627MOL0     O82633   7.759   9.438   2.532 -0.4856 -0.4436 -0.4506
  627MOL0     C82634   7.793   9.463   2.646 -0.2993  0.2410 -0.5732
  627MOL0     O82635   7.707   9.486   2.750 -0.0734 -0.7699 -0.4733
  627MOL0     C82636   7.567   9.501   2.730 -0.6429  0.6988 -0.2350
  627MOL0     C82637   7.500   9.423   2.634  0.4056  0.5576 -0.4334
  627MOL0     C82638   7.360   9.444   2.618  0.3614  0.4284 -0.0196
  627MOL0     C82639   7.290   9.546   2.693 -0.7064 -0.0562 -0.2972
  627MOL0     O82640   7.153   9.570   2.693  0.5903 -0.8048  0.2152
  627MOL0     C82641   7.070   9.472   2.639  0.1227  0.2195 -0.1966
  627MOL0     C82642   6.925   9.485   2.682  0.4690  0.6020  0.1495
  627MOL0     C82643   6.926   9.507   2.840  0.3495  0.1044  0.3225
  627MOL0     C82644   6.785   9.514   2.901 -0.5636 -0.8763  0.4708
  627MOL0     C82645   6.699   9.620   2.838 -0.4792 -0.2228  0.2608
  627MOL0     C82646   6.552   9.625   2.897 -0.0854 -0.3594  0.1240
  627MOL0     C82647   6.475   9.747   2.853  0.0015  0.5861 -0.4754
  627MOL0     C82648   6.326   9.738   2.886  0.9610 -0.7281 -0.5338
  627MOL0     N82649   6.301   9.753   3.029 -0.2078  0.1895 -0.1170
  627MOL0     C82650   6.318   9.869   3.098 -0.8625 -0.1171 -0.2403
  627MOL0     C82651   6.290   9.854   3.230  0.4533  0.5076  0.5158
  627MOL0     C82652   6.289   9.959   3.339 -0.2536 -0.0003 -0.2875
  627MOL0     C82653   6.401   9.936   3.446  0.0101  0.3308 -0.4353
  627MOL0     C82654   6.419  10.045   3.548 -0.5226  0.2836  0.0257
  627MOL0     C82655   6.448  10.174   3.491  0.5768 -0.8416  0.6329
  627MOL0     O82656   6.571  10.192   3.416 -0.2845 -0.3577 -0.2142
  627MOL0     C82657   6.691  10.180   3.474 -0.3093  0.0215 -0.7243
  627MOL0     C82658   6.797  10.170   3.390 -0.5114  0.5118 -0.0907
  627MOL0     C82659   6.932  10.138   3.430  0.2873  0.2503  0.1352
  627MOL0     C82660   6.949  10.120   3.568 -1.6868  0.5591 -0.1786
  627MOL0     C82661   7.083  10.089   3.619  0.2432 -0.1622  0.4856
  627MOL0     O82662   7.174  10.075   3.519  0.1181 -0.5123  0.3307
  627MOL0     C82663   7.304  10.042   3.539 -0.2940 -0.2601  0.7998
  627MOL0     C82664   7.382  10.000   3.432 -0.2207  0.5124  0.7616
  627MOL0     C82665   7.524   9.961   3.439 -0.1347 -0.1876 -0.4026
  627MOL0     C82666   7.578   9.964   3.571  0.8097 -0.8441  0.4707
  627MOL0     O82667   7.701   9.932   3.610 -0.5570  0.3210 -0.5767
  627MOL0     C82668   7.783   9.889   3.505 -0.6374  0.3672  0.4132
  627MOL0     C82669   7.913   9.834   3.573  0.1112  0.0734  0.5865
  627MOL0     C82670   8.021   9.951   3.579  0.2929  0.1316 -0.0032
  627MOL0     C82671   8.142   9.881   3.652 -0.0409  0.0674 -0.4660
  627MOL0     C82672   8.255   9.977   3.672  0.1900  0.1810 -0.7608
  627MOL0     C82673   8.333  10.014   3.545 -0.4663 -0.4488  0.1585
  627MOL0     C82674   8.382   9.896   3.459 -0.3585  0.2556  0.1567
  627MOL0     C82675   8.478   9.794   3.529  0.0332  0.0918  0.4175
  627MOL0    Cl82676   8.458   9.634   3.446 -0.0771  0.3456  0.0636
  627MOL0     C82677   7.501  10.013   3.676 -0.0934 -0.0013 -0.1281
  627MOL0     C82678   7.377  10.061   3.661  0.3059  0.1875  0.8191
  627MOL0     O82679   7.099  10.071   3.739  0.2690  0.2826  0.0575
  627MOL0     C82680   6.846  10.138   3.658  0.0818 -0.4542  0.5640
  627MOL0     C82681   6.719  10.164   3.612 -0.0892 -0.0476 -0.2839
  627MOL0     N82682   6.253   9.719   3.245  0.3931 -0.4556 -0.3196
  627MOL0     N82683   6.261   9.662   3.126  0.0371  0.1691  0.6289
  627MOL0     C82684   7.357   9.620   2.783 -0.1859 -1.6010 -0.1517
  627MOL0     C82685   7.493   9.597   2.804 -0.9134  0.1311  0.5768
  627MOL0     C82686   7.938   9.515   2.666  1.2366 -0.2127  0.9245
  627MOL0     C82687   8.037   9.506   2.563  0.3835  0.0436 -0.5557
  627MOL0     C82688   8.167   9.568   2.574  0.2481 -0.3872  0.0844
  627MOL0     C82689   8.196   9.642   2.694 -0.2850  0.1058  0.9725
  627MOL0     O82690   8.310   9.708   2.734  0.1799  0.0867 -0.2409
  627MOL0     C82691   8.412   9.709   2.635  0.0863 -0.3993 -0.2644
  627MOL0     C82692   8.386   9.837   2.543 -0.3559  0.4785  0.2668
  627MOL0     C82693   8.496   9.857   2.438 -0.8203  0.0505 -0.4675
  627MOL0     C82694   8.558   9.998   2.439  0.4219 -0.3810  0.1045
  627MOL0     C82695   8.664  10.017   2.343 -0.4463  0.7432 -0.6498
  627MOL0     C82696   8.766  10.021   2.283 -0.1907 -0.0576  0.0153
  627MOL0     C82697   8.103   9.648   2.797  0.2049  0.1444  0.4934
  627MOL0     C82698   7.977   9.590   2.779 -0.3954 -0.2775  0.1720
  627MOL0     H82699   7.542   9.350   2.566 -0.4860  0.1417 -0.5506
  627MOL0     H82700   7.299   9.399   2.540 -1.1568 -0.5584  1.6629
  627MOL0     H82701   7.102   9.373   2.671  1.2954  0.4457 -0.6137
  627MOL0     H82702   7.068   9.484   2.530  1.2323  1.1304 -0.1381
  627MOL0     H82703   6.871   9.397   2.646  1.9980  0.9215 -3.3106
  627MOL0     H82704   6.868   9.567   2.638 -3.9659 -2.6236 -0.9036
  627MOL0     H82705   6.979   9.596   2.875 -0.2589  0.6477 -0.1086
  627MOL0     H82706   6.970   9.419   2.888 -2.2974 -0.7235  1.3977
  627MOL0     H82707   6.732   9.419   2.894 -0.1734 -1.3762  3.1719
  627MOL0     H82708   6.806   9.538   3.006  2.7564  2.4668 -0.7325
  627MOL0     H82709   6.688   9.600   2.731 -0.7415  1.3664 -0.0306
  627MOL0     H82710   6.754   9.714   2.848 -2.1829  1.0038 -1.3000
  627MOL0     H82711   6.552   9.629   3.007  0.1884  1.2445  0.0931
  627MOL0     H82712   6.502   9.531   2.875 -3.8402  1.2465  0.9539
  627MOL0     H82713   6.519   9.830   2.908 -0.9883 -0.4395  2.0324
  627MOL0     H82714   6.485   9.769   2.747 -0.9536  1.6577 -0.3689
  627MOL0     H82715   6.288   9.641   2.852 -1.4252 -0.2698  0.6091
  627MOL0     H82716   6.279   9.817   2.827 -0.8166  1.0115  2.8798
  627MOL0     H82717   6.354   9.966   3.064 -2.6801  0.9229  0.6250
  627MOL0     H82718   6.194   9.966   3.392 -0.4629  3.1290 -0.8811
  627MOL0     H82719   6.295  10.057   3.290 -1.1869  1.3048  2.0603
  627MOL0     H82720   6.496   9.922   3.395 -0.0553  1.4620 -0.8983
  627MOL0     H82721   6.374   9.840   3.492  0.6712 -1.5559 -3.7112
  627MOL0     H82722   6.351  10.046   3.634  4.2263 -1.1730  4.2950
  627MOL0     H82723   6.512  10.015   3.598 -1.4480 -0.9216  1.0754
  627MOL0     H82724   6.436  10.237   3.579  2.2113 -1.6974  1.5148
  627MOL0     H82725   6.363  10.205   3.429  0.0434  1.8847  2.5401
  627MOL0     H82726   6.772  10.206   3.290 -0.1846  1.2401  0.0825
  627MOL0     H82727   7.007  10.134   3.352 -1.3401  2.4100 -1.6716
  627MOL0     H82728   7.339   9.988   3.333  1.2932 -0.6629  0.2032
  627MOL0     H82729   7.581   9.928   3.353  0.9617 -0.1331  0.2895
  627MOL0     H82730   7.822   9.964   3.435  3.8617 -2.1093 -0.1387
  627MOL0     H82731   7.735   9.804   3.455 -0.6797  1.1728 -0.9601
  627MOL0     H82732   7.944   9.754   3.505  1.4301  0.8288  0.2573
  627MOL0     H82733   7.894   9.795   3.674  2.2867 -3.5430 -0.2048
  627MOL0     H82734   7.981  10.035   3.637 -0.4629 -0.2187  0.0014
  627MOL0     H82735   8.051   9.992   3.483 -1.4432  1.9753  0.1730
  627MOL0     H82736   8.116   9.864   3.757 -3.0546  0.6466 -1.0297
  627MOL0     H82737   8.164   9.789   3.598 -1.1902  1.0243 -2.7105
  627MOL0     H82738   8.323   9.928   3.742 -1.9947  0.4962  1.7486
  627MOL0     H82739   8.210  10.065   3.719 -2.0352 -0.8743 -0.7884
  627MOL0     H82740   8.425  10.071   3.557 -0.5289 -0.0156 -1.1939
  627MOL0     H82741   8.271  10.075   3.479  3.3166  1.5054 -1.9249
  627MOL0     H82742   8.296   9.846   3.414  2.0693 -1.7891 -2.6072
  627MOL0     H82743   8.433   9.946   3.376  2.3881 -0.0509  1.5513
  627MOL0     H82744   8.448   9.781   3.634 -0.4862 -1.3351  0.1219
  627MOL0     H82745   8.580   9.831   3.517 -0.4038  1.8711  1.7629
  627MOL0     H82746   7.536  10.005   3.778  2.1053  0.1016 -0.8191
  627MOL0     H82747   7.319  10.093   3.747  0.6486 -2.7670  2.2710
  627MOL0     H82748   6.870  10.137   3.764  2.4042  1.5258  0.1523
  627MOL0     H82749   6.642  10.161   3.689 -0.0263  2.1151 -0.0864
  627MOL0     H82750   7.310   9.698   2.842  0.6510  0.4624 -2.0878
  627MOL0     H82751   7.546   9.646   2.885 -0.4763 -0.6609  0.7807
  627MOL0     H82752   8.002   9.445   2.480 -2.0379 -1.3412  1.3326
  627MOL0     H82753   8.235   9.544   2.493 -0.7896 -0.9842 -0.6237
  627MOL0     H82754   8.428   9.612   2.588  1.2855  0.3810 -1.5559
  627MOL0     H82755   8.500   9.728   2.696 -0.6516 -0.3935  0.8165
  627MOL0     H82756   8.289   9.835   2.492 -0.7074 -1.2167  0.9058
  627MOL0     H82757   8.383   9.916   2.619  3.2617 -0.2002  1.3181
  627MOL0     H82758   8.450   9.836   2.341  1.6689  1.8347 -2.1431
  627MOL0     H82759   8.574   9.784   2.462 -0.4345  1.0969  1.6754
  627MOL0     H82760   8.490  10.078   2.407  1.9603  1.0727  0.3619
  627MOL0     H82761   8.583  10.031   2.541  1.3163  0.6459 -0.4364
  627MOL0     H82762   8.863  10.032   2.239  0.5642 -0.8357  1.4068
  627MOL0     H82763   8.129   9.713   2.881 -0.0221  1.7311 -0.6274
  627MOL0     H82764   7.911   9.615   2.861 -0.8472 -1.6505  0.2425
  628MOL0     O82765   0.951   7.496   4.578  0.4265 -0.2381  0.1415
  628MOL0     C82766   0.963   7.566   4.477 -0.1711  1.2801 -0.0145
  628MOL0     O82767   0.864   7.584   4.384  0.3799 -0.0469 -1.0738
  628MOL0     C82768   0.752   7.506   4.392  0.1291  0.1805  0.2880
  628MOL0     C82769   0.626   7.568   4.424 -0.0036  1.5119  0.2577
  628MOL0     C82770   0.502   7.494   4.427  0.1556  0.3373  0.1816
  628MOL0     C82771   0.511   7.352   4.400 -0.5787  0.1642  0.0130
  628MOL0     O82772   0.403   7.269   4.387  0.1697 -0.4655  0.9695
  628MOL0     C82773   0.272   7.312   4.435 -0.4202  0.3615  0.0580
  628MOL0     C82774   0.170   7.204   4.401 -0.8694  0.4478 -0.3630
  628MOL0     C82775   0.031   7.241   4.460  0.2636  0.7603 -0.3382
  628MOL0     C82776  -0.037   7.339   4.369 -0.1462 -0.1247 -0.3570
  628MOL0     C82777  -0.182   7.386   4.404  0.2706 -0.7567  0.0069
  628MOL0     C82778  -0.286   7.277   4.386  0.4895  0.3946  0.6220
  628MOL0     C82779  -0.419   7.346   4.408  0.6465  0.2420 -0.1554
  628MOL0     C82780  -0.535   7.249   4.389  0.2633  0.0417 -0.3779
  628MOL0     N82781  -0.657   7.305   4.447  0.6941  0.0102 -0.2050
  628MOL0     C82782  -0.781   7.297   4.397 -0.2728 -0.8270 -0.0392
  628MOL0     C82783  -0.859   7.345   4.490  0.3093  0.1757  0.4364
  628MOL0     C82784  -1.001   7.349   4.462  0.4861  0.3209  0.6415
  628MOL0     C82785  -1.094   7.311   4.584  0.2202  0.3873 -0.3111
  628MOL0     C82786  -1.241   7.299   4.540  0.3773 -0.3085  0.1854
  628MOL0     C82787  -1.329   7.246   4.640  1.0912 -0.1218 -0.3441
  628MOL0     O82788  -1.458   7.251   4.571 -0.3596 -0.0470 -0.1940
  628MOL0     C82789  -1.575   7.254   4.654 -0.1190 -0.6997  0.3663
  628MOL0     C82790  -1.592   7.205   4.778 -0.0965  0.2780 -0.8532
  628MOL0     C82791  -1.717   7.219   4.838  0.7038  0.1883 -0.4553
  628MOL0     C82792  -1.834   7.288   4.786 -0.3607  0.3008 -0.0165
  628MOL0     C82793  -1.962   7.296   4.858  0.2105  1.0084  0.2460
  628MOL0     O82794  -2.063   7.367   4.802  0.5559  0.1067  0.1824
  628MOL0     C82795  -2.166   7.419   4.871 -0.8016  0.6032 -0.5961
  628MOL0     C82796  -2.145   7.506   4.987  0.3428 -0.1904  0.4864
  628MOL0     C82797  -2.254   7.562   5.056 -1.0125 -0.2340 -0.1283
  628MOL0     C82798  -2.385   7.538   5.010 -0.0291 -0.2699  0.6310
  628MOL0     O82799  -2.502   7.580   5.071 -0.9119 -0.0518  0.1703
  628MOL0     C82800  -2.502   7.662   5.190  1.0587 -0.0458  0.3820
  628MOL0     C82801  -2.654   7.689   5.220  0.8794  0.0797 -0.2780
  628MOL0     C82802  -2.736   7.764   5.101  0.5425  0.5053  0.0130
  628MOL0     C82803  -2.874   7.819   5.146 -0.1726  0.1681  0.9374
  628MOL0     C82804  -2.930   7.904   5.032  0.1281 -0.3522 -0.7861
  628MOL0     C82805  -3.070   7.960   5.062 -0.6086 -0.2032 -0.1897
  628MOL0     C82806  -3.068   8.081   5.152 -0.2646  0.9302 -0.1639
  628MOL0     C82807  -3.209   8.132   5.140  0.6862 -0.0827  0.5328
  628MOL0    Cl82808  -3.208   8.228   4.985 -0.1811 -0.2190 -0.4677
  628MOL0     C82809  -2.409   7.447   4.907  0.2135  0.4320 -0.0740
  628MOL0     C82810  -2.295   7.400   4.834 -0.2943 -0.0774  0.4839
  628MOL0     O82811  -1.958   7.270   4.979  0.1468 -0.6060  0.0357
  628MOL0     C82812  -1.809   7.336   4.653  0.7565  0.4827  0.6312
  628MOL0     C82813  -1.683   7.322   4.585 -0.2378 -0.0435 -0.9346
  628MOL0     N82814  -0.785   7.375   4.599  0.2502  0.5031  0.5610
  628MOL0     N82815  -0.664   7.352   4.574  0.1483  0.1834 -0.9365
  628MOL0     C82816   0.639   7.294   4.364  0.1935 -1.0193  0.2487
  628MOL0     C82817   0.757   7.374   4.362 -0.8704  0.2113  0.0571
  628MOL0     C82818   1.105   7.628   4.465  0.7029  0.2615 -0.7558
  628MOL0     C82819   1.204   7.592   4.559 -0.0309  0.1266 -0.1503
  628MOL0     C82820   1.335   7.634   4.542  0.1122  0.1761  0.0609
  628MOL0     C82821   1.368   7.742   4.450 -0.2533 -0.0862 -1.0286
  628MOL0     O82822   1.488   7.811   4.445 -0.4325 -0.2581  0.0650
  628MOL0     C82823   1.606   7.735   4.470 -0.6567 -0.4766 -0.6553
  628MOL0     C82824   1.728   7.801   4.399  0.3923  0.5312 -0.5614
  628MOL0     C82825   1.832   7.853   4.494 -0.2363 -0.7601 -0.7658
  628MOL0     C82826   1.951   7.922   4.429 -0.4417 -0.0438  0.7572
  628MOL0     C82827   2.047   7.974   4.531  0.3445  0.0571 -0.2958
  628MOL0     C82828   2.118   8.010   4.623 -0.3543  0.1854  0.0110
  628MOL0     C82829   1.269   7.790   4.369  0.5942  0.6281 -0.5251
  628MOL0     C82830   1.140   7.729   4.375  0.2786  0.3861  0.6972
  628MOL0     H82831   0.622   7.674   4.447  1.3141  1.3038  1.5529
  628MOL0     H82832   0.404   7.536   4.446 -1.4014 -3.2041  0.7834
  628MOL0     H82833   0.247   7.400   4.377 -3.4529 -1.4164 -1.5637
  628MOL0     H82834   0.274   7.336   4.542  0.6849 -0.1650  0.1708
  628MOL0     H82835   0.211   7.116   4.450  1.7325  3.0745  2.6391
  628MOL0     H82836   0.165   7.180   4.295  1.0002  0.1507 -0.4158
  628MOL0     H82837   0.046   7.284   4.559 -1.3483 -2.1494  1.3044
  628MOL0     H82838  -0.032   7.155   4.485  1.4694  0.2332  1.0504
  628MOL0     H82839   0.028   7.426   4.373  0.2087 -0.4360  1.2853
  628MOL0     H82840  -0.050   7.305   4.266 -0.5435 -0.5674 -0.1659
  628MOL0     H82841  -0.218   7.462   4.333  3.4912  0.7471 -0.1750
  628MOL0     H82842  -0.176   7.430   4.504 -2.2783  1.6654 -0.7646
  628MOL0     H82843  -0.261   7.202   4.461  1.1065 -1.3829 -1.2723
  628MOL0     H82844  -0.284   7.220   4.293 -0.6062 -2.3393  2.1457
  628MOL0     H82845  -0.423   7.380   4.512  0.5665 -1.9394  0.6077
  628MOL0     H82846  -0.432   7.436   4.347 -2.9609 -0.7290 -1.0234
  628MOL0     H82847  -0.510   7.152   4.433 -1.6328 -0.3789 -0.1141
  628MOL0     H82848  -0.548   7.245   4.281 -0.0849  0.4999 -0.3541
  628MOL0     H82849  -0.806   7.253   4.301  0.5088  0.7129 -0.9796
  628MOL0     H82850  -1.023   7.271   4.388 -0.2717  0.6605  0.4986
  628MOL0     H82851  -1.030   7.442   4.411  0.2295 -0.6668 -1.1151
  628MOL0     H82852  -1.092   7.395   4.654  1.0759 -0.2009  0.3902
  628MOL0     H82853  -1.058   7.224   4.639  0.5613  1.2216  0.8181
  628MOL0     H82854  -1.278   7.400   4.519 -0.7875 -0.7016  0.2754
  628MOL0     H82855  -1.244   7.237   4.450  0.0943  1.5439 -1.1472
  628MOL0     H82856  -1.327   7.298   4.736 -1.6802  0.8507 -0.7287
  628MOL0     H82857  -1.303   7.143   4.669 -1.5013 -0.6122  0.5381
  628MOL0     H82858  -1.510   7.158   4.831 -0.8788  0.7708  0.8390
  628MOL0     H82859  -1.727   7.178   4.937  1.8587  1.7231  0.3523
  628MOL0     H82860  -2.042   7.520   5.019 -0.4109 -0.9186  3.4997
  628MOL0     H82861  -2.238   7.626   5.142  2.6623 -0.0686 -0.7762
  628MOL0     H82862  -2.454   7.758   5.173 -0.0771  0.1869 -1.9154
  628MOL0     H82863  -2.466   7.603   5.274  1.9363  2.0943  1.5836
  628MOL0     H82864  -2.664   7.754   5.309  1.4114 -1.9386  1.3285
  628MOL0     H82865  -2.705   7.601   5.260 -3.2197  3.3028  2.6552
  628MOL0     H82866  -2.748   7.689   5.022  0.4391 -2.2316  2.4783
  628MOL0     H82867  -2.673   7.845   5.061 -2.1943  2.5102 -0.5659
  628MOL0     H82868  -2.951   7.743   5.158  0.1613 -0.4122 -0.4420
  628MOL0     H82869  -2.856   7.878   5.237 -3.6768  0.0105  1.8860
  628MOL0     H82870  -2.937   7.851   4.937 -2.1014  0.6850 -1.2702
  628MOL0     H82871  -2.870   7.994   5.015 -3.0216  1.8075 -1.4677
  628MOL0     H82872  -3.120   7.876   5.112  0.9773 -1.3308 -0.3811
  628MOL0     H82873  -3.125   7.974   4.969  0.3635 -0.3785 -0.8121
  628MOL0     H82874  -3.047   8.053   5.255 -1.8893 -1.2220 -0.3393
  628MOL0     H82875  -2.998   8.151   5.106  0.1579 -0.0135 -0.9787
  628MOL0     H82876  -3.231   8.208   5.216 -2.3425  0.9512 -1.1892
  628MOL0     H82877  -3.284   8.053   5.142 -2.1805  2.4041 -0.7744
  628MOL0     H82878  -2.509   7.418   4.876 -0.0975  2.0358 -0.6796
  628MOL0     H82879  -2.317   7.327   4.757  1.1703 -1.4466  1.3085
  628MOL0     H82880  -1.889   7.384   4.597  2.9424  1.0792 -2.2320
  628MOL0     H82881  -1.660   7.360   4.486  0.4597  3.6126  0.4569
  628MOL0     H82882   0.645   7.186   4.353  2.9500 -0.7827 -1.6505
  628MOL0     H82883   0.856   7.331   4.353 -1.6294 -1.6225  0.2250
  628MOL0     H82884   1.183   7.520   4.637  0.1012 -0.4640 -0.6554
  628MOL0     H82885   1.414   7.592   4.602 -0.0263 -1.6231 -0.9451
  628MOL0     H82886   1.592   7.628   4.448  1.2409 -0.8059 -0.4096
  628MOL0     H82887   1.625   7.736   4.578 -1.6739 -1.4554 -0.4353
  628MOL0     H82888   1.766   7.731   4.324 -1.6833  0.1388 -1.3093
  628MOL0     H82889   1.695   7.890   4.345  0.5887 -0.2923 -2.1037
  628MOL0     H82890   1.867   7.768   4.554 -0.2649 -0.3921 -0.2162
  628MOL0     H82891   1.778   7.926   4.554 -0.7151 -0.8472 -1.0825
  628MOL0     H82892   2.001   7.849   4.365 -0.6906  0.0731  0.4285
  628MOL0     H82893   1.921   8.005   4.365  0.9823 -0.4719 -0.5030
  628MOL0     H82894   2.172   8.051   4.706  1.3201 -0.2540 -0.8281
  628MOL0     H82895   1.275   7.879   4.307 -0.9682  0.6775 -0.6559
  628MOL0     H82896   1.057   7.773   4.321  1.8854  2.9261  0.1109
  629MOL0     O82897   8.430   0.594  10.168  0.2079 -0.5344 -0.2090
  629MOL0     C82898   8.528   0.535  10.115 -0.0950 -0.6700  0.1218
  629MOL0     O82899   8.547   0.402  10.126  0.2801  0.2495  0.5967
  629MOL0     C82900   8.466   0.321  10.201 -0.0718  1.3182  0.3838
  629MOL0     C82901   8.430   0.194  10.149  0.6840  0.0551 -0.1809
  629MOL0     C82902   8.341   0.105  10.222 -0.1133 -0.1714 -0.0318
  629MOL0     C82903   8.298   0.139  10.351 -0.4431  0.1706 -0.1308
  629MOL0     O82904   8.222   0.037  10.412  0.2826  0.7617 -0.3787
  629MOL0     C82905   8.162   0.084  10.537 -0.6051  0.1168 -0.1926
  629MOL0     C82906   8.037   0.005  10.587  0.2083 -0.4810  0.2958
  629MOL0     C82907   7.930   0.008  10.478  0.4060 -0.6086  0.3303
  629MOL0     C82908   7.814  -0.079  10.517  0.8759 -0.7344 -0.1815
  629MOL0     C82909   7.715   0.002  10.613  1.4428  0.4716 -0.5721
  629MOL0     C82910   7.587  -0.082  10.650  0.7232  0.4530 -0.3978
  629MOL0     C82911   7.499  -0.127  10.538 -0.0020  0.4155 -0.4022
  629MOL0     C82912   7.426  -0.015  10.468 -0.1171  0.6819  0.5056
  629MOL0     N82913   7.324  -0.070  10.384  0.5737  0.0845  0.4348
  629MOL0     C82914   7.194  -0.077  10.419  0.2672 -0.3341  0.0970
  629MOL0     C82915   7.128  -0.114  10.313 -0.0104 -0.8958  1.2654
  629MOL0     C82916   6.986  -0.143  10.292 -0.0719 -0.2820 -0.6436
  629MOL0     C82917   6.935  -0.090  10.163  1.0896  0.1957  0.6166
  629MOL0     C82918   6.798  -0.157  10.123 -0.0208 -1.1948  0.4321
  629MOL0     C82919   6.685  -0.098  10.210 -0.1511  0.1602  0.4496
  629MOL0     O82920   6.576  -0.163  10.146  0.5536 -0.3250 -0.3218
  629MOL0     C82921   6.448  -0.155  10.204 -0.5539 -0.8080  0.7181
  629MOL0     C82922   6.343  -0.191  10.124  0.4745  0.9653 -0.3884
  629MOL0     C82923   6.212  -0.177  10.171 -0.1737  0.0031  0.4150
  629MOL0     C82924   6.181  -0.114  10.298  0.6043 -0.1265  0.0428
  629MOL0     C82925   6.050  -0.132  10.363 -0.8375  0.4425  0.0820
  629MOL0     O82926   5.941  -0.196  10.297 -0.9466  0.1452  0.0257
  629MOL0     C82927   5.816  -0.163  10.326 -0.3891  0.0215  0.5985
  629MOL0     C82928   5.728  -0.264  10.348  0.4682  0.9168  0.7374
  629MOL0     C82929   5.591  -0.238  10.388  0.2899  0.6710 -0.4178
  629MOL0     C82930   5.549  -0.097  10.385  1.1979  1.5193  1.3881
  629MOL0     O82931   5.425  -0.080  10.430 -0.2220 -0.7703  0.1457
  629MOL0     C82932   5.379   0.054  10.457  0.4201 -0.5189 -0.5486
  629MOL0     C82933   5.235   0.048  10.489  1.0811 -0.1348  0.0050
  629MOL0     C82934   5.199  -0.032  10.611 -0.2347 -0.5832 -0.0341
  629MOL0     C82935   5.050  -0.031  10.633 -0.9051 -0.4658  0.6864
  629MOL0     C82936   5.026  -0.103  10.773  0.6792 -0.1920  0.0262
  629MOL0     C82937   4.888  -0.089  10.826  0.0743 -0.8650 -0.1565
  629MOL0     C82938   4.785  -0.174  10.755  0.6172  0.4545 -0.9437
  629MOL0     C82939   4.638  -0.130  10.770 -1.0969  0.1821  0.9511
  629MOL0    Cl82940   4.596  -0.133  10.944  0.6924 -0.5791 -0.0191
  629MOL0     C82941   5.642  -0.002  10.346  0.1529  0.0056  0.0747
  629MOL0     C82942   5.770  -0.031  10.314 -0.8397  0.4507 -1.1583
  629MOL0     O82943   6.043  -0.083  10.474  0.8286 -0.1408  0.1054
  629MOL0     C82944   6.287  -0.066  10.362 -0.1301  0.1668 -0.9969
  629MOL0     C82945   6.419  -0.083  10.323 -0.5762  0.6524  0.3789
  629MOL0     N82946   7.222  -0.136  10.210 -0.3439  0.4888  0.1342
  629MOL0     N82947   7.340  -0.107  10.257  0.9362  0.2384 -0.3028
  629MOL0     C82948   8.345   0.270  10.399  0.0571 -0.8226  0.5766
  629MOL0     C82949   8.425   0.357  10.326  0.2856 -0.1329 -0.4209
  629MOL0     C82950   8.645   0.619  10.051  0.1356  0.7446 -0.1776
  629MOL0     C82951   8.768   0.561  10.032 -1.2082 -0.0421 -0.8367
  629MOL0     C82952   8.865   0.643   9.982  0.0165 -0.1247  0.1382
  629MOL0     C82953   8.846   0.778   9.946 -0.2233  0.0153  0.6669
  629MOL0     O82954   8.955   0.846   9.887 -0.0204 -0.7894  0.3233
  629MOL0     C82955   8.933   0.981   9.846 -0.0371  0.2230  0.5628
  629MOL0     C82956   8.893   1.085   9.951 -0.7109 -0.1150  0.3022
  629MOL0     C82957   8.837   1.217   9.896  0.4395 -0.6425 -0.9903
  629MOL0     C82958   8.812   1.330   9.995  0.2653 -0.8339 -0.7226
  629MOL0     C82959   8.780   1.465   9.934  0.8997  0.3392  0.5250
  629MOL0     C82960   8.769   1.578   9.887  0.2699  0.0747  1.0998
  629MOL0     C82961   8.714   0.829   9.949 -0.4962  0.3102  0.3453
  629MOL0     C82962   8.614   0.748  10.006 -0.0635 -0.7015  0.4213
  629MOL0     H82963   8.472   0.172  10.051 -0.0923 -0.4325 -0.4149
  629MOL0     H82964   8.311   0.006  10.190  0.2188 -0.0405 -0.7700
  629MOL0     H82965   8.143   0.192  10.528  2.3993  0.8952  1.5186
  629MOL0     H82966   8.238   0.068  10.613  0.7033  0.9786 -1.2612
  629MOL0     H82967   8.000   0.050  10.680  0.3272  0.9763 -0.3325
  629MOL0     H82968   8.057  -0.100  10.609 -0.9153 -0.3986  1.9428
  629MOL0     H82969   7.963  -0.034  10.383 -1.9280  0.3344 -0.9690
  629MOL0     H82970   7.884   0.105  10.455  1.0347 -0.5287 -0.6371
  629MOL0     H82971   7.764  -0.110  10.424 -1.6625  0.9047  0.5120
  629MOL0     H82972   7.848  -0.162  10.579  2.0998 -1.0514 -1.2350
  629MOL0     H82973   7.675   0.094  10.569 -0.9517 -0.0674  0.3313
  629MOL0     H82974   7.771   0.022  10.705 -1.1829 -0.7081  1.4386
  629MOL0     H82975   7.528  -0.024  10.721  0.9300  0.3662 -0.1531
  629MOL0     H82976   7.630  -0.173  10.692  0.8566  1.0653  0.8306
  629MOL0     H82977   7.557  -0.190  10.470 -1.3346 -1.8753  0.4715
  629MOL0     H82978   7.429  -0.202  10.575  3.1487 -2.5042  0.1686
  629MOL0     H82979   7.491   0.043  10.402  0.0359 -0.1990 -0.1325
  629MOL0     H82980   7.380   0.040  10.551 -1.0665 -1.4799  1.4894
  629MOL0     H82981   7.160  -0.069  10.522 -1.7373 -1.0927 -0.4540
  629MOL0     H82982   6.918  -0.116  10.373 -0.1333 -3.5645  0.5721
  629MOL0     H82983   6.982  -0.251  10.277 -1.4447  0.1360 -4.0292
  629MOL0     H82984   7.002  -0.117  10.081 -1.7523 -4.1705 -0.6120
  629MOL0     H82985   6.936   0.020  10.169 -0.4192  0.2314  0.5133
  629MOL0     H82986   6.788  -0.130  10.017  0.0297 -0.4095  0.6153
  629MOL0     H82987   6.792  -0.265  10.134 -0.4357 -1.2263 -0.0619
  629MOL0     H82988   6.671   0.010  10.201 -0.6374  0.0152 -0.6086
  629MOL0     H82989   6.689  -0.134  10.313 -0.7247 -0.4832  0.2553
  629MOL0     H82990   6.363  -0.240  10.030  0.1995  0.5279 -0.2247
  629MOL0     H82991   6.125  -0.227  10.130  1.4872 -1.1986 -1.8351
  629MOL0     H82992   5.760  -0.368  10.339 -2.2888  0.1517 -2.7319
  629MOL0     H82993   5.520  -0.316  10.412  0.8088  0.0089 -1.0056
  629MOL0     H82994   5.398   0.117  10.370 -0.5613  2.3563  1.1921
  629MOL0     H82995   5.443   0.102  10.531  0.4169 -1.2731 -0.0464
  629MOL0     H82996   5.185  -0.006  10.408 -0.4462 -0.0462  0.8502
  629MOL0     H82997   5.189   0.147  10.497 -2.7135 -1.8800  2.8120
  629MOL0     H82998   5.236   0.011  10.705  0.5829  1.2995 -1.1501
  629MOL0     H82999   5.220  -0.137  10.591  2.5107  0.2657 -2.3831
  629MOL0     H83000   5.020   0.073  10.640 -0.6679 -0.2688 -0.9084
  629MOL0     H83001   4.998  -0.078  10.549 -0.9901 -2.2146  1.6605
  629MOL0     H83002   5.094  -0.068  10.852  2.8173  1.7866 -2.5373
  629MOL0     H83003   5.037  -0.209  10.750 -2.1186 -0.0933 -2.4211
  629MOL0     H83004   4.852   0.012  10.806 -1.4301 -1.5781 -1.3493
  629MOL0     H83005   4.878  -0.111  10.932 -0.5735 -1.9739 -0.4289
  629MOL0     H83006   4.813  -0.194  10.651 -0.3842 -2.8884 -0.7114
  629MOL0     H83007   4.793  -0.270  10.808 -0.1094  1.2656  0.7079
  629MOL0     H83008   4.594  -0.215  10.716  1.8752 -0.7410 -0.1803
  629MOL0     H83009   4.619  -0.031  10.726  1.7274  0.9821  1.3823
  629MOL0     H83010   5.606   0.096  10.319  1.8269  0.1891 -1.7410
  629MOL0     H83011   5.836   0.050  10.282 -0.5987  0.1168 -1.5126
  629MOL0     H83012   6.276  -0.035  10.466  2.5167 -0.0302 -0.5827
  629MOL0     H83013   6.500  -0.064  10.392  2.1412 -2.2127 -1.7552
  629MOL0     H83014   8.337   0.292  10.505  2.6008  2.1511  0.2863
  629MOL0     H83015   8.450   0.458  10.355 -2.6027  1.2080 -2.1257
  629MOL0     H83016   8.785   0.463  10.074 -0.5217  0.4632  0.1282
  629MOL0     H83017   8.968   0.614   9.969  0.6097  0.4495  2.9925
  629MOL0     H83018   8.852   0.994   9.775  0.8026 -0.9193 -0.6486
  629MOL0     H83019   9.020   1.017   9.790 -0.2534  1.2029  0.8360
  629MOL0     H83020   8.826   1.042  10.026  1.6485 -0.0074  2.6647
  629MOL0     H83021   8.983   1.096  10.013  0.2035  0.6463 -1.1149
  629MOL0     H83022   8.741   1.191   9.849  0.4113 -3.2707  0.3510
  629MOL0     H83023   8.896   1.255   9.812 -3.0928  1.1636 -2.9214
  629MOL0     H83024   8.733   1.299  10.065  0.7677 -1.7125 -0.5164
  629MOL0     H83025   8.907   1.338  10.050  0.0814 -2.1884 -0.1721
  629MOL0     H83026   8.770   1.672   9.837  1.3543 -0.8250 -0.6551
  629MOL0     H83027   8.697   0.927   9.906  2.0035  1.1274  1.0643
  629MOL0     H83028   8.516   0.795  10.010  0.7984  1.2439 -0.3257
  630MOL0     O83029   8.634   7.842   0.227  0.6260  0.3089  0.1558
  630MOL0     C83030   8.730   7.813   0.295 -0.1214 -0.9382 -0.1401
  630MOL0     O83031   8.726   7.804   0.435  0.2756  0.7872  0.2898
  630MOL0     C83032   8.602   7.814   0.491  0.4732 -0.4323  0.5408
  630MOL0     C83033   8.576   7.949   0.523  0.5501  0.2026 -0.6295
  630MOL0     C83034   8.448   7.978   0.583 -0.4342  0.3494 -0.6995
  630MOL0     C83035   8.346   7.878   0.606 -0.9433 -0.0784 -0.7287
  630MOL0     O83036   8.223   7.904   0.658  0.0629 -0.2097  0.7793
  630MOL0     C83037   8.210   7.965   0.790 -0.2093  0.3663  1.0447
  630MOL0     C83038   8.062   7.974   0.828  0.4858  0.0250  0.0074
  630MOL0     C83039   7.997   8.092   0.757  0.1356 -0.9120 -0.3680
  630MOL0     C83040   7.845   8.088   0.791  0.5213  0.3327  0.0762
  630MOL0     C83041   7.758   8.041   0.685  0.5750 -0.6723 -0.2755
  630MOL0     C83042   7.620   8.009   0.754 -0.6217 -0.1300  0.3891
  630MOL0     C83043   7.530   7.952   0.648  1.0599 -0.0855  0.1619
  630MOL0     C83044   7.455   8.065   0.578  0.3075 -0.4555 -0.3998
  630MOL0     N83045   7.356   8.126   0.670 -0.3960 -0.4675 -0.0943
  630MOL0     C83046   7.258   8.060   0.740 -0.2596 -0.0085  0.3403
  630MOL0     C83047   7.217   8.155   0.827 -0.7001  0.3314 -0.0538
  630MOL0     C83048   7.112   8.121   0.925 -0.0305  0.9505 -0.1014
  630MOL0     C83049   6.970   8.168   0.878 -0.1396  0.2463 -0.5841
  630MOL0     C83050   6.941   8.317   0.898  0.0550  0.1889  0.6559
  630MOL0     C83051   6.794   8.343   0.860 -0.7226  0.9480  0.5781
  630MOL0     O83052   6.711   8.278   0.952 -0.2293 -0.4346  0.0901
  630MOL0     C83053   6.582   8.308   0.970  0.8082 -0.8205 -0.7489
  630MOL0     C83054   6.513   8.245   1.073  0.2606  0.2926  0.4546
  630MOL0     C83055   6.374   8.264   1.083 -0.1272 -0.1755 -0.9276
  630MOL0     C83056   6.309   8.360   1.007  0.0373  0.1318 -0.3681
  630MOL0     C83057   6.167   8.385   1.021  0.3339  0.3954  0.0927
  630MOL0     O83058   6.081   8.279   1.051  0.3960  0.1613 -0.1215
  630MOL0     C83059   5.946   8.301   1.078 -0.2037 -0.0830 -0.5765
  630MOL0     C83060   5.854   8.353   0.985  0.0141  0.2517 -0.0697
  630MOL0     C83061   5.716   8.365   1.030 -1.1104 -0.6239 -0.6642
  630MOL0     C83062   5.673   8.320   1.156 -0.3988 -0.5148  0.0195
  630MOL0     O83063   5.541   8.325   1.210 -0.0244 -0.9395  0.4016
  630MOL0     C83064   5.450   8.411   1.138 -0.5408 -0.0744  0.5366
  630MOL0     C83065   5.308   8.397   1.182  0.6576 -1.4017  0.0876
  630MOL0     C83066   5.218   8.505   1.113  0.4402  0.8299 -0.1547
  630MOL0     C83067   5.080   8.506   1.182 -0.3924  0.1035  0.8000
  630MOL0     C83068   4.982   8.572   1.098  0.8845 -0.0393  0.7535
  630MOL0     C83069   4.886   8.481   1.023 -0.4956  0.0261  0.3087
  630MOL0     C83070   4.785   8.567   0.959 -0.2493 -0.9957  0.3047
  630MOL0     C83071   4.689   8.644   1.056  0.0526 -0.4002  0.1855
  630MOL0    Cl83072   4.733   8.819   1.068  0.3228 -0.3823  0.1440
  630MOL0     C83073   5.764   8.274   1.245 -0.4355  0.2094  0.2817
  630MOL0     C83074   5.901   8.268   1.210 -0.4520  0.0403  0.3604
  630MOL0     O83075   6.133   8.505   1.010  0.5311  0.3556 -0.3922
  630MOL0     C83076   6.392   8.434   0.919  0.0079  0.2259  0.2562
  630MOL0     C83077   6.521   8.403   0.892 -0.2133 -0.3229  0.2613
  630MOL0     N83078   7.284   8.277   0.808 -0.1325  0.2101  0.3312
  630MOL0     N83079   7.361   8.261   0.702  0.5260 -0.4923  0.2236
  630MOL0     C83080   8.385   7.746   0.574 -0.0481  0.4764  0.5372
  630MOL0     C83081   8.510   7.711   0.504  0.4570 -0.2286  0.0575
  630MOL0     C83082   8.862   7.788   0.230  1.1150  0.0869 -0.1206
  630MOL0     C83083   8.874   7.786   0.091 -0.3642 -0.4669 -0.1408
  630MOL0     C83084   9.006   7.787   0.040 -0.1979 -1.4310 -0.0136
  630MOL0     C83085   9.119   7.779   0.117 -0.0408  0.2196 -0.5724
  630MOL0     O83086   9.249   7.776   0.069 -0.7305 -0.3262  0.5113
  630MOL0     C83087   9.273   7.836  -0.068 -0.2333  0.8519 -0.1179
  630MOL0     C83088   9.428   7.849  -0.079  0.7382 -0.0713 -0.2612
  630MOL0     C83089   9.452   7.889  -0.228 -0.2847  0.0614  0.2196
  630MOL0     C83090   9.592   7.948  -0.246 -0.0497 -1.2944 -1.0405
  630MOL0     C83091   9.693   7.843  -0.235  0.1962  0.1982  0.0008
  630MOL0     C83092   9.761   7.747  -0.205 -0.8829  0.4899  0.3976
  630MOL0     C83093   9.101   7.764   0.257 -0.0833 -0.2430  0.2735
  630MOL0     C83094   8.978   7.769   0.312  0.2492 -1.1331 -0.5719
  630MOL0     H83095   8.646   8.029   0.500  0.7851  0.7013  1.6141
  630MOL0     H83096   8.416   8.075   0.619 -0.3384 -0.4577  1.8183
  630MOL0     H83097   8.249   8.067   0.784 -1.4344  0.7726 -1.4250
  630MOL0     H83098   8.263   7.910   0.869 -0.7115 -0.8688  0.5474
  630MOL0     H83099   8.069   7.982   0.937  3.5297 -3.5310  0.2576
  630MOL0     H83100   8.002   7.885   0.804 -0.7967  0.2746  2.0763
  630MOL0     H83101   8.011   8.102   0.649  1.6595 -1.5649 -0.2569
  630MOL0     H83102   8.040   8.176   0.812  1.2877  0.1666 -2.7831
  630MOL0     H83103   7.840   8.031   0.884 -0.8968  0.7370  0.2732
  630MOL0     H83104   7.819   8.193   0.806 -1.1432  0.3432 -2.2851
  630MOL0     H83105   7.794   7.948   0.641 -0.3480 -1.3305  0.3152
  630MOL0     H83106   7.742   8.111   0.603  0.0333 -1.0210 -0.4769
  630MOL0     H83107   7.594   8.105   0.798 -0.7869  2.1485 -4.1135
  630MOL0     H83108   7.637   7.935   0.833 -0.1838  0.0119  0.4299
  630MOL0     H83109   7.577   7.885   0.576 -1.7385 -1.2330 -0.7472
  630MOL0     H83110   7.451   7.886   0.684 -1.6201  2.0288 -1.4617
  630MOL0     H83111   7.404   8.032   0.487 -0.3884 -0.2916 -0.0734
  630MOL0     H83112   7.529   8.139   0.544 -0.8035 -0.1601 -2.3544
  630MOL0     H83113   7.228   7.956   0.748 -1.9764  0.4496  0.2534
  630MOL0     H83114   7.139   8.157   1.024 -0.0005  2.0083 -0.4823
  630MOL0     H83115   7.114   8.012   0.941 -0.6222  0.3895 -3.1874
  630MOL0     H83116   6.897   8.113   0.938 -1.7949  2.1256 -0.7626
  630MOL0     H83117   6.955   8.134   0.775 -2.8932  0.5401 -0.3475
  630MOL0     H83118   6.969   8.361   0.995  3.2773  0.7347 -0.3764
  630MOL0     H83119   6.994   8.369   0.817 -0.8869  0.5577  0.2641
  630MOL0     H83120   6.785   8.316   0.755  1.5533 -1.9390  1.0096
  630MOL0     H83121   6.781   8.451   0.876  1.5674  1.5838 -1.3473
  630MOL0     H83122   6.567   8.164   1.122  1.0839 -0.9156 -2.2649
  630MOL0     H83123   6.325   8.201   1.157 -1.5150 -0.0372 -1.6875
  630MOL0     H83124   5.889   8.386   0.888 -0.9510 -1.2915 -0.9938
  630MOL0     H83125   5.637   8.403   0.966  0.2113 -0.2520 -2.1286
  630MOL0     H83126   5.454   8.404   1.029  1.0676  0.8509  0.4917
  630MOL0     H83127   5.482   8.512   1.168 -1.2938  0.4341 -0.3512
  630MOL0     H83128   5.297   8.407   1.290 -3.4163 -1.9376 -0.1125
  630MOL0     H83129   5.267   8.301   1.149 -1.4250  0.3948 -3.1186
  630MOL0     H83130   5.205   8.478   1.008 -1.7050  0.6678  0.1064
  630MOL0     H83131   5.253   8.608   1.108 -0.7751  1.2196 -2.7212
  630MOL0     H83132   5.056   8.401   1.205 -0.7666 -0.0615 -0.2641
  630MOL0     H83133   5.095   8.554   1.278  1.5523 -0.1176  0.6445
  630MOL0     H83134   5.017   8.644   1.024 -1.5371 -0.6698 -1.1581
  630MOL0     H83135   4.917   8.618   1.173 -0.6790 -3.6067  1.8014
  630MOL0     H83136   4.834   8.407   1.084 -1.9342  0.4840 -0.3158
  630MOL0     H83137   4.944   8.417   0.955 -0.5896 -2.5767  2.5152
  630MOL0     H83138   4.832   8.645   0.898 -1.4933  0.3368  1.0063
  630MOL0     H83139   4.732   8.510   0.882  0.1781 -0.4742 -0.3938
  630MOL0     H83140   4.679   8.609   1.159 -0.3862 -3.2092 -0.7141
  630MOL0     H83141   4.588   8.642   1.013  0.0593 -1.4438  0.1852
  630MOL0     H83142   5.741   8.251   1.348 -1.8162  0.0954 -0.0364
  630MOL0     H83143   5.980   8.243   1.280  0.3315  1.2846 -0.0479
  630MOL0     H83144   6.356   8.523   0.870  0.8140  0.8384  0.7646
  630MOL0     H83145   6.573   8.458   0.814 -1.8977  0.5579 -0.2890
  630MOL0     H83146   8.308   7.671   0.590  1.5320 -1.0574  1.3553
  630MOL0     H83147   8.538   7.613   0.468  1.5114  0.0891 -0.0223
  630MOL0     H83148   8.789   7.790   0.025  1.1175 -1.0006 -2.1881
  630MOL0     H83149   9.008   7.786  -0.068  0.4040  1.4825 -0.1368
  630MOL0     H83150   9.236   7.938  -0.074  0.3528  1.2557  2.2201
  630MOL0     H83151   9.230   7.769  -0.143 -0.0940 -1.0210  1.3960
  630MOL0     H83152   9.462   7.934  -0.019 -0.3914  0.5512 -0.4765
  630MOL0     H83153   9.476   7.753  -0.056  0.9943 -0.1529 -1.1054
  630MOL0     H83154   9.378   7.963  -0.259 -1.2921 -0.1558  1.9540
  630MOL0     H83155   9.449   7.804  -0.297  0.6478  1.3399 -1.4381
  630MOL0     H83156   9.609   7.989  -0.346 -0.0563 -2.4010 -1.5164
  630MOL0     H83157   9.619   8.024  -0.172 -1.2736 -3.0150  1.3165
  630MOL0     H83158   9.829   7.674  -0.169 -1.7902  0.0294  1.2155
  630MOL0     H83159   9.188   7.751   0.319 -0.3804 -2.5241  0.3060
  630MOL0     H83160   8.971   7.790   0.418  1.6004  1.6274 -0.9191
  631MOL0     O83161  10.420   2.519  11.204 -0.0758  0.0349  0.2311
  631MOL0     C83162  10.442   2.421  11.273 -0.2753 -0.2702  0.4782
  631MOL0     O83163  10.353   2.354  11.348 -0.0873  1.0100 -0.6813
  631MOL0     C83164  10.213   2.370  11.329 -0.2070  0.0218  0.5617
  631MOL0     C83165  10.153   2.376  11.202 -1.1313 -0.7051 -0.8205
  631MOL0     C83166  10.018   2.393  11.192  0.0495 -0.1133 -0.4080
  631MOL0     C83167   9.929   2.398  11.305 -0.4083 -0.1023 -0.0538
  631MOL0     O83168   9.793   2.413  11.291 -0.4648  0.0377 -0.1615
  631MOL0     C83169   9.705   2.410  11.406 -0.6226  0.1176  0.5229
  631MOL0     C83170   9.710   2.277  11.469  0.6667  0.0256 -0.2633
  631MOL0     C83171   9.569   2.221  11.509  0.1907  0.9725  0.5008
  631MOL0     C83172   9.579   2.110  11.613 -0.1153 -0.0645 -0.3409
  631MOL0     C83173   9.459   2.119  11.712 -0.4369  0.8558  0.2991
  631MOL0     C83174   9.326   2.059  11.640 -0.1591 -0.6580  0.4392
  631MOL0     C83175   9.206   2.076  11.740  0.3857  0.0095  0.8249
  631MOL0     C83176   9.073   2.033  11.683  0.4981 -0.2470 -0.3986
  631MOL0     N83177   8.973   1.997  11.789  0.4647 -0.2721 -0.2041
  631MOL0     C83178   8.876   2.090  11.829 -0.6014 -0.2266 -0.1983
  631MOL0     C83179   8.818   2.025  11.924 -0.4822  0.0176 -0.3759
  631MOL0     C83180   8.708   2.091  12.008  0.0265 -0.5438 -0.4988
  631MOL0     C83181   8.560   2.069  11.971  0.1940  0.2977 -0.1031
  631MOL0     C83182   8.470   2.147  12.066  0.4129  1.1045 -0.3554
  631MOL0     C83183   8.325   2.144  12.021 -0.5121  0.0404 -0.2929
  631MOL0     O83184   8.246   2.239  12.087  0.0579 -0.5283 -0.2865
  631MOL0     C83185   8.112   2.242  12.050  0.1267  1.0362 -0.5466
  631MOL0     C83186   8.034   2.345  12.105 -0.5038  0.1902  0.7408
  631MOL0     C83187   7.898   2.355  12.080 -0.4645 -0.3059 -0.2154
  631MOL0     C83188   7.834   2.267  11.997 -0.3654 -1.0806  0.2071
  631MOL0     C83189   7.695   2.285  11.969  0.8215  0.1904  0.1677
  631MOL0     O83190   7.636   2.185  11.903  0.4090  0.2851  0.3760
  631MOL0     C83191   7.501   2.186  11.883 -0.2674  0.1887  0.2334
  631MOL0     C83192   7.406   2.245  11.967  0.9171  0.2685 -0.6730
  631MOL0     C83193   7.279   2.253  11.933  0.2759  0.0261  1.0499
  631MOL0     C83194   7.233   2.197  11.805 -0.3668  0.4590 -0.3464
  631MOL0     O83195   7.103   2.202  11.757 -0.2506 -0.8400 -0.5695
  631MOL0     C83196   7.010   2.266  11.843  0.4225 -0.1951 -0.2496
  631MOL0     C83197   6.871   2.270  11.769 -0.5782 -0.0875  0.4021
  631MOL0     C83198   6.876   2.342  11.625 -0.7356  0.3949 -0.2978
  631MOL0     C83199   6.739   2.297  11.568 -0.0217 -0.8837  0.3315
  631MOL0     C83200   6.625   2.402  11.585 -0.0153  0.4323  0.2465
  631MOL0     C83201   6.641   2.536  11.512 -0.9416  0.8757 -0.2108
  631MOL0     C83202   6.633   2.521  11.355 -0.0981 -0.2313 -0.0281
  631MOL0     C83203   6.627   2.659  11.293 -0.4174 -0.4031  0.6679
  631MOL0    Cl83204   6.470   2.749  11.325 -0.1020  0.0609 -0.3315
  631MOL0     C83205   7.320   2.139  11.718 -0.0611 -0.8780  0.0202
  631MOL0     C83206   7.455   2.127  11.759  0.6211 -0.0759  0.3479
  631MOL0     O83207   7.651   2.396  11.995 -1.0466  0.4003  0.1324
  631MOL0     C83208   7.913   2.166  11.937 -0.0223  0.1350 -0.0215
  631MOL0     C83209   8.046   2.161  11.962 -0.0509  0.7508 -0.2041
  631MOL0     N83210   8.856   1.884  11.926 -0.8016  0.6398 -0.5860
  631MOL0     N83211   8.950   1.871  11.843 -0.2189  0.2141 -0.5712
  631MOL0     C83212   9.997   2.391  11.434 -0.3289  0.2432  0.1461
  631MOL0     C83213  10.135   2.376  11.440  0.6690 -0.6181 -0.0088
  631MOL0     C83214  10.581   2.356  11.265  0.8975 -0.7287  0.2512
  631MOL0     C83215  10.689   2.428  11.214  0.1985  0.0954 -0.0688
  631MOL0     C83216  10.823   2.390  11.235  0.3372 -0.0841  0.4483
  631MOL0     C83217  10.852   2.263  11.294 -0.5665  0.9290 -0.7437
  631MOL0     O83218  10.977   2.218  11.323 -0.0938 -0.3461  0.4202
  631MOL0     C83219  11.083   2.303  11.280 -0.4022  0.4355 -0.3864
  631MOL0     C83220  11.222   2.238  11.317  1.2762 -0.0472  0.2724
  631MOL0     C83221  11.353   2.297  11.266 -0.7250 -0.1733  0.1519
  631MOL0     C83222  11.378   2.428  11.344  0.0010  0.0029 -0.3764
  631MOL0     C83223  11.515   2.488  11.334 -0.3228  0.3147  0.6276
  631MOL0     C83224  11.623   2.531  11.317  0.8280 -1.1181 -0.2821
  631MOL0     C83225  10.745   2.193  11.354  0.3136  0.4874  0.3547
  631MOL0     C83226  10.612   2.248  11.342  0.0695 -0.0727 -0.1712
  631MOL0     H83227  10.217   2.376  11.114  1.0311 -1.7126  0.6629
  631MOL0     H83228   9.974   2.407  11.094 -1.8217 -1.0178  0.2385
  631MOL0     H83229   9.609   2.442  11.366 -0.0389  5.1760  2.4065
  631MOL0     H83230   9.734   2.487  11.478 -0.6377 -1.2171  2.0246
  631MOL0     H83231   9.774   2.280  11.558 -1.7793 -1.2584  1.6807
  631MOL0     H83232   9.756   2.213  11.394  2.3524  0.8244  0.0578
  631MOL0     H83233   9.529   2.183  11.414 -0.3455  1.7931  0.3801
  631MOL0     H83234   9.499   2.298  11.542 -3.3429 -0.8279 -2.0561
  631MOL0     H83235   9.578   2.017  11.556  1.4302 -0.4960  0.2946
  631MOL0     H83236   9.670   2.137  11.667 -1.5106  1.5031  1.3366
  631MOL0     H83237   9.449   2.220  11.753  0.1315  1.8766 -1.9030
  631MOL0     H83238   9.483   2.044  11.787 -0.8280  0.1984 -0.2274
  631MOL0     H83239   9.337   1.958  11.601 -3.2364 -0.6334 -0.7842
  631MOL0     H83240   9.296   2.116  11.551 -1.5208  1.4262  2.1117
  631MOL0     H83241   9.218   2.023  11.835 -0.6423 -0.0766  0.9175
  631MOL0     H83242   9.206   2.183  11.763 -5.0250  0.4926  0.0684
  631MOL0     H83243   9.094   1.943  11.624  0.1121 -1.2061  0.8834
  631MOL0     H83244   9.030   2.105  11.612  2.1968  1.9056  0.6440
  631MOL0     H83245   8.862   2.192  11.795  0.0372  0.3931  1.2967
  631MOL0     H83246   8.719   2.199  12.000 -0.3432 -0.4829 -0.2281
  631MOL0     H83247   8.739   2.064  12.110 -0.5706 -0.9051 -0.4098
  631MOL0     H83248   8.533   1.963  11.970  2.1072 -0.3742  3.3089
  631MOL0     H83249   8.543   2.104  11.868 -2.1723 -0.0315  0.1144
  631MOL0     H83250   8.473   2.111  12.170  0.2212  5.9816  1.6140
  631MOL0     H83251   8.498   2.253  12.070  2.9608  0.4757  0.9142
  631MOL0     H83252   8.281   2.048  12.050  0.5329 -1.1368 -2.3758
  631MOL0     H83253   8.318   2.141  11.912 -0.6608 -2.5714 -0.2694
  631MOL0     H83254   8.095   2.404  12.173  1.8840  0.1142 -1.1935
  631MOL0     H83255   7.848   2.438  12.130 -0.2132 -1.2032  1.5978
  631MOL0     H83256   7.439   2.294  12.058  1.0089  0.8729 -1.0305
  631MOL0     H83257   7.213   2.297  12.007  0.3843  0.4118  0.9194
  631MOL0     H83258   7.036   2.364  11.883  0.1046 -0.9090  1.8508
  631MOL0     H83259   6.982   2.205  11.930 -1.1552  1.2337  0.3203
  631MOL0     H83260   6.799   2.325  11.831  1.0288  1.7508  0.7295
  631MOL0     H83261   6.835   2.167  11.761 -0.5743 -0.0141 -0.6329
  631MOL0     H83262   6.949   2.295  11.558 -1.2572  0.7932 -1.1656
  631MOL0     H83263   6.883   2.450  11.617 -3.5357  0.6233 -0.5623
  631MOL0     H83264   6.755   2.285  11.460  2.4612 -2.3139  0.7860
  631MOL0     H83265   6.704   2.199  11.601  1.6784 -0.8792  2.3149
  631MOL0     H83266   6.617   2.430  11.690 -1.5063  1.7688 -0.1832
  631MOL0     H83267   6.530   2.360  11.551  1.5349 -2.6521 -0.6456
  631MOL0     H83268   6.741   2.568  11.541  0.3418 -1.7019 -1.4708
  631MOL0     H83269   6.566   2.607  11.547 -1.1814 -0.0031  1.1649
  631MOL0     H83270   6.724   2.474  11.317 -1.5686 -1.5841 -2.1110
  631MOL0     H83271   6.539   2.473  11.327 -0.8377  0.7965  0.5872
  631MOL0     H83272   6.639   2.647  11.185  1.5527 -0.2853  0.8384
  631MOL0     H83273   6.713   2.715  11.331  0.6522 -1.8015  0.3719
  631MOL0     H83274   7.280   2.095  11.627  1.7606 -0.2273 -1.1308
  631MOL0     H83275   7.529   2.087  11.690  0.6159  0.7219 -0.1378
  631MOL0     H83276   7.871   2.088  11.874  0.4625  0.6951 -1.0566
  631MOL0     H83277   8.102   2.096  11.896  0.0951  1.5852 -0.9241
  631MOL0     H83278   9.935   2.400  11.522 -1.0588  0.5367 -0.3789
  631MOL0     H83279  10.178   2.382  11.540 -0.0049  3.3426  0.2390
  631MOL0     H83280  10.665   2.521  11.163 -0.7704 -0.7704 -1.2722
  631MOL0     H83281  10.900   2.461  11.204 -2.0067  1.6907 -1.6789
  631MOL0     H83282  11.077   2.397  11.336 -3.1655 -0.6599  1.3590
  631MOL0     H83283  11.073   2.315  11.171  1.1971 -0.3509 -0.6491
  631MOL0     H83284  11.230   2.232  11.426  0.6437  1.7493  0.4407
  631MOL0     H83285  11.214   2.138  11.273 -0.5910 -0.3034  1.1112
  631MOL0     H83286  11.348   2.307  11.157 -2.6241  0.4250  0.2648
  631MOL0     H83287  11.437   2.229  11.283 -0.6478 -0.3991 -1.0337
  631MOL0     H83288  11.302   2.493  11.298 -1.9937 -1.8023  0.2408
  631MOL0     H83289  11.363   2.423  11.452  1.7550 -0.6627 -0.1396
  631MOL0     H83290  11.719   2.575  11.297  0.1446  0.9657  0.7490
  631MOL0     H83291  10.758   2.104  11.414  0.8348  0.7046  0.5637
  631MOL0     H83292  10.535   2.189  11.390 -0.9443  3.0458  2.3233
  632MOL0     O83293   4.033   9.249   2.027  0.1733 -0.1276  0.2252
  632MOL0     C83294   4.070   9.347   2.092  0.5432  0.3219 -0.3866
  632MOL0     O83295   3.984   9.422   2.174 -0.7795 -0.6079  0.0876
  632MOL0     C83296   3.860   9.386   2.200 -0.5530  0.4384 -0.3105
  632MOL0     C83297   3.825   9.413   2.332 -0.1185 -0.6324  0.0876
  632MOL0     C83298   3.699   9.392   2.376  0.0139  0.3569 -1.0951
  632MOL0     C83299   3.605   9.322   2.293 -1.4202  0.2029 -0.9758
  632MOL0     O83300   3.470   9.299   2.317 -0.0710 -0.2847 -0.4220
  632MOL0     C83301   3.395   9.389   2.396 -0.0212 -0.1559 -0.1538
  632MOL0     C83302   3.251   9.347   2.418  0.7708  0.9123 -0.2027
  632MOL0     C83303   3.245   9.214   2.496  0.3747  0.1235  0.7434
  632MOL0     C83304   3.094   9.170   2.499 -0.0873 -0.2311  0.3357
  632MOL0     C83305   3.085   9.037   2.572 -0.3551  0.0806 -0.6869
  632MOL0     C83306   2.944   8.997   2.627 -1.1238  0.3228  0.5884
  632MOL0     C83307   2.844   8.983   2.510 -0.2425  0.8548  1.1155
  632MOL0     C83308   2.704   8.996   2.568 -0.1133  0.0483 -0.0921
  632MOL0     N83309   2.651   9.137   2.591 -0.2481  0.2067 -0.0534
  632MOL0     C83310   2.533   9.190   2.538  0.2004  0.6917  0.2913
  632MOL0     C83311   2.532   9.318   2.583 -0.3746 -0.5869  0.2099
  632MOL0     C83312   2.434   9.433   2.563  0.1260 -0.0198  0.0933
  632MOL0     C83313   2.347   9.479   2.687 -0.6672  0.1947  0.2210
  632MOL0     C83314   2.224   9.387   2.710  0.0713 -0.2076  0.1125
  632MOL0     C83315   2.135   9.433   2.826  0.2589 -0.4428 -0.0703
  632MOL0     O83316   2.086   9.565   2.794 -0.2435  0.2313  0.1886
  632MOL0     C83317   1.949   9.567   2.761 -0.0450  0.1579 -0.5141
  632MOL0     C83318   1.876   9.456   2.715 -0.7387  0.1574  0.1085
  632MOL0     C83319   1.743   9.458   2.703  0.8440 -0.0413  0.4049
  632MOL0     C83320   1.668   9.569   2.727  0.6255 -0.0165  0.3155
  632MOL0     C83321   1.524   9.566   2.717 -0.0381 -0.9766 -0.5461
  632MOL0     O83322   1.464   9.487   2.618  0.3382 -0.0140  0.2998
  632MOL0     C83323   1.327   9.483   2.629  0.5958 -0.1102  0.0805
  632MOL0     C83324   1.271   9.386   2.710 -0.2688 -0.2820  0.0119
  632MOL0     C83325   1.133   9.367   2.721  0.4964  1.0518  0.3426
  632MOL0     C83326   1.047   9.436   2.644  0.0734  0.5190  0.4468
  632MOL0     O83327   0.918   9.386   2.646 -0.2064  0.5118  0.0159
  632MOL0     C83328   0.813   9.472   2.595 -0.1819  0.3008  0.8823
  632MOL0     C83329   0.683   9.448   2.666 -0.3171 -0.1872  0.2040
  632MOL0     C83330   0.602   9.317   2.609 -0.1428  0.5448 -0.2388
  632MOL0     C83331   0.473   9.316   2.681  0.0236 -0.1298  0.4462
  632MOL0     C83332   0.377   9.230   2.602 -0.4790  0.6055 -0.1394
  632MOL0     C83333   0.241   9.230   2.670  1.3440  1.2693 -0.6331
  632MOL0     C83334   0.150   9.139   2.594  0.2687 -0.0776 -0.8340
  632MOL0     C83335   0.016   9.171   2.637  0.1171  0.6809  0.0471
  632MOL0    Cl83336  -0.094   9.064   2.555  0.0529  0.3259  0.0792
  632MOL0     C83337   1.099   9.534   2.557 -0.1678 -0.3697  0.2861
  632MOL0     C83338   1.239   9.548   2.548  0.0706 -0.6760  0.1586
  632MOL0     O83339   1.471   9.643   2.797  0.4446 -0.3341 -0.3689
  632MOL0     C83340   1.738   9.679   2.754  0.0629 -0.7425  0.1073
  632MOL0     C83341   1.881   9.682   2.769  0.0117 -0.1178  0.1751
  632MOL0     N83342   2.649   9.345   2.644 -0.7084 -0.6684 -0.3391
  632MOL0     N83343   2.713   9.235   2.651  0.3148 -0.2546 -0.6764
  632MOL0     C83344   3.645   9.285   2.168 -0.5467  0.6499 -0.3988
  632MOL0     C83345   3.770   9.319   2.117  0.3930 -0.0214 -0.5322
  632MOL0     C83346   4.205   9.392   2.080 -0.0050  0.1819 -1.1911
  632MOL0     C83347   4.247   9.517   2.131 -0.2905  0.1003 -0.2986
  632MOL0     C83348   4.386   9.551   2.117  0.2425 -0.1024 -0.7787
  632MOL0     C83349   4.476   9.468   2.044  1.2115 -0.7459 -0.1172
  632MOL0     O83350   4.606   9.491   2.032 -0.3739  0.0480  0.9615
  632MOL0     C83351   4.641   9.627   2.005 -1.2501 -1.0723  0.0140
  632MOL0     C83352   4.780   9.631   1.944  0.6723 -0.1650  0.6854
  632MOL0     C83353   4.806   9.537   1.829 -0.1827 -1.0898  0.2031
  632MOL0     C83354   4.849   9.404   1.883 -0.0412 -0.3848 -0.2564
  632MOL0     C83355   4.877   9.319   1.765 -0.0255  0.5820 -0.2953
  632MOL0     C83356   4.880   9.250   1.665  0.2254  0.1135 -0.6292
  632MOL0     C83357   4.426   9.357   1.983 -0.0237  0.1808  0.9450
  632MOL0     C83358   4.296   9.316   2.014  0.1611  0.0401 -0.2569
  632MOL0     H83359   3.896   9.459   2.400  2.8287 -0.6695 -2.7273
  632MOL0     H83360   3.668   9.425   2.474 -4.0346 -2.4253 -1.1869
  632MOL0     H83361   3.402   9.492   2.359  1.7838  0.7194  2.3491
  632MOL0     H83362   3.435   9.388   2.498 -1.6677 -1.5944  0.5199
  632MOL0     H83363   3.194   9.335   2.325  0.1642  2.1338 -0.0105
  632MOL0     H83364   3.197   9.416   2.484  1.2549  1.2550 -0.1629
  632MOL0     H83365   3.279   9.229   2.599  0.2092 -3.0994  1.3584
  632MOL0     H83366   3.307   9.136   2.451  0.5337 -0.0397  1.2375
  632MOL0     H83367   3.045   9.250   2.555  2.1521  3.6227 -2.7080
  632MOL0     H83368   3.059   9.165   2.396 -2.1629  1.7602  0.8711
  632MOL0     H83369   3.152   9.039   2.659 -2.8223  0.9973  1.3220
  632MOL0     H83370   3.121   8.967   2.496 -0.0513  1.7555 -2.1418
  632MOL0     H83371   2.904   9.075   2.692 -1.8110 -0.4887  1.1680
  632MOL0     H83372   2.949   8.907   2.690 -1.3216 -0.9312 -1.1105
  632MOL0     H83373   2.864   9.058   2.432  0.9571  0.5437  1.1090
  632MOL0     H83374   2.862   8.887   2.461 -0.7611  2.2434 -2.1280
  632MOL0     H83375   2.693   8.944   2.663 -2.8138  0.9466  0.1765
  632MOL0     H83376   2.631   8.955   2.497  0.7654 -0.8403 -0.4927
  632MOL0     H83377   2.457   9.134   2.486 -0.4512 -0.1102  2.0413
  632MOL0     H83378   2.365   9.398   2.487  1.0154  1.3563 -1.4025
  632MOL0     H83379   2.484   9.526   2.534  2.1872 -0.8934  0.6535
  632MOL0     H83380   2.319   9.583   2.670 -1.3605 -0.2001 -1.2462
  632MOL0     H83381   2.413   9.474   2.773 -0.5693 -0.4553  0.1172
  632MOL0     H83382   2.160   9.389   2.621 -1.0289 -1.3022  0.8540
  632MOL0     H83383   2.260   9.284   2.723 -2.3134 -1.6474 -3.1882
  632MOL0     H83384   2.192   9.442   2.919 -1.3676  0.5271  0.8874
  632MOL0     H83385   2.067   9.350   2.847 -5.2369  3.2313 -1.2000
  632MOL0     H83386   1.923   9.363   2.685 -0.2054  1.2453 -2.7478
  632MOL0     H83387   1.681   9.376   2.669 -0.3616  0.7893  0.5341
  632MOL0     H83388   1.322   9.325   2.784 -0.0501 -1.6784 -1.2380
  632MOL0     H83389   1.102   9.285   2.785 -2.1557  0.5322 -1.4609
  632MOL0     H83390   0.810   9.451   2.487  0.3193  0.3296  0.8587
  632MOL0     H83391   0.846   9.574   2.613  1.3031 -0.3449  2.0186
  632MOL0     H83392   0.612   9.529   2.646 -0.3391 -0.7141 -2.1290
  632MOL0     H83393   0.703   9.426   2.771 -0.2372 -3.5776 -0.4057
  632MOL0     H83394   0.666   9.231   2.632  1.2386  1.6193  0.0527
  632MOL0     H83395   0.594   9.334   2.502  2.5024  0.6425 -0.5013
  632MOL0     H83396   0.480   9.273   2.781  0.0730  1.0304  0.9567
  632MOL0     H83397   0.437   9.418   2.698  3.8226  1.4316  0.0647
  632MOL0     H83398   0.409   9.125   2.606 -1.9153  0.1077 -0.8954
  632MOL0     H83399   0.393   9.252   2.496 -0.4194 -0.6173 -0.3997
  632MOL0     H83400   0.200   9.330   2.685 -2.3442 -0.4703  2.7549
  632MOL0     H83401   0.260   9.193   2.771 -0.7044  0.1120 -0.6255
  632MOL0     H83402   0.162   9.153   2.487  3.2522 -1.4024 -0.7671
  632MOL0     H83403   0.177   9.033   2.605  2.7657  0.6818  1.5283
  632MOL0     H83404  -0.003   9.276   2.612  0.5214  0.0417 -3.3897
  632MOL0     H83405   0.010   9.169   2.747  0.4985  2.2927  0.1261
  632MOL0     H83406   1.042   9.586   2.481  1.3907  3.4929  1.4710
  632MOL0     H83407   1.285   9.607   2.469 -1.9465  0.7014 -0.0572
  632MOL0     H83408   1.683   9.771   2.767  0.5458 -0.5149  0.5875
  632MOL0     H83409   1.941   9.770   2.788 -1.1950  0.8031 -0.1592
  632MOL0     H83410   3.580   9.231   2.099  0.3615  1.1340 -1.6633
  632MOL0     H83411   3.780   9.287   2.014 -4.0874 -0.3938 -1.0737
  632MOL0     H83412   4.184   9.581   2.192 -0.3769  1.7314 -2.0142
  632MOL0     H83413   4.412   9.641   2.170 -0.2393 -1.0893  1.2052
  632MOL0     H83414   4.649   9.688   2.096  6.2590  0.5209 -1.0772
  632MOL0     H83415   4.576   9.672   1.929  0.6578  1.3499 -0.2908
  632MOL0     H83416   4.774   9.732   1.900  2.0919 -1.5025 -2.9920
  632MOL0     H83417   4.867   9.635   2.010  2.8088 -2.0206 -1.7890
  632MOL0     H83418   4.890   9.579   1.773 -2.1653  3.0823 -0.0343
  632MOL0     H83419   4.720   9.531   1.762  0.9189  1.2799 -1.5760
  632MOL0     H83420   4.935   9.404   1.951  0.4922  0.8486 -0.9047
  632MOL0     H83421   4.773   9.355   1.944  0.0103 -1.6404 -1.1505
  632MOL0     H83422   4.879   9.198   1.571  1.1545 -1.2381  0.0810
  632MOL0     H83423   4.490   9.298   1.919 -0.9453 -1.2924  1.3308
  632MOL0     H83424   4.278   9.215   1.979  2.1897 -0.3617 -0.2566
  633MOL0     O83425   7.208   6.038   4.752 -0.5823 -0.3783  0.5407
  633MOL0     C83426   7.221   6.030   4.626  0.3670  0.7452 -0.4428
  633MOL0     O83427   7.138   5.964   4.540  0.6457 -0.1063  0.5455
  633MOL0     C83428   7.010   5.930   4.580  0.2231 -0.3922 -0.6237
  633MOL0     C83429   6.923   6.028   4.635 -0.0001  1.1973 -0.2893
  633MOL0     C83430   6.799   5.986   4.681 -0.5406  0.1914 -0.3446
  633MOL0     C83431   6.772   5.843   4.696 -0.1400 -0.1146  0.0133
  633MOL0     O83432   6.662   5.789   4.756  0.1757 -0.0431 -0.7356
  633MOL0     C83433   6.567   5.871   4.835  0.4927 -0.4855  0.6772
  633MOL0     C83434   6.427   5.878   4.770 -0.1323 -0.2047 -0.0042
  633MOL0     C83435   6.327   5.966   4.846 -0.0204 -0.4533 -0.1242
  633MOL0     C83436   6.193   5.977   4.764 -0.0567 -0.0742 -0.7608
  633MOL0     C83437   6.083   5.900   4.834 -0.9982  0.1527 -0.1198
  633MOL0     C83438   5.948   5.934   4.763 -0.8222 -0.6963 -0.6287
  633MOL0     C83439   5.828   5.857   4.824 -0.3461 -0.0247 -0.7005
  633MOL0     C83440   5.694   5.881   4.753  0.1544  0.0214 -0.1376
  633MOL0     N83441   5.593   5.788   4.808 -0.9035 -0.7102  0.3346
  633MOL0     C83442   5.599   5.688   4.903 -0.4541  0.2134  0.1581
  633MOL0     C83443   5.474   5.651   4.917  0.1274 -1.0098  0.6065
  633MOL0     C83444   5.427   5.533   4.988 -0.4095 -0.3473  0.2145
  633MOL0     C83445   5.275   5.522   4.981  0.5688  0.4493  0.2077
  633MOL0     C83446   5.227   5.405   5.072  0.5311  0.4292  0.0130
  633MOL0     C83447   5.095   5.354   5.035  0.1729 -0.7609  0.5837
  633MOL0     O83448   4.994   5.452   5.068  0.1829 -0.6274 -0.1879
  633MOL0     C83449   4.867   5.424   5.021  0.4184 -0.7579  0.0268
  633MOL0     C83450   4.828   5.310   4.943  0.4618  0.6724 -0.0603
  633MOL0     C83451   4.691   5.285   4.918 -0.7959  0.2844 -0.6375
  633MOL0     C83452   4.600   5.367   4.981  0.8469 -0.2212  0.6747
  633MOL0     C83453   4.448   5.333   4.975 -0.6795  1.0110 -0.0041
  633MOL0     O83454   4.410   5.223   4.895 -0.2533 -0.6572 -0.4870
  633MOL0     C83455   4.275   5.193   4.889  1.2887  0.0565  0.0509
  633MOL0     C83456   4.214   5.191   4.757 -0.7432 -0.0118 -0.2207
  633MOL0     C83457   4.072   5.178   4.751  0.4548 -0.0477  0.2760
  633MOL0     C83458   4.001   5.147   4.869 -0.0587 -0.3065 -0.5408
  633MOL0     O83459   3.871   5.102   4.870 -0.3058  0.3644  0.1622
  633MOL0     C83460   3.804   5.093   4.739 -0.3596  0.1606  1.1054
  633MOL0     C83461   3.675   5.011   4.750  0.6760  0.9399  0.0282
  633MOL0     C83462   3.572   5.036   4.632  0.3108  0.1439 -0.3726
  633MOL0     C83463   3.447   4.945   4.670 -0.2792 -0.7377 -0.2084
  633MOL0     C83464   3.326   4.988   4.585  0.0366  0.1524  0.3704
  633MOL0     C83465   3.268   5.123   4.625  0.5586 -0.8208  0.1888
  633MOL0     C83466   3.123   5.146   4.576 -0.0127  1.0110  0.5959
  633MOL0     C83467   3.110   5.163   4.421 -0.0402  0.8053  0.4814
  633MOL0    Cl83468   3.194   5.306   4.356  0.4199 -0.0737  0.3405
  633MOL0     C83469   4.061   5.150   4.995  0.3111  0.4079 -0.1941
  633MOL0     C83470   4.197   5.183   5.004  0.6332 -0.2138  0.3026
  633MOL0     O83471   4.382   5.410   5.041  0.4029 -0.2559 -0.3449
  633MOL0     C83472   4.637   5.483   5.048 -0.0031  0.0699 -0.1317
  633MOL0     C83473   4.769   5.511   5.069  0.1917 -0.6641  0.0943
  633MOL0     N83474   5.390   5.729   4.842  0.2466  0.3188 -0.3828
  633MOL0     N83475   5.463   5.808   4.772 -0.4336  0.2636  0.7002
  633MOL0     C83476   6.868   5.757   4.647 -0.0979  0.6689 -0.4915
  633MOL0     C83477   6.986   5.802   4.594  0.2402  0.4073  0.1118
  633MOL0     C83478   7.347   6.077   4.571  0.0618  0.8406  0.2334
  633MOL0     C83479   7.441   6.132   4.656 -0.3192  0.0105 -0.0170
  633MOL0     C83480   7.559   6.188   4.603 -0.3187 -0.8712  0.1388
  633MOL0     C83481   7.579   6.186   4.460  0.0244 -0.5141  0.7377
  633MOL0     O83482   7.696   6.230   4.407 -0.5770  0.3628  0.0051
  633MOL0     C83483   7.811   6.279   4.485  0.8280  0.4692 -0.6956
  633MOL0     C83484   7.935   6.283   4.396 -1.0414 -0.1786 -0.6547
  633MOL0     C83485   7.968   6.420   4.327  0.8219  0.5524 -0.3912
  633MOL0     C83486   8.106   6.405   4.267  0.6432  0.1462 -0.1035
  633MOL0     C83487   8.158   6.529   4.203 -0.1662  0.3006 -0.1932
  633MOL0     C83488   8.178   6.634   4.151 -0.0748 -0.6121  0.2754
  633MOL0     C83489   7.487   6.126   4.375  1.1033  0.1614 -0.3080
  633MOL0     C83490   7.373   6.071   4.435  0.7348  0.0702  0.4312
  633MOL0     H83491   6.968   6.127   4.630  2.0806  0.4407  2.0450
  633MOL0     H83492   6.719   6.053   4.711  1.2466  0.8360  3.4881
  633MOL0     H83493   6.592   5.977   4.840  0.0848 -0.3488 -0.0664
  633MOL0     H83494   6.542   5.833   4.935  0.4905  1.7551  1.5770
  633MOL0     H83495   6.387   5.776   4.772 -0.9261  0.0274 -1.9341
  633MOL0     H83496   6.429   5.914   4.667 -0.3693 -0.5884 -0.1473
  633MOL0     H83497   6.376   6.064   4.839  0.4924 -0.7803 -1.4953
  633MOL0     H83498   6.306   5.943   4.951 -1.6353  0.4690 -0.2153
  633MOL0     H83499   6.161   6.081   4.750  0.7644  0.2615 -0.1563
  633MOL0     H83500   6.194   5.938   4.662 -2.2622 -0.1089 -0.8348
  633MOL0     H83501   6.071   5.912   4.942 -2.1245 -0.6261 -0.1384
  633MOL0     H83502   6.104   5.794   4.817  0.1510  0.1258  1.3169
  633MOL0     H83503   5.970   5.910   4.659  0.1109  0.3220 -0.6833
  633MOL0     H83504   5.933   6.042   4.777  1.2852 -0.7476  3.3055
  633MOL0     H83505   5.853   5.751   4.818  0.2776 -0.3159  3.7202
  633MOL0     H83506   5.819   5.879   4.931  3.4072 -2.6731  0.3591
  633MOL0     H83507   5.702   5.867   4.645  0.3577  2.2992 -0.4647
  633MOL0     H83508   5.665   5.984   4.775 -1.8316 -0.3995 -0.5360
  633MOL0     H83509   5.693   5.643   4.935 -0.8022  0.6559  1.9411
  633MOL0     H83510   5.439   5.536   5.096 -1.6918  1.0975  0.3643
  633MOL0     H83511   5.491   5.454   4.948  3.4689  2.1152  1.0113
  633MOL0     H83512   5.255   5.499   4.876 -0.6442 -0.0715  0.5328
  633MOL0     H83513   5.222   5.613   5.009  1.6655  0.3140  3.0499
  633MOL0     H83514   5.299   5.322   5.078 -0.1979 -0.4841 -2.6380
  633MOL0     H83515   5.220   5.447   5.173  1.2217  1.2536 -0.2745
  633MOL0     H83516   5.068   5.255   5.075  0.2987 -1.3614 -0.7731
  633MOL0     H83517   5.084   5.334   4.928 -2.0373 -0.9359  0.7792
  633MOL0     H83518   4.899   5.236   4.908  0.0342  1.1429 -2.0510
  633MOL0     H83519   4.677   5.205   4.847  0.1296 -0.8396  0.4111
  633MOL0     H83520   4.272   5.213   4.668 -1.2127  1.7918 -0.1309
  633MOL0     H83521   4.015   5.186   4.660  0.6278  2.1236  0.3066
  633MOL0     H83522   3.864   5.041   4.664  1.4448  2.0610  1.1437
  633MOL0     H83523   3.781   5.193   4.703  2.2641  0.5834  0.4051
  633MOL0     H83524   3.619   5.044   4.838  1.8126 -0.5711  1.3507
  633MOL0     H83525   3.692   4.904   4.757  0.5182  0.6626 -2.6544
  633MOL0     H83526   3.617   4.996   4.540  3.1948 -1.4338  1.5730
  633MOL0     H83527   3.542   5.141   4.620 -0.0315  0.1225  0.2773
  633MOL0     H83528   3.476   4.841   4.651  1.2202 -0.5522  0.8503
  633MOL0     H83529   3.427   4.962   4.777  1.3276  2.1377 -0.2422
  633MOL0     H83530   3.247   4.920   4.618 -0.4809  0.5081 -0.1163
  633MOL0     H83531   3.340   4.987   4.476 -1.9099  1.1269  0.0719
  633MOL0     H83532   3.340   5.204   4.606 -0.8079  0.2324 -0.6460
  633MOL0     H83533   3.259   5.118   4.734  0.5210  1.1329  0.3197
  633MOL0     H83534   3.066   5.056   4.602  0.1693  0.3606 -1.1216
  633MOL0     H83535   3.081   5.239   4.616  1.2282  1.4193  0.9693
  633MOL0     H83536   3.005   5.160   4.388  0.7365 -1.6070 -2.2449
  633MOL0     H83537   3.151   5.076   4.369 -1.4031  1.2893 -1.5669
  633MOL0     H83538   4.010   5.137   5.090 -0.4807 -1.2617 -0.7999
  633MOL0     H83539   4.235   5.209   5.102 -0.5821 -0.8132  0.9587
  633MOL0     H83540   4.571   5.563   5.080 -1.0814 -0.8824  0.0908
  633MOL0     H83541   4.789   5.608   5.114 -0.0885  1.9096 -4.7118
  633MOL0     H83542   6.861   5.657   4.688 -0.9621  1.7091  2.1590
  633MOL0     H83543   7.068   5.734   4.571 -2.0055 -1.6748 -2.4836
  633MOL0     H83544   7.420   6.122   4.762 -1.0077 -2.1038 -0.3030
  633MOL0     H83545   7.629   6.237   4.669 -1.1242 -0.6219  0.8241
  633MOL0     H83546   7.819   6.220   4.576  1.1340  1.8368  0.1876
  633MOL0     H83547   7.791   6.378   4.526 -1.9869 -0.1306 -0.3619
  633MOL0     H83548   8.019   6.236   4.448  0.8537  1.3085 -2.2149
  633MOL0     H83549   7.920   6.208   4.318 -2.9890 -1.9227  1.2716
  633MOL0     H83550   7.953   6.497   4.403 -1.8202 -0.5102  0.2691
  633MOL0     H83551   7.892   6.432   4.249  0.3847  0.3708  0.0032
  633MOL0     H83552   8.168   6.369   4.350 -1.0683 -2.9243  0.0055
  633MOL0     H83553   8.109   6.320   4.198 -0.9676  1.0094 -1.3030
  633MOL0     H83554   8.191   6.721   4.089 -2.3476 -0.4700 -0.0789
  633MOL0     H83555   7.524   6.110   4.274  1.3555  0.2026 -0.2220
  633MOL0     H83556   7.311   6.015   4.366  0.3014  0.8358  0.1757
  634MOL0     O83557   6.623   9.569  10.157  0.3808 -0.1923 -0.4678
  634MOL0     C83558   6.661   9.511  10.255  0.0377  0.0483 -0.1532
  634MOL0     O83559   6.597   9.495  10.372 -0.0178  0.3355 -0.5553
  634MOL0     C83560   6.465   9.538  10.400  0.2234  0.9088 -0.5880
  634MOL0     C83561   6.368   9.578  10.309  0.0277 -0.5367 -0.2840
  634MOL0     C83562   6.234   9.596  10.359 -1.1410 -1.5630  0.1836
  634MOL0     C83563   6.213   9.591  10.499  1.1707 -0.2669  0.2478
  634MOL0     O83564   6.083   9.619  10.540  0.4270 -0.0488  0.0666
  634MOL0     C83565   6.050   9.682  10.671 -0.7736 -1.0498  0.4057
  634MOL0     C83566   5.913   9.762  10.682  0.2797 -0.0691 -0.2530
  634MOL0     C83567   5.903   9.881  10.600  0.7096  0.9427 -0.0531
  634MOL0     C83568   5.759   9.929  10.573  0.0744  0.4236  0.3635
  634MOL0     C83569   5.745  10.079  10.536 -0.4018 -0.2076  0.0253
  634MOL0     C83570   5.839  10.115  10.416 -0.1516 -0.5247 -0.7410
  634MOL0     C83571   5.803  10.266  10.385  0.0816  0.1499 -0.9478
  634MOL0     C83572   5.848  10.308  10.246  0.2528 -0.8307  0.3182
  634MOL0     N83573   5.952  10.407  10.235 -0.3692  0.2356 -0.0813
  634MOL0     C83574   6.062  10.423  10.311 -0.2316 -0.9513 -0.6679
  634MOL0     C83575   6.117  10.550  10.277  0.7572  0.2719  0.0429
  634MOL0     C83576   6.230  10.618  10.323 -0.4153  0.1914  0.1961
  634MOL0     C83577   6.189  10.762  10.349 -0.5416 -0.6987 -0.9923
  634MOL0     C83578   6.276  10.814  10.467 -0.1732 -0.4996 -0.8828
  634MOL0     C83579   6.431  10.782  10.448  0.1753 -0.1451  0.1391
  634MOL0     O83580   6.499  10.790  10.576  0.2961 -0.7509 -0.3945
  634MOL0     C83581   6.632  10.776  10.578 -0.2763 -0.1328  0.9068
  634MOL0     C83582   6.723  10.793  10.472  0.3979  0.1330 -0.3799
  634MOL0     C83583   6.857  10.788  10.493  0.3826 -1.2041  0.2367
  634MOL0     C83584   6.910  10.760  10.615  0.8095  0.8234 -0.5960
  634MOL0     C83585   7.053  10.745  10.639 -0.2718  0.4667 -0.4129
  634MOL0     O83586   7.147  10.789  10.552 -0.0534 -0.5084  0.6312
  634MOL0     C83587   7.282  10.767  10.560  0.5308 -0.2209 -0.1852
  634MOL0     C83588   7.348  10.796  10.442 -0.6102 -0.0069  0.4812
  634MOL0     C83589   7.491  10.797  10.440 -0.4568 -0.6633 -0.3789
  634MOL0     C83590   7.561  10.760  10.556  0.4248 -0.3125  0.1585
  634MOL0     O83591   7.695  10.748  10.537 -0.6847  0.1457 -0.6898
  634MOL0     C83592   7.781  10.744  10.651 -0.9997  0.1026 -0.9067
  634MOL0     C83593   7.927  10.731  10.611  0.9886  0.2353  0.1747
  634MOL0     C83594   7.969  10.805  10.482  0.3398 -0.9575 -0.3389
  634MOL0     C83595   8.112  10.780  10.449  0.1776 -0.2448 -0.1398
  634MOL0     C83596   8.175  10.913  10.382  0.6288  0.4682 -0.3140
  634MOL0     C83597   8.303  10.881  10.295  0.3581 -0.0991 -0.6385
  634MOL0     C83598   8.428  10.838  10.376 -0.4864 -1.2001  0.1994
  634MOL0     C83599   8.493  10.952  10.463 -0.0962 -0.6978  1.2034
  634MOL0    Cl83600   8.579  11.067  10.348 -0.3263  0.0736  0.3614
  634MOL0     C83601   7.495  10.724  10.677 -0.0044  0.2854  0.0301
  634MOL0     C83602   7.359  10.727  10.673 -0.1384  0.8007 -0.1216
  634MOL0     O83603   7.076  10.683  10.742 -0.1949  0.2608  0.6526
  634MOL0     C83604   6.819  10.731  10.719 -0.7593 -0.6052  0.2178
  634MOL0     C83605   6.683  10.736  10.706 -0.2051 -0.0801  0.2800
  634MOL0     N83606   6.041  10.592  10.168  0.3567  0.7217  0.2880
  634MOL0     N83607   5.945  10.511  10.152  0.2140 -0.2602  0.3628
  634MOL0     C83608   6.310   9.558  10.587  0.0807  0.5033  0.0196
  634MOL0     C83609   6.435   9.529  10.539 -0.6745 -0.4250  0.6038
  634MOL0     C83610   6.794   9.462  10.241 -0.4271  1.3432  0.4947
  634MOL0     C83611   6.874   9.464  10.124 -0.2734  0.4227 -0.1250
  634MOL0     C83612   6.996   9.405  10.118  0.3591 -0.8498 -0.1656
  634MOL0     C83613   7.054   9.336  10.217 -0.4533 -0.2508  0.1192
  634MOL0     O83614   7.177   9.271  10.224 -1.0694  0.0928  0.2496
  634MOL0     C83615   7.231   9.241  10.094 -0.3090 -0.1585  0.0886
  634MOL0     C83616   7.338   9.338  10.072  0.5930  0.4329 -0.5792
  634MOL0     C83617   7.384   9.328   9.928 -0.6625 -0.5136 -0.0699
  634MOL0     C83618   7.484   9.445   9.906 -0.4119  0.8032  0.0788
  634MOL0     C83619   7.613   9.400   9.949 -0.2822  0.1262  0.5663
  634MOL0     C83620   7.727   9.380   9.973 -0.3892 -0.1459 -0.9627
  634MOL0     C83621   6.979   9.334  10.337 -0.0204  0.6290  0.5122
  634MOL0     C83622   6.852   9.386  10.342  0.6561  0.3829 -0.5237
  634MOL0     H83623   6.386   9.573  10.202 -0.8729  1.2445 -0.5551
  634MOL0     H83624   6.153   9.617  10.290 -0.0803  0.1567 -0.6110
  634MOL0     H83625   6.133   9.749  10.694 -0.2677 -0.2076 -3.2366
  634MOL0     H83626   6.052   9.612  10.754  1.5361 -1.1830  0.3124
  634MOL0     H83627   5.901   9.791  10.786 -1.3044  1.8834 -0.9108
  634MOL0     H83628   5.833   9.695  10.650  2.3911 -3.3633  0.9752
  634MOL0     H83629   5.964   9.867  10.510  0.6973 -2.8009  0.3797
  634MOL0     H83630   5.947   9.962  10.660 -1.7625  1.7267  0.8052
  634MOL0     H83631   5.707   9.881  10.490 -1.9539  2.2061  0.4929
  634MOL0     H83632   5.697   9.909  10.661 -1.3512 -1.9893 -1.0625
  634MOL0     H83633   5.762  10.132  10.630 -1.8833 -3.0657  2.0337
  634MOL0     H83634   5.646  10.102  10.496 -0.0717 -0.4775 -0.9745
  634MOL0     H83635   5.823  10.049  10.331  2.5306 -1.5159 -0.5684
  634MOL0     H83636   5.940  10.081  10.442 -0.0837 -0.6747 -1.1990
  634MOL0     H83637   5.694  10.276  10.383  0.2845  4.0506 -0.0588
  634MOL0     H83638   5.819  10.342  10.462 -1.0901  0.1936 -0.7260
  634MOL0     H83639   5.755  10.334  10.194  1.7136  0.9469 -1.5981
  634MOL0     H83640   5.888  10.218  10.198  0.3255 -0.9882  0.6685
  634MOL0     H83641   6.093  10.360  10.393 -0.6980 -0.8992 -0.4498
  634MOL0     H83642   6.303  10.627  10.242 -0.1412 -1.2769  0.2592
  634MOL0     H83643   6.269  10.569  10.412 -0.8788 -0.1197  0.2333
  634MOL0     H83644   6.082  10.769  10.369 -0.1341 -2.3198  2.4714
  634MOL0     H83645   6.213  10.826  10.263 -0.2973  2.7989  1.4755
  634MOL0     H83646   6.272  10.921  10.491  2.2995 -0.4274 -0.5325
  634MOL0     H83647   6.241  10.763  10.557 -0.3658  1.4278  0.2076
  634MOL0     H83648   6.472  10.853  10.377 -2.0148  0.1956 -0.8653
  634MOL0     H83649   6.449  10.681  10.409 -2.3770 -0.1641 -1.1821
  634MOL0     H83650   6.697  10.819  10.370  1.6516 -1.3048 -1.1149
  634MOL0     H83651   6.934  10.811  10.420  1.9042 -0.1744  2.0713
  634MOL0     H83652   7.294  10.803  10.348  2.4887 -2.7945 -1.7230
  634MOL0     H83653   7.527  10.835  10.345 -0.7692 -4.3755 -2.1632
  634MOL0     H83654   7.763  10.658  10.716 -1.8536 -0.7591 -2.2182
  634MOL0     H83655   7.771  10.840  10.702  0.9329 -0.5260  0.7667
  634MOL0     H83656   7.951  10.626  10.590  1.3394  0.7664 -2.5053
  634MOL0     H83657   7.987  10.766  10.695 -0.3684 -0.4131  1.4510
  634MOL0     H83658   7.966  10.909  10.514 -0.5560  0.1505 -3.6543
  634MOL0     H83659   7.904  10.792  10.395  0.9367 -0.1424 -0.9086
  634MOL0     H83660   8.167  10.769  10.542  2.9456  3.0657 -1.1690
  634MOL0     H83661   8.119  10.688  10.391 -2.5369 -2.0082  2.0474
  634MOL0     H83662   8.194  10.987  10.460 -2.3593  1.4693 -0.4264
  634MOL0     H83663   8.100  10.966  10.323  0.2173  0.3065  0.0629
  634MOL0     H83664   8.346  10.965  10.240  2.8919  0.0943  1.4708
  634MOL0     H83665   8.269  10.805  10.225 -0.1985  1.1766 -1.7847
  634MOL0     H83666   8.404  10.754  10.442 -0.0882  0.5552  2.7282
  634MOL0     H83667   8.510  10.806  10.311 -0.9391 -0.6346 -0.6689
  634MOL0     H83668   8.576  10.920  10.526  1.9981  2.3562  0.2419
  634MOL0     H83669   8.423  11.001  10.532  0.7180  0.2074  1.4180
  634MOL0     H83670   7.541  10.699  10.773  1.1950 -2.2404 -1.1113
  634MOL0     H83671   7.300  10.708  10.762  1.1520  2.1339  1.0578
  634MOL0     H83672   6.849  10.692  10.816 -2.9393 -1.6675  0.5108
  634MOL0     H83673   6.618  10.710  10.790  0.9130  0.3162  1.3034
  634MOL0     H83674   6.286   9.560  10.693 -2.5517  1.0801 -0.5000
  634MOL0     H83675   6.513   9.498  10.607 -1.1244 -1.6817  0.5788
  634MOL0     H83676   6.836   9.522  10.041  0.9790  1.3140 -0.1061
  634MOL0     H83677   7.048   9.428  10.026  0.6488  0.4218  0.2874
  634MOL0     H83678   7.167   9.226  10.006  0.6567 -0.3044 -0.6115
  634MOL0     H83679   7.274   9.142  10.113  0.2124  0.2013  0.8154
  634MOL0     H83680   7.291   9.436  10.088  1.0426  0.6057 -0.2824
  634MOL0     H83681   7.418   9.322  10.145 -1.1013 -1.0618  1.0734
  634MOL0     H83682   7.299   9.356   9.865 -0.2310  2.1762  0.4127
  634MOL0     H83683   7.433   9.234   9.902  1.1405  0.5369 -0.6283
  634MOL0     H83684   7.495   9.472   9.801  1.0762  1.0903  0.2877
  634MOL0     H83685   7.460   9.538   9.957 -0.5132  0.6090  0.3906
  634MOL0     H83686   7.830   9.355   9.990  0.0422  2.0267 -0.0517
  634MOL0     H83687   7.019   9.284  10.425  0.9945 -0.2509 -0.4124
  634MOL0     H83688   6.784   9.375  10.426 -0.0988  4.3408 -0.4077
  635MOL0     O83689   7.410   3.643   3.407 -0.6668 -0.4782  0.0072
  635MOL0     C83690   7.421   3.607   3.525 -0.3787 -0.3433  0.3354
  635MOL0     O83691   7.322   3.588   3.611  0.7129 -0.6598  0.4725
  635MOL0     C83692   7.197   3.602   3.551  1.0032 -0.2905  0.8341
  635MOL0     C83693   7.146   3.507   3.465 -0.3363 -0.3017 -0.9720
  635MOL0     C83694   7.016   3.516   3.417 -0.5671 -1.5178 -0.8313
  635MOL0     C83695   6.933   3.624   3.460  0.6698  1.1322 -0.2152
  635MOL0     O83696   6.809   3.632   3.401 -0.1479  0.1087  0.1880
  635MOL0     C83697   6.704   3.615   3.487 -0.0886  1.0921 -0.7000
  635MOL0     C83698   6.575   3.650   3.411 -0.7205  0.0337  0.0943
  635MOL0     C83699   6.529   3.575   3.286  0.5362 -0.1773 -0.0114
  635MOL0     C83700   6.566   3.428   3.287 -0.6234 -0.6004 -0.3094
  635MOL0     C83701   6.478   3.352   3.188 -0.1922  0.9644 -0.5452
  635MOL0     C83702   6.494   3.391   3.039 -0.0137  1.2163  0.5448
  635MOL0     C83703   6.382   3.314   2.963 -0.2157 -0.2423  0.1021
  635MOL0     C83704   6.397   3.329   2.817 -0.6132  0.2469  0.2489
  635MOL0     N83705   6.293   3.279   2.741  0.1406  0.7871  0.2443
  635MOL0     C83706   6.183   3.350   2.698 -0.3258  0.0046  0.1357
  635MOL0     C83707   6.099   3.255   2.652  0.4251  0.6494 -0.2804
  635MOL0     C83708   5.955   3.289   2.622  0.4260  0.7279  0.0067
  635MOL0     C83709   5.926   3.268   2.481  0.6185  0.0754  0.0862
  635MOL0     C83710   5.790   3.343   2.458 -0.3782 -0.7692 -0.1425
  635MOL0     C83711   5.716   3.309   2.320  0.0802 -1.0341 -0.5389
  635MOL0     O83712   5.688   3.170   2.321 -0.0147 -0.0675 -0.1333
  635MOL0     C83713   5.579   3.140   2.241  0.5555 -0.4533  0.1461
  635MOL0     C83714   5.538   3.212   2.123 -0.2314  0.2468 -0.5730
  635MOL0     C83715   5.419   3.177   2.052 -0.2360 -0.1700 -0.3948
  635MOL0     C83716   5.341   3.070   2.094 -0.5507 -0.1554  0.3554
  635MOL0     C83717   5.225   3.028   2.011 -0.0144  0.2560 -0.1161
  635MOL0     O83718   5.183   3.110   1.907 -0.5026  0.0271  0.3307
  635MOL0     C83719   5.085   3.074   1.826  0.8217  0.0990  0.0655
  635MOL0     C83720   4.956   3.045   1.880 -1.0136 -0.6344 -0.0231
  635MOL0     C83721   4.858   2.992   1.792 -0.7266 -0.0491  0.4183
  635MOL0     C83722   4.878   2.981   1.653 -0.2667 -0.2066  0.1318
  635MOL0     O83723   4.780   2.950   1.566  0.0693  0.2004  0.0375
  635MOL0     C83724   4.658   3.023   1.566  1.2175 -0.5011  1.1275
  635MOL0     C83725   4.643   3.112   1.443  0.3993 -0.2947 -0.9325
  635MOL0     C83726   4.526   3.217   1.455 -0.5238  0.5747 -0.2899
  635MOL0     C83727   4.485   3.278   1.318 -0.1010 -0.2775  0.1594
  635MOL0     C83728   4.386   3.392   1.335  0.0901  0.1079 -0.5227
  635MOL0     C83729   4.254   3.364   1.415 -0.8771 -0.1763  0.9093
  635MOL0     C83730   4.176   3.235   1.374 -0.0308 -0.7170  0.4212
  635MOL0     C83731   4.071   3.175   1.470  0.1472  0.1719  0.8288
  635MOL0    Cl83732   4.148   3.095   1.608 -0.2622 -0.0726  0.1265
  635MOL0     C83733   5.002   3.023   1.608  0.4043 -0.4601  0.2601
  635MOL0     C83734   5.105   3.069   1.690 -0.0286 -0.1023 -0.6514
  635MOL0     O83735   5.174   2.922   2.045 -0.1630  0.2807 -0.0900
  635MOL0     C83736   5.391   2.990   2.202 -0.0195  1.2058  0.6729
  635MOL0     C83737   5.506   3.032   2.276 -0.6095  0.0334  0.8145
  635MOL0     N83738   6.162   3.134   2.654  0.4268 -0.1014 -0.3981
  635MOL0     N83739   6.285   3.149   2.699  0.3334 -0.2042  0.2619
  635MOL0     C83740   6.982   3.707   3.559 -0.3083 -0.4757 -0.1841
  635MOL0     C83741   7.116   3.699   3.603  0.0251  0.0419  0.1960
  635MOL0     C83742   7.559   3.615   3.567 -0.2739 -0.6545 -0.2030
  635MOL0     C83743   7.602   3.534   3.672 -0.3389  0.1539 -0.4642
  635MOL0     C83744   7.735   3.554   3.715  0.4917  0.3434 -0.4019
  635MOL0     C83745   7.828   3.631   3.652 -0.1505 -0.4493  0.6889
  635MOL0     O83746   7.952   3.651   3.705 -0.1796 -0.6108  0.3672
  635MOL0     C83747   8.050   3.720   3.636 -0.4802  0.3721  0.6680
  635MOL0     C83748   8.188   3.708   3.713  1.1179 -0.8167 -0.1702
  635MOL0     C83749   8.183   3.735   3.865 -0.2845  0.0727 -0.5003
  635MOL0     C83750   8.314   3.710   3.940 -0.8947  0.3079  0.0649
  635MOL0     C83751   8.294   3.753   4.079  0.3475 -0.2993 -0.1523
  635MOL0     C83752   8.298   3.794   4.196 -0.8199  0.5861 -0.0683
  635MOL0     C83753   7.786   3.701   3.540 -0.3483  0.1386  0.0894
  635MOL0     C83754   7.655   3.696   3.495 -0.5174 -0.4442 -0.0399
  635MOL0     H83755   7.216   3.430   3.436  2.8527  1.9141  0.2366
  635MOL0     H83756   6.969   3.442   3.353 -0.9936 -2.3527  0.4105
  635MOL0     H83757   6.728   3.683   3.570  1.2181 -2.7677  2.3683
  635MOL0     H83758   6.689   3.515   3.528 -0.2168  1.4270  0.0790
  635MOL0     H83759   6.592   3.752   3.378 -3.3692 -0.0376 -1.8586
  635MOL0     H83760   6.494   3.646   3.484  1.9794  0.1563  3.3655
  635MOL0     H83761   6.576   3.612   3.195  1.8887 -2.5017 -0.3603
  635MOL0     H83762   6.422   3.579   3.263  0.9827 -0.7803 -2.4397
  635MOL0     H83763   6.673   3.409   3.275 -0.1963  1.4401 -0.0332
  635MOL0     H83764   6.538   3.398   3.388 -1.0526  0.6029 -0.0631
  635MOL0     H83765   6.375   3.351   3.223 -0.0105 -0.7073  0.0274
  635MOL0     H83766   6.504   3.246   3.198 -3.2166  0.2201  0.3710
  635MOL0     H83767   6.586   3.347   3.000 -0.7433 -0.1949  0.3225
  635MOL0     H83768   6.488   3.499   3.026 -1.0623  0.8421 -2.9379
  635MOL0     H83769   6.396   3.208   2.986  1.8604 -0.0016  0.1110
  635MOL0     H83770   6.277   3.341   2.982  0.1179  1.4910 -0.3579
  635MOL0     H83771   6.490   3.277   2.794 -0.5338  0.1117  0.8781
  635MOL0     H83772   6.405   3.437   2.798  2.8870  0.4148  1.9760
  635MOL0     H83773   6.156   3.453   2.722 -1.8766 -0.0423 -1.1894
  635MOL0     H83774   5.943   3.389   2.664 -1.3112 -0.3359  2.2567
  635MOL0     H83775   5.887   3.226   2.680 -0.9885 -0.3857 -2.6339
  635MOL0     H83776   5.929   3.159   2.470  0.6888 -0.0704  1.4191
  635MOL0     H83777   5.998   3.321   2.418 -0.9765  2.3429  0.0333
  635MOL0     H83778   5.716   3.319   2.536 -0.3944 -0.0829  0.0587
  635MOL0     H83779   5.801   3.452   2.454  1.1053 -0.9289 -0.9530
  635MOL0     H83780   5.777   3.341   2.236  3.3863 -0.1845  1.9811
  635MOL0     H83781   5.622   3.364   2.327  0.7304  0.3315 -1.9667
  635MOL0     H83782   5.600   3.295   2.090  0.7971 -0.8423 -1.4573
  635MOL0     H83783   5.389   3.233   1.965 -0.2856 -0.7054 -0.7284
  635MOL0     H83784   4.930   3.058   1.984  0.0108 -0.6699  0.2490
  635MOL0     H83785   4.762   2.963   1.833 -0.3626 -1.9280  0.0465
  635MOL0     H83786   4.652   3.087   1.655 -0.0521 -2.5752  2.6415
  635MOL0     H83787   4.564   2.966   1.561  0.0890  1.3306 -2.7235
  635MOL0     H83788   4.617   3.049   1.358 -0.9451 -1.2075  0.0989
  635MOL0     H83789   4.739   3.164   1.439  0.4696 -0.4085 -0.7660
  635MOL0     H83790   4.546   3.293   1.531  0.6437 -2.4428  2.6966
  635MOL0     H83791   4.442   3.165   1.503  1.6397 -0.2157  2.9848
  635MOL0     H83792   4.567   3.330   1.268 -0.3887 -0.8801 -0.9778
  635MOL0     H83793   4.453   3.201   1.248  0.8786 -0.8875  0.3580
  635MOL0     H83794   4.360   3.424   1.234 -3.8744 -2.2853 -0.4375
  635MOL0     H83795   4.432   3.473   1.392 -1.6199  0.9158 -0.2377
  635MOL0     H83796   4.190   3.448   1.387  1.0196  0.8710 -0.5483
  635MOL0     H83797   4.269   3.357   1.523  1.3718  0.8432  0.7148
  635MOL0     H83798   4.134   3.278   1.283  3.1515  1.7696 -0.0671
  635MOL0     H83799   4.239   3.154   1.337 -1.1610 -1.8745  0.9695
  635MOL0     H83800   4.006   3.110   1.411  0.7821  1.0491 -0.9200
  635MOL0     H83801   4.007   3.253   1.512 -0.0663 -0.4275  1.6270
  635MOL0     H83802   5.012   3.032   1.500  1.7716  2.5414  0.5564
  635MOL0     H83803   5.196   3.106   1.645 -1.8946 -0.9899 -5.8059
  635MOL0     H83804   5.342   2.901   2.240 -0.0201  0.7916 -0.2785
  635MOL0     H83805   5.529   2.969   2.361 -1.8831 -0.9256  0.4793
  635MOL0     H83806   6.918   3.784   3.601  0.9382  1.2231 -1.2776
  635MOL0     H83807   7.155   3.764   3.680  1.5269 -0.6062  0.0076
  635MOL0     H83808   7.535   3.460   3.716  0.5622 -1.6346 -1.9589
  635MOL0     H83809   7.759   3.490   3.799  1.0188 -0.6617 -1.2923
  635MOL0     H83810   8.021   3.826   3.635 -1.0659  0.2071  0.2114
  635MOL0     H83811   8.058   3.682   3.534  0.7437 -1.0375  1.2462
  635MOL0     H83812   8.214   3.603   3.700  0.6017 -0.8735 -0.7821
  635MOL0     H83813   8.249   3.780   3.659 -1.2378  3.0926  1.8904
  635MOL0     H83814   8.120   3.654   3.905  0.4177 -1.1654 -1.8253
  635MOL0     H83815   8.134   3.829   3.894  1.4738  0.5347  1.2068
  635MOL0     H83816   8.340   3.603   3.939 -1.1131  0.2212  1.3903
  635MOL0     H83817   8.397   3.761   3.891  1.1058 -0.3217  2.5698
  635MOL0     H83818   8.298   3.823   4.299 -3.4349  0.6131 -0.0110
  635MOL0     H83819   7.861   3.739   3.471 -1.2515 -4.3695 -3.8473
  635MOL0     H83820   7.626   3.754   3.408  3.4868 -1.9787 -2.6294
  636MOL0     O83821  10.416   9.747   3.424  0.1152 -0.3642  0.3415
  636MOL0     C83822  10.485   9.712   3.326  0.8309  1.1032  0.1836
  636MOL0     O83823  10.437   9.685   3.202  0.3054  0.7658 -0.0676
  636MOL0     C83824  10.298   9.679   3.175 -1.5492 -0.5334  0.3536
  636MOL0     C83825  10.221   9.589   3.243  0.0677 -0.0067 -0.3149
  636MOL0     C83826  10.089   9.585   3.209 -0.4487  0.3880  0.7838
  636MOL0     C83827  10.038   9.661   3.104 -0.5908 -0.3417 -0.5912
  636MOL0     O83828   9.904   9.652   3.086  0.4294  0.4336  0.2842
  636MOL0     C83829   9.829   9.679   2.977 -0.1712 -0.2626 -0.6880
  636MOL0     C83830   9.682   9.650   3.011  0.1201 -0.1648 -0.4235
  636MOL0     C83831   9.662   9.498   3.040 -0.7150  1.0430 -0.6592
  636MOL0     C83832   9.525   9.457   3.082  0.0088 -0.3251  0.3420
  636MOL0     C83833   9.495   9.509   3.227  0.1910 -0.3457 -0.5163
  636MOL0     C83834   9.399   9.423   3.315 -1.4125 -0.9262 -0.0024
  636MOL0     C83835   9.375   9.470   3.455 -0.0675  0.0070 -0.2590
  636MOL0     C83836   9.307   9.606   3.461  0.1225 -0.4085 -0.7498
  636MOL0     N83837   9.171   9.598   3.401  0.5868 -0.3199 -0.6832
  636MOL0     C83838   9.058   9.534   3.450 -0.2941 -0.2645 -0.2798
  636MOL0     C83839   8.953   9.570   3.363  0.6051  0.2723  0.4573
  636MOL0     C83840   8.803   9.535   3.365  0.2140 -0.1740  0.9085
  636MOL0     C83841   8.770   9.427   3.265  0.4031  0.2074  1.0909
  636MOL0     C83842   8.766   9.481   3.118  0.2123  0.0934  0.1789
  636MOL0     C83843   8.632   9.552   3.077 -0.6816  0.2079 -0.0209
  636MOL0     O83844   8.532   9.450   3.049  0.4776 -0.6138  0.1537
  636MOL0     C83845   8.405   9.461   3.085  0.0558  0.1693 -0.1111
  636MOL0     C83846   8.333   9.577   3.113  0.0277 -0.4716 -0.0683
  636MOL0     C83847   8.198   9.569   3.152 -0.7313  0.3684 -1.1472
  636MOL0     C83848   8.139   9.446   3.169  0.0866 -0.3957  0.1346
  636MOL0     C83849   7.990   9.435   3.220 -0.4638 -1.0785  0.4532
  636MOL0     O83850   7.922   9.323   3.188 -0.3958 -0.3244 -0.2413
  636MOL0     C83851   7.787   9.326   3.204 -0.9876  0.1185  0.3405
  636MOL0     C83852   7.724   9.279   3.321  0.2266  0.4506 -0.1114
  636MOL0     C83853   7.584   9.305   3.327 -0.3760 -0.2762 -0.3630
  636MOL0     C83854   7.512   9.371   3.229  0.0050 -0.4144 -1.0770
  636MOL0     O83855   7.374   9.396   3.257 -0.5089 -0.0210  0.6831
  636MOL0     C83856   7.300   9.490   3.181 -0.0467 -0.2972 -0.1535
  636MOL0     C83857   7.321   9.630   3.243  0.5475  0.2617  0.0599
  636MOL0     C83858   7.211   9.646   3.351 -0.4059 -0.6101  0.2825
  636MOL0     C83859   7.069   9.678   3.299 -0.3404  0.7797 -0.2395
  636MOL0     C83860   6.970   9.675   3.412 -0.3261 -0.2561  0.1866
  636MOL0     C83861   6.846   9.767   3.375  0.5282  0.0641 -0.1746
  636MOL0     C83862   6.764   9.723   3.256 -0.6682  0.7814 -0.1346
  636MOL0     C83863   6.693   9.596   3.276 -0.1783 -0.1229  0.4623
  636MOL0    Cl83864   6.542   9.633   3.374 -0.3049  0.3734  0.2284
  636MOL0     C83865   7.586   9.407   3.121  0.0441  0.3086  0.2300
  636MOL0     C83866   7.720   9.383   3.103  0.4367 -0.0973 -0.1733
  636MOL0     O83867   7.952   9.521   3.297  0.2716 -0.5574 -0.5467
  636MOL0     C83868   8.206   9.334   3.140  0.1007 -0.4436  0.6863
  636MOL0     C83869   8.338   9.336   3.091 -0.2174  0.3381 -0.4494
  636MOL0     N83870   9.009   9.657   3.267  0.4847 -0.0441 -0.8096
  636MOL0     N83871   9.135   9.666   3.291 -0.0329  0.0064  0.1523
  636MOL0     C83872  10.110   9.756   3.033  0.1849 -0.2930  0.2622
  636MOL0     C83873  10.246   9.764   3.067 -0.3416  0.6428  0.3993
  636MOL0     C83874  10.627   9.699   3.343 -0.1190 -0.1615 -0.5330
  636MOL0     C83875  10.704   9.631   3.246 -0.3505 -0.2985  0.9479
  636MOL0     C83876  10.841   9.614   3.256  0.4167  0.0945  0.2296
  636MOL0     C83877  10.896   9.650   3.377  0.7154  0.3626 -0.3455
  636MOL0     O83878  11.027   9.634   3.409 -0.6829 -0.6910 -0.3098
  636MOL0     C83879  11.121   9.617   3.309 -0.3074 -0.2201  1.2948
  636MOL0     C83880  11.266   9.643   3.357  0.7095 -0.1770 -0.3497
  636MOL0     C83881  11.276   9.789   3.392  0.7431 -0.4231 -0.7449
  636MOL0     C83882  11.406   9.845   3.451  0.2072 -0.6146  0.3381
  636MOL0     C83883  11.511   9.849   3.350 -0.1325  0.0554  0.7485
  636MOL0     C83884  11.599   9.854   3.266  0.4154  0.7915 -0.3830
  636MOL0     C83885  10.822   9.718   3.475 -0.5059 -0.3722 -0.2737
  636MOL0     C83886  10.684   9.744   3.464  0.1371  0.0364 -0.0421
  636MOL0     H83887  10.254   9.534   3.330 -1.4923  0.0472  0.3350
  636MOL0     H83888  10.030   9.516   3.269 -0.3940 -0.5243 -0.1775
  636MOL0     H83889   9.857   9.631   2.883 -2.5544 -1.3142 -0.9262
  636MOL0     H83890   9.834   9.787   2.965 -2.1425  0.1636  1.5453
  636MOL0     H83891   9.619   9.673   2.924  0.3774 -2.5959 -1.3110
  636MOL0     H83892   9.645   9.711   3.094 -1.0575 -2.3640  0.7670
  636MOL0     H83893   9.734   9.469   3.118  0.3833  2.1188 -1.2360
  636MOL0     H83894   9.695   9.454   2.945  1.3956  1.4832 -0.1991
  636MOL0     H83895   9.439   9.496   3.026 -0.8379 -0.7918  1.2643
  636MOL0     H83896   9.515   9.348   3.081  0.4618 -0.3708 -0.9595
  636MOL0     H83897   9.454   9.610   3.215  1.4576  0.5698  2.1423
  636MOL0     H83898   9.590   9.517   3.279 -1.1228 -1.4745  2.2500
  636MOL0     H83899   9.441   9.323   3.330  0.3588  0.1316  3.2527
  636MOL0     H83900   9.306   9.421   3.258 -3.4434  4.4457  2.4621
  636MOL0     H83901   9.307   9.400   3.505  3.2451 -2.7378  0.7992
  636MOL0     H83902   9.468   9.474   3.511 -0.9301 -2.0509  1.4768
  636MOL0     H83903   9.362   9.682   3.405 -3.3257  3.3200  0.5095
  636MOL0     H83904   9.301   9.648   3.561 -0.5360  0.6247 -1.2094
  636MOL0     H83905   9.055   9.486   3.547  2.0917  1.0567  0.5259
  636MOL0     H83906   8.741   9.625   3.354 -2.1341 -1.6513  1.3541
  636MOL0     H83907   8.795   9.491   3.464 -1.7664 -2.5755 -0.2261
  636MOL0     H83908   8.681   9.366   3.282  1.2977 -1.4977 -0.0338
  636MOL0     H83909   8.852   9.354   3.261 -1.0374 -1.4908  1.1949
  636MOL0     H83910   8.844   9.558   3.108  1.7092 -1.2374  1.0235
  636MOL0     H83911   8.776   9.401   3.045 -4.5093  0.1270 -0.7845
  636MOL0     H83912   8.634   9.618   2.989  0.0929 -0.3701 -0.4471
  636MOL0     H83913   8.595   9.617   3.157 -0.8787  1.8041 -1.3337
  636MOL0     H83914   8.390   9.668   3.117 -0.3387 -0.2239 -0.3974
  636MOL0     H83915   8.158   9.666   3.182 -2.9082  0.1760 -3.1507
  636MOL0     H83916   7.767   9.221   3.402  3.6074  2.9280  0.0923
  636MOL0     H83917   7.528   9.262   3.409  1.4469 -3.3376 -0.5529
  636MOL0     H83918   7.195   9.463   3.183 -0.5228  1.4691  0.7586
  636MOL0     H83919   7.330   9.489   3.076  2.9275 -1.6000  0.5893
  636MOL0     H83920   7.317   9.702   3.161  0.0553  0.4214  0.2215
  636MOL0     H83921   7.423   9.640   3.281  0.3948  0.8416  0.3330
  636MOL0     H83922   7.238   9.735   3.409 -0.6783 -1.3476  1.5761
  636MOL0     H83923   7.212   9.555   3.412  0.5476 -1.0837 -0.4247
  636MOL0     H83924   7.072   9.783   3.266 -3.0834  1.9485  2.7119
  636MOL0     H83925   7.038   9.613   3.217 -1.3133  1.2288 -0.2381
  636MOL0     H83926   7.029   9.714   3.496  2.1817 -3.8185  0.2776
  636MOL0     H83927   6.932   9.576   3.440 -2.6270  0.1508 -1.1772
  636MOL0     H83928   6.892   9.866   3.364  3.4118 -0.9767  1.3624
  636MOL0     H83929   6.775   9.769   3.459  0.0050 -1.3441 -0.5513
  636MOL0     H83930   6.696   9.805   3.230 -0.1770  0.2695 -3.4595
  636MOL0     H83931   6.823   9.716   3.164 -0.1458 -1.9255  0.3312
  636MOL0     H83932   6.757   9.529   3.333  0.2559 -0.4091 -0.3520
  636MOL0     H83933   6.666   9.557   3.177 -2.1636  1.9714  0.0655
  636MOL0     H83934   7.533   9.452   3.037 -0.1298  1.8680  1.1355
  636MOL0     H83935   7.763   9.412   3.008  0.3789  1.3872  0.2263
  636MOL0     H83936   8.159   9.237   3.141 -0.4477 -0.2872 -1.8125
  636MOL0     H83937   8.396   9.246   3.074 -0.0054  0.6860 -1.6163
  636MOL0     H83938  10.060   9.820   2.960 -0.3166 -3.1497 -2.0775
  636MOL0     H83939  10.311   9.837   3.021  0.2265  0.2211  0.5247
  636MOL0     H83940  10.669   9.598   3.149  1.3876  4.6584 -1.7191
  636MOL0     H83941  10.897   9.567   3.175  2.7749 -0.3375  2.0225
  636MOL0     H83942  11.093   9.683   3.227  0.8354 -0.7844  0.4142
  636MOL0     H83943  11.104   9.521   3.259  2.9328 -0.4057  0.3304
  636MOL0     H83944  11.290   9.569   3.434  0.9948  0.3580  0.0816
  636MOL0     H83945  11.320   9.624   3.264  1.9138  2.4979 -0.2834
  636MOL0     H83946  11.210   9.816   3.475  1.5238  1.6441 -0.7217
  636MOL0     H83947  11.235   9.850   3.310 -1.8744  1.1916  1.5718
  636MOL0     H83948  11.393   9.952   3.466 -0.0331 -0.4188 -1.0941
  636MOL0     H83949  11.436   9.788   3.539 -1.0844 -1.0811  0.5064
  636MOL0     H83950  11.677   9.844   3.192  1.0837 -2.1013  0.5635
  636MOL0     H83951  10.877   9.737   3.567  1.4336 -2.9901 -0.7832
  636MOL0     H83952  10.631   9.805   3.537 -2.7898  0.2500 -2.1857
  637MOL0     O83953   7.026   7.472   6.198  0.1653 -0.1236 -0.7403
  637MOL0     C83954   6.985   7.434   6.301 -0.7959  0.4480 -0.9884
  637MOL0     O83955   7.054   7.379   6.403  0.2243  0.1847 -0.2456
  637MOL0     C83956   7.191   7.369   6.408 -0.1534 -0.1646 -0.5768
  637MOL0     C83957   7.290   7.448   6.334  0.9209  0.7164 -0.4352
  637MOL0     C83958   7.424   7.423   6.354 -0.3640  0.0716 -0.0934
  637MOL0     C83959   7.473   7.315   6.433  0.4465 -0.1755 -0.4240
  637MOL0     O83960   7.608   7.284   6.438  0.0926 -0.1871  0.8057
  637MOL0     C83961   7.636   7.149   6.407  0.4763  0.4204 -0.3309
  637MOL0     C83962   7.768   7.133   6.336  0.5518 -0.3164  0.5200
  637MOL0     C83963   7.868   7.246   6.363 -0.1076  0.5800  0.1312
  637MOL0     C83964   7.998   7.231   6.290  0.5951 -0.3574  0.4919
  637MOL0     C83965   8.006   7.335   6.176 -0.1607  0.6509  0.4804
  637MOL0     C83966   7.913   7.289   6.059 -0.2577  0.1883  0.3955
  637MOL0     C83967   7.980   7.332   5.927  0.9196 -0.1000 -0.6282
  637MOL0     C83968   7.963   7.471   5.871  0.1495 -0.5478 -0.0182
  637MOL0     N83969   7.865   7.484   5.762 -0.5909 -0.3334  0.0243
  637MOL0     C83970   7.733   7.474   5.793  0.1075 -0.5871  0.2819
  637MOL0     C83971   7.666   7.532   5.686 -0.4448  0.7472  0.8757
  637MOL0     C83972   7.513   7.555   5.681 -0.4426 -0.5251  0.4320
  637MOL0     C83973   7.497   7.702   5.646 -0.0542  0.0995  0.5438
  637MOL0     C83974   7.345   7.732   5.614  0.3966  0.3839  0.1289
  637MOL0     C83975   7.249   7.700   5.732  0.4705 -0.2827  0.0162
  637MOL0     O83976   7.117   7.758   5.711 -0.3702 -0.0078 -0.2884
  637MOL0     C83977   7.052   7.739   5.597 -0.3698 -1.0112 -0.0849
  637MOL0     C83978   6.980   7.856   5.549  0.5092  0.2096  0.4303
  637MOL0     C83979   6.941   7.852   5.411  0.5547 -0.6626  0.4525
  637MOL0     C83980   6.938   7.737   5.344  0.0534  0.6544 -0.1912
  637MOL0     C83981   6.887   7.738   5.196  0.1419  0.2981 -0.9207
  637MOL0     O83982   6.904   7.620   5.125  0.0729  1.0194 -0.0676
  637MOL0     C83983   6.807   7.579   5.037 -0.2845  0.4155  0.2859
  637MOL0     C83984   6.671   7.617   5.033  0.4740 -0.2568 -0.0466
  637MOL0     C83985   6.583   7.561   4.942 -0.7509 -0.5988  0.0481
  637MOL0     C83986   6.629   7.470   4.844  0.6457  0.3456  0.4658
  637MOL0     O83987   6.550   7.413   4.746 -0.4429 -0.1207  0.6048
  637MOL0     C83988   6.408   7.420   4.771 -0.6789  0.1740  0.6039
  637MOL0     C83989   6.335   7.347   4.655  0.1820 -0.1706  0.6445
  637MOL0     C83990   6.182   7.328   4.706 -0.7936 -0.3324  0.4017
  637MOL0     C83991   6.100   7.245   4.615  0.3239 -0.4148  0.8804
  637MOL0     C83992   5.956   7.256   4.661  0.7589 -1.1492 -0.1047
  637MOL0     C83993   5.875   7.170   4.568  0.2142  0.2147  0.0734
  637MOL0     C83994   5.721   7.170   4.592 -1.3125  0.2741 -1.4779
  637MOL0     C83995   5.667   7.308   4.578  0.5006  0.1068 -0.2678
  637MOL0    Cl83996   5.498   7.307   4.604  0.0836  0.3466 -0.3398
  637MOL0     C83997   6.761   7.430   4.848  0.3201 -0.9027 -0.0473
  637MOL0     C83998   6.849   7.487   4.945 -0.4067  0.2122  0.1591
  637MOL0     O83999   6.837   7.841   5.155 -0.4149 -0.6284 -0.0011
  637MOL0     C84000   6.992   7.618   5.402 -0.0668  0.6137 -0.1788
  637MOL0     C84001   7.051   7.622   5.531  0.4371  0.8459  1.6741
  637MOL0     N84002   7.764   7.560   5.591  0.1777 -0.2969 -0.4983
  637MOL0     N84003   7.878   7.538   5.635 -0.0304 -0.6718  1.7302
  637MOL0     C84004   7.382   7.254   6.513 -0.5315  0.8421 -0.0735
  637MOL0     C84005   7.245   7.280   6.507 -0.4917 -0.4355 -0.7708
  637MOL0     C84006   6.833   7.438   6.331 -0.4374 -0.2297  0.1527
  637MOL0     C84007   6.751   7.487   6.224  0.1342  0.1038 -0.7970
  637MOL0     C84008   6.611   7.504   6.251 -0.6390  0.6615  0.8496
  637MOL0     C84009   6.558   7.463   6.377 -0.9996 -0.5239 -0.3589
  637MOL0     O84010   6.426   7.474   6.415 -0.6090  0.5720  0.2994
  637MOL0     C84011   6.320   7.471   6.321 -0.7448  0.1188 -0.5888
  637MOL0     C84012   6.194   7.393   6.370 -0.2059  0.2370 -0.0771
  637MOL0     C84013   6.113   7.472   6.481 -0.0017  1.2610 -0.7364
  637MOL0     C84014   6.013   7.393   6.555  0.0995 -0.6455  0.3432
  637MOL0     C84015   5.910   7.359   6.456 -0.9980 -0.1944 -0.5257
  637MOL0     C84016   5.835   7.335   6.368  0.3553  0.4436  0.4058
  637MOL0     C84017   6.638   7.407   6.474 -0.5239 -0.8674  0.5701
  637MOL0     C84018   6.773   7.394   6.448 -0.2714 -0.5685 -0.1512
  637MOL0     H84019   7.255   7.514   6.255 -0.8726  0.2590 -0.0615
  637MOL0     H84020   7.483   7.488   6.291 -2.8345  2.9685  0.3370
  637MOL0     H84021   7.564   7.097   6.343  0.0940  1.7729 -1.0250
  637MOL0     H84022   7.644   7.089   6.498  0.6205  1.0790  0.0932
  637MOL0     H84023   7.756   7.143   6.228  0.5565  1.6783  0.6645
  637MOL0     H84024   7.808   7.033   6.353  0.9286  0.2556  3.6445
  637MOL0     H84025   7.888   7.248   6.470  0.6957  1.8903 -0.0225
  637MOL0     H84026   7.825   7.343   6.339  2.1671  1.4670 -0.6584
  637MOL0     H84027   8.073   7.263   6.362  1.7089  2.3988 -1.6807
  637MOL0     H84028   8.022   7.129   6.261  0.3178 -0.9264  2.1733
  637MOL0     H84029   8.109   7.345   6.141 -0.4367  1.6382 -0.0640
  637MOL0     H84030   7.963   7.432   6.204 -2.0412 -0.0768  0.2843
  637MOL0     H84031   7.813   7.331   6.068 -0.8221 -0.9157 -0.4848
  637MOL0     H84032   7.902   7.180   6.058  3.2384 -0.2775  0.5079
  637MOL0     H84033   8.085   7.305   5.939  0.9104  0.6485  1.5826
  637MOL0     H84034   7.940   7.260   5.856  3.6653 -0.9013 -1.4865
  637MOL0     H84035   8.056   7.501   5.822  0.2130  0.6097  0.7647
  637MOL0     H84036   7.946   7.549   5.946 -1.8029 -0.3554 -0.6047
  637MOL0     H84037   7.683   7.467   5.890  1.1969  2.5865  1.2316
  637MOL0     H84038   7.471   7.522   5.776  1.4740 -2.7941  0.5937
  637MOL0     H84039   7.471   7.495   5.601  3.2837 -1.0906 -1.3296
  637MOL0     H84040   7.551   7.734   5.557  1.5272 -2.7976  0.3165
  637MOL0     H84041   7.519   7.764   5.733  2.3303 -1.8140  1.4171
  637MOL0     H84042   7.334   7.841   5.610 -0.5624  0.3227  0.7167
  637MOL0     H84043   7.308   7.691   5.520  1.4223  0.0662 -0.1488
  637MOL0     H84044   7.284   7.747   5.825 -1.5743  0.3148  0.5285
  637MOL0     H84045   7.244   7.591   5.740 -3.0183 -0.1562  1.2967
  637MOL0     H84046   6.975   7.940   5.618 -1.5932 -2.2655  3.5762
  637MOL0     H84047   6.897   7.941   5.368 -0.6275 -1.9846 -1.2098
  637MOL0     H84048   6.638   7.676   5.118  3.8105  0.6078  0.7991
  637MOL0     H84049   6.477   7.586   4.943 -1.3430 -2.9481  0.9031
  637MOL0     H84050   6.367   7.522   4.776  0.9777  1.0063 -1.2929
  637MOL0     H84051   6.390   7.355   4.856 -0.1022 -0.8518 -0.0367
  637MOL0     H84052   6.386   7.252   4.635  1.7229  0.3938  1.6770
  637MOL0     H84053   6.337   7.402   4.561  0.8762 -1.2299  0.0261
  637MOL0     H84054   6.140   7.429   4.707  2.6533  1.2498  1.2937
  637MOL0     H84055   6.180   7.297   4.811 -2.5624  0.2651  0.5769
  637MOL0     H84056   6.115   7.303   4.524 -0.3562 -0.5506  0.6706
  637MOL0     H84057   6.141   7.145   4.599 -1.0055 -0.6979 -1.0736
  637MOL0     H84058   5.932   7.362   4.647  0.3446 -0.6196  3.5134
  637MOL0     H84059   5.949   7.222   4.765  2.5210 -0.4341  0.2813
  637MOL0     H84060   5.910   7.067   4.575  1.9455  0.8748  1.9223
  637MOL0     H84061   5.897   7.205   4.467  1.4714  0.4218  0.4048
  637MOL0     H84062   5.673   7.104   4.519 -0.5573 -0.5920 -1.2044
  637MOL0     H84063   5.690   7.137   4.692 -1.5430 -0.1735 -1.6934
  637MOL0     H84064   5.692   7.342   4.477 -1.8427 -4.9013 -2.9134
  637MOL0     H84065   5.720   7.365   4.655  3.5568 -1.7354 -0.8283
  637MOL0     H84066   6.804   7.343   4.800  1.7504 -0.9809  1.2864
  637MOL0     H84067   6.947   7.441   4.950 -0.6643 -0.6655 -1.9312
  637MOL0     H84068   6.984   7.527   5.345 -0.5754  0.9860 -0.7119
  637MOL0     H84069   7.091   7.526   5.562 -1.3098 -0.7091 -0.5518
  637MOL0     H84070   7.424   7.174   6.573 -0.4397 -0.5220 -1.8673
  637MOL0     H84071   7.170   7.254   6.582  0.4500  2.3958  1.3642
  637MOL0     H84072   6.795   7.513   6.128 -1.0030  3.2843 -0.5766
  637MOL0     H84073   6.540   7.543   6.180 -0.0852  0.8752  0.4059
  637MOL0     H84074   6.349   7.439   6.220 -1.3531  0.9456 -1.0427
  637MOL0     H84075   6.286   7.574   6.307 -1.6533 -0.2548 -1.3164
  637MOL0     H84076   6.130   7.376   6.282 -1.5713  0.1589  0.8963
  637MOL0     H84077   6.223   7.298   6.415  0.8989  0.7788  0.3925
  637MOL0     H84078   6.062   7.558   6.436  0.3773  1.7785 -0.1942
  637MOL0     H84079   6.178   7.516   6.558 -1.4377  0.2042  1.1704
  637MOL0     H84080   6.061   7.310   6.607  1.6450  2.2180  3.9897
  637MOL0     H84081   5.955   7.442   6.634  0.7230  0.6987  0.0051
  637MOL0     H84082   5.769   7.309   6.288 -1.8642 -2.5789  2.9941
  637MOL0     H84083   6.594   7.373   6.567  0.5875 -0.4251  1.2739
  637MOL0     H84084   6.839   7.352   6.523 -0.2678  4.5701  3.1907
  638MOL0     O84085   3.002   0.245   1.467 -0.1103  1.2965 -0.2320
  638MOL0     C84086   3.088   0.161   1.484 -0.5139  0.1497  0.6239
  638MOL0     O84087   3.072   0.025   1.481 -0.1669  0.5567 -0.0008
  638MOL0     C84088   2.950  -0.031   1.472  0.9938 -0.2134  0.9879
  638MOL0     C84089   2.891  -0.052   1.340  0.9418 -0.3118  0.0565
  638MOL0     C84090   2.760  -0.104   1.332  0.6181  0.5100  0.1712
  638MOL0     C84091   2.691  -0.156   1.442  0.2449  0.3718 -0.2415
  638MOL0     O84092   2.574  -0.221   1.407  0.3414 -0.2378  0.0120
  638MOL0     C84093   2.501  -0.287   1.514 -0.3031 -0.7375 -0.2773
  638MOL0     C84094   2.391  -0.382   1.467 -0.2017  0.0046  0.3050
  638MOL0     C84095   2.456  -0.487   1.373 -0.4814 -0.4579  0.2440
  638MOL0     C84096   2.364  -0.602   1.328 -0.5502  0.3742  0.6125
  638MOL0     C84097   2.363  -0.623   1.173 -0.5264 -0.7389  0.7192
  638MOL0     C84098   2.506  -0.635   1.111  0.0421  0.1721 -0.2556
  638MOL0     C84099   2.590  -0.729   1.191  0.3335  0.1393  0.1380
  638MOL0     C84100   2.727  -0.742   1.125 -0.4520 -0.5310 -0.4469
  638MOL0     N84101   2.837  -0.807   1.199  0.0557  0.8347 -0.1575
  638MOL0     C84102   2.931  -0.742   1.275 -0.3108  0.2403  0.4296
  638MOL0     C84103   3.009  -0.849   1.326 -0.0157  0.3385  0.5778
  638MOL0     C84104   3.140  -0.820   1.393  0.2609  0.1861 -0.5106
  638MOL0     C84105   3.149  -0.880   1.535 -0.5255  0.0979  0.1632
  638MOL0     C84106   3.288  -0.854   1.616  0.1191 -0.7598  1.0251
  638MOL0     C84107   3.385  -0.745   1.561  0.2058  0.0084  0.3767
  638MOL0     O84108   3.514  -0.780   1.617 -0.6208 -0.1087  0.0292
  638MOL0     C84109   3.621  -0.745   1.550 -0.3307  0.6998 -0.2439
  638MOL0     C84110   3.707  -0.641   1.591  0.5031  0.3550  0.1836
  638MOL0     C84111   3.839  -0.629   1.547  0.9690  0.1848  0.5424
  638MOL0     C84112   3.886  -0.708   1.433 -0.1387 -0.0358  0.2649
  638MOL0     C84113   4.028  -0.698   1.377 -0.7148  0.6574  0.0125
  638MOL0     O84114   4.063  -0.778   1.269 -0.0210  0.0482 -0.3986
  638MOL0     C84115   4.189  -0.775   1.213 -0.1129  0.4750  0.6974
  638MOL0     C84116   4.300  -0.839   1.265 -0.0495 -0.7340 -0.3705
  638MOL0     C84117   4.424  -0.831   1.208  0.5716 -0.1142  0.4634
  638MOL0     C84118   4.441  -0.767   1.089  0.8866  0.6078  0.5989
  638MOL0     O84119   4.570  -0.767   1.042  0.5313 -0.4049  0.0490
  638MOL0     C84120   4.606  -0.669   0.942  0.7264 -0.0210 -0.0269
  638MOL0     C84121   4.755  -0.675   0.911 -0.2115  0.7552  0.1938
  638MOL0     C84122   4.783  -0.820   0.856  0.0319  0.6474 -0.6011
  638MOL0     C84123   4.725  -0.832   0.713  0.0654  0.0505  0.3349
  638MOL0     C84124   4.759  -0.962   0.629 -0.5599  0.0806 -0.0753
  638MOL0     C84125   4.909  -0.989   0.606  0.6829  0.1219  0.1867
  638MOL0     C84126   4.985  -0.878   0.527 -0.1519  0.9902  0.1471
  638MOL0     C84127   5.116  -0.941   0.481  0.6449  0.8612  0.9907
  638MOL0    Cl84128   5.110  -1.056   0.342  0.0914 -0.1906 -0.0358
  638MOL0     C84129   4.334  -0.702   1.030  0.2827 -0.3742 -0.0385
  638MOL0     C84130   4.210  -0.705   1.089 -0.2668 -0.2284  0.1246
  638MOL0     O84131   4.105  -0.634   1.443 -0.3596  0.2493  0.3084
  638MOL0     C84132   3.796  -0.805   1.388 -0.1836  0.1280  0.4800
  638MOL0     C84133   3.669  -0.820   1.446 -0.1742 -0.6744 -1.1110
  638MOL0     N84134   2.958  -0.970   1.290  0.1493 -0.3762  0.3081
  638MOL0     N84135   2.855  -0.949   1.213 -0.6751  0.0649 -0.4345
  638MOL0     C84136   2.742  -0.134   1.568 -0.4716  0.3815 -0.0982
  638MOL0     C84137   2.872  -0.071   1.584  0.7141 -0.4854  0.5005
  638MOL0     C84138   3.227   0.211   1.524 -0.3523 -0.1123  1.2844
  638MOL0     C84139   3.309   0.118   1.573 -0.0719 -0.1543 -0.2617
  638MOL0     C84140   3.437   0.154   1.625  0.2924 -0.7557  0.3622
  638MOL0     C84141   3.478   0.288   1.619 -0.2488  0.5751 -0.5423
  638MOL0     O84142   3.600   0.333   1.665  0.5209 -0.5596 -0.6042
  638MOL0     C84143   3.692   0.232   1.729 -0.1864 -0.0364 -0.3395
  638MOL0     C84144   3.823   0.297   1.762  0.7894  0.6125  0.0120
  638MOL0     C84145   3.908   0.320   1.645  0.1379 -0.0757 -0.4936
  638MOL0     C84146   4.045   0.373   1.684  0.2447 -0.3091 -0.0943
  638MOL0     C84147   4.052   0.507   1.740  0.3968 -0.0457 -0.6583
  638MOL0     C84148   4.065   0.619   1.780 -0.6668  1.8469  0.0184
  638MOL0     C84149   3.392   0.379   1.559 -0.5628  0.0584 -0.6163
  638MOL0     C84150   3.269   0.340   1.505  0.6616 -0.6196 -0.3532
  638MOL0     H84151   2.954  -0.026   1.256  0.9355  0.6258  0.3212
  638MOL0     H84152   2.717  -0.115   1.233  0.1484  3.0292  0.0272
  638MOL0     H84153   2.470  -0.215   1.591  1.4512 -1.0094  0.7555
  638MOL0     H84154   2.565  -0.358   1.568  1.4426 -0.5467 -1.9965
  638MOL0     H84155   2.310  -0.318   1.431 -1.2406 -0.0345  2.4293
  638MOL0     H84156   2.353  -0.434   1.556  1.0711 -1.2342  0.1592
  638MOL0     H84157   2.544  -0.524   1.426 -0.0132 -0.6055 -0.6175
  638MOL0     H84158   2.490  -0.433   1.285 -1.3629 -0.8556 -0.3512
  638MOL0     H84159   2.398  -0.693   1.378 -1.7313  0.2588  1.2480
  638MOL0     H84160   2.266  -0.570   1.363 -1.2095 -1.5263  0.6344
  638MOL0     H84161   2.317  -0.536   1.126  0.9880 -1.5678 -2.5635
  638MOL0     H84162   2.316  -0.720   1.153 -2.7591  0.2107  1.0096
  638MOL0     H84163   2.537  -0.530   1.109 -5.1091  1.9717 -0.0325
  638MOL0     H84164   2.490  -0.672   1.009 -0.5178  0.7996 -0.4009
  638MOL0     H84165   2.608  -0.686   1.290  0.8859  0.1779  0.0193
  638MOL0     H84166   2.535  -0.823   1.186 -1.0623  0.8424  1.3257
  638MOL0     H84167   2.755  -0.637   1.113 -1.4277 -0.0841  0.9865
  638MOL0     H84168   2.708  -0.784   1.026 -1.5132 -0.6356 -0.2023
  638MOL0     H84169   2.934  -0.634   1.290  2.0631  0.8021 -2.8431
  638MOL0     H84170   3.154  -0.712   1.404  0.9558  0.2340 -1.7034
  638MOL0     H84171   3.225  -0.856   1.335 -0.3890 -0.5134 -1.0467
  638MOL0     H84172   3.156  -0.989   1.523 -0.3831  0.2489 -1.2994
  638MOL0     H84173   3.065  -0.851   1.600 -0.2764  0.2499  0.4157
  638MOL0     H84174   3.276  -0.829   1.722 -0.0900 -0.5530  0.9552
  638MOL0     H84175   3.337  -0.951   1.614 -0.8473 -1.2943 -2.1691
  638MOL0     H84176   3.351  -0.646   1.594 -1.1451  0.0060 -0.8871
  638MOL0     H84177   3.403  -0.746   1.453 -0.0742  3.7076  0.1673
  638MOL0     H84178   3.685  -0.579   1.677 -2.5350  0.0230 -0.2235
  638MOL0     H84179   3.904  -0.551   1.585  1.1843  0.0951  0.3585
  638MOL0     H84180   4.282  -0.906   1.349  2.6033 -0.8467  0.1915
  638MOL0     H84181   4.505  -0.880   1.259 -0.0795 -0.3851  1.2547
  638MOL0     H84182   4.575  -0.566   0.961 -1.6396 -0.9386  1.7245
  638MOL0     H84183   4.547  -0.686   0.852 -0.3750  2.5560  0.1261
  638MOL0     H84184   4.819  -0.649   0.996  2.9217  0.7011 -1.9920
  638MOL0     H84185   4.778  -0.614   0.823 -0.9098  1.6318  0.5954
  638MOL0     H84186   4.743  -0.893   0.927  0.6464 -1.1689 -2.0330
  638MOL0     H84187   4.892  -0.827   0.852  0.0321 -0.1298  0.3460
  638MOL0     H84188   4.616  -0.817   0.709  0.2873  1.6321 -0.5469
  638MOL0     H84189   4.764  -0.756   0.645  2.0879 -1.4557 -0.3029
  638MOL0     H84190   4.705  -0.968   0.535 -1.2189  2.3192  0.1112
  638MOL0     H84191   4.710  -1.045   0.681 -0.4288 -1.1327 -1.8119
  638MOL0     H84192   4.917  -1.076   0.540  0.3506  0.2061  0.0306
  638MOL0     H84193   4.963  -1.002   0.700 -0.0503 -4.5373  0.1900
  638MOL0     H84194   4.919  -0.865   0.440 -2.4705 -2.5681  1.1903
  638MOL0     H84195   5.002  -0.784   0.581  2.5603  0.4689  0.3164
  638MOL0     H84196   5.149  -0.993   0.571 -0.0511  1.0911  1.3934
  638MOL0     H84197   5.190  -0.864   0.457 -1.6841  2.4301 -1.7923
  638MOL0     H84198   4.346  -0.652   0.934  1.5452 -0.3656  0.1058
  638MOL0     H84199   4.120  -0.665   1.042 -0.4789 -1.1694 -0.3071
  638MOL0     H84200   3.822  -0.878   1.312 -0.7887  0.3646  0.0378
  638MOL0     H84201   3.606  -0.906   1.427  0.1579 -0.8379 -1.4868
  638MOL0     H84202   2.684  -0.164   1.655  0.6249 -0.3585  0.3997
  638MOL0     H84203   2.902  -0.057   1.688 -2.1446 -1.0743  1.4882
  638MOL0     H84204   3.279   0.015   1.590 -0.3435 -0.3663 -1.8473
  638MOL0     H84205   3.505   0.080   1.668 -1.6819 -1.8310  1.7854
  638MOL0     H84206   3.723   0.154   1.659 -0.7311  1.9822 -2.9515
  638MOL0     H84207   3.643   0.190   1.818 -0.2128  1.5616  0.4445
  638MOL0     H84208   3.800   0.396   1.804 -2.1123 -0.0053  0.0570
  638MOL0     H84209   3.867   0.240   1.844 -0.6036  1.2148  1.2354
  638MOL0     H84210   3.856   0.386   1.575 -0.9747  0.0678  0.4396
  638MOL0     H84211   3.935   0.225   1.598 -0.9483  1.3278 -4.3475
  638MOL0     H84212   4.085   0.303   1.758  3.0621  2.2682  1.0422
  638MOL0     H84213   4.099   0.386   1.589 -0.2614  1.8670 -0.1455
  638MOL0     H84214   4.072   0.715   1.827 -1.6333  0.8905  2.2876
  638MOL0     H84215   3.411   0.486   1.570 -3.3124  0.6168 -0.6364
  638MOL0     H84216   3.202   0.403   1.448  0.3869  0.0963  0.7307
  639MOL0     O84217   0.797   2.443   2.810  0.6273  0.2893 -0.7320
  639MOL0     C84218   0.689   2.417   2.761  0.5932 -0.2328  0.5530
  639MOL0     O84219   0.569   2.444   2.819  0.2888  0.0525 -0.3652
  639MOL0     C84220   0.559   2.501   2.943 -0.1851 -0.1632 -0.0439
  639MOL0     C84221   0.511   2.413   3.044  0.2716  0.0039 -0.1676
  639MOL0     C84222   0.505   2.457   3.179 -0.4721 -1.4006 -0.6334
  639MOL0     C84223   0.543   2.586   3.216  0.5006 -0.2073  0.2923
  639MOL0     O84224   0.525   2.633   3.342  1.5177  0.2210 -0.3896
  639MOL0     C84225   0.496   2.772   3.368  0.0152 -0.6001 -1.2113
  639MOL0     C84226   0.363   2.812   3.312 -0.5969  0.3707  0.5052
  639MOL0     C84227   0.248   2.739   3.398  0.3502 -0.0547  0.1236
  639MOL0     C84228   0.115   2.815   3.403 -0.5603  0.4182  0.5564
  639MOL0     C84229   0.017   2.755   3.499 -0.1239  0.3610 -0.8404
  639MOL0     C84230  -0.116   2.832   3.513  0.3069 -0.0828 -0.6197
  639MOL0     C84231  -0.227   2.746   3.560 -0.6282 -0.5097 -0.5827
  639MOL0     C84232  -0.351   2.838   3.574  0.3087  0.5039 -0.6598
  639MOL0     N84233  -0.428   2.848   3.453 -0.5110  0.0060 -0.2727
  639MOL0     C84234  -0.460   2.966   3.384 -0.6525  0.5301  0.0147
  639MOL0     C84235  -0.549   2.942   3.284  0.3187 -0.0100 -0.1835
  639MOL0     C84236  -0.584   3.031   3.168  0.0319 -0.6529 -0.1430
  639MOL0     C84237  -0.496   2.997   3.047  0.3562 -0.6786 -0.7917
  639MOL0     C84238  -0.545   2.882   2.958  0.3047  0.2469 -0.0012
  639MOL0     C84239  -0.453   2.860   2.832 -0.0853  0.5830 -0.1766
  639MOL0     O84240  -0.327   2.791   2.863  0.6354  0.6574  0.7090
  639MOL0     C84241  -0.293   2.694   2.773  0.4411  0.4696 -0.1842
  639MOL0     C84242  -0.203   2.713   2.671 -0.2833  0.0639 -1.0846
  639MOL0     C84243  -0.178   2.617   2.581 -0.1396  0.2815  0.3050
  639MOL0     C84244  -0.243   2.489   2.584 -0.1685 -0.5185  0.6052
  639MOL0     C84245  -0.217   2.390   2.481  0.2038 -0.1299  0.1460
  639MOL0     O84246  -0.265   2.261   2.517  0.1238 -0.1553  0.0148
  639MOL0     C84247  -0.207   2.152   2.465 -0.0612  0.2287  0.8236
  639MOL0     C84248  -0.076   2.120   2.482  0.0895  0.6662  0.6606
  639MOL0     C84249  -0.025   2.002   2.430 -0.1834  0.2070  0.3924
  639MOL0     C84250  -0.112   1.918   2.357 -0.2952 -0.4834  0.0629
  639MOL0     O84251  -0.072   1.796   2.326  0.2598  0.5807 -0.2642
  639MOL0     C84252  -0.018   1.784   2.192  0.5215  0.8865  0.8534
  639MOL0     C84253   0.036   1.647   2.154  0.0926 -0.6720  0.1638
  639MOL0     C84254   0.165   1.604   2.226  0.9894  0.2839  0.5043
  639MOL0     C84255   0.287   1.656   2.156  0.0442  0.4212  0.7739
  639MOL0     C84256   0.415   1.630   2.236  0.1990  0.4521 -0.4183
  639MOL0     C84257   0.451   1.473   2.255  0.1844 -0.1766 -0.1982
  639MOL0     C84258   0.478   1.392   2.127 -0.3419 -0.0764  0.5820
  639MOL0     C84259   0.541   1.261   2.160  0.1163 -0.3223 -0.0853
  639MOL0    Cl84260   0.647   1.202   2.035  0.0098 -0.2390 -0.7242
  639MOL0     C84261  -0.252   1.951   2.352  0.8064  0.8843 -0.1755
  639MOL0     C84262  -0.297   2.075   2.398  0.6955  0.7870  0.4756
  639MOL0     O84263  -0.156   2.422   2.376 -0.2514 -0.1690 -0.1518
  639MOL0     C84264  -0.329   2.474   2.687  0.5558  1.4193 -0.2888
  639MOL0     C84265  -0.356   2.569   2.779  0.1103  0.2614 -0.0164
  639MOL0     N84266  -0.578   2.805   3.297  0.2785 -0.1923  0.5274
  639MOL0     N84267  -0.507   2.755   3.391 -0.3131  0.4534 -0.1713
  639MOL0     C84268   0.604   2.656   3.116  0.3427 -0.9841  0.3412
  639MOL0     C84269   0.610   2.622   2.980 -0.6128 -0.1525 -0.7961
  639MOL0     C84270   0.688   2.343   2.629  0.3022 -0.4931 -0.3555
  639MOL0     C84271   0.566   2.301   2.565 -0.0274 -0.1997  0.0732
  639MOL0     C84272   0.575   2.234   2.444  0.0060  0.4336 -0.0602
  639MOL0     C84273   0.693   2.218   2.379 -0.0685 -0.0330  1.1273
  639MOL0     O84274   0.709   2.174   2.249  0.2553 -0.2757 -0.2347
  639MOL0     C84275   0.654   2.259   2.149  0.1482  0.2929 -0.9644
  639MOL0     C84276   0.776   2.322   2.067 -0.2466 -0.7894 -0.1535
  639MOL0     C84277   0.745   2.365   1.925 -1.2278 -0.4503  0.8321
  639MOL0     C84278   0.613   2.438   1.900 -0.5712  0.2309 -0.1254
  639MOL0     C84279   0.489   2.362   1.907  0.6346 -0.4388 -0.2705
  639MOL0     C84280   0.389   2.295   1.907  0.1736  0.3511 -0.1734
  639MOL0     C84281   0.810   2.269   2.437 -0.0017 -1.1715 -0.3718
  639MOL0     C84282   0.809   2.330   2.566  0.0251  0.1919  0.0008
  639MOL0     H84283   0.485   2.308   3.030 -2.0859  0.3884  0.8537
  639MOL0     H84284   0.461   2.387   3.249 -0.5177 -2.0198 -1.2723
  639MOL0     H84285   0.576   2.839   3.331 -0.6705  0.3868 -0.9470
  639MOL0     H84286   0.487   2.795   3.474 -2.1347  1.5519 -1.7659
  639MOL0     H84287   0.358   2.798   3.204  2.5615  4.0339 -0.3235
  639MOL0     H84288   0.342   2.920   3.316  0.0450  0.4713  1.4044
  639MOL0     H84289   0.282   2.730   3.501 -0.3782  0.4268  0.4128
  639MOL0     H84290   0.234   2.641   3.352  0.3497 -0.3168  0.6801
  639MOL0     H84291   0.130   2.916   3.442 -1.7198  0.8626 -0.1116
  639MOL0     H84292   0.083   2.829   3.300  1.9081 -0.3163 -0.3702
  639MOL0     H84293   0.084   2.755   3.586  0.8543 -0.7423 -1.5687
  639MOL0     H84294  -0.009   2.661   3.449 -1.6725 -1.0155  2.2465
  639MOL0     H84295  -0.142   2.882   3.419 -1.3981  2.7578  1.2186
  639MOL0     H84296  -0.105   2.917   3.581 -0.6410  2.1253 -3.0586
  639MOL0     H84297  -0.236   2.664   3.488  0.6932 -0.0216 -1.3540
  639MOL0     H84298  -0.195   2.704   3.655  1.5906  0.0024 -1.0380
  639MOL0     H84299  -0.329   2.933   3.624 -0.0255  0.4416 -0.3935
  639MOL0     H84300  -0.430   2.790   3.632  0.3179  2.2148  0.8782
  639MOL0     H84301  -0.406   3.058   3.400  0.2187 -0.1351  1.0646
  639MOL0     H84302  -0.575   3.137   3.196 -0.3822 -1.6570  4.5034
  639MOL0     H84303  -0.689   3.024   3.140  0.1420  2.9640 -2.0836
  639MOL0     H84304  -0.395   2.978   3.083 -0.0359 -0.5018  0.4641
  639MOL0     H84305  -0.499   3.083   2.980  0.0734 -2.1171 -2.7217
  639MOL0     H84306  -0.535   2.792   3.019  0.2482 -2.1128 -3.1946
  639MOL0     H84307  -0.650   2.903   2.936  0.1030 -0.1475  0.5752
  639MOL0     H84308  -0.436   2.957   2.784 -0.5101 -0.6247 -2.9423
  639MOL0     H84309  -0.513   2.810   2.756 -0.5248  0.5184  0.2120
  639MOL0     H84310  -0.157   2.810   2.658  0.4671 -0.4542 -2.5622
  639MOL0     H84311  -0.127   2.637   2.487 -1.3410  1.0821 -0.2015
  639MOL0     H84312  -0.016   2.192   2.537 -1.0590  2.6637 -0.5776
  639MOL0     H84313   0.080   1.980   2.450  1.1009  3.5775 -1.7366
  639MOL0     H84314   0.060   1.859   2.181  3.0702 -1.9076 -2.5103
  639MOL0     H84315  -0.091   1.798   2.111 -1.2218 -0.1401  2.1857
  639MOL0     H84316   0.056   1.644   2.047  3.6306 -1.5372  0.7485
  639MOL0     H84317  -0.041   1.570   2.164 -1.0090  0.3918  0.2126
  639MOL0     H84318   0.162   1.495   2.221  0.4499  0.2859  0.6953
  639MOL0     H84319   0.176   1.644   2.328  3.8890  0.7160  0.1053
  639MOL0     H84320   0.290   1.618   2.054 -1.1043 -0.1212  0.9320
  639MOL0     H84321   0.285   1.765   2.144  2.0118  0.2595 -1.6370
  639MOL0     H84322   0.404   1.674   2.335  0.6286  1.8022 -0.9435
  639MOL0     H84323   0.496   1.685   2.187  0.5475  0.9900  0.7231
  639MOL0     H84324   0.380   1.414   2.313 -0.0429  0.5418  0.2713
  639MOL0     H84325   0.548   1.477   2.307  0.9140  0.9487 -1.5910
  639MOL0     H84326   0.382   1.371   2.079 -0.0763 -0.9631  0.4157
  639MOL0     H84327   0.541   1.453   2.061 -0.0696 -3.1614 -2.2345
  639MOL0     H84328   0.459   1.189   2.173 -2.5833  2.2657 -1.5434
  639MOL0     H84329   0.604   1.275   2.248  2.0350 -1.7358 -1.1608
  639MOL0     H84330  -0.321   1.878   2.311  0.0299  1.9420 -0.7676
  639MOL0     H84331  -0.402   2.100   2.410  0.9026  1.3828  1.1520
  639MOL0     H84332  -0.393   2.386   2.689  0.3889  1.4262 -2.5459
  639MOL0     H84333  -0.423   2.568   2.864  0.2096  0.6956  0.0688
  639MOL0     H84334   0.660   2.741   3.153 -0.6026 -1.3148  2.7263
  639MOL0     H84335   0.658   2.680   2.903  0.1673 -0.8536 -0.8561
  639MOL0     H84336   0.475   2.327   2.618 -0.2357 -0.8022  0.0181
  639MOL0     H84337   0.480   2.202   2.404 -1.1783  0.9600  2.1472
  639MOL0     H84338   0.598   2.345   2.187  5.4365  2.8388  2.2487
  639MOL0     H84339   0.593   2.198   2.081  1.3854 -1.5865 -0.4670
  639MOL0     H84340   0.812   2.410   2.122  3.3262 -0.9930 -1.8262
  639MOL0     H84341   0.860   2.251   2.065 -0.7073 -1.3208 -1.4087
  639MOL0     H84342   0.741   2.278   1.858 -0.8475 -1.1571  1.7078
  639MOL0     H84343   0.827   2.428   1.889 -2.8268  1.9276  1.1221
  639MOL0     H84344   0.614   2.523   1.969  1.7107  1.0452 -1.0655
  639MOL0     H84345   0.613   2.481   1.799 -0.4922  1.6497  0.4555
  639MOL0     H84346   0.299   2.240   1.888  1.3143 -1.2966 -0.9601
  639MOL0     H84347   0.911   2.257   2.400  0.5689 -1.4224  1.1784
  639MOL0     H84348   0.903   2.375   2.596 -0.0203 -0.3028  0.8889
  640MOL0     O84349   6.362   7.969   2.225 -0.2613  0.0504 -0.4132
  640MOL0     C84350   6.472   8.018   2.253 -0.3267 -1.2668  0.3404
  640MOL0     O84351   6.505   8.148   2.296 -0.5608  0.2270  0.4466
  640MOL0     C84352   6.394   8.231   2.287 -0.5376  0.3593  0.3052
  640MOL0     C84353   6.320   8.251   2.171  0.6948  0.3947 -0.2082
  640MOL0     C84354   6.200   8.327   2.171 -0.7738 -0.2594  0.5453
  640MOL0     C84355   6.170   8.407   2.283 -0.4992 -0.4170  0.0555
  640MOL0     O84356   6.050   8.479   2.310  0.0412 -0.0345  0.5781
  640MOL0     C84357   5.935   8.479   2.218 -0.6515  0.0405 -0.6015
  640MOL0     C84358   5.826   8.565   2.275 -0.1897 -0.0379 -0.1302
  640MOL0     C84359   5.724   8.587   2.167  0.7093  0.7998  0.6590
  640MOL0     C84360   5.608   8.673   2.222 -0.7349  0.0516 -0.9924
  640MOL0     C84361   5.487   8.689   2.136 -0.0937 -0.7265 -0.0497
  640MOL0     C84362   5.449   8.556   2.061 -0.7882  0.1507  0.0236
  640MOL0     C84363   5.307   8.558   2.011 -0.2615  0.1034 -1.0405
  640MOL0     C84364   5.277   8.657   1.902 -0.4439 -0.1957 -0.4205
  640MOL0     N84365   5.141   8.710   1.900 -0.0434 -0.3157 -0.6083
  640MOL0     C84366   5.095   8.819   1.832  0.7784 -0.0135 -0.1067
  640MOL0     C84367   4.963   8.811   1.842  0.6156 -0.1197  0.4867
  640MOL0     C84368   4.875   8.908   1.771  0.1308 -0.3470  0.4474
  640MOL0     C84369   4.720   8.873   1.782  0.6747  0.1950  0.4728
  640MOL0     C84370   4.631   8.998   1.776  0.2388  0.3832 -0.5823
  640MOL0     C84371   4.488   8.946   1.776 -0.3829  0.4682  0.4781
  640MOL0     O84372   4.417   9.056   1.730  0.8734  1.0389 -0.6503
  640MOL0     C84373   4.280   9.044   1.751 -0.5170  0.2345 -0.3212
  640MOL0     C84374   4.205   8.928   1.772  0.3898  0.3895  0.1082
  640MOL0     C84375   4.064   8.945   1.786  0.8916  0.1163 -0.6392
  640MOL0     C84376   3.990   9.063   1.766 -0.4243  0.5333 -0.6229
  640MOL0     C84377   3.847   9.060   1.789  0.3631 -0.7936  1.0760
  640MOL0     O84378   3.787   8.939   1.802 -0.6866 -0.5514  0.0100
  640MOL0     C84379   3.652   8.940   1.777  0.2792 -0.2805 -0.4020
  640MOL0     C84380   3.569   8.916   1.887  0.3014 -0.4075 -0.0855
  640MOL0     C84381   3.430   8.903   1.873 -0.1855  0.3548 -0.4182
  640MOL0     C84382   3.363   8.915   1.753 -0.1183  0.2340 -0.1496
  640MOL0     O84383   3.236   8.883   1.731  0.2292 -0.2936  0.5918
  640MOL0     C84384   3.143   8.892   1.845  0.0371  0.2057  1.3177
  640MOL0     C84385   3.003   8.836   1.804 -0.6095  0.6607  0.3757
  640MOL0     C84386   2.935   8.893   1.680  0.6362  0.5795 -0.2577
  640MOL0     C84387   2.809   8.821   1.648 -0.7485  1.1206  0.1205
  640MOL0     C84388   2.733   8.886   1.533 -0.4833 -0.6175  0.3282
  640MOL0     C84389   2.773   8.822   1.404  0.6131 -0.1925  0.4746
  640MOL0     C84390   2.745   8.922   1.292 -0.3481  0.1224 -0.0553
  640MOL0     C84391   2.793   8.888   1.151  0.3038  0.2405  1.0488
  640MOL0    Cl84392   2.740   8.723   1.087 -0.3456  0.2131 -0.2040
  640MOL0     C84393   3.439   8.957   1.641 -0.6143 -0.9079 -0.1710
  640MOL0     C84394   3.580   8.968   1.652 -0.2791 -0.1884 -0.1377
  640MOL0     O84395   3.789   9.169   1.779  0.3212 -0.3091 -0.5628
  640MOL0     C84396   4.063   9.176   1.733  0.1158  0.2086 -0.4512
  640MOL0     C84397   4.205   9.161   1.722 -0.1766 -0.1991  0.8959
  640MOL0     N84398   4.925   8.696   1.905 -0.2349 -0.3522  0.0526
  640MOL0     N84399   5.030   8.633   1.930 -0.6284 -0.9064 -0.2477
  640MOL0     C84400   6.265   8.405   2.393 -0.0884  0.1171  0.3327
  640MOL0     C84401   6.369   8.317   2.396 -1.0165  0.3054 -0.5927
  640MOL0     C84402   6.588   7.929   2.220 -0.4325 -0.9100  0.3119
  640MOL0     C84403   6.569   7.800   2.183  0.2965  0.2817  1.0116
  640MOL0     C84404   6.664   7.707   2.156 -0.0204  0.8333  0.5183
  640MOL0     C84405   6.795   7.758   2.148  1.0032 -0.3662  0.3681
  640MOL0     O84406   6.899   7.674   2.112 -0.7244  0.5734  0.2064
  640MOL0     C84407   6.975   7.634   2.230  0.4675  0.6113 -0.5485
  640MOL0     C84408   7.114   7.672   2.203 -0.1006  0.1921  0.0479
  640MOL0     C84409   7.206   7.615   2.311 -0.4349 -0.5229 -0.9881
  640MOL0     C84410   7.355   7.662   2.297  0.0835  0.5964  0.0620
  640MOL0     C84411   7.386   7.783   2.230 -0.3227 -0.7117  0.2093
  640MOL0     C84412   7.423   7.887   2.177  0.2125 -0.9698  0.2693
  640MOL0     C84413   6.819   7.895   2.173  0.1456  0.5714  0.1798
  640MOL0     C84414   6.720   7.977   2.219  0.0210 -0.6317 -0.5398
  640MOL0     H84415   6.345   8.182   2.091  1.3736 -0.9471  1.1113
  640MOL0     H84416   6.131   8.329   2.087  0.0228 -0.6340 -0.1417
  640MOL0     H84417   5.910   8.378   2.186 -1.1031  0.0342 -0.2354
  640MOL0     H84418   5.964   8.538   2.130  1.1868  2.5590  1.5138
  640MOL0     H84419   5.882   8.656   2.297  1.6245 -0.9639 -0.6866
  640MOL0     H84420   5.788   8.524   2.370 -0.1860 -0.0098 -0.1161
  640MOL0     H84421   5.680   8.489   2.147  2.9824  0.0878 -1.3223
  640MOL0     H84422   5.762   8.625   2.072 -1.2473 -1.4935 -1.1712
  640MOL0     H84423   5.586   8.631   2.320  0.6142  0.2916 -0.5591
  640MOL0     H84424   5.645   8.774   2.241 -0.4669 -0.2559  0.1758
  640MOL0     H84425   5.524   8.764   2.066  0.5547  1.3407  2.3377
  640MOL0     H84426   5.395   8.718   2.188 -1.6818 -3.0160 -1.3780
  640MOL0     H84427   5.458   8.477   2.136 -0.3783 -0.2642 -0.4483
  640MOL0     H84428   5.522   8.527   1.984  0.1760  1.0369  0.5756
  640MOL0     H84429   5.283   8.458   1.975 -1.2628 -0.9670  2.1972
  640MOL0     H84430   5.235   8.579   2.091 -0.0124 -2.5008 -0.0306
  640MOL0     H84431   5.304   8.607   1.808  1.6387 -1.9654  0.9997
  640MOL0     H84432   5.355   8.734   1.905  1.5336 -2.0841  2.9033
  640MOL0     H84433   5.150   8.895   1.777  0.1233  1.0958  0.7325
  640MOL0     H84434   4.899   8.911   1.664 -1.1777  1.3644  0.1625
  640MOL0     H84435   4.886   9.007   1.815 -3.3655  1.1632 -1.6621
  640MOL0     H84436   4.692   8.814   1.870 -1.1411 -2.3804 -1.6725
  640MOL0     H84437   4.694   8.811   1.696  0.6929  0.8651 -0.0231
  640MOL0     H84438   4.651   9.062   1.862  2.8811  0.9269 -1.5040
  640MOL0     H84439   4.653   9.061   1.689  1.7759  1.1452  0.3099
  640MOL0     H84440   4.457   8.906   1.873 -0.0811 -0.7289  0.1038
  640MOL0     H84441   4.484   8.870   1.697 -0.6572  1.7002 -0.7304
  640MOL0     H84442   4.245   8.828   1.780 -1.4239 -0.2643  1.7619
  640MOL0     H84443   4.005   8.855   1.799  0.4217  0.6444  1.1538
  640MOL0     H84444   3.609   8.911   1.987  1.6665 -0.1105 -0.5851
  640MOL0     H84445   3.375   8.887   1.965  1.4344 -1.8424  0.2499
  640MOL0     H84446   3.121   8.996   1.873 -0.5609  0.0676  1.3679
  640MOL0     H84447   3.181   8.838   1.932  0.9192  0.2404  0.9655
  640MOL0     H84448   2.933   8.837   1.888 -2.3181  1.9135 -0.9984
  640MOL0     H84449   3.030   8.731   1.788 -0.9789  0.6576 -0.2358
  640MOL0     H84450   3.012   8.889   1.603  2.5915  1.4261  1.5520
  640MOL0     H84451   2.912   8.997   1.706  1.7346  0.8062 -0.1268
  640MOL0     H84452   2.842   8.716   1.641 -1.9799  0.2750  4.2955
  640MOL0     H84453   2.758   8.831   1.744 -0.7040  0.0599  0.2757
  640MOL0     H84454   2.753   8.993   1.535  0.1977 -0.7334 -0.2258
  640MOL0     H84455   2.624   8.877   1.534 -0.6453  0.2160 -2.5460
  640MOL0     H84456   2.739   8.721   1.379  3.6754 -0.5384 -3.3050
  640MOL0     H84457   2.881   8.805   1.411  0.6129 -0.1728  0.5352
  640MOL0     H84458   2.636   8.926   1.280 -0.8627 -1.9098  2.8019
  640MOL0     H84459   2.780   9.021   1.320  0.3506 -0.3731  0.9000
  640MOL0     H84460   2.900   8.907   1.140 -0.2084  1.8178 -3.6400
  640MOL0     H84461   2.757   8.963   1.080  0.6797 -0.1045  0.4848
  640MOL0     H84462   3.394   8.971   1.544 -0.3869  1.2865 -0.0028
  640MOL0     H84463   3.636   9.003   1.566  0.6441 -1.6855 -0.1774
  640MOL0     H84464   4.014   9.271   1.712 -0.0024 -0.0475 -1.3758
  640MOL0     H84465   4.262   9.250   1.699  0.9560 -0.8906  0.9509
  640MOL0     H84466   6.247   8.475   2.475  0.4315 -1.2261  1.6415
  640MOL0     H84467   6.438   8.326   2.479 -0.2023 -0.7476 -1.1203
  640MOL0     H84468   6.469   7.757   2.175  0.5328 -0.0122 -1.3121
  640MOL0     H84469   6.640   7.601   2.149  0.7292  0.4430  3.0279
  640MOL0     H84470   6.973   7.526   2.245  0.2967  0.5849 -0.7574
  640MOL0     H84471   6.938   7.684   2.320 -2.8201 -0.9062 -0.9442
  640MOL0     H84472   7.144   7.647   2.101  1.3314  1.3283  0.1518
  640MOL0     H84473   7.121   7.781   2.212 -1.8279  0.2030  1.8583
  640MOL0     H84474   7.199   7.506   2.304 -0.3084 -0.5119 -1.3015
  640MOL0     H84475   7.165   7.648   2.406  2.7714  2.3006 -0.3776
  640MOL0     H84476   7.414   7.651   2.389  1.5345  0.8904 -0.7928
  640MOL0     H84477   7.389   7.577   2.237 -0.7936  0.5691 -0.4135
  640MOL0     H84478   7.433   7.980   2.125 -1.3189 -0.4360  0.8745
  640MOL0     H84479   6.918   7.927   2.143  0.1452 -1.0213 -1.7929
  640MOL0     H84480   6.745   8.078   2.248  1.4430 -1.5079  1.4833
  641MOL0     O84481   6.949   9.583   8.596 -0.2392  0.5793  0.6543
  641MOL0     C84482   7.006   9.636   8.691 -0.2201  0.0492  0.3947
  641MOL0     O84483   6.952   9.733   8.765  0.1367  0.3318  0.3782
  641MOL0     C84484   6.832   9.779   8.731  1.1081 -0.3615 -0.0745
  641MOL0     C84485   6.803   9.851   8.614 -0.6429 -0.1392  0.7526
  641MOL0     C84486   6.673   9.888   8.577  0.8922 -0.8191 -0.4523
  641MOL0     C84487   6.565   9.846   8.654  0.1575 -0.5977 -0.0769
  641MOL0     O84488   6.444   9.892   8.617  0.1766 -0.3140  0.1298
  641MOL0     C84489   6.344   9.911   8.716  1.0345 -0.9851  0.0202
  641MOL0     C84490   6.222   9.978   8.660  1.0877 -0.3471  0.5338
  641MOL0     C84491   6.171   9.906   8.530  0.5592 -0.7983  0.1610
  641MOL0     C84492   6.018   9.910   8.543  1.1146  0.0134  0.5191
  641MOL0     C84493   5.959   9.835   8.414  1.1179 -0.2464  0.6433
  641MOL0     C84494   5.810   9.837   8.413  0.6331  0.7019 -0.8315
  641MOL0     C84495   5.736   9.967   8.409 -0.8624 -0.2476 -0.5630
  641MOL0     C84496   5.752  10.058   8.279 -0.1711 -0.1512 -0.5582
  641MOL0     N84497   5.687  10.007   8.156  0.3963  0.0199 -0.0782
  641MOL0     C84498   5.752  10.010   8.032  1.1251  0.0509 -0.5675
  641MOL0     C84499   5.650   9.998   7.944 -0.0213  0.3636 -0.3048
  641MOL0     C84500   5.667   9.999   7.798  0.4481 -0.6820  0.2122
  641MOL0     C84501   5.612  10.134   7.753 -0.1446 -0.6714 -0.3180
  641MOL0     C84502   5.622  10.147   7.595  0.6176 -0.2760 -0.1102
  641MOL0     C84503   5.547  10.274   7.551 -0.7962  0.3957  0.4651
  641MOL0     O84504   5.546  10.278   7.402  0.0617 -0.5157  0.3563
  641MOL0     C84505   5.484  10.388   7.347  0.8397 -0.0209 -0.1862
  641MOL0     C84506   5.387  10.462   7.422 -0.1349  0.2243 -0.5560
  641MOL0     C84507   5.335  10.580   7.375  0.5103 -0.1102  1.0897
  641MOL0     C84508   5.366  10.623   7.239  0.4937 -0.7792  0.4345
  641MOL0     C84509   5.306  10.753   7.203  0.0925  0.0324 -0.7377
  641MOL0     O84510   5.283  10.778   7.070 -0.3152  0.3424  0.1692
  641MOL0     C84511   5.216  10.887   7.023  0.6100  0.4794  0.3517
  641MOL0     C84512   5.108  10.858   6.940 -0.2505 -0.1519  0.2645
  641MOL0     C84513   5.023  10.957   6.893  0.2867 -0.2691 -0.3012
  641MOL0     C84514   5.045  11.094   6.917  0.3381  0.3910  0.6046
  641MOL0     O84515   4.956  11.194   6.900  0.6054  0.1480  0.0884
  641MOL0     C84516   4.841  11.186   6.812 -0.2137 -0.2807 -0.2725
  641MOL0     C84517   4.849  11.302   6.704  1.0663  0.1487  0.7963
  641MOL0     C84518   4.969  11.295   6.612 -0.5909  0.0365  0.1596
  641MOL0     C84519   4.988  11.415   6.518 -0.1543  0.1921 -0.8220
  641MOL0     C84520   5.028  11.552   6.580  0.5982  0.3058 -0.3046
  641MOL0     C84521   5.124  11.555   6.698  0.5844  0.0203  0.7388
  641MOL0     C84522   5.252  11.476   6.664  0.0491  0.6198 -0.9016
  641MOL0     C84523   5.333  11.446   6.787  0.2689  0.3062  0.0433
  641MOL0    Cl84524   5.426  11.299   6.762  0.0827  0.0848  0.2839
  641MOL0     C84525   5.163  11.126   6.997 -0.4120 -0.4425  0.4056
  641MOL0     C84526   5.251  11.023   7.046  0.8891 -0.4087  0.4806
  641MOL0     O84527   5.273  10.830   7.293  0.5743 -0.7333  0.4264
  641MOL0     C84528   5.440  10.549   7.148 -0.3747  0.2657  0.5619
  641MOL0     C84529   5.495  10.425   7.209 -0.1900 -0.8261 -0.3930
  641MOL0     N84530   5.527   9.986   8.013  0.1446  0.1107 -1.2253
  641MOL0     N84531   5.550   9.993   8.140  0.3352 -0.3566 -1.3574
  641MOL0     C84532   6.588   9.764   8.761  0.1732  0.8618  0.8655
  641MOL0     C84533   6.719   9.737   8.805  0.3823  0.3394  0.0322
  641MOL0     C84534   7.149   9.593   8.718  0.0143 -0.8833 -0.3913
  641MOL0     C84535   7.201   9.471   8.659  0.4022  0.0210 -0.7564
  641MOL0     C84536   7.331   9.433   8.678  0.6418 -0.1581  1.2655
  641MOL0     C84537   7.416   9.508   8.759  0.2948 -0.6118  0.1308
  641MOL0     O84538   7.541   9.462   8.769  0.4878  0.7182  0.2547
  641MOL0     C84539   7.639   9.563   8.768 -0.0450  0.1953 -0.2547
  641MOL0     C84540   7.781   9.497   8.733 -0.6651  0.4660  0.2986
  641MOL0     C84541   7.836   9.428   8.855 -0.5185  0.6716  0.2589
  641MOL0     C84542   7.975   9.372   8.835  0.4721  0.2143 -0.0810
  641MOL0     C84543   8.071   9.483   8.836  0.1373  0.1639  0.2118
  641MOL0     C84544   8.145   9.578   8.841 -0.5439 -0.0900  0.1845
  641MOL0     C84545   7.365   9.616   8.829  0.4927  0.1658 -0.2754
  641MOL0     C84546   7.229   9.666   8.813 -0.2366  0.1808  0.5006
  641MOL0     H84547   6.882   9.879   8.546 -2.4102  2.0116 -0.5461
  641MOL0     H84548   6.657   9.939   8.482  0.1896 -1.1567 -0.5283
  641MOL0     H84549   6.384   9.976   8.795  0.3330 -1.1142  0.4858
  641MOL0     H84550   6.324   9.816   8.766  2.6272 -2.0772 -1.3108
  641MOL0     H84551   6.245  10.083   8.640  0.3940  0.1095  2.0142
  641MOL0     H84552   6.146   9.961   8.737  0.9607 -1.8489  0.1184
  641MOL0     H84553   6.205   9.803   8.520  1.4393 -0.5390  0.3934
  641MOL0     H84554   6.214   9.954   8.441  2.6660 -2.8525 -0.0135
  641MOL0     H84555   5.985   9.861   8.635  1.1864 -0.1257  0.4706
  641MOL0     H84556   5.993  10.015   8.560  2.4613  0.1523  1.8604
  641MOL0     H84557   5.995   9.732   8.416 -0.2208 -0.7170  1.7464
  641MOL0     H84558   5.996   9.876   8.319 -1.8198 -2.0657 -1.4347
  641MOL0     H84559   5.774   9.793   8.507 -0.9816  1.6477 -0.9582
  641MOL0     H84560   5.774   9.767   8.337  1.6986 -2.7142  1.5458
  641MOL0     H84561   5.631   9.950   8.434 -1.0452  0.6713 -0.6918
  641MOL0     H84562   5.778  10.023   8.493 -1.9803  0.2697 -0.3296
  641MOL0     H84563   5.851  10.093   8.250 -0.2249  0.3021 -0.2159
  641MOL0     H84564   5.689  10.143   8.309 -0.5502 -1.9603  4.6837
  641MOL0     H84565   5.857  10.028   8.013  1.1209  0.9031  0.1669
  641MOL0     H84566   5.619   9.915   7.747 -1.7085  1.5928 -1.7883
  641MOL0     H84567   5.774  10.001   7.776  0.4136 -1.2616 -0.0321
  641MOL0     H84568   5.670  10.215   7.797 -0.0072 -0.2472 -1.2396
  641MOL0     H84569   5.508  10.153   7.783 -0.0242  2.3002 -1.4011
  641MOL0     H84570   5.726  10.149   7.560  0.1370  0.8860 -1.6052
  641MOL0     H84571   5.566  10.069   7.543  0.0090  0.0911 -0.0109
  641MOL0     H84572   5.596  10.362   7.594  0.2729  0.7755 -1.4097
  641MOL0     H84573   5.443  10.268   7.584 -0.9894 -3.5466 -0.3355
  641MOL0     H84574   5.371  10.451   7.529 -2.6935  1.5637 -0.7456
  641MOL0     H84575   5.267  10.631   7.441 -2.3664  0.1331 -1.8095
  641MOL0     H84576   5.079  10.756   6.914  2.1732 -1.1385  1.2010
  641MOL0     H84577   4.931  10.916   6.851  0.5081 -0.7945 -0.2878
  641MOL0     H84578   4.752  11.196   6.874 -0.7205 -0.2889 -0.9986
  641MOL0     H84579   4.821  11.089   6.765 -0.7199 -0.3655  0.1148
  641MOL0     H84580   4.848  11.397   6.759  0.0874 -0.3521  1.6796
  641MOL0     H84581   4.754  11.300   6.650  2.3478  0.9490 -1.6335
  641MOL0     H84582   4.941  11.207   6.554  1.4106  0.3432 -1.3836
  641MOL0     H84583   5.061  11.264   6.662 -0.8907 -0.7582  0.2304
  641MOL0     H84584   5.072  11.384   6.455  2.3083 -2.8824  3.3996
  641MOL0     H84585   4.901  11.433   6.455 -0.3395  1.2267 -0.2959
  641MOL0     H84586   4.934  11.595   6.617 -0.5555 -0.7033 -1.9046
  641MOL0     H84587   5.065  11.619   6.502  0.2524 -0.8983 -1.5506
  641MOL0     H84588   5.070  11.504   6.779 -2.7965  1.8539 -0.1829
  641MOL0     H84589   5.149  11.656   6.731 -0.3151  0.8495 -0.9582
  641MOL0     H84590   5.225  11.385   6.609 -3.0327  0.4892  0.5716
  641MOL0     H84591   5.307  11.549   6.604 -1.7029  3.4853  0.7053
  641MOL0     H84592   5.271  11.426   6.874 -0.8796 -2.8237 -1.3440
  641MOL0     H84593   5.401  11.523   6.825  0.2618 -0.7779  2.4174
  641MOL0     H84594   5.183  11.224   7.040 -0.1436 -0.6018  0.6482
  641MOL0     H84595   5.334  11.044   7.113 -0.1017 -0.1183  1.6653
  641MOL0     H84596   5.461  10.583   7.047  0.9675 -0.5062  0.5494
  641MOL0     H84597   5.548  10.355   7.144  2.3389  2.5031 -2.2170
  641MOL0     H84598   6.495   9.734   8.809 -1.1751  0.5113 -1.8094
  641MOL0     H84599   6.731   9.677   8.895  0.1865  0.2362 -0.0099
  641MOL0     H84600   7.145   9.402   8.597 -1.9673  1.0165  0.1928
  641MOL0     H84601   7.356   9.337   8.633 -0.5003  0.7512 -1.5560
  641MOL0     H84602   7.642   9.602   8.870  0.4209 -0.6386  0.0593
  641MOL0     H84603   7.611   9.645   8.701  0.6678  0.0663 -0.7262
  641MOL0     H84604   7.771   9.429   8.648  1.1156  0.5231  0.0130
  641MOL0     H84605   7.855   9.571   8.702  1.4903 -0.9657  1.6854
  641MOL0     H84606   7.762   9.351   8.876  0.2887 -0.0177  0.6434
  641MOL0     H84607   7.833   9.500   8.937  0.5977 -0.8694  1.7350
  641MOL0     H84608   8.001   9.308   8.920  0.3989  1.3007  0.7857
  641MOL0     H84609   7.988   9.320   8.740  3.8346  0.7674 -0.0445
  641MOL0     H84610   8.195   9.673   8.841 -2.7380  1.1351  0.6124
  641MOL0     H84611   7.425   9.668   8.903  0.8118 -0.6758  0.0813
  641MOL0     H84612   7.188   9.744   8.877 -2.3301  0.6359 -1.2768
  642MOL0     O84613  10.974   1.823   3.512 -0.5214 -0.8032  0.0378
  642MOL0     C84614  10.933   1.936   3.487  0.7703  1.0732 -0.3822
  642MOL0     O84615  10.984   2.026   3.390  0.0150  0.1571 -0.1394
  642MOL0     C84616  11.105   2.007   3.325  0.1181 -0.1367 -0.0455
  642MOL0     C84617  11.088   1.994   3.194 -0.0742  0.9257  0.5278
  642MOL0     C84618  11.202   1.977   3.115 -0.3383  0.6476 -0.9186
  642MOL0     C84619  11.332   1.966   3.171 -0.3788 -0.8632 -0.1460
  642MOL0     O84620  11.456   1.972   3.110  0.8108  0.3340  0.7980
  642MOL0     C84621  11.462   2.007   2.972  0.1832 -0.2997 -0.4957
  642MOL0     C84622  11.440   2.155   2.935  0.2428 -0.1270 -0.4927
  642MOL0     C84623  11.456   2.172   2.782 -0.1363  0.0007  0.3357
  642MOL0     C84624  11.391   2.299   2.730 -0.7908 -0.2593 -0.9150
  642MOL0     C84625  11.450   2.428   2.786  0.1837 -0.2996 -0.4069
  642MOL0     C84626  11.349   2.543   2.785  0.7817 -0.3937  0.2263
  642MOL0     C84627  11.389   2.671   2.848 -0.8575 -0.2428 -0.0936
  642MOL0     C84628  11.417   2.675   3.006  0.3603  1.3777 -1.0816
  642MOL0     N84629  11.310   2.592   3.077  0.4323  0.3931 -0.3616
  642MOL0     C84630  11.179   2.622   3.077  0.2070  0.2055 -0.1790
  642MOL0     C84631  11.116   2.518   3.131 -0.5513 -0.1843 -0.0959
  642MOL0     C84632  10.972   2.523   3.158  0.3445 -0.5287  0.5665
  642MOL0     C84633  10.919   2.380   3.189 -0.3342 -0.5585  0.1133
  642MOL0     C84634  10.908   2.341   3.336  0.0814  1.0232 -0.0379
  642MOL0     C84635  10.786   2.401   3.415  0.6282 -0.3515  0.0439
  642MOL0     O84636  10.677   2.326   3.354  0.5228 -0.0468 -0.5843
  642MOL0     C84637  10.557   2.389   3.344  0.2470 -0.4420  0.1592
  642MOL0     C84638  10.529   2.513   3.412  0.4537 -0.6393  0.1436
  642MOL0     C84639  10.396   2.562   3.411  0.5087 -0.5093 -0.5233
  642MOL0     C84640  10.299   2.516   3.325  0.9298  0.0858 -0.6865
  642MOL0     C84641  10.166   2.578   3.309 -0.3622  0.7379  0.1762
  642MOL0     O84642  10.069   2.512   3.243 -0.3892 -0.1577  0.1559
  642MOL0     C84643   9.964   2.582   3.201  0.1069 -0.2236 -0.7912
  642MOL0     C84644   9.880   2.641   3.298  0.4097  0.4716  0.6743
  642MOL0     C84645   9.777   2.726   3.251 -0.4865 -0.0999  0.3860
  642MOL0     C84646   9.758   2.751   3.116 -0.0060 -0.9120 -0.3744
  642MOL0     O84647   9.667   2.848   3.069  0.2785  0.6516 -0.2760
  642MOL0     C84648   9.582   2.927   3.157  0.7441 -0.2538 -0.6940
  642MOL0     C84649   9.656   3.040   3.221 -0.6725  0.3332  0.1199
  642MOL0     C84650   9.738   3.117   3.111  0.1866  0.4643 -0.0494
  642MOL0     C84651   9.827   3.209   3.187  0.0035 -0.5552 -0.3978
  642MOL0     C84652   9.867   3.331   3.100  0.0833 -0.1057  1.1881
  642MOL0     C84653   9.913   3.454   3.189  0.2697 -0.0916  0.7838
  642MOL0     C84654   9.939   3.590   3.111  0.1106  0.1532  0.4057
  642MOL0     C84655   9.958   3.721   3.179 -0.1551  0.2529 -0.1988
  642MOL0    Cl84656  10.129   3.729   3.256 -0.0195  0.1113  0.4576
  642MOL0     C84657   9.838   2.695   3.023  0.7522  0.3683  0.0492
  642MOL0     C84658   9.940   2.611   3.062 -0.0559  0.1889  0.3183
  642MOL0     O84659  10.154   2.687   3.362  0.4769 -0.9409  0.3398
  642MOL0     C84660  10.324   2.390   3.263 -0.2118  1.0196 -0.0455
  642MOL0     C84661  10.450   2.334   3.269  0.1251 -0.8715 -0.1290
  642MOL0     N84662  11.209   2.419   3.161  0.9121  0.1286  0.0157
  642MOL0     N84663  11.321   2.466   3.126  0.5187  0.3085  0.6286
  642MOL0     C84664  11.336   1.977   3.308 -0.4415 -0.3656  0.3239
  642MOL0     C84665  11.227   1.992   3.390  0.1753 -0.0111  0.7097
  642MOL0     C84666  10.820   1.975   3.570 -0.9293 -0.4770 -0.0434
  642MOL0     C84667  10.806   1.926   3.701  0.3455 -0.6912  0.7913
  642MOL0     C84668  10.691   1.959   3.771 -0.8840 -0.1632 -0.7365
  642MOL0     C84669  10.589   2.030   3.714 -0.5684 -0.2429  0.4069
  642MOL0     O84670  10.475   2.038   3.791  0.3489  0.2595 -0.3919
  642MOL0     C84671  10.360   2.117   3.738 -0.9164  0.1689  0.4931
  642MOL0     C84672  10.292   2.052   3.614 -0.2277 -0.2265 -0.4883
  642MOL0     C84673  10.188   2.150   3.562  0.1568  0.3885 -0.0619
  642MOL0     C84674  10.084   2.097   3.456 -0.8524  1.0297  0.0303
  642MOL0     C84675  10.043   1.954   3.487  0.3044 -0.0959 -0.1555
  642MOL0     C84676  10.023   1.841   3.528  0.4786 -1.0017  0.6109
  642MOL0     C84677  10.609   2.098   3.598  0.7298 -0.1581 -0.0009
  642MOL0     C84678  10.721   2.063   3.521  0.3454 -0.4808  0.2378
  642MOL0     H84679  10.991   1.993   3.146  0.2807  0.6353 -0.2008
  642MOL0     H84680  11.185   1.972   3.008  0.8605 -0.6978 -1.0737
  642MOL0     H84681  11.393   1.946   2.913  3.0821 -2.1595 -2.2629
  642MOL0     H84682  11.558   1.987   2.922  0.8326  1.3494  0.0430
  642MOL0     H84683  11.517   2.214   2.985 -0.5960  0.4495  0.1392
  642MOL0     H84684  11.347   2.189   2.980 -0.6510 -1.7776 -1.0226
  642MOL0     H84685  11.416   2.081   2.737  0.4315 -2.0895  3.6708
  642MOL0     H84686  11.565   2.166   2.771 -0.1891 -0.2538 -0.0451
  642MOL0     H84687  11.401   2.296   2.621  2.3187 -1.5744 -0.6834
  642MOL0     H84688  11.284   2.307   2.753 -0.5105  3.0499 -0.2124
  642MOL0     H84689  11.538   2.454   2.726  0.2552  1.9549  0.5760
  642MOL0     H84690  11.495   2.418   2.885  0.8022  0.3991 -0.6047
  642MOL0     H84691  11.251   2.518   2.827  0.7850 -0.0304  0.4566
  642MOL0     H84692  11.334   2.564   2.679 -1.7982 -1.1298  0.3651
  642MOL0     H84693  11.483   2.697   2.798 -0.0433  1.1203  1.9684
  642MOL0     H84694  11.315   2.749   2.829  1.6114  1.9402 -1.4355
  642MOL0     H84695  11.405   2.775   3.050  0.9327  1.0613 -0.1827
  642MOL0     H84696  11.516   2.635   3.028 -1.3738 -1.3514  2.7624
  642MOL0     H84697  11.134   2.720   3.069  2.7234  1.6874  1.8645
  642MOL0     H84698  10.931   2.555   3.062  0.7327 -2.8237 -0.4245
  642MOL0     H84699  10.941   2.600   3.230 -0.8549 -0.8013  0.3602
  642MOL0     H84700  10.974   2.300   3.139 -2.4240 -1.5633 -0.6918
  642MOL0     H84701  10.816   2.369   3.152  0.0268  1.5665 -1.6796
  642MOL0     H84702  10.907   2.233   3.349  1.0354  0.9077 -0.7801
  642MOL0     H84703  10.991   2.393   3.386  1.8124 -1.4731 -0.1344
  642MOL0     H84704  10.775   2.508   3.391 -1.4399 -0.7389 -1.0361
  642MOL0     H84705  10.793   2.376   3.521 -0.3006 -2.6869 -0.3742
  642MOL0     H84706  10.608   2.550   3.477  1.1571 -2.0375  0.1332
  642MOL0     H84707  10.365   2.651   3.466 -1.9678 -1.1295 -0.7624
  642MOL0     H84708   9.898   2.617   3.403  3.1574  1.0546  0.4225
  642MOL0     H84709   9.720   2.775   3.329 -0.3121  0.2381  0.3022
  642MOL0     H84710   9.532   2.861   3.228  1.9349  0.5802  0.9858
  642MOL0     H84711   9.508   2.970   3.089 -0.2616 -2.3182 -0.9845
  642MOL0     H84712   9.727   3.011   3.299  1.3656  1.2932 -1.2874
  642MOL0     H84713   9.585   3.109   3.268 -2.0033 -0.7480 -0.2247
  642MOL0     H84714   9.660   3.165   3.051 -2.4827  0.0595  2.8681
  642MOL0     H84715   9.796   3.056   3.041 -1.5112 -1.1822 -0.0934
  642MOL0     H84716   9.779   3.236   3.282  0.2542 -1.1738 -0.0900
  642MOL0     H84717   9.918   3.150   3.199  0.1514 -0.7172 -2.0213
  642MOL0     H84718   9.779   3.365   3.045  2.5001  1.9588 -1.7318
  642MOL0     H84719   9.947   3.306   3.030 -0.2524 -1.2055  1.1768
  642MOL0     H84720  10.002   3.434   3.249  0.2627  0.4147  0.9742
  642MOL0     H84721   9.832   3.472   3.260 -0.9178  0.3861 -0.6325
  642MOL0     H84722  10.028   3.590   3.048 -0.7386  2.9994 -0.9718
  642MOL0     H84723   9.846   3.600   3.053 -0.6659 -1.5966  1.2695
  642MOL0     H84724   9.879   3.730   3.254 -0.1414 -4.7150  0.7023
  642MOL0     H84725   9.942   3.800   3.105 -1.6263 -0.2537 -0.4498
  642MOL0     H84726   9.824   2.719   2.919 -2.9333  1.2792  0.6208
  642MOL0     H84727  10.003   2.571   2.983  2.0371  3.6460  0.0087
  642MOL0     H84728  10.253   2.331   3.207  1.4314  0.4950 -1.6666
  642MOL0     H84729  10.471   2.234   3.233  0.5677 -0.9773  0.4039
  642MOL0     H84730  11.434   1.984   3.355 -0.0076  1.9055 -0.7696
  642MOL0     H84731  11.241   2.007   3.496 -2.1775  2.4724  0.7890
  642MOL0     H84732  10.883   1.866   3.747  2.1351  2.7659  2.7116
  642MOL0     H84733  10.667   1.909   3.864 -1.0320 -2.1492 -1.7864
  642MOL0     H84734  10.406   2.213   3.711 -1.4514 -0.5247 -3.5442
  642MOL0     H84735  10.296   2.122   3.827 -1.4077  2.4993  0.0598
  642MOL0     H84736  10.369   2.055   3.536  1.7940  3.7104  1.3874
  642MOL0     H84737  10.244   1.956   3.637 -1.4189 -0.4215 -3.3228
  642MOL0     H84738  10.235   2.238   3.518  1.6063  1.5335  3.3865
  642MOL0     H84739  10.134   2.199   3.644 -3.5979  0.5131 -2.3595
  642MOL0     H84740  10.003   2.170   3.460 -0.0104  2.1571 -1.8907
  642MOL0     H84741  10.119   2.105   3.352  2.4252 -0.6335  0.8706
  642MOL0     H84742   9.986   1.751   3.573 -1.8019 -1.0960 -1.2396
  642MOL0     H84743  10.537   2.170   3.560  1.6821  0.2142 -1.1261
  642MOL0     H84744  10.727   2.101   3.420  0.0144  0.2472  0.4856
  643MOL0     O84745   7.741   4.841   3.165 -0.1633  0.1527  0.2608
  643MOL0     C84746   7.828   4.934   3.156  0.0452 -0.0668 -0.8870
  643MOL0     O84747   7.801   5.057   3.129 -0.0223  0.8434  0.5159
  643MOL0     C84748   7.683   5.085   3.068  0.6697 -0.2476  0.0126
  643MOL0     C84749   7.667   5.074   2.928 -1.2047  0.3013  0.5595
  643MOL0     C84750   7.544   5.096   2.865  1.2442  0.2305 -0.5235
  643MOL0     C84751   7.433   5.124   2.949  0.0928 -0.0379 -0.5049
  643MOL0     O84752   7.305   5.159   2.913  0.4136 -0.2710 -0.2425
  643MOL0     C84753   7.266   5.125   2.779 -0.0142 -0.0096 -0.9007
  643MOL0     C84754   7.116   5.138   2.756  0.8690  0.7908  0.9179
  643MOL0     C84755   7.067   5.278   2.789  0.1779 -0.0969  0.0846
  643MOL0     C84756   6.904   5.297   2.796  0.5639  0.3330  0.2339
  643MOL0     C84757   6.842   5.225   2.924 -0.2115 -0.3917  0.2569
  643MOL0     C84758   6.888   5.294   3.054  0.7103 -0.0639 -1.2297
  643MOL0     C84759   6.810   5.225   3.164 -0.2780  0.8936 -0.5148
  643MOL0     C84760   6.826   5.280   3.300 -0.7054 -0.1168 -1.0244
  643MOL0     N84761   6.960   5.246   3.356 -0.0976  0.1866 -0.6393
  643MOL0     C84762   7.062   5.332   3.374  0.0732 -0.4019 -0.6725
  643MOL0     C84763   7.160   5.248   3.432 -0.2557 -0.1934  1.3230
  643MOL0     C84764   7.294   5.301   3.476  0.2592  0.9621 -0.3195
  643MOL0     C84765   7.373   5.357   3.366  0.1001  0.0402 -0.0657
  643MOL0     C84766   7.502   5.423   3.414 -0.8178  0.4025 -0.4012
  643MOL0     C84767   7.583   5.482   3.304 -0.5178 -0.8209 -0.5993
  643MOL0     O84768   7.705   5.552   3.346 -0.2890 -0.1498  0.2142
  643MOL0     C84769   7.823   5.484   3.349 -0.0208  0.0571 -0.0823
  643MOL0     C84770   7.929   5.568   3.384 -0.3348  0.1201  0.9835
  643MOL0     C84771   8.055   5.512   3.403 -0.1618 -0.9140  0.8496
  643MOL0     C84772   8.078   5.373   3.393 -0.1130  0.1717 -0.5851
  643MOL0     C84773   8.201   5.310   3.428  0.4805 -0.6047 -0.1599
  643MOL0     O84774   8.276   5.396   3.498 -0.3459 -0.4136  0.0347
  643MOL0     C84775   8.386   5.345   3.565 -0.3113  0.1671  0.0330
  643MOL0     C84776   8.511   5.375   3.515  0.4864  0.1601  0.9940
  643MOL0     C84777   8.620   5.314   3.573 -0.1973  0.8626 -0.3745
  643MOL0     C84778   8.610   5.222   3.677 -0.0457 -0.7056  0.2890
  643MOL0     O84779   8.725   5.165   3.713 -0.6601 -0.0530 -0.2132
  643MOL0     C84780   8.749   5.172   3.856 -0.9799 -0.2243 -0.3165
  643MOL0     C84781   8.893   5.210   3.879  0.2112  0.2630 -0.6871
  643MOL0     C84782   8.991   5.096   3.846 -1.2104 -0.1566  0.2648
  643MOL0     C84783   9.130   5.126   3.905 -0.4571  0.9591  0.2100
  643MOL0     C84784   9.241   5.043   3.839  0.4953  0.3610  0.1643
  643MOL0     C84785   9.381   5.073   3.906  0.4850 -0.7335  0.1511
  643MOL0     C84786   9.482   5.044   3.803 -1.3194  1.2075 -0.0121
  643MOL0     C84787   9.502   4.893   3.767 -0.2531 -0.2523 -0.0244
  643MOL0    Cl84788   9.671   4.875   3.716 -0.3083  0.0805  0.2785
  643MOL0     C84789   8.484   5.185   3.720 -0.2646  0.8879 -0.9757
  643MOL0     C84790   8.374   5.248   3.665 -0.4341  0.3367 -0.3827
  643MOL0     O84791   8.226   5.192   3.392 -0.2257  0.0541  0.0755
  643MOL0     C84792   7.970   5.294   3.365 -0.8079  0.1208  0.4600
  643MOL0     C84793   7.846   5.349   3.352  0.9471  0.0903  0.4686
  643MOL0     N84794   7.103   5.119   3.459  0.1463 -0.5211 -0.6135
  643MOL0     N84795   6.980   5.125   3.410  0.3192  0.1363  0.1592
  643MOL0     C84796   7.454   5.131   3.092 -1.1098  0.6007 -0.0718
  643MOL0     C84797   7.577   5.123   3.151 -0.0210  0.7527  0.7272
  643MOL0     C84798   7.977   4.890   3.189  0.3008 -0.4394 -0.0944
  643MOL0     C84799   8.001   4.755   3.224 -0.2858  0.1155 -0.4333
  643MOL0     C84800   8.132   4.709   3.262  0.6091 -0.3829 -0.2667
  643MOL0     C84801   8.239   4.796   3.241  0.3741  0.0933  0.9887
  643MOL0     O84802   8.356   4.741   3.270 -0.1695  0.0538 -0.9446
  643MOL0     C84803   8.479   4.804   3.224  0.3169  0.5339  0.3291
  643MOL0     C84804   8.602   4.712   3.247 -0.2495  0.4542 -0.2384
  643MOL0     C84805   8.642   4.684   3.390 -0.3814  0.0308  0.0483
  643MOL0     C84806   8.762   4.587   3.392  0.7907 -0.6634 -0.9327
  643MOL0     C84807   8.776   4.536   3.527 -0.4657  0.5886 -1.0350
  643MOL0     C84808   8.808   4.481   3.633  0.8737 -1.6850  0.1420
  643MOL0     C84809   8.220   4.928   3.195  0.1395  0.3325  0.7201
  643MOL0     C84810   8.089   4.973   3.171  0.1112  0.3948 -0.7103
  643MOL0     H84811   7.751   5.049   2.864 -0.5743  2.7366  0.3421
  643MOL0     H84812   7.539   5.089   2.757 -0.2018 -1.8849 -0.3807
  643MOL0     H84813   7.312   5.030   2.751 -1.4953 -0.5327 -1.6638
  643MOL0     H84814   7.320   5.194   2.714  2.2286 -2.8586 -2.2544
  643MOL0     H84815   7.061   5.069   2.821 -2.5971  0.5285 -1.9668
  643MOL0     H84816   7.087   5.108   2.655 -0.0320 -3.5752  2.2501
  643MOL0     H84817   7.110   5.356   2.724 -1.1796  1.1933  0.6728
  643MOL0     H84818   7.111   5.297   2.887 -3.1120  0.3302  1.6014
  643MOL0     H84819   6.871   5.402   2.795  0.0776  0.1907  0.8882
  643MOL0     H84820   6.863   5.246   2.708 -2.8135  0.0851  1.7924
  643MOL0     H84821   6.874   5.121   2.910  2.3771  0.5420 -1.4824
  643MOL0     H84822   6.735   5.244   2.910 -0.4040 -1.8410 -0.3318
  643MOL0     H84823   6.867   5.400   3.045  1.9976  0.2188 -1.0630
  643MOL0     H84824   6.996   5.286   3.073  0.2183  0.1812  2.5844
  643MOL0     H84825   6.705   5.230   3.134 -0.4741  3.8262  0.2979
  643MOL0     H84826   6.835   5.120   3.176  1.5819  1.5531  2.4276
  643MOL0     H84827   6.748   5.235   3.363  1.8712 -2.9005  0.4295
  643MOL0     H84828   6.806   5.387   3.304  1.0701  0.2280 -0.9331
  643MOL0     H84829   7.066   5.440   3.363 -1.5722  0.1923  2.9519
  643MOL0     H84830   7.347   5.225   3.534 -1.4635  1.8872  2.6853
  643MOL0     H84831   7.265   5.375   3.551 -0.7648  0.8163 -0.5518
  643MOL0     H84832   7.318   5.433   3.310  3.7141  2.3179 -0.8435
  643MOL0     H84833   7.391   5.269   3.304 -2.7318  1.2509 -2.9048
  643MOL0     H84834   7.483   5.489   3.499 -1.9777 -1.2192  0.6515
  643MOL0     H84835   7.560   5.348   3.468 -2.6685  0.0112  1.1703
  643MOL0     H84836   7.527   5.553   3.242 -2.3018  0.1556  1.9744
  643MOL0     H84837   7.606   5.399   3.236 -2.7155 -0.3037 -2.0967
  643MOL0     H84838   7.925   5.676   3.401  1.1290  0.1424  1.3898
  643MOL0     H84839   8.136   5.581   3.426  1.0976 -1.4113 -1.7009
  643MOL0     H84840   8.519   5.444   3.432 -2.0223 -1.4041 -0.6923
  643MOL0     H84841   8.720   5.341   3.539 -0.0907 -0.9615 -1.6845
  643MOL0     H84842   8.722   5.075   3.900 -0.8916 -0.2203 -0.2527
  643MOL0     H84843   8.686   5.239   3.915 -0.4559 -1.6971  2.0620
  643MOL0     H84844   8.906   5.226   3.986  3.3495  0.0567 -0.9488
  643MOL0     H84845   8.923   5.305   3.834  1.7562 -0.0348 -0.3143
  643MOL0     H84846   9.000   5.079   3.738 -1.0332  0.4428  0.1820
  643MOL0     H84847   8.946   5.006   3.889 -0.4046 -0.3509  0.7212
  643MOL0     H84848   9.146   5.234   3.897  1.5516  0.6806 -0.0399
  643MOL0     H84849   9.138   5.099   4.011 -1.0231 -3.3280 -0.6700
  643MOL0     H84850   9.242   5.057   3.730 -1.2588  1.7540  0.2645
  643MOL0     H84851   9.216   4.942   3.871  1.3931 -0.2967 -1.1148
  643MOL0     H84852   9.399   5.026   4.003  0.7571  1.3510  1.1523
  643MOL0     H84853   9.386   5.180   3.927 -2.3360 -0.1255 -1.6285
  643MOL0     H84854   9.451   5.103   3.716  0.7226  0.5059 -1.2700
  643MOL0     H84855   9.578   5.072   3.849 -1.1611 -2.2546  2.1138
  643MOL0     H84856   9.435   4.868   3.684  2.8896 -5.6655 -1.4146
  643MOL0     H84857   9.483   4.824   3.850 -1.7418 -2.8024 -2.3263
  643MOL0     H84858   8.467   5.117   3.802 -3.0962  2.3373 -0.2260
  643MOL0     H84859   8.277   5.237   3.712 -0.1917 -0.9000 -0.1427
  643MOL0     H84860   7.974   5.186   3.353  1.2608  0.0599  1.3378
  643MOL0     H84861   7.767   5.274   3.346  0.0024  0.8830  2.2018
  643MOL0     H84862   7.366   5.148   3.153 -0.0117  4.1875  0.7344
  643MOL0     H84863   7.586   5.121   3.259  0.0024  1.1056  0.7339
  643MOL0     H84864   7.925   4.678   3.224 -0.7826  0.5894  0.2107
  643MOL0     H84865   8.163   4.616   3.308  1.4494  1.0005  2.1163
  643MOL0     H84866   8.498   4.896   3.279 -1.2005  2.1226 -1.6368
  643MOL0     H84867   8.483   4.820   3.115  1.5375  1.2437  0.4557
  643MOL0     H84868   8.593   4.615   3.197 -0.9570 -0.2220  1.1469
  643MOL0     H84869   8.689   4.763   3.205  2.4200 -0.2165  3.9229
  643MOL0     H84870   8.557   4.647   3.449 -0.0751  1.2308  1.3005
  643MOL0     H84871   8.664   4.777   3.444 -1.1478  0.4299 -0.3076
  643MOL0     H84872   8.747   4.506   3.320 -0.3713 -1.5057  0.1959
  643MOL0     H84873   8.848   4.643   3.357 -0.2542  1.8922  0.3472
  643MOL0     H84874   8.834   4.416   3.714 -2.6166 -0.2122  2.7129
  643MOL0     H84875   8.310   4.989   3.187 -0.9182  2.0840  1.6745
  643MOL0     H84876   8.075   5.075   3.136 -0.5873 -0.1462 -2.0462
  644MOL0     O84877   5.904   6.617   7.143 -0.1025 -0.3102  0.1413
  644MOL0     C84878   5.889   6.558   7.038  0.0872 -1.2547  0.1419
  644MOL0     O84879   5.985   6.522   6.950  0.0883 -0.2384 -0.7319
  644MOL0     C84880   6.119   6.538   6.981  0.4011 -0.7850 -0.9801
  644MOL0     C84881   6.198   6.625   6.906 -0.9465  0.3984  0.8406
  644MOL0     C84882   6.340   6.621   6.930  1.3238 -0.0271 -0.3220
  644MOL0     C84883   6.395   6.553   7.032 -0.2237  0.0719 -1.1775
  644MOL0     O84884   6.525   6.578   7.049 -0.5952 -0.4565 -0.1035
  644MOL0     C84885   6.622   6.492   7.112  0.0579  0.3478 -0.0007
  644MOL0     C84886   6.762   6.538   7.074  0.0218  0.1248 -0.4280
  644MOL0     C84887   6.885   6.479   7.159  0.4802 -1.5321  0.7596
  644MOL0     C84888   6.904   6.330   7.143 -0.1266 -0.4226 -0.5069
  644MOL0     C84889   6.975   6.263   7.259  0.1011 -0.3171  0.6606
  644MOL0     C84890   7.118   6.303   7.260 -0.3251 -0.1165  0.0406
  644MOL0     C84891   7.188   6.234   7.383 -0.7695  0.5658  0.4725
  644MOL0     C84892   7.317   6.276   7.424  0.6893 -0.5148 -0.8752
  644MOL0     N84893   7.412   6.237   7.315  0.2861 -0.0966 -0.8775
  644MOL0     C84894   7.433   6.311   7.203  0.2672 -0.5520  0.4715
  644MOL0     C84895   7.530   6.255   7.140  0.0435  0.0587  0.6167
  644MOL0     C84896   7.581   6.302   7.014  0.1750  0.5248  0.1329
  644MOL0     C84897   7.598   6.186   6.909 -0.0887 -0.3086  0.0581
  644MOL0     C84898   7.473   6.113   6.877  0.4950 -0.1941  0.9007
  644MOL0     C84899   7.379   6.200   6.789 -0.4245 -0.0846  0.0477
  644MOL0     O84900   7.300   6.271   6.885  0.1021  0.1101  0.4840
  644MOL0     C84901   7.213   6.360   6.834 -0.5450  0.3134  0.5085
  644MOL0     C84902   7.195   6.479   6.908 -0.0419  0.0476  0.3056
  644MOL0     C84903   7.110   6.576   6.865  0.3399 -0.4269  0.4407
  644MOL0     C84904   7.038   6.560   6.744 -1.1449 -0.7216  0.0835
  644MOL0     C84905   6.947   6.671   6.700  0.1176 -0.5359 -0.0415
  644MOL0     O84906   6.922   6.765   6.800 -0.6921 -0.8093 -0.3209
  644MOL0     C84907   6.839   6.860   6.758  0.1366 -0.4131 -0.9702
  644MOL0     C84908   6.878   6.981   6.707 -0.0249 -0.1073  0.0905
  644MOL0     C84909   6.777   7.073   6.682  0.4002 -1.1037  0.6051
  644MOL0     C84910   6.648   7.043   6.685  0.6148  0.0247 -0.6172
  644MOL0     O84911   6.552   7.139   6.655  0.4073 -0.4509 -0.0901
  644MOL0     C84912   6.421   7.092   6.617 -0.1985  0.3276 -0.3232
  644MOL0     C84913   6.315   7.140   6.719 -0.0381 -0.4190  0.1705
  644MOL0     C84914   6.183   7.059   6.700  0.1541 -0.2468  0.7484
  644MOL0     C84915   6.100   7.077   6.822  0.6795  0.3934  0.2285
  644MOL0     C84916   5.952   7.025   6.801 -0.0404  0.1858  0.2790
  644MOL0     C84917   5.868   7.046   6.933 -0.4413  0.9972  0.9399
  644MOL0     C84918   5.722   7.022   6.893  0.1484 -0.1405  0.4002
  644MOL0     C84919   5.640   7.071   7.008 -0.5576  0.1954  0.4503
  644MOL0    Cl84920   5.465   7.088   6.976 -0.4399  0.0788  0.2602
  644MOL0     C84921   6.617   6.919   6.741  0.8488 -0.3034  0.1289
  644MOL0     C84922   6.711   6.823   6.779  0.3349 -0.6773 -0.8702
  644MOL0     O84923   6.891   6.657   6.589 -0.3501 -0.8060  0.1128
  644MOL0     C84924   7.062   6.442   6.671  0.9119  0.1587  0.0054
  644MOL0     C84925   7.143   6.338   6.715  0.4597 -0.2408 -0.5782
  644MOL0     N84926   7.582   6.151   7.213 -0.4381 -0.3770  0.9636
  644MOL0     N84927   7.514   6.138   7.317 -0.6359  0.7685 -0.4546
  644MOL0     C84928   6.324   6.464   7.113  1.0414 -0.2724  0.8164
  644MOL0     C84929   6.183   6.452   7.077 -0.0428  0.3177  0.1277
  644MOL0     C84930   5.747   6.536   6.981 -0.3542 -0.4645 -0.4378
  644MOL0     C84931   5.637   6.588   7.038  0.8486 -0.0237 -0.3870
  644MOL0     C84932   5.510   6.539   7.014 -0.5517  0.1146 -0.3679
  644MOL0     C84933   5.477   6.440   6.917 -1.0812  0.8665 -0.0247
  644MOL0     O84934   5.346   6.411   6.905  0.3732  0.1533 -0.5111
  644MOL0     C84935   5.299   6.329   6.795 -0.5385  0.1321  0.1861
  644MOL0     C84936   5.150   6.299   6.838  1.0904 -0.7904 -0.3145
  644MOL0     C84937   5.066   6.233   6.727  0.5125 -0.4669  0.2745
  644MOL0     C84938   4.923   6.222   6.777 -0.2070  0.0557 -0.7591
  644MOL0     C84939   4.840   6.140   6.684 -0.2472 -0.1519  0.4021
  644MOL0     C84940   4.753   6.087   6.625 -0.6961 -0.0055  0.7178
  644MOL0     C84941   5.588   6.376   6.858  0.0161  0.4341  0.9618
  644MOL0     C84942   5.725   6.418   6.897 -0.5313  0.2634 -0.7123
  644MOL0     H84943   6.157   6.675   6.820  0.3787  0.8192  0.4245
  644MOL0     H84944   6.400   6.685   6.866  0.1091  0.9282 -0.5659
  644MOL0     H84945   6.604   6.394   7.068  0.6360  0.3846 -0.3375
  644MOL0     H84946   6.621   6.495   7.221  2.2098  0.1039  0.0874
  644MOL0     H84947   6.757   6.647   7.081  0.1324  0.2188 -1.6267
  644MOL0     H84948   6.788   6.525   6.969 -0.0009 -3.1633 -0.1391
  644MOL0     H84949   6.859   6.491   7.264 -3.2041 -1.6612 -0.0004
  644MOL0     H84950   6.972   6.539   7.130 -2.2222  2.2498 -0.3304
  644MOL0     H84951   6.802   6.291   7.136 -0.3997 -1.0891  4.2018
  644MOL0     H84952   6.957   6.304   7.050 -0.3952 -0.0838 -0.7566
  644MOL0     H84953   6.974   6.158   7.230  1.4667 -0.4609  1.0530
  644MOL0     H84954   6.923   6.265   7.355  0.4905 -0.9537  0.8928
  644MOL0     H84955   7.131   6.412   7.264  0.4173 -0.0700 -2.1329
  644MOL0     H84956   7.165   6.277   7.164  0.3917 -0.8053  0.5690
  644MOL0     H84957   7.124   6.238   7.472  1.5298 -1.2192  2.3119
  644MOL0     H84958   7.187   6.129   7.351  0.3493  0.7863 -0.3288
  644MOL0     H84959   7.351   6.226   7.516 -2.4015 -0.9064  0.1652
  644MOL0     H84960   7.307   6.385   7.432 -2.7726 -0.3694 -4.3448
  644MOL0     H84961   7.388   6.403   7.166  3.0232  1.1344  0.9949
  644MOL0     H84962   7.680   6.346   7.029  4.4666 -6.5011 -2.7539
  644MOL0     H84963   7.515   6.377   6.970  1.1269  0.0615 -2.2115
  644MOL0     H84964   7.666   6.116   6.957  0.0026 -0.0739  0.2737
  644MOL0     H84965   7.653   6.229   6.825  2.2284 -2.4349  0.3803
  644MOL0     H84966   7.499   6.033   6.808  1.0733  1.0532 -0.3715
  644MOL0     H84967   7.424   6.058   6.958 -1.1834  1.6220  1.1963
  644MOL0     H84968   7.323   6.124   6.734 -1.5681  0.7507  0.0212
  644MOL0     H84969   7.443   6.250   6.714 -0.6959 -1.0131 -0.8241
  644MOL0     H84970   7.247   6.488   7.003 -0.9630  0.6079  0.7709
  644MOL0     H84971   7.090   6.666   6.922 -1.6413  1.6766 -3.1917
  644MOL0     H84972   6.981   7.007   6.681 -0.4900  0.5785 -1.1222
  644MOL0     H84973   6.804   7.173   6.649  2.0391 -2.0651 -1.2364
  644MOL0     H84974   6.423   6.984   6.596 -1.1508  0.2937 -0.2664
  644MOL0     H84975   6.402   7.139   6.520 -0.2775 -2.2908 -1.6618
  644MOL0     H84976   6.296   7.247   6.705  3.5873  0.5918  1.8008
  644MOL0     H84977   6.358   7.122   6.818  0.5226  1.3159  0.2710
  644MOL0     H84978   6.201   6.952   6.692  2.6675 -0.2202  3.7782
  644MOL0     H84979   6.138   7.099   6.609  0.1706 -1.6969  0.0800
  644MOL0     H84980   6.139   7.025   6.910 -2.6295 -1.6068  0.6656
  644MOL0     H84981   6.094   7.186   6.834  2.7384  0.8805 -2.1302
  644MOL0     H84982   5.946   6.918   6.776 -0.4491  0.4963 -1.0157
  644MOL0     H84983   5.906   7.076   6.716 -2.8666 -0.2256  1.4432
  644MOL0     H84984   5.888   7.141   6.984  2.1735 -0.9313  3.9089
  644MOL0     H84985   5.892   6.962   6.998 -0.5786  1.9776  2.3124
  644MOL0     H84986   5.690   7.080   6.805  1.7332  0.7281  0.3685
  644MOL0     H84987   5.710   6.915   6.874  0.9453 -0.2856  0.6959
  644MOL0     H84988   5.672   7.174   7.026 -2.9785  1.4985 -1.9214
  644MOL0     H84989   5.658   7.021   7.103  0.1927 -0.1912  0.1114
  644MOL0     H84990   6.515   6.895   6.770  0.8476  0.0190  0.3912
  644MOL0     H84991   6.685   6.734   6.835 -2.2854  0.9742  0.7604
  644MOL0     H84992   6.993   6.430   6.588 -0.7319 -0.3511  1.4197
  644MOL0     H84993   7.160   6.245   6.661  1.4032  0.6759 -1.9153
  644MOL0     H84994   6.364   6.396   7.188  0.5089 -0.6546  0.7604
  644MOL0     H84995   6.122   6.372   7.119  1.8528 -2.6256 -2.2771
  644MOL0     H84996   5.640   6.674   7.105  0.9697 -1.7806  2.0197
  644MOL0     H84997   5.433   6.597   7.064  0.2716  1.8347 -1.0007
  644MOL0     H84998   5.339   6.229   6.776 -5.8541 -1.5131 -5.4286
  644MOL0     H84999   5.304   6.378   6.697  0.3099  1.2345  0.7644
  644MOL0     H85000   5.146   6.232   6.924  2.2166  1.5060  1.6380
  644MOL0     H85001   5.090   6.388   6.857 -0.8758 -2.1675  0.1752
  644MOL0     H85002   5.114   6.137   6.707  0.5755  0.1088 -2.9634
  644MOL0     H85003   5.067   6.287   6.632  0.9760 -0.7008  0.1436
  644MOL0     H85004   4.921   6.174   6.876 -2.5471 -0.6559 -1.0939
  644MOL0     H85005   4.895   6.326   6.791  0.4828  0.1057  0.3949
  644MOL0     H85006   4.670   6.038   6.578 -0.8227  0.9350 -0.0632
  644MOL0     H85007   5.570   6.288   6.797 -2.3331  2.5438 -1.6915
  644MOL0     H85008   5.807   6.364   6.850 -0.5308 -1.1847  0.8718
  645MOL0     O85009  11.169   2.871   9.229 -0.7874 -0.8847  0.1851
  645MOL0     C85010  11.164   2.890   9.349  0.3918 -0.1956 -0.9737
  645MOL0     O85011  11.048   2.889   9.427 -0.4626 -0.3643 -0.4593
  645MOL0     C85012  10.928   2.881   9.352  0.0425 -1.3103  0.0519
  645MOL0     C85013  10.834   2.989   9.337 -0.1440  0.3602 -0.5761
  645MOL0     C85014  10.713   2.977   9.265  0.5678  0.2993  0.9422
  645MOL0     C85015  10.673   2.855   9.209  0.1161  0.8302  1.1695
  645MOL0     O85016  10.569   2.834   9.129  0.4010 -0.0853 -0.1908
  645MOL0     C85017  10.578   2.933   9.023  0.1130 -0.3946  0.4900
  645MOL0     C85018  10.492   2.876   8.918  0.7684  0.2111  0.9132
  645MOL0     C85019  10.335   2.899   8.930 -0.3957  0.1476 -0.2466
  645MOL0     C85020  10.250   2.822   8.822  0.1830 -0.7375  1.1618
  645MOL0     C85021  10.104   2.867   8.805  0.7875  0.6213 -0.9822
  645MOL0     C85022  10.066   2.881   8.658  0.1066 -0.0894  0.2946
  645MOL0     C85023   9.913   2.881   8.651  0.4938  0.2779  1.2303
  645MOL0     C85024   9.872   2.868   8.501  0.4890 -0.2086 -0.6572
  645MOL0     N85025   9.732   2.829   8.482 -0.5587  0.5396  0.1920
  645MOL0     C85026   9.615   2.905   8.490 -0.3573  0.2329  0.1055
  645MOL0     C85027   9.512   2.816   8.509 -0.1275 -0.5009  0.3857
  645MOL0     C85028   9.370   2.856   8.503  0.7880 -0.0495  0.3216
  645MOL0     C85029   9.294   2.817   8.376 -0.5343  0.2822 -0.8628
  645MOL0     C85030   9.246   2.668   8.367 -0.6959 -0.3020 -0.0404
  645MOL0     C85031   9.109   2.656   8.436 -0.0399  0.2034  0.4087
  645MOL0     O85032   9.094   2.739   8.550 -0.4493  0.4221  0.1140
  645MOL0     C85033   8.967   2.746   8.600  0.5721 -0.4707 -1.3309
  645MOL0     C85034   8.954   2.821   8.714 -0.0026  0.0990  0.3022
  645MOL0     C85035   8.827   2.840   8.778  0.2768  1.0689  0.6134
  645MOL0     C85036   8.711   2.789   8.717 -0.1519 -0.1037  0.1946
  645MOL0     C85037   8.580   2.817   8.774 -0.2585 -0.4921 -0.1083
  645MOL0     O85038   8.577   2.896   8.886 -0.1485  0.8031  0.5268
  645MOL0     C85039   8.466   2.930   8.954  0.3626  0.0864 -0.1723
  645MOL0     C85040   8.499   2.959   9.083  0.0520  0.2697  0.1274
  645MOL0     C85041   8.402   2.984   9.181  0.9836 -0.0463 -0.9643
  645MOL0     C85042   8.269   2.978   9.151  0.2156 -0.9189  0.2263
  645MOL0     O85043   8.168   3.003   9.234  0.8409  0.0824 -0.1248
  645MOL0     C85044   8.204   3.088   9.350  0.1161 -0.2992  0.1186
  645MOL0     C85045   8.080   3.142   9.423  0.8258 -0.7271 -0.1260
  645MOL0     C85046   8.020   3.268   9.344 -0.7931  0.3401  0.2114
  645MOL0     C85047   7.964   3.241   9.201  0.6375 -0.2992  0.2078
  645MOL0     C85048   7.849   3.136   9.192  0.3293  0.3455  0.6249
  645MOL0     C85049   7.730   3.168   9.281 -0.4674  0.3719 -0.0034
  645MOL0     C85050   7.608   3.075   9.262 -0.8453 -0.5413 -0.0071
  645MOL0     C85051   7.506   3.086   9.369 -0.1596 -0.3343 -0.3582
  645MOL0    Cl85052   7.580   3.024   9.527  0.1719  0.0393 -0.4516
  645MOL0     C85053   8.234   2.946   9.022  0.4406  0.4508  0.4202
  645MOL0     C85054   8.329   2.927   8.920  0.1876  0.6443  1.2540
  645MOL0     O85055   8.483   2.780   8.709  0.0492 -0.2664 -0.2728
  645MOL0     C85056   8.726   2.706   8.604  0.4519  0.3873 -0.4872
  645MOL0     C85057   8.852   2.681   8.545 -0.2540  0.1598  0.7022
  645MOL0     N85058   9.564   2.690   8.509 -0.1604  0.2688 -0.7689
  645MOL0     N85059   9.691   2.699   8.484  0.1355 -0.5452  0.2062
  645MOL0     C85060  10.756   2.745   9.223 -0.0089 -0.7478 -0.2540
  645MOL0     C85061  10.877   2.763   9.296 -0.3028 -0.0081 -0.1335
  645MOL0     C85062  11.283   2.901   9.433  0.1009  0.8307 -0.3751
  645MOL0     C85063  11.285   2.910   9.573  0.0407  1.1238 -0.0654
  645MOL0     C85064  11.403   2.941   9.642 -0.1840  0.4230 -0.0580
  645MOL0     C85065  11.527   2.943   9.575  0.0030 -0.1071  0.7396
  645MOL0     O85066  11.637   2.979   9.640 -0.5797  0.0405  0.5451
  645MOL0     C85067  11.675   2.875   9.734 -0.9330 -0.0833 -0.1881
  645MOL0     C85068  11.790   2.918   9.826 -0.4925 -0.1233  0.3226
  645MOL0     C85069  11.765   3.056   9.890 -0.0538  0.0322 -0.7550
  645MOL0     C85070  11.862   3.089  10.002 -0.3924 -0.4041  0.1854
  645MOL0     C85071  11.998   3.104   9.951 -0.2059  0.1516  0.4457
  645MOL0     C85072  12.116   3.103   9.925  0.3727  0.9888 -0.5715
  645MOL0     C85073  11.534   2.911   9.435 -0.2285  0.4782 -0.1266
  645MOL0     C85074  11.412   2.887   9.371  0.0326 -0.6034  0.6683
  645MOL0     H85075  10.872   3.083   9.376  0.6635 -1.0040  2.2015
  645MOL0     H85076  10.658   3.068   9.245  0.5603  0.5890  2.1715
  645MOL0     H85077  10.677   2.938   8.977  0.3635 -0.2631  1.0391
  645MOL0     H85078  10.543   3.032   9.052  2.7606  0.5634  0.6843
  645MOL0     H85079  10.525   2.773   8.905  1.9770  0.5040  1.4866
  645MOL0     H85080  10.512   2.931   8.825  0.2893 -0.2332  0.5447
  645MOL0     H85081  10.314   3.005   8.913  1.2212  1.0783  2.9404
  645MOL0     H85082  10.303   2.873   9.031  1.3904 -1.1963  0.0192
  645MOL0     H85083  10.311   2.835   8.732  1.7009 -0.3810  2.1968
  645MOL0     H85084  10.248   2.716   8.846 -4.4338 -0.8282  1.1573
  645MOL0     H85085  10.085   2.961   8.858  0.9719 -0.0705  0.3475
  645MOL0     H85086  10.044   2.802   8.869  0.2845  4.1639  2.5124
  645MOL0     H85087  10.104   2.788   8.615  1.2417  0.2409  0.5525
  645MOL0     H85088  10.109   2.966   8.604  0.3671 -1.0358 -1.0470
  645MOL0     H85089   9.873   2.795   8.705 -1.4925  0.1772 -0.2848
  645MOL0     H85090   9.874   2.977   8.686  2.2732  2.1682 -1.6333
  645MOL0     H85091   9.929   2.791   8.447  0.3634 -1.3677  0.7902
  645MOL0     H85092   9.886   2.970   8.464 -3.1202  0.5701 -0.1991
  645MOL0     H85093   9.610   3.014   8.491  3.2966  0.5426  2.3343
  645MOL0     H85094   9.347   2.963   8.512 -1.5980 -0.2642 -1.9708
  645MOL0     H85095   9.334   2.806   8.593  1.7870  0.4031  1.0019
  645MOL0     H85096   9.365   2.831   8.293  1.8129 -2.1698  0.5776
  645MOL0     H85097   9.202   2.873   8.358 -2.1939 -1.9345  0.3217
  645MOL0     H85098   9.257   2.634   8.264  1.2413  1.8782 -0.6219
  645MOL0     H85099   9.320   2.609   8.422  0.6478  2.3241  1.1724
  645MOL0     H85100   9.080   2.553   8.460 -1.0679  0.2832 -0.4178
  645MOL0     H85101   9.033   2.682   8.362  0.1070 -0.7481 -0.0854
  645MOL0     H85102   9.042   2.861   8.763 -1.4911 -1.0426  4.3072
  645MOL0     H85103   8.823   2.893   8.873  1.3462  1.9351  0.2044
  645MOL0     H85104   8.603   2.956   9.115  0.7612 -0.9051 -2.1220
  645MOL0     H85105   8.428   2.995   9.285 -2.1073 -0.9226  0.0089
  645MOL0     H85106   8.257   3.177   9.315 -4.6906  2.7191 -0.5205
  645MOL0     H85107   8.277   3.035   9.412  2.3179  3.2849  0.8637
  645MOL0     H85108   8.099   3.172   9.527 -1.4525 -1.0463  0.4447
  645MOL0     H85109   8.013   3.057   9.435  2.4824 -2.1776 -0.7210
  645MOL0     H85110   8.102   3.340   9.337 -2.5028  2.3970  0.4285
  645MOL0     H85111   7.941   3.326   9.393 -0.0719  2.8269 -1.4209
  645MOL0     H85112   7.923   3.336   9.165  1.0200 -0.7169 -1.4633
  645MOL0     H85113   8.048   3.208   9.138  2.2504  0.8431  1.6765
  645MOL0     H85114   7.889   3.039   9.225  0.1783  1.2356  3.7329
  645MOL0     H85115   7.825   3.127   9.086  2.5301 -0.2753  0.1372
  645MOL0     H85116   7.700   3.273   9.274  1.1192  0.7801 -1.5227
  645MOL0     H85117   7.768   3.157   9.383  0.7021  1.1927 -0.3316
  645MOL0     H85118   7.573   3.097   9.160  1.4775  1.0604 -0.5543
  645MOL0     H85119   7.643   2.972   9.269 -1.3593 -0.6104  2.3618
  645MOL0     H85120   7.416   3.026   9.350 -1.5166  0.8202  1.9319
  645MOL0     H85121   7.471   3.189   9.382  2.9048  0.7745 -0.1889
  645MOL0     H85122   8.127   2.944   9.002  0.4045  1.7114  0.4033
  645MOL0     H85123   8.307   2.897   8.818  0.3182  0.4742  1.2740
  645MOL0     H85124   8.640   2.662   8.555  0.9442  1.0686 -2.0366
  645MOL0     H85125   8.861   2.611   8.463  0.5693  0.8106  0.2173
  645MOL0     H85126  10.725   2.648   9.184  2.7017 -0.8747 -2.3969
  645MOL0     H85127  10.936   2.671   9.302  1.2758  1.0381  1.5291
  645MOL0     H85128  11.197   2.902   9.636  0.6745  2.8362  1.1197
  645MOL0     H85129  11.411   2.940   9.751  0.8663  2.1257 -0.0756
  645MOL0     H85130  11.710   2.782   9.689  0.8450 -0.6965  2.2163
  645MOL0     H85131  11.600   2.850   9.809  0.3132 -0.0615  1.1164
  645MOL0     H85132  11.808   2.843   9.903 -1.4307  1.3491  2.0273
  645MOL0     H85133  11.882   2.932   9.767 -1.1138  0.7161 -0.4648
  645MOL0     H85134  11.664   3.044   9.932 -1.0963  0.1772 -3.0777
  645MOL0     H85135  11.766   3.130   9.810 -0.2629  1.7192  0.7358
  645MOL0     H85136  11.831   3.187  10.040 -3.1259 -0.4582 -1.6260
  645MOL0     H85137  11.855   3.013  10.080 -5.7895  0.2471  0.7212
  645MOL0     H85138  12.217   3.103   9.891  0.7569 -0.9328  0.4027
  645MOL0     H85139  11.632   2.899   9.391 -0.2916  0.3613 -0.2371
  645MOL0     H85140  11.408   2.857   9.267  0.9290  0.6304  0.2629
  646MOL0     O85141   0.761   4.982   0.306 -0.2848  0.0951  0.8759
  646MOL0     C85142   0.861   4.924   0.259  0.0255  1.0641  0.0442
  646MOL0     O85143   0.890   4.797   0.274 -0.3210  0.1900  0.1196
  646MOL0     C85144   0.787   4.727   0.342 -0.2305  0.5094 -0.1790
  646MOL0     C85145   0.660   4.713   0.287  0.0108  0.1039 -0.6848
  646MOL0     C85146   0.572   4.635   0.360  1.0875 -0.0598  0.1957
  646MOL0     C85147   0.604   4.550   0.464  0.1467 -0.4651 -0.1470
  646MOL0     O85148   0.503   4.463   0.495  0.3613  0.1216  0.2745
  646MOL0     C85149   0.489   4.451   0.635  0.5826  1.0140 -0.9447
  646MOL0     C85150   0.342   4.414   0.676 -0.0658  0.1300  0.3320
  646MOL0     C85151   0.279   4.292   0.603  0.3751  0.8713 -0.3882
  646MOL0     C85152   0.130   4.276   0.637 -0.3197  0.0518 -0.5614
  646MOL0     C85153   0.077   4.166   0.553  0.4853  0.7029 -0.6740
  646MOL0     C85154  -0.077   4.155   0.555 -0.5145 -0.5388  0.2807
  646MOL0     C85155  -0.137   4.058   0.454  0.5798 -0.0098 -0.3667
  646MOL0     C85156  -0.146   3.908   0.498 -0.2525  0.0606 -0.0464
  646MOL0     N85157  -0.021   3.841   0.502  0.4708  0.1852  1.3754
  646MOL0     C85158   0.063   3.824   0.400 -0.1166 -0.1368 -0.3072
  646MOL0     C85159   0.178   3.783   0.460 -0.6079  0.4665 -0.9228
  646MOL0     C85160   0.316   3.740   0.394  0.4423 -0.6168 -0.7685
  646MOL0     C85161   0.394   3.855   0.341 -0.8957 -0.0936 -0.0965
  646MOL0     C85162   0.455   3.942   0.462  0.1017  0.1833  1.3471
  646MOL0     C85163   0.544   4.058   0.420  0.4828  0.4304 -0.6929
  646MOL0     O85164   0.670   4.021   0.369 -0.7039  0.6186 -0.1750
  646MOL0     C85165   0.762   4.106   0.306  0.2601  0.2275 -0.6225
  646MOL0     C85166   0.843   4.047   0.216 -0.1761  0.7538 -0.3379
  646MOL0     C85167   0.934   4.119   0.139 -0.2644  0.1479  0.9327
  646MOL0     C85168   0.954   4.256   0.172  0.7055 -0.4082 -0.3952
  646MOL0     C85169   1.059   4.337   0.097 -0.1979 -0.2503 -0.0305
  646MOL0     O85170   1.167   4.265   0.042 -0.5575 -0.5326 -0.2996
  646MOL0     C85171   1.257   4.333  -0.037  0.2980  0.2824 -0.9407
  646MOL0     C85172   1.201   4.389  -0.151 -0.9015 -0.1833 -0.8584
  646MOL0     C85173   1.284   4.467  -0.236 -0.5049  0.2984  0.5933
  646MOL0     C85174   1.415   4.496  -0.201  0.3409 -0.4146 -0.2442
  646MOL0     O85175   1.478   4.577  -0.294 -0.6711 -0.4652  0.2309
  646MOL0     C85176   1.617   4.564  -0.315 -0.4413 -0.0901  0.0840
  646MOL0     C85177   1.664   4.618  -0.446  0.0238  0.0125  0.7283
  646MOL0     C85178   1.797   4.675  -0.468 -0.5193 -0.7233 -0.1605
  646MOL0     C85179   1.832   4.788  -0.363 -0.3369 -0.5533 -0.0327
  646MOL0     C85180   1.954   4.867  -0.416 -0.2643 -0.0888  0.2892
  646MOL0     C85181   2.004   4.985  -0.332 -0.3835  0.0977 -0.2590
  646MOL0     C85182   2.106   5.074  -0.420  0.3927  0.1398  0.2287
  646MOL0     C85183   2.180   5.166  -0.312 -0.2174 -0.0033 -0.1173
  646MOL0    Cl85184   2.274   5.298  -0.379  0.2461  0.3906  0.0524
  646MOL0     C85185   1.473   4.436  -0.086  0.0675 -0.0101  0.0028
  646MOL0     C85186   1.391   4.363  -0.001 -0.8204  1.2415 -0.3450
  646MOL0     O85187   1.022   4.458   0.076  0.5424  0.7352 -0.2121
  646MOL0     C85188   0.878   4.311   0.281  0.3159 -0.1402 -0.3826
  646MOL0     C85189   0.778   4.239   0.338 -0.1891  0.1422  0.1920
  646MOL0     N85190   0.148   3.769   0.600  0.1862  0.2975 -0.0928
  646MOL0     N85191   0.032   3.794   0.618 -0.7284 -0.8452 -0.4343
  646MOL0     C85192   0.734   4.559   0.515 -0.8059  0.6829 -0.0069
  646MOL0     C85193   0.823   4.657   0.463 -0.7959 -0.1209 -0.1036
  646MOL0     C85194   0.956   5.011   0.190 -0.6507  0.1554 -0.0762
  646MOL0     C85195   0.987   5.139   0.248 -0.2420 -0.0380  0.8754
  646MOL0     C85196   1.085   5.217   0.187 -0.0072  0.0789  0.8286
  646MOL0     C85197   1.166   5.175   0.070  0.3127  0.3726 -0.1651
  646MOL0     O85198   1.249   5.260   0.021 -0.4293  0.0376  0.3569
  646MOL0     C85199   1.321   5.220  -0.100  0.7245 -0.0462 -0.0039
  646MOL0     C85200   1.388   5.342  -0.151  0.2952  0.5349 -0.6319
  646MOL0     C85201   1.497   5.386  -0.046 -0.0007  0.0705  0.5306
  646MOL0     C85202   1.614   5.457  -0.116  0.0418 -0.0502  0.0777
  646MOL0     C85203   1.573   5.575  -0.196  0.0249 -0.1887 -0.2327
  646MOL0     C85204   1.553   5.684  -0.254 -0.0205  0.4046 -0.7850
  646MOL0     C85205   1.133   5.047   0.028 -0.2951 -0.0544 -0.1985
  646MOL0     C85206   1.034   4.964   0.089 -0.3325 -0.1226  0.7049
  646MOL0     H85207   0.622   4.753   0.194  1.2537  0.4597 -1.0608
  646MOL0     H85208   0.471   4.627   0.320  0.6288 -1.3696  1.5340
  646MOL0     H85209   0.520   4.545   0.682  1.3294  1.1466 -1.6764
  646MOL0     H85210   0.556   4.369   0.663 -1.6965 -0.7491 -0.3367
  646MOL0     H85211   0.268   4.491   0.650 -0.3072 -0.4686 -0.8445
  646MOL0     H85212   0.336   4.413   0.785 -1.7820  1.5960  0.3086
  646MOL0     H85213   0.336   4.209   0.645 -0.7592  1.0229  1.5741
  646MOL0     H85214   0.303   4.289   0.496  2.3189 -0.5380  0.0373
  646MOL0     H85215   0.107   4.268   0.744 -0.0158  2.3351 -0.2754
  646MOL0     H85216   0.087   4.370   0.602 -0.5638  0.1503 -0.0057
  646MOL0     H85217   0.125   4.071   0.575  1.7990  0.9310 -2.3553
  646MOL0     H85218   0.101   4.191   0.449 -1.9944 -0.4091 -1.6079
  646MOL0     H85219  -0.126   4.250   0.531 -1.0622 -1.4287 -2.5040
  646MOL0     H85220  -0.102   4.133   0.659 -0.5900 -0.4091  0.2904
  646MOL0     H85221  -0.242   4.088   0.446  0.4220 -0.9593 -2.5239
  646MOL0     H85222  -0.090   4.080   0.358  2.1696  2.4104  0.8361
  646MOL0     H85223  -0.216   3.858   0.430 -0.6287 -0.1107  0.4539
  646MOL0     H85224  -0.181   3.896   0.601  1.0430 -1.9125  0.2156
  646MOL0     H85225   0.038   3.849   0.298  1.9194 -1.4123 -1.1660
  646MOL0     H85226   0.293   3.673   0.310 -0.7080 -0.2423 -0.7732
  646MOL0     H85227   0.374   3.682   0.466 -1.1673 -2.0874 -0.5897
  646MOL0     H85228   0.336   3.913   0.267 -2.3343 -2.0250 -0.5575
  646MOL0     H85229   0.485   3.812   0.297 -1.0184 -3.3267  2.4572
  646MOL0     H85230   0.365   3.986   0.507  0.3597  2.6749 -0.4462
  646MOL0     H85231   0.513   3.878   0.531  1.3479  0.1708  0.3173
  646MOL0     H85232   0.556   4.117   0.511  1.9115 -1.4978  0.4361
  646MOL0     H85233   0.491   4.125   0.352 -0.3814  2.4826  1.8734
  646MOL0     H85234   0.832   3.942   0.192  0.1418  0.6342  0.0305
  646MOL0     H85235   0.985   4.069   0.057 -2.9844 -2.2555  0.5258
  646MOL0     H85236   1.097   4.369  -0.177 -1.8380  0.6016  1.9798
  646MOL0     H85237   1.267   4.505  -0.336 -0.9920 -0.3260  0.4299
  646MOL0     H85238   1.648   4.460  -0.299 -1.7410 -0.5468 -0.2791
  646MOL0     H85239   1.666   4.619  -0.235 -2.0208 -0.0565  1.0723
  646MOL0     H85240   1.601   4.702  -0.477 -1.4265 -2.0667 -2.3408
  646MOL0     H85241   1.646   4.537  -0.516  0.2690 -0.2935  1.0161
  646MOL0     H85242   1.795   4.728  -0.564 -0.4187 -3.1089 -1.5469
  646MOL0     H85243   1.870   4.594  -0.472 -1.9941 -2.0584 -0.7585
  646MOL0     H85244   1.751   4.861  -0.355  2.3540  2.4814  1.3202
  646MOL0     H85245   1.853   4.749  -0.263  4.4279  1.7705  0.1526
  646MOL0     H85246   1.919   4.919  -0.506  0.1790  0.7287  0.5757
  646MOL0     H85247   2.037   4.797  -0.430  0.1838  0.8341 -2.4192
  646MOL0     H85248   2.061   4.949  -0.246 -0.3771  1.8715  0.5185
  646MOL0     H85249   1.920   5.039  -0.286  1.0110  2.5955 -0.4388
  646MOL0     H85250   2.174   5.010  -0.478 -0.0858 -1.2300  1.1168
  646MOL0     H85251   2.053   5.138  -0.491  1.5528  1.2072  0.3062
  646MOL0     H85252   2.259   5.113  -0.257 -0.7978  1.9344  2.8390
  646MOL0     H85253   2.104   5.204  -0.243 -2.7410 -1.6799 -1.7962
  646MOL0     H85254   1.575   4.458  -0.057 -0.2531 -1.8408  3.0330
  646MOL0     H85255   1.431   4.340   0.097  1.1098  0.4964 -1.2412
  646MOL0     H85256   0.875   4.417   0.308  0.6471 -0.0572 -0.6711
  646MOL0     H85257   0.705   4.292   0.400  1.7141  4.7791 -1.1124
  646MOL0     H85258   0.779   4.507   0.599  4.1716 -0.4400 -2.9575
  646MOL0     H85259   0.925   4.672   0.495 -0.6198 -2.3427  0.5161
  646MOL0     H85260   0.942   5.179   0.339 -0.1547  1.1523  0.4098
  646MOL0     H85261   1.104   5.322   0.206 -1.6581  0.1678  2.2250
  646MOL0     H85262   1.257   5.190  -0.183  1.6165  1.6552 -1.3934
  646MOL0     H85263   1.397   5.144  -0.079  2.0879  1.3367  0.2668
  646MOL0     H85264   1.439   5.297  -0.237  1.7191  0.0150  0.4351
  646MOL0     H85265   1.307   5.414  -0.164 -3.1273 -3.2624 -2.5434
  646MOL0     H85266   1.532   5.298   0.009 -0.3408 -0.2720  0.2008
  646MOL0     H85267   1.456   5.449   0.033 -1.9272 -1.6849  1.0210
  646MOL0     H85268   1.692   5.491  -0.047  0.7950 -2.0208  0.2666
  646MOL0     H85269   1.660   5.385  -0.185 -2.4533 -0.4083 -1.3355
  646MOL0     H85270   1.538   5.779  -0.302  0.1535  0.6460 -0.3619
  646MOL0     H85271   1.187   5.005  -0.057  0.3387 -3.2126  1.6023
  646MOL0     H85272   1.024   4.863   0.052  0.0047 -0.0934  0.5327
  647MOL0     O85273  11.139  10.803   5.647  0.2720  0.2576  0.2688
  647MOL0     C85274  11.225  10.722   5.655 -0.9743  0.1532  0.0902
  647MOL0     O85275  11.215  10.585   5.666 -0.5508 -0.0441  0.3893
  647MOL0     C85276  11.093  10.522   5.667  0.3737 -0.0038 -1.3818
  647MOL0     C85277  11.027  10.486   5.544 -0.7466 -0.2112 -0.0086
  647MOL0     C85278  10.914  10.407   5.553  0.2192 -0.6588 -0.0557
  647MOL0     C85279  10.853  10.379   5.676  0.1687 -0.3382  0.3671
  647MOL0     O85280  10.743  10.294   5.687  0.1795  0.1011 -0.1240
  647MOL0     C85281  10.620  10.342   5.643 -0.6559 -0.5210 -0.3597
  647MOL0     C85282  10.506  10.280   5.716 -0.0473  0.5664  0.5756
  647MOL0     C85283  10.369  10.325   5.659  0.7902 -0.0712 -0.0664
  647MOL0     C85284  10.257  10.231   5.719 -0.7296  0.5964 -0.1547
  647MOL0     C85285  10.121  10.259   5.656 -0.0157  0.6777  0.0169
  647MOL0     C85286  10.006  10.170   5.721 -0.4855 -0.4696 -0.2357
  647MOL0     C85287   9.876  10.195   5.642  0.1577 -0.1763 -0.6717
  647MOL0     C85288   9.752  10.110   5.675 -0.0030  0.0777 -0.4523
  647MOL0     N85289   9.715  10.107   5.820  1.2936  0.0195  0.3780
  647MOL0     C85290   9.600  10.173   5.872  0.4472 -0.6499 -0.5121
  647MOL0     C85291   9.599  10.148   6.007 -0.0231 -0.2477  0.3327
  647MOL0     C85292   9.514  10.213   6.115  0.3043 -0.6793  0.1532
  647MOL0     C85293   9.379  10.250   6.054  0.4470  0.7073  0.0849
  647MOL0     C85294   9.277  10.282   6.169 -0.3512  0.9784  0.3658
  647MOL0     C85295   9.205  10.152   6.210  0.4680 -0.4872 -0.5433
  647MOL0     O85296   9.113  10.101   6.106  0.1262 -0.2279  0.3748
  647MOL0     C85297   8.997  10.045   6.158 -0.2200 -0.8049 -0.0830
  647MOL0     C85298   8.898  10.127   6.211 -0.3124 -0.1053  0.0975
  647MOL0     C85299   8.776  10.074   6.251 -0.5256 -0.7655  0.6239
  647MOL0     C85300   8.757   9.934   6.258 -0.5154 -0.6932 -1.4158
  647MOL0     C85301   8.625   9.885   6.301 -0.0881 -0.1732  0.0193
  647MOL0     O85302   8.592   9.759   6.253 -0.4029  0.6374  0.3890
  647MOL0     C85303   8.483   9.703   6.312 -0.4509  0.4874  0.4340
  647MOL0     C85304   8.478   9.667   6.448  0.1476 -0.2219  1.0586
  647MOL0     C85305   8.365   9.619   6.508  0.7565  0.6857  0.8452
  647MOL0     C85306   8.239   9.609   6.444  1.0978  0.7823  1.3606
  647MOL0     O85307   8.127   9.577   6.508  0.6023 -0.4064  0.4785
  647MOL0     C85308   8.005   9.603   6.437  0.0289 -0.1971  0.2690
  647MOL0     C85309   7.879   9.577   6.519 -0.2356 -0.6821  0.4650
  647MOL0     C85310   7.852   9.429   6.529  1.0168  0.5074  0.1772
  647MOL0     C85311   7.833   9.350   6.398  0.1909 -0.4453 -0.5633
  647MOL0     C85312   7.717   9.265   6.422  0.0301  0.6500  0.4190
  647MOL0     C85313   7.664   9.184   6.300 -0.5955 -0.1325  0.5611
  647MOL0     C85314   7.625   9.284   6.185 -0.0669  0.1166  0.4715
  647MOL0     C85315   7.524   9.221   6.088 -0.5732 -0.3589  0.7447
  647MOL0    Cl85316   7.601   9.095   5.992 -0.1680  0.1339 -0.3585
  647MOL0     C85317   8.243   9.633   6.304 -0.6080 -0.6248 -0.6607
  647MOL0     C85318   8.365   9.686   6.241 -0.1388 -0.0851 -0.7032
  647MOL0     O85319   8.541   9.961   6.352  0.3951 -0.4816 -0.2674
  647MOL0     C85320   8.865   9.849   6.220  0.6603 -0.3229 -0.9867
  647MOL0     C85321   8.984   9.906   6.166 -0.4804 -0.4199 -0.1920
  647MOL0     N85322   9.705  10.053   6.032 -0.3478 -0.1925 -0.2118
  647MOL0     N85323   9.772  10.031   5.917  0.0846 -0.0213 -0.4818
  647MOL0     C85324  10.913  10.420   5.793  0.6343 -0.5351  0.0973
  647MOL0     C85325  11.033  10.488   5.786 -1.1208 -0.3407 -0.8556
  647MOL0     C85326  11.361  10.774   5.652 -0.3282 -0.3255 -0.5326
  647MOL0     C85327  11.468  10.688   5.615  0.6771  0.0076 -0.0298
  647MOL0     C85328  11.601  10.733   5.630  0.7317 -0.3701 -0.3307
  647MOL0     C85329  11.637  10.867   5.658  0.2982  0.1312 -0.4713
  647MOL0     O85330  11.764  10.919   5.665  0.3802  0.1831 -0.6083
  647MOL0     C85331  11.874  10.823   5.655 -0.6295 -0.0334  0.2278
  647MOL0     C85332  11.982  10.910   5.611 -0.3755 -0.3696 -0.7863
  647MOL0     C85333  12.090  10.842   5.531 -0.2135  0.0853 -0.3278
  647MOL0     C85334  12.209  10.947   5.515 -0.1192  0.7649 -0.2554
  647MOL0     C85335  12.319  10.895   5.440  0.3995  0.3590 -0.3192
  647MOL0     C85336  12.412  10.859   5.374 -0.7644 -0.6831  0.1587
  647MOL0     C85337  11.535  10.946   5.687  0.0106  0.1339  0.7369
  647MOL0     C85338  11.396  10.915   5.676  0.0221 -0.3029 -1.3453
  647MOL0     H85339  11.068  10.515   5.448  1.8439 -0.3552  0.9668
  647MOL0     H85340  10.852  10.386   5.466  1.9266 -1.5424 -1.1234
  647MOL0     H85341  10.606  10.317   5.537  0.6949  0.9471 -0.9358
  647MOL0     H85342  10.621  10.451   5.655  0.0600 -0.7573  2.2705
  647MOL0     H85343  10.522  10.307   5.821 -1.3495 -0.6939  1.1197
  647MOL0     H85344  10.509  10.172   5.706 -2.7414  0.3564  1.3034
  647MOL0     H85345  10.388  10.314   5.552  1.8888  1.2271 -0.0365
  647MOL0     H85346  10.348  10.432   5.674  0.5456 -0.2413  0.9047
  647MOL0     H85347  10.291  10.127   5.716 -0.8170  0.4834  1.8359
  647MOL0     H85348  10.253  10.253   5.826  0.1835  1.0800 -0.2071
  647MOL0     H85349  10.120  10.251   5.547  0.2003 -0.2987  0.0782
  647MOL0     H85350  10.098  10.361   5.688  0.5881  0.7492  0.2389
  647MOL0     H85351  10.003  10.220   5.818  2.6083 -0.3373 -0.1122
  647MOL0     H85352  10.043  10.068   5.732  1.5234 -0.1569 -3.0129
  647MOL0     H85353   9.844  10.300   5.647 -1.6193 -0.7175  0.3152
  647MOL0     H85354   9.901  10.177   5.537 -2.6392  1.1135 -1.6766
  647MOL0     H85355   9.777  10.009   5.641  0.7389  0.1641 -0.1727
  647MOL0     H85356   9.667  10.148   5.618 -0.5997  3.0498  2.1172
  647MOL0     H85357   9.543  10.246   5.817  3.5841  1.5338 -1.1476
  647MOL0     H85358   9.557  10.303   6.161 -2.6568  0.7070  0.4575
  647MOL0     H85359   9.497  10.138   6.193  1.8320 -2.2993 -0.9980
  647MOL0     H85360   9.343  10.170   5.990  1.7881  1.7128 -2.0549
  647MOL0     H85361   9.387  10.347   6.004 -0.4114  1.7953  1.9408
  647MOL0     H85362   9.324  10.331   6.255  0.4498 -1.4813  1.4292
  647MOL0     H85363   9.205  10.343   6.113 -1.1434 -1.5392 -1.5741
  647MOL0     H85364   9.140  10.176   6.294 -1.7113 -2.2699 -1.6336
  647MOL0     H85365   9.268  10.068   6.240 -0.2482 -0.8536 -0.0729
  647MOL0     H85366   8.911  10.235   6.202 -1.2448  0.0836  0.9058
  647MOL0     H85367   8.702  10.150   6.274 -0.7119 -0.3866 -1.0982
  647MOL0     H85368   8.563   9.675   6.515  1.2474 -0.6581 -0.2233
  647MOL0     H85369   8.364   9.601   6.615  1.1003  3.1137  1.3178
  647MOL0     H85370   7.990   9.548   6.343  0.5259 -2.5495  1.4834
  647MOL0     H85371   7.999   9.711   6.424  0.4085 -0.1764  0.2622
  647MOL0     H85372   7.787   9.625   6.483  1.5004  3.6643  1.2713
  647MOL0     H85373   7.889   9.617   6.620 -1.1546 -1.0598  0.7166
  647MOL0     H85374   7.761   9.413   6.587  0.9687  0.4387  0.0837
  647MOL0     H85375   7.929   9.384   6.592 -0.2527 -0.5936  1.0066
  647MOL0     H85376   7.811   9.416   6.313  0.2849 -1.4197 -1.3710
  647MOL0     H85377   7.918   9.288   6.368  0.3663 -0.0917 -0.7950
  647MOL0     H85378   7.638   9.337   6.448 -0.3568 -0.5207  2.7668
  647MOL0     H85379   7.730   9.191   6.501  0.4122 -1.1315 -1.2537
  647MOL0     H85380   7.577   9.124   6.329 -0.4798  0.7411  2.8821
  647MOL0     H85381   7.738   9.116   6.258 -0.3454  0.9003 -0.7479
  647MOL0     H85382   7.571   9.373   6.216 -0.8448 -0.2442  0.1686
  647MOL0     H85383   7.715   9.325   6.138 -0.4989  2.2628  1.4025
  647MOL0     H85384   7.496   9.303   6.022  1.7069 -0.4699 -0.4403
  647MOL0     H85385   7.432   9.180   6.132 -0.7554 -0.8214 -0.0497
  647MOL0     H85386   8.161   9.613   6.234  0.9922 -2.2150 -2.1797
  647MOL0     H85387   8.346   9.709   6.136 -1.2839 -0.3085 -0.5654
  647MOL0     H85388   8.845   9.742   6.221 -2.4574  0.0704  2.4279
  647MOL0     H85389   9.062   9.845   6.122  0.1117 -0.2067  0.5284
  647MOL0     H85390  10.876  10.387   5.889 -0.2054 -0.0553 -0.0420
  647MOL0     H85391  11.090  10.523   5.871  1.7564 -4.0820 -0.9986
  647MOL0     H85392  11.469  10.584   5.584 -0.5862  0.3280 -1.2248
  647MOL0     H85393  11.671  10.657   5.597  1.6169 -0.2459  1.1792
  647MOL0     H85394  11.852  10.750   5.576  0.3982  1.0036 -1.0592
  647MOL0     H85395  11.898  10.774   5.750  1.6740  1.7293  0.6448
  647MOL0     H85396  11.944  10.995   5.554 -0.8923  2.1494  2.8980
  647MOL0     H85397  12.011  10.958   5.706 -0.6024 -0.1343 -0.8349
  647MOL0     H85398  12.059  10.814   5.430  1.3544  1.8076 -1.3550
  647MOL0     H85399  12.135  10.758   5.584 -1.0554  1.6988  3.2819
  647MOL0     H85400  12.167  11.035   5.466  3.4901  1.1565 -3.1411
  647MOL0     H85401  12.238  10.987   5.613 -1.4433  2.2878 -0.4514
  647MOL0     H85402  12.495  10.830   5.314  1.6918  0.7770  2.6159
  647MOL0     H85403  11.556  11.051   5.707 -0.0686 -0.0761  1.9995
  647MOL0     H85404  11.318  10.984   5.706  0.9811  0.9483 -1.6762
  648MOL0     O85405   8.753  10.778   8.617  0.0534 -0.1582  0.0664
  648MOL0     C85406   8.789  10.831   8.723 -0.1270 -0.2536 -0.4424
  648MOL0     O85407   8.710  10.923   8.792  1.1105  0.1741 -0.4617
  648MOL0     C85408   8.582  10.932   8.745 -0.0744  0.4750 -0.0834
  648MOL0     C85409   8.471  10.854   8.790  0.6857  0.5953  0.1231
  648MOL0     C85410   8.337  10.904   8.775 -0.5944 -0.4621  0.1097
  648MOL0     C85411   8.313  11.010   8.694 -0.1914 -0.0863  0.2528
  648MOL0     O85412   8.183  11.058   8.683 -0.2751 -0.5282  0.2052
  648MOL0     C85413   8.152  11.187   8.629 -1.1961  0.8287  0.4880
  648MOL0     C85414   8.001  11.206   8.626 -0.2295  0.3000 -0.4597
  648MOL0     C85415   7.940  11.109   8.523  0.3174 -0.6420 -0.2956
  648MOL0     C85416   7.795  11.074   8.542 -0.7097 -0.4870 -0.4721
  648MOL0     C85417   7.692  11.182   8.524 -0.1815  0.8173 -0.5387
  648MOL0     C85418   7.547  11.130   8.525  0.2690  0.5355 -0.2414
  648MOL0     C85419   7.444  11.221   8.469  0.3456  0.3413  0.2551
  648MOL0     C85420   7.301  11.190   8.508  0.0165  0.1200 -0.0324
  648MOL0     N85421   7.199  11.283   8.461 -0.5623 -0.4588  0.5367
  648MOL0     C85422   7.149  11.296   8.332 -0.0807  0.4467  0.0677
  648MOL0     C85423   7.052  11.395   8.352 -0.9100 -0.0031 -0.0491
  648MOL0     C85424   6.971  11.463   8.246  0.0039 -0.0674 -0.0006
  648MOL0     C85425   6.841  11.395   8.201 -0.2564  0.3913 -0.1197
  648MOL0     C85426   6.747  11.349   8.311  0.2420 -0.4476  0.4554
  648MOL0     C85427   6.690  11.483   8.379  0.0961  0.2141 -0.2226
  648MOL0     O85428   6.649  11.568   8.275  0.1066  0.5611  0.7994
  648MOL0     C85429   6.515  11.572   8.231  0.1267  0.0588 -0.3574
  648MOL0     C85430   6.447  11.465   8.176 -0.8099  0.0501 -0.6654
  648MOL0     C85431   6.313  11.472   8.144  0.3332  0.5441  1.0942
  648MOL0     C85432   6.247  11.591   8.151  0.2861  0.4670  0.6020
  648MOL0     C85433   6.096  11.600   8.109 -1.0818  0.0282 -0.3487
  648MOL0     O85434   6.049  11.726   8.074  0.0227  0.5624  0.6879
  648MOL0     C85435   5.917  11.748   8.053  0.1092  0.6411  0.5485
  648MOL0     C85436   5.822  11.703   8.150 -0.1966  0.1585 -0.3025
  648MOL0     C85437   5.684  11.743   8.145 -0.2589 -0.4582  0.2743
  648MOL0     C85438   5.637  11.820   8.039 -1.4813  0.3034 -0.1595
  648MOL0     O85439   5.515  11.864   8.003 -0.1434  0.5518 -0.3883
  648MOL0     C85440   5.405  11.841   8.079  0.1982  0.7939 -0.7794
  648MOL0     C85441   5.291  11.893   8.002  0.1998  0.0985  0.3048
  648MOL0     C85442   5.161  11.868   8.078 -0.2140 -0.0964  0.2242
  648MOL0     C85443   5.167  11.943   8.214  0.0546 -0.1145  0.7351
  648MOL0     C85444   5.026  11.939   8.296  0.5462  0.3056  0.0034
  648MOL0     C85445   5.041  11.966   8.448  0.1387  0.5880  0.1416
  648MOL0     C85446   4.899  11.979   8.507  0.9173  1.0151 -0.0794
  648MOL0     C85447   4.897  12.051   8.648 -0.1589  0.0440 -0.0858
  648MOL0    Cl85448   4.744  12.057   8.743 -0.2493 -0.0657  0.3057
  648MOL0     C85449   5.732  11.859   7.943 -0.0813 -0.1536 -0.7967
  648MOL0     C85450   5.867  11.818   7.946  0.6274  0.0417 -0.2423
  648MOL0     O85451   6.034  11.495   8.113 -0.0950  0.3853  0.3327
  648MOL0     C85452   6.317  11.700   8.190  0.2229 -0.0572  0.2665
  648MOL0     C85453   6.447  11.693   8.231 -0.4400  0.4732 -0.5694
  648MOL0     N85454   7.045  11.441   8.483 -0.3628  0.6407  0.1665
  648MOL0     N85455   7.139  11.375   8.544 -0.0848 -0.7767  0.3470
  648MOL0     C85456   8.422  11.072   8.628  0.6049  0.7333 -0.2944
  648MOL0     C85457   8.552  11.037   8.653 -0.0041  0.1526 -0.1925
  648MOL0     C85458   8.931  10.824   8.765 -0.3193  0.7167  0.6577
  648MOL0     C85459   8.974  10.890   8.878  0.3957 -0.6817 -0.2859
  648MOL0     C85460   9.107  10.877   8.924 -0.4638  0.0184  0.4011
  648MOL0     C85461   9.199  10.802   8.848  1.0450  0.6215 -1.5543
  648MOL0     O85462   9.326  10.784   8.899 -0.5403 -0.9408  0.6094
  648MOL0     C85463   9.424  10.735   8.811 -0.4451 -1.0101  0.6225
  648MOL0     C85464   9.569  10.777   8.857  0.3232 -0.9707 -0.5595
  648MOL0     C85465   9.682  10.708   8.785  0.1378 -0.4405 -0.6910
  648MOL0     C85466   9.816  10.766   8.827 -0.6774 -0.0714 -0.6485
  648MOL0     C85467   9.839  10.903   8.774 -0.2339  0.9865 -0.3296
  648MOL0     C85468   9.872  11.016   8.729 -0.2360 -0.4076 -0.3014
  648MOL0     C85469   9.151  10.748   8.724  0.3814 -0.2450 -0.6614
  648MOL0     C85470   9.016  10.759   8.685 -0.4493 -0.0008 -0.5231
  648MOL0     H85471   8.497  10.761   8.838  0.9731 -0.9406 -2.7871
  648MOL0     H85472   8.253  10.850   8.818 -0.8379  1.1019  1.7440
  648MOL0     H85473   8.195  11.191   8.528 -0.2330 -1.0125  0.7819
  648MOL0     H85474   8.200  11.260   8.695  2.4457 -1.0764  0.2196
  648MOL0     H85475   7.959  11.306   8.613 -1.2333 -0.1786 -0.9913
  648MOL0     H85476   7.957  11.176   8.722  0.8698  0.3564  0.0787
  648MOL0     H85477   7.992  11.013   8.523  1.3786 -0.2533  3.8711
  648MOL0     H85478   7.946  11.149   8.421 -0.6450 -1.8484 -0.8527
  648MOL0     H85479   7.769  10.986   8.483  1.2411 -0.6045 -1.2508
  648MOL0     H85480   7.769  11.059   8.647 -1.7511  1.6202 -0.3547
  648MOL0     H85481   7.714  11.232   8.429  3.6825  0.1767 -0.1237
  648MOL0     H85482   7.699  11.252   8.609 -1.1260  0.7398 -0.3802
  648MOL0     H85483   7.536  11.112   8.632  1.6804  1.2058  0.0466
  648MOL0     H85484   7.558  11.042   8.461 -0.9344  1.1562 -1.3591
  648MOL0     H85485   7.466  11.319   8.514  2.0715  1.1109 -2.0733
  648MOL0     H85486   7.451  11.218   8.360  0.7232 -0.2750  0.2961
  648MOL0     H85487   7.293  11.177   8.617  0.5308 -1.3276 -0.1509
  648MOL0     H85488   7.281  11.087   8.477  0.1092 -0.0123  0.3402
  648MOL0     H85489   7.184  11.252   8.240  0.6793 -0.0919  0.6099
  648MOL0     H85490   7.029  11.484   8.156 -0.3930 -0.8168 -0.4341
  648MOL0     H85491   6.945  11.562   8.286  1.6964 -0.0714  1.2686
  648MOL0     H85492   6.870  11.309   8.139 -0.7805  1.2687 -1.6128
  648MOL0     H85493   6.787  11.450   8.125 -1.2581 -0.0576  0.2423
  648MOL0     H85494   6.678  11.273   8.273 -0.1053 -1.0356  2.1718
  648MOL0     H85495   6.804  11.286   8.380 -1.9529 -1.4856  1.4470
  648MOL0     H85496   6.775  11.532   8.428 -0.1212  0.3247  0.0400
  648MOL0     H85497   6.611  11.459   8.450  0.6708 -0.0334  0.3466
  648MOL0     H85498   6.498  11.372   8.157 -0.8512  0.2007 -1.5543
  648MOL0     H85499   6.264  11.385   8.102  0.1725  0.5280  1.3159
  648MOL0     H85500   5.858  11.654   8.239  0.5666 -0.0518 -0.7196
  648MOL0     H85501   5.610  11.709   8.216 -0.0170 -0.1881  0.6616
  648MOL0     H85502   5.419  11.899   8.170  0.6167  0.2068 -0.4583
  648MOL0     H85503   5.391  11.734   8.101  1.4461  0.8669  0.5278
  648MOL0     H85504   5.287  11.858   7.898  1.3180  0.3280  0.1719
  648MOL0     H85505   5.310  12.001   7.998  1.2920 -0.0630  0.7905
  648MOL0     H85506   5.144  11.760   8.086 -0.5168 -0.2073 -1.4766
  648MOL0     H85507   5.078  11.905   8.017  0.2693 -0.6269 -0.7730
  648MOL0     H85508   5.239  11.893   8.279  1.1434 -1.0078 -1.0728
  648MOL0     H85509   5.193  12.045   8.184 -1.8452 -0.5949 -3.1445
  648MOL0     H85510   4.974  11.847   8.270 -1.3829  1.5938 -0.8976
  648MOL0     H85511   4.962  12.019   8.257 -0.4924 -0.1426  0.7671
  648MOL0     H85512   5.094  12.062   8.450 -2.5789  2.1807  1.2656
  648MOL0     H85513   5.104  11.890   8.494 -0.6484 -0.4526 -0.4539
  648MOL0     H85514   4.828  12.030   8.440  0.2440  1.7211  1.1442
  648MOL0     H85515   4.856  11.880   8.520 -3.4934  2.9437  2.3899
  648MOL0     H85516   4.931  12.154   8.633  2.5827 -0.1198  3.5859
  648MOL0     H85517   4.980  12.005   8.702 -0.7674 -1.0530 -0.0595
  648MOL0     H85518   5.690  11.914   7.859  1.9671 -1.2696 -2.6715
  648MOL0     H85519   5.924  11.852   7.861 -0.6517 -1.4708 -1.7675
  648MOL0     H85520   6.260  11.792   8.189 -1.6850 -1.1793 -0.8950
  648MOL0     H85521   6.494  11.787   8.256 -2.8522  1.6468 -0.1329
  648MOL0     H85522   8.394  11.143   8.550 -1.4763 -1.5996 -1.8211
  648MOL0     H85523   8.640  11.094   8.624  0.6892 -0.5715  0.4500
  648MOL0     H85524   8.904  10.937   8.946  2.1910  1.4489  0.1860
  648MOL0     H85525   9.138  10.919   9.019 -1.6513 -1.5908  1.5715
  648MOL0     H85526   9.416  10.772   8.709 -2.9973  0.2235  1.1671
  648MOL0     H85527   9.423  10.628   8.790  1.7184 -0.6163 -1.9320
  648MOL0     H85528   9.576  10.885   8.842  2.0265 -0.9317  0.2835
  648MOL0     H85529   9.568  10.746   8.962 -0.3921  0.2753 -0.1704
  648MOL0     H85530   9.665  10.715   8.678 -0.7634  0.5703 -0.5018
  648MOL0     H85531   9.671  10.600   8.800 -2.5908  0.0225  1.5724
  648MOL0     H85532   9.816  10.772   8.936 -3.1159  1.2507 -0.6657
  648MOL0     H85533   9.896  10.702   8.789  1.7445  2.5947 -0.3487
  648MOL0     H85534   9.890  11.117   8.697  2.0216  0.2189  2.6026
  648MOL0     H85535   9.218  10.710   8.648 -1.1962 -2.1651 -1.1785
  648MOL0     H85536   8.985  10.711   8.592  1.4381 -0.9488 -0.7081
  649MOL0     O85537   2.805   0.457   3.785  1.1313 -0.8189 -0.1235
  649MOL0     C85538   2.844   0.358   3.726 -0.3078 -0.4718  0.8986
  649MOL0     O85539   2.769   0.264   3.655  0.2069  0.2907  0.3899
  649MOL0     C85540   2.623   0.272   3.656 -0.5398  0.9748 -0.1919
  649MOL0     C85541   2.559   0.183   3.569 -0.1619 -0.5640 -0.0392
  649MOL0     C85542   2.417   0.176   3.572  0.3325  0.5977 -0.1824
  649MOL0     C85543   2.339   0.247   3.660 -0.3355  0.5628  0.1952
  649MOL0     O85544   2.206   0.254   3.673 -0.1145 -0.1977  0.3714
  649MOL0     C85545   2.142   0.130   3.671 -0.0454 -1.0855 -0.3236
  649MOL0     C85546   1.995   0.153   3.684  0.7864  0.7098  0.3823
  649MOL0     C85547   1.952   0.221   3.813  1.0942  0.0128 -0.0234
  649MOL0     C85548   1.803   0.237   3.821 -0.2688  0.4820  0.3336
  649MOL0     C85549   1.720   0.109   3.846 -0.3226  0.3343  0.7236
  649MOL0     C85550   1.576   0.136   3.874 -0.0017  1.0795  0.3347
  649MOL0     C85551   1.499  -0.002   3.868  0.1563  0.5033 -0.0879
  649MOL0     C85552   1.344   0.017   3.864 -0.0856  0.4222 -0.2957
  649MOL0     N85553   1.265  -0.107   3.866 -0.5870  0.1374  0.8625
  649MOL0     C85554   1.238  -0.190   3.760  0.1444 -0.4145  0.1419
  649MOL0     C85555   1.163  -0.299   3.814 -1.1699 -0.5046  0.0031
  649MOL0     C85556   1.097  -0.409   3.745 -0.1587 -0.9430  0.2995
  649MOL0     C85557   0.968  -0.353   3.681 -0.7940  0.4070 -0.0124
  649MOL0     C85558   0.862  -0.336   3.788  0.8866  0.3547  0.1733
  649MOL0     C85559   0.727  -0.267   3.749  0.5232 -0.2467 -0.6481
  649MOL0     O85560   0.631  -0.277   3.850 -0.0632  0.1666  0.2079
  649MOL0     C85561   0.500  -0.268   3.820 -0.3030  0.0448  0.5582
  649MOL0     C85562   0.442  -0.205   3.708 -0.1587 -0.1862 -1.2090
  649MOL0     C85563   0.299  -0.198   3.704 -0.1163 -0.1324  0.5147
  649MOL0     C85564   0.218  -0.254   3.799  0.7305  0.9548 -0.9334
  649MOL0     C85565   0.061  -0.250   3.785 -0.2931  0.7416  0.5253
  649MOL0     O85566   0.016  -0.195   3.658 -0.7471  0.0973  0.0456
  649MOL0     C85567  -0.117  -0.208   3.637 -0.1255 -0.3596  0.0929
  649MOL0     C85568  -0.166  -0.328   3.584 -0.0822  0.3386 -0.2319
  649MOL0     C85569  -0.306  -0.341   3.551 -0.1431 -0.3960  0.7618
  649MOL0     C85570  -0.404  -0.237   3.570  0.3354 -0.6409 -0.0030
  649MOL0     O85571  -0.541  -0.235   3.566  0.8442 -0.4878  0.0685
  649MOL0     C85572  -0.618  -0.348   3.513 -0.5934  0.0658  0.1114
  649MOL0     C85573  -0.676  -0.299   3.377  0.5615 -0.4513  1.0434
  649MOL0     C85574  -0.783  -0.396   3.322  0.3110  0.4534 -0.6929
  649MOL0     C85575  -0.849  -0.339   3.205  0.9933 -0.3552  0.0339
  649MOL0     C85576  -0.957  -0.431   3.145  0.7679 -0.1087 -0.3748
  649MOL0     C85577  -1.034  -0.376   3.022 -0.7449  0.9168 -0.3516
  649MOL0     C85578  -1.163  -0.458   2.991 -0.1849  0.2706 -0.8793
  649MOL0     C85579  -1.250  -0.402   2.883 -0.3563  0.3020  0.0432
  649MOL0    Cl85580  -1.297  -0.233   2.906 -0.4947 -0.1201 -0.0183
  649MOL0     C85581  -0.347  -0.117   3.619 -0.7210 -0.2333 -0.5714
  649MOL0     C85582  -0.201  -0.097   3.645 -0.0469 -0.2321 -0.2402
  649MOL0     O85583  -0.008  -0.307   3.875 -0.6266 -1.1468 -0.4274
  649MOL0     C85584   0.285  -0.310   3.910  0.1877 -0.0953  1.0898
  649MOL0     C85585   0.417  -0.319   3.923  0.8660 -0.4461  0.2046
  649MOL0     N85586   1.167  -0.277   3.945  0.1227 -0.6062  0.1618
  649MOL0     N85587   1.220  -0.166   3.983  0.8437  0.0942 -0.0471
  649MOL0     C85588   2.404   0.331   3.739  0.0026 -0.0351 -0.0564
  649MOL0     C85589   2.546   0.332   3.749  0.6906 -0.5503 -0.2847
  649MOL0     C85590   2.990   0.348   3.728  0.5521  0.3199  0.1796
  649MOL0     C85591   3.070   0.447   3.800  0.2875  0.3278  0.2515
  649MOL0     C85592   3.212   0.429   3.799  0.3695 -0.2891 -0.6874
  649MOL0     C85593   3.272   0.332   3.729  0.2414  0.8787  0.6221
  649MOL0     O85594   3.403   0.321   3.719 -0.2200  0.5584 -0.3437
  649MOL0     C85595   3.495   0.343   3.833  0.3563  0.1859 -0.1498
  649MOL0     C85596   3.619   0.429   3.783 -0.3851 -0.0424  0.2924
  649MOL0     C85597   3.699   0.505   3.893  0.8539 -0.3200  0.6786
  649MOL0     C85598   3.826   0.557   3.832  0.2740  0.0250 -1.1139
  649MOL0     C85599   3.816   0.665   3.730 -0.2463 -0.6844  0.0377
  649MOL0     C85600   3.826   0.732   3.631  0.7657  0.8565  0.5582
  649MOL0     C85601   3.194   0.245   3.653  0.6412  0.1412  0.0814
  649MOL0     C85602   3.052   0.255   3.647 -0.8530 -0.6177  0.5923
  649MOL0     H85603   2.617   0.140   3.487 -0.4554 -2.7475  0.8190
  649MOL0     H85604   2.375   0.127   3.485  0.2483  0.6573 -0.1755
  649MOL0     H85605   2.192   0.073   3.750  0.4220 -0.5384 -0.2199
  649MOL0     H85606   2.163   0.089   3.571  0.4007 -1.3765 -0.1115
  649MOL0     H85607   1.941   0.058   3.670  0.5098  0.6006  1.9608
  649MOL0     H85608   1.957   0.194   3.591  1.1164 -3.4447 -1.8365
  649MOL0     H85609   2.000   0.319   3.819  1.1598  0.2653 -3.2201
  649MOL0     H85610   1.992   0.159   3.895  0.7085 -1.8511 -1.1746
  649MOL0     H85611   1.795   0.315   3.897  0.1079  3.3685 -2.3951
  649MOL0     H85612   1.776   0.292   3.730  1.3372  0.6420 -0.0842
  649MOL0     H85613   1.759   0.058   3.935 -0.4661 -1.4869 -0.2163
  649MOL0     H85614   1.734   0.035   3.766  0.6006  0.1106  1.0743
  649MOL0     H85615   1.530   0.195   3.795  0.7179  1.1197 -0.0588
  649MOL0     H85616   1.554   0.194   3.964  0.0400  1.0977  0.3336
  649MOL0     H85617   1.541  -0.064   3.788  2.2513 -3.0752  3.4072
  649MOL0     H85618   1.517  -0.055   3.962 -0.2412  0.5414  0.0093
  649MOL0     H85619   1.324   0.077   3.775 -0.6124  0.3209 -0.2480
  649MOL0     H85620   1.321   0.075   3.954  1.0869  1.8911 -0.8969
  649MOL0     H85621   1.280  -0.171   3.662  0.3778  0.2438  0.3627
  649MOL0     H85622   1.079  -0.492   3.815 -0.2357 -1.0168  0.1918
  649MOL0     H85623   1.155  -0.444   3.659  2.4878  0.7679  1.2639
  649MOL0     H85624   0.933  -0.412   3.596  4.6981 -0.1962 -2.3018
  649MOL0     H85625   0.986  -0.255   3.637  1.6310  0.8996  1.8581
  649MOL0     H85626   0.849  -0.437   3.830  1.5263  1.1474  2.4529
  649MOL0     H85627   0.908  -0.279   3.869  1.5180 -1.6389  1.2778
  649MOL0     H85628   0.689  -0.319   3.661 -0.1947 -1.3959  0.3145
  649MOL0     H85629   0.748  -0.162   3.723 -1.8953  2.0900  5.1275
  649MOL0     H85630   0.500  -0.156   3.630  0.3336 -1.3068 -1.5581
  649MOL0     H85631   0.253  -0.160   3.613  1.2087  0.2174 -0.0464
  649MOL0     H85632  -0.093  -0.402   3.554  0.1007 -0.0446  1.1331
  649MOL0     H85633  -0.337  -0.434   3.504 -0.2593 -1.5724  3.0609
  649MOL0     H85634  -0.705  -0.378   3.571 -0.8997 -0.8262 -0.7750
  649MOL0     H85635  -0.559  -0.439   3.501 -2.6716 -1.1259 -1.9191
  649MOL0     H85636  -0.595  -0.283   3.305 -2.4432  3.3380 -1.8731
  649MOL0     H85637  -0.730  -0.207   3.399  0.5395 -0.0302 -0.6491
  649MOL0     H85638  -0.862  -0.416   3.395  0.4851 -1.0246 -0.8957
  649MOL0     H85639  -0.740  -0.491   3.290 -0.2553  0.0783 -0.3555
  649MOL0     H85640  -0.885  -0.237   3.223  0.7735 -0.4993  0.3971
  649MOL0     H85641  -0.764  -0.326   3.137 -0.1537  0.9585 -1.2258
  649MOL0     H85642  -1.026  -0.459   3.225 -1.1037  1.3828 -1.3741
  649MOL0     H85643  -0.901  -0.516   3.106  3.7223  0.2724  2.5656
  649MOL0     H85644  -0.961  -0.378   2.940  0.4887 -1.4868  0.7022
  649MOL0     H85645  -1.067  -0.272   3.032  0.9470  1.3647  1.1641
  649MOL0     H85646  -1.118  -0.554   2.963  0.2356 -0.2389  1.4081
  649MOL0     H85647  -1.229  -0.472   3.076  1.9003 -1.1425  0.6019
  649MOL0     H85648  -1.344  -0.458   2.884  0.6212 -1.4505  1.0723
  649MOL0     H85649  -1.204  -0.409   2.784 -0.9398 -3.0806 -0.1045
  649MOL0     H85650  -0.413  -0.033   3.633 -0.3794 -0.1734  0.8279
  649MOL0     H85651  -0.160  -0.001   3.673 -1.1960 -0.3508  2.0788
  649MOL0     H85652   0.229  -0.357   3.990  0.1407  1.6329  2.1167
  649MOL0     H85653   0.462  -0.372   4.007 -0.3960 -1.3258  0.3536
  649MOL0     H85654   2.351   0.398   3.806 -2.3859  0.1124 -1.9623
  649MOL0     H85655   2.576   0.401   3.827 -3.6539 -0.3781  1.5135
  649MOL0     H85656   3.031   0.526   3.864 -0.9433 -1.1008  1.3503
  649MOL0     H85657   3.274   0.502   3.850  0.0422  0.6655 -1.6298
  649MOL0     H85658   3.540   0.253   3.874  1.0923  0.6826  0.1635
  649MOL0     H85659   3.455   0.394   3.922 -1.3411 -1.7886  0.2924
  649MOL0     H85660   3.684   0.363   3.724 -1.4971 -1.7237  0.8546
  649MOL0     H85661   3.569   0.503   3.720  0.9803 -0.1663 -0.9886
  649MOL0     H85662   3.724   0.436   3.974 -1.2142  0.1487  1.8046
  649MOL0     H85663   3.649   0.589   3.942  3.5719 -0.0329  3.2066
  649MOL0     H85664   3.897   0.604   3.901  2.3114 -2.2799 -1.5049
  649MOL0     H85665   3.884   0.468   3.807  1.0135 -0.3518  1.6539
  649MOL0     H85666   3.834   0.796   3.545  1.8708 -0.5032 -0.3941
  649MOL0     H85667   3.242   0.159   3.606  2.2930  1.5086 -0.8420
  649MOL0     H85668   3.001   0.172   3.600  0.7179 -1.2484 -0.0725
  650MOL0     O85669   1.200   4.066   2.057  0.4551  0.3602 -0.2170
  650MOL0     C85670   1.278   4.137   2.117 -0.9300 -0.1641 -0.1566
  650MOL0     O85671   1.255   4.202   2.237 -0.4603  0.8278 -0.5439
  650MOL0     C85672   1.144   4.173   2.309 -0.5948 -0.3913 -1.1599
  650MOL0     C85673   1.067   4.280   2.354 -0.8263 -0.5039 -0.3887
  650MOL0     C85674   0.948   4.273   2.429  0.5901  0.3438 -0.6056
  650MOL0     C85675   0.894   4.150   2.453 -0.0377 -0.0491 -0.3658
  650MOL0     O85676   0.779   4.129   2.523  0.2377 -0.3510 -0.4746
  650MOL0     C85677   0.664   4.208   2.482  0.4176  0.4751 -1.0988
  650MOL0     C85678   0.557   4.179   2.590  0.1593 -0.2141  0.8756
  650MOL0     C85679   0.427   4.231   2.540  0.2802  0.7094  0.3595
  650MOL0     C85680   0.310   4.216   2.638  0.7231  0.3327  0.0029
  650MOL0     C85681   0.169   4.244   2.579 -0.3214 -0.5855  0.0969
  650MOL0     C85682   0.052   4.177   2.653  0.9535  0.6095 -0.7571
  650MOL0     C85683  -0.085   4.235   2.598  0.4120  0.3140  0.4039
  650MOL0     C85684  -0.114   4.378   2.642 -0.2636  0.5511  0.4060
  650MOL0     N85685  -0.180   4.392   2.774 -0.0340 -0.0496 -0.3184
  650MOL0     C85686  -0.115   4.395   2.901  0.4859  0.0138 -0.0551
  650MOL0     C85687  -0.215   4.396   2.993 -0.6022 -0.0838 -0.0726
  650MOL0     C85688  -0.195   4.388   3.138 -0.1752 -0.2982 -0.2516
  650MOL0     C85689  -0.290   4.275   3.190  0.1287  0.5567 -1.4063
  650MOL0     C85690  -0.256   4.238   3.330 -0.1008  0.0230 -0.5066
  650MOL0     C85691  -0.345   4.304   3.431  0.1460  0.3071 -0.1900
  650MOL0     O85692  -0.381   4.440   3.399 -0.3231 -0.1236 -0.5862
  650MOL0     C85693  -0.387   4.526   3.505 -0.0525  0.4649  0.1818
  650MOL0     C85694  -0.308   4.643   3.499  0.2016 -0.2799 -0.6785
  650MOL0     C85695  -0.302   4.720   3.618 -0.4410  0.3344 -0.4800
  650MOL0     C85696  -0.374   4.686   3.736  0.5596 -0.0881  0.5049
  650MOL0     C85697  -0.356   4.779   3.855 -0.1432  0.1543 -0.8351
  650MOL0     O85698  -0.274   4.891   3.853 -0.9100  0.0520  0.0467
  650MOL0     C85699  -0.274   4.956   3.972  0.3711  0.2232 -0.2648
  650MOL0     C85700  -0.164   4.954   4.054  0.3713 -0.3113 -0.5291
  650MOL0     C85701  -0.158   5.022   4.178 -0.9074  0.9671 -0.1657
  650MOL0     C85702  -0.268   5.087   4.224  0.6859  0.6567 -0.1099
  650MOL0     O85703  -0.274   5.138   4.348  0.2624  0.2821  0.7168
  650MOL0     C85704  -0.159   5.161   4.431 -0.8008 -0.1199 -0.2530
  650MOL0     C85705  -0.199   5.257   4.542 -0.2716 -0.0537  0.7644
  650MOL0     C85706  -0.084   5.281   4.634 -0.1472 -1.0517  0.8452
  650MOL0     C85707  -0.120   5.368   4.750 -0.0823  1.1748 -1.1955
  650MOL0     C85708   0.011   5.409   4.820  0.1964  0.0594  0.1637
  650MOL0     C85709   0.087   5.292   4.879  1.2625  0.6551 -0.5960
  650MOL0     C85710   0.230   5.318   4.932  0.2221 -0.3517 -0.0167
  650MOL0     C85711   0.287   5.204   5.006  0.3931 -0.3098  0.2772
  650MOL0    Cl85712   0.438   5.260   5.079  0.1487  0.1890  0.1365
  650MOL0     C85713  -0.381   5.091   4.144 -0.1635  0.2038 -0.2019
  650MOL0     C85714  -0.379   5.030   4.016 -0.7080 -0.6374  0.7532
  650MOL0     O85715  -0.417   4.739   3.951 -0.1470 -0.3573 -0.6068
  650MOL0     C85716  -0.452   4.568   3.740 -0.6593  0.4695  1.1251
  650MOL0     C85717  -0.454   4.487   3.624 -0.6308 -0.1112  0.3375
  650MOL0     N85718  -0.335   4.387   2.929  0.0269 -0.2274 -0.1903
  650MOL0     N85719  -0.314   4.385   2.802  0.5258  0.2111 -0.1051
  650MOL0     C85720   0.971   4.031   2.416  0.0072 -0.0016  0.0584
  650MOL0     C85721   1.086   4.045   2.336 -0.1579  0.2326 -0.5384
  650MOL0     C85722   1.405   4.143   2.056 -0.2440  0.4198 -0.1102
  650MOL0     C85723   1.492   4.240   2.092 -0.2811 -0.1254 -1.4717
  650MOL0     C85724   1.623   4.259   2.035  0.4183  0.1918  0.6924
  650MOL0     C85725   1.664   4.165   1.940 -0.0035  0.3377 -0.6085
  650MOL0     O85726   1.792   4.161   1.879  0.0305 -0.4599 -0.3711
  650MOL0     C85727   1.889   4.251   1.941 -0.6204 -0.1650 -0.6933
  650MOL0     C85728   2.030   4.231   1.880 -1.2315  0.1527 -0.3904
  650MOL0     C85729   2.079   4.081   1.893 -0.2340 -1.0919 -0.2949
  650MOL0     C85730   2.092   4.042   2.041  0.3693 -0.4899 -0.0584
  650MOL0     C85731   2.199   4.125   2.099 -0.5945  0.1800 -0.5295
  650MOL0     C85732   2.287   4.190   2.155  0.4508  0.5677 -0.6952
  650MOL0     C85733   1.573   4.066   1.901 -1.1066 -0.2697  0.9190
  650MOL0     C85734   1.445   4.057   1.956  0.2722  0.5532  0.8833
  650MOL0     H85735   1.081   4.385   2.330  0.5742 -1.3818 -4.0611
  650MOL0     H85736   0.897   4.363   2.460  0.7600  0.4292 -0.5743
  650MOL0     H85737   0.620   4.170   2.390 -0.7607 -0.3096 -0.2259
  650MOL0     H85738   0.686   4.315   2.485  2.2836  0.1813  3.0142
  650MOL0     H85739   0.592   4.217   2.687 -1.1434  0.1771  1.2070
  650MOL0     H85740   0.548   4.070   2.600  0.1017 -0.3060 -0.1093
  650MOL0     H85741   0.402   4.180   2.447 -0.1868  2.7807 -0.7063
  650MOL0     H85742   0.436   4.338   2.520  1.7338  0.6018  0.3305
  650MOL0     H85743   0.323   4.118   2.684  1.5744 -0.0039 -0.9271
  650MOL0     H85744   0.326   4.291   2.716  0.9819  1.0572 -0.7324
  650MOL0     H85745   0.168   4.214   2.474  3.8764 -1.5276  0.1324
  650MOL0     H85746   0.150   4.351   2.573  0.4884 -0.4803 -0.8127
  650MOL0     H85747   0.059   4.204   2.759  2.2178  0.8716 -0.8934
  650MOL0     H85748   0.052   4.068   2.667  3.2580  0.4957 -1.2515
  650MOL0     H85749  -0.077   4.240   2.489  0.1288  1.6131  0.4195
  650MOL0     H85750  -0.163   4.164   2.626 -1.1763  1.1756 -1.5522
  650MOL0     H85751  -0.186   4.426   2.576 -2.3670  0.0872  2.2217
  650MOL0     H85752  -0.022   4.437   2.639  1.9743 -2.7242 -1.2589
  650MOL0     H85753  -0.010   4.404   2.925  0.2533  0.3899  0.8501
  650MOL0     H85754  -0.208   4.481   3.195  1.4977 -0.1546 -0.0479
  650MOL0     H85755  -0.089   4.361   3.146 -0.7213 -2.7193 -0.5719
  650MOL0     H85756  -0.272   4.188   3.126  2.7861 -0.9917  1.2256
  650MOL0     H85757  -0.396   4.300   3.183 -0.3804 -0.7160  0.8183
  650MOL0     H85758  -0.267   4.130   3.339  1.7275 -0.0680  1.2754
  650MOL0     H85759  -0.151   4.252   3.354  0.1089 -2.3482  0.2255
  650MOL0     H85760  -0.285   4.298   3.523  2.1544 -2.4304 -1.4980
  650MOL0     H85761  -0.439   4.250   3.442  0.7402 -0.2260  4.5309
  650MOL0     H85762  -0.252   4.680   3.414 -2.3829  1.6468 -1.6945
  650MOL0     H85763  -0.241   4.809   3.608  1.6740 -1.1548 -1.5312
  650MOL0     H85764  -0.073   4.903   4.022  0.3639  0.7664 -2.3814
  650MOL0     H85765  -0.058   5.015   4.222 -0.7288 -0.1375 -0.7215
  650MOL0     H85766  -0.067   5.200   4.387  0.7034 -1.7434  1.2871
  650MOL0     H85767  -0.131   5.071   4.486 -1.2525 -1.1750 -1.6804
  650MOL0     H85768  -0.277   5.206   4.600 -2.0033  1.1661 -0.3698
  650MOL0     H85769  -0.248   5.352   4.517  1.6376  0.9066  0.5048
  650MOL0     H85770  -0.003   5.333   4.583 -1.8901  2.3872  1.2122
  650MOL0     H85771  -0.056   5.182   4.669 -1.2707 -1.9595 -0.7309
  650MOL0     H85772  -0.188   5.449   4.722 -3.3048 -0.8282  0.3297
  650MOL0     H85773  -0.171   5.305   4.823 -1.2110 -0.4054 -3.2379
  650MOL0     H85774  -0.008   5.473   4.907  1.3776  0.5797  0.0621
  650MOL0     H85775   0.070   5.471   4.752  1.6151  1.6632  2.6918
  650MOL0     H85776   0.106   5.218   4.800  2.2705  0.0112  0.2190
  650MOL0     H85777   0.023   5.256   4.960  0.5054 -0.2131 -1.5537
  650MOL0     H85778   0.290   5.352   4.847 -0.2800 -1.9849 -1.0707
  650MOL0     H85779   0.230   5.408   4.994  0.5311  1.0728 -1.9746
  650MOL0     H85780   0.306   5.113   4.949 -0.3732  0.4459 -1.2269
  650MOL0     H85781   0.218   5.190   5.089 -1.0559  0.1361 -0.8200
  650MOL0     H85782  -0.465   5.156   4.167  0.6037  1.8755 -1.8777
  650MOL0     H85783  -0.461   5.047   3.947  1.7601 -0.6776 -2.4260
  650MOL0     H85784  -0.502   4.530   3.828 -0.8745 -0.7137  0.5124
  650MOL0     H85785  -0.499   4.389   3.636 -0.9664  0.0005 -0.0024
  650MOL0     H85786   0.921   3.941   2.451  0.3769 -2.0579 -4.1155
  650MOL0     H85787   1.147   3.957   2.319 -0.2681  0.0911 -0.2210
  650MOL0     H85788   1.464   4.316   2.165  1.7980 -1.2774  0.6787
  650MOL0     H85789   1.679   4.348   2.059 -2.4776  1.8605  1.6986
  650MOL0     H85790   1.903   4.231   2.048  1.1897  0.6451 -0.7499
  650MOL0     H85791   1.848   4.350   1.919 -5.3412 -0.6561  3.7867
  650MOL0     H85792   2.027   4.264   1.776 -0.5525  0.6620 -0.2550
  650MOL0     H85793   2.099   4.303   1.926 -3.1877  2.4349 -0.8180
  650MOL0     H85794   2.178   4.070   1.847 -0.2412  0.6788 -0.7924
  650MOL0     H85795   2.012   4.015   1.837 -2.4578  0.3913  0.5056
  650MOL0     H85796   2.001   4.048   2.100 -1.6968 -2.2779 -2.8246
  650MOL0     H85797   2.124   3.937   2.046  1.6231 -0.0912  3.5554
  650MOL0     H85798   2.373   4.245   2.189  0.7282  1.6543 -2.9388
  650MOL0     H85799   1.608   3.987   1.836  0.4165 -0.0679  1.4687
  650MOL0     H85800   1.385   3.976   1.913 -0.1253  2.7049 -3.0388
  651MOL0     O85801   3.713  10.891   0.151 -0.6750  0.5014 -0.7739
  651MOL0     C85802   3.794  10.951   0.079 -0.0982  0.2284  0.0181
  651MOL0     O85803   3.778  11.081   0.027 -0.3569 -1.0851 -1.4420
  651MOL0     C85804   3.654  11.136   0.029  0.3841  0.2290  0.3333
  651MOL0     C85805   3.656  11.269   0.069 -0.2897 -0.5976  0.0324
  651MOL0     C85806   3.528  11.338   0.078 -0.5019  0.4055 -0.5341
  651MOL0     C85807   3.411  11.273   0.034 -0.0699 -0.7344 -0.7934
  651MOL0     O85808   3.292  11.344   0.057  0.1135 -0.0673  0.3980
  651MOL0     C85809   3.169  11.296   0.007 -0.4007 -0.4436  0.8123
  651MOL0     C85810   3.156  11.301  -0.147 -1.3551 -0.5462 -0.0066
  651MOL0     C85811   3.011  11.291  -0.203 -1.0039 -0.5753 -0.4947
  651MOL0     C85812   3.000  11.277  -0.354  0.2234 -0.5436 -0.2114
  651MOL0     C85813   2.867  11.247  -0.415  0.2485 -0.3190 -0.8776
  651MOL0     C85814   2.774  11.370  -0.398 -0.1719 -0.0952  0.3742
  651MOL0     C85815   2.629  11.327  -0.424  0.6811  0.1698  0.1524
  651MOL0     C85816   2.535  11.448  -0.438 -0.3736 -0.4747  1.4766
  651MOL0     N85817   2.394  11.415  -0.441 -1.2281  0.4898  0.1536
  651MOL0     C85818   2.312  11.399  -0.330 -0.1154 -0.0008  0.7186
  651MOL0     C85819   2.189  11.378  -0.386  0.0642 -0.3733  0.1298
  651MOL0     C85820   2.066  11.340  -0.305 -0.2637 -0.2617  0.1032
  651MOL0     C85821   1.947  11.437  -0.307 -0.2537 -0.3712  0.1062
  651MOL0     C85822   1.985  11.563  -0.224  0.2248  0.4619 -0.0082
  651MOL0     C85823   1.870  11.667  -0.224  0.3417  0.1686 -0.1886
  651MOL0     O85824   1.751  11.609  -0.177  0.1225 -0.0508 -0.9277
  651MOL0     C85825   1.651  11.682  -0.120  0.2470  0.3659 -0.0726
  651MOL0     C85826   1.559  11.621  -0.038 -0.4555 -0.1240  0.1990
  651MOL0     C85827   1.457  11.687   0.033 -0.2221 -0.2837 -0.2684
  651MOL0     C85828   1.447  11.830   0.026  0.9334  0.1448  1.1931
  651MOL0     C85829   1.340  11.902   0.098  0.3070  0.1319  0.6636
  651MOL0     O85830   1.255  11.835   0.178 -0.1310 -0.4283 -0.9963
  651MOL0     C85831   1.137  11.898   0.208 -0.5407  0.3662 -0.3714
  651MOL0     C85832   1.124  11.983   0.314  0.1243  0.1471  0.3354
  651MOL0     C85833   1.005  12.053   0.331  0.5478  0.0737 -0.5643
  651MOL0     C85834   0.890  12.047   0.245 -0.7767 -0.0394 -0.0178
  651MOL0     O85835   0.778  12.118   0.244  0.5745 -0.9038  0.4065
  651MOL0     C85836   0.792  12.255   0.287 -0.1787  0.4845  0.5532
  651MOL0     C85837   0.661  12.329   0.319 -0.2494 -0.3662  0.5677
  651MOL0     C85838   0.687  12.478   0.343  0.0485 -0.0857  0.9687
  651MOL0     C85839   0.787  12.496   0.451  0.2547 -0.7707  0.1642
  651MOL0     C85840   0.803  12.632   0.510 -0.3832  0.7488 -0.3028
  651MOL0     C85841   0.936  12.665   0.600 -0.4687 -0.1249  0.5981
  651MOL0     C85842   0.913  12.623   0.742 -0.1572  0.2784 -0.5889
  651MOL0     C85843   1.035  12.676   0.830  0.8479  0.5845 -0.2837
  651MOL0    Cl85844   1.185  12.601   0.772 -0.3139  0.0756 -0.3223
  651MOL0     C85845   0.903  11.954   0.135 -0.1678  0.4169  0.3684
  651MOL0     C85846   1.030  11.881   0.119  0.2781 -0.1790  0.3614
  651MOL0     O85847   1.334  12.030   0.085  0.5222 -0.0092  0.2400
  651MOL0     C85848   1.543  11.896  -0.062 -0.3499  0.9062 -0.2016
  651MOL0     C85849   1.641  11.819  -0.136  0.2254 -0.5739 -0.2366
  651MOL0     N85850   2.213  11.354  -0.515 -0.4337  0.5015  0.1284
  651MOL0     N85851   2.328  11.387  -0.554 -0.1636 -0.4830  0.0769
  651MOL0     C85852   3.415  11.149  -0.023  0.4744  0.2591  0.3427
  651MOL0     C85853   3.532  11.076  -0.013  0.1476  0.7727  0.0466
  651MOL0     C85854   3.924  10.887   0.066  0.1198 -0.2590  0.5641
  651MOL0     C85855   4.035  10.967   0.067 -0.1900 -0.1608 -0.3619
  651MOL0     C85856   4.164  10.911   0.062 -0.1451  0.8170 -0.0290
  651MOL0     C85857   4.189  10.771   0.040 -0.1755  0.6531 -0.1267
  651MOL0     O85858   4.319  10.727   0.031 -0.0227 -0.6588  0.2598
  651MOL0     C85859   4.345  10.589   0.011  0.3315  0.3196  1.0502
  651MOL0     C85860   4.493  10.565   0.040 -0.8770  1.0266  0.9213
  651MOL0     C85861   4.602  10.625  -0.060  0.4651 -0.3601 -0.2654
  651MOL0     C85862   4.624  10.781  -0.057 -0.2062  0.4130  0.5648
  651MOL0     C85863   4.749  10.811  -0.125  0.7993 -0.5884  0.1230
  651MOL0     C85864   4.851  10.854  -0.181 -0.1229  1.1560 -0.0406
  651MOL0     C85865   4.073  10.697   0.044 -0.4691 -0.2072 -0.7125
  651MOL0     C85866   3.948  10.753   0.043  0.9508  0.0650  0.0655
  651MOL0     H85867   3.744  11.320   0.108 -0.6378  0.1932 -0.1768
  651MOL0     H85868   3.536  11.436   0.124 -2.1289 -0.4618  1.7777
  651MOL0     H85869   3.085  11.355   0.045 -0.9475 -0.5027 -0.2381
  651MOL0     H85870   3.157  11.188   0.019 -2.3895 -0.5174 -1.1416
  651MOL0     H85871   3.211  11.216  -0.187  0.0229  0.0607  0.5417
  651MOL0     H85872   3.202  11.392  -0.185  2.1060 -0.2374  4.0868
  651MOL0     H85873   2.964  11.377  -0.155  0.9875  0.8437 -0.9433
  651MOL0     H85874   2.964  11.202  -0.161  1.2418 -1.2249  0.8359
  651MOL0     H85875   3.042  11.368  -0.400 -0.6122 -0.7002 -1.3301
  651MOL0     H85876   3.069  11.196  -0.379  4.6471  2.3859  1.2252
  651MOL0     H85877   2.824  11.158  -0.367 -2.2261  1.9478  1.5316
  651MOL0     H85878   2.880  11.220  -0.520  2.2443 -1.6821 -0.3300
  651MOL0     H85879   2.799  11.455  -0.463  1.6253  0.1035  1.2659
  651MOL0     H85880   2.788  11.404  -0.295  1.9278  0.4306 -0.0179
  651MOL0     H85881   2.623  11.262  -0.512  0.9724 -1.5277  1.3240
  651MOL0     H85882   2.595  11.282  -0.330 -1.3551  1.8713  0.3019
  651MOL0     H85883   2.560  11.497  -0.533  2.8327  1.2553  3.0176
  651MOL0     H85884   2.555  11.515  -0.354  0.7884 -1.4781  2.0381
  651MOL0     H85885   2.345  11.421  -0.229  0.3523  2.7874  0.0631
  651MOL0     H85886   2.093  11.318  -0.201 -2.1190 -3.4307  0.0403
  651MOL0     H85887   2.032  11.245  -0.346  1.5113 -1.0769  0.4458
  651MOL0     H85888   1.872  11.382  -0.249 -0.1595 -1.2594 -0.6086
  651MOL0     H85889   1.916  11.465  -0.408 -1.2535  0.6815  0.6727
  651MOL0     H85890   1.995  11.532  -0.120 -0.6564  1.1638  0.2892
  651MOL0     H85891   2.077  11.610  -0.262 -1.0781  2.5442 -0.7254
  651MOL0     H85892   1.837  11.697  -0.324 -3.8074  0.7231  1.1655
  651MOL0     H85893   1.897  11.761  -0.175 -0.2905  1.5168 -2.3055
  651MOL0     H85894   1.576  11.514  -0.032  3.3878  0.4014  1.9676
  651MOL0     H85895   1.381  11.635   0.092  0.3078 -3.8933 -2.4873
  651MOL0     H85896   1.218  12.017   0.357  0.8995 -1.5552  0.0734
  651MOL0     H85897   1.010  12.140   0.396  0.9221  0.8486 -1.5920
  651MOL0     H85898   0.844  12.311   0.209 -1.3534 -2.0198 -2.2434
  651MOL0     H85899   0.833  12.248   0.388 -0.4468 -0.0354  0.6298
  651MOL0     H85900   0.609  12.294   0.409  2.4487  0.4330  2.5834
  651MOL0     H85901   0.599  12.315   0.230 -1.1223 -0.1964  1.1224
  651MOL0     H85902   0.597  12.530   0.378  0.0140  0.2306  0.4317
  651MOL0     H85903   0.706  12.530   0.249 -2.9919  0.3762  0.5107
  651MOL0     H85904   0.768  12.424   0.531  1.2380  0.6982  1.7683
  651MOL0     H85905   0.888  12.472   0.417  0.6421  1.5382 -0.4796
  651MOL0     H85906   0.718  12.640   0.578 -1.5188 -0.6068 -1.5075
  651MOL0     H85907   0.787  12.704   0.430  3.0395  0.6076 -1.3065
  651MOL0     H85908   0.955  12.772   0.605 -1.8798  0.2622 -1.2472
  651MOL0     H85909   1.026  12.621   0.556  0.7284  1.9263  0.8641
  651MOL0     H85910   0.817  12.661   0.778  0.2719  1.2060 -0.3958
  651MOL0     H85911   0.904  12.514   0.756 -3.9610  0.7707  2.7312
  651MOL0     H85912   1.027  12.651   0.936  0.0131 -1.3212 -0.7511
  651MOL0     H85913   1.034  12.785   0.829  2.2724  0.6484  1.4205
  651MOL0     H85914   0.826  11.939   0.060  0.9685 -1.2656 -0.5083
  651MOL0     H85915   1.031  11.812   0.035 -0.8412  0.8566 -0.5391
  651MOL0     H85916   1.538  12.005  -0.068 -1.6318  0.7942 -1.9412
  651MOL0     H85917   1.706  11.878  -0.200  0.6182  0.9742  1.4755
  651MOL0     H85918   3.326  11.102  -0.063  1.5883 -1.6484 -0.0390
  651MOL0     H85919   3.534  10.970  -0.040 -1.1703 -0.2836  3.5468
  651MOL0     H85920   4.025  11.075   0.076 -1.8125 -0.2710 -0.4258
  651MOL0     H85921   4.242  10.986   0.055 -1.7361  2.6689  1.2485
  651MOL0     H85922   4.323  10.557  -0.091 -0.6977  3.4302  0.1857
  651MOL0     H85923   4.296  10.526   0.086 -0.5372  1.9068  1.8617
  651MOL0     H85924   4.520  10.584   0.145  0.8751 -3.7273  1.5892
  651MOL0     H85925   4.497  10.457   0.022 -0.2787  0.8559  1.9909
  651MOL0     H85926   4.557  10.596  -0.155  0.4632 -1.2327 -0.0065
  651MOL0     H85927   4.702  10.579  -0.060  0.5492 -0.1840  0.1954
  651MOL0     H85928   4.540  10.833  -0.105 -0.6723  0.1023  1.0276
  651MOL0     H85929   4.625  10.818   0.046 -2.6432  1.0675  0.4243
  651MOL0     H85930   4.944  10.878  -0.227 -2.2173  1.5360 -4.6055
  651MOL0     H85931   4.075  10.589   0.048 -1.4559 -0.2184  2.2765
  651MOL0     H85932   3.865  10.683   0.038  1.8863 -1.1061  0.4977
  652MOL0     O85933  11.121  10.185   9.396  0.2251  0.2699 -0.4492
  652MOL0     C85934  11.173  10.202   9.507  0.1454 -0.3175 -0.3654
  652MOL0     O85935  11.287  10.266   9.527  0.2072  0.2404 -0.2385
  652MOL0     C85936  11.373  10.298   9.422  0.6505 -0.3198 -0.0583
  652MOL0     C85937  11.398  10.217   9.308 -0.7469  0.0519  0.0119
  652MOL0     C85938  11.476  10.260   9.201  0.0586  0.1786  0.7532
  652MOL0     C85939  11.535  10.388   9.210  0.1678  0.3206  0.5584
  652MOL0     O85940  11.621  10.418   9.105  0.4091 -0.5431 -0.0433
  652MOL0     C85941  11.712  10.525   9.131  0.2197 -0.5660  0.3314
  652MOL0     C85942  11.819  10.509   9.030 -0.5938 -0.1715 -0.5632
  652MOL0     C85943  11.762  10.560   8.902 -0.1049  0.2444 -0.3202
  652MOL0     C85944  11.817  10.702   8.854 -1.1879  0.1871  0.6209
  652MOL0     C85945  11.778  10.720   8.708 -0.8615 -0.7327 -0.5912
  652MOL0     C85946  11.628  10.746   8.675 -0.1385 -0.3254 -0.0117
  652MOL0     C85947  11.602  10.812   8.547 -0.1078  0.0151  0.9111
  652MOL0     C85948  11.505  10.744   8.451  0.2395 -0.1342 -0.5409
  652MOL0     N85949  11.360  10.758   8.479  0.2089  0.0995 -0.3302
  652MOL0     C85950  11.296  10.707   8.593 -0.9948 -0.5586  0.6211
  652MOL0     C85951  11.167  10.739   8.575  0.3247  0.3150 -0.8789
  652MOL0     C85952  11.065  10.693   8.683 -0.0830 -0.0679  0.4519
  652MOL0     C85953  11.003  10.556   8.646 -0.1107 -0.0037  0.2555
  652MOL0     C85954  10.925  10.570   8.512 -0.1140 -1.1425  0.0595
  652MOL0     C85955  10.821  10.676   8.510  0.2122  0.0782  0.3682
  652MOL0     O85956  10.746  10.689   8.632 -0.3507  0.5557  0.5111
  652MOL0     C85957  10.624  10.627   8.641  0.2135 -0.7190  0.1302
  652MOL0     C85958  10.533  10.658   8.743  0.1543 -1.0799 -0.7445
  652MOL0     C85959  10.411  10.589   8.758  0.8352  0.6165 -0.7253
  652MOL0     C85960  10.387  10.470   8.685 -0.5034  0.5084 -0.1361
  652MOL0     C85961  10.257  10.394   8.711 -0.3561  0.2912  0.4231
  652MOL0     O85962  10.174  10.441   8.802  0.4592  0.2821  0.0745
  652MOL0     C85963  10.043  10.408   8.803  0.0706  0.6364 -0.2906
  652MOL0     C85964   9.981  10.432   8.921  0.2025 -0.0108  0.4458
  652MOL0     C85965   9.845  10.401   8.944  0.1109  0.8193 -1.0303
  652MOL0     C85966   9.766  10.362   8.838  0.4983  0.3495 -0.8287
  652MOL0     O85967   9.635  10.329   8.852 -0.5719  0.4792  0.0550
  652MOL0     C85968   9.599  10.250   8.969  0.2631  0.0434 -0.2562
  652MOL0     C85969   9.453  10.216   8.955  0.1600 -0.0804  0.8555
  652MOL0     C85970   9.353  10.329   8.969 -0.0259  0.1484 -1.2495
  652MOL0     C85971   9.210  10.282   8.937  0.0101  0.0550 -0.3963
  652MOL0     C85972   9.105  10.384   8.975 -0.1105 -0.0270 -0.2006
  652MOL0     C85973   8.976  10.350   8.905 -0.1244  0.5296  0.5211
  652MOL0     C85974   8.882  10.475   8.924  1.2260  0.2359  0.4453
  652MOL0     C85975   8.741  10.441   8.875  0.3273  0.5939 -0.2985
  652MOL0    Cl85976   8.723  10.356   8.715  0.3865  0.0812 -0.1373
  652MOL0     C85977   9.826  10.345   8.713 -0.8879  0.3588 -0.7554
  652MOL0     C85978   9.963  10.360   8.694  0.0831 -0.2697  0.0889
  652MOL0     O85979  10.242  10.304   8.628 -0.1195 -0.4473 -0.4374
  652MOL0     C85980  10.478  10.439   8.584 -0.2886 -0.1331  1.2680
  652MOL0     C85981  10.591  10.520   8.560  0.3134  0.0030  0.0039
  652MOL0     N85982  11.148  10.809   8.462 -0.3244  0.3324  0.9738
  652MOL0     N85983  11.266  10.817   8.401 -0.9195 -0.3276  0.1077
  652MOL0     C85984  11.516  10.470   9.319 -0.5041  0.2467 -0.1614
  652MOL0     C85985  11.446  10.420   9.432  0.6053 -0.1038 -0.0868
  652MOL0     C85986  11.088  10.175   9.624 -0.0008 -0.0706 -0.3185
  652MOL0     C85987  10.959  10.121   9.606 -0.4271 -0.0186 -0.5339
  652MOL0     C85988  10.864  10.134   9.714  0.2959 -0.2563  0.6408
  652MOL0     C85989  10.899  10.201   9.833  0.0888  0.4167  0.4252
  652MOL0     O85990  10.803  10.214   9.937 -0.1717  0.1920  0.2925
  652MOL0     C85991  10.701  10.307   9.920  0.0272  0.6770  0.5534
  652MOL0     C85992  10.748  10.454   9.940 -0.2447 -0.3001 -0.1463
  652MOL0     C85993  10.647  10.566   9.921  0.2536 -0.4163  0.0161
  652MOL0     C85994  10.549  10.576  10.038  0.0439  0.2432 -0.4207
  652MOL0     C85995  10.468  10.698  10.029  0.0184 -0.2831  0.5019
  652MOL0     C85996  10.392  10.787   9.993  0.0638 -0.1515  0.2952
  652MOL0     C85997  11.031  10.228   9.853 -0.3666 -0.0707 -0.3930
  652MOL0     C85998  11.124  10.211   9.756  0.5244 -0.7302 -0.0683
  652MOL0     H85999  11.349  10.121   9.294  0.5439 -0.7205  0.5932
  652MOL0     H86000  11.497  10.200   9.113 -3.1099  0.0981 -0.0380
  652MOL0     H86001  11.765  10.510   9.226  1.8575 -5.1550 -1.0348
  652MOL0     H86002  11.665  10.623   9.121 -0.1662 -0.9503 -2.4958
  652MOL0     H86003  11.846  10.403   9.023  2.5670  0.5631 -1.0776
  652MOL0     H86004  11.910  10.565   9.052  0.1702 -1.4767 -0.2498
  652MOL0     H86005  11.657  10.585   8.921  0.0589  0.2446  0.6431
  652MOL0     H86006  11.778  10.475   8.836 -0.8587 -2.5781  2.8862
  652MOL0     H86007  11.769  10.780   8.914 -1.8030  0.8792 -0.7241
  652MOL0     H86008  11.926  10.705   8.862 -0.9919  0.8500 -1.5681
  652MOL0     H86009  11.816  10.630   8.659  1.0976 -0.6304  0.6594
  652MOL0     H86010  11.837  10.804   8.670 -0.6150 -1.4586 -1.9039
  652MOL0     H86011  11.591  10.814   8.752  1.8205 -0.4308  1.0704
  652MOL0     H86012  11.579  10.648   8.669 -2.2322  0.6026  0.9553
  652MOL0     H86013  11.561  10.909   8.575 -0.5828 -0.4482  1.9018
  652MOL0     H86014  11.696  10.824   8.493 -1.4756 -0.6591 -1.8113
  652MOL0     H86015  11.535  10.640   8.435  2.0876  0.4905 -1.4809
  652MOL0     H86016  11.521  10.799   8.357  1.7630  0.9500  0.3046
  652MOL0     H86017  11.341  10.651   8.675  1.5735 -0.4703 -0.6248
  652MOL0     H86018  10.993  10.775   8.690  0.2432  0.1974  0.7944
  652MOL0     H86019  11.107  10.686   8.784 -1.0636  0.9058  0.9441
  652MOL0     H86020  10.931  10.538   8.726 -0.5209  1.2963  0.1956
  652MOL0     H86021  11.078  10.478   8.631 -0.2507  0.1256 -1.1791
  652MOL0     H86022  10.995  10.582   8.429  1.2786 -2.7385  0.9327
  652MOL0     H86023  10.876  10.476   8.484 -0.7408 -1.1212  1.0381
  652MOL0     H86024  10.750  10.665   8.428 -1.7874  2.0261  1.7372
  652MOL0     H86025  10.875  10.769   8.488 -1.3137  0.9473  0.1946
  652MOL0     H86026  10.546  10.732   8.821  0.7856 -0.6477 -1.2551
  652MOL0     H86027  10.347  10.632   8.834  3.6837  1.3907  1.3753
  652MOL0     H86028  10.038  10.472   9.004 -1.9151  1.3948  1.3330
  652MOL0     H86029   9.802  10.435   9.039  1.6557  0.8748 -0.3201
  652MOL0     H86030   9.599  10.312   9.059  1.9262  2.5922 -1.8682
  652MOL0     H86031   9.658  10.159   8.984 -1.1239 -0.7463  0.6237
  652MOL0     H86032   9.443  10.133   9.026  2.4737 -2.0951 -0.9958
  652MOL0     H86033   9.440  10.184   8.851 -0.1764  1.4292  0.4141
  652MOL0     H86034   9.385  10.412   8.905  0.9235  2.7427  2.2642
  652MOL0     H86035   9.363  10.357   9.074  0.5090 -0.2996 -1.1742
  652MOL0     H86036   9.189  10.259   8.832  1.5774 -0.1231 -0.6959
  652MOL0     H86037   9.192  10.191   8.995  0.5522 -0.5206 -1.1017
  652MOL0     H86038   9.146  10.478   8.937  0.3911  0.2705  1.0245
  652MOL0     H86039   9.092  10.400   9.083 -3.0043  1.5102 -0.6724
  652MOL0     H86040   8.931  10.257   8.940  1.6672 -1.5484 -2.2565
  652MOL0     H86041   8.982  10.331   8.797 -0.7202  0.5371  0.4825
  652MOL0     H86042   8.876  10.492   9.032 -2.3645 -2.2652  0.7978
  652MOL0     H86043   8.912  10.569   8.876 -0.4551  0.2355 -0.6790
  652MOL0     H86044   8.678  10.531   8.871 -2.1386 -0.9076  1.9467
  652MOL0     H86045   8.694  10.384   8.955  0.0682  0.5218 -0.5020
  652MOL0     H86046   9.771  10.304   8.628  0.8478 -2.4669 -0.6343
  652MOL0     H86047  10.007  10.351   8.595 -0.8446  0.5903 -0.4163
  652MOL0     H86048  10.453  10.363   8.511 -1.0871  0.9800  0.3298
  652MOL0     H86049  10.644  10.492   8.469  0.4554  0.9080 -0.1932
  652MOL0     H86050  11.567  10.566   9.320  1.7173 -0.7350 -3.3808
  652MOL0     H86051  11.443  10.481   9.521  1.5760  0.7524 -0.6244
  652MOL0     H86052  10.916  10.080   9.515  1.4187 -1.6671 -0.7195
  652MOL0     H86053  10.760  10.110   9.693 -0.3535  3.1810 -0.8397
  652MOL0     H86054  10.625  10.283   9.995 -0.6170 -3.5327 -1.1926
  652MOL0     H86055  10.650  10.294   9.824 -3.4722  0.1377  2.3404
  652MOL0     H86056  10.801  10.470  10.034 -0.2673  3.9699 -0.6998
  652MOL0     H86057  10.826  10.459   9.863  1.5113 -2.4983  1.3278
  652MOL0     H86058  10.579  10.541   9.839  0.1721 -0.7893  0.1969
  652MOL0     H86059  10.694  10.664   9.914 -1.1364  0.4075  1.6909
  652MOL0     H86060  10.476  10.495  10.033  2.1577 -1.8281  0.5919
  652MOL0     H86061  10.602  10.575  10.133  0.0128  1.6649 -0.3729
  652MOL0     H86062  10.331  10.870   9.963  1.2045  0.4457 -0.4713
  652MOL0     H86063  11.065  10.251   9.953 -0.5330 -3.2752  0.5055
  652MOL0     H86064  11.224  10.241   9.786  1.4669 -0.5661 -3.0328
  653MOL0     O86065   0.123   5.217   0.477  0.3687  0.2459  0.0577
  653MOL0     C86066   0.156   5.331   0.438  0.6853 -0.8249 -0.2291
  653MOL0     O86067   0.062   5.437   0.417 -0.3016 -0.2271 -0.1309
  653MOL0     C86068  -0.078   5.405   0.434  1.0137 -0.1299  0.5323
  653MOL0     C86069  -0.176   5.400   0.334  0.4982  0.0431  0.4636
  653MOL0     C86070  -0.319   5.376   0.360 -0.6685  0.5155  0.0965
  653MOL0     C86071  -0.363   5.375   0.491  0.2385  0.3130 -0.3536
  653MOL0     O86072  -0.490   5.354   0.526  0.4963  0.2999  0.6994
  653MOL0     C86073  -0.590   5.328   0.431 -0.6484 -0.6846  0.5586
  653MOL0     C86074  -0.726   5.345   0.505 -0.2843  0.3807  0.3524
  653MOL0     C86075  -0.763   5.490   0.534 -0.2572  0.1290 -0.2899
  653MOL0     C86076  -0.919   5.512   0.560 -1.3451  0.0862 -0.4143
  653MOL0     C86077  -0.948   5.663   0.554  0.2260 -0.3891 -0.9126
  653MOL0     C86078  -1.104   5.664   0.567  0.1514  0.0549  0.8501
  653MOL0     C86079  -1.168   5.642   0.436 -0.6272 -0.4920 -0.5491
  653MOL0     C86080  -1.308   5.590   0.444  0.8685 -0.3021 -0.1801
  653MOL0     N86081  -1.376   5.605   0.312  0.3816  0.3381 -0.2985
  653MOL0     C86082  -1.453   5.712   0.260  0.3791  0.4891  0.3824
  653MOL0     C86083  -1.486   5.662   0.139 -0.3137 -0.9078 -0.0126
  653MOL0     C86084  -1.572   5.740   0.041 -0.7499  0.9673 -0.1326
  653MOL0     C86085  -1.562   5.897   0.046  0.0055  0.8149 -0.1988
  653MOL0     C86086  -1.448   5.979  -0.010  0.7969 -0.8529  0.0087
  653MOL0     C86087  -1.333   5.974   0.093 -0.3982  0.6674 -0.6781
  653MOL0     O86088  -1.352   6.030   0.225 -0.2877  0.4537 -0.7415
  653MOL0     C86089  -1.264   6.016   0.331 -0.3544 -0.8037 -0.1052
  653MOL0     C86090  -1.314   6.003   0.459  0.4160 -0.3772  0.3893
  653MOL0     C86091  -1.227   5.989   0.566 -0.1172  0.1164  0.2450
  653MOL0     C86092  -1.086   6.004   0.552  0.4646 -0.0460  0.6700
  653MOL0     C86093  -0.996   6.003   0.668  1.0027 -0.2530  0.3841
  653MOL0     O86094  -1.060   6.040   0.783 -0.3353  0.4566 -0.1205
  653MOL0     C86095  -0.985   6.032   0.903  0.7833  0.1917  0.8303
  653MOL0     C86096  -0.945   5.905   0.953  0.5016 -1.0866  0.3992
  653MOL0     C86097  -0.874   5.893   1.075  0.2744  0.1858  0.6403
  653MOL0     C86098  -0.835   6.010   1.147 -0.9438 -0.1782  0.0456
  653MOL0     O86099  -0.785   6.021   1.274 -0.2568  0.3788 -0.5059
  653MOL0     C86100  -0.786   5.890   1.342  0.3299 -0.1787  1.3264
  653MOL0     C86101  -0.739   5.902   1.482 -0.4945  0.8467 -0.5546
  653MOL0     C86102  -0.596   5.956   1.485 -0.4647  0.5684 -0.2042
  653MOL0     C86103  -0.520   5.920   1.614 -0.2250  0.2010 -0.5691
  653MOL0     C86104  -0.369   5.962   1.610  0.7719  0.9418 -0.5639
  653MOL0     C86105  -0.290   5.911   1.481  0.3518 -0.2253 -0.6015
  653MOL0     C86106  -0.138   5.924   1.499  0.2268  0.7441 -0.8411
  653MOL0     C86107  -0.072   5.891   1.367  0.3346  0.3918 -0.8595
  653MOL0    Cl86108   0.103   5.916   1.395  0.1001 -0.3818 -0.2832
  653MOL0     C86109  -0.878   6.132   1.091  0.2811  0.1529  0.1071
  653MOL0     C86110  -0.953   6.148   0.969 -0.3739 -0.1174 -0.5017
  653MOL0     O86111  -0.880   5.970   0.654  0.1198  0.6858 -0.0420
  653MOL0     C86112  -1.042   6.032   0.418  0.3867 -0.2913  0.3681
  653MOL0     C86113  -1.129   6.041   0.314  0.5387 -0.2248  0.0938
  653MOL0     N86114  -1.432   5.540   0.122 -0.2423 -0.6921  0.6309
  653MOL0     N86115  -1.362   5.507   0.226  0.7327  0.3427  1.0840
  653MOL0     C86116  -0.269   5.400   0.591  0.0547  0.2611  0.7292
  653MOL0     C86117  -0.128   5.405   0.559  0.4493 -0.3288 -2.1793
  653MOL0     C86118   0.294   5.357   0.404 -0.9315 -0.3097 -0.3785
  653MOL0     C86119   0.397   5.289   0.469  0.3342  0.2170  0.6828
  653MOL0     C86120   0.531   5.311   0.423 -0.5317  0.5503  0.3302
  653MOL0     C86121   0.562   5.417   0.338 -0.1050 -0.5566  0.2403
  653MOL0     O86122   0.701   5.436   0.305  0.5558  0.1665 -0.5642
  653MOL0     C86123   0.752   5.550   0.243  0.1617 -0.5592  0.1065
  653MOL0     C86124   0.900   5.539   0.259  0.2606 -1.0446  0.5958
  653MOL0     C86125   0.942   5.568   0.403  0.8090  0.1706 -0.6582
  653MOL0     C86126   1.078   5.527   0.419  0.1418  0.1007  0.1905
  653MOL0     C86127   1.133   5.570   0.550 -0.0851  0.0936  0.7037
  653MOL0     C86128   1.156   5.615   0.661  0.1976  0.6226  0.1948
  653MOL0     C86129   0.460   5.485   0.281 -0.4763 -0.2189  0.9066
  653MOL0     C86130   0.326   5.455   0.313 -0.0749  0.4952 -0.8179
  653MOL0     H86131  -0.138   5.399   0.233  1.6265 -0.8792  0.8744
  653MOL0     H86132  -0.389   5.391   0.278 -1.4657 -0.4509  0.5844
  653MOL0     H86133  -0.570   5.235   0.378  1.5798  1.0074 -1.8364
  653MOL0     H86134  -0.585   5.402   0.351  2.6553  0.6598  1.8607
  653MOL0     H86135  -0.718   5.275   0.589 -0.9861 -2.0741 -1.5015
  653MOL0     H86136  -0.813   5.311   0.447 -3.0215  0.4576  4.0091
  653MOL0     H86137  -0.743   5.543   0.441  2.4712 -0.0796  0.0875
  653MOL0     H86138  -0.698   5.531   0.612  0.7438  0.8192 -1.4705
  653MOL0     H86139  -0.983   5.446   0.502  0.4838 -1.6962 -0.5103
  653MOL0     H86140  -0.939   5.482   0.663 -4.2358  0.4086 -0.8212
  653MOL0     H86141  -0.910   5.725   0.473 -0.4012  1.8010  0.3664
  653MOL0     H86142  -0.904   5.705   0.645 -2.1197 -0.6221  0.4192
  653MOL0     H86143  -1.150   5.756   0.604 -0.5764  2.1277 -4.4441
  653MOL0     H86144  -1.124   5.585   0.640 -1.3686  2.1500  2.8698
  653MOL0     H86145  -1.173   5.744   0.398  1.6623 -0.0611  0.1387
  653MOL0     H86146  -1.105   5.588   0.365  2.2685  1.3055  0.4714
  653MOL0     H86147  -1.369   5.640   0.520  0.2597 -2.1753  0.6155
  653MOL0     H86148  -1.307   5.488   0.482  2.4361 -1.0312 -2.0226
  653MOL0     H86149  -1.485   5.797   0.319  0.0441  1.3929 -1.0508
  653MOL0     H86150  -1.676   5.709   0.056 -0.5998  0.8839  0.7975
  653MOL0     H86151  -1.534   5.710  -0.057  3.6912 -2.6951  2.3124
  653MOL0     H86152  -1.581   5.928   0.149  1.2752  0.3094  0.2059
  653MOL0     H86153  -1.652   5.931  -0.008 -1.8883 -1.5658  1.2572
  653MOL0     H86154  -1.420   5.934  -0.106  0.1414  0.3156 -0.7557
  653MOL0     H86155  -1.461   6.088  -0.020  1.4180 -0.2632  4.0132
  653MOL0     H86156  -1.241   6.016   0.052  0.6593  0.4776  1.3871
  653MOL0     H86157  -1.318   5.865   0.097  2.8403  1.0290  0.4502
  653MOL0     H86158  -1.419   5.980   0.474  0.2081 -0.0229 -0.4440
  653MOL0     H86159  -1.267   5.964   0.663 -0.2282  2.5679  0.8909
  653MOL0     H86160  -0.989   5.823   0.897 -0.6711 -1.9376  2.4392
  653MOL0     H86161  -0.858   5.792   1.111  0.2862 -1.4221 -3.2943
  653MOL0     H86162  -0.723   5.817   1.290  0.0991  0.3539  0.2654
  653MOL0     H86163  -0.891   5.862   1.332  0.3798  0.4535 -3.1619
  653MOL0     H86164  -0.745   5.808   1.538 -1.5121  0.4260 -1.3487
  653MOL0     H86165  -0.808   5.967   1.536 -2.3774 -0.4859 -1.2339
  653MOL0     H86166  -0.590   6.064   1.469  0.7868  0.4805 -0.3956
  653MOL0     H86167  -0.543   5.902   1.406 -1.0716  0.8582 -0.8212
  653MOL0     H86168  -0.564   5.961   1.705 -1.1075 -1.0362 -0.4164
  653MOL0     H86169  -0.510   5.811   1.618  2.4430  0.3077 -2.1190
  653MOL0     H86170  -0.328   5.912   1.698  1.6024 -0.3573 -1.6344
  653MOL0     H86171  -0.363   6.070   1.620  0.5621  0.9232 -0.2232
  653MOL0     H86172  -0.326   5.973   1.398 -2.0061 -1.0368 -0.2791
  653MOL0     H86173  -0.317   5.807   1.458  1.1102 -0.7401  0.7256
  653MOL0     H86174  -0.121   6.027   1.531 -0.3839  0.2896  1.0624
  653MOL0     H86175  -0.102   5.858   1.578  0.5176  0.7651 -0.9550
  653MOL0     H86176  -0.116   5.951   1.286 -1.5800  0.3042  0.0579
  653MOL0     H86177  -0.085   5.784   1.346  0.8715  0.0945  0.2656
  653MOL0     H86178  -0.858   6.223   1.147 -1.4128 -1.3940  3.4897
  653MOL0     H86179  -0.982   6.249   0.941  1.6143  0.5545 -0.2975
  653MOL0     H86180  -0.936   6.053   0.417  0.4757 -0.7221 -1.2773
  653MOL0     H86181  -1.092   6.052   0.212  1.1403  0.2087  0.3583
  653MOL0     H86182  -0.311   5.432   0.686  1.1511  0.0989  1.2842
  653MOL0     H86183  -0.067   5.431   0.645  0.0770  1.0586 -2.3242
  653MOL0     H86184   0.380   5.217   0.549  0.1953  1.3176  1.6713
  653MOL0     H86185   0.608   5.259   0.477  1.0711  1.6527 -0.7838
  653MOL0     H86186   0.708   5.642   0.284 -0.3882 -0.4656 -0.6676
  653MOL0     H86187   0.731   5.552   0.136  1.2889  1.0995 -0.1207
  653MOL0     H86188   0.940   5.444   0.224  1.5390  0.1254 -1.3773
  653MOL0     H86189   0.942   5.621   0.198 -0.4600 -0.8872  0.3057
  653MOL0     H86190   0.871   5.508   0.461  0.1069  0.1023 -1.5636
  653MOL0     H86191   0.936   5.673   0.431  0.4944  0.0692 -0.3360
  653MOL0     H86192   1.094   5.419   0.412  0.0812  0.0345  0.9518
  653MOL0     H86193   1.141   5.577   0.345  1.2751  0.4771  1.3657
  653MOL0     H86194   1.184   5.658   0.755  1.3173  1.8751 -0.6792
  653MOL0     H86195   0.473   5.561   0.206 -0.4041 -3.4851 -2.7075
  653MOL0     H86196   0.245   5.512   0.268  1.4671  3.6870  0.1394
  654MOL0     O86197   5.838   5.091   0.139 -0.1430 -0.0205  0.3065
  654MOL0     C86198   5.877   4.972   0.123  0.3370 -0.1153 -0.1166
  654MOL0     O86199   5.798   4.878   0.054  0.5463 -0.0923  0.1615
  654MOL0     C86200   5.678   4.930   0.019 -0.8616 -0.1976  0.3280
  654MOL0     C86201   5.654   4.978  -0.111 -0.4969  0.9397  0.0980
  654MOL0     C86202   5.526   5.016  -0.147  0.4044 -0.5024 -0.4174
  654MOL0     C86203   5.414   5.007  -0.069 -0.4896  0.8076  0.2983
  654MOL0     O86204   5.293   5.041  -0.134  1.1994  0.2265  0.2231
  654MOL0     C86205   5.171   5.061  -0.047  0.5697 -0.1201 -0.1736
  654MOL0     C86206   5.050   5.073  -0.134 -0.4074  0.5718 -0.3444
  654MOL0     C86207   5.062   5.184  -0.237  0.5067 -0.7065  0.7456
  654MOL0     C86208   5.044   5.326  -0.185  0.1150 -0.0607 -0.0620
  654MOL0     C86209   5.047   5.435  -0.290  0.9149  0.5010 -0.0181
  654MOL0     C86210   5.024   5.569  -0.223 -0.3056 -0.2022  0.3274
  654MOL0     C86211   5.045   5.691  -0.319  0.1426  0.3860 -0.1328
  654MOL0     C86212   5.022   5.822  -0.241 -0.5553 -0.2048  0.2696
  654MOL0     N86213   4.884   5.864  -0.232 -0.1680  0.1408  1.0441
  654MOL0     C86214   4.838   5.898  -0.107  0.3698 -1.0361 -0.9730
  654MOL0     C86215   4.719   5.947  -0.136 -0.1135 -0.8295  0.1373
  654MOL0     C86216   4.621   5.995  -0.028 -0.0075  0.2371 -1.0471
  654MOL0     C86217   4.470   5.973  -0.050  0.9264 -0.2691  0.4628
  654MOL0     C86218   4.416   6.079  -0.147 -0.2679 -0.9391 -0.1567
  654MOL0     C86219   4.291   6.023  -0.218 -0.0690 -1.1021 -0.3539
  654MOL0     O86220   4.198   5.996  -0.118  0.3392 -0.0107 -0.0811
  654MOL0     C86221   4.061   6.004  -0.134 -0.7485 -0.0794 -0.2923
  654MOL0     C86222   3.978   5.978  -0.026 -0.4512 -0.4322  0.4150
  654MOL0     C86223   3.842   5.978  -0.031 -0.0571 -0.0470  0.0945
  654MOL0     C86224   3.780   6.014  -0.153 -0.2005 -0.7522 -1.0067
  654MOL0     C86225   3.636   6.010  -0.157 -0.2287 -0.0351  0.3081
  654MOL0     O86226   3.574   6.000  -0.031 -0.0988 -0.5186  0.2508
  654MOL0     C86227   3.440   5.981  -0.040  0.8664 -0.8983  0.7947
  654MOL0     C86228   3.384   5.861   0.002  0.2738  0.2460  1.0739
  654MOL0     C86229   3.247   5.831  -0.009 -0.0164 -0.2415 -0.1332
  654MOL0     C86230   3.158   5.935  -0.047  0.2240  0.5584  0.2443
  654MOL0     O86231   3.027   5.909  -0.065 -0.0589  0.3258 -0.5739
  654MOL0     C86232   2.954   5.887   0.065 -0.4738 -0.1433 -0.6650
  654MOL0     C86233   2.797   5.881   0.046 -0.7763 -1.3624  0.0185
  654MOL0     C86234   2.752   5.735   0.045 -0.3216 -0.0188  0.1201
  654MOL0     C86235   2.602   5.735   0.016 -0.2813  0.4733 -0.2967
  654MOL0     C86236   2.503   5.741   0.137 -0.8256  0.3375  0.0810
  654MOL0     C86237   2.483   5.606   0.196 -0.2793 -0.0890  0.6032
  654MOL0     C86238   2.369   5.626   0.297  0.0336 -0.5325 -0.8080
  654MOL0     C86239   2.334   5.496   0.359 -0.0224  0.3337  0.2167
  654MOL0    Cl86240   2.199   5.508   0.481 -0.0528  0.3337 -0.2794
  654MOL0     C86241   3.211   6.055  -0.085  0.4825 -1.1112 -0.5567
  654MOL0     C86242   3.348   6.082  -0.082 -0.4577 -0.1952 -0.2987
  654MOL0     O86243   3.584   5.996  -0.271 -0.2980  0.2020  0.3298
  654MOL0     C86244   3.860   6.043  -0.271  0.3801  0.9465 -0.5417
  654MOL0     C86245   4.003   6.033  -0.254 -0.4294  0.3982  0.7304
  654MOL0     N86246   4.696   5.949  -0.275  0.2208 -0.0226  0.5363
  654MOL0     N86247   4.797   5.898  -0.330 -0.3800  0.0453 -0.4762
  654MOL0     C86248   5.438   4.966   0.068  0.8431 -0.0400  0.0007
  654MOL0     C86249   5.567   4.922   0.104  1.2971  0.0091  1.2739
  654MOL0     C86250   6.005   4.933   0.182  0.4323 -0.5763  0.0948
  654MOL0     C86251   6.054   4.804   0.151  0.1586  0.8420  0.6945
  654MOL0     C86252   6.179   4.756   0.183 -0.0944 -0.1222 -0.7191
  654MOL0     C86253   6.278   4.846   0.234 -0.2407 -0.1073  1.2026
  654MOL0     O86254   6.409   4.809   0.258 -0.0124 -1.0971  0.1067
  654MOL0     C86255   6.483   4.895   0.349  0.6958 -0.0500 -0.1340
  654MOL0     C86256   6.615   4.822   0.383 -0.3613 -0.1430  0.6390
  654MOL0     C86257   6.679   4.874   0.503  0.3254 -0.1771 -0.6351
  654MOL0     C86258   6.825   4.837   0.537  0.5424 -0.1828  0.5806
  654MOL0     C86259   6.917   4.898   0.442 -0.3129  0.1179 -0.5788
  654MOL0     C86260   7.000   4.955   0.365  0.0582 -0.5852  0.0978
  654MOL0     C86261   6.234   4.974   0.253 -0.2979 -0.7303  0.1429
  654MOL0     C86262   6.100   5.015   0.238 -0.5582  0.0825  0.5449
  654MOL0     H86263   5.741   4.987  -0.174 -0.4302  1.3715  0.2479
  654MOL0     H86264   5.517   5.040  -0.253 -1.0121 -2.6038 -0.8346
  654MOL0     H86265   5.186   5.148   0.018  0.6863  0.8057 -1.3947
  654MOL0     H86266   5.154   4.976   0.020  0.7415  0.4398  0.6008
  654MOL0     H86267   4.955   5.083  -0.081 -1.7038 -2.6893 -1.8447
  654MOL0     H86268   5.043   4.980  -0.190  2.6231  0.4590 -0.7131
  654MOL0     H86269   4.996   5.162  -0.322  2.8463 -1.1771 -1.0499
  654MOL0     H86270   5.158   5.172  -0.288  0.2089 -0.8026  0.1957
  654MOL0     H86271   4.950   5.330  -0.130 -1.1988  1.1418 -2.2709
  654MOL0     H86272   5.127   5.346  -0.117  0.0261  3.0013 -0.7213
  654MOL0     H86273   4.971   5.425  -0.368  1.4766  1.8534 -0.7713
  654MOL0     H86274   5.148   5.430  -0.332  1.5754 -0.4233  1.5610
  654MOL0     H86275   5.097   5.570  -0.142 -0.1513 -0.0613  0.1891
  654MOL0     H86276   4.929   5.584  -0.171  0.1792 -2.5104  2.0165
  654MOL0     H86277   5.144   5.688  -0.366 -0.4584 -1.1060 -1.3786
  654MOL0     H86278   4.991   5.696  -0.414  3.2702  2.1231 -1.9927
  654MOL0     H86279   5.092   5.894  -0.283 -0.1394 -2.8481 -4.2387
  654MOL0     H86280   5.056   5.809  -0.138 -0.6116  2.4884  0.6947
  654MOL0     H86281   4.891   5.894  -0.013  1.1988 -2.0601 -1.4667
  654MOL0     H86282   4.633   6.104  -0.021 -2.7261  0.4897  1.6117
  654MOL0     H86283   4.641   5.951   0.070  1.5768  3.3603  0.1990
  654MOL0     H86284   4.416   5.980   0.045 -1.6834  0.5623 -0.9713
  654MOL0     H86285   4.463   5.876  -0.100 -0.5347 -0.0091  0.1094
  654MOL0     H86286   4.390   6.172  -0.096 -1.3223 -2.2917  1.9331
  654MOL0     H86287   4.480   6.100  -0.233 -0.1533  2.0545  0.5665
  654MOL0     H86288   4.315   5.928  -0.266  0.3120 -2.7753  2.9146
  654MOL0     H86289   4.269   6.109  -0.282  2.2364  1.1557  1.6573
  654MOL0     H86290   4.035   5.953   0.063  0.3032  3.1578  1.0666
  654MOL0     H86291   3.785   5.953   0.058  0.0988 -0.3141  0.1196
  654MOL0     H86292   3.460   5.787   0.029  1.3510  1.4128  1.3193
  654MOL0     H86293   3.217   5.728   0.008 -1.8614 -0.2548 -2.8881
  654MOL0     H86294   2.974   5.974   0.128 -0.1720 -0.1172 -0.7917
  654MOL0     H86295   2.987   5.799   0.121 -0.4196 -0.1252 -0.6687
  654MOL0     H86296   2.774   5.942  -0.042  2.1658 -0.8912 -0.5363
  654MOL0     H86297   2.752   5.939   0.127 -1.4937  0.4652 -1.6156
  654MOL0     H86298   2.779   5.691   0.141 -1.1027 -1.5560 -0.3445
  654MOL0     H86299   2.806   5.685  -0.035  0.4288  0.9334  0.0071
  654MOL0     H86300   2.582   5.824  -0.045  0.3962 -0.0578 -1.3149
  654MOL0     H86301   2.581   5.642  -0.036  0.3287 -0.4890  1.1053
  654MOL0     H86302   2.412   5.777   0.088 -0.4599  2.6629  1.0012
  654MOL0     H86303   2.529   5.815   0.213 -0.9037 -1.1600  1.6256
  654MOL0     H86304   2.573   5.561   0.238 -1.7513 -0.6621  3.3499
  654MOL0     H86305   2.455   5.532   0.120  3.7671 -0.4550 -0.7684
  654MOL0     H86306   2.415   5.694   0.370 -0.0516 -1.5182  0.1925
  654MOL0     H86307   2.276   5.669   0.258  0.5097  1.4776  0.1468
  654MOL0     H86308   2.421   5.463   0.416 -0.4461  0.5683  1.0323
  654MOL0     H86309   2.315   5.417   0.286  0.3436 -0.5862  1.0801
  654MOL0     H86310   3.148   6.126  -0.139  0.9318  0.3155  0.7088
  654MOL0     H86311   3.377   6.177  -0.124 -0.4052 -0.1307 -0.1174
  654MOL0     H86312   3.808   6.077  -0.360 -0.7207 -0.1089 -0.3212
  654MOL0     H86313   4.067   6.050  -0.340  0.7498  0.2527  1.5519
  654MOL0     H86314   5.362   4.970   0.146  0.0292  1.4164 -0.8002
  654MOL0     H86315   5.579   4.890   0.207 -0.7688 -0.4591  1.3985
  654MOL0     H86316   5.994   4.727   0.105  1.7706 -0.0715  0.0281
  654MOL0     H86317   6.205   4.652   0.167  0.2602  0.0650 -1.3725
  654MOL0     H86318   6.432   4.917   0.444 -0.5891 -1.2576 -0.5133
  654MOL0     H86319   6.509   4.991   0.304 -0.6493  1.3000  1.7885
  654MOL0     H86320   6.591   4.715   0.389 -2.1593  0.0915 -1.2803
  654MOL0     H86321   6.693   4.823   0.306 -0.7655 -1.5237  0.1813
  654MOL0     H86322   6.619   4.839   0.588 -1.1685 -0.6153 -1.8105
  654MOL0     H86323   6.683   4.983   0.495  1.7262 -0.1606  0.0710
  654MOL0     H86324   6.856   4.877   0.634 -1.5578 -0.6823  1.5209
  654MOL0     H86325   6.841   4.729   0.539  1.9974 -0.0998 -2.0052
  654MOL0     H86326   7.070   5.003   0.300 -0.3937 -0.2966 -0.1798
  654MOL0     H86327   6.295   5.050   0.301 -1.7265 -1.0633  2.6971
  654MOL0     H86328   6.084   5.118   0.266 -1.0261  0.1280  0.1288
  655MOL0     O86329   8.968  10.402  10.688 -0.2828  0.8293  0.2977
  655MOL0     C86330   9.062  10.342  10.755  0.7265 -0.5647 -0.1525
  655MOL0     O86331   9.042  10.242  10.850 -0.1907  0.7725 -0.1737
  655MOL0     C86332   8.915  10.186  10.848 -0.9047  0.1274 -0.0149
  655MOL0     C86333   8.821  10.206  10.951 -0.1492 -0.1721  0.7840
  655MOL0     C86334   8.696  10.140  10.945  0.0161  0.0427 -0.1866
  655MOL0     C86335   8.667  10.067  10.829  0.1511  0.1396  0.5117
  655MOL0     O86336   8.547  10.008  10.822 -0.5244  0.8421  0.0507
  655MOL0     C86337   8.457  10.080  10.739  0.9964 -0.5394  0.2164
  655MOL0     C86338   8.348   9.982  10.702 -1.2487 -0.7856 -0.6622
  655MOL0     C86339   8.394   9.860  10.620  0.7206 -0.1907  0.2561
  655MOL0     C86340   8.257   9.804  10.565  0.0987 -0.1107  0.2945
  655MOL0     C86341   8.165   9.745  10.671 -0.5857  0.1778 -0.5566
  655MOL0     C86342   8.051   9.671  10.610 -0.5661 -0.8763  0.0667
  655MOL0     C86343   7.962   9.591  10.706 -0.2642 -0.5345 -0.6232
  655MOL0     C86344   7.845   9.679  10.748  0.3503 -0.1395  0.4556
  655MOL0     N86345   7.748   9.588  10.813 -1.1014  0.8478  1.0580
  655MOL0     C86346   7.649   9.530  10.737 -0.2746  0.6679  0.4133
  655MOL0     C86347   7.620   9.413  10.802  0.2327 -0.0729 -0.0051
  655MOL0     C86348   7.517   9.311  10.757 -0.2502  0.0553 -0.1244
  655MOL0     C86349   7.391   9.335  10.832 -0.1422  0.0737  0.0536
  655MOL0     C86350   7.302   9.215  10.790 -0.7484  0.3221 -0.1916
  655MOL0     C86351   7.159   9.257  10.808  0.1842 -0.6574 -0.2041
  655MOL0     O86352   7.113   9.345  10.702 -0.2108  0.1648  0.0250
  655MOL0     C86353   6.999   9.420  10.709 -0.4347 -0.5019  0.1351
  655MOL0     C86354   6.962   9.512  10.605  0.3984 -0.4525 -0.3479
  655MOL0     C86355   6.848   9.586  10.616 -0.4223 -0.8511  0.1491
  655MOL0     C86356   6.774   9.592  10.735 -0.0385 -0.3404  0.4958
  655MOL0     C86357   6.654   9.685  10.765  0.4654  0.6988  0.5418
  655MOL0     O86358   6.657   9.814  10.719 -0.0939  0.0485 -0.7020
  655MOL0     C86359   6.549   9.886  10.753 -0.1691  0.1473 -0.8874
  655MOL0     C86360   6.436   9.887  10.680 -0.0414 -0.8388 -0.9992
  655MOL0     C86361   6.316   9.963  10.709 -0.2184  0.7429  0.9836
  655MOL0     C86362   6.302  10.023  10.827 -0.4361  0.0878  0.0320
  655MOL0     O86363   6.187  10.094  10.862 -0.2070 -0.4548  0.5567
  655MOL0     C86364   6.158  10.147  10.988  0.7840 -0.1508 -0.4063
  655MOL0     C86365   6.002  10.189  11.005  0.4629 -0.3976 -0.5193
  655MOL0     C86366   5.914  10.067  10.978 -0.2452  0.3180  0.0154
  655MOL0     C86367   5.782  10.088  11.049 -0.4007  0.3615  0.5814
  655MOL0     C86368   5.684   9.971  11.012 -0.3028 -0.3196  0.8572
  655MOL0     C86369   5.570   9.976  11.104 -0.2480  0.2887 -0.5891
  655MOL0     C86370   5.451   9.888  11.060  0.6567  0.0458 -1.0869
  655MOL0     C86371   5.344   9.895  11.160 -0.2478  0.3169  0.2534
  655MOL0    Cl86372   5.285  10.063  11.173 -0.1296 -0.1479  0.7043
  655MOL0     C86373   6.411  10.021  10.918 -0.2569  0.0972  0.1991
  655MOL0     C86374   6.533   9.956  10.876  0.1709  0.4321  0.1357
  655MOL0     O86375   6.565   9.625  10.836  0.4540 -0.6033  0.0495
  655MOL0     C86376   6.811   9.508  10.838  0.0715 -0.1713 -0.3671
  655MOL0     C86377   6.918   9.415  10.819 -1.2695  0.0342  0.5809
  655MOL0     N86378   7.699   9.403  10.912  0.5072  0.0388 -0.5161
  655MOL0     N86379   7.776   9.503  10.914  0.2603  0.6845 -0.0321
  655MOL0     C86380   8.757  10.042  10.732 -0.6370 -0.8047 -0.4867
  655MOL0     C86381   8.883  10.106  10.740 -0.3219  0.4289  0.4008
  655MOL0     C86382   9.199  10.402  10.737  1.9182  0.1926 -0.3148
  655MOL0     C86383   9.241  10.475  10.622 -0.2044 -0.4955 -0.1507
  655MOL0     C86384   9.371  10.530  10.612  0.0150 -0.5063  0.0310
  655MOL0     C86385   9.470  10.500  10.707  0.9424  0.0644 -0.9034
  655MOL0     O86386   9.595  10.550  10.687  0.1430 -0.5345 -0.3940
  655MOL0     C86387   9.710  10.510  10.768  0.8938  0.6340  1.1405
  655MOL0     C86388   9.809  10.620  10.789  0.0475  0.0704  0.5324
  655MOL0     C86389   9.850  10.696  10.668 -0.3069  0.5703  0.2250
  655MOL0     C86390   9.960  10.636  10.576 -0.6332  0.4115  0.2691
  655MOL0     C86391  10.079  10.613  10.648 -0.6535 -0.3459 -0.1747
  655MOL0     C86392  10.184  10.597  10.710 -0.5140 -0.1147 -0.2879
  655MOL0     C86393   9.427  10.431  10.817  0.5015  0.6792  0.0648
  655MOL0     C86394   9.296  10.392  10.832 -0.3416  1.2617 -0.1262
  655MOL0     H86395   8.840  10.284  11.024 -0.2901  0.5730  0.0452
  655MOL0     H86396   8.619  10.143  11.021 -1.0355  0.2296 -1.2291
  655MOL0     H86397   8.506  10.131  10.655  2.7741  0.8460  2.0028
  655MOL0     H86398   8.401  10.155  10.795 -1.1416  1.0170 -3.6100
  655MOL0     H86399   8.278  10.041  10.643 -0.1061  0.7128 -0.5918
  655MOL0     H86400   8.308   9.955  10.800 -1.5107  0.3728 -0.4388
  655MOL0     H86401   8.447   9.779  10.671 -1.9835 -1.3621  1.4038
  655MOL0     H86402   8.449   9.893  10.531  0.2184  0.7388  0.2713
  655MOL0     H86403   8.208   9.885  10.511 -1.1493  0.1553  1.7471
  655MOL0     H86404   8.278   9.726  10.491  0.5051  1.4298 -1.2726
  655MOL0     H86405   8.123   9.818  10.740  0.8794 -1.3291  2.0989
  655MOL0     H86406   8.223   9.676  10.733 -0.8740  0.5748  0.1649
  655MOL0     H86407   8.093   9.599  10.539  0.0017  0.9225 -1.4829
  655MOL0     H86408   7.988   9.743  10.557 -0.2214  1.6493  2.8670
  655MOL0     H86409   7.931   9.503  10.650  2.0529 -0.2351 -2.5477
  655MOL0     H86410   8.018   9.547  10.789  1.4216 -1.3295 -2.0948
  655MOL0     H86411   7.802   9.724  10.658  2.2256  1.3246  0.2281
  655MOL0     H86412   7.869   9.760  10.818  0.3356  2.7268 -2.5896
  655MOL0     H86413   7.608   9.569  10.644 -0.9419 -1.0507 -0.0439
  655MOL0     H86414   7.555   9.211  10.781 -0.0801 -0.0006 -0.6176
  655MOL0     H86415   7.521   9.311  10.648  0.9151 -0.6710 -0.1059
  655MOL0     H86416   7.348   9.430  10.798  0.3360 -0.7637 -3.2531
  655MOL0     H86417   7.411   9.334  10.940  0.4007 -1.6289 -0.0365
  655MOL0     H86418   7.322   9.193  10.685 -2.2917 -0.3499 -0.3651
  655MOL0     H86419   7.330   9.125  10.845  0.8959  0.7042 -0.3428
  655MOL0     H86420   7.149   9.295  10.910  1.7238 -2.6477  0.7590
  655MOL0     H86421   7.089   9.172  10.810 -1.3896  0.6096  0.5952
  655MOL0     H86422   7.025   9.520  10.517  0.5484  1.7346 -0.0916
  655MOL0     H86423   6.804   9.658  10.547  0.1937  2.0240  2.5250
  655MOL0     H86424   6.442   9.839  10.582 -1.3736  1.9920 -2.6010
  655MOL0     H86425   6.238   9.956  10.634  1.7936  1.5146 -1.3271
  655MOL0     H86426   6.210  10.240  11.013  0.5302 -0.0359 -0.3030
  655MOL0     H86427   6.180  10.082  11.073  0.0416  1.7040  1.2777
  655MOL0     H86428   5.988  10.271  10.935  2.3775  0.8024  0.4336
  655MOL0     H86429   5.988  10.233  11.104 -0.4832 -0.3355 -0.6742
  655MOL0     H86430   5.964   9.974  11.006 -1.3806  0.2287  1.9156
  655MOL0     H86431   5.894  10.071  10.870  0.7681 -0.6099 -0.2286
  655MOL0     H86432   5.791  10.089  11.158 -2.8925 -0.6337  0.8468
  655MOL0     H86433   5.736  10.182  11.016 -0.3761  0.5909  1.1804
  655MOL0     H86434   5.729   9.871  11.015  0.1179 -0.1771 -0.1539
  655MOL0     H86435   5.648   9.978  10.909  2.6531  1.1303 -0.2205
  655MOL0     H86436   5.540  10.081  11.116 -3.2400 -0.5731  0.0711
  655MOL0     H86437   5.604   9.941  11.202  0.0737  2.6189  0.1935
  655MOL0     H86438   5.404   9.938  10.975  1.4522  0.8923 -1.0408
  655MOL0     H86439   5.484   9.785  11.044  1.6228  0.3758 -1.2712
  655MOL0     H86440   5.385   9.864  11.257 -1.8804 -0.2588  0.7802
  655MOL0     H86441   5.271   9.823  11.123  1.9220 -0.9621 -1.8573
  655MOL0     H86442   6.401  10.078  11.010  0.0859  2.1293 -0.9699
  655MOL0     H86443   6.620   9.966  10.941 -1.0735 -0.7793  2.1155
  655MOL0     H86444   6.763   9.525  10.934  2.6930  1.3898  0.7928
  655MOL0     H86445   6.929   9.350  10.905 -2.4743  0.1357  0.8325
  655MOL0     H86446   8.745   9.979  10.644  0.4493  3.3702 -3.9626
  655MOL0     H86447   8.957  10.086  10.663  0.0270 -1.0813  1.1026
  655MOL0     H86448   9.182  10.475  10.531  0.6822 -2.1130 -0.7789
  655MOL0     H86449   9.400  10.581  10.520  1.1360 -1.6966 -0.3117
  655MOL0     H86450   9.757  10.437  10.700 -0.5888 -0.2148  0.9831
  655MOL0     H86451   9.690  10.448  10.856  0.5581  0.7417  1.1404
  655MOL0     H86452   9.766  10.680  10.870 -0.5317 -0.6647  0.7855
  655MOL0     H86453   9.895  10.583  10.845 -0.6744 -0.2995  1.4302
  655MOL0     H86454   9.899  10.784  10.711  0.2283 -0.0053  0.8185
  655MOL0     H86455   9.762  10.714  10.607  1.4114 -0.7596 -2.8539
  655MOL0     H86456   9.935  10.532  10.549  1.6416 -0.0242 -0.4359
  655MOL0     H86457   9.982  10.688  10.482 -1.3963 -0.3444 -0.3459
  655MOL0     H86458  10.279  10.583  10.759 -0.7045 -1.5429 -0.2686
  655MOL0     H86459   9.493  10.401  10.898 -1.1879 -2.8988  0.3439
  655MOL0     H86460   9.278  10.330  10.918  4.7437 -0.8314 -0.1800
  656MOL0     O86461  10.399   0.321   6.661 -0.2191 -0.2723  0.4015
  656MOL0     C86462  10.403   0.208   6.618  0.1926  0.2946 -0.2762
  656MOL0     O86463  10.300   0.117   6.598 -1.2579 -0.1837 -0.6425
  656MOL0     C86464  10.182   0.162   6.654 -0.2448 -0.2683  1.0358
  656MOL0     C86465  10.142   0.160   6.786 -0.0316  0.6932 -0.1968
  656MOL0     C86466  10.024   0.210   6.840 -0.2334 -0.1371 -0.5065
  656MOL0     C86467   9.940   0.288   6.760 -0.1676  0.1693 -0.5319
  656MOL0     O86468   9.824   0.346   6.805  0.6153  0.0453 -0.1874
  656MOL0     C86469   9.720   0.256   6.820  0.1170 -0.0423  0.0060
  656MOL0     C86470   9.586   0.327   6.840  0.4199  0.5001 -0.2199
  656MOL0     C86471   9.445   0.261   6.814 -0.4105 -0.2834  0.2596
  656MOL0     C86472   9.311   0.348   6.846  0.3190 -0.2501 -0.1816
  656MOL0     C86473   9.189   0.267   6.814  0.1943 -0.1315 -0.5043
  656MOL0     C86474   9.167   0.155   6.923 -0.2405 -0.4209 -0.4117
  656MOL0     C86475   9.022   0.109   6.915 -0.0639  1.5817  0.2415
  656MOL0     C86476   8.998   0.028   6.794 -0.4535 -0.9166 -0.0570
  656MOL0     N86477   8.850   0.016   6.781 -0.2054 -0.5824  0.3514
  656MOL0     C86478   8.762   0.126   6.762 -0.9967 -0.3576 -0.2648
  656MOL0     C86479   8.645   0.062   6.721 -0.3863 -0.7409 -0.1272
  656MOL0     C86480   8.528   0.120   6.652  0.0921  0.9487 -0.4176
  656MOL0     C86481   8.401   0.076   6.735  0.5840  0.1427  0.3628
  656MOL0     C86482   8.255   0.079   6.667 -0.1548  0.2442  0.5362
  656MOL0     C86483   8.237   0.217   6.596  0.6445 -0.1461  0.6458
  656MOL0     O86484   8.238   0.329   6.688 -0.1222 -0.1151  0.6337
  656MOL0     C86485   8.131   0.413   6.708 -0.4659 -0.6702 -0.6160
  656MOL0     C86486   8.041   0.445   6.604  0.8484  0.4308 -0.5658
  656MOL0     C86487   7.925   0.528   6.618  0.0867 -0.1473  0.1234
  656MOL0     C86488   7.904   0.578   6.744 -0.0670 -0.4428 -0.1551
  656MOL0     C86489   7.782   0.668   6.749 -0.3829  0.1406 -0.3739
  656MOL0     O86490   7.780   0.757   6.862  0.2854  0.0943  0.3172
  656MOL0     C86491   7.694   0.860   6.856 -0.7614 -0.2423  1.1511
  656MOL0     C86492   7.719   0.969   6.775 -0.3115 -0.0650 -0.8567
  656MOL0     C86493   7.616   1.074   6.771  0.2262 -0.8618  0.2774
  656MOL0     C86494   7.496   1.065   6.853  0.1433 -0.3400  0.8479
  656MOL0     O86495   7.399   1.166   6.856 -0.4234 -0.0243 -0.2563
  656MOL0     C86496   7.447   1.298   6.862  0.5185 -0.5855  0.2078
  656MOL0     C86497   7.345   1.371   6.946  0.1651  0.2938 -0.2136
  656MOL0     C86498   7.358   1.368   7.099  0.0324  0.5671 -0.2753
  656MOL0     C86499   7.233   1.432   7.170 -0.5839 -0.5625 -0.5635
  656MOL0     C86500   7.251   1.585   7.177 -0.1680 -0.0256 -0.0459
  656MOL0     C86501   7.130   1.644   7.238 -0.4518 -0.5197  0.1818
  656MOL0     C86502   7.128   1.796   7.250  1.1374 -0.9629 -0.2972
  656MOL0     C86503   6.990   1.842   7.302  0.3174  0.2565 -0.7440
  656MOL0    Cl86504   6.998   2.007   7.344  0.1318  0.1680  0.4090
  656MOL0     C86505   7.491   0.965   6.947  0.2977 -0.9568 -0.0342
  656MOL0     C86506   7.586   0.862   6.948  0.6898  0.0748  0.3142
  656MOL0     O86507   7.697   0.672   6.663 -0.0098 -0.1306  0.6858
  656MOL0     C86508   7.996   0.547   6.852  0.4358 -0.8340 -0.1712
  656MOL0     C86509   8.101   0.462   6.833 -0.1126  0.5477 -0.1849
  656MOL0     N86510   8.658  -0.075   6.724  0.3531  0.0719 -0.6509
  656MOL0     N86511   8.778  -0.099   6.767  0.1781  0.1265  1.0872
  656MOL0     C86512   9.971   0.291   6.623 -0.1700 -0.2281  0.1632
  656MOL0     C86513  10.094   0.234   6.572  0.5529  0.1481 -0.8573
  656MOL0     C86514  10.539   0.159   6.582 -0.9716  0.5213  0.1641
  656MOL0     C86515  10.563   0.061   6.482  0.6457 -0.1646  0.3676
  656MOL0     C86516  10.694   0.032   6.430  0.0083 -0.3239  0.1406
  656MOL0     C86517  10.806   0.081   6.496  0.2424 -0.3779  0.8433
  656MOL0     O86518  10.926   0.031   6.473 -0.3829  0.2516  0.7667
  656MOL0     C86519  10.985   0.051   6.339 -0.1930  1.0038  0.0339
  656MOL0     C86520  11.105   0.151   6.332 -0.0820 -0.1238 -0.4170
  656MOL0     C86521  11.221   0.125   6.429  0.3234  0.3183  0.3093
  656MOL0     C86522  11.306   0.004   6.388 -0.4775 -0.5514  0.2940
  656MOL0     C86523  11.348  -0.076   6.499 -0.4045 -0.3922 -0.1570
  656MOL0     C86524  11.396  -0.135   6.593 -0.1881  0.4732 -0.4686
  656MOL0     C86525  10.787   0.187   6.587 -1.0419  0.0707  0.1697
  656MOL0     C86526  10.657   0.219   6.631  0.4818  0.4244 -0.4219
  656MOL0     H86527  10.211   0.115   6.858  0.8811  2.4912  0.1057
  656MOL0     H86528  10.005   0.189   6.945  2.3507 -2.2621 -0.3676
  656MOL0     H86529   9.742   0.190   6.904  1.3420  0.2068 -0.1014
  656MOL0     H86530   9.717   0.195   6.729 -0.4004  0.8937 -0.6259
  656MOL0     H86531   9.576   0.410   6.769 -3.4025 -1.6358 -2.5499
  656MOL0     H86532   9.583   0.365   6.942 -1.4656 -0.6927  0.2201
  656MOL0     H86533   9.440   0.162   6.860 -2.4926  0.7093  2.3944
  656MOL0     H86534   9.444   0.237   6.707  1.6063 -0.5135  0.2548
  656MOL0     H86535   9.318   0.370   6.953  2.1588  1.8290 -0.6453
  656MOL0     H86536   9.314   0.444   6.794  2.8924 -1.3333 -2.3137
  656MOL0     H86537   9.195   0.229   6.711  1.3011 -2.0466  0.2207
  656MOL0     H86538   9.107   0.339   6.814  0.1833 -0.1196 -1.8680
  656MOL0     H86539   9.186   0.190   7.025  3.2799  1.5179 -1.5360
  656MOL0     H86540   9.241   0.075   6.910 -1.9029 -2.6198  2.5445
  656MOL0     H86541   8.996   0.042   6.997  1.2171 -1.0971 -1.3947
  656MOL0     H86542   8.955   0.193   6.933 -0.6253  0.9161  1.3857
  656MOL0     H86543   9.042  -0.071   6.809  1.4932 -0.0171  0.5203
  656MOL0     H86544   9.034   0.075   6.701 -2.9131 -1.3532 -1.3027
  656MOL0     H86545   8.799   0.228   6.764 -2.2251  0.1128 -0.7609
  656MOL0     H86546   8.515   0.078   6.552 -1.2318 -0.8008  0.4227
  656MOL0     H86547   8.539   0.229   6.653 -4.6754  1.6376 -0.3633
  656MOL0     H86548   8.385   0.153   6.811  0.6326 -0.6882  1.2362
  656MOL0     H86549   8.404  -0.018   6.791 -0.3522  1.3817  2.6330
  656MOL0     H86550   8.238  -0.000   6.594 -1.1724  2.0996 -1.3403
  656MOL0     H86551   8.180   0.066   6.745 -1.1818  1.8053 -0.1358
  656MOL0     H86552   8.141   0.224   6.543 -0.8302 -2.5022  2.7694
  656MOL0     H86553   8.317   0.237   6.525  1.1246  0.7234  1.4140
  656MOL0     H86554   8.067   0.415   6.503  1.0334 -0.1340 -0.3535
  656MOL0     H86555   7.866   0.541   6.527  1.1824  0.0090 -0.5840
  656MOL0     H86556   7.807   0.972   6.711 -0.2039  0.4755 -0.6832
  656MOL0     H86557   7.621   1.159   6.704  3.7096 -0.5948  0.6621
  656MOL0     H86558   7.472   1.343   6.765  0.4426 -1.3503 -0.1778
  656MOL0     H86559   7.545   1.299   6.911  0.1860 -0.4125  0.8742
  656MOL0     H86560   7.246   1.340   6.912  0.6502 -1.0780 -0.4326
  656MOL0     H86561   7.358   1.477   6.920  0.3448  0.8728  2.0142
  656MOL0     H86562   7.443   1.428   7.132  0.0943 -0.3052  1.2208
  656MOL0     H86563   7.365   1.262   7.123  2.6842  0.0217 -2.9232
  656MOL0     H86564   7.146   1.391   7.118  1.1557 -2.2786 -2.3525
  656MOL0     H86565   7.222   1.395   7.272  3.1649 -0.2507  0.1187
  656MOL0     H86566   7.250   1.618   7.073  0.7730  0.0887 -0.0310
  656MOL0     H86567   7.339   1.614   7.236 -0.4435  1.3775 -0.3000
  656MOL0     H86568   7.097   1.592   7.329 -2.1763 -1.4314 -0.8958
  656MOL0     H86569   7.061   1.610   7.160 -1.1223  0.1595  0.4650
  656MOL0     H86570   7.211   1.819   7.318  1.5608 -2.2011 -0.3621
  656MOL0     H86571   7.142   1.849   7.156  1.2196 -3.4837 -1.7912
  656MOL0     H86572   6.961   1.778   7.386  3.0203 -0.6510 -0.4146
  656MOL0     H86573   6.914   1.828   7.225  0.9380  0.0341 -1.3238
  656MOL0     H86574   7.407   0.982   7.013  1.4420  1.8787  0.8472
  656MOL0     H86575   7.581   0.777   7.016 -1.8812 -0.6343 -0.6540
  656MOL0     H86576   7.982   0.588   6.952  1.3097 -0.4221 -0.2102
  656MOL0     H86577   8.188   0.444   6.896  1.2109 -1.6015 -2.4499
  656MOL0     H86578   9.913   0.353   6.555  2.1943  1.4547 -0.4233
  656MOL0     H86579  10.116   0.245   6.466 -0.5428  2.0550 -0.9376
  656MOL0     H86580  10.476   0.006   6.448 -0.0915  0.1770  1.6264
  656MOL0     H86581  10.715  -0.044   6.355  0.0472  1.6282 -1.9511
  656MOL0     H86582  10.909   0.097   6.276 -1.5999  0.2837  1.1452
  656MOL0     H86583  11.016  -0.045   6.297 -1.7139  1.6784 -2.8624
  656MOL0     H86584  11.145   0.149   6.230  2.4713  0.3371  0.5012
  656MOL0     H86585  11.060   0.249   6.354 -1.0510 -0.9481  1.4205
  656MOL0     H86586  11.194   0.113   6.535  1.0880 -0.0592  0.4750
  656MOL0     H86587  11.283   0.213   6.448 -1.0385  1.1427  1.0808
  656MOL0     H86588  11.242  -0.053   6.321 -1.5887  1.5306 -0.5268
  656MOL0     H86589  11.388   0.041   6.326 -0.2507 -4.1014 -1.8006
  656MOL0     H86590  11.437  -0.189   6.675  2.3998 -0.2075 -2.0969
  656MOL0     H86591  10.873   0.221   6.644  0.1914 -1.3290 -0.7809
  656MOL0     H86592  10.649   0.287   6.715  1.1017 -0.5810  0.4683
  657MOL0     O86593   6.689  10.599   2.996 -0.3424 -0.3945 -0.0853
  657MOL0     C86594   6.736  10.684   3.074 -0.6281 -0.1477  0.4295
  657MOL0     O86595   6.703  10.823   3.072 -0.4039  0.5080  0.0876
  657MOL0     C86596   6.619  10.858   2.973  0.1077 -0.6580 -0.4176
  657MOL0     C86597   6.490  10.812   2.952 -0.7026 -0.2175 -0.3662
  657MOL0     C86598   6.406  10.852   2.846 -0.4993  0.3297  0.8394
  657MOL0     C86599   6.456  10.952   2.761  0.3881  0.1880  0.5547
  657MOL0     O86600   6.380  10.990   2.658 -0.0162 -0.5031 -0.1872
  657MOL0     C86601   6.403  11.121   2.610 -0.1123  0.0854 -0.3762
  657MOL0     C86602   6.274  11.191   2.579 -1.1706 -0.0649 -0.8956
  657MOL0     C86603   6.224  11.161   2.439 -0.7376  0.1874 -0.8485
  657MOL0     C86604   6.094  11.235   2.408  0.0933  0.4914  0.1092
  657MOL0     C86605   6.121  11.383   2.375  0.1733  1.1120  0.7499
  657MOL0     C86606   6.076  11.476   2.478 -0.0742 -0.4155  0.1296
  657MOL0     C86607   6.038  11.626   2.430  0.1855  0.8373  0.1572
  657MOL0     C86608   6.142  11.695   2.348  0.7497 -0.7126 -0.6153
  657MOL0     N86609   6.260  11.744   2.417 -0.3136 -0.1128 -0.3474
  657MOL0     C86610   6.288  11.868   2.462 -0.7780 -0.2468  0.4561
  657MOL0     C86611   6.405  11.856   2.532  0.2476 -0.1575  0.3946
  657MOL0     C86612   6.454  11.968   2.612 -0.1788  0.5479 -0.0532
  657MOL0     C86613   6.597  11.934   2.650  0.1580  0.4183  0.0257
  657MOL0     C86614   6.651  12.059   2.719  0.1618  0.5376 -0.3276
  657MOL0     C86615   6.795  12.035   2.765  0.1175  0.0986 -0.0910
  657MOL0     O86616   6.829  12.139   2.859 -0.5416 -0.5205 -0.1379
  657MOL0     C86617   6.960  12.196   2.868 -0.1704  0.7560  0.5308
  657MOL0     C86618   7.080  12.143   2.811 -0.4082 -0.3461 -0.0284
  657MOL0     C86619   7.199  12.210   2.843  0.3203  0.9711  0.1546
  657MOL0     C86620   7.212  12.319   2.926  0.3091 -0.0034  0.5279
  657MOL0     C86621   7.342  12.379   2.952 -0.3385 -1.0404  0.3197
  657MOL0     O86622   7.451  12.311   2.917  0.3846  0.7332 -0.1172
  657MOL0     C86623   7.573  12.361   2.929 -0.2209 -0.4011 -0.3233
  657MOL0     C86624   7.636  12.383   2.808  0.2522 -0.6327  0.3109
  657MOL0     C86625   7.756  12.446   2.809  0.0542  0.5775  0.0283
  657MOL0     C86626   7.817  12.472   2.925  0.7902 -0.1451  0.2171
  657MOL0     O86627   7.944  12.514   2.922  0.0609  0.3566  0.6479
  657MOL0     C86628   8.029  12.406   2.969  0.4915  0.5079  0.1526
  657MOL0     C86629   8.166  12.447   2.992  0.1835  0.0321 -0.7684
  657MOL0     C86630   8.172  12.564   3.100 -0.4392  0.1096  0.3376
  657MOL0     C86631   8.306  12.643   3.109 -0.1036  0.2295  0.7967
  657MOL0     C86632   8.313  12.728   3.229 -1.1061 -0.2198  0.0197
  657MOL0     C86633   8.448  12.798   3.247 -0.5897 -0.6730  0.3942
  657MOL0     C86634   8.481  12.913   3.145  0.1050  0.1453  0.0058
  657MOL0     C86635   8.423  13.050   3.187  0.2849 -0.1322  0.1041
  657MOL0    Cl86636   8.497  13.194   3.119  0.1122 -0.6595  0.2020
  657MOL0     C86637   7.760  12.440   3.048  0.2286  1.2525  1.1258
  657MOL0     C86638   7.637  12.382   3.049  0.0064 -0.1072  0.5724
  657MOL0     O86639   7.341  12.482   3.024 -0.5159 -0.7340 -0.3140
  657MOL0     C86640   7.094  12.365   2.995 -0.4032  0.5741  0.1106
  657MOL0     C86641   6.975  12.290   2.967 -0.2083  0.7796 -0.8804
  657MOL0     N86642   6.448  11.728   2.519  0.1450 -0.0878  0.5299
  657MOL0     N86643   6.360  11.662   2.459 -0.1823 -0.4882 -0.3913
  657MOL0     C86644   6.595  10.986   2.782 -0.6981 -0.1746  0.7220
  657MOL0     C86645   6.668  10.954   2.894  0.2163  0.9609  0.6647
  657MOL0     C86646   6.843  10.644   3.169 -0.3646  0.8852  0.2343
  657MOL0     C86647   6.894  10.508   3.170 -0.0010 -0.3469 -0.4210
  657MOL0     C86648   7.007  10.473   3.241 -0.3097  0.1296 -0.4005
  657MOL0     C86649   7.080  10.574   3.314 -0.0262  0.0797 -0.6265
  657MOL0     O86650   7.202  10.552   3.374 -0.5687 -0.1347  0.4789
  657MOL0     C86651   7.276  10.425   3.372  0.4328  0.5460 -0.4707
  657MOL0     C86652   7.368  10.416   3.256 -0.1016 -0.6329 -0.3108
  657MOL0     C86653   7.461  10.538   3.234  0.6456  0.5555  0.2551
  657MOL0     C86654   7.419  10.623   3.117  0.5631 -0.3505  1.2007
  657MOL0     C86655   7.501  10.745   3.108 -0.2310  0.6531 -0.0695
  657MOL0     C86656   7.573  10.831   3.103 -0.3745  0.0491 -0.7102
  657MOL0     C86657   7.038  10.710   3.308  0.7903  0.2070  0.5028
  657MOL0     C86658   6.924  10.741   3.233  0.9023 -0.1465 -0.1482
  657MOL0     H86659   6.458  10.727   3.012 -0.9016  0.3145  0.2894
  657MOL0     H86660   6.301  10.831   2.832 -0.6366  1.9156 -0.9365
  657MOL0     H86661   6.462  11.113   2.518  1.8212  0.3486  0.7739
  657MOL0     H86662   6.465  11.177   2.681 -0.6136 -0.6800  0.6842
  657MOL0     H86663   6.299  11.297   2.588  0.9649 -0.6972  3.9580
  657MOL0     H86664   6.205  11.161   2.659  0.5842 -2.0712 -0.0481
  657MOL0     H86665   6.189  11.057   2.430  0.1386 -0.3061  0.8282
  657MOL0     H86666   6.302  11.169   2.362 -1.9798  2.2714 -1.9663
  657MOL0     H86667   6.049  11.184   2.323  1.3584 -0.6132  0.0675
  657MOL0     H86668   6.025  11.222   2.492  1.7082 -1.3962  1.2323
  657MOL0     H86669   6.060  11.412   2.289  1.0560  1.9619  0.3987
  657MOL0     H86670   6.219  11.408   2.334  0.3397 -1.4866 -0.6236
  657MOL0     H86671   6.149  11.473   2.559 -0.7846 -0.7231  0.7590
  657MOL0     H86672   5.979  11.453   2.522 -0.5846  1.5011  0.1017
  657MOL0     H86673   5.949  11.634   2.367 -0.2547 -0.3284  0.6078
  657MOL0     H86674   6.016  11.682   2.522 -0.5080 -0.5973  0.9016
  657MOL0     H86675   6.095  11.793   2.331  1.1736 -0.1504  1.2213
  657MOL0     H86676   6.165  11.646   2.253 -1.5254 -0.3108 -1.4362
  657MOL0     H86677   6.218  11.951   2.452 -0.6497 -0.2354 -0.4528
  657MOL0     H86678   6.389  11.984   2.698  1.1696  2.2313  0.7154
  657MOL0     H86679   6.452  12.062   2.557 -0.6098  0.1074 -0.8101
  657MOL0     H86680   6.659  11.912   2.563 -1.0018 -2.5140 -0.1671
  657MOL0     H86681   6.593  11.849   2.719 -0.6349  1.3697  1.2013
  657MOL0     H86682   6.646  12.153   2.663 -3.2376  0.1736 -0.8659
  657MOL0     H86683   6.586  12.073   2.806  0.6711 -0.5807  0.2497
  657MOL0     H86684   6.869  12.027   2.684  1.2811 -0.2759  0.9723
  657MOL0     H86685   6.805  11.935   2.810  2.3015 -0.0233 -0.6960
  657MOL0     H86686   7.084  12.071   2.730  4.2154  0.9006 -1.1696
  657MOL0     H86687   7.283  12.163   2.793 -1.2483  0.3533 -2.0681
  657MOL0     H86688   7.575  12.361   2.721  1.7169 -2.5537 -0.2955
  657MOL0     H86689   7.782  12.482   2.710 -2.3802  0.3794 -0.7531
  657MOL0     H86690   8.036  12.335   2.887 -1.2349  0.0803  0.3415
  657MOL0     H86691   8.000  12.350   3.058  3.4318  0.3826  1.1549
  657MOL0     H86692   8.205  12.490   2.900 -0.8782  1.4865 -0.5738
  657MOL0     H86693   8.233  12.365   3.020 -3.3464 -2.9606 -0.3682
  657MOL0     H86694   8.161  12.523   3.201  1.5035 -0.7757  0.2474
  657MOL0     H86695   8.092  12.636   3.083  2.3452  2.8743 -2.1171
  657MOL0     H86696   8.386  12.569   3.106  0.9377  1.3492 -2.0109
  657MOL0     H86697   8.315  12.718   3.029 -2.9623  0.4119  0.5522
  657MOL0     H86698   8.291  12.661   3.312 -1.4565 -1.2250 -0.8715
  657MOL0     H86699   8.236  12.805   3.227 -1.2083 -0.3205 -2.4447
  657MOL0     H86700   8.516  12.714   3.229  0.4834  0.3365 -0.4105
  657MOL0     H86701   8.466  12.824   3.352 -1.6039 -2.0225  0.9296
  657MOL0     H86702   8.590  12.922   3.136  0.0256  3.1113  0.8699
  657MOL0     H86703   8.444  12.883   3.047  1.0339  0.4119 -0.4322
  657MOL0     H86704   8.436  13.053   3.295 -2.0550  0.0187  0.4379
  657MOL0     H86705   8.314  13.050   3.174  0.5425  0.4473 -2.7014
  657MOL0     H86706   7.825  12.461   3.133  1.5026 -1.1510  0.8344
  657MOL0     H86707   7.575  12.364   3.137 -2.9134  2.7943 -0.6914
  657MOL0     H86708   7.101  12.440   3.073  0.7170  0.5263  0.0749
  657MOL0     H86709   6.891  12.324   3.027 -0.5935  0.5267 -1.2635
  657MOL0     H86710   6.639  11.050   2.706 -0.0421 -0.1098  1.1567
  657MOL0     H86711   6.765  10.998   2.914 -0.2563  2.3583 -0.0190
  657MOL0     H86712   6.855  10.428   3.109  0.1350 -0.5539 -0.2368
  657MOL0     H86713   7.037  10.369   3.241  2.0819  0.7321 -1.6003
  657MOL0     H86714   7.205  10.343   3.377 -0.6661  1.5095  0.4506
  657MOL0     H86715   7.335  10.432   3.464 -1.4925  1.8691  0.7361
  657MOL0     H86716   7.440  10.335   3.273  1.0671 -0.4616 -3.7338
  657MOL0     H86717   7.310  10.395   3.166 -2.2294 -1.1631  1.1075
  657MOL0     H86718   7.559  10.494   3.213 -0.5938 -0.4076 -4.7120
  657MOL0     H86719   7.471  10.603   3.321 -0.3734  0.9698  0.0702
  657MOL0     H86720   7.420  10.567   3.023 -5.0785 -1.2668  1.3505
  657MOL0     H86721   7.317  10.657   3.134  0.7450  0.4891  0.6751
  657MOL0     H86722   7.643  10.912   3.100 -1.2720  0.9935  1.5225
  657MOL0     H86723   7.099  10.788   3.351  2.5392 -0.7133 -0.2104
  657MOL0     H86724   6.901  10.845   3.210 -0.1050 -0.6885 -1.6954
  658MOL0     O86725   9.764   8.696   7.669  0.0069 -0.8994 -0.2095
  658MOL0     C86726   9.830   8.706   7.564  0.1063  0.5592 -0.6898
  658MOL0     O86727   9.789   8.669   7.437  0.0233 -0.2496 -0.3422
  658MOL0     C86728   9.664   8.606   7.421 -0.6228 -0.4336 -0.4696
  658MOL0     C86729   9.548   8.676   7.435  0.0940 -0.1310 -0.4386
  658MOL0     C86730   9.429   8.626   7.406  0.1348  0.2513 -0.0345
  658MOL0     C86731   9.421   8.489   7.378  0.0734  0.4700  0.3708
  658MOL0     O86732   9.301   8.437   7.355  0.2620  0.3369  0.3437
  658MOL0     C86733   9.261   8.308   7.415 -0.2257  0.0622  0.0926
  658MOL0     C86734   9.114   8.318   7.445  0.5340  0.4048  0.4452
  658MOL0     C86735   9.056   8.190   7.504 -0.0465  0.1526 -0.0856
  658MOL0     C86736   8.914   8.200   7.552  0.4316  1.0210 -0.0843
  658MOL0     C86737   8.810   8.233   7.441 -0.2269  0.2324  0.2986
  658MOL0     C86738   8.830   8.142   7.315 -0.1284  0.6584 -0.3112
  658MOL0     C86739   8.701   8.137   7.227 -0.5478  1.0579  0.1147
  658MOL0     C86740   8.722   8.045   7.108  0.1099 -0.1393 -0.4314
  658MOL0     N86741   8.668   8.104   6.984 -0.6087  0.4272  0.4310
  658MOL0     C86742   8.546   8.164   6.986 -0.4577 -0.9062 -0.2849
  658MOL0     C86743   8.524   8.209   6.858  0.3800 -0.1321 -0.1339
  658MOL0     C86744   8.394   8.275   6.812 -0.0502  0.3742 -0.2562
  658MOL0     C86745   8.374   8.427   6.864  0.0081  0.6108  0.0918
  658MOL0     C86746   8.260   8.504   6.807  0.5725 -0.2002  0.3629
  658MOL0     C86747   8.125   8.424   6.809 -0.5219  0.5755 -0.3584
  658MOL0     O86748   8.119   8.323   6.710  0.8486  0.0130  0.5152
  658MOL0     C86749   8.006   8.283   6.635  0.3619 -0.1127 -0.3999
  658MOL0     C86750   7.891   8.365   6.638 -0.6708 -0.5364 -1.3801
  658MOL0     C86751   7.776   8.337   6.569 -0.0512  0.5145 -0.0614
  658MOL0     C86752   7.767   8.211   6.501  0.7037 -0.9130  0.0018
  658MOL0     C86753   7.642   8.183   6.432  0.8507 -0.0187 -0.3723
  658MOL0     O86754   7.548   8.290   6.422 -0.5876 -0.2263  0.2855
  658MOL0     C86755   7.425   8.262   6.364  0.7705 -0.6570  1.4313
  658MOL0     C86756   7.372   8.337   6.265 -0.0661  0.3807  0.6625
  658MOL0     C86757   7.243   8.322   6.218  0.6130  0.0784 -0.5110
  658MOL0     C86758   7.157   8.216   6.272 -0.1465  0.0329  0.0575
  658MOL0     O86759   7.029   8.207   6.224 -0.5840 -0.4218 -1.1635
  658MOL0     C86760   6.939   8.121   6.300 -0.1367 -0.4315 -0.2510
  658MOL0     C86761   6.800   8.105   6.246  0.6505 -0.0676  0.2122
  658MOL0     C86762   6.715   8.230   6.280  0.0354 -0.3684 -0.3265
  658MOL0     C86763   6.574   8.194   6.280  0.1874 -0.0628 -0.2752
  658MOL0     C86764   6.500   8.325   6.307  0.4431  0.6656 -0.1271
  658MOL0     C86765   6.358   8.317   6.265  0.3576  0.4637  0.1545
  658MOL0     C86766   6.284   8.445   6.304  0.3456 -0.0678 -1.6526
  658MOL0     C86767   6.130   8.427   6.303 -0.0050 -0.0114  0.1057
  658MOL0    Cl86768   6.044   8.583   6.357 -0.0424  0.0032 -0.1270
  658MOL0     C86769   7.218   8.136   6.377  0.5470  0.0603  0.7665
  658MOL0     C86770   7.349   8.164   6.424  0.7977 -1.1577 -0.2490
  658MOL0     O86771   7.619   8.068   6.392  0.3156  0.9705 -0.8872
  658MOL0     C86772   7.886   8.130   6.499 -0.3163 -0.1193 -0.2381
  658MOL0     C86773   8.002   8.166   6.570 -0.6937 -0.1869  1.3942
  658MOL0     N86774   8.633   8.175   6.785  0.9241  0.6216 -0.5589
  658MOL0     N86775   8.717   8.110   6.857 -0.6563  0.1589  0.3508
  658MOL0     C86776   9.537   8.409   7.370  0.2696 -0.0094 -0.6619
  658MOL0     C86777   9.661   8.473   7.395  0.1020  0.4951  0.0158
  658MOL0     C86778   9.969   8.766   7.571 -0.5567 -0.2129  0.6893
  658MOL0     C86779  10.038   8.801   7.458  0.0722  0.0975  0.0495
  658MOL0     C86780  10.155   8.875   7.460  0.1707 -0.5076 -0.2028
  658MOL0     C86781  10.214   8.923   7.578 -0.4176  0.8984  1.0475
  658MOL0     O86782  10.334   8.987   7.590 -0.2354  0.1611  0.6580
  658MOL0     C86783  10.437   8.973   7.486 -0.1771  0.1619  0.1861
  658MOL0     C86784  10.571   9.028   7.542  0.4829  0.7597  0.4359
  658MOL0     C86785  10.609   8.969   7.684  0.0723 -0.7595  0.4597
  658MOL0     C86786  10.656   8.821   7.670  0.1599 -1.6509 -0.5613
  658MOL0     C86787  10.806   8.806   7.696  0.5157 -0.4965  0.5716
  658MOL0     C86788  10.926   8.794   7.716 -1.0455  0.8336  0.2978
  658MOL0     C86789  10.148   8.884   7.694  0.0032 -0.7647  0.0242
  658MOL0     C86790  10.025   8.813   7.692  0.7000 -0.2360  0.2621
  658MOL0     H86791   9.562   8.776   7.474  0.9218  0.1533 -1.3910
  658MOL0     H86792   9.332   8.674   7.417  0.5683  1.2003 -0.3360
  658MOL0     H86793   9.317   8.282   7.505 -0.2063  1.0362  0.3675
  658MOL0     H86794   9.294   8.224   7.352  2.0763  0.9315  0.0628
  658MOL0     H86795   9.051   8.342   7.359  1.5493  0.2899 -0.3450
  658MOL0     H86796   9.098   8.399   7.517  2.4357  1.1382  0.1073
  658MOL0     H86797   9.117   8.170   7.593  1.2403  1.6035 -0.5970
  658MOL0     H86798   9.075   8.116   7.425  0.8662  1.1243 -0.8165
  658MOL0     H86799   8.895   8.105   7.602  1.9431  2.7455  4.2798
  658MOL0     H86800   8.916   8.276   7.631 -1.9537  0.7284  0.3240
  658MOL0     H86801   8.806   8.335   7.403 -2.9652 -0.4129 -1.4583
  658MOL0     H86802   8.712   8.208   7.485 -0.0020  1.1703  1.3818
  658MOL0     H86803   8.855   8.044   7.356  3.4161  1.3269 -0.5417
  658MOL0     H86804   8.913   8.172   7.251  0.7572 -1.2798 -0.1246
  658MOL0     H86805   8.607   8.104   7.272 -0.8247 -0.4280 -1.4793
  658MOL0     H86806   8.688   8.242   7.199 -0.3285  0.5817 -1.9208
  658MOL0     H86807   8.672   7.949   7.124 -0.0280  0.0745  0.5031
  658MOL0     H86808   8.829   8.028   7.090 -0.0671 -2.0701  0.0638
  658MOL0     H86809   8.481   8.156   7.072 -2.7474 -2.2500 -2.0102
  658MOL0     H86810   8.314   8.210   6.851  0.3056  0.0050 -0.1354
  658MOL0     H86811   8.377   8.254   6.706  1.7731 -1.0612 -0.2924
  658MOL0     H86812   8.462   8.479   6.827 -0.0718 -0.6098 -1.9887
  658MOL0     H86813   8.388   8.437   6.972  2.1764 -1.1706  0.0319
  658MOL0     H86814   8.259   8.590   6.874  1.4296 -1.3285  1.8716
  658MOL0     H86815   8.291   8.538   6.708  2.0538 -0.0548  0.8600
  658MOL0     H86816   8.053   8.505   6.794 -0.0238  1.0565 -0.1751
  658MOL0     H86817   8.113   8.378   6.908 -2.8610 -4.2837 -2.6076
  658MOL0     H86818   7.887   8.455   6.698  3.1291 -2.1679  1.7734
  658MOL0     H86819   7.687   8.400   6.571 -1.7990 -1.7776 -1.1284
  658MOL0     H86820   7.427   8.411   6.207  0.7867 -2.0371 -1.7860
  658MOL0     H86821   7.216   8.389   6.137  3.7679  0.0906 -1.6932
  658MOL0     H86822   6.932   8.154   6.404  0.1895 -2.2252  0.3727
  658MOL0     H86823   6.980   8.020   6.301  1.2012  0.0769  1.5459
  658MOL0     H86824   6.751   8.021   6.297  1.0084  0.1813  0.9750
  658MOL0     H86825   6.804   8.087   6.138  4.6132  0.4053  0.1433
  658MOL0     H86826   6.747   8.307   6.209 -3.6809  3.2418  1.5040
  658MOL0     H86827   6.744   8.271   6.376 -1.1759  3.0444 -1.2840
  658MOL0     H86828   6.560   8.166   6.175  0.4570 -2.5149  0.2870
  658MOL0     H86829   6.534   8.119   6.349  0.4937  0.8100  0.8730
  658MOL0     H86830   6.549   8.405   6.250  2.4356 -1.1287 -1.0886
  658MOL0     H86831   6.509   8.346   6.414 -0.3299  1.1724 -0.1552
  658MOL0     H86832   6.304   8.230   6.305 -0.8399  1.2592  0.3173
  658MOL0     H86833   6.354   8.313   6.155  0.9788  0.0517  0.1441
  658MOL0     H86834   6.318   8.484   6.400  4.1051  0.0400 -2.8264
  658MOL0     H86835   6.307   8.526   6.234 -5.8253  0.2195 -3.9547
  658MOL0     H86836   6.111   8.346   6.374 -0.4725 -0.2062 -0.2379
  658MOL0     H86837   6.086   8.395   6.209  1.0785 -0.4072 -0.2772
  658MOL0     H86838   7.159   8.062   6.431  0.9884 -0.0801  1.0547
  658MOL0     H86839   7.380   8.106   6.510 -0.1817 -0.8409  0.3387
  658MOL0     H86840   7.873   8.035   6.448 -0.0422 -0.3880  0.1829
  658MOL0     H86841   8.091   8.105   6.561 -0.9911 -0.4799  0.2265
  658MOL0     H86842   9.520   8.304   7.347  0.2289 -0.1902  0.1795
  658MOL0     H86843   9.750   8.410   7.387 -0.4762 -0.2803 -0.4728
  658MOL0     H86844   9.991   8.758   7.370  0.0211 -1.0604  0.6203
  658MOL0     H86845  10.193   8.901   7.362 -0.2676  1.8230  0.1785
  658MOL0     H86846  10.407   9.020   7.392 -1.1028  0.5071  0.6377
  658MOL0     H86847  10.447   8.866   7.468 -2.7475  0.0369 -1.1132
  658MOL0     H86848  10.656   9.017   7.475  0.3387  0.7208  0.2600
  658MOL0     H86849  10.549   9.134   7.561 -0.5673  1.0409 -1.9436
  658MOL0     H86850  10.520   8.973   7.748  1.3071  1.0235  2.2198
  658MOL0     H86851  10.682   9.025   7.744 -0.4622 -0.3690  0.7580
  658MOL0     H86852  10.601   8.762   7.743 -1.1530  0.4232  0.2217
  658MOL0     H86853  10.640   8.784   7.568  0.8933 -1.3463 -0.8014
  658MOL0     H86854  11.033   8.785   7.721 -1.2050 -0.5050  2.4471
  658MOL0     H86855  10.186   8.910   7.792 -1.0341 -2.0345  0.7896
  658MOL0     H86856   9.972   8.785   7.783  0.9238 -0.0292  0.4577
  659MOL0     O86857   8.401   1.684   5.618 -0.4557  0.0395  0.2238
  659MOL0     C86858   8.374   1.640   5.507  1.0748 -0.3867  0.2185
  659MOL0     O86859   8.256   1.677   5.435 -0.3840  0.6500  0.3774
  659MOL0     C86860   8.171   1.760   5.488 -0.7282 -1.0764 -0.6478
  659MOL0     C86861   8.105   1.853   5.405  0.4692  0.0665 -0.0237
  659MOL0     C86862   7.991   1.922   5.447 -0.1355  0.2816 -1.4995
  659MOL0     C86863   7.958   1.921   5.582 -0.4765 -0.1841 -0.3247
  659MOL0     O86864   7.866   2.006   5.626  0.3760  0.0139 -0.3137
  659MOL0     C86865   7.765   1.942   5.707 -0.2381 -0.3527 -0.0003
  659MOL0     C86866   7.646   2.038   5.725 -0.8856 -0.0083 -0.8387
  659MOL0     C86867   7.560   2.026   5.847  0.2621  0.5539 -0.3631
  659MOL0     C86868   7.473   2.154   5.872 -0.4687  0.1802 -0.3240
  659MOL0     C86869   7.392   2.135   5.996 -0.8072  0.7999 -0.3167
  659MOL0     C86870   7.283   2.237   5.999  0.6168 -0.4319  0.8479
  659MOL0     C86871   7.216   2.247   6.138  0.1536 -0.0472 -0.1684
  659MOL0     C86872   7.085   2.318   6.129  0.4944  0.2070 -0.2288
  659MOL0     N86873   7.014   2.318   6.256  0.7619  0.1290  0.7591
  659MOL0     C86874   6.946   2.211   6.307 -0.3776  0.0822  0.7278
  659MOL0     C86875   6.897   2.254   6.426  0.0503 -0.1932  0.3843
  659MOL0     C86876   6.820   2.168   6.512  0.3825  1.1722  0.5663
  659MOL0     C86877   6.699   2.248   6.559  0.8506 -0.0128 -0.3403
  659MOL0     C86878   6.595   2.226   6.449 -0.4885  0.3686  0.2347
  659MOL0     C86879   6.458   2.268   6.486  1.0912 -0.4788  0.3301
  659MOL0     O86880   6.382   2.251   6.360 -0.2291 -0.2560  0.0375
  659MOL0     C86881   6.242   2.251   6.357  0.7214  0.3397 -0.5935
  659MOL0     C86882   6.162   2.299   6.465  0.0175 -0.6478  0.2100
  659MOL0     C86883   6.026   2.295   6.465  0.0704  0.4973  0.5767
  659MOL0     C86884   5.955   2.251   6.356 -0.0231  0.1724 -0.3060
  659MOL0     C86885   5.804   2.243   6.357  0.3461 -0.2041 -0.7039
  659MOL0     O86886   5.740   2.212   6.243 -0.2451  0.8810  0.0813
  659MOL0     C86887   5.603   2.247   6.223  0.5219  0.6772 -0.0988
  659MOL0     C86888   5.503   2.232   6.319 -0.2208  0.3976  0.1568
  659MOL0     C86889   5.372   2.278   6.309 -0.4979 -0.6807 -0.6245
  659MOL0     C86890   5.339   2.345   6.193 -0.2367  0.4406 -0.0044
  659MOL0     O86891   5.215   2.403   6.162 -0.3850  0.5860 -0.7010
  659MOL0     C86892   5.109   2.346   6.245 -0.0742 -0.1949  0.6581
  659MOL0     C86893   4.990   2.437   6.235 -0.7441  0.1711  1.0220
  659MOL0     C86894   4.862   2.382   6.286  0.7473 -0.2991  0.3785
  659MOL0     C86895   4.740   2.476   6.266 -0.6450  0.3142 -0.2534
  659MOL0     C86896   4.632   2.420   6.351  0.1811 -0.1461  0.0104
  659MOL0     C86897   4.507   2.524   6.361  0.5470 -0.1381 -0.5343
  659MOL0     C86898   4.365   2.472   6.397 -0.0925  0.3738  0.1874
  659MOL0     C86899   4.257   2.567   6.375 -0.3124  0.1644  0.0800
  659MOL0    Cl86900   4.284   2.710   6.484  0.1254  0.1116  0.5421
  659MOL0     C86901   5.437   2.358   6.096 -0.3446  0.0024  0.9172
  659MOL0     C86902   5.571   2.309   6.107 -0.0896  0.4517  0.6049
  659MOL0     O86903   5.746   2.278   6.460 -0.5826 -0.0168 -0.6680
  659MOL0     C86904   6.028   2.197   6.248  0.8066  0.5775  0.4365
  659MOL0     C86905   6.167   2.195   6.247 -0.5094  0.1827  0.3055
  659MOL0     N86906   6.946   2.380   6.451 -0.1057  0.3760  0.0470
  659MOL0     N86907   7.024   2.416   6.352 -0.8629 -0.5636  0.3646
  659MOL0     C86908   8.020   1.825   5.671  0.1349  0.2157  0.3536
  659MOL0     C86909   8.125   1.750   5.621 -0.1267  0.4812 -0.5714
  659MOL0     C86910   8.468   1.565   5.426 -0.3278  0.9706 -0.5557
  659MOL0     C86911   8.462   1.550   5.284  0.1199 -0.9788  1.1687
  659MOL0     C86912   8.573   1.483   5.220 -0.7923 -0.5380 -0.2950
  659MOL0     C86913   8.685   1.428   5.283  0.4380 -0.7452  0.1326
  659MOL0     O86914   8.790   1.365   5.224 -0.1231 -0.5570 -0.9254
  659MOL0     C86915   8.806   1.342   5.077  0.0367 -0.5802  0.4422
  659MOL0     C86916   8.890   1.452   5.016  0.7934  0.2330  0.4362
  659MOL0     C86917   9.029   1.451   5.071 -0.2086  0.3215 -0.1356
  659MOL0     C86918   9.126   1.353   4.989 -0.4305 -0.0417  0.6459
  659MOL0     C86919   9.258   1.379   5.042  0.2975 -0.0338 -0.5094
  659MOL0     C86920   9.367   1.398   5.098  0.5924  0.2220  0.0906
  659MOL0     C86921   8.691   1.451   5.419  0.1388 -0.4452  0.9412
  659MOL0     C86922   8.585   1.515   5.491  0.8682  0.1000  0.5831
  659MOL0     H86923   8.147   1.857   5.305  2.8828 -3.1135  0.6800
  659MOL0     H86924   7.937   1.987   5.379 -1.1026 -2.7648 -3.8717
  659MOL0     H86925   7.808   1.921   5.805 -0.4499 -1.7604 -0.1843
  659MOL0     H86926   7.734   1.852   5.653 -0.4069  0.3500 -1.1152
  659MOL0     H86927   7.573   2.047   5.644  0.6650 -2.5832 -2.6719
  659MOL0     H86928   7.695   2.135   5.736 -0.8787 -0.1654  0.7507
  659MOL0     H86929   7.617   2.007   5.939  2.2691 -0.8748 -1.8310
  659MOL0     H86930   7.492   1.942   5.839 -3.2127  3.0478  0.6525
  659MOL0     H86931   7.529   2.246   5.888 -3.2457  1.7409  1.2289
  659MOL0     H86932   7.416   2.170   5.780 -1.9731  0.2886  0.5946
  659MOL0     H86933   7.451   2.139   6.088  0.5501 -0.4028 -1.1083
  659MOL0     H86934   7.340   2.038   5.993  0.2961  0.2260 -1.1084
  659MOL0     H86935   7.209   2.221   5.920  1.3290 -0.4675  0.1766
  659MOL0     H86936   7.328   2.335   5.979  1.5335 -1.0830 -0.3328
  659MOL0     H86937   7.190   2.144   6.165 -1.3850  0.7284  1.5488
  659MOL0     H86938   7.292   2.283   6.208  0.5928  0.8658 -1.0951
  659MOL0     H86939   7.018   2.280   6.051 -0.9368  0.6199  0.7591
  659MOL0     H86940   7.116   2.423   6.130 -0.4540  0.4968  0.3875
  659MOL0     H86941   6.928   2.119   6.253 -0.4170  1.3725 -1.6070
  659MOL0     H86942   6.885   2.139   6.595  1.7399  0.4308 -0.7068
  659MOL0     H86943   6.785   2.075   6.467  1.8673  0.6289  0.4704
  659MOL0     H86944   6.734   2.351   6.569 -0.7886  0.4123  1.6589
  659MOL0     H86945   6.663   2.211   6.655 -1.9221 -0.8897 -1.6201
  659MOL0     H86946   6.620   2.288   6.362 -0.4212  1.3384  0.9245
  659MOL0     H86947   6.592   2.122   6.416  2.1859  0.5024 -0.7210
  659MOL0     H86948   6.461   2.374   6.512 -0.4793  0.2965 -2.2247
  659MOL0     H86949   6.414   2.207   6.566  0.5900 -0.7824 -0.1675
  659MOL0     H86950   6.212   2.339   6.552 -0.5815  1.8367 -0.5228
  659MOL0     H86951   5.967   2.346   6.540  0.5864  0.7189  0.8375
  659MOL0     H86952   5.541   2.176   6.403  3.1551 -1.6782 -2.4660
  659MOL0     H86953   5.296   2.255   6.383 -1.4783  0.5252 -1.2315
  659MOL0     H86954   5.133   2.353   6.352  1.3582 -0.4147  0.3810
  659MOL0     H86955   5.090   2.241   6.218  0.0823 -0.2295  0.6805
  659MOL0     H86956   4.980   2.436   6.126 -0.9719 -1.7103  1.0312
  659MOL0     H86957   5.015   2.538   6.270 -2.5507  0.4464  1.6518
  659MOL0     H86958   4.885   2.372   6.393  1.3568  0.0948  0.2841
  659MOL0     H86959   4.846   2.290   6.228  0.5178  0.5411 -0.9313
  659MOL0     H86960   4.759   2.580   6.292 -3.1271  0.6238  0.6295
  659MOL0     H86961   4.700   2.475   6.164  0.5428  2.3172 -0.7986
  659MOL0     H86962   4.668   2.410   6.454 -0.1192 -1.0281  0.0351
  659MOL0     H86963   4.597   2.321   6.318  1.9093 -0.4598 -0.9669
  659MOL0     H86964   4.485   2.568   6.263 -0.0918  0.1184 -0.2842
  659MOL0     H86965   4.535   2.607   6.427  0.7961 -1.5338  1.1685
  659MOL0     H86966   4.354   2.384   6.333  1.9630  0.6464 -0.6414
  659MOL0     H86967   4.372   2.449   6.503  1.1313  2.7992  0.7078
  659MOL0     H86968   4.156   2.535   6.404  0.3362 -0.2888  1.9670
  659MOL0     H86969   4.241   2.597   6.271 -3.7553  0.8174  0.6558
  659MOL0     H86970   5.403   2.407   6.005  0.4509 -0.7068  0.2234
  659MOL0     H86971   5.646   2.330   6.031 -1.7094  0.2767 -1.1064
  659MOL0     H86972   5.979   2.143   6.167  0.6436  0.8488  0.3546
  659MOL0     H86973   6.218   2.151   6.162 -0.4608  1.5341 -0.3743
  659MOL0     H86974   7.996   1.833   5.776  1.2797  3.9922  0.4835
  659MOL0     H86975   8.161   1.676   5.692 -0.0119  0.9292 -0.1525
  659MOL0     H86976   8.390   1.598   5.219  2.1569  1.0929  0.2663
  659MOL0     H86977   8.580   1.477   5.112 -0.3285  1.1119 -0.3701
  659MOL0     H86978   8.711   1.337   5.023  1.6101  1.0727 -2.7602
  659MOL0     H86979   8.854   1.246   5.054 -2.7446 -1.9038 -0.2427
  659MOL0     H86980   8.870   1.465   4.909  0.7894  3.2214  0.7124
  659MOL0     H86981   8.842   1.534   5.070  0.5392 -1.5237  3.0477
  659MOL0     H86982   9.030   1.422   5.177 -0.8718 -0.5734 -0.3721
  659MOL0     H86983   9.068   1.553   5.062  1.6353 -0.2420  0.8032
  659MOL0     H86984   9.107   1.246   4.992  1.0453 -0.3092  3.0122
  659MOL0     H86985   9.110   1.373   4.883  0.4959  3.1121  0.9987
  659MOL0     H86986   9.447   1.438   5.157  0.9193  0.3550 -0.4410
  659MOL0     H86987   8.777   1.417   5.476 -0.1841 -2.8753  0.0872
  659MOL0     H86988   8.610   1.530   5.596  4.1693  1.0521 -0.2222
  660MOL0     O86989   0.093   5.682   8.092  0.1490  0.0379  0.1331
  660MOL0     C86990   0.153   5.708   7.983  0.1753  0.2510 -0.8606
  660MOL0     O86991   0.104   5.724   7.862  0.0790 -0.0848  0.0903
  660MOL0     C86992  -0.031   5.702   7.857  0.1897  0.1940  0.7150
  660MOL0     C86993  -0.123   5.799   7.889  0.3644 -0.0494 -0.1850
  660MOL0     C86994  -0.259   5.770   7.877  0.1223  0.3407  0.1375
  660MOL0     C86995  -0.305   5.645   7.833 -1.1975 -0.0420 -0.6702
  660MOL0     O86996  -0.446   5.628   7.833  0.0844  0.1541  0.6987
  660MOL0     C86997  -0.490   5.514   7.759 -0.6100 -0.9193  0.0955
  660MOL0     C86998  -0.628   5.522   7.712  0.8439  0.6949 -0.7400
  660MOL0     C86999  -0.700   5.398   7.655 -0.8179  0.4563 -0.6908
  660MOL0     C87000  -0.852   5.427   7.643 -0.4991  0.3114  0.0539
  660MOL0     C87001  -0.912   5.295   7.605  0.6925 -0.0454  0.0865
  660MOL0     C87002  -1.065   5.300   7.599 -0.2555  0.0591  0.2777
  660MOL0     C87003  -1.114   5.173   7.524 -0.4374  0.5169 -0.0916
  660MOL0     C87004  -1.061   5.036   7.584 -0.6760 -0.5394 -0.3876
  660MOL0     N87005  -1.113   4.922   7.511  0.7910 -0.1908 -0.3507
  660MOL0     C87006  -1.250   4.891   7.502  0.4213  0.6740  0.3937
  660MOL0     C87007  -1.246   4.767   7.451  0.1070  0.3646  0.2991
  660MOL0     C87008  -1.355   4.671   7.412  0.2686 -0.5905 -0.0841
  660MOL0     C87009  -1.423   4.641   7.545  0.0879 -0.3917  0.0960
  660MOL0     C87010  -1.489   4.506   7.540  0.7653 -0.1987  0.4813
  660MOL0     C87011  -1.616   4.520   7.452 -0.1924  0.6012  0.0563
  660MOL0     O87012  -1.679   4.398   7.417  0.2198 -0.4324 -0.0132
  660MOL0     C87013  -1.817   4.405   7.392  0.3070 -0.0273 -0.2946
  660MOL0     C87014  -1.892   4.526   7.382 -0.0575 -0.1662  0.5938
  660MOL0     C87015  -2.030   4.514   7.384 -0.0418 -0.0669  0.3039
  660MOL0     C87016  -2.095   4.397   7.399  0.4169  0.9235  0.3317
  660MOL0     C87017  -2.247   4.388   7.396  0.3073  0.1916  0.2044
  660MOL0     O87018  -2.308   4.511   7.400 -0.1578  0.1477  0.0522
  660MOL0     C87019  -2.442   4.509   7.400 -0.0956 -0.6265 -0.2516
  660MOL0     C87020  -2.500   4.616   7.334  0.3757 -0.6541  0.3649
  660MOL0     C87021  -2.644   4.633   7.338  0.1909  0.1033  0.5291
  660MOL0     C87022  -2.727   4.541   7.410 -1.1495 -0.4372 -0.2527
  660MOL0     O87023  -2.858   4.557   7.405 -0.3419  0.3031  0.3853
  660MOL0     C87024  -2.938   4.443   7.409 -0.2886 -1.1978  0.0972
  660MOL0     C87025  -3.074   4.483   7.357 -0.1152  0.8365 -0.8168
  660MOL0     C87026  -3.140   4.593   7.450  0.0602 -0.0775 -0.8555
  660MOL0     C87027  -3.282   4.613   7.397 -0.1636  1.1542  0.3176
  660MOL0     C87028  -3.335   4.742   7.464 -0.1627  0.6770 -0.0115
  660MOL0     C87029  -3.466   4.792   7.399  0.0409  0.2236  0.0063
  660MOL0     C87030  -3.584   4.688   7.412 -0.5867 -0.5530  1.3441
  660MOL0     C87031  -3.623   4.667   7.557  0.6770 -0.1233  0.3309
  660MOL0    Cl87032  -3.791   4.593   7.575  0.0704 -0.1769 -0.1578
  660MOL0     C87033  -2.665   4.438   7.473 -0.4930  0.3335 -0.7975
  660MOL0     C87034  -2.527   4.421   7.475 -0.4067  0.5321 -0.2304
  660MOL0     O87035  -2.299   4.277   7.369 -0.2424  0.3809 -0.1690
  660MOL0     C87036  -2.018   4.277   7.390  0.1497 -0.3077  0.1346
  660MOL0     C87037  -1.878   4.287   7.383  0.8684  0.1132 -0.3213
  660MOL0     N87038  -1.123   4.719   7.432 -0.0672 -0.0670  0.2153
  660MOL0     N87039  -1.038   4.819   7.461  0.4516 -0.2008  0.5268
  660MOL0     C87040  -0.213   5.540   7.809  0.4827  0.3980  0.4136
  660MOL0     C87041  -0.074   5.566   7.834 -0.2868  0.7734  0.0733
  660MOL0     C87042   0.296   5.716   7.997  0.3932 -0.0716  1.1202
  660MOL0     C87043   0.366   5.636   8.091 -0.4211 -1.3075  0.3077
  660MOL0     C87044   0.507   5.648   8.116 -0.9584  0.4824  1.0970
  660MOL0     C87045   0.582   5.751   8.046  0.6533 -0.3183 -1.0904
  660MOL0     O87046   0.709   5.791   8.077  0.3134  0.7635  0.1209
  660MOL0     C87047   0.808   5.687   8.080  0.4668  0.3530  0.2289
  660MOL0     C87048   0.951   5.743   8.047 -0.7083  0.0750 -0.1100
  660MOL0     C87049   0.958   5.774   7.897 -0.4330  0.0706 -0.1767
  660MOL0     C87050   1.102   5.813   7.848 -0.0681  0.0488 -0.5341
  660MOL0     C87051   1.166   5.926   7.904  0.7466 -0.6822  0.3703
  660MOL0     C87052   1.215   6.025   7.959  0.6503 -0.5207  0.6592
  660MOL0     C87053   0.515   5.812   7.941 -0.1408  0.1225 -0.3529
  660MOL0     C87054   0.374   5.790   7.909  0.7217 -0.5226  0.0371
  660MOL0     H87055  -0.098   5.894   7.934  1.0676 -1.3453  2.3903
  660MOL0     H87056  -0.342   5.832   7.910 -0.1908  1.6061 -2.7800
  660MOL0     H87057  -0.475   5.424   7.819 -0.2778 -1.5554 -0.9202
  660MOL0     H87058  -0.426   5.503   7.671  0.6761 -0.0120  0.8847
  660MOL0     H87059  -0.624   5.591   7.627  2.5045  1.7270  0.1243
  660MOL0     H87060  -0.686   5.565   7.794 -2.0037  0.2505 -2.3814
  660MOL0     H87061  -0.685   5.307   7.713 -0.6094 -0.7187 -2.5278
  660MOL0     H87062  -0.656   5.380   7.557  3.7756 -2.1134  1.5389
  660MOL0     H87063  -0.896   5.470   7.733  1.1947  1.2427  0.4777
  660MOL0     H87064  -0.858   5.503   7.565 -0.6126  2.2616  1.8799
  660MOL0     H87065  -0.898   5.226   7.689 -0.1211 -1.4263 -0.8700
  660MOL0     H87066  -0.870   5.249   7.515  2.1023 -0.9091  1.1527
  660MOL0     H87067  -1.091   5.388   7.539  0.9581  1.3725  1.5777
  660MOL0     H87068  -1.118   5.322   7.693  1.9560  2.1821  1.1212
  660MOL0     H87069  -1.224   5.169   7.529 -0.3570 -2.2221  1.6029
  660MOL0     H87070  -1.094   5.187   7.417 -4.4663  2.7304 -0.7811
  660MOL0     H87071  -1.093   5.029   7.688  0.1114  0.8837 -0.0227
  660MOL0     H87072  -0.952   5.023   7.586 -0.7555 -1.7586  3.2251
  660MOL0     H87073  -1.337   4.952   7.525 -0.8424 -1.1716  0.6600
  660MOL0     H87074  -1.310   4.590   7.354 -0.7424 -0.4041 -1.1612
  660MOL0     H87075  -1.423   4.725   7.346  0.9735 -1.7704 -1.8436
  660MOL0     H87076  -1.490   4.727   7.557  0.7480  0.2685 -0.7860
  660MOL0     H87077  -1.352   4.630   7.627  3.0166  1.3539 -1.9935
  660MOL0     H87078  -1.417   4.431   7.506  0.4613 -2.0077  3.4893
  660MOL0     H87079  -1.512   4.473   7.641 -0.7002  0.4548  0.3847
  660MOL0     H87080  -1.589   4.558   7.353 -1.6080 -1.8145 -1.3421
  660MOL0     H87081  -1.684   4.580   7.514 -0.9642 -0.8270  0.6387
  660MOL0     H87082  -1.837   4.620   7.386  4.6449 -2.6133  3.1371
  660MOL0     H87083  -2.075   4.612   7.373  3.6165  1.7011 -0.1231
  660MOL0     H87084  -2.452   4.699   7.283  4.4320 -1.7252  1.9993
  660MOL0     H87085  -2.688   4.702   7.266  0.5585 -1.6294 -1.4558
  660MOL0     H87086  -2.951   4.415   7.514 -0.5352  2.6254  1.2744
  660MOL0     H87087  -2.895   4.371   7.339  3.7241  0.1115  0.9536
  660MOL0     H87088  -3.131   4.389   7.360 -0.6645  1.1823  1.2950
  660MOL0     H87089  -3.056   4.518   7.255 -0.1005  2.2905 -0.3288
  660MOL0     H87090  -3.084   4.686   7.431 -0.8632  0.3430 -1.6374
  660MOL0     H87091  -3.132   4.563   7.555  0.7327  2.8086  0.0130
  660MOL0     H87092  -3.274   4.641   7.291 -0.2877  2.5954  0.6811
  660MOL0     H87093  -3.344   4.523   7.412  0.8280  0.0952 -1.4812
  660MOL0     H87094  -3.257   4.818   7.463  0.8506 -0.2818 -2.7230
  660MOL0     H87095  -3.346   4.727   7.572 -0.9390  0.8520 -0.0569
  660MOL0     H87096  -3.440   4.806   7.294  2.5264  0.9717  0.6693
  660MOL0     H87097  -3.492   4.891   7.439 -3.1963  0.2697 -1.8171
  660MOL0     H87098  -3.677   4.721   7.366 -0.7954 -2.3606  0.3613
  660MOL0     H87099  -3.550   4.601   7.355 -2.0509  0.6772 -1.5823
  660MOL0     H87100  -3.627   4.763   7.610  1.5945  0.0865  0.0443
  660MOL0     H87101  -3.542   4.609   7.601  2.8593  2.4495 -0.0119
  660MOL0     H87102  -2.714   4.360   7.529  1.3945 -1.3553 -1.3688
  660MOL0     H87103  -2.477   4.332   7.512 -1.9190  1.2537  4.1107
  660MOL0     H87104  -2.060   4.177   7.392  0.1593 -0.2966  0.9167
  660MOL0     H87105  -1.819   4.198   7.401  0.2317 -0.0818  0.9720
  660MOL0     H87106  -0.248   5.443   7.776 -2.2719  1.4244  0.0872
  660MOL0     H87107  -0.004   5.484   7.825 -1.9806 -0.9906  1.8204
  660MOL0     H87108   0.314   5.568   8.158 -2.4162  0.1466  0.3478
  660MOL0     H87109   0.547   5.581   8.191 -0.9100 -1.0164 -0.2196
  660MOL0     H87110   0.779   5.596   8.027  2.6057 -0.9255  1.1447
  660MOL0     H87111   0.819   5.654   8.184 -1.3338 -1.3585 -0.0564
  660MOL0     H87112   0.971   5.826   8.116 -0.9783  0.2318 -0.2179
  660MOL0     H87113   1.023   5.667   8.076 -0.1527  0.8986  0.7261
  660MOL0     H87114   0.894   5.857   7.866  0.5143  0.0518 -2.3461
  660MOL0     H87115   0.929   5.682   7.847  0.9742 -0.4987  0.0210
  660MOL0     H87116   1.159   5.721   7.861 -1.6342 -0.6692  2.0164
  660MOL0     H87117   1.087   5.841   7.744 -1.7269 -2.1396 -0.9673
  660MOL0     H87118   1.263   6.116   7.990 -0.4752  0.2509  0.2082
  660MOL0     H87119   0.573   5.878   7.877 -0.5101  0.5228 -0.2761
  660MOL0     H87120   0.327   5.844   7.828 -0.7911  0.1842  1.3281
  661MOL0     O87121   1.163   7.441   4.185  0.1517  0.8366 -0.3949
  661MOL0     C87122   1.246   7.352   4.197 -0.0882 -0.1218  0.0863
  661MOL0     O87123   1.215   7.222   4.195 -0.0301 -0.4164 -0.4578
  661MOL0     C87124   1.099   7.155   4.166 -0.5048 -0.2352  0.2582
  661MOL0     C87125   0.982   7.218   4.120  0.2384  0.6203 -0.0792
  661MOL0     C87126   0.874   7.128   4.114  0.3545  1.0497 -0.1908
  661MOL0     C87127   0.876   6.990   4.141  0.4925 -0.7888 -0.3384
  661MOL0     O87128   0.759   6.927   4.126  0.7006  0.3311  0.5736
  661MOL0     C87129   0.776   6.788   4.132  0.7166 -0.4216  0.1059
  661MOL0     C87130   0.632   6.727   4.108 -0.9501 -0.7620 -0.5093
  661MOL0     C87131   0.523   6.791   4.203 -1.0668  1.0712  0.0342
  661MOL0     C87132   0.390   6.716   4.190  0.4288 -0.2062  0.1171
  661MOL0     C87133   0.277   6.785   4.263  1.1743 -0.4802  0.2560
  661MOL0     C87134   0.145   6.697   4.264 -0.0428  1.3888  0.3353
  661MOL0     C87135   0.019   6.778   4.316  0.5125  0.1451  0.5777
  661MOL0     C87136  -0.110   6.708   4.259  0.1226  1.1171  0.1219
  661MOL0     N87137  -0.236   6.760   4.323 -0.6212  0.9169  0.6866
  661MOL0     C87138  -0.284   6.720   4.448 -0.6016 -0.2999  0.5568
  661MOL0     C87139  -0.387   6.801   4.469  0.1593  0.4778 -0.8665
  661MOL0     C87140  -0.472   6.797   4.606 -0.5464  0.0939 -0.2811
  661MOL0     C87141  -0.623   6.796   4.570 -0.0058  0.2649 -0.5655
  661MOL0     C87142  -0.695   6.926   4.515 -0.1968 -0.0522 -0.2852
  661MOL0     C87143  -0.839   6.916   4.502  0.2275  0.2957  0.5061
  661MOL0     O87144  -0.899   6.860   4.614  0.2576  0.8897 -0.3522
  661MOL0     C87145  -1.035   6.875   4.632  0.5986 -0.3547 -0.2487
  661MOL0     C87146  -1.079   6.832   4.753 -0.0812 -0.5000  0.0077
  661MOL0     C87147  -1.219   6.821   4.775 -0.5844 -0.3336 -0.2810
  661MOL0     C87148  -1.313   6.851   4.676 -0.5336 -0.2262  0.8348
  661MOL0     C87149  -1.454   6.835   4.709  0.0606 -0.2991  0.1550
  661MOL0     O87150  -1.491   6.770   4.825  0.4221 -1.1120  0.3676
  661MOL0     C87151  -1.628   6.757   4.869  0.3299  0.3943  1.0673
  661MOL0     C87152  -1.737   6.845   4.854 -0.4342  1.1396  0.7199
  661MOL0     C87153  -1.864   6.816   4.898  0.4918 -0.5292 -0.5817
  661MOL0     C87154  -1.884   6.706   4.981  1.3891 -0.7683 -0.4208
  661MOL0     O87155  -2.016   6.693   5.038 -0.0341  0.3637  0.5109
  661MOL0     C87156  -2.022   6.729   5.170 -0.4401  0.6670 -0.9248
  661MOL0     C87157  -2.050   6.882   5.188  0.2452  0.3779  0.4969
  661MOL0     C87158  -2.182   6.933   5.146 -0.4496 -0.4266 -0.8966
  661MOL0     C87159  -2.197   7.076   5.195 -0.9073  0.2092 -0.6194
  661MOL0     C87160  -2.319   7.150   5.132 -0.0738  0.4002 -0.4872
  661MOL0     C87161  -2.448   7.094   5.196 -0.1848 -0.3792 -0.0153
  661MOL0     C87162  -2.576   7.175   5.144  0.1653  1.2456 -0.2199
  661MOL0     C87163  -2.706   7.118   5.210 -0.4306  0.4892  0.3097
  661MOL0    Cl87164  -2.721   7.229   5.351  0.1515 -0.2415  0.1340
  661MOL0     C87165  -1.776   6.613   4.999  0.0142 -0.7098  0.0117
  661MOL0     C87166  -1.652   6.644   4.947  0.1907 -0.2524  0.8719
  661MOL0     O87167  -1.528   6.870   4.620 -0.3990  0.3255  0.2096
  661MOL0     C87168  -1.261   6.887   4.550 -0.2808  0.2565 -0.0040
  661MOL0     C87169  -1.124   6.896   4.527 -0.3941 -0.2890 -0.4528
  661MOL0     N87170  -0.413   6.865   4.354  1.0498  0.2164  0.2469
  661MOL0     N87171  -0.314   6.855   4.271 -0.6170  0.4048 -0.1504
  661MOL0     C87172   1.004   6.932   4.173  1.0136 -0.1598 -0.1614
  661MOL0     C87173   1.114   7.020   4.178  0.5299 -0.1590  0.0291
  661MOL0     C87174   1.386   7.388   4.193 -0.0578 -0.4782 -0.6854
  661MOL0     C87175   1.421   7.524   4.204  0.1000  0.3795 -0.0950
  661MOL0     C87176   1.555   7.556   4.191  0.2737  0.1974  0.6228
  661MOL0     C87177   1.654   7.463   4.166  0.7022  0.6342  0.2009
  661MOL0     O87178   1.785   7.505   4.157  0.1094 -0.1673  0.3250
  661MOL0     C87179   1.882   7.412   4.200  0.4054  0.0861  0.3076
  661MOL0     C87180   1.998   7.482   4.258 -0.8135  0.2654  0.2872
  661MOL0     C87181   2.098   7.525   4.147  0.1495  0.7044 -0.4091
  661MOL0     C87182   2.210   7.603   4.205  0.0940  0.8306 -0.4045
  661MOL0     C87183   2.297   7.516   4.284 -0.1076  0.0634 -0.1423
  661MOL0     C87184   2.360   7.430   4.341 -0.7015  1.0342  1.0652
  661MOL0     C87185   1.611   7.325   4.165 -1.0806 -0.3839  1.1006
  661MOL0     C87186   1.484   7.285   4.185  0.2744 -0.6056  0.9418
  661MOL0     H87187   0.975   7.326   4.107  1.7724  0.5904 -1.4904
  661MOL0     H87188   0.777   7.169   4.087  0.3567  0.5413 -1.0073
  661MOL0     H87189   0.810   6.771   4.235  0.9333  1.3036  0.3535
  661MOL0     H87190   0.839   6.741   4.056  0.1964 -1.0026  0.0237
  661MOL0     H87191   0.639   6.622   4.137  0.1757 -0.9020 -1.2469
  661MOL0     H87192   0.601   6.738   4.004  1.6049  1.8518 -1.1113
  661MOL0     H87193   0.512   6.893   4.166  0.7576  0.4550 -2.4974
  661MOL0     H87194   0.553   6.798   4.308 -2.2597  3.1214  0.2763
  661MOL0     H87195   0.367   6.689   4.087  1.6099 -0.1669 -0.1797
  661MOL0     H87196   0.395   6.623   4.248 -2.3304  1.5427  3.5490
  661MOL0     H87197   0.251   6.883   4.221 -0.7188 -1.2476 -0.4685
  661MOL0     H87198   0.311   6.800   4.366 -1.3469 -3.6308  1.7139
  661MOL0     H87199   0.157   6.610   4.330 -0.1360  0.8040 -0.4123
  661MOL0     H87200   0.132   6.660   4.162 -2.7828  0.0605  1.0829
  661MOL0     H87201   0.019   6.769   4.425  0.5588 -0.0841  0.5591
  661MOL0     H87202   0.023   6.883   4.287  0.5031  0.6145  2.1769
  661MOL0     H87203  -0.103   6.600   4.277  3.6000  0.7163 -2.4648
  661MOL0     H87204  -0.119   6.719   4.150  0.0751 -3.1050 -0.4704
  661MOL0     H87205  -0.225   6.662   4.519  2.3994  1.3855 -0.3927
  661MOL0     H87206  -0.452   6.882   4.673  1.8561  0.4938 -1.3824
  661MOL0     H87207  -0.443   6.712   4.668  3.7743  1.9030  0.5475
  661MOL0     H87208  -0.676   6.771   4.662  2.2498  2.5523  1.5284
  661MOL0     H87209  -0.650   6.716   4.500  0.0458  1.2084 -1.6836
  661MOL0     H87210  -0.664   7.002   4.587 -0.6550 -0.3348  0.2141
  661MOL0     H87211  -0.657   6.956   4.417 -0.4835 -0.2663 -0.4645
  661MOL0     H87212  -0.868   6.849   4.421 -1.0328 -0.6476  1.6800
  661MOL0     H87213  -0.872   7.019   4.488 -1.9882 -0.3798  0.2983
  661MOL0     H87214  -1.000   6.804   4.823  1.8522  2.1854 -0.9183
  661MOL0     H87215  -1.254   6.782   4.870  2.7186 -3.3185 -0.0883
  661MOL0     H87216  -1.726   6.920   4.776  0.4163  0.9879  0.6782
  661MOL0     H87217  -1.949   6.883   4.885  1.3162  0.9681  1.3084
  661MOL0     H87218  -1.932   6.703   5.227  1.5126  2.3496 -3.0417
  661MOL0     H87219  -2.106   6.668   5.206 -1.9763  2.0317 -2.0684
  661MOL0     H87220  -1.974   6.945   5.141 -0.2298  0.1530 -0.6146
  661MOL0     H87221  -2.033   6.915   5.291  3.3209  0.5330  0.0257
  661MOL0     H87222  -2.263   6.868   5.180 -1.5497  0.9390 -0.8202
  661MOL0     H87223  -2.189   6.928   5.037  0.3842  4.9402 -1.4841
  661MOL0     H87224  -2.195   7.089   5.304  1.1789  0.9436 -0.6917
  661MOL0     H87225  -2.107   7.123   5.155 -0.6801 -1.0155 -1.6011
  661MOL0     H87226  -2.313   7.168   5.024 -2.6300  5.2165 -0.1487
  661MOL0     H87227  -2.313   7.252   5.171 -1.6690  0.5314 -0.5088
  661MOL0     H87228  -2.450   7.109   5.305 -0.2351  3.0421 -0.3697
  661MOL0     H87229  -2.454   6.990   5.165 -1.7168  0.4470 -2.8689
  661MOL0     H87230  -2.570   7.284   5.147  2.5231  1.1965 -0.6660
  661MOL0     H87231  -2.590   7.149   5.039  1.8415 -1.2453  0.0877
  661MOL0     H87232  -2.696   7.013   5.238  4.4938  0.8813  0.8621
  661MOL0     H87233  -2.793   7.134   5.145  1.8037  0.9789 -2.7710
  661MOL0     H87234  -1.782   6.523   5.060  0.5803 -1.8853 -1.5941
  661MOL0     H87235  -1.573   6.569   4.948  1.0943  0.5818 -1.2513
  661MOL0     H87236  -1.320   6.922   4.466 -0.8704 -1.6409 -0.4422
  661MOL0     H87237  -1.096   6.926   4.427 -0.0020  0.4065 -0.1385
  661MOL0     H87238   1.019   6.826   4.192  1.9188  0.1500  0.9259
  661MOL0     H87239   1.209   6.974   4.204 -0.9954 -4.2315 -0.9488
  661MOL0     H87240   1.344   7.599   4.220 -0.2285  0.0762 -0.2728
  661MOL0     H87241   1.587   7.660   4.192  1.2049 -0.0476 -0.9873
  661MOL0     H87242   1.911   7.350   4.114  1.1925 -1.2031  1.4722
  661MOL0     H87243   1.838   7.352   4.281  2.0427 -1.4414  0.1201
  661MOL0     H87244   1.969   7.555   4.334 -0.0561 -0.6891  1.5476
  661MOL0     H87245   2.047   7.404   4.317 -1.8128 -0.1510  0.5814
  661MOL0     H87246   2.052   7.604   4.087 -1.8777 -0.4565 -0.4923
  661MOL0     H87247   2.129   7.436   4.093 -2.7700 -2.0160  1.9456
  661MOL0     H87248   2.275   7.642   4.126  3.7649 -0.5227  1.6721
  661MOL0     H87249   2.178   7.691   4.262 -1.5281  0.4425 -0.6719
  661MOL0     H87250   2.418   7.354   4.390 -0.2092  0.6340 -0.1095
  661MOL0     H87251   1.689   7.255   4.138 -0.2492  0.3338  1.6028
  661MOL0     H87252   1.467   7.178   4.183  0.8107 -0.6962  0.8298
  662MOL0     O87253   6.454   6.287   9.874 -0.2974 -0.2802 -1.6123
  662MOL0     C87254   6.509   6.395   9.903 -0.0523  0.4645  0.5733
  662MOL0     O87255   6.446   6.515   9.909 -0.0701 -0.0230 -0.6134
  662MOL0     C87256   6.323   6.519   9.858  0.5537 -0.8593  0.6361
  662MOL0     C87257   6.287   6.477   9.729 -0.9125  0.3444  1.0122
  662MOL0     C87258   6.152   6.490   9.686 -0.7892  0.2201 -0.0241
  662MOL0     C87259   6.056   6.537   9.777 -0.3876  0.0511 -0.4077
  662MOL0     O87260   5.924   6.562   9.742  0.1865 -0.1727 -0.2279
  662MOL0     C87261   5.862   6.506   9.626 -0.2037  0.1237 -0.7336
  662MOL0     C87262   5.719   6.575   9.614 -0.2355 -0.8486  0.5544
  662MOL0     C87263   5.649   6.517   9.489  0.6420 -0.5062 -0.1860
  662MOL0     C87264   5.509   6.582   9.472 -0.1837 -0.3500  0.4606
  662MOL0     C87265   5.447   6.525   9.347  0.0322  1.1556  0.1467
  662MOL0     C87266   5.308   6.590   9.318 -0.3379  0.1892 -0.2347
  662MOL0     C87267   5.232   6.516   9.214 -0.0539  0.1457  0.7686
  662MOL0     C87268   5.115   6.591   9.155 -0.4880  0.1431 -0.5101
  662MOL0     N87269   5.029   6.643   9.263  0.3545  0.1533  0.0882
  662MOL0     C87270   4.940   6.563   9.332 -0.0025 -1.0379  0.2862
  662MOL0     C87271   4.866   6.653   9.402  0.3254  0.2010  0.1211
  662MOL0     C87272   4.744   6.617   9.476  0.2988  0.9122  0.2773
  662MOL0     C87273   4.627   6.624   9.376  0.4803 -0.3846  0.7618
  662MOL0     C87274   4.493   6.589   9.445  0.6748 -0.0193  0.4731
  662MOL0     C87275   4.373   6.628   9.363  0.0802 -0.3421  0.1455
  662MOL0     O87276   4.259   6.585   9.432  0.9154  0.1119  0.2090
  662MOL0     C87277   4.139   6.582   9.362  0.0174 -0.0139 -0.2992
  662MOL0     C87278   4.119   6.641   9.238  0.0295  0.9724 -1.0484
  662MOL0     C87279   4.002   6.650   9.173  0.2931  1.0117 -0.0674
  662MOL0     C87280   3.888   6.569   9.228  0.6269 -0.8226  0.6268
  662MOL0     C87281   3.752   6.577   9.173 -0.6297  0.2840  0.2610
  662MOL0     O87282   3.664   6.477   9.207 -0.0418 -0.1779  0.1003
  662MOL0     C87283   3.528   6.483   9.194 -0.1115 -0.1012  1.3551
  662MOL0     C87284   3.445   6.368   9.182  0.1037 -0.2406 -0.2489
  662MOL0     C87285   3.306   6.365   9.188 -0.1182 -0.7945  1.3486
  662MOL0     C87286   3.239   6.487   9.187 -0.1028 -0.2235 -0.1134
  662MOL0     O87287   3.103   6.498   9.187 -0.2035 -0.3463  0.7077
  662MOL0     C87288   3.027   6.381   9.219  0.4460 -1.4636 -0.1102
  662MOL0     C87289   2.880   6.416   9.208  0.0696 -0.2330  0.4425
  662MOL0     C87290   2.835   6.481   9.071 -0.5480  0.4988  0.1426
  662MOL0     C87291   2.683   6.491   9.073  0.7256  0.3842 -0.0230
  662MOL0     C87292   2.625   6.601   9.175  0.3488  0.4592 -0.1145
  662MOL0     C87293   2.473   6.632   9.159  0.1563 -0.2225  0.4180
  662MOL0     C87294   2.434   6.736   9.265 -0.4923 -0.0278 -0.2424
  662MOL0     C87295   2.280   6.743   9.284 -0.1635  0.3853 -0.0896
  662MOL0    Cl87296   2.196   6.589   9.253  0.2651 -0.1302  0.2534
  662MOL0     C87297   3.314   6.609   9.199 -0.6506 -0.0520 -0.6725
  662MOL0     C87298   3.456   6.602   9.201 -1.0857  0.4692  0.5680
  662MOL0     O87299   3.731   6.672   9.091 -0.0691  0.9922 -0.3850
  662MOL0     C87300   3.914   6.497   9.340  0.4071 -0.6262  0.1811
  662MOL0     C87301   4.033   6.498   9.406 -0.1225  0.6395 -0.9262
  662MOL0     N87302   4.913   6.781   9.367 -0.0302 -0.0312 -0.3122
  662MOL0     N87303   5.012   6.774   9.283 -0.6206 -0.7903 -0.2119
  662MOL0     C87304   6.095   6.590   9.900  0.6093  0.1603 -0.0695
  662MOL0     C87305   6.225   6.592   9.936  0.1427  0.2542 -0.3654
  662MOL0     C87306   6.649   6.401   9.943 -0.5372  0.2975  0.0982
  662MOL0     C87307   6.719   6.279   9.967 -0.8002 -0.7855 -0.2913
  662MOL0     C87308   6.854   6.285  10.001  0.0508 -0.4493 -0.1806
  662MOL0     C87309   6.927   6.405  10.000 -0.2820  0.3131  0.5118
  662MOL0     O87310   7.066   6.402   9.996 -0.0120  0.2386 -0.4032
  662MOL0     C87311   7.143   6.289  10.040  0.7353  1.0509 -0.5566
  662MOL0     C87312   7.291   6.317  10.047 -0.3912  0.0747  0.1068
  662MOL0     C87313   7.335   6.402   9.933  0.1042 -0.2112  0.4927
  662MOL0     C87314   7.491   6.424   9.937  0.1508  0.1090 -0.1366
  662MOL0     C87315   7.534   6.544   9.864 -0.1244  0.3915  0.7965
  662MOL0     C87316   7.574   6.643   9.800  0.4674 -0.0829 -0.8551
  662MOL0     C87317   6.857   6.525   9.969 -0.0012 -0.7267  0.9970
  662MOL0     C87318   6.723   6.521   9.950  0.2134 -0.6191  0.1469
  662MOL0     H87319   6.366   6.439   9.664 -0.8877 -1.6437  2.1211
  662MOL0     H87320   6.142   6.457   9.583  1.5016 -0.8113  0.0341
  662MOL0     H87321   5.852   6.398   9.640  1.1832 -0.0305 -0.7600
  662MOL0     H87322   5.918   6.525   9.535  0.7666 -2.3603 -0.7440
  662MOL0     H87323   5.740   6.682   9.605  1.6359 -1.0210  2.1754
  662MOL0     H87324   5.660   6.564   9.705 -0.0400  1.4481  1.0258
  662MOL0     H87325   5.636   6.409   9.497 -1.3189 -0.1303  4.1921
  662MOL0     H87326   5.702   6.542   9.396 -0.6627  0.2881 -0.7447
  662MOL0     H87327   5.440   6.561   9.554  0.7223 -0.1352  1.3087
  662MOL0     H87328   5.512   6.691   9.471 -2.1707 -0.2557  1.0056
  662MOL0     H87329   5.423   6.419   9.360 -0.5228  1.3405  0.7008
  662MOL0     H87330   5.507   6.529   9.256 -2.8517 -1.1390 -2.0454
  662MOL0     H87331   5.324   6.694   9.288  3.1518 -0.2491 -0.3223
  662MOL0     H87332   5.248   6.583   9.410  1.6476 -3.5919  0.9872
  662MOL0     H87333   5.290   6.481   9.128 -4.3347 -0.3716 -2.2299
  662MOL0     H87334   5.199   6.426   9.266  1.9572  0.2858  2.4187
  662MOL0     H87335   5.066   6.516   9.093  1.6677 -0.5113 -1.4951
  662MOL0     H87336   5.146   6.674   9.091  1.2075  0.1913  0.3256
  662MOL0     H87337   4.931   6.455   9.334  0.6810 -1.0963  0.2953
  662MOL0     H87338   4.729   6.697   9.549  0.5846 -0.8393  2.3584
  662MOL0     H87339   4.753   6.522   9.531 -2.5094 -1.9868 -3.7213
  662MOL0     H87340   4.648   6.558   9.291  3.0165  0.7637  0.4013
  662MOL0     H87341   4.616   6.728   9.344  2.4504 -0.2051  0.5043
  662MOL0     H87342   4.484   6.480   9.453 -1.1013  0.2113  2.3711
  662MOL0     H87343   4.479   6.636   9.542 -1.6174  1.3617 -0.4627
  662MOL0     H87344   4.376   6.591   9.260  1.8964  2.7459 -1.0326
  662MOL0     H87345   4.363   6.736   9.347  0.5552 -0.5380 -1.7766
  662MOL0     H87346   4.200   6.691   9.185 -0.0521  0.0264 -2.0966
  662MOL0     H87347   4.001   6.711   9.083  1.7602  1.8341  0.4461
  662MOL0     H87348   3.495   6.272   9.184  1.6864  0.5328  1.6813
  662MOL0     H87349   3.259   6.267   9.185  0.2572 -0.9643  0.7773
  662MOL0     H87350   3.042   6.357   9.325 -1.1280  2.3160  1.1799
  662MOL0     H87351   3.051   6.299   9.152  2.4487  0.5760 -2.0774
  662MOL0     H87352   2.858   6.488   9.287 -1.9570 -2.5400  2.1586
  662MOL0     H87353   2.821   6.325   9.225 -2.7174  1.2697 -0.6307
  662MOL0     H87354   2.864   6.408   8.994 -1.0097 -1.0843  1.4275
  662MOL0     H87355   2.883   6.574   9.041 -0.5290  0.8667  1.2929
  662MOL0     H87356   2.653   6.518   8.972  1.1628  2.0869  0.2751
  662MOL0     H87357   2.630   6.402   9.106  0.9745  0.7893  1.5670
  662MOL0     H87358   2.685   6.687   9.144  1.0187  0.2063  0.4652
  662MOL0     H87359   2.646   6.571   9.278  0.8194  0.0259 -0.3347
  662MOL0     H87360   2.418   6.538   9.171 -0.1807  0.2441  3.3771
  662MOL0     H87361   2.450   6.684   9.066 -2.2404  2.3993  2.3236
  662MOL0     H87362   2.477   6.711   9.362  0.9506  1.6108 -0.3997
  662MOL0     H87363   2.480   6.831   9.235 -0.6694 -0.6551 -2.6868
  662MOL0     H87364   2.231   6.824   9.230 -2.0405  1.0580  2.4706
  662MOL0     H87365   2.274   6.763   9.391 -2.7805  0.1369 -0.1379
  662MOL0     H87366   3.263   6.704   9.213  0.7977  1.1356 -2.9336
  662MOL0     H87367   3.519   6.690   9.211  1.6281 -1.3111  0.0158
  662MOL0     H87368   3.846   6.427   9.389  2.1299 -2.7044 -0.2305
  662MOL0     H87369   4.037   6.449   9.503 -1.1921  0.7474 -0.8173
  662MOL0     H87370   6.023   6.643   9.962  0.6977 -0.3041  0.4398
  662MOL0     H87371   6.270   6.633  10.026  0.1219  0.7130 -0.5659
  662MOL0     H87372   6.673   6.181   9.955  1.4803 -1.7388 -1.8780
  662MOL0     H87373   6.891   6.187  10.032 -1.0479 -1.0333 -0.6595
  662MOL0     H87374   7.119   6.199   9.982 -0.6520  1.5744 -0.8405
  662MOL0     H87375   7.101   6.265  10.137 -1.1826  1.6454 -1.1924
  662MOL0     H87376   7.314   6.372  10.139  3.8181  4.2558 -3.0042
  662MOL0     H87377   7.350   6.225  10.038 -0.4699  0.1777 -1.7481
  662MOL0     H87378   7.283   6.497   9.942  0.5453  0.6828 -4.0331
  662MOL0     H87379   7.312   6.363   9.834  0.6118 -3.6611  1.5943
  662MOL0     H87380   7.525   6.436  10.040  0.0727 -1.9894  0.1798
  662MOL0     H87381   7.532   6.328   9.904 -0.1014  0.5203 -1.7220
  662MOL0     H87382   7.615   6.723   9.741 -0.0905  1.5371  0.8792
  662MOL0     H87383   6.924   6.609   9.957  2.6471 -2.5887  1.6536
  662MOL0     H87384   6.697   6.624   9.928  4.4906  1.0632  1.8463
  663MOL0     O87385   8.577   3.320   2.349 -0.5913  0.1317  0.4461
  663MOL0     C87386   8.588   3.198   2.349 -0.3557  0.6952 -0.3090
  663MOL0     O87387   8.489   3.114   2.315 -0.1321 -0.1731  0.6545
  663MOL0     C87388   8.366   3.167   2.283 -0.1196  0.1999  0.0255
  663MOL0     C87389   8.337   3.279   2.194  0.3397 -0.0450  0.4680
  663MOL0     C87390   8.203   3.316   2.166  0.9514 -0.4220 -0.4790
  663MOL0     C87391   8.097   3.252   2.227  0.7985 -0.1424 -0.4040
  663MOL0     O87392   7.969   3.295   2.191 -0.2814  0.0724 -0.6539
  663MOL0     C87393   7.867   3.194   2.190  0.6065 -0.1360  0.4523
  663MOL0     C87394   7.757   3.246   2.107  0.6926  0.3032  0.5334
  663MOL0     C87395   7.696   3.373   2.161  0.2618 -0.2401  0.7348
  663MOL0     C87396   7.579   3.420   2.070 -0.6086  0.2405  0.7489
  663MOL0     C87397   7.496   3.520   2.142 -1.0376 -0.0095 -0.2893
  663MOL0     C87398   7.389   3.586   2.051  0.6967  0.5166 -0.0978
  663MOL0     C87399   7.320   3.709   2.118 -1.0708  0.0797  0.2750
  663MOL0     C87400   7.175   3.669   2.175 -0.2402  0.2432  0.1127
  663MOL0     N87401   7.089   3.783   2.211  0.2223 -0.0885  1.1539
  663MOL0     C87402   7.031   3.876   2.130 -0.6666 -0.0621  0.7651
  663MOL0     C87403   7.000   3.979   2.206  0.4513 -1.0033 -0.5203
  663MOL0     C87404   6.932   4.107   2.157 -0.9750  0.0903  0.0592
  663MOL0     C87405   6.786   4.083   2.124  1.2333 -0.7391 -0.3868
  663MOL0     C87406   6.724   4.209   2.062  0.3827  0.5052 -0.5163
  663MOL0     C87407   6.586   4.178   2.007 -0.4446 -0.2535 -0.7507
  663MOL0     O87408   6.497   4.137   2.109  0.3306 -0.4929 -0.6280
  663MOL0     C87409   6.362   4.143   2.080 -0.7648 -0.2960 -0.6460
  663MOL0     C87410   6.278   4.119   2.191 -0.4631  0.4051 -0.0667
  663MOL0     C87411   6.140   4.103   2.169  0.2147 -0.4204 -0.7134
  663MOL0     C87412   6.082   4.124   2.037  0.5502 -0.7785 -0.4197
  663MOL0     C87413   5.937   4.120   2.008 -0.3628  0.5752  0.1741
  663MOL0     O87414   5.903   4.139   1.874  0.4615 -0.4616  0.1492
  663MOL0     C87415   5.773   4.141   1.820 -0.4149 -0.7621  0.4152
  663MOL0     C87416   5.663   4.087   1.887  1.0798 -0.6288 -0.6309
  663MOL0     C87417   5.537   4.088   1.831  0.2480  0.1477 -0.1235
  663MOL0     C87418   5.519   4.147   1.702  0.5468 -0.3661  0.0213
  663MOL0     O87419   5.400   4.171   1.636 -0.1103  0.3786  0.4166
  663MOL0     C87420   5.278   4.169   1.706  0.3688 -0.6478 -0.5574
  663MOL0     C87421   5.180   4.205   1.590 -0.8074  0.7853 -0.0125
  663MOL0     C87422   5.165   4.346   1.525 -0.1347 -0.3137  0.1462
  663MOL0     C87423   5.103   4.445   1.618 -1.3455  0.3487 -0.0320
  663MOL0     C87424   5.013   4.557   1.568  0.4120  0.6926  0.0904
  663MOL0     C87425   4.948   4.644   1.682  0.6557  0.1795 -0.5115
  663MOL0     C87426   4.829   4.717   1.629  0.9397  0.2875 -0.6345
  663MOL0     C87427   4.777   4.810   1.729  0.2775 -0.3723  0.0013
  663MOL0    Cl87428   4.682   4.951   1.659 -0.6056  0.4446  0.2554
  663MOL0     C87429   5.628   4.193   1.635  0.1761  0.1421  0.5689
  663MOL0     C87430   5.754   4.193   1.694 -0.0599  0.2922 -0.0623
  663MOL0     O87431   5.865   4.078   2.099  0.3558  0.1153 -0.4759
  663MOL0     C87432   6.165   4.157   1.933 -1.5007  0.5039  0.9464
  663MOL0     C87433   6.302   4.162   1.954  0.2161  0.0022  0.2515
  663MOL0     N87434   7.032   3.956   2.334 -0.1960  0.3095 -0.3511
  663MOL0     N87435   7.082   3.835   2.332  0.2839 -0.6427 -0.4262
  663MOL0     C87436   8.126   3.148   2.306 -1.1216  0.0379 -0.5188
  663MOL0     C87437   8.253   3.106   2.337  0.1072  1.1709 -0.6693
  663MOL0     C87438   8.721   3.127   2.366  0.0601 -1.0357 -0.4306
  663MOL0     C87439   8.745   2.996   2.328 -1.1044  0.8943 -0.7157
  663MOL0     C87440   8.871   2.936   2.338  0.0632 -0.1515  0.3918
  663MOL0     C87441   8.983   3.002   2.391  0.0310 -0.5937 -0.0431
  663MOL0     O87442   9.106   2.955   2.402 -0.1862  0.0691  0.2107
  663MOL0     C87443   9.124   2.812   2.396 -0.3857  0.7947 -0.1871
  663MOL0     C87444   9.258   2.766   2.460  0.0119  0.5557  0.4936
  663MOL0     C87445   9.254   2.798   2.611  0.4922  1.0719 -0.8079
  663MOL0     C87446   9.377   2.728   2.685  0.2524  0.0153 -0.0970
  663MOL0     C87447   9.351   2.769   2.829  0.1035 -0.6396  0.6334
  663MOL0     C87448   9.332   2.803   2.940 -0.2243  0.4661  0.4136
  663MOL0     C87449   8.962   3.135   2.432 -0.3513 -0.3959 -0.1824
  663MOL0     C87450   8.833   3.198   2.423  0.5469 -0.3573  0.2288
  663MOL0     H87451   8.417   3.338   2.150  0.0734 -1.5508 -2.2200
  663MOL0     H87452   8.168   3.402   2.110  0.2605 -0.5372 -0.2319
  663MOL0     H87453   7.819   3.174   2.286 -2.5876  1.8497 -0.5831
  663MOL0     H87454   7.896   3.096   2.151  1.1216  0.9989 -2.1953
  663MOL0     H87455   7.675   3.174   2.100  1.4098 -0.4558 -0.1503
  663MOL0     H87456   7.799   3.274   2.010  0.7379 -0.8987  0.1987
  663MOL0     H87457   7.767   3.453   2.180  1.2494 -1.2172  1.3271
  663MOL0     H87458   7.640   3.354   2.253 -2.2527  2.8719  0.0083
  663MOL0     H87459   7.617   3.450   1.972 -3.2713 -1.8514 -1.0698
  663MOL0     H87460   7.521   3.334   2.035 -0.3113  1.5461 -3.6654
  663MOL0     H87461   7.564   3.592   2.188 -1.8867 -1.4807  3.6739
  663MOL0     H87462   7.444   3.467   2.222  0.2260 -1.1588 -0.1842
  663MOL0     H87463   7.317   3.509   2.024  2.2638 -1.0866  0.0814
  663MOL0     H87464   7.439   3.626   1.962 -1.1241  1.0501 -0.9176
  663MOL0     H87465   7.383   3.748   2.199  0.4044  0.7690 -1.1532
  663MOL0     H87466   7.311   3.788   2.044  1.0867  0.7915  0.6939
  663MOL0     H87467   7.189   3.609   2.266  0.2085 -2.2184 -1.4839
  663MOL0     H87468   7.135   3.605   2.096  0.5478  1.2989 -1.1751
  663MOL0     H87469   7.018   3.865   2.023  0.7992 -1.8663  0.7265
  663MOL0     H87470   6.994   4.137   2.071  1.5557 -0.7196  1.4959
  663MOL0     H87471   6.940   4.189   2.228  0.3057  2.0348 -2.1699
  663MOL0     H87472   6.737   4.057   2.219  0.3316 -0.0649 -0.6482
  663MOL0     H87473   6.778   3.998   2.057  2.0222  0.0133 -1.4586
  663MOL0     H87474   6.717   4.284   2.141  1.5877 -0.7464  0.8258
  663MOL0     H87475   6.785   4.255   1.983 -0.9718 -0.0170 -1.9273
  663MOL0     H87476   6.604   4.098   1.934  4.6254 -1.7576  1.6542
  663MOL0     H87477   6.552   4.269   1.958 -3.3040 -1.3663 -1.0459
  663MOL0     H87478   6.323   4.093   2.286  0.3580  2.2300  0.0879
  663MOL0     H87479   6.077   4.068   2.249 -0.2410 -0.8531 -1.2518
  663MOL0     H87480   5.668   4.044   1.986 -1.4681 -2.2983 -1.1412
  663MOL0     H87481   5.449   4.046   1.878 -1.3441  1.3931 -1.8699
  663MOL0     H87482   5.275   4.249   1.780 -2.1178 -1.9215  0.8186
  663MOL0     H87483   5.265   4.071   1.752  2.0193 -1.1137 -1.0171
  663MOL0     H87484   5.085   4.173   1.634 -0.1420  0.8923  1.5872
  663MOL0     H87485   5.203   4.135   1.509  1.8512 -3.1820  3.6905
  663MOL0     H87486   5.100   4.333   1.437  0.8235 -1.3377 -0.4399
  663MOL0     H87487   5.256   4.385   1.480  0.6099  1.0135  2.6119
  663MOL0     H87488   5.054   4.383   1.694 -2.7854  0.3716 -0.9061
  663MOL0     H87489   5.180   4.498   1.675 -2.9349  0.1622  2.4428
  663MOL0     H87490   4.934   4.512   1.508  2.4862 -0.4857 -1.8813
  663MOL0     H87491   5.076   4.620   1.505 -0.3300  0.9785 -0.3781
  663MOL0     H87492   5.027   4.706   1.726  3.1850 -3.4723  0.6487
  663MOL0     H87493   4.911   4.580   1.763 -0.6807  0.2300 -1.0610
  663MOL0     H87494   4.843   4.770   1.534  2.1220 -2.3467 -2.0361
  663MOL0     H87495   4.754   4.641   1.604  2.1703 -0.2641 -3.0045
  663MOL0     H87496   4.849   4.842   1.805 -1.5918  2.0775  0.8529
  663MOL0     H87497   4.704   4.748   1.782 -3.0450  1.8556 -1.6409
  663MOL0     H87498   5.615   4.223   1.531  3.2828  1.3303  0.4320
  663MOL0     H87499   5.847   4.217   1.643  1.2915 -0.8575  1.7194
  663MOL0     H87500   6.128   4.192   1.837 -0.1597  1.3929  0.7377
  663MOL0     H87501   6.357   4.197   1.868 -1.3794  0.1295 -0.7513
  663MOL0     H87502   8.049   3.096   2.362  0.9133 -2.4938  0.1404
  663MOL0     H87503   8.267   3.016   2.396 -2.2547 -1.3292 -3.6003
  663MOL0     H87504   8.668   2.931   2.289  2.3920 -2.9548 -1.9177
  663MOL0     H87505   8.877   2.833   2.305 -0.7542  0.4676 -1.8112
  663MOL0     H87506   9.113   2.786   2.290  0.0457  1.2102 -0.3349
  663MOL0     H87507   9.044   2.778   2.462 -0.2046 -1.2588 -0.9654
  663MOL0     H87508   9.272   2.660   2.442  1.6539  0.6634  1.0370
  663MOL0     H87509   9.341   2.816   2.409  0.2937 -0.2664  0.1335
  663MOL0     H87510   9.162   2.755   2.649  1.4977  0.6662  1.3005
  663MOL0     H87511   9.245   2.906   2.631  2.2442  0.8338  1.6477
  663MOL0     H87512   9.372   2.619   2.673 -2.6838 -0.4636  3.6775
  663MOL0     H87513   9.479   2.755   2.653  1.6369 -3.1811  1.1422
  663MOL0     H87514   9.296   2.826   3.038  1.4465 -3.3023  2.1132
  663MOL0     H87515   9.043   3.179   2.490  0.0847 -0.5669 -0.6588
  663MOL0     H87516   8.810   3.301   2.449  1.7318 -0.4086  1.6000
  664MOL0     O87517   9.887   8.766  10.782  0.1970  0.5820 -0.1601
  664MOL0     C87518   9.967   8.675  10.812 -0.2281  0.2746 -0.2303
  664MOL0     O87519   9.935   8.545  10.843 -0.9758  0.1172 -0.4723
  664MOL0     C87520   9.819   8.491  10.886 -0.3197 -0.6633  1.0030
  664MOL0     C87521   9.796   8.362  10.851  0.1820  0.6730 -0.0398
  664MOL0     C87522   9.685   8.289  10.902 -1.1215 -0.4289 -0.2306
  664MOL0     C87523   9.595   8.361  10.983  0.5036  0.0021  0.8511
  664MOL0     O87524   9.486   8.279  11.015 -0.0123 -0.5007  0.0820
  664MOL0     C87525   9.383   8.327  11.104  0.0232 -0.1632 -1.5688
  664MOL0     C87526   9.271   8.225  11.109  0.4775  0.5139  0.3277
  664MOL0     C87527   9.156   8.277  11.181  0.1171 -0.3493 -0.6544
  664MOL0     C87528   9.037   8.178  11.183  0.1700  0.1392 -0.3529
  664MOL0     C87529   8.911   8.234  11.261 -0.6927 -0.5735 -0.5054
  664MOL0     C87530   8.916   8.219  11.416 -0.2724 -0.2974  0.0790
  664MOL0     C87531   8.783   8.257  11.487 -0.2908 -0.0371 -0.8717
  664MOL0     C87532   8.684   8.149  11.479  1.2800  1.1872 -0.5838
  664MOL0     N87533   8.539   8.183  11.501 -0.0591  0.4382  0.1374
  664MOL0     C87534   8.440   8.104  11.447 -0.7448 -0.7012 -0.4848
  664MOL0     C87535   8.329   8.175  11.470 -0.1441 -0.4621  0.3884
  664MOL0     C87536   8.192   8.122  11.447  1.1170 -0.2664  0.6133
  664MOL0     C87537   8.082   8.147  11.558 -0.2259  0.5329  0.2710
  664MOL0     C87538   7.960   8.067  11.550  0.3250 -0.2775  0.6839
  664MOL0     C87539   7.898   8.066  11.406  1.4338 -0.6685  0.2300
  664MOL0     O87540   7.763   8.021  11.393  0.7714  0.0275  0.5961
  664MOL0     C87541   7.658   8.110  11.436 -0.1224  0.5111 -1.1365
  664MOL0     C87542   7.672   8.239  11.487 -1.3545  0.5405  0.5130
  664MOL0     C87543   7.558   8.315  11.521 -0.1865 -0.0529 -0.0288
  664MOL0     C87544   7.432   8.258  11.518  0.0811  0.1580  0.1631
  664MOL0     C87545   7.320   8.334  11.569 -0.4121  0.5362 -0.0730
  664MOL0     O87546   7.201   8.272  11.564  0.1027  0.0613  0.7612
  664MOL0     C87547   7.086   8.338  11.602  0.3107  0.6211  0.1217
  664MOL0     C87548   7.044   8.369  11.736 -0.5188 -0.0972 -0.2133
  664MOL0     C87549   6.933   8.442  11.762 -0.5060  0.9424  0.3269
  664MOL0     C87550   6.848   8.481  11.660 -0.6712 -0.7132 -0.0033
  664MOL0     O87551   6.732   8.554  11.673 -0.3127  0.2810 -0.9294
  664MOL0     C87552   6.705   8.613  11.795 -0.1293  0.0228 -0.3661
  664MOL0     C87553   6.585   8.702  11.784  0.2682 -0.6453 -0.2345
  664MOL0     C87554   6.458   8.627  11.821 -0.2141  0.4233  0.0687
  664MOL0     C87555   6.332   8.690  11.762  0.0792 -0.3022 -0.3326
  664MOL0     C87556   6.204   8.625  11.809  0.0749 -0.2987 -0.3535
  664MOL0     C87557   6.080   8.708  11.770  0.6105 -0.7472  0.2876
  664MOL0     C87558   5.949   8.648  11.822  0.3633 -1.6320  0.6168
  664MOL0     C87559   5.908   8.714  11.951 -0.4610  0.3121 -0.8198
  664MOL0    Cl87560   5.767   8.631  12.023  0.2369  0.0229 -0.3724
  664MOL0     C87561   6.883   8.450  11.524  0.3427 -0.6065 -0.0959
  664MOL0     C87562   6.993   8.378  11.498  0.0014  0.7735  0.3721
  664MOL0     O87563   7.339   8.448  11.619  0.1760 -0.2551  0.1467
  664MOL0     C87564   7.411   8.134  11.460 -0.0738  0.8796  0.7339
  664MOL0     C87565   7.530   8.063  11.416 -0.0551 -0.5937  0.2412
  664MOL0     N87566   8.371   8.291  11.538 -0.3563 -0.1735 -0.2827
  664MOL0     N87567   8.497   8.299  11.546  0.6321  0.6440  0.3281
  664MOL0     C87568   9.618   8.490  11.023  0.2312 -0.2116 -1.1622
  664MOL0     C87569   9.726   8.556  10.970 -0.9003  0.0787 -0.7426
  664MOL0     C87570  10.111   8.703  10.824  0.4881  0.1794 -0.4594
  664MOL0     C87571  10.200   8.601  10.843 -0.0386  0.4896  0.1324
  664MOL0     C87572  10.335   8.631  10.867 -0.0809 -1.2586  0.7824
  664MOL0     C87573  10.378   8.768  10.874  1.7865  0.4912  0.4425
  664MOL0     O87574  10.510   8.785  10.905  0.6001  0.1878 -0.6020
  664MOL0     C87575  10.564   8.912  10.891  0.2568 -0.2735 -0.8519
  664MOL0     C87576  10.718   8.897  10.915  1.2668 -0.1508  0.0534
  664MOL0     C87577  10.791   9.031  10.910  0.1829  0.6295  0.9271
  664MOL0     C87578  10.941   9.007  10.879 -0.5244  0.0091  0.4314
  664MOL0     C87579  11.012   8.935  10.985 -0.4319 -0.4435 -0.0129
  664MOL0     C87580  11.063   8.873  11.077 -0.2618  0.1954  0.5820
  664MOL0     C87581  10.283   8.873  10.863  0.8826 -0.1532  0.2013
  664MOL0     C87582  10.151   8.836  10.826  0.0458 -0.2213 -0.1357
  664MOL0     H87583   9.853   8.313  10.773 -1.0370 -0.0539 -0.5014
  664MOL0     H87584   9.671   8.185  10.873  1.9610 -1.1685  0.5995
  664MOL0     H87585   9.346   8.424  11.069 -1.5670 -0.2720 -0.2867
  664MOL0     H87586   9.426   8.340  11.204 -1.4764 -0.7571 -0.8181
  664MOL0     H87587   9.313   8.138  11.161 -2.9705 -1.2537  0.3911
  664MOL0     H87588   9.247   8.195  11.006 -0.2719  0.7844  0.4232
  664MOL0     H87589   9.116   8.365  11.128 -1.9951 -0.5962  0.4482
  664MOL0     H87590   9.201   8.306  11.276 -0.5367 -1.8294  0.1277
  664MOL0     H87591   9.003   8.144  11.085 -0.9136 -1.0944  0.4075
  664MOL0     H87592   9.077   8.085  11.227  2.5082  1.7677  1.1964
  664MOL0     H87593   8.820   8.188  11.222 -1.2632  2.5735 -3.3952
  664MOL0     H87594   8.897   8.340  11.238  2.0205 -0.1048 -0.2902
  664MOL0     H87595   8.996   8.279  11.459  0.1357  0.2899 -1.4355
  664MOL0     H87596   8.943   8.117  11.448  0.0759 -0.5802 -1.0678
  664MOL0     H87597   8.798   8.281  11.593 -3.6667 -0.6254 -0.1414
  664MOL0     H87598   8.740   8.346  11.440 -1.7176  0.1323  0.6419
  664MOL0     H87599   8.710   8.077  11.557  0.9783  0.6987 -0.9290
  664MOL0     H87600   8.686   8.103  11.380  1.2499  2.4271 -1.1656
  664MOL0     H87601   8.449   8.004  11.406  2.1180  0.5765 -3.3385
  664MOL0     H87602   8.213   8.016  11.426  1.2825  0.1996 -1.9964
  664MOL0     H87603   8.151   8.158  11.352  1.1938  1.8741  1.3412
  664MOL0     H87604   8.059   8.254  11.545  4.0885  1.5489 -0.5837
  664MOL0     H87605   8.138   8.130  11.650  0.8524  0.8240 -0.3169
  664MOL0     H87606   7.981   7.968  11.591  2.2153 -0.5543 -0.8338
  664MOL0     H87607   7.885   8.119  11.611  1.1768  1.9825 -0.1004
  664MOL0     H87608   7.958   8.007  11.336  1.3523  0.9285 -1.2497
  664MOL0     H87609   7.919   8.165  11.363  3.1552  0.9211  4.1994
  664MOL0     H87610   7.770   8.284  11.493 -1.1647  0.2848 -0.6050
  664MOL0     H87611   7.573   8.415  11.561 -0.2695  1.0275 -2.5031
  664MOL0     H87612   7.108   8.332  11.815 -0.4806  2.1087  0.8669
  664MOL0     H87613   6.897   8.455  11.864 -0.6402 -2.6074  0.8688
  664MOL0     H87614   6.787   8.683  11.815 -0.0473  0.8144 -3.0354
  664MOL0     H87615   6.690   8.539  11.874  0.7897  1.3683  1.1607
  664MOL0     H87616   6.573   8.724  11.678 -0.8521 -3.5777 -0.8061
  664MOL0     H87617   6.585   8.801  11.832 -1.1599 -0.1174 -1.2366
  664MOL0     H87618   6.457   8.621  11.931 -2.0727 -1.2075  0.0292
  664MOL0     H87619   6.464   8.529  11.773  2.5986 -0.1600  1.3949
  664MOL0     H87620   6.318   8.792  11.799 -0.5852 -1.4615  2.9443
  664MOL0     H87621   6.350   8.687  11.654 -2.2103  1.4749 -0.8578
  664MOL0     H87622   6.215   8.639  11.917  2.6305  1.6601 -0.7662
  664MOL0     H87623   6.200   8.521  11.777 -2.5474 -1.1500  2.2272
  664MOL0     H87624   6.065   8.697  11.662 -0.6228 -2.4083  0.5953
  664MOL0     H87625   6.097   8.813  11.798  3.3543 -1.0632  0.0891
  664MOL0     H87626   5.873   8.694  11.758  2.8607  0.8447 -0.7826
  664MOL0     H87627   5.943   8.539  11.827 -3.5604 -1.6090 -0.1867
  664MOL0     H87628   5.885   8.818  11.928  0.7156  0.4583 -1.3760
  664MOL0     H87629   5.996   8.710  12.016  2.4512  1.6292 -4.3922
  664MOL0     H87630   6.818   8.490  11.446  0.9215  0.7987  0.1077
  664MOL0     H87631   6.993   8.336  11.398  0.1288  1.1528  0.2124
  664MOL0     H87632   7.314   8.090  11.439  1.0065 -2.0181  1.3832
  664MOL0     H87633   7.526   7.964  11.372 -0.6150 -0.9802  1.1462
  664MOL0     H87634   9.558   8.547  11.094  0.1616 -1.1561 -0.4396
  664MOL0     H87635   9.735   8.659  11.000 -2.8412 -0.4423  2.0112
  664MOL0     H87636  10.175   8.496  10.834 -2.4108  0.6547  3.0530
  664MOL0     H87637  10.410   8.555  10.887  2.1010  0.8637  1.1942
  664MOL0     H87638  10.526   8.982  10.966  1.0957 -0.4440 -0.2541
  664MOL0     H87639  10.546   8.949  10.790 -1.3432  1.8447  0.1063
  664MOL0     H87640  10.724   8.851  11.014 -0.4503  1.3133  0.8812
  664MOL0     H87641  10.747   8.833  10.830 -2.2247  0.3797 -1.7010
  664MOL0     H87642  10.776   9.073  11.010 -1.9462 -0.3677  1.1011
  664MOL0     H87643  10.736   9.087  10.834  0.2830 -0.9876 -0.4189
  664MOL0     H87644  10.950   8.960  10.781  1.5287 -0.6823  0.9057
  664MOL0     H87645  10.976   9.109  10.862 -0.1496 -0.6607 -4.1161
  664MOL0     H87646  11.104   8.812  11.155  0.3557  0.8918  0.8163
  664MOL0     H87647  10.308   8.979  10.866 -2.0147  0.8861 -3.5325
  664MOL0     H87648  10.080   8.918  10.821 -1.3110 -1.3550  0.2419
  665MOL0     O87649   5.882   5.403  10.371 -0.4213  0.9625 -0.1552
  665MOL0     C87650   5.953   5.507  10.374  0.3795 -1.1668 -0.4615
  665MOL0     O87651   5.908   5.636  10.344 -0.2458  0.3916  0.3105
  665MOL0     C87652   5.792   5.659  10.280 -0.4282  0.2918 -0.1536
  665MOL0     C87653   5.676   5.596  10.331 -0.1616 -0.3501 -0.2740
  665MOL0     C87654   5.546   5.639  10.286  0.0566 -0.2738 -0.4395
  665MOL0     C87655   5.530   5.737  10.185 -0.1637  0.6291 -0.1428
  665MOL0     O87656   5.412   5.765  10.124  0.2687  0.8805  0.2020
  665MOL0     C87657   5.302   5.676  10.124  1.0571  1.4080 -0.5166
  665MOL0     C87658   5.195   5.727  10.021 -0.6657 -0.4966  0.0110
  665MOL0     C87659   5.076   5.631  10.013  0.6978  0.5504  0.6327
  665MOL0     C87660   4.981   5.700   9.920 -0.0551 -0.1297  0.5459
  665MOL0     C87661   4.835   5.641   9.919 -0.2703  0.2100 -0.5321
  665MOL0     C87662   4.796   5.582   9.782  0.6430 -0.2432  0.6365
  665MOL0     C87663   4.661   5.509   9.775  0.5559 -0.3636  0.1727
  665MOL0     C87664   4.647   5.433   9.639 -0.4349  0.1898 -0.0991
  665MOL0     N87665   4.517   5.359   9.638  0.1038 -0.5824 -0.8970
  665MOL0     C87666   4.408   5.401   9.575 -0.0532 -0.0084 -0.2984
  665MOL0     C87667   4.306   5.302   9.582 -0.5173 -0.1928 -0.0752
  665MOL0     C87668   4.162   5.323   9.539  0.1703 -0.7267  0.7977
  665MOL0     C87669   4.092   5.432   9.626 -0.1982  0.2005  0.3577
  665MOL0     C87670   3.951   5.473   9.601 -0.0849 -0.1814 -0.1453
  665MOL0     C87671   3.842   5.381   9.648  0.2573  0.5884 -0.2963
  665MOL0     O87672   3.829   5.259   9.571 -0.1197 -1.3049  0.0985
  665MOL0     C87673   3.748   5.159   9.621  0.5927  0.7351 -0.0152
  665MOL0     C87674   3.775   5.037   9.564  0.0966 -0.8131 -0.4337
  665MOL0     C87675   3.716   4.929   9.629  0.3821  0.1555 -0.8409
  665MOL0     C87676   3.611   4.935   9.716  0.0176 -0.5122 -0.5229
  665MOL0     C87677   3.545   4.808   9.759 -0.5879  0.2500 -0.2534
  665MOL0     O87678   3.585   4.689   9.702  0.1926  0.3746  0.1701
  665MOL0     C87679   3.514   4.573   9.739 -0.3453 -0.4177 -0.2621
  665MOL0     C87680   3.584   4.488   9.823  0.7456  0.2275  0.3840
  665MOL0     C87681   3.534   4.367   9.858  0.1841  0.6189  0.2769
  665MOL0     C87682   3.399   4.331   9.814  0.2860 -0.4288 -0.3383
  665MOL0     O87683   3.340   4.227   9.877 -0.4884  0.4321  0.0363
  665MOL0     C87684   3.197   4.232   9.891  0.4970  0.1844  0.7726
  665MOL0     C87685   3.132   4.128   9.994 -0.6411 -0.5256  1.2885
  665MOL0     C87686   3.124   4.183  10.141  0.1426  0.6401  0.1826
  665MOL0     C87687   3.105   4.067  10.238 -0.6132 -0.0495  0.8065
  665MOL0     C87688   2.963   4.008  10.234 -0.1800  0.3636 -0.4596
  665MOL0     C87689   2.945   3.908  10.348 -0.0015  0.0434  0.6816
  665MOL0     C87690   2.796   3.873  10.360  0.2262 -0.2225 -0.9739
  665MOL0     C87691   2.734   3.799  10.232 -0.2154 -0.4726  0.8234
  665MOL0    Cl87692   2.570   3.868  10.215  0.5183 -0.0142 -0.6188
  665MOL0     C87693   3.328   4.417   9.721  0.2689  0.5329 -0.7533
  665MOL0     C87694   3.384   4.542   9.687  0.0790  0.0453 -0.6890
  665MOL0     O87695   3.452   4.814   9.834  0.8180  0.0293  0.0854
  665MOL0     C87696   3.583   5.064   9.767  0.6722  0.1733 -0.0561
  665MOL0     C87697   3.648   5.173   9.718  0.2869  0.6239 -0.2213
  665MOL0     N87698   4.368   5.198   9.652 -0.0645  0.3834  0.7108
  665MOL0     N87699   4.487   5.236   9.692  0.0281 -0.6274  0.5134
  665MOL0     C87700   5.650   5.794  10.137  0.0978  0.3214 -0.1179
  665MOL0     C87701   5.773   5.767  10.186  0.3390 -0.6584 -1.2282
  665MOL0     C87702   6.098   5.493  10.390 -0.1746 -0.1497 -0.2824
  665MOL0     C87703   6.184   5.582  10.336  1.0670  0.3538  0.0590
  665MOL0     C87704   6.321   5.563  10.339 -0.1614  0.3601  1.2634
  665MOL0     C87705   6.379   5.452  10.402 -0.3687  0.3713  0.1273
  665MOL0     O87706   6.510   5.424  10.395 -0.5732 -0.6172 -0.3548
  665MOL0     C87707   6.610   5.509  10.463 -0.0781 -0.0435  0.1732
  665MOL0     C87708   6.732   5.423  10.505 -0.1147  0.4052  0.6951
  665MOL0     C87709   6.821   5.383  10.389  0.2975 -0.1025  0.1300
  665MOL0     C87710   6.933   5.275  10.420 -0.4751  0.5430  0.1248
  665MOL0     C87711   6.879   5.152  10.467  0.2815  0.4145 -1.0495
  665MOL0     C87712   6.835   5.042  10.502 -0.1688  0.2896 -0.2392
  665MOL0     C87713   6.287   5.359  10.461  0.1362 -0.4556 -0.5837
  665MOL0     C87714   6.148   5.382  10.457  0.3000 -0.0490  0.0466
  665MOL0     H87715   5.671   5.519  10.408  1.0847 -1.2484 -1.0601
  665MOL0     H87716   5.459   5.597  10.333  0.8755 -1.0362  0.4333
  665MOL0     H87717   5.270   5.663  10.228  3.0385 -0.4251 -0.0618
  665MOL0     H87718   5.330   5.577  10.088 -1.2563  0.3095  0.4498
  665MOL0     H87719   5.237   5.744   9.921 -2.4562 -2.5315 -1.1829
  665MOL0     H87720   5.167   5.822  10.067  0.9605 -0.0111  0.0869
  665MOL0     H87721   5.036   5.606  10.112  2.4617 -0.4241  1.1399
  665MOL0     H87722   5.101   5.538   9.963  0.9056  0.6581  0.5382
  665MOL0     H87723   4.961   5.803   9.952  0.3446 -0.1923  1.0077
  665MOL0     H87724   5.035   5.706   9.825 -1.1068  1.2764 -0.0139
  665MOL0     H87725   4.770   5.727   9.937 -0.6539  0.1217 -1.4520
  665MOL0     H87726   4.814   5.566   9.996  0.6190  0.2054 -0.2725
  665MOL0     H87727   4.872   5.511   9.747  1.3862  1.1201 -0.5901
  665MOL0     H87728   4.790   5.660   9.706  0.7799 -1.5337 -0.7583
  665MOL0     H87729   4.662   5.443   9.862  3.6114 -1.0637 -0.2572
  665MOL0     H87730   4.575   5.577   9.780 -1.3919 -2.5328 -1.5387
  665MOL0     H87731   4.727   5.359   9.640 -2.0682 -1.6925  1.4109
  665MOL0     H87732   4.643   5.501   9.553  0.3382 -1.6593 -1.6762
  665MOL0     H87733   4.393   5.494   9.522 -0.6567 -1.2918 -2.5285
  665MOL0     H87734   4.109   5.229   9.524 -1.7704 -0.0518  2.9099
  665MOL0     H87735   4.170   5.358   9.435 -2.5658  1.8700  1.3218
  665MOL0     H87736   4.144   5.527   9.614 -2.2503  1.3414  0.1401
  665MOL0     H87737   4.100   5.402   9.731 -1.1108  0.5925  0.5469
  665MOL0     H87738   3.936   5.574   9.639 -0.5236  0.2103 -1.3107
  665MOL0     H87739   3.935   5.473   9.493 -0.8398 -1.3309 -0.0482
  665MOL0     H87740   3.748   5.436   9.644  0.4249  0.9086  0.0866
  665MOL0     H87741   3.869   5.356   9.751 -1.8294  0.7170  0.3154
  665MOL0     H87742   3.852   5.029   9.488  0.2410  2.9552 -0.8903
  665MOL0     H87743   3.751   4.829   9.604 -2.2188 -0.7527 -1.1980
  665MOL0     H87744   3.686   4.516   9.848  0.8525  0.2271 -0.0579
  665MOL0     H87745   3.587   4.318   9.939 -1.0642  0.8779  1.3014
  665MOL0     H87746   3.146   4.232   9.794  1.0750  0.8134  0.4581
  665MOL0     H87747   3.160   4.324   9.937 -3.1763 -1.6042  1.6895
  665MOL0     H87748   3.189   4.034   9.991 -0.9519 -0.6861  0.1547
  665MOL0     H87749   3.032   4.108   9.956 -0.7447  0.9937  0.7075
  665MOL0     H87750   3.034   4.245  10.141 -0.3539  0.0477 -2.2996
  665MOL0     H87751   3.221   4.231  10.160  1.4013 -1.7941  0.2999
  665MOL0     H87752   3.173   3.983  10.221  0.3493  0.5186  1.7279
  665MOL0     H87753   3.129   4.103  10.339 -0.9880  2.5106  0.0609
  665MOL0     H87754   2.952   3.962  10.135 -1.3920  0.2077 -0.2720
  665MOL0     H87755   2.892   4.091  10.241 -1.9010 -1.1096  0.5190
  665MOL0     H87756   2.975   3.953  10.443 -1.1480  0.1287  1.0242
  665MOL0     H87757   2.992   3.813  10.322 -1.2621  0.3125 -3.2512
  665MOL0     H87758   2.793   3.805  10.446 -2.7866  0.1156 -0.7021
  665MOL0     H87759   2.744   3.969  10.369  0.2588 -0.3688  1.1939
  665MOL0     H87760   2.731   3.690  10.243  0.2874 -0.2717  3.8149
  665MOL0     H87761   2.781   3.820  10.136  1.3153 -2.3263  1.1146
  665MOL0     H87762   3.227   4.391   9.693 -1.4205  1.1709  3.8062
  665MOL0     H87763   3.334   4.599   9.609 -0.0160  1.3141  0.2745
  665MOL0     H87764   3.505   5.082   9.841  1.4209  1.5517  0.4307
  665MOL0     H87765   3.629   5.276   9.747 -1.0742  0.5327 -0.7257
  665MOL0     H87766   5.641   5.868  10.059 -0.2752 -1.4909 -1.8718
  665MOL0     H87767   5.853   5.831  10.151  0.5668 -0.6766 -0.7600
  665MOL0     H87768   6.142   5.664  10.279  0.3293 -0.6115 -0.8455
  665MOL0     H87769   6.387   5.629  10.284 -0.8722 -0.8188 -1.1501
  665MOL0     H87770   6.571   5.573  10.543 -1.4425  0.5876 -0.9655
  665MOL0     H87771   6.640   5.579  10.385 -0.2390 -1.4647 -1.2148
  665MOL0     H87772   6.795   5.469  10.582  1.6498  1.1054 -1.0949
  665MOL0     H87773   6.683   5.334  10.547 -2.2469  1.0852 -0.1809
  665MOL0     H87774   6.870   5.475  10.358  2.1015 -0.8364  0.6812
  665MOL0     H87775   6.750   5.365  10.307  0.3079  2.6343 -0.5536
  665MOL0     H87776   7.000   5.255  10.336  1.3856  2.1270  1.1511
  665MOL0     H87777   7.001   5.314  10.495  0.9900 -0.8849 -0.3946
  665MOL0     H87778   6.777   4.957  10.530 -1.2505  1.9111  2.9159
  665MOL0     H87779   6.331   5.269  10.503  3.7849  0.2691 -2.4105
  665MOL0     H87780   6.075   5.310  10.492 -4.7980  2.6431 -3.6636
  666MOL0     O87781  11.081   6.881   2.877 -0.6888 -0.1197  0.3691
  666MOL0     C87782  11.134   6.887   2.763  0.1914  0.0377 -0.3902
  666MOL0     O87783  11.069   6.918   2.649 -0.3155  0.1415  0.5231
  666MOL0     C87784  10.931   6.924   2.658 -0.4524 -1.1081  0.3615
  666MOL0     C87785  10.866   7.049   2.659 -0.2054 -0.2835 -0.3118
  666MOL0     C87786  10.729   7.056   2.662 -0.0953  0.2328 -1.0628
  666MOL0     C87787  10.647   6.942   2.684 -0.6661  0.3961 -0.2311
  666MOL0     O87788  10.510   6.961   2.699 -0.3355 -0.2779  0.0631
  666MOL0     C87789  10.427   6.846   2.659  0.1093  0.1953  0.3889
  666MOL0     C87790  10.289   6.896   2.622  0.7970 -0.7944  0.1958
  666MOL0     C87791  10.211   6.946   2.746 -0.1202  0.1601 -0.4583
  666MOL0     C87792  10.072   7.004   2.711 -0.0503 -0.3627 -0.3846
  666MOL0     C87793   9.999   7.043   2.838  0.3041 -0.4720 -0.1639
  666MOL0     C87794   9.863   7.091   2.800  0.3672  0.7775  0.4012
  666MOL0     C87795   9.785   7.116   2.926 -0.0933  0.0033 -0.2478
  666MOL0     C87796   9.658   7.177   2.875  0.0067  0.9152  0.1398
  666MOL0     N87797   9.574   7.227   2.985 -0.0094  0.0886 -0.4368
  666MOL0     C87798   9.489   7.332   2.974  0.0551  0.3897  0.5688
  666MOL0     C87799   9.407   7.330   3.079 -0.2135 -0.2180 -0.1689
  666MOL0     C87800   9.307   7.427   3.129 -0.2929 -0.2248  0.5611
  666MOL0     C87801   9.378   7.558   3.183  0.1042 -0.0769  0.2508
  666MOL0     C87802   9.403   7.670   3.083 -0.2560 -0.4950 -0.0397
  666MOL0     C87803   9.387   7.806   3.156  0.2811 -0.4303 -0.0361
  666MOL0     O87804   9.377   7.914   3.067 -0.7038 -0.1573 -0.1677
  666MOL0     C87805   9.470   8.015   3.071  1.0435  1.0260 -0.2007
  666MOL0     C87806   9.609   8.014   3.106 -0.4117  0.2864  0.4342
  666MOL0     C87807   9.682   8.130   3.112 -0.1497  0.8794  0.7516
  666MOL0     C87808   9.622   8.251   3.083 -0.2908  0.3049  0.4485
  666MOL0     C87809   9.707   8.376   3.110  0.5613  0.6993  0.5496
  666MOL0     O87810   9.824   8.360   3.179 -0.2233 -0.0499 -0.5155
  666MOL0     C87811   9.928   8.452   3.182 -0.0743 -0.1193 -0.8257
  666MOL0     C87812  10.027   8.409   3.273  0.7744  0.1760  0.3028
  666MOL0     C87813  10.152   8.473   3.286  0.4448 -0.5189  0.2679
  666MOL0     C87814  10.175   8.579   3.199  0.9810  0.3313 -0.0064
  666MOL0     O87815  10.291   8.654   3.205 -0.3545 -0.0979  0.1393
  666MOL0     C87816  10.417   8.602   3.255  0.1760  0.2407  0.1864
  666MOL0     C87817  10.468   8.470   3.194 -0.4260 -0.0973 -0.4065
  666MOL0     C87818  10.506   8.479   3.042 -1.0832 -0.3579  0.6353
  666MOL0     C87819  10.540   8.345   2.982 -0.2007  0.0230 -1.1027
  666MOL0     C87820  10.661   8.274   3.048 -0.2810  0.2882 -0.4371
  666MOL0     C87821  10.704   8.159   2.961  0.0981  0.2097  0.6234
  666MOL0     C87822  10.823   8.082   3.020  0.7616  0.4393 -0.1561
  666MOL0     C87823  10.942   8.089   2.925 -0.7314  0.3001  0.8329
  666MOL0    Cl87824  10.988   8.259   2.892 -0.1276  0.1487 -0.1731
  666MOL0     C87825  10.083   8.626   3.118 -0.4271  0.4313  0.2972
  666MOL0     C87826   9.954   8.568   3.107  0.1815  0.7060  0.1429
  666MOL0     O87827   9.670   8.476   3.047 -0.5522  0.3993 -0.5796
  666MOL0     C87828   9.481   8.253   3.058  0.2156 -0.6144  0.7631
  666MOL0     C87829   9.406   8.138   3.045 -0.9091  0.6691  0.2229
  666MOL0     N87830   9.445   7.217   3.151  0.0513 -0.0028  0.4507
  666MOL0     N87831   9.545   7.158   3.100  0.3310  0.5731  0.0576
  666MOL0     C87832  10.709   6.814   2.692 -0.2144  0.1230  0.3281
  666MOL0     C87833  10.851   6.811   2.671  0.7971  0.4440 -0.5094
  666MOL0     C87834  11.284   6.871   2.748  0.1887  0.2411 -0.1542
  666MOL0     C87835  11.343   6.833   2.627  0.5365 -0.5986  0.6944
  666MOL0     C87836  11.483   6.833   2.614  0.9918 -0.1094  0.0085
  666MOL0     C87837  11.560   6.862   2.722  0.9825  0.5925  0.4960
  666MOL0     O87838  11.697   6.860   2.731 -0.1012 -0.5741  0.7550
  666MOL0     C87839  11.769   6.829   2.615 -0.2142 -0.1401 -0.5088
  666MOL0     C87840  11.923   6.804   2.640 -0.7216 -0.2934 -0.0009
  666MOL0     C87841  11.960   6.654   2.677 -0.2538 -0.8936  0.7969
  666MOL0     C87842  11.943   6.549   2.576 -0.3167 -0.3877 -0.5747
  666MOL0     C87843  12.044   6.546   2.470 -0.1394  0.8157  0.1648
  666MOL0     C87844  12.125   6.539   2.383 -1.2252 -0.0836  1.4352
  666MOL0     C87845  11.498   6.890   2.841 -1.0135  0.2974 -0.0030
  666MOL0     C87846  11.364   6.902   2.860  0.7769  0.4093  0.1336
  666MOL0     H87847  10.918   7.143   2.644  1.4199 -0.9661  0.8382
  666MOL0     H87848  10.679   7.152   2.656 -0.5000 -0.0345 -2.1714
  666MOL0     H87849  10.419   6.785   2.750 -1.0399  1.1601  0.9754
  666MOL0     H87850  10.468   6.786   2.578 -0.2195 -0.9781  1.0743
  666MOL0     H87851  10.235   6.818   2.568 -1.8306  2.4858 -2.3440
  666MOL0     H87852  10.291   6.982   2.554 -0.6969 -2.6082 -2.3081
  666MOL0     H87853  10.262   7.029   2.795 -0.3123 -1.0964  2.0289
  666MOL0     H87854  10.196   6.867   2.821 -0.4097 -0.2658 -0.9558
  666MOL0     H87855  10.082   7.098   2.656 -2.0202  0.7294  1.0183
  666MOL0     H87856  10.012   6.946   2.641 -3.4932  0.9430  1.2918
  666MOL0     H87857  10.053   7.122   2.891 -1.2233  0.1487  0.5230
  666MOL0     H87858   9.985   6.960   2.909  1.2711 -0.6318 -0.1451
  666MOL0     H87859   9.815   7.016   2.737  0.9173  0.9328 -0.2084
  666MOL0     H87860   9.877   7.180   2.739 -0.2311  0.2357 -0.5388
  666MOL0     H87861   9.765   7.029   2.988 -6.2095  1.9124  1.1561
  666MOL0     H87862   9.839   7.185   2.990 -1.5288 -0.7150  1.8376
  666MOL0     H87863   9.610   7.094   2.822 -0.2362  1.1542 -0.0205
  666MOL0     H87864   9.688   7.262   2.813  1.9737  1.1418  1.3154
  666MOL0     H87865   9.498   7.420   2.911 -0.1467  2.0468  2.7335
  666MOL0     H87866   9.250   7.379   3.209 -0.1451 -0.8295  0.3031
  666MOL0     H87867   9.230   7.443   3.053 -0.8807 -0.8003  1.0225
  666MOL0     H87868   9.469   7.539   3.241  0.8400 -0.7930 -1.0897
  666MOL0     H87869   9.300   7.594   3.251 -0.7055 -2.7233  0.8416
  666MOL0     H87870   9.500   7.655   3.035 -1.2055 -1.8266 -1.6831
  666MOL0     H87871   9.331   7.662   3.001 -1.3178 -1.7941  0.9708
  666MOL0     H87872   9.470   7.807   3.228 -0.3967 -1.4156  0.7934
  666MOL0     H87873   9.291   7.813   3.209  1.4764  1.4965  2.0358
  666MOL0     H87874   9.659   7.919   3.121  2.0062  1.2863 -0.8654
  666MOL0     H87875   9.786   8.114   3.137  0.3955  1.2169 -1.1650
  666MOL0     H87876  10.007   8.328   3.342 -0.2509  1.2711  1.3527
  666MOL0     H87877  10.227   8.447   3.360  2.3699  1.1526 -0.9687
  666MOL0     H87878  10.412   8.594   3.364  0.2464 -0.1245  0.1665
  666MOL0     H87879  10.485   8.684   3.231 -0.6603  0.8013 -0.3035
  666MOL0     H87880  10.393   8.395   3.220 -0.5931  0.5384  1.0643
  666MOL0     H87881  10.559   8.443   3.250 -0.5652 -0.9463 -0.5774
  666MOL0     H87882  10.594   8.544   3.037 -2.3669  1.3451 -0.9174
  666MOL0     H87883  10.431   8.531   2.981  0.8037  0.7634 -0.8438
  666MOL0     H87884  10.455   8.277   2.989  2.4914 -3.5917 -0.4876
  666MOL0     H87885  10.560   8.369   2.877 -0.3992  1.8617 -0.7681
  666MOL0     H87886  10.634   8.235   3.147 -2.3459 -1.7551 -1.7078
  666MOL0     H87887  10.737   8.352   3.059  1.1712 -0.7989 -2.3790
  666MOL0     H87888  10.734   8.184   2.859 -1.1386  4.1594  1.0468
  666MOL0     H87889  10.619   8.093   2.942  1.2223 -0.0807 -4.9761
  666MOL0     H87890  10.855   8.115   3.119 -1.2912 -0.1582  0.7626
  666MOL0     H87891  10.791   7.977   3.028 -1.1712  1.0766  1.0198
  666MOL0     H87892  10.926   8.034   2.832 -2.1930 -1.6780  2.1879
  666MOL0     H87893  11.035   8.053   2.972 -0.6443 -0.6889 -0.0572
  666MOL0     H87894  10.114   8.719   3.071  2.8847 -0.4244  0.5101
  666MOL0     H87895   9.877   8.611   3.044 -2.2066 -1.9074  1.0563
  666MOL0     H87896   9.428   8.348   3.056 -1.2815 -1.4294 -0.3375
  666MOL0     H87897   9.299   8.138   3.028 -1.2565 -0.7043  2.0891
  666MOL0     H87898  10.665   6.718   2.717 -0.1642  0.8489  3.6674
  666MOL0     H87899  10.897   6.713   2.680 -1.6079 -0.6791  0.1421
  666MOL0     H87900  11.282   6.802   2.543 -1.2559 -1.1037  2.1140
  666MOL0     H87901  11.528   6.816   2.517 -1.0102  0.9840 -1.1821
  666MOL0     H87902  11.754   6.915   2.549  0.5308 -0.7101 -1.4405
  666MOL0     H87903  11.733   6.736   2.570  1.7680 -1.4751  0.5728
  666MOL0     H87904  11.982   6.833   2.552 -0.1702  3.6403  1.4662
  666MOL0     H87905  11.966   6.879   2.707 -1.0230  1.5026 -1.6894
  666MOL0     H87906  11.898   6.626   2.763  0.0224 -1.3890  0.8371
  666MOL0     H87907  12.063   6.667   2.712 -0.3973 -0.1547  0.9652
  666MOL0     H87908  11.948   6.450   2.622  0.6379 -0.4454 -0.7873
  666MOL0     H87909  11.844   6.551   2.529 -1.5062 -1.1239  1.7382
  666MOL0     H87910  12.195   6.544   2.302 -0.4954 -0.0304  2.0613
  666MOL0     H87911  11.572   6.906   2.919 -0.8087  2.3371 -0.5478
  666MOL0     H87912  11.319   6.937   2.952  1.7723  0.3667  0.6488
  667MOL0     O87913  11.161   4.455  10.188  0.0432 -0.0381 -0.6083
  667MOL0     C87914  11.195   4.383  10.283 -0.1134 -0.2189 -0.6123
  667MOL0     O87915  11.109   4.295  10.352  0.1827  0.5118  0.4168
  667MOL0     C87916  10.978   4.291  10.321 -0.1479 -0.7746  0.0353
  667MOL0     C87917  10.937   4.276  10.189 -0.3664 -0.1314  0.5311
  667MOL0     C87918  10.801   4.263  10.155 -0.9579 -0.6608 -0.5664
  667MOL0     C87919  10.704   4.261  10.255  0.0317 -0.1562  0.0283
  667MOL0     O87920  10.570   4.242  10.229  1.0739 -0.3504 -0.1094
  667MOL0     C87921  10.498   4.320  10.131 -0.1186 -0.0920  0.3529
  667MOL0     C87922  10.401   4.221  10.058 -0.6472  0.0600 -0.3653
  667MOL0     C87923  10.266   4.214  10.133  0.5330 -0.3141  1.2268
  667MOL0     C87924  10.162   4.112  10.073  0.0952  0.1903  0.5729
  667MOL0     C87925  10.019   4.144  10.108 -0.6816 -0.3746 -0.0308
  667MOL0     C87926   9.927   4.037  10.047 -0.7659 -0.2096  0.1692
  667MOL0     C87927   9.776   4.069  10.070 -0.8123 -0.3094 -0.8380
  667MOL0     C87928   9.723   4.036  10.205 -0.5197  0.4691  0.0677
  667MOL0     N87929   9.762   4.136  10.305 -0.2570 -0.3996 -0.9382
  667MOL0     C87930   9.850   4.121  10.415 -0.7036 -0.4337 -0.2102
  667MOL0     C87931   9.828   4.240  10.483  0.8819 -0.0080 -0.9193
  667MOL0     C87932   9.918   4.270  10.597  0.0210 -0.8131 -0.3646
  667MOL0     C87933  10.071   4.302  10.549  0.1610  0.7306 -0.3180
  667MOL0     C87934  10.085   4.431  10.470 -0.1044 -0.8716 -0.0337
  667MOL0     C87935  10.226   4.470  10.439 -0.7778 -0.4738 -0.5328
  667MOL0     O87936  10.298   4.521  10.552 -0.1878 -0.2821 -0.4143
  667MOL0     C87937  10.425   4.518  10.547 -0.6863  0.2192 -0.5896
  667MOL0     C87938  10.494   4.486  10.661  0.1372  1.0637 -0.1708
  667MOL0     C87939  10.637   4.509  10.666 -0.3028 -0.1839  0.1984
  667MOL0     C87940  10.706   4.581  10.567  0.2810  0.1971  0.5505
  667MOL0     C87941  10.844   4.623  10.581  0.3203  0.3864  1.2772
  667MOL0     O87942  10.893   4.718  10.488 -0.2776  0.8109  0.6646
  667MOL0     C87943  11.022   4.748  10.472  0.1904 -0.0298 -0.2122
  667MOL0     C87944  11.052   4.873  10.410 -0.7357 -0.6443  0.3659
  667MOL0     C87945  11.183   4.910  10.376 -0.4544  0.6936 -0.3213
  667MOL0     C87946  11.294   4.840  10.421  0.0958 -0.4982 -0.7268
  667MOL0     O87947  11.422   4.876  10.395 -0.0585  0.5487 -0.4525
  667MOL0     C87948  11.456   4.904  10.254  0.5889  0.4359 -0.8444
  667MOL0     C87949  11.602   4.902  10.238 -0.6878  0.3099 -0.7060
  667MOL0     C87950  11.663   5.043  10.263  0.5736  0.6363 -0.3607
  667MOL0     C87951  11.819   5.019  10.240  0.9512 -0.9468  0.2601
  667MOL0     C87952  11.884   5.158  10.218 -0.0989 -0.2975 -0.6490
  667MOL0     C87953  12.034   5.132  10.185  0.5730 -0.4139  0.0678
  667MOL0     C87954  12.105   5.261  10.154  0.2845  0.4762 -1.1036
  667MOL0     C87955  12.226   5.247  10.066  0.2355  0.5292 -0.1785
  667MOL0    Cl87956  12.302   5.409  10.031 -0.0658  0.7451 -0.5394
  667MOL0     C87957  11.266   4.716  10.483  0.2876 -0.7721  0.4340
  667MOL0     C87958  11.136   4.664  10.501  0.8776 -0.2126  0.0541
  667MOL0     O87959  10.913   4.576  10.663 -0.6755 -0.1083 -0.1132
  667MOL0     C87960  10.629   4.633  10.463 -0.2201 -0.2527 -0.1209
  667MOL0     C87961  10.494   4.595  10.447  0.0695 -1.3394 -0.3911
  667MOL0     N87962   9.734   4.311  10.413  0.2626 -0.6470  0.0470
  667MOL0     N87963   9.698   4.255  10.306 -0.1762 -0.6853  0.8584
  667MOL0     C87964  10.736   4.285  10.389 -0.1116  0.8764  0.9368
  667MOL0     C87965  10.875   4.291  10.421  0.1167  0.7290  0.2354
  667MOL0     C87966  11.338   4.391  10.328  0.1304 -0.1981 -0.1060
  667MOL0     C87967  11.413   4.506  10.294 -1.0190  0.2769  0.0521
  667MOL0     C87968  11.550   4.512  10.328 -0.2393 -0.7784  0.5294
  667MOL0     C87969  11.600   4.414  10.413 -0.5234 -0.1801  0.6121
  667MOL0     O87970  11.727   4.414  10.462 -0.3478  0.0475  0.1212
  667MOL0     C87971  11.821   4.506  10.402  1.1032 -0.9389  0.0417
  667MOL0     C87972  11.826   4.653  10.466 -0.0503  0.5806  0.0588
  667MOL0     C87973  11.915   4.654  10.591 -0.2775  1.2472 -0.3142
  667MOL0     C87974  11.917   4.807  10.637  0.2766  0.7309 -0.3704
  667MOL0     C87975  12.014   4.886  10.566  0.0051  0.2883 -0.0223
  667MOL0     C87976  12.092   4.969  10.531 -0.4773  0.8680  0.4128
  667MOL0     C87977  11.522   4.316  10.465  0.0643 -0.4918 -0.6632
  667MOL0     C87978  11.400   4.297  10.418 -0.3501  0.1325 -0.3882
  667MOL0     H87979  11.020   4.266  10.119  0.8038  0.9682  1.7010
  667MOL0     H87980  10.772   4.248  10.052  0.7672  6.1980 -2.5190
  667MOL0     H87981  10.574   4.356  10.062 -1.3157 -0.9012 -1.4764
  667MOL0     H87982  10.453   4.407  10.181  1.4443  1.0968 -0.2395
  667MOL0     H87983  10.451   4.124  10.061 -0.0149  0.3617 -0.9255
  667MOL0     H87984  10.391   4.244   9.951  0.3887  0.4233 -0.4006
  667MOL0     H87985  10.215   4.310  10.118  0.8229 -0.2397  0.6697
  667MOL0     H87986  10.287   4.203  10.239  0.4621 -1.5853  1.1263
  667MOL0     H87987  10.176   4.111   9.965  0.9482 -0.0141  0.6740
  667MOL0     H87988  10.183   4.008  10.101 -3.6266 -0.9019 -0.2280
  667MOL0     H87989   9.988   4.242  10.070 -2.0837 -0.3687  1.0253
  667MOL0     H87990  10.006   4.135  10.217 -0.9607 -0.1454 -0.0432
  667MOL0     H87991   9.951   3.949  10.107 -1.0074 -0.7876 -0.5631
  667MOL0     H87992   9.952   4.037   9.940  1.7707 -0.2851  0.6961
  667MOL0     H87993   9.748   4.173  10.051  0.6927  0.4538  0.8367
  667MOL0     H87994   9.724   4.001  10.001  0.0325 -1.1004 -0.7193
  667MOL0     H87995   9.762   3.935  10.224 -1.0299 -0.2876 -2.4473
  667MOL0     H87996   9.615   4.018  10.200 -0.0432 -2.7076 -2.6295
  667MOL0     H87997   9.932   4.051  10.426 -0.1041 -0.1760 -2.4681
  667MOL0     H87998   9.911   4.192  10.674  1.4690 -1.5142 -0.9065
  667MOL0     H87999   9.888   4.363  10.647  2.8727 -0.7316  1.4429
  667MOL0     H88000  10.109   4.219  10.489  0.2286  1.4883 -1.3433
  667MOL0     H88001  10.125   4.309  10.644 -2.4286 -2.2240  1.5771
  667MOL0     H88002  10.037   4.418  10.372  1.0752 -1.7831 -0.5130
  667MOL0     H88003  10.034   4.509  10.527  1.6597  0.2565  0.0743
  667MOL0     H88004  10.225   4.548  10.362 -1.8830 -0.1747 -0.2369
  667MOL0     H88005  10.285   4.386  10.402  0.2548 -0.5575  1.2122
  667MOL0     H88006  10.430   4.459  10.744  2.0811  0.1414  1.0838
  667MOL0     H88007  10.705   4.491  10.749  1.2771  1.0726 -0.7689
  667MOL0     H88008  10.970   4.937  10.379  0.1447 -0.5087 -1.8498
  667MOL0     H88009  11.196   5.003  10.322 -1.4954  0.9559 -0.1587
  667MOL0     H88010  11.406   4.995  10.223 -0.3155  0.4001  0.4393
  667MOL0     H88011  11.419   4.825  10.187 -1.9751  0.2007  0.7314
  667MOL0     H88012  11.615   4.867  10.135  0.8945  1.0565 -0.7914
  667MOL0     H88013  11.641   4.827  10.308 -3.1743  2.0975  2.8585
  667MOL0     H88014  11.648   5.067  10.368 -0.8911  3.1033 -1.0588
  667MOL0     H88015  11.619   5.112  10.190 -1.0901 -0.4106 -0.4010
  667MOL0     H88016  11.865   4.968  10.325  2.7482 -0.2737 -0.2645
  667MOL0     H88017  11.844   4.954  10.156  1.2898  0.8309 -1.0803
  667MOL0     H88018  11.880   5.214  10.312 -0.4480 -3.5984  1.4523
  667MOL0     H88019  11.838   5.214  10.137 -1.7187  1.2916  1.2728
  667MOL0     H88020  12.046   5.060  10.103  1.3837 -1.2351  0.8841
  667MOL0     H88021  12.086   5.092  10.272  0.3799 -0.4914  0.1492
  667MOL0     H88022  12.031   5.321  10.100  1.5968  1.0593 -2.3343
  667MOL0     H88023  12.132   5.309  10.248 -0.9868  0.9243 -0.9586
  667MOL0     H88024  12.185   5.204   9.974  2.9695  3.4221 -3.0173
  667MOL0     H88025  12.299   5.181  10.114  1.1141 -1.6163 -4.0345
  667MOL0     H88026  11.339   4.648  10.526 -2.0083 -3.1617  0.7823
  667MOL0     H88027  11.119   4.562  10.533  1.0700  0.7016  3.4852
  667MOL0     H88028  10.677   4.695  10.388  0.7967 -0.2934  0.4773
  667MOL0     H88029  10.443   4.626  10.356 -0.6548  1.8579  0.9568
  667MOL0     H88030  10.653   4.287  10.458 -0.0680  0.5802  1.0034
  667MOL0     H88031  10.911   4.305  10.523  0.9667 -4.6212  0.9770
  667MOL0     H88032  11.366   4.590  10.244 -1.6328 -0.5104 -0.7335
  667MOL0     H88033  11.613   4.591  10.289  1.2123 -2.1699 -0.0545
  667MOL0     H88034  11.796   4.522  10.297  0.2940 -0.6610  0.2660
  667MOL0     H88035  11.925   4.471  10.403  2.4796  2.7383  0.7909
  667MOL0     H88036  11.865   4.720  10.388 -0.6407  2.1293  1.0459
  667MOL0     H88037  11.725   4.687  10.489 -0.2098  1.1270 -1.3378
  667MOL0     H88038  12.008   4.606  10.557 -0.4476  1.4157 -1.0337
  667MOL0     H88039  11.884   4.594  10.676  0.2089  0.9776 -0.3206
  667MOL0     H88040  11.815   4.833  10.605  0.1362 -1.2598 -1.7477
  667MOL0     H88041  11.946   4.816  10.742  2.7754 -0.2988 -0.9190
  667MOL0     H88042  12.163   5.047  10.512 -1.0203  1.7110  1.6622
  667MOL0     H88043  11.572   4.248  10.534 -0.8688  2.1509  2.9306
  667MOL0     H88044  11.343   4.213  10.457  1.9055 -0.1617  2.6234
  668MOL0     O88045   1.504   3.607   7.836 -0.2757 -0.6267 -0.0683
  668MOL0     C88046   1.521   3.607   7.962  0.8350  0.0654  0.4620
  668MOL0     O88047   1.426   3.639   8.055 -0.0275  1.1638 -0.0976
  668MOL0     C88048   1.304   3.693   8.015 -0.0750  0.1146 -0.3322
  668MOL0     C88049   1.298   3.829   7.984  0.1009 -0.6556 -0.2359
  668MOL0     C88050   1.170   3.887   7.936 -0.1279 -0.0654 -0.1429
  668MOL0     C88051   1.053   3.808   7.928 -0.5551  0.3277  0.9279
  668MOL0     O88052   0.943   3.878   7.891  0.2754 -0.4413 -0.0936
  668MOL0     C88053   0.823   3.796   7.876 -0.3285 -0.7200  0.4432
  668MOL0     C88054   0.706   3.877   7.813 -0.1953  0.2753 -0.4904
  668MOL0     C88055   0.591   3.777   7.793  0.0990  0.0768 -0.1859
  668MOL0     C88056   0.478   3.822   7.703 -0.3949 -0.2906  0.0529
  668MOL0     C88057   0.376   3.710   7.690  0.4041  0.1551  0.7805
  668MOL0     C88058   0.258   3.761   7.607 -1.0275  0.0318 -0.2832
  668MOL0     C88059   0.166   3.641   7.563 -0.3563  0.8130 -0.0193
  668MOL0     C88060   0.032   3.696   7.501 -0.7611  0.3405 -0.1157
  668MOL0     N88061  -0.039   3.574   7.457  0.0576  0.2927 -0.2172
  668MOL0     C88062  -0.129   3.580   7.349  0.0761  0.4669 -0.0743
  668MOL0     C88063  -0.212   3.481   7.367 -0.2933  0.5901 -0.7052
  668MOL0     C88064  -0.328   3.443   7.284 -0.2540 -1.1037 -0.3658
  668MOL0     C88065  -0.462   3.437   7.363  0.2091 -0.6290  0.1253
  668MOL0     C88066  -0.600   3.434   7.280 -0.7441  1.1656  0.4328
  668MOL0     C88067  -0.618   3.321   7.176  0.0218 -0.3327  1.5433
  668MOL0     O88068  -0.638   3.199   7.237 -0.9783  0.4758 -0.0556
  668MOL0     C88069  -0.753   3.134   7.216  0.1418  0.0241 -0.4508
  668MOL0     C88070  -0.751   2.995   7.220  0.2137 -0.0365  0.2205
  668MOL0     C88071  -0.870   2.922   7.210 -0.0321  1.3825  0.2975
  668MOL0     C88072  -0.990   2.973   7.179  0.0021  0.1035  0.0240
  668MOL0     C88073  -1.107   2.892   7.136  0.2423 -0.2375  0.6493
  668MOL0     O88074  -1.234   2.949   7.119 -0.0887 -0.0705 -0.0780
  668MOL0     C88075  -1.322   2.869   7.069  0.3296 -0.7100  0.5418
  668MOL0     C88076  -1.404   2.794   7.147  0.4542  0.8593  0.3608
  668MOL0     C88077  -1.499   2.708   7.086 -0.7889 -1.1420  0.7462
  668MOL0     C88078  -1.509   2.693   6.948  0.4774 -0.2623 -0.6124
  668MOL0     O88079  -1.596   2.608   6.896 -0.7239  0.3823  0.0371
  668MOL0     C88080  -1.698   2.679   6.818  0.1474 -0.0842 -0.8715
  668MOL0     C88081  -1.822   2.594   6.836 -0.3424 -0.2936 -0.4642
  668MOL0     C88082  -1.937   2.678   6.766 -0.3194 -0.2008 -0.1953
  668MOL0     C88083  -2.062   2.605   6.712  0.8790  0.6588 -0.8652
  668MOL0     C88084  -2.161   2.564   6.837  0.0736 -0.3925 -0.3581
  668MOL0     C88085  -2.285   2.520   6.770  0.0157  0.0036 -1.0427
  668MOL0     C88086  -2.377   2.463   6.881 -0.5605 -0.2330  1.2919
  668MOL0     C88087  -2.450   2.575   6.965 -0.9852  0.7090  0.9083
  668MOL0    Cl88088  -2.587   2.651   6.881 -0.1269 -0.3271  0.2331
  668MOL0     C88089  -1.422   2.774   6.867 -0.3015 -0.0887 -0.0291
  668MOL0     C88090  -1.333   2.862   6.930 -0.3361 -0.5883  0.1385
  668MOL0     O88091  -1.078   2.769   7.117  0.9307 -0.8580 -0.1910
  668MOL0     C88092  -1.001   3.111   7.184  0.5999 -0.3878  0.7343
  668MOL0     C88093  -0.882   3.190   7.196  0.5582 -0.4071 -0.7989
  668MOL0     N88094  -0.170   3.408   7.475 -0.2523 -0.1916 -1.3151
  668MOL0     N88095  -0.070   3.464   7.541  0.0424 -0.5412  0.6586
  668MOL0     C88096   1.060   3.672   7.963 -0.6129 -0.4341  0.2874
  668MOL0     C88097   1.186   3.614   8.006 -0.0743  0.4961 -0.3760
  668MOL0     C88098   1.644   3.554   8.013  0.4361  0.2266  0.6919
  668MOL0     C88099   1.740   3.514   7.922  0.5989 -0.0043 -0.3608
  668MOL0     C88100   1.857   3.464   7.974  0.0834 -0.0160 -0.0350
  668MOL0     C88101   1.884   3.448   8.110  1.3319  0.4231  0.3353
  668MOL0     O88102   2.007   3.410   8.157 -0.3036 -0.3996 -0.8623
  668MOL0     C88103   2.064   3.481   8.264  0.1561  0.4867 -0.5332
  668MOL0     C88104   2.210   3.500   8.230 -0.4228 -0.9167 -0.4477
  668MOL0     C88105   2.277   3.373   8.196 -0.1755 -0.0410 -0.5262
  668MOL0     C88106   2.288   3.269   8.319 -0.2141 -0.5835 -0.1396
  668MOL0     C88107   2.330   3.335   8.448  0.4910  1.1603  0.0041
  668MOL0     C88108   2.378   3.404   8.543  0.2503 -0.3982  0.6708
  668MOL0     C88109   1.785   3.488   8.203  0.1233  0.1049  0.3412
  668MOL0     C88110   1.670   3.546   8.147 -0.1754  0.0055 -0.1059
  668MOL0     H88111   1.386   3.892   7.992 -1.4808  1.4636  1.2940
  668MOL0     H88112   1.162   3.991   7.904  1.4620  1.0614  2.6891
  668MOL0     H88113   0.794   3.742   7.966  1.8621 -2.5736  0.1378
  668MOL0     H88114   0.842   3.714   7.806  0.5336  2.0527 -2.8357
  668MOL0     H88115   0.728   3.913   7.712  1.1673 -2.3360 -1.2258
  668MOL0     H88116   0.665   3.960   7.872 -2.9468 -2.3898  1.6225
  668MOL0     H88117   0.554   3.753   7.893  1.5416  0.6954  0.5222
  668MOL0     H88118   0.627   3.681   7.755  1.2953 -0.8325  2.9590
  668MOL0     H88119   0.430   3.916   7.733  0.3230  1.0975 -2.7254
  668MOL0     H88120   0.524   3.842   7.606  1.1265 -0.4729  0.7046
  668MOL0     H88121   0.359   3.668   7.789  3.1837  0.5899  1.5130
  668MOL0     H88122   0.414   3.623   7.637 -4.5536 -2.2969  0.7006
  668MOL0     H88123   0.297   3.811   7.518 -0.8974 -1.6306 -1.1996
  668MOL0     H88124   0.203   3.828   7.674 -1.4130 -2.5095  2.0916
  668MOL0     H88125   0.221   3.591   7.482  0.7641 -0.9312  1.7457
  668MOL0     H88126   0.145   3.571   7.644  0.6376 -0.6755 -0.9949
  668MOL0     H88127   0.063   3.770   7.427 -2.1569 -2.1522 -3.4734
  668MOL0     H88128  -0.025   3.748   7.579 -0.8142 -1.1137  0.8728
  668MOL0     H88129  -0.141   3.648   7.265  1.0482 -1.7124 -2.0929
  668MOL0     H88130  -0.313   3.338   7.259  0.8009 -2.1113  3.6897
  668MOL0     H88131  -0.350   3.515   7.204 -1.3827 -0.8739  0.1306
  668MOL0     H88132  -0.479   3.529   7.419 -2.9631 -1.3421  0.5302
  668MOL0     H88133  -0.463   3.352   7.431 -2.4275 -0.7120  0.1105
  668MOL0     H88134  -0.680   3.423   7.354 -1.7776  0.2202 -0.7809
  668MOL0     H88135  -0.594   3.534   7.236  3.5475  1.2689  0.7943
  668MOL0     H88136  -0.529   3.309   7.113 -0.9908 -1.6805  0.2871
  668MOL0     H88137  -0.706   3.350   7.118 -1.6245 -0.9131  3.6342
  668MOL0     H88138  -0.661   2.935   7.227 -0.6886 -1.9248 -2.6093
  668MOL0     H88139  -0.870   2.813   7.218 -0.8309  1.3804  0.4025
  668MOL0     H88140  -1.405   2.796   7.255 -1.8093  0.0511  0.3970
  668MOL0     H88141  -1.573   2.657   7.146 -3.1555  0.0505 -0.9587
  668MOL0     H88142  -1.666   2.675   6.713  2.4688  4.8799 -0.6577
  668MOL0     H88143  -1.706   2.786   6.842 -0.9221 -0.5806  1.2004
  668MOL0     H88144  -1.851   2.579   6.941 -0.0041 -0.4269 -0.3909
  668MOL0     H88145  -1.813   2.496   6.787  3.6666  0.7240 -2.0968
  668MOL0     H88146  -1.889   2.726   6.680  0.7717  2.5414  1.8076
  668MOL0     H88147  -1.963   2.766   6.826  0.4939  1.0832 -1.6503
  668MOL0     H88148  -2.116   2.676   6.648 -0.7139 -0.9830 -1.4317
  668MOL0     H88149  -2.036   2.511   6.663  4.8791 -0.7436  3.2110
  668MOL0     H88150  -2.178   2.646   6.907  3.4298 -1.0738  1.4980
  668MOL0     H88151  -2.107   2.486   6.892 -2.1156  0.4320  3.2985
  668MOL0     H88152  -2.267   2.436   6.703 -0.1062  0.3683 -1.5355
  668MOL0     H88153  -2.344   2.591   6.712 -3.5341 -2.3081 -0.6042
  668MOL0     H88154  -2.453   2.393   6.843 -0.1570  0.4468 -0.8968
  668MOL0     H88155  -2.317   2.401   6.948  0.3312 -1.0742 -0.2258
  668MOL0     H88156  -2.378   2.651   6.998  1.1235 -0.6587 -0.3567
  668MOL0     H88157  -2.488   2.522   7.052 -1.4250 -1.1723 -0.3747
  668MOL0     H88158  -1.418   2.762   6.759  2.9375 -0.0248  0.0083
  668MOL0     H88159  -1.262   2.914   6.867 -2.4501 -0.6728 -2.4954
  668MOL0     H88160  -1.096   3.156   7.160  0.6832 -0.9579 -0.7849
  668MOL0     H88161  -0.886   3.298   7.207 -1.8669 -0.6899  3.1443
  668MOL0     H88162   0.965   3.621   7.972 -1.4243  0.9772  0.0590
  668MOL0     H88163   1.192   3.509   8.036  1.6786  0.8896  0.7567
  668MOL0     H88164   1.723   3.532   7.816 -0.0430  0.5114 -0.1756
  668MOL0     H88165   1.933   3.425   7.906 -0.4757 -0.7470 -0.2533
  668MOL0     H88166   2.031   3.431   8.355 -0.7610 -0.0790 -1.1644
  668MOL0     H88167   2.016   3.579   8.265 -0.0147  0.4602  2.4852
  668MOL0     H88168   2.220   3.565   8.143 -1.2690 -1.5920 -1.0623
  668MOL0     H88169   2.262   3.541   8.317  0.5013 -3.8891  0.5212
  668MOL0     H88170   2.380   3.395   8.165 -0.2561 -1.1661 -1.6589
  668MOL0     H88171   2.237   3.317   8.111 -1.5131 -0.8475  0.5935
  668MOL0     H88172   2.193   3.216   8.330  0.0866 -1.4947 -1.6045
  668MOL0     H88173   2.360   3.193   8.288 -0.7344 -0.9113 -0.5765
  668MOL0     H88174   2.444   3.453   8.612  1.8541 -2.3009  0.5985
  668MOL0     H88175   1.794   3.476   8.311  2.3499 -1.0710  0.0847
  668MOL0     H88176   1.599   3.590   8.216  1.3003  1.8429  0.3294
  669MOL0     O88177   7.795   7.883   4.739 -0.4034 -0.2184  0.4475
  669MOL0     C88178   7.827   7.973   4.658 -0.2528  0.4932  1.4239
  669MOL0     O88179   7.742   8.035   4.572 -0.3839 -0.1820  0.2049
  669MOL0     C88180   7.607   8.020   4.599 -0.1719  0.4244  0.3061
  669MOL0     C88181   7.533   7.981   4.493 -0.5861 -0.7643 -0.5573
  669MOL0     C88182   7.396   7.985   4.508  0.0554 -0.0937  0.2089
  669MOL0     C88183   7.339   8.014   4.632 -0.0944  1.2257  0.8675
  669MOL0     O88184   7.208   7.992   4.628 -0.7094  0.4177  0.0791
  669MOL0     C88185   7.130   8.087   4.693 -0.0308 -0.5868 -1.0559
  669MOL0     C88186   6.992   8.022   4.724 -0.2846  0.5369 -0.3213
  669MOL0     C88187   6.909   8.110   4.823  0.3282  0.0860  0.0481
  669MOL0     C88188   6.757   8.100   4.806 -0.1231  0.0823 -0.2122
  669MOL0     C88189   6.695   8.168   4.682 -0.0819  0.1138  0.2577
  669MOL0     C88190   6.682   8.317   4.703 -0.3697 -0.0344 -0.0549
  669MOL0     C88191   6.676   8.373   4.555 -0.9930  1.0434 -0.5438
  669MOL0     C88192   6.666   8.524   4.536  0.2899  0.2960 -0.4445
  669MOL0     N88193   6.538   8.582   4.578 -0.0634 -0.0254  0.6213
  669MOL0     C88194   6.435   8.615   4.496 -0.1765  0.1564 -0.7127
  669MOL0     C88195   6.341   8.643   4.586 -0.8229 -1.0075 -0.1509
  669MOL0     C88196   6.194   8.660   4.560 -0.2671  0.0489  0.3072
  669MOL0     C88197   6.149   8.805   4.558 -0.0686 -0.2729  0.0224
  669MOL0     C88198   6.165   8.868   4.419  0.6137 -0.1122  0.3494
  669MOL0     C88199   6.111   9.018   4.401 -0.2012 -0.0675 -0.5346
  669MOL0     O88200   5.984   9.041   4.458  0.7306 -0.7171 -0.3274
  669MOL0     C88201   5.874   9.024   4.373  0.6945 -0.4342 -0.9341
  669MOL0     C88202   5.871   8.978   4.245  0.2618 -0.0953  0.2604
  669MOL0     C88203   5.755   8.949   4.176  0.4992 -0.3509  0.2002
  669MOL0     C88204   5.626   8.962   4.241 -0.0466  0.1125  0.0763
  669MOL0     C88205   5.497   8.919   4.173 -0.0932 -0.3389 -0.0575
  669MOL0     O88206   5.389   8.895   4.255 -0.1192  0.1070  0.0014
  669MOL0     C88207   5.266   8.852   4.222  0.0324  0.2415  0.1765
  669MOL0     C88208   5.165   8.868   4.311 -0.4790 -0.0420  0.1661
  669MOL0     C88209   5.042   8.813   4.291  0.5929  0.7035 -0.1005
  669MOL0     C88210   5.013   8.736   4.174 -0.5790  0.0406  0.3730
  669MOL0     O88211   4.884   8.693   4.170  0.3284 -0.5165 -0.1499
  669MOL0     C88212   4.822   8.645   4.047  0.4035 -0.3988  0.6459
  669MOL0     C88213   4.673   8.609   4.075 -0.5628  0.0120  0.9816
  669MOL0     C88214   4.585   8.728   4.106 -0.8887 -0.3996  0.2152
  669MOL0     C88215   4.578   8.829   3.988  0.2777  0.0238 -0.0985
  669MOL0     C88216   4.486   8.939   4.033  0.5874 -0.0448  0.1716
  669MOL0     C88217   4.446   9.035   3.919  0.3283 -0.5410  0.1723
  669MOL0     C88218   4.564   9.132   3.875  1.2523 -0.5018  0.4814
  669MOL0     C88219   4.499   9.253   3.816  0.5572  0.2703  0.1765
  669MOL0    Cl88220   4.638   9.334   3.734  0.0075 -0.0929  0.1032
  669MOL0     C88221   5.111   8.737   4.071  0.9170  0.0933  0.0673
  669MOL0     C88222   5.244   8.778   4.104 -0.1299  0.3178 -0.5237
  669MOL0     O88223   5.499   8.911   4.055 -0.6531 -0.3207  0.1555
  669MOL0     C88224   5.629   9.004   4.382 -0.6028  1.2771  0.4991
  669MOL0     C88225   5.750   9.039   4.445  0.5721 -0.5894 -0.0266
  669MOL0     N88226   6.379   8.642   4.715 -0.7349  0.3005 -0.4985
  669MOL0     N88227   6.501   8.610   4.707 -0.4522  0.4346  0.1305
  669MOL0     C88228   7.414   8.042   4.740  0.6874  0.7726 -1.4530
  669MOL0     C88229   7.550   8.043   4.718  0.4086 -0.2311  0.0455
  669MOL0     C88230   7.968   8.018   4.635 -0.2966  0.9587  0.3391
  669MOL0     C88231   8.075   7.928   4.655 -0.6229  0.1010 -0.2440
  669MOL0     C88232   8.209   7.969   4.656 -0.0141 -0.1383 -0.1342
  669MOL0     C88233   8.245   8.103   4.629  1.0253 -0.3170 -0.4463
  669MOL0     O88234   8.372   8.160   4.616 -0.0803 -0.4347 -0.2410
  669MOL0     C88235   8.489   8.074   4.615 -0.3395  0.3030  0.3539
  669MOL0     C88236   8.608   8.159   4.573 -0.0561 -0.3956  0.3338
  669MOL0     C88237   8.734   8.140   4.660  0.3283  0.4194 -1.4636
  669MOL0     C88238   8.800   8.005   4.628 -0.1061  0.7817  0.7367
  669MOL0     C88239   8.760   7.901   4.725 -0.0597  1.1222 -0.2727
  669MOL0     C88240   8.719   7.810   4.801 -0.7582 -0.0009  0.2782
  669MOL0     C88241   8.138   8.190   4.610 -0.4964 -0.7089  1.2717
  669MOL0     C88242   8.009   8.153   4.593 -0.1949 -0.8749 -0.1306
  669MOL0     H88243   7.583   7.988   4.398 -2.7797 -2.9272 -2.0035
  669MOL0     H88244   7.343   7.955   4.417  0.1451 -2.5952  0.8900
  669MOL0     H88245   7.111   8.166   4.620 -0.9145 -0.8195 -1.0886
  669MOL0     H88246   7.180   8.131   4.780  0.0899 -1.7868 -0.5049
  669MOL0     H88247   6.992   7.921   4.767 -2.1292  0.8940  0.6170
  669MOL0     H88248   6.949   8.005   4.625  3.3078  0.3506 -2.0403
  669MOL0     H88249   6.952   8.210   4.816  1.8706 -0.4833  0.7383
  669MOL0     H88250   6.937   8.088   4.927  0.4637  2.7015  0.6278
  669MOL0     H88251   6.730   7.994   4.802  0.0989 -0.0740  1.5984
  669MOL0     H88252   6.709   8.153   4.889 -0.5026 -0.4171 -0.1039
  669MOL0     H88253   6.598   8.123   4.658 -1.0013  1.5257  1.1796
  669MOL0     H88254   6.759   8.150   4.595 -0.6773  4.4454 -1.2886
  669MOL0     H88255   6.765   8.366   4.756  2.3445 -3.3079 -0.9157
  669MOL0     H88256   6.591   8.353   4.753  2.7362  3.3798  3.9472
  669MOL0     H88257   6.771   8.343   4.509 -0.3401  1.9195  0.1929
  669MOL0     H88258   6.593   8.319   4.508 -1.2804  0.8208  0.2005
  669MOL0     H88259   6.677   8.543   4.429  1.3060 -1.9473 -0.7890
  669MOL0     H88260   6.751   8.574   4.584 -0.8142  1.9081 -0.1089
  669MOL0     H88261   6.428   8.615   4.388 -1.4068  2.0185 -0.6730
  669MOL0     H88262   6.141   8.621   4.647 -0.7876 -0.5989 -0.2907
  669MOL0     H88263   6.158   8.603   4.473  0.5126 -0.9522  0.6214
  669MOL0     H88264   6.210   8.865   4.627  1.2093 -2.3272  0.7823
  669MOL0     H88265   6.045   8.806   4.591 -0.4258 -0.2081 -1.0692
  669MOL0     H88266   6.270   8.863   4.390  0.8355 -1.3377  1.2571
  669MOL0     H88267   6.101   8.812   4.350 -0.0950 -1.4845  2.0279
  669MOL0     H88268   6.111   9.049   4.296 -0.5200  1.0729 -0.2147
  669MOL0     H88269   6.179   9.086   4.451 -0.0638 -0.9853  0.5653
  669MOL0     H88270   5.965   8.964   4.192  0.4596  2.4245 -0.1486
  669MOL0     H88271   5.765   8.921   4.071  0.3485  0.6982 -0.1053
  669MOL0     H88272   5.168   8.924   4.403  0.6614  0.8837 -0.4097
  669MOL0     H88273   4.966   8.827   4.367  1.8165  1.0296  1.0997
  669MOL0     H88274   4.861   8.548   4.017 -2.2247 -1.1838 -0.4933
  669MOL0     H88275   4.837   8.720   3.968 -0.1251 -3.0185 -2.1121
  669MOL0     H88276   4.665   8.543   4.162  0.8487 -0.4995  0.7504
  669MOL0     H88277   4.624   8.569   3.986  1.7648  2.0107 -1.3741
  669MOL0     H88278   4.628   8.770   4.197 -3.7216  3.6671 -0.0137
  669MOL0     H88279   4.483   8.697   4.133 -1.0262 -1.2609 -1.1961
  669MOL0     H88280   4.679   8.865   3.966 -1.1759  3.0122 -2.7599
  669MOL0     H88281   4.548   8.782   3.894  2.4596 -0.7004 -0.5002
  669MOL0     H88282   4.544   9.001   4.102  0.6905 -0.4710  0.4706
  669MOL0     H88283   4.393   8.901   4.076 -1.4433  2.2423 -1.8666
  669MOL0     H88284   4.355   9.084   3.954  0.9562  1.4549 -0.8010
  669MOL0     H88285   4.412   8.969   3.838  1.2673  1.6171 -2.1070
  669MOL0     H88286   4.631   9.169   3.953  0.1372  2.4287  0.1824
  669MOL0     H88287   4.630   9.081   3.804  1.6053 -0.2032  0.5961
  669MOL0     H88288   4.453   9.320   3.889  1.3053 -0.0676  0.9833
  669MOL0     H88289   4.421   9.228   3.744  1.5794  0.8765 -1.1860
  669MOL0     H88290   5.085   8.672   3.988  1.9072  0.2281 -0.3624
  669MOL0     H88291   5.311   8.742   4.026 -1.8902 -0.7595 -1.6321
  669MOL0     H88292   5.539   8.998   4.442 -1.1927  1.4445 -0.3405
  669MOL0     H88293   5.751   9.063   4.550 -0.9474  0.2425 -0.1736
  669MOL0     H88294   7.369   8.073   4.833  2.1820 -0.1773 -0.3634
  669MOL0     H88295   7.598   8.055   4.815 -0.9838 -1.7411  0.9860
  669MOL0     H88296   8.063   7.821   4.667  0.3324  0.0322  0.2139
  669MOL0     H88297   8.287   7.894   4.671 -2.1575 -3.1118 -2.5766
  669MOL0     H88298   8.483   7.988   4.548 -0.5347  0.7498 -0.2140
  669MOL0     H88299   8.504   8.043   4.719  1.6729  1.2660  0.3945
  669MOL0     H88300   8.643   8.144   4.471 -1.6231 -0.3605 -0.2298
  669MOL0     H88301   8.582   8.265   4.580  1.3398 -0.0238  0.2915
  669MOL0     H88302   8.699   8.142   4.764  3.9434  1.5136 -0.1070
  669MOL0     H88303   8.811   8.214   4.638  2.2051 -0.9592  0.0844
  669MOL0     H88304   8.773   7.996   4.522 -0.9302  1.2737  0.8936
  669MOL0     H88305   8.909   8.015   4.635 -0.0823 -0.4225  3.0068
  669MOL0     H88306   8.677   7.734   4.864  1.2714 -1.0458  0.4522
  669MOL0     H88307   8.168   8.294   4.599 -1.4855 -0.5821 -0.4752
  669MOL0     H88308   7.939   8.232   4.566  0.7511  0.9379  2.2931
  670MOL0     O88309   6.484   7.248   5.853 -0.1678  0.2523 -0.5221
  670MOL0     C88310   6.548   7.244   5.745 -0.1411  0.4264 -0.8523
  670MOL0     O88311   6.489   7.224   5.619  0.2807  0.7571 -0.0722
  670MOL0     C88312   6.356   7.175   5.627  0.3621 -0.2620 -0.4378
  670MOL0     C88313   6.270   7.228   5.535 -0.1340  1.0414  0.8432
  670MOL0     C88314   6.142   7.180   5.526  0.7697  0.1893 -0.8668
  670MOL0     C88315   6.093   7.078   5.609 -0.7713 -0.6890 -0.1109
  670MOL0     O88316   5.967   7.041   5.596  0.7357  0.5325  0.0429
  670MOL0     C88317   5.897   6.949   5.683 -0.5432 -0.4436  0.1808
  670MOL0     C88318   5.742   6.965   5.636  0.6941 -0.4216 -0.2576
  670MOL0     C88319   5.658   6.863   5.713 -0.1102  0.5854 -0.4611
  670MOL0     C88320   5.519   6.858   5.647 -1.2349 -0.2001  0.4583
  670MOL0     C88321   5.427   6.762   5.716 -0.2959  0.5960  0.2640
  670MOL0     C88322   5.292   6.744   5.649  0.9686 -0.0787 -0.0562
  670MOL0     C88323   5.202   6.871   5.663 -0.1920  0.1311  1.5930
  670MOL0     C88324   5.139   6.914   5.795 -0.6626  0.6799  0.1448
  670MOL0     N88325   5.027   6.821   5.833 -0.0546  0.2861  0.0025
  670MOL0     C88326   4.888   6.846   5.805 -0.2861 -0.8151 -0.6642
  670MOL0     C88327   4.834   6.740   5.869 -0.2111 -0.0391  0.6459
  670MOL0     C88328   4.687   6.713   5.880  0.2221  0.1671  0.1849
  670MOL0     C88329   4.632   6.785   6.005  0.2201 -0.1203  0.3084
  670MOL0     C88330   4.487   6.821   5.981  0.4907  0.1111 -0.4021
  670MOL0     C88331   4.430   6.898   6.102 -0.0704 -0.6761  0.8328
  670MOL0     O88332   4.300   6.949   6.053 -0.7580 -0.2591  0.2721
  670MOL0     C88333   4.193   6.906   6.125  0.9551  0.4323  0.7283
  670MOL0     C88334   4.133   6.997   6.214 -0.9614  0.1642  0.1458
  670MOL0     C88335   4.015   6.964   6.280 -0.3342 -1.2163 -0.5640
  670MOL0     C88336   3.955   6.839   6.265 -0.4497 -0.2682 -0.2622
  670MOL0     C88337   3.837   6.812   6.347  0.6376 -0.2261  1.2580
  670MOL0     O88338   3.781   6.916   6.412  0.4282 -0.5695 -0.4174
  670MOL0     C88339   3.661   6.898   6.476  0.1759 -0.2758 -0.1736
  670MOL0     C88340   3.647   6.887   6.620  0.3614  0.1126  0.2573
  670MOL0     C88341   3.520   6.864   6.674 -1.1016 -0.3806 -0.0854
  670MOL0     C88342   3.412   6.841   6.591 -0.4381 -0.2902 -0.0883
  670MOL0     O88343   3.297   6.825   6.660  0.5850 -0.5189 -0.5514
  670MOL0     C88344   3.189   6.762   6.586  0.1217  0.7555  0.9577
  670MOL0     C88345   3.078   6.747   6.688  0.1892 -0.2324 -0.1784
  670MOL0     C88346   3.119   6.662   6.805  0.0015  0.8052  0.0029
  670MOL0     C88347   2.992   6.639   6.888  0.6047  0.6875 -0.6931
  670MOL0     C88348   3.005   6.529   6.998 -0.4887 -0.6256 -0.2500
  670MOL0     C88349   3.006   6.385   6.934  0.1938  0.3056 -0.8890
  670MOL0     C88350   3.010   6.289   7.055 -0.7239 -0.0763 -0.1874
  670MOL0     C88351   3.010   6.140   7.019  0.8062 -0.3070 -0.3786
  670MOL0    Cl88352   2.857   6.090   6.945 -0.1172  0.1175  0.5545
  670MOL0     C88353   3.424   6.864   6.451  0.1844 -0.0513 -0.2082
  670MOL0     C88354   3.544   6.888   6.395 -0.6147  0.1296 -0.0806
  670MOL0     O88355   3.802   6.695   6.359  0.5680  0.5575 -0.6006
  670MOL0     C88356   4.028   6.747   6.189  0.1311  0.0482  0.3745
  670MOL0     C88357   4.146   6.778   6.118  0.1428  0.0482  0.3215
  670MOL0     N88358   4.933   6.663   5.932  0.1526  0.7066  0.4378
  670MOL0     N88359   5.049   6.712   5.906  0.6200 -0.0058  0.5043
  670MOL0     C88360   6.175   7.032   5.707 -0.2388 -0.1580 -0.2201
  670MOL0     C88361   6.311   7.072   5.712 -0.0028  0.5840 -0.6544
  670MOL0     C88362   6.693   7.270   5.758 -0.5746  0.4304  0.1179
  670MOL0     C88363   6.780   7.246   5.646  0.6761  1.1385  0.2555
  670MOL0     C88364   6.913   7.268   5.664  0.3562 -0.5936  0.2554
  670MOL0     C88365   6.972   7.313   5.780  0.5855  0.0225  0.3618
  670MOL0     O88366   7.114   7.330   5.780  0.4546 -0.5459 -0.0407
  670MOL0     C88367   7.190   7.323   5.900 -0.2955 -0.5312  0.6547
  670MOL0     C88368   7.223   7.176   5.948 -0.1919 -0.4209 -0.6537
  670MOL0     C88369   7.322   7.173   6.068  0.7470 -0.5651 -0.3912
  670MOL0     C88370   7.457   7.229   6.033  0.5698 -0.0960  0.4778
  670MOL0     C88371   7.503   7.203   5.893 -0.2264 -0.0989  0.3664
  670MOL0     C88372   7.563   7.181   5.792 -0.0870 -0.3089  0.1381
  670MOL0     C88373   6.885   7.345   5.883  0.1994  0.1964  0.3863
  670MOL0     C88374   6.747   7.319   5.879 -0.2541 -0.0202  0.6148
  670MOL0     H88375   6.300   7.308   5.467 -2.1507  1.0063 -0.1755
  670MOL0     H88376   6.072   7.240   5.470  1.6112  2.3506  0.2719
  670MOL0     H88377   5.902   6.978   5.788 -0.3949 -1.6428  0.5240
  670MOL0     H88378   5.931   6.847   5.662 -0.3788 -0.0493 -1.6251
  670MOL0     H88379   5.730   6.967   5.528 -0.0229  0.4920 -0.1717
  670MOL0     H88380   5.705   7.061   5.673  2.2467  1.2297 -2.7171
  670MOL0     H88381   5.666   6.886   5.820  1.3269  0.9740 -0.6380
  670MOL0     H88382   5.704   6.764   5.703  3.1375  2.0504 -1.3414
  670MOL0     H88383   5.479   6.959   5.635 -3.9752 -1.4870 -2.8220
  670MOL0     H88384   5.535   6.829   5.543  2.4340  1.6059  0.3561
  670MOL0     H88385   5.413   6.804   5.816 -1.3234  2.2452 -0.5248
  670MOL0     H88386   5.476   6.664   5.725 -0.3779 -0.1694 -4.9190
  670MOL0     H88387   5.238   6.659   5.693  0.9433 -0.3924 -0.6811
  670MOL0     H88388   5.317   6.725   5.544  3.0326 -0.3599  0.4335
  670MOL0     H88389   5.253   6.954   5.613  1.5266 -2.0639 -0.5329
  670MOL0     H88390   5.123   6.840   5.594  2.1234 -0.2414 -1.0857
  670MOL0     H88391   5.105   7.017   5.791 -2.9637 -0.0539 -0.8475
  670MOL0     H88392   5.214   6.904   5.875 -1.6127  2.7006  1.3474
  670MOL0     H88393   4.839   6.928   5.753 -2.7210 -1.4980  0.4397
  670MOL0     H88394   4.669   6.605   5.887  2.1617 -0.2498 -0.7249
  670MOL0     H88395   4.634   6.738   5.787  1.3351 -1.1855 -0.8486
  670MOL0     H88396   4.687   6.878   6.017 -1.5808  0.9878  0.3398
  670MOL0     H88397   4.644   6.732   6.100  3.8217  1.4587  0.9074
  670MOL0     H88398   4.485   6.881   5.890  0.1375  0.5410 -0.1142
  670MOL0     H88399   4.431   6.728   5.968  0.1655  0.1945  0.3214
  670MOL0     H88400   4.492   6.982   6.133  0.4456 -0.5755 -0.4239
  670MOL0     H88401   4.420   6.832   6.188  1.9434 -0.7456  1.0557
  670MOL0     H88402   4.174   7.097   6.212  0.3601 -0.3293 -2.8924
  670MOL0     H88403   3.959   7.034   6.342 -0.0163  0.3089 -1.9472
  670MOL0     H88404   3.734   6.894   6.685 -0.1404 -1.0022  1.0712
  670MOL0     H88405   3.508   6.860   6.782  2.1171 -0.1446  0.3974
  670MOL0     H88406   3.218   6.669   6.537 -1.0633  1.4883 -1.3058
  670MOL0     H88407   3.152   6.830   6.508 -1.4622 -1.9502 -0.8211
  670MOL0     H88408   2.999   6.695   6.633 -1.3348 -1.9223  3.2999
  670MOL0     H88409   3.040   6.844   6.723  0.5720 -0.4463  0.8798
  670MOL0     H88410   3.205   6.705   6.858 -1.1850  2.0133  1.0316
  670MOL0     H88411   3.141   6.561   6.771 -3.6538  0.4652 -1.8068
  670MOL0     H88412   2.974   6.730   6.946 -2.8272 -1.0754  1.3202
  670MOL0     H88413   2.904   6.611   6.830 -0.9533 -4.2189  3.3174
  670MOL0     H88414   2.922   6.539   7.068 -0.7590  0.4730 -0.6940
  670MOL0     H88415   3.094   6.541   7.062 -1.4685  2.8901  0.7270
  670MOL0     H88416   3.091   6.364   6.869  0.3416 -1.3089 -0.2318
  670MOL0     H88417   2.908   6.363   6.890 -0.3185 -0.8154  0.6976
  670MOL0     H88418   3.100   6.321   7.108 -1.0018  1.4452 -0.5751
  670MOL0     H88419   2.924   6.295   7.123 -0.9395 -2.6549 -0.1341
  670MOL0     H88420   3.024   6.085   7.112  0.8192  1.5053  0.7539
  670MOL0     H88421   3.087   6.115   6.945  1.1400  0.9031 -0.4736
  670MOL0     H88422   3.338   6.857   6.384  0.2724 -0.7924 -0.2578
  670MOL0     H88423   3.549   6.901   6.288  0.9826 -1.7279 -0.2828
  670MOL0     H88424   3.987   6.647   6.178  0.3930 -0.1253  0.9372
  670MOL0     H88425   4.194   6.710   6.049  2.5410  2.0650 -0.1218
  670MOL0     H88426   6.136   6.983   5.796 -1.5582  1.7758  0.3399
  670MOL0     H88427   6.380   7.012   5.770  0.0393 -1.0398 -2.2911
  670MOL0     H88428   6.750   7.202   5.551 -1.8003  1.8173  0.6599
  670MOL0     H88429   6.973   7.238   5.579  0.5377  0.4107  0.0130
  670MOL0     H88430   7.152   7.393   5.975  0.6337 -0.9162  1.5105
  670MOL0     H88431   7.279   7.379   5.869 -1.1296  0.5995  0.2236
  670MOL0     H88432   7.133   7.119   5.975 -1.1542  0.9965 -0.7403
  670MOL0     H88433   7.260   7.113   5.867 -1.3790 -0.9692 -0.8056
  670MOL0     H88434   7.340   7.067   6.090 -0.9270 -0.8218 -0.1367
  670MOL0     H88435   7.285   7.219   6.160  5.7990  1.2311  1.0728
  670MOL0     H88436   7.450   7.337   6.045 -1.1067 -0.2489  1.1344
  670MOL0     H88437   7.533   7.190   6.101  0.8060 -2.0037 -0.7743
  670MOL0     H88438   7.623   7.153   5.708 -0.6494  1.3559 -0.8570
  670MOL0     H88439   6.926   7.394   5.971  2.2197  1.1221 -1.0007
  670MOL0     H88440   6.686   7.348   5.965  0.0558  1.4137  0.3776
  671MOL0     O88441   6.442   2.115   8.659  0.4649  0.1999  0.0445
  671MOL0     C88442   6.501   2.053   8.747  0.1106  0.3219  0.1804
  671MOL0     O88443   6.454   2.021   8.864  0.1703  0.0760  0.3113
  671MOL0     C88444   6.314   2.026   8.875 -0.1863  0.1287  0.5275
  671MOL0     C88445   6.244   2.147   8.871  0.1787 -0.8891 -0.1899
  671MOL0     C88446   6.104   2.145   8.900 -0.1156 -0.7342  0.2234
  671MOL0     C88447   6.026   2.031   8.929 -0.4248 -0.3185 -0.2285
  671MOL0     O88448   5.890   2.035   8.936  0.0644  0.3781 -0.3954
  671MOL0     C88449   5.826   1.923   8.859  0.6454 -0.2308  0.7444
  671MOL0     C88450   5.673   1.935   8.865 -1.0003 -1.1131  0.2795
  671MOL0     C88451   5.623   2.076   8.816 -1.3771 -0.4554  0.4056
  671MOL0     C88452   5.510   2.078   8.718 -0.2519  0.6659 -0.1731
  671MOL0     C88453   5.382   2.027   8.793  0.0658  0.6543  0.2574
  671MOL0     C88454   5.264   2.046   8.707  0.5847 -1.0035 -0.3718
  671MOL0     C88455   5.146   1.969   8.770 -0.3004 -0.7923  0.1418
  671MOL0     C88456   5.026   1.996   8.684 -0.2330  0.0407  0.0486
  671MOL0     N88457   4.904   1.926   8.732  0.6475  0.5540  1.2199
  671MOL0     C88458   4.895   1.796   8.767 -0.1945  0.0718  0.6302
  671MOL0     C88459   4.763   1.766   8.753 -0.3259  0.7396 -0.7202
  671MOL0     C88460   4.707   1.626   8.760 -0.7435 -1.3799 -0.6488
  671MOL0     C88461   4.573   1.609   8.689 -0.4404  0.4495 -0.0158
  671MOL0     C88462   4.536   1.457   8.683  0.9040  0.0062  0.0585
  671MOL0     C88463   4.402   1.427   8.616 -0.7139  1.0570 -0.0078
  671MOL0     O88464   4.296   1.491   8.689 -0.1148 -0.7705 -0.2011
  671MOL0     C88465   4.166   1.493   8.636 -0.5000 -0.4392 -0.2983
  671MOL0     C88466   4.059   1.559   8.698 -0.7485 -0.0290  0.3531
  671MOL0     C88467   3.926   1.564   8.643 -0.1104 -0.2450 -0.1352
  671MOL0     C88468   3.904   1.497   8.522  0.2081 -0.3001  0.4974
  671MOL0     C88469   3.779   1.505   8.441  0.2608  0.1761 -0.1600
  671MOL0     O88470   3.773   1.425   8.320  0.2534 -0.0221 -0.1992
  671MOL0     C88471   3.653   1.408   8.253  0.4090  0.0330 -0.0629
  671MOL0     C88472   3.520   1.398   8.299 -0.4943  0.5297 -0.3766
  671MOL0     C88473   3.412   1.414   8.211 -0.2511  0.2397  0.4070
  671MOL0     C88474   3.432   1.415   8.073 -0.5302  0.1514  0.1437
  671MOL0     O88475   3.335   1.407   7.980 -0.3695 -0.2308 -0.2271
  671MOL0     C88476   3.198   1.417   8.000  0.8555  0.5059 -0.4527
  671MOL0     C88477   3.123   1.382   7.873 -0.2331 -0.0914  0.1912
  671MOL0     C88478   3.122   1.489   7.761  0.4885  0.4306 -0.0953
  671MOL0     C88479   3.263   1.485   7.698  0.0925 -0.2441 -0.2099
  671MOL0     C88480   3.287   1.578   7.577 -0.7331 -0.3226 -0.4025
  671MOL0     C88481   3.191   1.562   7.459 -0.4236  0.4835  0.1909
  671MOL0     C88482   3.225   1.665   7.349  0.4745 -0.0303  0.9513
  671MOL0     C88483   3.168   1.613   7.214  0.3523  0.0999 -0.1638
  671MOL0    Cl88484   3.261   1.693   7.090  0.0094  0.1056  0.4730
  671MOL0     C88485   3.571   1.412   8.025  0.5699  0.5905 -0.2624
  671MOL0     C88486   3.678   1.402   8.116 -0.7306  0.3086  0.1973
  671MOL0     O88487   3.689   1.575   8.478 -1.2920  1.0151 -0.0009
  671MOL0     C88488   4.012   1.430   8.468 -0.0338 -0.7068 -0.2100
  671MOL0     C88489   4.133   1.432   8.515 -0.6146  0.7603  0.4480
  671MOL0     N88490   4.698   1.874   8.705 -0.0232  0.4778 -0.1972
  671MOL0     N88491   4.788   1.966   8.687  0.3148  0.6058 -0.3262
  671MOL0     C88492   6.101   1.909   8.940  0.8729 -0.5327 -0.0364
  671MOL0     C88493   6.233   1.911   8.916  0.1683 -1.2316  0.0579
  671MOL0     C88494   6.644   2.000   8.716  0.2569 -0.1354  0.3233
  671MOL0     C88495   6.695   2.031   8.588  0.2553  0.1668  1.2378
  671MOL0     C88496   6.825   1.996   8.556  0.2053  0.6109 -0.5426
  671MOL0     C88497   6.910   1.937   8.650 -0.1631  0.5218 -0.0680
  671MOL0     O88498   7.046   1.920   8.633  0.1372 -0.5886  0.0019
  671MOL0     C88499   7.109   2.004   8.528  0.8098 -0.3740 -0.2724
  671MOL0     C88500   7.257   2.007   8.551  1.0226  0.5943 -0.1139
  671MOL0     C88501   7.285   2.059   8.695  0.0063  0.2070 -0.9109
  671MOL0     C88502   7.438   2.089   8.706  0.0998  0.4975  0.7850
  671MOL0     C88503   7.490   2.097   8.841 -0.8730 -0.5101  0.0178
  671MOL0     C88504   7.540   2.087   8.951 -0.8965  0.3546 -0.0894
  671MOL0     C88505   6.854   1.895   8.773  0.5918  0.7182  0.1519
  671MOL0     C88506   6.720   1.922   8.812 -0.9508  0.0046 -1.3881
  671MOL0     H88507   6.296   2.235   8.836  1.3804 -2.8482 -3.9160
  671MOL0     H88508   6.044   2.234   8.885 -0.6565 -0.9704  0.9220
  671MOL0     H88509   5.858   1.827   8.901  1.2315 -0.1976  0.3849
  671MOL0     H88510   5.858   1.922   8.755 -1.1870 -0.1323  0.1372
  671MOL0     H88511   5.640   1.918   8.968 -0.7158 -1.0131  0.3856
  671MOL0     H88512   5.637   1.855   8.800  1.0142 -1.1387 -0.8842
  671MOL0     H88513   5.711   2.133   8.787 -1.9810 -0.9586 -2.7148
  671MOL0     H88514   5.586   2.126   8.907 -0.9290 -2.6583  1.8926
  671MOL0     H88515   5.490   2.179   8.681  1.2878  1.3078  0.6491
  671MOL0     H88516   5.521   2.025   8.624 -3.4698  0.1668 -0.3778
  671MOL0     H88517   5.373   2.079   8.889  0.8833 -0.0388  0.7296
  671MOL0     H88518   5.390   1.924   8.828 -0.3527  0.3563 -0.4973
  671MOL0     H88519   5.280   2.008   8.605  0.3640 -1.5919 -0.1957
  671MOL0     H88520   5.241   2.153   8.705  0.1315 -1.0978 -1.5700
  671MOL0     H88521   5.174   1.863   8.769 -0.6806 -0.9258 -2.1082
  671MOL0     H88522   5.127   2.008   8.870 -1.2588  0.4711 -0.5034
  671MOL0     H88523   5.054   1.974   8.581 -0.9667  0.6626 -0.2917
  671MOL0     H88524   5.002   2.102   8.684 -1.1890 -0.1562  0.5976
  671MOL0     H88525   4.974   1.730   8.800 -0.1634  0.4026  1.2486
  671MOL0     H88526   4.686   1.607   8.866 -1.4333  0.9544 -0.3089
  671MOL0     H88527   4.780   1.552   8.727 -1.0212 -0.7430 -2.8923
  671MOL0     H88528   4.580   1.650   8.588 -1.2971  2.9938  0.8604
  671MOL0     H88529   4.494   1.663   8.742 -1.3960  0.8299 -1.7641
  671MOL0     H88530   4.617   1.408   8.629  1.2066  2.4249 -1.8432
  671MOL0     H88531   4.525   1.422   8.786  0.3102 -1.0658 -0.3465
  671MOL0     H88532   4.399   1.318   8.610  0.5302  0.8378  2.1990
  671MOL0     H88533   4.395   1.456   8.511 -1.6728  1.6663  0.2075
  671MOL0     H88534   4.073   1.587   8.802 -3.3492  0.7415  0.5729
  671MOL0     H88535   3.857   1.632   8.692  1.6854  1.8315 -0.3325
  671MOL0     H88536   3.496   1.394   8.404  0.9847  0.5196 -0.0164
  671MOL0     H88537   3.314   1.405   8.259  0.9245 -0.9718  2.7701
  671MOL0     H88538   3.166   1.518   8.029 -0.8001 -0.8363  2.8471
  671MOL0     H88539   3.166   1.350   8.079 -0.4750  1.2239 -0.3649
  671MOL0     H88540   3.018   1.361   7.896 -0.8010  0.1898 -1.9473
  671MOL0     H88541   3.154   1.284   7.836 -0.1729 -0.4143  1.0625
  671MOL0     H88542   3.100   1.587   7.805 -1.7240 -0.1104  0.1364
  671MOL0     H88543   3.040   1.458   7.696  0.1413 -1.3516  1.1201
  671MOL0     H88544   3.339   1.518   7.770 -1.2388 -0.3762  1.3058
  671MOL0     H88545   3.284   1.385   7.659  0.3370  0.1686 -1.1613
  671MOL0     H88546   3.390   1.563   7.541 -0.2521  3.7054 -1.1672
  671MOL0     H88547   3.287   1.682   7.611 -0.4969 -0.1661 -0.8742
  671MOL0     H88548   3.090   1.589   7.492 -0.0510  0.9313  1.0156
  671MOL0     H88549   3.191   1.457   7.428 -1.5168  0.7076 -0.6114
  671MOL0     H88550   3.179   1.762   7.368  0.2609 -0.2533  1.6087
  671MOL0     H88551   3.334   1.677   7.344  0.4552 -0.0874  0.3012
  671MOL0     H88552   3.060   1.628   7.210 -0.8229 -5.0790  2.6735
  671MOL0     H88553   3.192   1.513   7.178  1.6889  1.0887 -2.2290
  671MOL0     H88554   3.584   1.402   7.918  1.6082  0.8862 -0.1717
  671MOL0     H88555   3.773   1.406   8.063 -0.7491 -0.0594  0.1267
  671MOL0     H88556   4.002   1.386   8.369  0.1369 -3.6328  0.9724
  671MOL0     H88557   4.204   1.371   8.459 -1.5644 -0.3646  0.4282
  671MOL0     H88558   6.059   1.818   8.983  0.4340 -0.1036  0.4491
  671MOL0     H88559   6.289   1.821   8.940  1.3703 -0.6855 -0.5773
  671MOL0     H88560   6.637   2.083   8.512 -0.9685  1.2250  2.8287
  671MOL0     H88561   6.851   2.009   8.452  0.9741 -4.4199 -1.2241
  671MOL0     H88562   7.071   2.106   8.526  1.1572 -0.2298  0.2474
  671MOL0     H88563   7.106   1.955   8.429  4.0541 -1.3404 -0.0239
  671MOL0     H88564   7.312   1.918   8.522  2.7299  1.2109  1.0517
  671MOL0     H88565   7.305   2.077   8.482  2.8032  0.0163  0.4791
  671MOL0     H88566   7.254   1.993   8.777  0.9552  1.3985  0.4510
  671MOL0     H88567   7.229   2.149   8.721 -2.1965 -1.5172  0.7232
  671MOL0     H88568   7.485   1.997   8.670 -0.4279  0.9023 -1.0540
  671MOL0     H88569   7.461   2.180   8.649 -0.8653 -0.7696 -1.8199
  671MOL0     H88570   7.583   2.072   9.048 -1.8698  0.3979  0.3564
  671MOL0     H88571   6.923   1.848   8.842  1.3403 -1.0824 -1.7140
  671MOL0     H88572   6.676   1.909   8.911  0.8514 -0.4759 -0.6099
  672MOL0     O88573   9.857   7.065   1.630 -0.3785 -0.0925  1.2210
  672MOL0     C88574   9.905   7.021   1.523  0.2809 -0.3941 -0.3321
  672MOL0     O88575   9.828   6.975   1.416 -0.2363  0.8487  0.0159
  672MOL0     C88576   9.691   6.977   1.413 -0.2367  0.5938 -0.0361
  672MOL0     C88577   9.627   6.851   1.378  0.3636  0.0601  0.5783
  672MOL0     C88578   9.479   6.845   1.364 -0.5732 -0.8221 -0.1454
  672MOL0     C88579   9.409   6.960   1.394  0.1521  0.3462  0.4420
  672MOL0     O88580   9.273   6.939   1.384 -0.5238  0.5416  0.9819
  672MOL0     C88581   9.197   7.027   1.306  0.5907  0.4540  0.1833
  672MOL0     C88582   9.061   6.976   1.269  0.3950 -0.9290 -0.0317
  672MOL0     C88583   9.068   6.854   1.188 -0.1427  0.7183 -0.2102
  672MOL0     C88584   8.933   6.781   1.145  0.5433  0.4667 -0.0497
  672MOL0     C88585   8.944   6.651   1.063 -0.0749 -0.0995 -1.2988
  672MOL0     C88586   8.969   6.530   1.148 -0.6848  1.1346  0.4463
  672MOL0     C88587   9.018   6.401   1.069  0.0194  0.1225  0.3920
  672MOL0     C88588   9.050   6.277   1.161  0.2691 -0.0443 -0.8418
  672MOL0     N88589   8.962   6.159   1.152 -0.1195  0.1409 -0.2809
  672MOL0     C88590   8.952   6.080   1.043 -0.9387 -0.6851 -0.0311
  672MOL0     C88591   8.853   5.994   1.076 -0.1252 -0.1299  0.2553
  672MOL0     C88592   8.800   5.884   0.993 -0.3230  0.3388 -1.0077
  672MOL0     C88593   8.673   5.920   0.917  0.2735 -0.4706  1.1717
  672MOL0     C88594   8.644   5.833   0.797  0.2103 -0.2395 -0.5385
  672MOL0     C88595   8.520   5.879   0.715  0.0925  0.2302  0.6416
  672MOL0     O88596   8.461   5.785   0.628 -0.3088 -0.0124  0.3086
  672MOL0     C88597   8.335   5.739   0.662  0.6286  0.2627 -0.4970
  672MOL0     C88598   8.271   5.745   0.788 -0.1728 -0.6527 -0.1057
  672MOL0     C88599   8.137   5.713   0.791  0.6295  0.2987 -0.5929
  672MOL0     C88600   8.065   5.671   0.682  0.4624  0.4851 -1.0751
  672MOL0     C88601   7.919   5.654   0.701 -0.0180 -0.0073  0.2910
  672MOL0     O88602   7.846   5.638   0.586 -0.0340 -0.7087 -0.1866
  672MOL0     C88603   7.714   5.655   0.598  0.0941  1.5619 -1.3263
  672MOL0     C88604   7.641   5.728   0.504  1.3958 -0.2951  0.2693
  672MOL0     C88605   7.498   5.727   0.500 -0.1809 -0.1643  0.2274
  672MOL0     C88606   7.428   5.654   0.593  0.5929  0.0410 -0.5426
  672MOL0     O88607   7.288   5.643   0.586 -0.6403  0.3498  0.3413
  672MOL0     C88608   7.215   5.754   0.526  0.0970 -0.5761  1.0763
  672MOL0     C88609   7.063   5.747   0.542 -0.3692  0.3335  1.4522
  672MOL0     C88610   7.034   5.742   0.696  1.2366 -0.3874  0.5105
  672MOL0     C88611   6.922   5.826   0.747 -0.2018 -0.2061 -0.2439
  672MOL0     C88612   6.790   5.788   0.695  0.0515 -0.4214  0.3757
  672MOL0     C88613   6.685   5.844   0.782 -0.7795  1.1724  0.2183
  672MOL0     C88614   6.550   5.837   0.725  0.3805 -0.0080  0.5055
  672MOL0     C88615   6.524   5.936   0.601  0.7646 -0.0587  0.8534
  672MOL0    Cl88616   6.568   6.100   0.661  0.0698 -0.1742  0.2745
  672MOL0     C88617   7.503   5.572   0.680 -0.2140  0.1500 -1.3607
  672MOL0     C88618   7.639   5.574   0.686 -0.2301 -0.7782  0.2664
  672MOL0     O88619   7.871   5.664   0.809 -0.1668 -0.3826  0.2918
  672MOL0     C88620   8.128   5.661   0.564  0.4120 -0.6183 -0.0730
  672MOL0     C88621   8.255   5.697   0.556 -0.2118  0.6386 -0.2120
  672MOL0     N88622   8.797   6.036   1.195  0.5116  0.1884  0.1782
  672MOL0     N88623   8.859   6.127   1.243 -0.5415 -0.5018 -0.9072
  672MOL0     C88624   9.477   7.079   1.422 -0.0064  0.9793 -1.2820
  672MOL0     C88625   9.614   7.086   1.432  0.0182 -0.9099  0.4728
  672MOL0     C88626  10.057   7.042   1.502  0.2764  0.1630 -0.0657
  672MOL0     C88627  10.141   7.080   1.604  0.0779  0.6349  0.1837
  672MOL0     C88628  10.279   7.072   1.601 -0.2582  0.2993 -0.1696
  672MOL0     C88629  10.344   7.036   1.476  1.0123 -0.4144  0.0178
  672MOL0     O88630  10.478   7.032   1.449 -0.2810 -0.2727  0.1235
  672MOL0     C88631  10.552   7.045   1.572 -0.3219  0.5695  0.1856
  672MOL0     C88632  10.700   7.015   1.542  0.8290 -0.1392 -0.3256
  672MOL0     C88633  10.777   7.063   1.663  0.5292  0.4225  0.0627
  672MOL0     C88634  10.927   7.044   1.632 -0.2546  0.4260  0.1094
  672MOL0     C88635  10.975   6.903   1.639 -0.6267 -0.5452 -0.3981
  672MOL0     C88636  11.007   6.790   1.631  0.0103 -0.1977  0.2941
  672MOL0     C88637  10.258   7.010   1.362 -0.2002  0.4500  0.1282
  672MOL0     C88638  10.114   7.014   1.369 -0.5777 -0.7318 -0.4141
  672MOL0     H88639   9.681   6.759   1.358  1.4968  1.1785 -1.9328
  672MOL0     H88640   9.434   6.752   1.330  2.9315 -2.0979 -1.7343
  672MOL0     H88641   9.262   7.056   1.223  2.6048 -1.9025  0.8295
  672MOL0     H88642   9.182   7.119   1.363 -0.0876  1.7923 -2.0160
  672MOL0     H88643   9.010   7.057   1.215  0.5008 -1.6841 -1.3028
  672MOL0     H88644   9.019   6.951   1.366  2.7449 -0.1227  1.2654
  672MOL0     H88645   9.115   6.771   1.242 -2.3564 -1.1058 -0.9239
  672MOL0     H88646   9.123   6.872   1.095 -1.4623 -0.6599 -1.3107
  672MOL0     H88647   8.882   6.760   1.240  0.0046  0.0282 -0.4296
  672MOL0     H88648   8.881   6.856   1.085  1.8313  1.0981 -0.4012
  672MOL0     H88649   9.028   6.661   0.993  0.3586  0.0230 -0.7683
  672MOL0     H88650   8.854   6.637   1.003 -3.1659 -0.7408  3.0277
  672MOL0     H88651   8.882   6.512   1.212  0.1094  0.3826  1.3263
  672MOL0     H88652   9.051   6.553   1.216  2.6346 -2.2025 -2.0390
  672MOL0     H88653   8.942   6.362   1.000  2.2253 -0.5058 -1.8154
  672MOL0     H88654   9.104   6.420   1.004  0.0731  4.4182  1.3826
  672MOL0     H88655   9.050   6.307   1.265  1.4550  0.4984 -0.9828
  672MOL0     H88656   9.153   6.243   1.142  0.6232  0.0796  0.7109
  672MOL0     H88657   9.006   6.082   0.949 -1.1029  0.3492 -0.1252
  672MOL0     H88658   8.781   5.802   1.062  2.4438  2.1551  2.2434
  672MOL0     H88659   8.881   5.846   0.930 -0.0094 -2.8229  1.1067
  672MOL0     H88660   8.681   6.025   0.888 -0.4226 -1.4819 -3.4412
  672MOL0     H88661   8.589   5.898   0.983 -0.8331 -2.6924 -0.8069
  672MOL0     H88662   8.734   5.832   0.734  0.3273  1.1031 -0.4185
  672MOL0     H88663   8.639   5.728   0.828  1.6107 -0.6913 -1.7406
  672MOL0     H88664   8.556   5.960   0.650 -0.8152 -0.4048 -0.6963
  672MOL0     H88665   8.444   5.922   0.781  0.2825  0.4715  0.7042
  672MOL0     H88666   8.327   5.769   0.878 -0.2623  3.6223 -0.9622
  672MOL0     H88667   8.106   5.720   0.895  2.0471  1.7206 -0.2270
  672MOL0     H88668   7.706   5.781   0.436  1.1843 -1.9313 -1.2701
  672MOL0     H88669   7.447   5.777   0.418 -0.6475  0.6732  1.0027
  672MOL0     H88670   7.232   5.757   0.418 -0.7578 -0.4837  0.9410
  672MOL0     H88671   7.246   5.848   0.573  2.4688 -0.2586 -0.9053
  672MOL0     H88672   7.023   5.657   0.494 -0.6800  1.9333 -1.4969
  672MOL0     H88673   7.013   5.832   0.495  0.9400  0.5345  0.3552
  672MOL0     H88674   7.116   5.794   0.746  1.1457  0.3068 -0.0396
  672MOL0     H88675   7.033   5.639   0.732  1.9139  0.1640  2.1678
  672MOL0     H88676   6.927   5.797   0.852 -0.8436  1.5693  0.3058
  672MOL0     H88677   6.954   5.930   0.733  1.9410 -0.7961 -0.0994
  672MOL0     H88678   6.784   5.679   0.690  0.8633 -0.4703 -5.0224
  672MOL0     H88679   6.779   5.831   0.596 -0.4271  0.1540  0.6753
  672MOL0     H88680   6.715   5.943   0.818 -0.2799  0.1773  2.7511
  672MOL0     H88681   6.681   5.789   0.876 -2.3412 -1.4675 -1.2637
  672MOL0     H88682   6.519   5.733   0.714 -0.3832  0.1578  1.0192
  672MOL0     H88683   6.485   5.879   0.802 -0.4355  0.4173 -0.3848
  672MOL0     H88684   6.420   5.937   0.566 -0.0776 -1.9000  3.0468
  672MOL0     H88685   6.584   5.912   0.513 -0.8193  0.5710 -0.4591
  672MOL0     H88686   7.458   5.502   0.750  3.1767 -0.3541  0.5207
  672MOL0     H88687   7.689   5.510   0.758 -1.4758 -0.8270  1.1065
  672MOL0     H88688   8.076   5.614   0.480  2.6187 -1.0481 -1.2756
  672MOL0     H88689   8.293   5.691   0.455 -0.8665  0.9595 -0.4862
  672MOL0     H88690   9.431   7.175   1.440  1.2620  1.3012  0.5797
  672MOL0     H88691   9.663   7.182   1.444  1.5319 -1.4980 -0.6310
  672MOL0     H88692  10.090   7.111   1.696 -0.6201 -0.2288  0.0987
  672MOL0     H88693  10.329   7.093   1.694  0.5709  3.5669 -1.1988
  672MOL0     H88694  10.513   6.994   1.660 -2.3625  1.9367  0.1442
  672MOL0     H88695  10.556   7.150   1.603  1.6251  0.7663 -0.5442
  672MOL0     H88696  10.709   6.906   1.550 -1.2765 -0.2289  2.3438
  672MOL0     H88697  10.731   7.058   1.447  0.7270  1.6306  0.4112
  672MOL0     H88698  10.737   7.007   1.747 -2.0740  0.3064 -1.1386
  672MOL0     H88699  10.758   7.170   1.681 -1.3059  0.1718 -0.1724
  672MOL0     H88700  10.959   7.093   1.540  0.6958 -0.2511  0.0676
  672MOL0     H88701  10.967   7.114   1.705 -1.7870  0.8391  0.5968
  672MOL0     H88702  11.028   6.686   1.618  1.1520 -0.0090  0.5690
  672MOL0     H88703  10.303   6.994   1.265 -0.7900  1.4197 -0.3220
  672MOL0     H88704  10.062   6.988   1.277 -2.5626  3.4729 -0.7299
  673MOL0     O88705   9.509   1.914   3.029  0.2687 -0.6044 -0.0829
  673MOL0     C88706   9.547   1.948   2.913  0.8414 -0.7541 -0.5766
  673MOL0     O88707   9.660   1.903   2.857  1.1128  0.0428 -0.5302
  673MOL0     C88708   9.753   1.822   2.918 -0.6353 -0.0595  0.8655
  673MOL0     C88709   9.826   1.860   3.033 -0.4123  0.6562 -0.2124
  673MOL0     C88710   9.937   1.780   3.078  0.1823 -0.2568 -0.0053
  673MOL0     C88711   9.959   1.651   3.030 -0.1203 -0.2542 -0.1057
  673MOL0     O88712  10.073   1.587   3.083 -0.7597 -0.0061  0.2698
  673MOL0     C88713  10.124   1.482   3.003  0.0037 -0.2851  0.2441
  673MOL0     C88714  10.254   1.448   3.077 -1.0515  1.0651 -0.0267
  673MOL0     C88715  10.305   1.321   3.008 -0.0367  0.2635  0.0805
  673MOL0     C88716  10.445   1.272   3.032 -0.7513 -0.2901 -0.4888
  673MOL0     C88717  10.476   1.137   2.983 -0.6088  0.7893  0.6347
  673MOL0     C88718  10.630   1.117   2.950  0.6359  0.1838  0.7948
  673MOL0     C88719  10.725   1.171   3.060 -0.1525  0.9810 -0.4570
  673MOL0     C88720  10.713   1.085   3.189  0.6766 -0.6462 -0.5274
  673MOL0     N88721  10.788   1.139   3.299  0.7132  1.4036 -0.1274
  673MOL0     C88722  10.916   1.186   3.293 -0.3929  0.6469 -0.0624
  673MOL0     C88723  10.950   1.218   3.422  0.4210 -0.3393 -0.0494
  673MOL0     C88724  11.078   1.277   3.470 -0.1026  0.5510 -0.7064
  673MOL0     C88725  11.138   1.186   3.572 -0.4022  0.3976  1.0641
  673MOL0     C88726  11.192   1.052   3.511  0.3514 -0.8253 -0.1904
  673MOL0     C88727  11.205   0.939   3.618  0.6956 -1.3007 -0.7021
  673MOL0     O88728  11.273   0.983   3.740 -0.8817 -0.2130 -0.2239
  673MOL0     C88729  11.423   0.982   3.748 -0.0957 -0.4685 -0.4007
  673MOL0     C88730  11.506   0.967   3.639  0.2463  0.3280  0.9468
  673MOL0     C88731  11.643   0.978   3.655 -0.0640 -0.0418 -0.6000
  673MOL0     C88732  11.706   1.004   3.779  0.2981 -0.4044  0.2344
  673MOL0     C88733  11.851   1.024   3.797  0.2842 -0.5119 -0.4454
  673MOL0     O88734  11.924   1.012   3.683 -0.2006 -0.1704  0.2764
  673MOL0     C88735  12.063   1.039   3.681  0.1850  0.2746  0.7194
  673MOL0     C88736  12.148   1.057   3.784 -0.1191  0.1280  0.6264
  673MOL0     C88737  12.285   1.103   3.765 -0.3965  0.2667  0.4855
  673MOL0     C88738  12.336   1.117   3.633 -0.1628  0.8203  0.6908
  673MOL0     O88739  12.458   1.165   3.603  0.2588  0.3266 -1.5594
  673MOL0     C88740  12.531   1.219   3.711  0.7183  0.1709 -1.0794
  673MOL0     C88741  12.651   1.291   3.657 -0.6570 -0.1489  0.4231
  673MOL0     C88742  12.716   1.376   3.763  0.2031  0.1770  0.1838
  673MOL0     C88743  12.830   1.462   3.717  0.1517  0.2432  0.1800
  673MOL0     C88744  12.912   1.542   3.822 -0.0637  0.3878 -0.1651
  673MOL0     C88745  13.018   1.635   3.760  0.0186 -0.1865 -0.2108
  673MOL0     C88746  13.138   1.547   3.707  0.5786 -0.0089 -0.4426
  673MOL0     C88747  13.257   1.637   3.715 -0.0662  0.1417 -0.2176
  673MOL0    Cl88748  13.323   1.641   3.882 -0.1645  0.1449 -0.8632
  673MOL0     C88749  12.240   1.106   3.529  0.6405 -0.4663 -0.6413
  673MOL0     C88750  12.104   1.073   3.552  0.7567  0.0477  0.2633
  673MOL0     O88751  11.892   1.037   3.911  0.9201 -0.0875 -0.0270
  673MOL0     C88752  11.621   1.002   3.895 -0.3538 -1.0817  0.7934
  673MOL0     C88753  11.478   0.995   3.879 -0.4869 -0.2580 -0.0620
  673MOL0     N88754  10.844   1.195   3.503  1.1733 -0.4793  0.6467
  673MOL0     N88755  10.742   1.152   3.428 -0.1279  0.7752 -0.1195
  673MOL0     C88756   9.869   1.604   2.925 -0.9161  0.0385  0.6744
  673MOL0     C88757   9.780   1.702   2.862 -0.2758  1.2005  0.9952
  673MOL0     C88758   9.455   2.035   2.831  0.2897 -0.7638  0.5052
  673MOL0     C88759   9.503   2.075   2.697 -0.2758  0.3142  0.2854
  673MOL0     C88760   9.416   2.143   2.617  0.2777 -0.6265 -0.3356
  673MOL0     C88761   9.287   2.165   2.666 -0.6136  0.8828 -0.2618
  673MOL0     O88762   9.197   2.222   2.582 -0.4828  0.1254  0.7289
  673MOL0     C88763   9.204   2.361   2.585  0.9657 -0.6015  0.6716
  673MOL0     C88764   9.061   2.419   2.616 -0.2778 -0.4231  0.1801
  673MOL0     C88765   8.956   2.361   2.519  0.8502  0.3617 -0.1509
  673MOL0     C88766   8.818   2.441   2.506  0.7243 -0.9836 -0.1684
  673MOL0     C88767   8.753   2.416   2.382 -0.5221 -0.1883  0.4003
  673MOL0     C88768   8.695   2.386   2.277 -0.0925 -0.2930 -0.2209
  673MOL0     C88769   9.237   2.130   2.797  0.2715 -0.2082  0.7647
  673MOL0     C88770   9.334   2.078   2.881 -0.3547  0.0159  0.1702
  673MOL0     H88771   9.812   1.961   3.070 -0.1416  0.1258  1.4024
  673MOL0     H88772   9.995   1.819   3.161 -2.1692  0.8360  1.2100
  673MOL0     H88773  10.138   1.511   2.898  0.3894 -3.1760 -0.5855
  673MOL0     H88774  10.057   1.396   3.005 -1.0317  0.5037  2.2541
  673MOL0     H88775  10.247   1.447   3.186  0.5564  0.5444  0.1074
  673MOL0     H88776  10.322   1.531   3.053 -0.1315 -0.0253 -1.3006
  673MOL0     H88777  10.297   1.344   2.901 -1.2507  0.6142  0.2327
  673MOL0     H88778  10.239   1.242   3.047  0.7682 -0.1209  0.6866
  673MOL0     H88779  10.504   1.347   2.978 -2.7630  0.4597 -1.7775
  673MOL0     H88780  10.473   1.274   3.137  3.4749  0.7675 -1.4310
  673MOL0     H88781  10.419   1.125   2.890  1.5721 -0.6488 -0.6169
  673MOL0     H88782  10.442   1.061   3.054  1.0465  1.2950  2.0346
  673MOL0     H88783  10.647   1.175   2.859  0.0106 -0.2624  0.3783
  673MOL0     H88784  10.647   1.017   2.908 -4.3939  0.2437 -2.2906
  673MOL0     H88785  10.829   1.169   3.026  0.0847 -0.3342  0.2985
  673MOL0     H88786  10.699   1.275   3.082  3.6381  2.4969 -2.1191
  673MOL0     H88787  10.750   0.984   3.170 -0.1240 -1.3649  1.5285
  673MOL0     H88788  10.606   1.075   3.206  0.7154 -2.1312 -0.9630
  673MOL0     H88789  10.978   1.194   3.204 -0.9713  0.2104 -0.5078
  673MOL0     H88790  11.075   1.380   3.508 -0.8545 -0.0139  0.8620
  673MOL0     H88791  11.147   1.272   3.385  1.3730 -2.8010  0.5175
  673MOL0     H88792  11.056   1.162   3.640  0.7154 -1.8390  1.7362
  673MOL0     H88793  11.222   1.236   3.621  0.1362  1.5025 -0.8915
  673MOL0     H88794  11.133   1.032   3.422  0.6942  1.3847 -0.9899
  673MOL0     H88795  11.293   1.067   3.471 -0.0736  3.6571 -0.0603
  673MOL0     H88796  11.262   0.856   3.577  0.2921 -1.7985 -0.2732
  673MOL0     H88797  11.107   0.901   3.650  0.4685 -0.2823 -0.1208
  673MOL0     H88798  11.474   0.951   3.537 -0.4895 -1.2627  1.3856
  673MOL0     H88799  11.719   0.967   3.578  0.3436 -1.0550 -0.0652
  673MOL0     H88800  12.121   1.035   3.887  1.5990 -0.7046  0.9379
  673MOL0     H88801  12.350   1.108   3.852  0.0455 -3.4890  0.5313
  673MOL0     H88802  12.561   1.139   3.779 -2.2794 -1.9148 -1.9837
  673MOL0     H88803  12.463   1.289   3.761  1.6276 -0.3080  0.9038
  673MOL0     H88804  12.618   1.366   3.584 -3.8778 -2.5064 -0.7492
  673MOL0     H88805  12.723   1.226   3.605 -0.4394  0.0635  0.4551
  673MOL0     H88806  12.749   1.306   3.840  2.3263 -2.8526 -3.1844
  673MOL0     H88807  12.637   1.441   3.803 -0.0444  0.1251 -0.2171
  673MOL0     H88808  12.900   1.409   3.652  2.8409  2.3663  1.1543
  673MOL0     H88809  12.789   1.543   3.656  4.6468  1.8708 -1.0613
  673MOL0     H88810  12.951   1.466   3.890  2.7680  2.0888  0.2798
  673MOL0     H88811  12.845   1.602   3.885 -1.4212  1.4961 -2.5327
  673MOL0     H88812  13.048   1.713   3.830  0.0991 -1.0984  0.8016
  673MOL0     H88813  12.971   1.685   3.675 -1.6328  1.2910  1.4807
  673MOL0     H88814  13.148   1.453   3.762 -3.6468 -0.7392 -0.5557
  673MOL0     H88815  13.123   1.508   3.606 -0.9158  0.5969 -0.4819
  673MOL0     H88816  13.235   1.742   3.693 -1.5293 -0.4156 -1.5461
  673MOL0     H88817  13.323   1.596   3.638 -1.9427 -2.1071 -0.7490
  673MOL0     H88818  12.274   1.115   3.427  3.8734 -1.2328  0.2405
  673MOL0     H88819  12.035   1.062   3.469 -0.7004  0.7422  1.3380
  673MOL0     H88820  11.660   1.014   3.996 -1.2401  0.9250  0.9393
  673MOL0     H88821  11.407   1.023   3.956 -3.9436 -0.8255 -2.7457
  673MOL0     H88822   9.884   1.506   2.881 -1.8305 -1.0613  2.6431
  673MOL0     H88823   9.723   1.677   2.773  1.2181 -0.3584  0.4145
  673MOL0     H88824   9.602   2.055   2.655 -1.4507  0.4682 -2.8170
  673MOL0     H88825   9.435   2.173   2.515 -2.6900 -2.2229 -1.4670
  673MOL0     H88826   9.223   2.396   2.484  0.8895  0.6038  1.0575
  673MOL0     H88827   9.276   2.400   2.658 -0.3198 -1.1079  2.2737
  673MOL0     H88828   9.038   2.389   2.719 -0.0755 -1.4615 -0.0632
  673MOL0     H88829   9.052   2.526   2.595  0.3314 -1.0281 -4.1254
  673MOL0     H88830   8.942   2.257   2.549  0.3803 -0.0719 -1.7833
  673MOL0     H88831   8.998   2.350   2.419  2.4235 -1.8025  0.6819
  673MOL0     H88832   8.759   2.417   2.595 -0.0309  0.1010 -0.3631
  673MOL0     H88833   8.840   2.548   2.505 -1.8650 -0.3812  0.5960
  673MOL0     H88834   8.649   2.367   2.182  1.1231  3.8456 -1.8895
  673MOL0     H88835   9.140   2.166   2.828  0.2835 -0.2135  0.8079
  673MOL0     H88836   9.306   2.044   2.981  0.3743 -1.4795 -0.1051
  674MOL0     O88837   4.130   6.973   9.007 -0.2813  1.0545  0.1570
  674MOL0     C88838   4.217   6.925   8.935 -0.3419 -0.1512 -0.4519
  674MOL0     O88839   4.203   6.827   8.835  0.1304 -0.9423  0.1519
  674MOL0     C88840   4.091   6.758   8.793  0.3378  0.5404  0.4458
  674MOL0     C88841   3.964   6.784   8.836 -0.1177  0.1519  0.7857
  674MOL0     C88842   3.861   6.702   8.804 -0.0186 -0.0521  1.2597
  674MOL0     C88843   3.872   6.597   8.707 -0.0033  0.4423 -0.1996
  674MOL0     O88844   3.777   6.503   8.656 -0.4085  0.4050  0.4740
  674MOL0     C88845   3.642   6.520   8.702 -0.4209  0.2212  0.2771
  674MOL0     C88846   3.557   6.404   8.644  0.3415 -0.5069 -0.3227
  674MOL0     C88847   3.540   6.407   8.498 -0.4272 -0.4464  0.2655
  674MOL0     C88848   3.442   6.295   8.461 -0.1617 -0.1544 -0.1718
  674MOL0     C88849   3.426   6.279   8.308 -0.0946 -0.0780 -0.2789
  674MOL0     C88850   3.377   6.398   8.232 -0.2806 -0.4657  0.1859
  674MOL0     C88851   3.231   6.431   8.259 -0.3686 -0.2495  0.4819
  674MOL0     C88852   3.174   6.530   8.153  0.1861  1.3427 -0.4191
  674MOL0     N88853   3.022   6.540   8.149 -0.7904 -0.1240 -0.4230
  674MOL0     C88854   2.956   6.655   8.189  0.2507  0.5241  1.0175
  674MOL0     C88855   2.831   6.636   8.144  0.1059 -0.4236  0.4945
  674MOL0     C88856   2.716   6.733   8.157 -0.6795 -0.2316  0.3369
  674MOL0     C88857   2.611   6.681   8.250  0.2844  0.8149  1.0122
  674MOL0     C88858   2.487   6.779   8.251 -0.1803 -0.6734  0.3833
  674MOL0     C88859   2.402   6.761   8.367 -0.0972  0.1212 -0.2211
  674MOL0     O88860   2.318   6.877   8.388  0.0376  0.4568 -0.1961
  674MOL0     C88861   2.182   6.849   8.369 -0.4637 -0.2358  0.8355
  674MOL0     C88862   2.113   6.737   8.417  0.3569 -0.2202 -0.1887
  674MOL0     C88863   1.973   6.727   8.396  0.5911  0.2057 -1.0362
  674MOL0     C88864   1.899   6.819   8.323  0.7729  0.7915 -0.0651
  674MOL0     C88865   1.761   6.790   8.303  0.8763  0.3318  0.6873
  674MOL0     O88866   1.691   6.721   8.404  0.8308 -0.1685  0.1727
  674MOL0     C88867   1.559   6.690   8.375 -0.1195  0.1407  0.2623
  674MOL0     C88868   1.464   6.783   8.320  1.3472 -0.6070 -0.5412
  674MOL0     C88869   1.327   6.756   8.330 -0.0528  0.7349  0.4104
  674MOL0     C88870   1.279   6.629   8.366  0.1867 -0.2295  0.0128
  674MOL0     O88871   1.144   6.591   8.352  0.5172 -0.3396 -0.1090
  674MOL0     C88872   1.058   6.683   8.287 -0.0302  0.5145  0.2704
  674MOL0     C88873   0.929   6.618   8.290 -0.0431  0.6252 -0.1281
  674MOL0     C88874   0.815   6.703   8.243 -0.0670  0.2959 -0.0560
  674MOL0     C88875   0.686   6.620   8.211 -0.9256  0.9248  0.3295
  674MOL0     C88876   0.566   6.692   8.163  0.8011  0.7976  0.7242
  674MOL0     C88877   0.523   6.794   8.268  0.5651 -0.2765  0.0420
  674MOL0     C88878   0.383   6.856   8.220  0.1124  0.2401  0.1164
  674MOL0     C88879   0.274   6.762   8.260 -0.1880 -0.6120 -0.1880
  674MOL0    Cl88880   0.121   6.845   8.213 -0.2509  0.5017 -0.1496
  674MOL0     C88881   1.376   6.539   8.425  0.3730 -0.6207 -0.0276
  674MOL0     C88882   1.513   6.571   8.414  0.0730 -0.1743  0.3402
  674MOL0     O88883   1.717   6.816   8.191 -0.2843 -0.4328  0.0624
  674MOL0     C88884   1.964   6.935   8.278  0.0215 -0.6697 -1.1557
  674MOL0     C88885   2.104   6.944   8.300 -0.0512 -1.4113 -0.0382
  674MOL0     N88886   2.823   6.514   8.080  0.2499 -0.4999 -0.7229
  674MOL0     N88887   2.940   6.461   8.079  0.4523  0.0675  0.9172
  674MOL0     C88888   3.998   6.577   8.647  0.2926 -0.5257 -0.1557
  674MOL0     C88889   4.109   6.650   8.705 -0.7269  0.7124  0.1250
  674MOL0     C88890   4.350   6.961   8.966 -0.3120  0.3263  0.4475
  674MOL0     C88891   4.394   6.983   9.092  0.5647 -0.2266 -0.2807
  674MOL0     C88892   4.530   7.017   9.114 -0.2851  0.2716  0.1161
  674MOL0     C88893   4.623   7.014   9.014  0.5188  0.3302  0.4807
  674MOL0     O88894   4.761   7.037   9.013 -0.2640  0.1340 -0.1499
  674MOL0     C88895   4.806   7.124   9.121  0.4430 -0.4880 -0.2366
  674MOL0     C88896   4.878   7.262   9.067 -1.1338 -0.8096  0.2389
  674MOL0     C88897   4.982   7.239   8.960 -1.5743 -0.3834  0.0155
  674MOL0     C88898   5.134   7.218   8.992 -0.2382  0.7809 -0.2031
  674MOL0     C88899   5.214   7.333   9.002 -0.1535  0.1056  0.0580
  674MOL0     C88900   5.273   7.424   9.038 -0.5632 -0.8412 -0.1516
  674MOL0     C88901   4.582   6.971   8.892  0.6663  0.7283  0.1918
  674MOL0     C88902   4.446   6.948   8.870  0.3177 -0.1982  0.4739
  674MOL0     H88903   3.937   6.863   8.906  1.2801  0.2559  1.2324
  674MOL0     H88904   3.760   6.716   8.840 -1.4428 -1.0526 -1.9187
  674MOL0     H88905   3.604   6.618   8.670 -2.0322 -0.2491  0.6363
  674MOL0     H88906   3.630   6.512   8.811 -1.6893 -3.4301  0.0187
  674MOL0     H88907   3.460   6.406   8.695  0.6326 -0.5859  0.2464
  674MOL0     H88908   3.604   6.310   8.673 -0.0631 -0.6063  0.0214
  674MOL0     H88909   3.637   6.389   8.450 -0.2449  0.1271  0.4119
  674MOL0     H88910   3.507   6.507   8.469  4.9464  1.7184  0.3978
  674MOL0     H88911   3.470   6.204   8.515  1.4991 -0.2247 -1.0892
  674MOL0     H88912   3.341   6.313   8.498 -0.8363 -1.5997 -1.2364
  674MOL0     H88913   3.346   6.204   8.304 -1.8815  1.6129  1.5058
  674MOL0     H88914   3.515   6.230   8.269  0.8140 -2.0323  3.7167
  674MOL0     H88915   3.383   6.370   8.126 -1.7200 -1.0141  0.2298
  674MOL0     H88916   3.436   6.490   8.240  0.2686 -0.7382 -0.6682
  674MOL0     H88917   3.176   6.337   8.275 -0.3491 -0.1064  1.4800
  674MOL0     H88918   3.217   6.476   8.358 -2.3804  0.4096 -0.0411
  674MOL0     H88919   3.202   6.484   8.058  1.5915 -1.5241  1.2603
  674MOL0     H88920   3.214   6.633   8.158  2.0274  0.6906 -0.6836
  674MOL0     H88921   3.006   6.739   8.235  1.8538  0.8288 -1.1031
  674MOL0     H88922   2.674   6.771   8.063 -1.9477 -0.7502  0.6806
  674MOL0     H88923   2.765   6.820   8.201 -2.0240  1.2838 -1.0112
  674MOL0     H88924   2.644   6.661   8.352 -1.3368 -1.5093  1.1777
  674MOL0     H88925   2.572   6.585   8.213 -4.5515  3.0667 -0.5441
  674MOL0     H88926   2.526   6.880   8.272 -2.4686 -0.2003  2.9434
  674MOL0     H88927   2.425   6.775   8.161 -3.1558  2.0595  2.0904
  674MOL0     H88928   2.453   6.733   8.459  0.4619 -0.1926 -0.6190
  674MOL0     H88929   2.348   6.670   8.341 -1.2855  0.9527 -0.7431
  674MOL0     H88930   2.162   6.663   8.479 -0.1788  1.4249  2.3608
  674MOL0     H88931   1.919   6.641   8.434  0.5426  0.3471 -0.7849
  674MOL0     H88932   1.497   6.880   8.284  1.7846  0.0351  1.4503
  674MOL0     H88933   1.262   6.839   8.305 -0.1259  1.2297  2.0839
  674MOL0     H88934   1.096   6.712   8.188  2.1158 -0.0907  0.8719
  674MOL0     H88935   1.058   6.780   8.338 -1.0540  0.3453  0.6133
  674MOL0     H88936   0.908   6.592   8.394 -0.1330  2.7010  0.4333
  674MOL0     H88937   0.934   6.528   8.229  2.3429  1.9298 -2.0527
  674MOL0     H88938   0.842   6.759   8.153  1.5198 -0.7188 -0.2545
  674MOL0     H88939   0.798   6.772   8.326  1.2167 -0.2929  0.7222
  674MOL0     H88940   0.708   6.556   8.125 -0.7509  0.0261  1.0214
  674MOL0     H88941   0.668   6.564   8.304 -0.1694  1.9798  1.1445
  674MOL0     H88942   0.483   6.624   8.142  0.9534  0.1769  1.9975
  674MOL0     H88943   0.577   6.742   8.067 -1.9334  1.7928  0.8177
  674MOL0     H88944   0.596   6.873   8.289 -1.5974  1.4590  1.5856
  674MOL0     H88945   0.501   6.750   8.366 -0.0304 -1.3361 -0.5541
  674MOL0     H88946   0.359   6.957   8.253  1.3058  1.4156 -2.3408
  674MOL0     H88947   0.378   6.858   8.110 -2.4817  1.4881  0.1799
  674MOL0     H88948   0.290   6.747   8.367  1.5690 -4.5558 -0.8424
  674MOL0     H88949   0.273   6.662   8.216 -2.1729 -0.8373  0.2605
  674MOL0     H88950   1.347   6.440   8.459  0.4633 -0.5615  0.2193
  674MOL0     H88951   1.581   6.490   8.437 -0.9989 -1.7444 -1.6944
  674MOL0     H88952   1.910   7.010   8.222  0.6996 -0.1491 -1.1276
  674MOL0     H88953   2.151   7.030   8.253 -0.1833 -0.5184  1.3786
  674MOL0     H88954   4.006   6.506   8.566 -0.3643  1.2405 -1.8454
  674MOL0     H88955   4.211   6.632   8.673 -0.5639  0.4769  0.7579
  674MOL0     H88956   4.323   6.988   9.174  0.2609 -0.9832 -0.4881
  674MOL0     H88957   4.556   7.038   9.217 -1.7737 -1.7313  0.9645
  674MOL0     H88958   4.870   7.072   9.194  0.3318  2.9718  2.5942
  674MOL0     H88959   4.718   7.155   9.177  0.8599 -0.0801  0.1987
  674MOL0     H88960   4.797   7.324   9.029 -0.7750 -0.4919 -0.0159
  674MOL0     H88961   4.923   7.307   9.156 -3.0028 -0.3869  1.0101
  674MOL0     H88962   4.986   7.327   8.896  1.3997 -1.2106 -1.0976
  674MOL0     H88963   4.950   7.154   8.898 -0.6993 -0.3066 -0.5647
  674MOL0     H88964   5.141   7.172   9.091 -1.1930  1.6001  0.2568
  674MOL0     H88965   5.187   7.155   8.920 -1.1060  2.0576 -2.0349
  674MOL0     H88966   5.308   7.522   9.062 -1.7439 -0.2918 -0.5895
  674MOL0     H88967   4.658   6.942   8.821 -1.1192 -0.7781 -1.1912
  674MOL0     H88968   4.422   6.922   8.768  0.3248  2.9263 -0.4347
  675MOL0     O88969   7.103   1.793   3.481 -0.3331  0.2051  0.1780
  675MOL0     C88970   7.109   1.765   3.363 -0.0050 -0.4116  0.3886
  675MOL0     O88971   6.992   1.763   3.281  0.0085 -0.1680 -0.3957
  675MOL0     C88972   6.872   1.809   3.324 -0.8247 -0.4893 -1.1161
  675MOL0     C88973   6.806   1.760   3.441  0.1386 -0.3139 -0.4013
  675MOL0     C88974   6.685   1.822   3.482  0.0275 -0.1970  0.0540
  675MOL0     C88975   6.618   1.916   3.400  0.2921 -0.4303  0.1433
  675MOL0     O88976   6.498   1.967   3.456 -0.3380 -0.4434  0.6512
  675MOL0     C88977   6.433   2.076   3.390 -0.6646 -0.3739  0.3247
  675MOL0     C88978   6.304   2.112   3.460  0.4721  0.4678 -0.5531
  675MOL0     C88979   6.304   2.185   3.600  0.3211  0.0613 -0.3833
  675MOL0     C88980   6.165   2.248   3.613 -0.0403 -0.2994 -1.2804
  675MOL0     C88981   6.146   2.322   3.747 -0.2894 -0.0273 -0.0089
  675MOL0     C88982   6.026   2.424   3.741  0.2954 -0.3154 -0.4887
  675MOL0     C88983   5.890   2.353   3.721  0.6812  0.4634 -0.6792
  675MOL0     C88984   5.789   2.458   3.664 -0.0954 -0.2606 -1.3924
  675MOL0     N88985   5.664   2.406   3.616 -0.1745  0.1727  0.1876
  675MOL0     C88986   5.576   2.343   3.696  0.5496 -0.0670 -0.6334
  675MOL0     C88987   5.464   2.320   3.620  0.1962 -0.4312  0.1989
  675MOL0     C88988   5.347   2.243   3.671 -0.0369  0.1002 -0.0168
  675MOL0     C88989   5.252   2.347   3.735  0.1266 -0.0056 -0.1328
  675MOL0     C88990   5.114   2.281   3.757  0.5770 -0.7152 -0.1711
  675MOL0     C88991   5.022   2.366   3.851 -1.1181 -0.7505 -0.1774
  675MOL0     O88992   4.892   2.330   3.813  0.2321 -0.5483 -0.0549
  675MOL0     C88993   4.790   2.404   3.865  0.4696 -0.0963  0.4210
  675MOL0     C88994   4.666   2.382   3.803  0.1293  0.1324 -0.5583
  675MOL0     C88995   4.551   2.438   3.849  0.6042  0.2147 -0.3770
  675MOL0     C88996   4.563   2.531   3.959  0.2752  0.0266 -0.4206
  675MOL0     C88997   4.436   2.571   4.033  0.0367  0.3642  0.0587
  675MOL0     O88998   4.329   2.502   3.991  0.8927  1.2472  0.3339
  675MOL0     C88999   4.211   2.517   4.057  0.2695 -0.7785  0.5591
  675MOL0     C89000   4.102   2.509   3.969 -0.0938 -0.0833  0.2942
  675MOL0     C89001   3.975   2.480   4.022  0.5209 -0.6885 -0.6742
  675MOL0     C89002   3.948   2.475   4.156  0.1209  0.5384 -0.0577
  675MOL0     O89003   3.832   2.434   4.219 -0.9682 -0.2967 -0.5400
  675MOL0     C89004   3.718   2.408   4.150  0.4684 -0.5903  0.1976
  675MOL0     C89005   3.613   2.355   4.243 -0.2350  0.0399  0.7560
  675MOL0     C89006   3.460   2.386   4.203 -0.3414  0.9480  0.1199
  675MOL0     C89007   3.374   2.367   4.329 -0.6051  0.0123  0.8636
  675MOL0     C89008   3.227   2.375   4.294 -0.0678  0.9389  0.2827
  675MOL0     C89009   3.135   2.367   4.407  0.4809 -0.7484  1.0502
  675MOL0     C89010   2.990   2.408   4.362  0.5012  0.4434 -0.7999
  675MOL0     C89011   2.940   2.290   4.280  0.3727 -0.1874  0.7390
  675MOL0    Cl89012   2.763   2.316   4.256  0.0018 -0.0922 -0.1686
  675MOL0     C89013   4.055   2.484   4.249  0.2617  0.6623  0.3551
  675MOL0     C89014   4.184   2.514   4.196  0.7321 -0.3850  1.5208
  675MOL0     O89015   4.428   2.667   4.111 -0.5471 -0.0138 -0.3001
  675MOL0     C89016   4.685   2.562   4.014  0.0942  0.2548 -0.9600
  675MOL0     C89017   4.800   2.498   3.969  0.0834  0.8409 -0.1696
  675MOL0     N89018   5.494   2.367   3.491  0.0115  0.0194 -0.0437
  675MOL0     N89019   5.605   2.415   3.496 -0.2296  0.2576  0.5652
  675MOL0     C89020   6.682   1.965   3.289 -1.1914  0.4855 -0.1183
  675MOL0     C89021   6.813   1.916   3.254  0.1599 -0.9343  0.2195
  675MOL0     C89022   7.231   1.705   3.302 -0.1148 -0.4527 -0.8011
  675MOL0     C89023   7.357   1.725   3.367 -0.1370  0.0891 -0.3551
  675MOL0     C89024   7.475   1.664   3.320  0.3610 -0.0752 -0.3876
  675MOL0     C89025   7.474   1.587   3.201 -0.1278  0.1178 -0.1754
  675MOL0     O89026   7.593   1.531   3.157  0.5359 -0.9770  0.4203
  675MOL0     C89027   7.589   1.508   3.011 -0.8262  0.1870 -0.1654
  675MOL0     C89028   7.629   1.633   2.929  0.4405 -0.5801  0.7696
  675MOL0     C89029   7.741   1.725   2.974 -0.5149 -0.4181 -0.4697
  675MOL0     C89030   7.869   1.644   3.015 -0.3855 -0.3466 -0.3335
  675MOL0     C89031   7.986   1.734   3.011  0.2010 -0.4508  0.3145
  675MOL0     C89032   8.074   1.816   3.013  0.2074  0.0590  0.3476
  675MOL0     C89033   7.348   1.566   3.135 -0.1504 -0.1799  0.1836
  675MOL0     C89034   7.235   1.628   3.185  0.6589  0.8467  0.6416
  675MOL0     H89035   6.846   1.676   3.497  0.3059  0.2724  0.3714
  675MOL0     H89036   6.643   1.789   3.577 -2.8050 -1.2115 -1.4519
  675MOL0     H89037   6.406   2.065   3.284 -1.4700  3.3386 -0.0033
  675MOL0     H89038   6.490   2.169   3.403 -2.9760  1.0482  0.9059
  675MOL0     H89039   6.249   2.018   3.470 -0.3136  0.7623 -1.9202
  675MOL0     H89040   6.245   2.170   3.389 -1.7925 -1.1041 -0.0942
  675MOL0     H89041   6.382   2.261   3.594  2.9474 -2.3702  0.8788
  675MOL0     H89042   6.330   2.110   3.675 -2.0648 -0.9153 -0.4388
  675MOL0     H89043   6.149   2.319   3.531  2.0589  0.2014 -1.3089
  675MOL0     H89044   6.088   2.169   3.614 -0.2714 -0.1071  0.6268
  675MOL0     H89045   6.235   2.378   3.777  0.4256 -1.6803  1.0880
  675MOL0     H89046   6.137   2.239   3.817  4.0216 -0.1755  0.6599
  675MOL0     H89047   6.040   2.502   3.665 -0.6592 -0.7289 -1.1176
  675MOL0     H89048   6.011   2.475   3.836 -3.6989 -0.9504 -0.6111
  675MOL0     H89049   5.898   2.275   3.645 -0.6114 -1.1012  0.7185
  675MOL0     H89050   5.861   2.312   3.818 -1.2891  2.1413 -0.4978
  675MOL0     H89051   5.846   2.511   3.588  1.4528  0.6954  0.3562
  675MOL0     H89052   5.766   2.516   3.753 -1.0023 -3.6937  0.8163
  675MOL0     H89053   5.584   2.320   3.802  1.2574  0.4283 -0.5735
  675MOL0     H89054   5.382   2.167   3.741  0.9120  2.2860  2.0467
  675MOL0     H89055   5.294   2.203   3.584 -0.7654  3.5959 -1.3609
  675MOL0     H89056   5.236   2.432   3.668  1.0495 -1.1030 -1.8007
  675MOL0     H89057   5.299   2.380   3.828 -2.2135 -1.7858  1.8093
  675MOL0     H89058   5.066   2.278   3.659 -0.2213  2.7651 -0.0367
  675MOL0     H89059   5.113   2.176   3.789 -0.5844 -0.4766  0.6548
  675MOL0     H89060   5.036   2.474   3.842 -0.4356 -0.8439 -0.2964
  675MOL0     H89061   5.043   2.350   3.957  0.4246 -0.6698 -0.4398
  675MOL0     H89062   4.656   2.314   3.718  0.6679  0.8363 -1.2010
  675MOL0     H89063   4.460   2.410   3.797  1.6883 -2.2221 -1.1171
  675MOL0     H89064   4.118   2.509   3.862 -1.7877  1.1086 -0.0072
  675MOL0     H89065   3.903   2.460   3.944  0.2848 -3.0346  0.0754
  675MOL0     H89066   3.734   2.348   4.060  1.7897 -0.1487  0.1063
  675MOL0     H89067   3.682   2.507   4.122  1.1799 -0.1271  0.8633
  675MOL0     H89068   3.641   2.409   4.334  2.1358 -0.6763  0.5266
  675MOL0     H89069   3.630   2.247   4.241 -0.8189 -0.0478 -0.1565
  675MOL0     H89070   3.429   2.325   4.118  1.7720 -0.3015  0.1476
  675MOL0     H89071   3.438   2.491   4.180 -3.5035 -0.1676 -2.7103
  675MOL0     H89072   3.399   2.268   4.370 -0.9474 -1.0878 -1.4125
  675MOL0     H89073   3.401   2.430   4.414  0.0444  0.8391  0.0602
  675MOL0     H89074   3.200   2.301   4.218 -1.8660  0.8642  0.9384
  675MOL0     H89075   3.209   2.473   4.250 -1.8745  0.2387 -0.6400
  675MOL0     H89076   3.159   2.440   4.485 -0.1775 -0.7358  1.2432
  675MOL0     H89077   3.131   2.269   4.455 -1.6547  0.3330  3.3193
  675MOL0     H89078   2.921   2.435   4.443  0.8927  2.3957 -1.0470
  675MOL0     H89079   3.006   2.502   4.307  1.8028  0.4612 -0.4306
  675MOL0     H89080   2.953   2.196   4.334 -0.4536 -0.0064  1.2609
  675MOL0     H89081   2.993   2.284   4.184 -1.3333  0.1442 -0.2616
  675MOL0     H89082   4.030   2.462   4.353 -0.5920 -1.6341 -0.2660
  675MOL0     H89083   4.273   2.529   4.256  0.9213 -1.5754  1.5574
  675MOL0     H89084   4.691   2.626   4.102  1.1621 -1.0447 -0.0564
  675MOL0     H89085   4.896   2.526   4.009  0.9037  0.5878 -1.8658
  675MOL0     H89086   6.634   2.034   3.221 -2.7966  0.3203  0.7997
  675MOL0     H89087   6.871   1.960   3.174  0.7095  0.1385  1.1685
  675MOL0     H89088   7.360   1.777   3.462  0.6198  0.2918 -0.4879
  675MOL0     H89089   7.562   1.678   3.384 -0.1671  1.9590 -0.0620
  675MOL0     H89090   7.498   1.464   2.969 -0.9202  0.2936 -0.0746
  675MOL0     H89091   7.682   1.451   3.002 -1.0085 -0.0181 -0.7935
  675MOL0     H89092   7.661   1.616   2.825  0.8160  2.1027  0.3484
  675MOL0     H89093   7.532   1.682   2.914 -0.8771 -3.6717 -1.9972
  675MOL0     H89094   7.710   1.773   3.068  0.9450  1.5641 -0.9412
  675MOL0     H89095   7.764   1.801   2.900  3.0006 -0.2464  0.6447
  675MOL0     H89096   7.867   1.604   3.117 -0.9304 -2.0941 -1.0071
  675MOL0     H89097   7.871   1.567   2.938 -5.6190  0.2240 -1.4468
  675MOL0     H89098   8.161   1.879   3.016  0.2899 -0.0409  0.0981
  675MOL0     H89099   7.330   1.511   3.043  1.8840 -0.3307 -0.1800
  675MOL0     H89100   7.142   1.601   3.137  2.1946 -0.2373 -1.9314
  676MOL0     O89101   0.786   5.570   1.722  0.2128 -0.2989 -0.7161
  676MOL0     C89102   0.789   5.631   1.610 -0.7035  0.7496  0.0502
  676MOL0     O89103   0.685   5.676   1.536 -0.2593  0.1695 -0.0460
  676MOL0     C89104   0.561   5.630   1.565 -0.5264  0.6121  0.0322
  676MOL0     C89105   0.453   5.716   1.553  0.5283  0.7717  1.0065
  676MOL0     C89106   0.319   5.670   1.571 -0.5087  0.0019  0.1833
  676MOL0     C89107   0.294   5.532   1.604  0.0980  0.2186 -1.4171
  676MOL0     O89108   0.176   5.471   1.630  0.1393 -0.1112 -0.3521
  676MOL0     C89109   0.054   5.549   1.593  0.9920  0.3869 -0.3284
  676MOL0     C89110  -0.066   5.458   1.609  0.2135 -0.4357 -0.0568
  676MOL0     C89111  -0.200   5.520   1.588 -0.1485 -0.2673  0.7986
  676MOL0     C89112  -0.321   5.420   1.598  0.4306  0.3722  0.3803
  676MOL0     C89113  -0.450   5.497   1.556 -0.3669  0.3596  0.9119
  676MOL0     C89114  -0.567   5.413   1.580 -0.3014  0.6457  0.0894
  676MOL0     C89115  -0.599   5.312   1.471 -0.4074 -0.0825  0.3622
  676MOL0     C89116  -0.651   5.370   1.349 -0.3940  0.1422  0.2115
  676MOL0     N89117  -0.776   5.444   1.361 -0.1808  0.6204  0.3591
  676MOL0     C89118  -0.903   5.400   1.331  0.4336  0.1525  0.2099
  676MOL0     C89119  -0.979   5.507   1.296 -0.4234 -0.6385 -0.0290
  676MOL0     C89120  -1.110   5.505   1.226 -0.2822  0.5088 -0.4375
  676MOL0     C89121  -1.150   5.637   1.160  0.3139  0.5839  0.5792
  676MOL0     C89122  -1.298   5.628   1.114  0.1437 -0.7101  0.6699
  676MOL0     C89123  -1.318   5.749   1.016  0.8684 -0.2977  0.0954
  676MOL0     O89124  -1.452   5.801   1.009 -0.3651  0.0466  0.1272
  676MOL0     C89125  -1.510   5.794   0.891 -0.8988  0.0361  0.5352
  676MOL0     C89126  -1.536   5.909   0.816  0.0904  0.8295 -0.3362
  676MOL0     C89127  -1.608   5.900   0.696  0.0731 -0.5474  0.6856
  676MOL0     C89128  -1.637   5.779   0.636 -1.5380 -0.1718 -0.8137
  676MOL0     C89129  -1.700   5.782   0.500  0.0936 -0.3095 -0.0071
  676MOL0     O89130  -1.768   5.672   0.463 -0.1454 -0.5213  1.1036
  676MOL0     C89131  -1.829   5.671   0.340  0.5027  0.2015 -0.0038
  676MOL0     C89132  -1.820   5.547   0.264 -0.0754 -0.4062 -0.3461
  676MOL0     C89133  -1.887   5.533   0.140  0.1993 -0.7900 -0.1938
  676MOL0     C89134  -1.954   5.648   0.089 -0.7421 -0.5840 -0.5782
  676MOL0     O89135  -2.020   5.624  -0.033 -0.3594  0.2545 -0.0584
  676MOL0     C89136  -2.036   5.738  -0.119 -0.9267 -0.3026 -0.2375
  676MOL0     C89137  -1.897   5.786  -0.162 -0.0313 -0.0358  0.2815
  676MOL0     C89138  -1.908   5.901  -0.263 -0.0740 -0.0704  0.1344
  676MOL0     C89139  -1.789   5.990  -0.292 -0.7964 -0.3738 -0.1171
  676MOL0     C89140  -1.668   5.923  -0.339  0.0647  0.3178 -0.2131
  676MOL0     C89141  -1.572   6.015  -0.405 -0.2189 -0.3460 -0.0442
  676MOL0     C89142  -1.428   5.953  -0.434  0.0627 -1.2215  0.1087
  676MOL0     C89143  -1.361   6.045  -0.527  0.4132  0.0320 -0.1690
  676MOL0    Cl89144  -1.221   5.967  -0.596  0.4055  0.1950  0.2223
  676MOL0     C89145  -1.962   5.761   0.165  0.5156  0.3000  0.0913
  676MOL0     C89146  -1.900   5.777   0.290 -0.9498  1.0470 -0.2415
  676MOL0     O89147  -1.696   5.884   0.429  0.2985 -0.3699  0.0401
  676MOL0     C89148  -1.604   5.655   0.709 -0.2311 -0.0996  0.0033
  676MOL0     C89149  -1.552   5.673   0.842  0.1539 -0.4452 -0.2777
  676MOL0     N89150  -0.898   5.616   1.307 -0.1050  0.8396  0.5239
  676MOL0     N89151  -0.779   5.575   1.352 -0.0273  0.0913 -0.3101
  676MOL0     C89152   0.399   5.446   1.622 -0.2798 -0.4064 -0.3150
  676MOL0     C89153   0.533   5.494   1.598 -0.4831 -0.1267 -0.0182
  676MOL0     C89154   0.927   5.654   1.555  0.2418  0.2268 -0.3165
  676MOL0     C89155   0.954   5.758   1.467  0.6300 -0.8359  0.7600
  676MOL0     C89156   1.079   5.782   1.421  0.3267 -0.4509 -0.9881
  676MOL0     C89157   1.182   5.712   1.464  0.3428  0.1629  1.0236
  676MOL0     O89158   1.307   5.755   1.424  0.4293  0.1252  0.0688
  676MOL0     C89159   1.421   5.665   1.462  0.2425 -0.4816 -0.3889
  676MOL0     C89160   1.477   5.713   1.594  0.5344  0.7254 -0.7165
  676MOL0     C89161   1.523   5.851   1.570 -0.5739 -0.7320  0.9444
  676MOL0     C89162   1.573   5.918   1.699 -0.5790  0.3188 -0.8407
  676MOL0     C89163   1.713   5.882   1.733  0.2354  0.3661 -0.3587
  676MOL0     C89164   1.829   5.843   1.750  0.0627 -0.2044 -1.2333
  676MOL0     C89165   1.161   5.608   1.557 -1.2534  0.7591  0.0013
  676MOL0     C89166   1.037   5.581   1.601 -0.2301 -0.0105 -0.2144
  676MOL0     H89167   0.476   5.821   1.540 -1.9835  1.4115  1.2008
  676MOL0     H89168   0.226   5.725   1.562 -0.1710  0.6778  0.7460
  676MOL0     H89169   0.049   5.584   1.489 -1.5606 -1.0956 -0.7867
  676MOL0     H89170   0.027   5.632   1.660 -0.3288  2.3598 -3.0958
  676MOL0     H89171  -0.060   5.403   1.703  0.3328  2.6633  1.8875
  676MOL0     H89172  -0.062   5.386   1.527  0.9692  0.8357 -1.1917
  676MOL0     H89173  -0.194   5.573   1.492 -1.5386 -2.2472 -0.4502
  676MOL0     H89174  -0.215   5.605   1.656  4.0078  0.8126  0.6563
  676MOL0     H89175  -0.308   5.339   1.526 -0.3717  0.7864 -0.2511
  676MOL0     H89176  -0.336   5.378   1.698  1.4513  2.3878  1.4395
  676MOL0     H89177  -0.448   5.536   1.454 -0.4841  0.3686  0.9119
  676MOL0     H89178  -0.464   5.584   1.620 -3.6850  0.5938  0.0620
  676MOL0     H89179  -0.655   5.472   1.606 -0.2721 -0.0042  1.7908
  676MOL0     H89180  -0.550   5.348   1.667 -3.1480 -2.6941 -1.5886
  676MOL0     H89181  -0.503   5.268   1.443  0.1323  0.5339  1.2030
  676MOL0     H89182  -0.667   5.232   1.502 -0.9113 -1.3440 -3.4805
  676MOL0     H89183  -0.670   5.293   1.274 -1.4981  1.7815 -1.2850
  676MOL0     H89184  -0.576   5.437   1.303  0.1356  0.6646  1.7787
  676MOL0     H89185  -0.938   5.302   1.303 -1.4325  1.1108 -0.9629
  676MOL0     H89186  -1.181   5.476   1.303  0.1746 -0.8253 -0.4882
  676MOL0     H89187  -1.100   5.431   1.145 -0.7087 -1.8821  1.5836
  676MOL0     H89188  -1.080   5.650   1.077  2.8588  2.1508  2.8180
  676MOL0     H89189  -1.131   5.727   1.218 -2.6749  2.0681 -0.5325
  676MOL0     H89190  -1.320   5.542   1.051  0.3630 -1.1694  1.2174
  676MOL0     H89191  -1.370   5.641   1.196 -0.3197 -0.0149  0.1731
  676MOL0     H89192  -1.280   5.713   0.920  2.2807 -0.0310  0.5369
  676MOL0     H89193  -1.252   5.835   1.028 -0.9527  1.3338 -1.0136
  676MOL0     H89194  -1.511   6.002   0.866 -0.5785  0.1028  1.4284
  676MOL0     H89195  -1.632   5.998   0.656  0.7163 -1.0612 -1.0045
  676MOL0     H89196  -1.768   5.467   0.316 -1.5601 -0.3937  1.2263
  676MOL0     H89197  -1.882   5.439   0.086  0.9199 -1.3824  0.8671
  676MOL0     H89198  -2.087   5.817  -0.063  1.6309 -0.0792  1.9789
  676MOL0     H89199  -2.100   5.708  -0.202 -0.3694 -3.3292  0.3132
  676MOL0     H89200  -1.844   5.704  -0.212 -3.4520 -2.2323 -0.0390
  676MOL0     H89201  -1.842   5.818  -0.073 -0.1067 -0.1997  0.3875
  676MOL0     H89202  -1.987   5.972  -0.237  0.0395 -0.3193  1.1926
  676MOL0     H89203  -1.945   5.847  -0.351 -2.4367  0.4585  0.7141
  676MOL0     H89204  -1.818   6.065  -0.366 -1.1752  0.1749  0.5768
  676MOL0     H89205  -1.772   6.046  -0.200  0.5389  1.8871 -1.6525
  676MOL0     H89206  -1.709   5.845  -0.404 -0.3972  1.4502 -1.3177
  676MOL0     H89207  -1.616   5.870  -0.259  0.8629 -0.1970 -1.0529
  676MOL0     H89208  -1.557   6.094  -0.331 -0.7045  0.0167 -0.3249
  676MOL0     H89209  -1.624   6.052  -0.494  0.9807  1.4838 -0.0302
  676MOL0     H89210  -1.367   5.951  -0.343  1.6674  3.0275 -0.6604
  676MOL0     H89211  -1.434   5.857  -0.488  2.3141 -0.0771 -2.4370
  676MOL0     H89212  -1.332   6.141  -0.482 -0.5713 -0.4250  1.5011
  676MOL0     H89213  -1.431   6.054  -0.610 -2.1162 -1.0185  1.7361
  676MOL0     H89214  -2.010   5.854   0.137 -1.5128  0.1745  2.8221
  676MOL0     H89215  -1.927   5.874   0.331 -3.7026  0.4013 -0.2790
  676MOL0     H89216  -1.620   5.555   0.668  0.7216 -0.4658  0.4823
  676MOL0     H89217  -1.542   5.589   0.911  1.1257  0.0224  0.1671
  676MOL0     H89218   0.396   5.340   1.646  0.3843 -0.1108  1.1710
  676MOL0     H89219   0.616   5.429   1.623 -1.5950 -2.2509 -1.5612
  676MOL0     H89220   0.870   5.811   1.425 -0.4376 -2.2785  1.0121
  676MOL0     H89221   1.094   5.868   1.357  0.4618 -0.1323 -0.5374
  676MOL0     H89222   1.508   5.661   1.395  1.0270 -3.9356  0.5976
  676MOL0     H89223   1.388   5.561   1.457 -3.2234  0.3565  1.8309
  676MOL0     H89224   1.399   5.702   1.670  0.8828  3.0458  0.0350
  676MOL0     H89225   1.561   5.650   1.627 -0.4966 -0.1243  0.4089
  676MOL0     H89226   1.435   5.905   1.533  0.8179 -0.4504 -2.2026
  676MOL0     H89227   1.605   5.856   1.499  0.5995  2.3641  2.3223
  676MOL0     H89228   1.576   6.027   1.685  1.2884  0.4315  0.0979
  676MOL0     H89229   1.516   5.883   1.786  3.3267 -0.1062  1.8308
  676MOL0     H89230   1.920   5.794   1.775 -0.6819  0.0856  2.5791
  676MOL0     H89231   1.243   5.544   1.590  0.7901  2.6276 -1.2176
  676MOL0     H89232   1.038   5.505   1.679  0.1527 -0.8471 -1.0162
  677MOL0     O89233   8.793   7.022   4.779  0.4562 -0.6471  0.0565
  677MOL0     C89234   8.795   6.967   4.675 -0.8982  1.2184  0.6567
  677MOL0     O89235   8.695   6.959   4.586  0.3914 -0.2117  0.2284
  677MOL0     C89236   8.560   7.002   4.612 -0.5254 -0.5159 -0.0354
  677MOL0     C89237   8.498   7.035   4.734 -0.2560  0.3478  0.0118
  677MOL0     C89238   8.361   7.080   4.737  0.7208  0.6635 -0.8916
  677MOL0     C89239   8.287   7.095   4.619  0.3687 -0.8190  0.3375
  677MOL0     O89240   8.156   7.126   4.629  1.0457  0.9520  0.6766
  677MOL0     C89241   8.081   7.155   4.500  0.1079 -0.4930 -0.9383
  677MOL0     C89242   7.942   7.222   4.528 -0.3123  0.1721 -0.2351
  677MOL0     C89243   7.845   7.108   4.561 -0.0129 -0.4439 -0.7303
  677MOL0     C89244   7.708   7.173   4.607  0.0811 -0.1002 -0.1201
  677MOL0     C89245   7.631   7.212   4.482 -0.7841  0.1142 -0.6989
  677MOL0     C89246   7.567   7.094   4.410  0.3991 -0.6288  0.0614
  677MOL0     C89247   7.419   7.079   4.450  1.3138  0.4202 -0.1758
  677MOL0     C89248   7.336   7.176   4.376 -0.6950  0.0222  0.7375
  677MOL0     N89249   7.198   7.160   4.392  0.0544  0.4887  0.8223
  677MOL0     C89250   7.109   7.233   4.478 -1.3559 -0.1063  0.1341
  677MOL0     C89251   6.990   7.218   4.428  0.5503  0.5945 -0.0661
  677MOL0     C89252   6.870   7.284   4.475 -0.0916  0.5927 -0.1286
  677MOL0     C89253   6.744   7.198   4.519 -0.7464 -0.1729  0.2334
  677MOL0     C89254   6.684   7.130   4.403  0.2030 -0.0439 -0.7611
  677MOL0     C89255   6.544   7.089   4.433  0.0670  0.4576 -0.2166
  677MOL0     O89256   6.473   7.072   4.320  0.2194 -0.1044 -0.6142
  677MOL0     C89257   6.338   7.053   4.332  0.4274  0.6678  0.4084
  677MOL0     C89258   6.254   7.095   4.230  1.8480  0.7821  0.5587
  677MOL0     C89259   6.113   7.055   4.230 -0.2916 -0.7114  0.5152
  677MOL0     C89260   6.056   6.964   4.326  0.0011 -0.1094 -0.3474
  677MOL0     C89261   5.915   6.912   4.316 -0.4439  0.5542  0.4677
  677MOL0     O89262   5.879   6.819   4.409  0.9043 -0.5277 -0.2528
  677MOL0     C89263   5.749   6.786   4.421  0.5263  0.4279  0.4080
  677MOL0     C89264   5.672   6.850   4.517 -0.2627 -0.2263  0.6527
  677MOL0     C89265   5.536   6.827   4.531  0.2876  0.9496 -0.3622
  677MOL0     C89266   5.460   6.752   4.442 -0.5502  0.0090 -0.1232
  677MOL0     O89267   5.326   6.747   4.460 -0.0974 -0.3811  0.8290
  677MOL0     C89268   5.254   6.691   4.355  0.0978  0.1935  0.8225
  677MOL0     C89269   5.110   6.728   4.358 -0.1702 -0.2305 -0.0084
  677MOL0     C89270   5.032   6.623   4.282 -0.8656 -0.0886 -0.0366
  677MOL0     C89271   4.884   6.674   4.271 -0.2479  0.2312  0.2267
  677MOL0     C89272   4.799   6.567   4.197 -0.5253 -0.0703 -0.3105
  677MOL0     C89273   4.658   6.604   4.194 -0.1299 -0.2162  0.2335
  677MOL0     C89274   4.562   6.501   4.130 -0.1164  0.0453  0.9016
  677MOL0     C89275   4.413   6.548   4.138 -0.3669  0.1538 -0.3888
  677MOL0    Cl89276   4.310   6.426   4.065 -0.2519 -0.0812 -0.1670
  677MOL0     C89277   5.540   6.689   4.339 -0.8593 -0.1319 -0.7322
  677MOL0     C89278   5.679   6.700   4.340  0.5580 -0.8203 -0.4908
  677MOL0     O89279   5.843   6.963   4.226  1.0213  0.1890 -0.5091
  677MOL0     C89280   6.143   6.917   4.428  0.1193 -0.8979 -1.0020
  677MOL0     C89281   6.283   6.958   4.426 -0.5078 -1.1877 -0.4981
  677MOL0     N89282   6.984   7.125   4.324 -0.1851  0.8683  0.2278
  677MOL0     N89283   7.112   7.098   4.305  0.3965  0.3140 -0.0186
  677MOL0     C89284   8.346   7.057   4.503  0.1367  0.7873 -0.2027
  677MOL0     C89285   8.474   7.016   4.498  0.5652  1.0356  0.2875
  677MOL0     C89286   8.920   6.893   4.630  0.1264 -0.2711 -0.9063
  677MOL0     C89287   8.919   6.763   4.569 -0.2224 -0.4056  0.5186
  677MOL0     C89288   9.031   6.705   4.540  0.9090  1.0423 -0.2820
  677MOL0     C89289   9.151   6.754   4.579  0.0403  0.3767 -0.2115
  677MOL0     O89290   9.260   6.669   4.566 -0.6101 -0.3253  0.0895
  677MOL0     C89291   9.280   6.629   4.428 -0.3717 -0.0362 -0.5636
  677MOL0     C89292   9.431   6.622   4.405  0.1463 -0.3272  0.3997
  677MOL0     C89293   9.462   6.576   4.264 -0.9955  0.9195  0.4614
  677MOL0     C89294   9.612   6.556   4.241 -0.1782  0.0053 -0.1678
  677MOL0     C89295   9.674   6.436   4.305  0.2968  0.6444  0.3302
  677MOL0     C89296   9.728   6.354   4.369 -0.2030  0.2266 -0.0430
  677MOL0     C89297   9.166   6.876   4.645  0.2821 -0.6866  0.3221
  677MOL0     C89298   9.046   6.949   4.667  0.5286 -0.3663 -0.4251
  677MOL0     H89299   8.550   7.024   4.829 -2.9187  0.0803  1.5442
  677MOL0     H89300   8.310   7.082   4.832  1.4700  0.1751 -0.4693
  677MOL0     H89301   8.063   7.058   4.453 -1.5072 -0.3548 -0.6483
  677MOL0     H89302   8.132   7.218   4.427  2.6504 -2.0310 -0.6007
  677MOL0     H89303   7.911   7.259   4.430 -1.8976  4.4482  1.6286
  677MOL0     H89304   7.953   7.295   4.608  1.6307  0.3556 -0.6056
  677MOL0     H89305   7.881   7.047   4.645 -0.2642  1.3603  0.7526
  677MOL0     H89306   7.833   7.032   4.483  3.0991 -1.5755 -0.2688
  677MOL0     H89307   7.647   7.110   4.673  1.4204 -2.2497 -0.8225
  677MOL0     H89308   7.727   7.261   4.669  2.3980 -0.8586  0.3312
  677MOL0     H89309   7.701   7.271   4.423  2.7795 -1.8916  1.1602
  677MOL0     H89310   7.552   7.281   4.514  1.1065  2.8988 -1.6763
  677MOL0     H89311   7.621   7.004   4.443 -1.1668 -1.7432 -0.2894
  677MOL0     H89312   7.587   7.115   4.305  2.0169 -4.6504 -0.6294
  677MOL0     H89313   7.400   6.980   4.410 -0.5531  0.6151  0.1070
  677MOL0     H89314   7.410   7.105   4.556 -3.6718  0.8171 -0.4431
  677MOL0     H89315   7.360   7.172   4.269  1.6685 -4.0167  1.2077
  677MOL0     H89316   7.357   7.275   4.416 -0.2986  0.0146  0.5540
  677MOL0     H89317   7.138   7.288   4.567 -1.0906  1.0054 -0.6292
  677MOL0     H89318   6.851   7.358   4.396 -1.2438  0.0000 -0.4254
  677MOL0     H89319   6.892   7.351   4.558  0.1200 -0.3989  0.6239
  677MOL0     H89320   6.669   7.266   4.559 -2.0249  1.0201 -3.7890
  677MOL0     H89321   6.781   7.130   4.597  2.1271  1.8090  0.7488
  677MOL0     H89322   6.678   7.206   4.324 -0.2856 -1.1213 -1.7811
  677MOL0     H89323   6.749   7.048   4.371  1.9567  1.7453 -2.0418
  677MOL0     H89324   6.493   7.159   4.501 -0.0844 -0.0413  0.1937
  677MOL0     H89325   6.549   6.991   4.482  0.1165 -0.1407 -1.3896
  677MOL0     H89326   6.281   7.171   4.158 -1.3560  2.9038  1.3963
  677MOL0     H89327   6.038   7.094   4.161  0.7329  1.0453  0.3362
  677MOL0     H89328   5.730   6.903   4.592  1.3051 -1.9473  0.7336
  677MOL0     H89329   5.481   6.881   4.607 -1.5811 -1.8504  0.4356
  677MOL0     H89330   5.257   6.582   4.359  0.0895  0.1801  0.5151
  677MOL0     H89331   5.298   6.717   4.257 -0.7722 -0.1516  0.3325
  677MOL0     H89332   5.096   6.826   4.309 -1.5919  0.4070  1.5699
  677MOL0     H89333   5.078   6.744   4.461 -0.7047 -1.1741 -0.0250
  677MOL0     H89334   5.031   6.526   4.332  2.0499 -1.0288 -1.5567
  677MOL0     H89335   5.076   6.600   4.184  0.1024 -1.0804  0.5978
  677MOL0     H89336   4.838   6.712   4.363  1.6022  1.2297  0.7857
  677MOL0     H89337   4.880   6.756   4.200 -1.4028 -0.3986 -0.4666
  677MOL0     H89338   4.799   6.465   4.237  0.7051 -0.6489 -1.7055
  677MOL0     H89339   4.844   6.547   4.100 -1.7971 -1.6996 -0.6033
  677MOL0     H89340   4.655   6.700   4.141  2.0079  1.1441  2.3376
  677MOL0     H89341   4.620   6.635   4.292  2.1025  1.9753  0.5255
  677MOL0     H89342   4.600   6.477   4.030  1.2043 -3.2408  2.0370
  677MOL0     H89343   4.573   6.404   4.179  1.7333 -0.5368 -0.5199
  677MOL0     H89344   4.386   6.639   4.084 -2.3625 -0.6764 -0.9068
  677MOL0     H89345   4.394   6.551   4.246  0.1983 -1.0092 -0.2402
  677MOL0     H89346   5.500   6.616   4.268 -0.0094 -1.5882  0.2303
  677MOL0     H89347   5.733   6.643   4.266 -0.0534 -0.4668 -1.2235
  677MOL0     H89348   6.118   6.839   4.500 -1.3431  0.1110 -0.3697
  677MOL0     H89349   6.350   6.914   4.498  0.2351  1.0317  0.2522
  677MOL0     H89350   8.285   7.051   4.413 -1.0470  2.2548  0.4719
  677MOL0     H89351   8.523   6.992   4.405 -1.1177  2.4430 -1.0224
  677MOL0     H89352   8.825   6.714   4.547  0.8219 -2.4234  0.3117
  677MOL0     H89353   9.018   6.606   4.497  0.2620  0.6207  0.8232
  677MOL0     H89354   9.225   6.690   4.356 -0.4377 -0.2266 -0.6756
  677MOL0     H89355   9.238   6.528   4.423  2.4922 -1.2631 -2.5635
  677MOL0     H89356   9.476   6.721   4.413 -0.0052 -0.2561  0.3632
  677MOL0     H89357   9.481   6.555   4.477  1.5203  0.2087 -0.0309
  677MOL0     H89358   9.433   6.647   4.185  0.1136 -0.6215 -1.4205
  677MOL0     H89359   9.410   6.483   4.242 -0.1326  1.1531 -3.3252
  677MOL0     H89360   9.615   6.544   4.132  1.5202 -0.9348 -0.0373
  677MOL0     H89361   9.671   6.645   4.263  0.0740 -0.5750  1.6709
  677MOL0     H89362   9.749   6.261   4.417  0.7702 -0.8286 -2.3247
  677MOL0     H89363   9.263   6.919   4.669  0.3895 -0.8218  0.1274
  677MOL0     H89364   9.065   7.048   4.705  2.8875  0.3280 -3.0199
  678MOL0     O89365   1.625   1.118   3.308 -0.2615 -0.9838 -0.3136
  678MOL0     C89366   1.576   1.043   3.391  0.2417 -0.0423 -0.1740
  678MOL0     O89367   1.612   1.027   3.523 -0.5243 -0.2031  0.2101
  678MOL0     C89368   1.741   1.072   3.558  0.1356  0.1284 -0.4239
  678MOL0     C89369   1.846   1.103   3.467 -0.3076 -0.8125 -0.2422
  678MOL0     C89370   1.972   1.153   3.521 -1.1017 -0.6852 -0.0379
  678MOL0     C89371   1.985   1.175   3.662  0.5646 -0.5589  0.1383
  678MOL0     O89372   2.094   1.233   3.730 -0.0535 -0.3223  0.2188
  678MOL0     C89373   2.206   1.276   3.652  1.2207  0.5779 -0.0546
  678MOL0     C89374   2.318   1.266   3.754  0.4069  0.2434  0.6211
  678MOL0     C89375   2.456   1.292   3.697  0.0475  0.5131 -0.1788
  678MOL0     C89376   2.563   1.297   3.807 -0.2292 -0.4176 -0.4812
  678MOL0     C89377   2.690   1.253   3.733  0.5721  0.5497 -0.5498
  678MOL0     C89378   2.808   1.234   3.826 -0.7778  0.1021  0.9067
  678MOL0     C89379   2.916   1.125   3.782 -0.0788 -0.1722  0.2359
  678MOL0     C89380   3.005   1.096   3.897 -0.0923  0.1108  0.1867
  678MOL0     N89381   3.102   0.992   3.890 -0.0920  0.5263  0.5072
  678MOL0     C89382   3.215   1.017   3.820  0.2455 -1.4358 -0.2908
  678MOL0     C89383   3.277   0.901   3.812  0.0380  0.2659  0.8684
  678MOL0     C89384   3.404   0.868   3.756  0.0723 -0.3673  1.1052
  678MOL0     C89385   3.403   0.826   3.611 -0.3101 -0.2311 -0.7282
  678MOL0     C89386   3.361   0.685   3.584  0.3321 -0.0149  0.5430
  678MOL0     C89387   3.210   0.662   3.580  0.6002 -0.0720  0.2218
  678MOL0     O89388   3.139   0.751   3.501 -0.2028 -1.0624  0.0107
  678MOL0     C89389   3.001   0.767   3.512  0.4500  0.1220 -0.9394
  678MOL0     C89390   2.911   0.663   3.539 -0.5393 -0.0501  0.2000
  678MOL0     C89391   2.770   0.674   3.519  0.1582  0.3332 -0.6330
  678MOL0     C89392   2.709   0.787   3.487  1.0379  0.1624 -0.4232
  678MOL0     C89393   2.560   0.813   3.484  0.1484  0.9623  0.2198
  678MOL0     O89394   2.479   0.708   3.471  0.2502 -0.0141  0.2202
  678MOL0     C89395   2.347   0.706   3.488  0.4494  0.4559 -0.7238
  678MOL0     C89396   2.266   0.819   3.471 -0.2789  0.1950  0.6668
  678MOL0     C89397   2.124   0.803   3.465 -0.0264  0.8053  1.3284
  678MOL0     C89398   2.074   0.671   3.473  0.2210  0.6073  0.1905
  678MOL0     O89399   1.941   0.638   3.481  0.2688  0.4426  0.0735
  678MOL0     C89400   1.835   0.739   3.446 -0.1368 -0.4922  0.4928
  678MOL0     C89401   1.704   0.663   3.406 -0.2667 -0.7240  0.0467
  678MOL0     C89402   1.683   0.548   3.499 -0.5204  0.5467  0.0887
  678MOL0     C89403   1.551   0.480   3.461 -0.0909 -0.5350 -0.0408
  678MOL0     C89404   1.505   0.386   3.567  0.5153 -0.5048  0.3493
  678MOL0     C89405   1.367   0.319   3.542 -0.7463  0.8292 -0.2569
  678MOL0     C89406   1.266   0.421   3.577  0.2501 -0.0555  0.0931
  678MOL0     C89407   1.138   0.387   3.499  0.0535  0.1363  0.5027
  678MOL0    Cl89408   1.003   0.460   3.586  0.2465 -0.1248 -0.1893
  678MOL0     C89409   2.150   0.559   3.496 -0.1170  0.3407  0.4633
  678MOL0     C89410   2.283   0.578   3.504  0.0758 -0.1135  0.2492
  678MOL0     O89411   2.530   0.937   3.469  0.1730  0.1967  0.1837
  678MOL0     C89412   2.800   0.905   3.470 -0.2339  0.8107  0.1926
  678MOL0     C89413   2.939   0.884   3.484 -0.1165  0.4162 -0.1176
  678MOL0     N89414   3.214   0.797   3.886  0.1077 -0.3300  0.2098
  678MOL0     N89415   3.104   0.855   3.917  0.0552 -0.3359  0.0187
  678MOL0     C89416   1.879   1.139   3.745 -0.0458 -0.3744 -0.1741
  678MOL0     C89417   1.760   1.099   3.693  0.5417  0.2398 -0.0042
  678MOL0     C89418   1.445   0.990   3.348 -0.8065  0.0964 -0.9760
  678MOL0     C89419   1.357   0.954   3.449  0.7133  0.5108  0.3820
  678MOL0     C89420   1.243   0.878   3.406  0.1395 -0.7159 -0.1117
  678MOL0     C89421   1.220   0.852   3.273 -0.3405 -0.1650  0.3306
  678MOL0     O89422   1.113   0.778   3.225 -0.4114 -0.0883 -0.1249
  678MOL0     C89423   1.008   0.747   3.314  0.4270 -0.7106 -0.1355
  678MOL0     C89424   0.896   0.665   3.269  0.2497  0.2810  0.6023
  678MOL0     C89425   0.840   0.744   3.143 -0.3732  0.4385 -0.2803
  678MOL0     C89426   0.737   0.850   3.189 -0.7365 -0.0333 -0.1379
  678MOL0     C89427   0.806   0.976   3.157  0.2680 -0.0160 -0.0290
  678MOL0     C89428   0.873   1.075   3.144  0.0629  0.3080  0.1189
  678MOL0     C89429   1.307   0.903   3.177 -0.7801  0.0663 -0.7109
  678MOL0     C89430   1.424   0.963   3.213 -0.4642 -0.4847  0.2386
  678MOL0     H89431   1.836   1.091   3.360  0.3542  1.5468 -0.6290
  678MOL0     H89432   2.054   1.166   3.452 -1.0335 -3.0752 -0.4919
  678MOL0     H89433   2.172   1.377   3.625 -1.4297  0.0113  0.8540
  678MOL0     H89434   2.232   1.223   3.560  0.5703 -0.4701  0.3492
  678MOL0     H89435   2.306   1.163   3.790 -1.5939  0.4199  0.6129
  678MOL0     H89436   2.296   1.328   3.841 -1.1471 -1.1206  1.2740
  678MOL0     H89437   2.446   1.396   3.664 -0.5361  1.0593  1.6289
  678MOL0     H89438   2.479   1.227   3.611 -0.1308  1.5433 -1.0245
  678MOL0     H89439   2.561   1.390   3.864  1.9231 -0.8878  0.4579
  678MOL0     H89440   2.535   1.217   3.877  0.6561  1.1835  1.8132
  678MOL0     H89441   2.712   1.326   3.654 -0.5924 -0.6738 -2.0933
  678MOL0     H89442   2.672   1.159   3.680 -3.1156  0.9060 -0.1633
  678MOL0     H89443   2.772   1.195   3.921 -0.7263 -1.4736  0.2985
  678MOL0     H89444   2.855   1.331   3.850  1.3198 -0.5315 -0.3656
  678MOL0     H89445   2.871   1.028   3.759  1.2967 -1.0220  0.9515
  678MOL0     H89446   2.976   1.161   3.698  0.0499 -0.7242  0.0823
  678MOL0     H89447   2.944   1.079   3.987 -0.2147 -0.2102  0.0434
  678MOL0     H89448   3.055   1.191   3.915 -0.1320 -0.1603  1.8866
  678MOL0     H89449   3.250   1.112   3.780  0.5191 -1.7427 -0.7996
  678MOL0     H89450   3.467   0.801   3.815 -1.2243 -0.7128  2.1280
  678MOL0     H89451   3.455   0.965   3.752 -2.3226  1.1849  4.0419
  678MOL0     H89452   3.509   0.836   3.584 -0.2572 -0.2130 -0.5169
  678MOL0     H89453   3.339   0.886   3.547  1.0822  0.2686 -1.6918
  678MOL0     H89454   3.396   0.653   3.485 -1.0777  2.3921 -0.8246
  678MOL0     H89455   3.409   0.620   3.657 -0.5105 -0.6892  0.5067
  678MOL0     H89456   3.172   0.680   3.681  1.3687  1.9856  0.1831
  678MOL0     H89457   3.197   0.556   3.559 -0.5773  0.0022  0.5252
  678MOL0     H89458   2.963   0.574   3.573  1.3853  2.6416  5.3588
  678MOL0     H89459   2.712   0.586   3.545  0.1625 -0.1496 -2.1646
  678MOL0     H89460   2.311   0.917   3.463 -1.4078  0.8236  1.6357
  678MOL0     H89461   2.061   0.890   3.447  0.3392  0.6590 -1.0328
  678MOL0     H89462   1.869   0.808   3.368  1.9935  2.4364  3.6941
  678MOL0     H89463   1.799   0.796   3.533 -0.3223 -1.7435  1.2597
  678MOL0     H89464   1.717   0.624   3.304 -1.3420  0.4181 -0.5631
  678MOL0     H89465   1.617   0.729   3.407  0.6696  0.6303 -2.0440
  678MOL0     H89466   1.665   0.601   3.592  1.3424  2.2671 -0.4536
  678MOL0     H89467   1.761   0.476   3.523  1.1781  0.7441 -3.9435
  678MOL0     H89468   1.480   0.560   3.440  3.0165  1.9618 -2.0517
  678MOL0     H89469   1.557   0.428   3.365  0.1841 -0.0221 -0.3097
  678MOL0     H89470   1.513   0.429   3.667  1.6696  0.5402 -0.1688
  678MOL0     H89471   1.582   0.310   3.580  0.3821 -0.4518  1.6609
  678MOL0     H89472   1.352   0.226   3.598  1.5987  1.3703  1.4071
  678MOL0     H89473   1.351   0.298   3.436 -2.9134  1.0251 -0.0308
  678MOL0     H89474   1.243   0.408   3.683  0.1462  0.8452  0.1916
  678MOL0     H89475   1.296   0.525   3.565  0.3887  0.2875  2.7810
  678MOL0     H89476   1.119   0.279   3.487  1.7468 -0.2011  0.6996
  678MOL0     H89477   1.132   0.432   3.400  0.6677  2.2123  1.3655
  678MOL0     H89478   2.102   0.462   3.503 -2.2595  1.1538 -1.6226
  678MOL0     H89479   2.349   0.492   3.510  0.0844 -0.3910 -2.4464
  678MOL0     H89480   2.757   1.001   3.441 -0.2071  0.1255 -2.3920
  678MOL0     H89481   3.014   0.959   3.463  2.6177 -1.6930  1.3979
  678MOL0     H89482   1.897   1.157   3.850  0.1123  0.9097 -0.3996
  678MOL0     H89483   1.672   1.089   3.757  0.0087  1.1555 -0.5777
  678MOL0     H89484   1.366   0.996   3.549  1.3859 -0.2818  0.6588
  678MOL0     H89485   1.175   0.852   3.487  2.4480 -1.6491  1.6675
  678MOL0     H89486   0.956   0.837   3.347 -0.0456  0.4952 -3.7239
  678MOL0     H89487   1.043   0.699   3.406 -1.2217 -0.1521  0.8318
  678MOL0     H89488   0.911   0.560   3.243 -0.2731  0.8306 -2.2242
  678MOL0     H89489   0.817   0.665   3.345 -0.0685  2.4468  0.3309
  678MOL0     H89490   0.783   0.674   3.081  0.8963 -0.2913 -0.6845
  678MOL0     H89491   0.922   0.778   3.079 -0.4581  0.6398 -0.2833
  678MOL0     H89492   0.638   0.844   3.143 -0.4968  0.1910 -0.6916
  678MOL0     H89493   0.725   0.852   3.298 -2.6127 -1.8849 -0.2299
  678MOL0     H89494   0.945   1.153   3.127 -0.1896  0.2271 -1.5145
  678MOL0     H89495   1.296   0.885   3.070  1.5719  2.6137 -1.4804
  678MOL0     H89496   1.501   0.983   3.140  1.4909 -2.9130  1.4789
  679MOL0     O89497  11.035   8.941   9.945  0.3265 -0.6246 -0.6838
  679MOL0     C89498  11.070   8.945  10.063 -0.7182 -0.3957  0.2364
  679MOL0     O89499  11.029   8.860  10.156  0.6172 -0.6256  0.1800
  679MOL0     C89500  10.917   8.781  10.136 -0.0181  0.2983  0.4731
  679MOL0     C89501  10.928   8.641  10.157  0.3331 -0.2269  0.2962
  679MOL0     C89502  10.822   8.549  10.116 -0.3358  0.0116  0.9458
  679MOL0     C89503  10.699   8.605  10.069  0.0489  0.3388  0.2032
  679MOL0     O89504  10.594   8.528  10.047 -0.5097  0.0976  0.7262
  679MOL0     C89505  10.459   8.576  10.038  0.0847 -0.6782 -0.2072
  679MOL0     C89506  10.389   8.446  10.006  1.2830 -0.3344  0.8881
  679MOL0     C89507  10.238   8.471  10.011  0.2238 -0.4899 -0.1371
  679MOL0     C89508  10.186   8.577   9.915  0.7888 -0.2887  0.5100
  679MOL0     C89509  10.037   8.558   9.880  0.6334  0.0475 -0.0964
  679MOL0     C89510   9.946   8.560  10.004 -0.3490 -0.4846  0.2746
  679MOL0     C89511   9.811   8.498   9.988  0.3826 -0.0073 -0.0591
  679MOL0     C89512   9.806   8.350   9.997  0.4726 -0.0731  0.8254
  679MOL0     N89513   9.821   8.299  10.130  0.1691  0.2201 -0.0699
  679MOL0     C89514   9.736   8.318  10.240  0.0604  0.3953  0.0048
  679MOL0     C89515   9.808   8.276  10.341  0.6050  0.4032 -0.1659
  679MOL0     C89516   9.772   8.290  10.490 -0.3432  0.1434  0.0848
  679MOL0     C89517   9.639   8.220  10.519 -0.0533  0.1942  0.1514
  679MOL0     C89518   9.680   8.075  10.545 -0.0996 -0.3629 -0.2118
  679MOL0     C89519   9.556   7.986  10.566 -0.4475 -0.8307 -0.1600
  679MOL0     O89520   9.487   8.049  10.670  0.3304 -1.3777 -0.3774
  679MOL0     C89521   9.370   7.991  10.710  0.3011  0.8613  0.0721
  679MOL0     C89522   9.311   7.868  10.670 -0.7452  0.3289  0.3600
  679MOL0     C89523   9.174   7.829  10.702 -0.5382  0.9957 -0.3633
  679MOL0     C89524   9.096   7.911  10.774 -0.3714 -0.3923  0.5715
  679MOL0     C89525   8.958   7.867  10.818  0.8742  0.5289  0.8813
  679MOL0     O89526   8.891   7.965  10.873  0.2957 -0.1071  0.8216
  679MOL0     C89527   8.766   7.936  10.919 -0.1283 -0.0369  0.4535
  679MOL0     C89528   8.737   7.958  11.056  0.2864  0.3597  1.4567
  679MOL0     C89529   8.612   7.940  11.103  0.7698  0.3639 -0.0174
  679MOL0     C89530   8.499   7.903  11.023 -0.5657  0.0418 -0.0377
  679MOL0     O89531   8.376   7.909  11.083  0.3919  0.6368  0.5393
  679MOL0     C89532   8.289   8.008  11.030  1.0587 -0.5285 -0.1923
  679MOL0     C89533   8.147   7.970  11.073 -0.1595 -0.6759 -0.5338
  679MOL0     C89534   8.037   8.009  10.975  0.1289  0.0784 -0.2641
  679MOL0     C89535   7.902   7.959  11.014  0.6694  0.2598  0.0083
  679MOL0     C89536   7.801   8.041  10.930  0.9841  0.3176 -0.6754
  679MOL0     C89537   7.666   8.063  10.996  0.1934  0.5791  0.2184
  679MOL0     C89538   7.560   7.949  10.965  0.2087  0.4717 -0.1239
  679MOL0     C89539   7.423   7.965  11.039 -0.4790 -0.2152 -0.4612
  679MOL0    Cl89540   7.320   7.828  10.982 -0.4836 -0.0038  0.2508
  679MOL0     C89541   8.531   7.883  10.885 -0.4785 -0.7669 -0.2943
  679MOL0     C89542   8.663   7.892  10.840 -0.7931  0.9481 -0.1669
  679MOL0     O89543   8.916   7.748  10.810  0.5512  0.6477 -0.2048
  679MOL0     C89544   9.145   8.042  10.798  0.5956  1.0293 -0.1358
  679MOL0     C89545   9.280   8.073  10.765  0.3081  0.2025  0.4785
  679MOL0     N89546   9.933   8.232  10.293  0.2727 -0.6812 -1.1045
  679MOL0     N89547   9.944   8.251  10.167 -0.3569  0.6104 -0.0966
  679MOL0     C89548  10.691   8.744  10.054  0.0646 -0.0673 -0.1233
  679MOL0     C89549  10.789   8.826  10.097  0.2793 -0.1642 -0.3132
  679MOL0     C89550  11.169   9.058  10.094  0.1308 -0.2367  0.4152
  679MOL0     C89551  11.219   9.151  10.002  0.2350  0.3171 -0.5460
  679MOL0     C89552  11.321   9.240  10.032  0.1511  0.2997 -0.4622
  679MOL0     C89553  11.378   9.240  10.156  0.4509 -0.4378 -0.0994
  679MOL0     O89554  11.490   9.318  10.177 -0.2684  0.1135 -0.2539
  679MOL0     C89555  11.579   9.299  10.285 -0.5092  0.2286  0.6968
  679MOL0     C89556  11.670   9.426  10.293  0.2545  0.6533  0.1812
  679MOL0     C89557  11.584   9.557  10.334 -0.7763  0.4664 -0.4641
  679MOL0     C89558  11.572   9.662  10.234  0.9952 -0.1318  0.1577
  679MOL0     C89559  11.454   9.752  10.257 -1.3997  0.5188  0.1532
  679MOL0     C89560  11.369   9.830  10.289 -0.1164 -0.6254 -0.2546
  679MOL0     C89561  11.326   9.153  10.254  0.7410 -0.6595  0.2106
  679MOL0     C89562  11.227   9.075  10.223 -0.6342  0.5469  0.5977
  679MOL0     H89563  11.014   8.584  10.190  0.2136 -0.6623 -0.1385
  679MOL0     H89564  10.822   8.441  10.121 -2.6766 -0.1983 -1.2113
  679MOL0     H89565  10.460   8.643   9.952  1.8333  3.5165  2.7444
  679MOL0     H89566  10.421   8.631  10.124 -0.8790 -0.5055 -0.7305
  679MOL0     H89567  10.418   8.369  10.078 -2.1539 -0.7899  2.0049
  679MOL0     H89568  10.411   8.406   9.906 -0.8733  3.0034 -1.1148
  679MOL0     H89569  10.214   8.502  10.113  2.4543 -3.0641  1.3035
  679MOL0     H89570  10.191   8.374   9.991  0.1147  0.1486 -3.4829
  679MOL0     H89571  10.196   8.681   9.950  0.5362  0.3140 -1.1243
  679MOL0     H89572  10.236   8.570   9.818  0.9338 -0.9280  0.6279
  679MOL0     H89573  10.024   8.458   9.839 -0.1992  0.2197 -0.2757
  679MOL0     H89574  10.004   8.634   9.807  0.6025  1.6181  1.4832
  679MOL0     H89575   9.925   8.664  10.031  2.2405 -0.4399  2.5956
  679MOL0     H89576   9.989   8.504  10.087  1.2685  0.5198  0.1746
  679MOL0     H89577   9.748   8.548  10.062 -2.5368  0.7854 -2.8999
  679MOL0     H89578   9.769   8.527   9.891 -4.4743 -0.6950  1.5719
  679MOL0     H89579   9.875   8.294   9.932 -0.7322 -0.9544  0.2755
  679MOL0     H89580   9.708   8.318   9.962  0.5609 -0.2374  0.7272
  679MOL0     H89581   9.635   8.356  10.253 -0.1866 -0.6320  1.2531
  679MOL0     H89582   9.759   8.396  10.513  0.2103  0.2306  0.0163
  679MOL0     H89583   9.849   8.258  10.562  0.3072 -1.4554 -1.2320
  679MOL0     H89584   9.564   8.231  10.440  0.1404  2.5928  0.2343
  679MOL0     H89585   9.586   8.255  10.608  1.0131  1.1080  0.4531
  679MOL0     H89586   9.738   8.039  10.459 -3.4374  0.2261 -2.9225
  679MOL0     H89587   9.745   8.052  10.630  0.7001 -0.2620 -0.7849
  679MOL0     H89588   9.578   7.883  10.596 -1.8153 -1.3090 -0.6967
  679MOL0     H89589   9.494   7.979  10.477 -1.3266  0.6364  0.3030
  679MOL0     H89590   9.378   7.793  10.629  0.2723 -0.5655  3.3388
  679MOL0     H89591   9.125   7.738  10.670  0.0317  0.2460  0.8117
  679MOL0     H89592   8.819   7.988  11.120  3.0675 -0.7083 -1.3773
  679MOL0     H89593   8.595   7.948  11.210 -0.2728 -2.6821  0.1673
  679MOL0     H89594   8.288   8.002  10.921  1.0084  1.7112 -0.3626
  679MOL0     H89595   8.311   8.112  11.060 -0.5681 -0.2833  0.2492
  679MOL0     H89596   8.128   8.016  11.171  1.9409 -0.0559 -0.3801
  679MOL0     H89597   8.150   7.862  11.088  1.4901 -0.7785 -1.3535
  679MOL0     H89598   8.058   7.963  10.879 -0.6483  0.0604 -0.4353
  679MOL0     H89599   8.031   8.118  10.962 -0.5287  0.1002  0.1647
  679MOL0     H89600   7.886   7.852  10.999 -0.2381  0.1971  1.3117
  679MOL0     H89601   7.884   7.981  11.119 -0.3558 -1.6753  0.2872
  679MOL0     H89602   7.787   7.992  10.833 -0.2110  0.2241 -0.4704
  679MOL0     H89603   7.839   8.141  10.910  1.6610  0.5135  1.4018
  679MOL0     H89604   7.622   8.151  10.946 -0.6842  0.2999  0.4715
  679MOL0     H89605   7.660   8.090  11.102  1.8415  2.9119 -0.1921
  679MOL0     H89606   7.543   7.924  10.860 -1.7619 -2.2377  0.7471
  679MOL0     H89607   7.598   7.852  10.997 -1.5103  0.0920  0.8754
  679MOL0     H89608   7.374   8.059  11.013 -1.2891 -0.2147  0.9664
  679MOL0     H89609   7.431   7.957  11.147  2.2213 -4.2986 -0.7556
  679MOL0     H89610   8.453   7.875  10.810  1.0663  2.5433 -2.4892
  679MOL0     H89611   8.689   7.883  10.735  2.2569  0.0620  0.5717
  679MOL0     H89612   9.085   8.115  10.851 -3.5004 -0.2558 -2.4928
  679MOL0     H89613   9.319   8.172  10.784  0.9633 -0.0926  0.7333
  679MOL0     H89614  10.606   8.796  10.009  1.1115  1.0634 -0.8536
  679MOL0     H89615  10.778   8.932  10.077  2.0953  0.0569 -0.3282
  679MOL0     H89616  11.175   9.154   9.902 -3.1939  0.4008  0.8368
  679MOL0     H89617  11.357   9.311   9.959  1.3142  1.8671  1.5374
  679MOL0     H89618  11.640   9.214  10.253  0.2746  1.3690 -0.9774
  679MOL0     H89619  11.521   9.281  10.376  2.3309 -1.2267  2.3534
  679MOL0     H89620  11.749   9.413  10.368 -0.1383 -0.5135  0.4050
  679MOL0     H89621  11.715   9.452  10.197  1.0480  1.1236  0.6648
  679MOL0     H89622  11.626   9.605  10.423  2.2075  1.8097 -2.4507
  679MOL0     H89623  11.483   9.528  10.367  0.7507 -0.9624  3.6237
  679MOL0     H89624  11.662   9.724  10.222 -1.6093  3.8838 -0.7972
  679MOL0     H89625  11.561   9.603  10.143 -0.6139  0.4061 -0.0278
  679MOL0     H89626  11.288   9.894  10.316  1.6623  1.6266  0.0931
  679MOL0     H89627  11.357   9.145  10.358 -1.4706  0.7569  1.0531
  679MOL0     H89628  11.196   9.011  10.305  1.1981  0.7631  1.5230
  680MOL0     O89629   5.952   8.492   0.318  0.1779  0.9929 -0.0431
  680MOL0     C89630   5.962   8.541   0.204 -0.0106  0.6817 -0.3194
  680MOL0     O89631   5.862   8.583   0.125  0.3675 -0.0432 -0.2352
  680MOL0     C89632   5.731   8.555   0.163  0.3147 -0.5391  0.1964
  680MOL0     C89633   5.696   8.420   0.153  0.7119  0.0470 -0.0382
  680MOL0     C89634   5.562   8.381   0.190  0.4318 -0.2636  0.2996
  680MOL0     C89635   5.474   8.481   0.241 -0.2677  0.1970 -0.4151
  680MOL0     O89636   5.345   8.442   0.277 -0.2666 -0.1262  0.2475
  680MOL0     C89637   5.261   8.398   0.169 -0.7236 -0.0297 -0.4599
  680MOL0     C89638   5.220   8.514   0.072  0.5540 -0.2268 -0.2660
  680MOL0     C89639   5.150   8.643   0.122  0.7661 -0.0502  0.2879
  680MOL0     C89640   4.997   8.622   0.159 -0.4258 -0.8586 -0.4292
  680MOL0     C89641   4.913   8.627   0.029  0.4565 -0.0337 -0.2433
  680MOL0     C89642   4.784   8.553   0.044 -1.2321  0.9426 -0.5941
  680MOL0     C89643   4.688   8.641   0.124  0.1132 -0.8131 -1.0400
  680MOL0     C89644   4.542   8.590   0.147 -0.6034 -0.2573 -0.3229
  680MOL0     N89645   4.535   8.444   0.186 -0.6389 -0.2388  0.1904
  680MOL0     C89646   4.592   8.383   0.299  0.5892 -0.0291 -0.3760
  680MOL0     C89647   4.565   8.248   0.280 -0.4959  0.3603 -0.8531
  680MOL0     C89648   4.594   8.137   0.387 -0.3699  0.4716  0.5475
  680MOL0     C89649   4.747   8.126   0.416  0.2463 -0.0852  0.0131
  680MOL0     C89650   4.836   8.097   0.297  0.1754 -0.0329  0.2807
  680MOL0     C89651   4.976   8.118   0.319 -0.7042 -0.6586  0.2854
  680MOL0     O89652   5.033   8.025   0.412  0.2008  0.3325 -0.0638
  680MOL0     C89653   5.153   7.965   0.381  0.0788 -0.4400  0.1954
  680MOL0     C89654   5.193   7.844   0.434 -0.0363  0.0634 -0.2013
  680MOL0     C89655   5.312   7.784   0.401 -0.2374  0.2544 -0.5723
  680MOL0     C89656   5.396   7.846   0.312 -0.5123  0.0392 -0.2548
  680MOL0     C89657   5.538   7.788   0.301  0.1993  0.0289  0.0922
  680MOL0     O89658   5.647   7.874   0.279  0.6372 -0.3451  0.3597
  680MOL0     C89659   5.777   7.821   0.280  0.8869 -0.0656  0.1323
  680MOL0     C89660   5.863   7.892   0.351  0.9666 -0.2957 -0.2250
  680MOL0     C89661   6.001   7.868   0.353 -0.0560  0.8217  0.0219
  680MOL0     C89662   6.055   7.759   0.276 -0.2638  0.2959  0.6208
  680MOL0     O89663   6.188   7.736   0.264  0.6647 -0.4630  0.2177
  680MOL0     C89664   6.282   7.817   0.335 -0.1559 -1.0032  0.2967
  680MOL0     C89665   6.427   7.785   0.293  0.4505  0.5710 -0.7446
  680MOL0     C89666   6.467   7.874   0.177  0.6798 -0.6514 -0.0115
  680MOL0     C89667   6.592   7.822   0.100  0.0844  0.2253 -0.4652
  680MOL0     C89668   6.629   7.926  -0.008  0.1176  0.9387 -0.5688
  680MOL0     C89669   6.776   7.885  -0.052 -0.2642 -0.1323 -0.0530
  680MOL0     C89670   6.838   8.000  -0.136  0.8051 -0.1971  0.3195
  680MOL0     C89671   6.995   8.008  -0.134  0.1545 -0.0885  0.5882
  680MOL0    Cl89672   7.055   8.145  -0.227 -0.0684  0.2079 -0.2065
  680MOL0     C89673   5.961   7.688   0.197 -0.1381  0.1532 -0.4918
  680MOL0     C89674   5.822   7.716   0.201  0.3462 -0.2004  0.4029
  680MOL0     O89675   5.547   7.668   0.328  0.4792 -0.4696  0.2205
  680MOL0     C89676   5.361   7.964   0.249  0.8531  0.6021 -0.4661
  680MOL0     C89677   5.241   8.028   0.284 -1.0978  0.3920  0.1277
  680MOL0     N89678   4.502   8.232   0.159  0.4497 -0.3419 -0.1746
  680MOL0     N89679   4.492   8.346   0.103  0.4351 -0.3329  0.0385
  680MOL0     C89680   5.518   8.617   0.238  0.0286  0.4076 -0.4820
  680MOL0     C89681   5.646   8.654   0.196 -0.6143 -0.3906  0.1069
  680MOL0     C89682   6.099   8.554   0.142 -0.3207 -0.8244  0.1500
  680MOL0     C89683   6.213   8.482   0.188  0.7317  0.1149 -0.6269
  680MOL0     C89684   6.340   8.497   0.120 -0.2497  0.8415 -0.0074
  680MOL0     C89685   6.343   8.574  -0.001 -0.0179 -0.2759  0.1331
  680MOL0     O89686   6.463   8.591  -0.069 -0.9405  0.3009 -0.1883
  680MOL0     C89687   6.547   8.700  -0.045  0.1930 -0.2688 -0.1266
  680MOL0     C89688   6.680   8.651  -0.007 -0.3268 -0.0431  0.0715
  680MOL0     C89689   6.743   8.542  -0.103  0.2873 -0.6514 -0.3877
  680MOL0     C89690   6.790   8.596  -0.239  0.4865 -0.4073 -0.4816
  680MOL0     C89691   6.889   8.515  -0.299 -0.2754  0.7274 -0.5359
  680MOL0     C89692   6.986   8.452  -0.343  0.3527  0.3310 -0.4569
  680MOL0     C89693   6.231   8.649  -0.043  0.3713 -0.1829  0.2280
  680MOL0     C89694   6.108   8.637   0.027 -0.3435  0.7867 -0.4300
  680MOL0     H89695   5.763   8.343   0.117  0.9367  0.1029  0.2592
  680MOL0     H89696   5.534   8.277   0.183  1.5315 -0.4681 -1.3729
  680MOL0     H89697   5.170   8.360   0.217 -2.0038  0.9306 -2.0037
  680MOL0     H89698   5.312   8.323   0.107  3.7427  0.2758  2.4096
  680MOL0     H89699   5.153   8.456   0.007 -0.6924  0.5817  0.2514
  680MOL0     H89700   5.301   8.545   0.006 -0.7494  3.1761 -0.5041
  680MOL0     H89701   5.153   8.716   0.041 -0.9223 -1.8331 -1.4885
  680MOL0     H89702   5.205   8.692   0.203 -1.0237  2.6211  0.0300
  680MOL0     H89703   4.986   8.521   0.200  1.5402 -0.7580  0.4923
  680MOL0     H89704   4.958   8.700   0.224 -2.2695 -1.1368 -1.1362
  680MOL0     H89705   4.981   8.580  -0.044  2.1473  1.2316  0.4481
  680MOL0     H89706   4.906   8.733   0.004 -0.7603 -0.2074 -0.7142
  680MOL0     H89707   4.803   8.454   0.088 -1.7521 -0.1649 -2.7435
  680MOL0     H89708   4.733   8.540  -0.052 -3.5455  0.0413  0.6668
  680MOL0     H89709   4.732   8.659   0.222 -0.3202  1.0406 -1.1452
  680MOL0     H89710   4.671   8.736   0.071 -3.3438 -1.7058 -1.7754
  680MOL0     H89711   4.491   8.602   0.050  1.2638 -2.4931 -1.6839
  680MOL0     H89712   4.488   8.649   0.221 -0.9051 -1.6690  0.6154
  680MOL0     H89713   4.632   8.430   0.389  0.3036 -1.7641  0.7056
  680MOL0     H89714   4.566   8.046   0.333  0.4263  0.5228  0.0195
  680MOL0     H89715   4.528   8.151   0.473 -2.2237  3.0318 -1.1291
  680MOL0     H89716   4.771   8.045   0.486 -0.6949 -1.4275 -1.1454
  680MOL0     H89717   4.780   8.217   0.466 -0.3502  0.4465 -0.5513
  680MOL0     H89718   4.809   7.992   0.279  0.4918  0.1683 -1.6098
  680MOL0     H89719   4.807   8.163   0.215  1.6328  0.1310 -0.1381
  680MOL0     H89720   5.004   8.215   0.359  1.6177 -1.8422  1.7673
  680MOL0     H89721   5.026   8.113   0.221  0.8021  1.1237  0.9133
  680MOL0     H89722   5.126   7.789   0.499 -0.3771 -2.0091 -2.1797
  680MOL0     H89723   5.340   7.695   0.455 -0.7077  0.5121  0.1049
  680MOL0     H89724   5.833   7.986   0.395 -0.5865 -1.9415  2.4708
  680MOL0     H89725   6.067   7.930   0.413  2.0326 -1.6076  0.3691
  680MOL0     H89726   6.275   7.804   0.444  2.3421  4.1313  1.3699
  680MOL0     H89727   6.254   7.921   0.317 -2.0899 -1.3806  0.9118
  680MOL0     H89728   6.420   7.680   0.266 -1.2898 -0.2915  2.5439
  680MOL0     H89729   6.494   7.784   0.380  1.2391 -5.3251 -1.0402
  680MOL0     H89730   6.483   7.973   0.221 -3.6249  0.0356  0.4795
  680MOL0     H89731   6.381   7.882   0.109  0.5880 -1.5246 -0.0078
  680MOL0     H89732   6.674   7.821   0.172 -0.1693 -0.8546 -0.1674
  680MOL0     H89733   6.583   7.719   0.064 -0.3019  0.3703 -0.7853
  680MOL0     H89734   6.628   8.027   0.032  0.5189  1.1062 -0.9724
  680MOL0     H89735   6.560   7.931  -0.093 -2.2086 -0.5812  1.1259
  680MOL0     H89736   6.775   7.792  -0.109 -1.5015 -2.0997  2.9134
  680MOL0     H89737   6.842   7.858   0.031  2.8235 -1.8574 -2.8254
  680MOL0     H89738   6.812   7.993  -0.242  3.2109  3.0967 -0.6568
  680MOL0     H89739   6.796   8.100  -0.124 -0.6684 -0.3843 -2.5481
  680MOL0     H89740   7.046   7.918  -0.170 -1.4589  0.2788 -3.0103
  680MOL0     H89741   7.017   8.015  -0.027  1.5614  0.6146  0.2778
  680MOL0     H89742   5.988   7.595   0.147  1.1623 -2.4766  4.4371
  680MOL0     H89743   5.740   7.657   0.160 -1.1302  1.0201  1.4366
  680MOL0     H89744   5.436   8.015   0.189  1.2810  0.4024 -0.1113
  680MOL0     H89745   5.224   8.129   0.246  0.2736  0.1472 -1.2164
  680MOL0     H89746   5.442   8.691   0.263  0.0466 -0.0955  1.1513
  680MOL0     H89747   5.654   8.762   0.188  0.2362 -0.3109  1.6010
  680MOL0     H89748   6.214   8.423   0.279 -0.8030  1.1211  0.0772
  680MOL0     H89749   6.427   8.448   0.161 -0.9563 -0.4952 -0.0519
  680MOL0     H89750   6.503   8.757   0.038 -0.5317  2.4817 -2.2285
  680MOL0     H89751   6.555   8.762  -0.135 -1.9342  1.9637  1.0890
  680MOL0     H89752   6.750   8.732   0.017 -2.0081  0.2169  5.5595
  680MOL0     H89753   6.670   8.602   0.090  0.6172 -2.2631 -0.8816
  680MOL0     H89754   6.676   8.456  -0.113 -0.1409 -0.4570  0.6595
  680MOL0     H89755   6.833   8.501  -0.056  1.1170 -0.2612 -1.5846
  680MOL0     H89756   6.698   8.592  -0.297 -0.2943 -1.4370  0.7634
  680MOL0     H89757   6.824   8.699  -0.228 -1.4288  0.2412 -0.3644
  680MOL0     H89758   7.070   8.390  -0.369 -0.4899 -1.2844  0.4756
  680MOL0     H89759   6.237   8.687  -0.144 -0.8420  0.2727  0.3070
  680MOL0     H89760   6.020   8.682  -0.017 -0.1207  1.0107 -0.6466
  681MOL0     O89761   7.308   5.612   6.033  0.0150 -0.5917 -0.6081
  681MOL0     C89762   7.293   5.688   5.942 -0.7076 -0.0086 -0.1596
  681MOL0     O89763   7.170   5.738   5.895 -0.0313  0.9114  0.1377
  681MOL0     C89764   7.047   5.693   5.934 -0.5704  1.0246 -1.2489
  681MOL0     C89765   7.016   5.576   5.996 -0.1056 -0.4252 -0.1526
  681MOL0     C89766   6.883   5.550   6.018  0.3274  0.9258  0.0996
  681MOL0     C89767   6.780   5.624   5.970  0.0485 -0.4943  0.2206
  681MOL0     O89768   6.658   5.578   5.987  0.0340 -0.7290 -0.3635
  681MOL0     C89769   6.590   5.653   6.096 -0.0191 -0.8978  1.0896
  681MOL0     C89770   6.541   5.560   6.207  0.3023 -0.6358 -0.3095
  681MOL0     C89771   6.649   5.452   6.267  0.8202  0.4076 -0.3524
  681MOL0     C89772   6.595   5.354   6.367  0.8431  0.5105  0.4154
  681MOL0     C89773   6.716   5.272   6.435  0.2150  0.0140  0.0543
  681MOL0     C89774   6.662   5.191   6.553 -0.0856  0.0647 -0.1099
  681MOL0     C89775   6.756   5.072   6.576 -0.3962  0.2232 -0.8721
  681MOL0     C89776   6.865   5.093   6.677 -0.3374 -0.0793 -0.3459
  681MOL0     N89777   6.935   4.961   6.687  0.2546 -0.0339  0.7323
  681MOL0     C89778   6.976   4.915   6.802  0.3750 -0.1310  0.3956
  681MOL0     C89779   7.062   4.816   6.775  0.1679 -0.3922 -1.0642
  681MOL0     C89780   7.130   4.731   6.878 -0.0036  0.8837  0.3330
  681MOL0     C89781   7.262   4.788   6.936 -0.8991 -0.7053  0.2862
  681MOL0     C89782   7.330   4.690   7.036  0.2571 -0.0840  0.5026
  681MOL0     C89783   7.458   4.756   7.095  1.4320  0.7364 -0.0449
  681MOL0     O89784   7.559   4.761   6.995  0.3354  0.5110  0.0958
  681MOL0     C89785   7.632   4.883   6.973  0.0271  0.1459 -0.1704
  681MOL0     C89786   7.650   4.983   7.070  0.4474 -0.4795  0.1370
  681MOL0     C89787   7.734   5.088   7.036 -0.7823  0.2340 -0.1867
  681MOL0     C89788   7.816   5.094   6.922 -0.0782  0.2554 -0.2760
  681MOL0     C89789   7.915   5.194   6.900 -0.5292 -0.5203 -0.3529
  681MOL0     O89790   8.006   5.162   6.799  0.5684  0.1753  0.4421
  681MOL0     C89791   8.130   5.218   6.800 -0.0358  0.4213 -0.1370
  681MOL0     C89792   8.209   5.217   6.919 -0.1003 -0.2583 -0.1435
  681MOL0     C89793   8.323   5.302   6.936  0.4378  0.9454  0.6813
  681MOL0     C89794   8.376   5.368   6.828  0.0368  0.1374 -1.0985
  681MOL0     O89795   8.477   5.452   6.832 -0.1392 -0.4088  0.0318
  681MOL0     C89796   8.585   5.423   6.926  1.1265  0.2694  0.0236
  681MOL0     C89797   8.705   5.489   6.876  0.5529  0.1045 -0.5005
  681MOL0     C89798   8.829   5.433   6.955  0.3514 -0.1132  0.5134
  681MOL0     C89799   8.962   5.501   6.900  0.9052  0.5916 -0.1866
  681MOL0     C89800   9.080   5.423   6.964 -0.1237 -0.2330 -0.9883
  681MOL0     C89801   9.205   5.453   6.878  0.3704  0.4934  0.7508
  681MOL0     C89802   9.249   5.596   6.885  0.3587  0.0279 -1.3017
  681MOL0     C89803   9.296   5.644   7.032 -0.5479  0.4358  0.2354
  681MOL0    Cl89804   9.409   5.792   7.014  0.4869 -0.1562 -0.1840
  681MOL0     C89805   8.297   5.368   6.708 -0.1221 -0.3296 -0.7893
  681MOL0     C89806   8.175   5.296   6.690 -0.2058  0.2538  0.6926
  681MOL0     O89807   7.912   5.302   6.956 -0.5144 -0.2656 -0.8606
  681MOL0     C89808   7.783   5.003   6.816 -0.0395  0.7206  0.4673
  681MOL0     C89809   7.695   4.893   6.849  0.2606 -0.4430 -0.3947
  681MOL0     N89810   7.068   4.798   6.635 -0.5252  0.1101 -0.0390
  681MOL0     N89811   6.988   4.890   6.580 -0.1442  0.0522  0.1659
  681MOL0     C89812   6.808   5.746   5.902  0.1414 -0.5767 -1.0960
  681MOL0     C89813   6.942   5.782   5.895 -0.1239  0.4377 -0.2292
  681MOL0     C89814   7.413   5.729   5.879  0.3193 -0.5572 -0.0543
  681MOL0     C89815   7.539   5.722   5.950 -0.1908 -0.4253  0.8187
  681MOL0     C89816   7.652   5.743   5.878 -0.9327  0.1839  0.5363
  681MOL0     C89817   7.659   5.785   5.745 -0.3425 -1.0698 -0.0382
  681MOL0     O89818   7.783   5.822   5.683 -0.3013 -0.3026 -0.3630
  681MOL0     C89819   7.903   5.773   5.735  0.2386 -0.4456 -0.1275
  681MOL0     C89820   8.011   5.814   5.640 -0.6079  0.2108  0.1816
  681MOL0     C89821   8.153   5.748   5.688  0.9700 -0.1535  0.2398
  681MOL0     C89822   8.267   5.801   5.596 -0.2730  0.5850 -1.0440
  681MOL0     C89823   8.393   5.745   5.628 -0.2916  0.6105  0.5627
  681MOL0     C89824   8.496   5.683   5.641  0.3413 -0.1360 -0.4799
  681MOL0     C89825   7.534   5.814   5.678 -0.7577  0.4389 -0.3861
  681MOL0     C89826   7.412   5.782   5.746  0.3001  0.1131  0.4833
  681MOL0     H89827   7.084   5.502   6.037 -2.9592 -1.9740  2.2175
  681MOL0     H89828   6.859   5.459   6.073  0.5793  0.2597 -0.8724
  681MOL0     H89829   6.505   5.709   6.056  1.7616 -0.1098 -1.8730
  681MOL0     H89830   6.648   5.729   6.150 -0.8074  1.7830 -1.5495
  681MOL0     H89831   6.455   5.503   6.171 -0.2022  0.3387 -0.6836
  681MOL0     H89832   6.492   5.613   6.289 -0.0034  0.4714 -1.1713
  681MOL0     H89833   6.727   5.513   6.314  0.0301  0.3091  1.1460
  681MOL0     H89834   6.692   5.395   6.184 -0.2670 -0.0838 -0.5913
  681MOL0     H89835   6.524   5.390   6.442  0.1467 -1.6721  0.8916
  681MOL0     H89836   6.532   5.280   6.316  2.9140 -1.6228  0.7708
  681MOL0     H89837   6.788   5.344   6.475  1.2651 -0.9296 -0.0770
  681MOL0     H89838   6.747   5.215   6.347 -1.3557 -0.2766 -0.3403
  681MOL0     H89839   6.572   5.147   6.509  0.2148 -0.0457 -0.6212
  681MOL0     H89840   6.639   5.250   6.642 -0.6437  1.1247 -0.9316
  681MOL0     H89841   6.698   4.987   6.614  0.2542 -0.0493 -0.4677
  681MOL0     H89842   6.800   5.033   6.484 -0.5189  1.8202 -1.6284
  681MOL0     H89843   6.820   5.123   6.772  0.1155  2.5884 -0.9007
  681MOL0     H89844   6.919   5.180   6.639  1.7500 -0.2103  2.0464
  681MOL0     H89845   6.958   4.955   6.901  1.1249  1.8573 -0.2158
  681MOL0     H89846   7.134   4.632   6.831  0.0564  1.1477 -0.2228
  681MOL0     H89847   7.069   4.727   6.969 -1.4163  0.2241 -0.6021
  681MOL0     H89848   7.249   4.886   6.983  4.3232  2.1002 -3.1219
  681MOL0     H89849   7.334   4.809   6.856 -1.1824 -0.5815  0.0592
  681MOL0     H89850   7.264   4.663   7.119  0.7550 -0.7425  0.6949
  681MOL0     H89851   7.363   4.606   6.974 -1.5669 -0.3034 -0.2093
  681MOL0     H89852   7.484   4.697   7.183  0.9518  2.2813  1.1734
  681MOL0     H89853   7.430   4.857   7.127  2.0248 -0.1369  3.6663
  681MOL0     H89854   7.601   4.985   7.166  1.0545  0.3724  0.4436
  681MOL0     H89855   7.732   5.171   7.106 -2.8794  1.6173 -1.8067
  681MOL0     H89856   8.169   5.168   7.007 -1.5803  3.5431  1.4924
  681MOL0     H89857   8.390   5.290   7.020  1.7695 -4.5889 -0.7549
  681MOL0     H89858   8.594   5.314   6.924  0.3921  0.1743  0.9095
  681MOL0     H89859   8.557   5.469   7.021  0.7876  0.5906 -0.2281
  681MOL0     H89860   8.698   5.596   6.894  1.0201  0.3023 -1.4495
  681MOL0     H89861   8.710   5.472   6.768 -1.5060 -0.8884 -0.4974
  681MOL0     H89862   8.828   5.324   6.950 -0.5755 -0.1589  1.3082
  681MOL0     H89863   8.821   5.449   7.063 -2.5490 -1.6442  0.6336
  681MOL0     H89864   8.973   5.499   6.791  1.2675  0.3724 -0.1474
  681MOL0     H89865   8.967   5.607   6.928 -2.2007  1.0863 -1.1696
  681MOL0     H89866   9.068   5.315   6.966  0.6451 -0.3713  2.0843
  681MOL0     H89867   9.105   5.457   7.065  0.2504  1.6473 -1.6737
  681MOL0     H89868   9.183   5.438   6.772  0.1816  1.8624  0.5767
  681MOL0     H89869   9.281   5.375   6.890  1.2502  1.4397  1.4649
  681MOL0     H89870   9.325   5.623   6.812 -1.9198  2.4176 -2.9930
  681MOL0     H89871   9.163   5.656   6.855 -2.3374 -3.5711 -1.5335
  681MOL0     H89872   9.362   5.568   7.076  0.2665  1.3254  0.5586
  681MOL0     H89873   9.207   5.662   7.094 -0.7144 -1.0326  0.4773
  681MOL0     H89874   8.323   5.427   6.620  0.5389 -0.4765 -0.6957
  681MOL0     H89875   8.130   5.283   6.592  0.3268  1.7151  0.2322
  681MOL0     H89876   7.832   4.993   6.720  1.3450  0.6259  1.1661
  681MOL0     H89877   7.690   4.802   6.791  2.0163 -0.4688 -0.5636
  681MOL0     H89878   6.726   5.799   5.855 -3.0875 -2.2668  2.1048
  681MOL0     H89879   6.973   5.875   5.849 -1.7203  0.0170 -2.3122
  681MOL0     H89880   7.543   5.689   6.053  1.2218 -0.0829  0.8985
  681MOL0     H89881   7.738   5.734   5.944  2.0697 -1.3837 -3.2221
  681MOL0     H89882   7.890   5.665   5.746 -2.8112 -0.2181 -0.5767
  681MOL0     H89883   7.918   5.814   5.835 -1.9406 -2.8831  1.3361
  681MOL0     H89884   7.996   5.773   5.540  1.8700  1.5457 -0.8506
  681MOL0     H89885   8.034   5.921   5.645 -0.9351  0.2492  0.9459
  681MOL0     H89886   8.146   5.639   5.684 -1.7733 -0.0372 -0.7368
  681MOL0     H89887   8.176   5.778   5.790  2.9862 -2.4035  0.5397
  681MOL0     H89888   8.255   5.778   5.490  3.6167 -0.7228 -1.3569
  681MOL0     H89889   8.274   5.910   5.602  2.1410  0.4760 -1.1411
  681MOL0     H89890   8.586   5.627   5.657 -0.0433 -0.2536  1.4680
  681MOL0     H89891   7.538   5.836   5.572  4.4698 -2.3520 -1.1232
  681MOL0     H89892   7.316   5.781   5.694  1.3057 -0.6554 -1.4739
  682MOL0     O89893   8.671   8.595   4.401  0.2637 -0.3254 -0.2535
  682MOL0     C89894   8.608   8.644   4.497  0.0867  0.0540 -0.6198
  682MOL0     O89895   8.470   8.649   4.515 -0.1443 -0.5636  0.3167
  682MOL0     C89896   8.394   8.599   4.414  0.6163  0.0209  0.9417
  682MOL0     C89897   8.382   8.466   4.392 -0.0321  0.7882 -0.6692
  682MOL0     C89898   8.293   8.408   4.297  0.2134  0.5503 -0.3065
  682MOL0     C89899   8.196   8.490   4.244 -0.3628 -0.7818  0.1757
  682MOL0     O89900   8.088   8.452   4.172  0.1080 -0.4177  0.2858
  682MOL0     C89901   7.973   8.430   4.254  0.5097  0.0409 -0.5155
  682MOL0     C89902   7.846   8.478   4.184  0.0413 -0.8237  0.0650
  682MOL0     C89903   7.718   8.483   4.262 -0.4364  0.6662  0.4236
  682MOL0     C89904   7.663   8.344   4.293 -0.3884 -0.1205  1.0563
  682MOL0     C89905   7.551   8.347   4.390  0.7318  0.0312  0.3783
  682MOL0     C89906   7.425   8.417   4.333  0.1197 -0.1036 -0.0348
  682MOL0     C89907   7.295   8.380   4.406 -0.9046 -0.2455 -0.3001
  682MOL0     C89908   7.312   8.423   4.556  0.1542 -0.1765 -0.8052
  682MOL0     N89909   7.188   8.465   4.606 -0.0400 -0.0285 -0.5369
  682MOL0     C89910   7.173   8.561   4.707  0.3632  0.9244  0.8299
  682MOL0     C89911   7.037   8.567   4.732  0.0827  0.6795  1.0780
  682MOL0     C89912   6.956   8.669   4.811  0.3271  0.0902 -0.2462
  682MOL0     C89913   6.960   8.646   4.966 -0.0290 -0.0817 -0.0801
  682MOL0     C89914   6.895   8.512   5.010  0.3999 -0.0005  0.4134
  682MOL0     C89915   6.748   8.511   5.013  0.7625 -0.0775 -0.3351
  682MOL0     O89916   6.698   8.607   5.113  0.0036  0.1498  0.0383
  682MOL0     C89917   6.568   8.645   5.105  1.4121 -0.4125  0.4562
  682MOL0     C89918   6.516   8.740   5.198 -0.4982 -0.2724  0.1293
  682MOL0     C89919   6.380   8.775   5.201  0.6328 -0.2053 -0.9941
  682MOL0     C89920   6.287   8.700   5.131 -0.2912 -0.9669  1.0491
  682MOL0     C89921   6.149   8.726   5.123 -0.7396 -0.1268  0.3196
  682MOL0     O89922   6.071   8.685   5.015 -0.1347  0.0930 -0.0967
  682MOL0     C89923   5.933   8.684   5.024  0.0875 -0.4037  0.0633
  682MOL0     C89924   5.868   8.576   4.962 -0.7977 -0.1726 -1.2028
  682MOL0     C89925   5.726   8.579   4.956  0.3544 -0.0517  0.4849
  682MOL0     C89926   5.658   8.699   4.995  1.0281 -0.5165  0.3163
  682MOL0     O89927   5.523   8.709   5.005 -0.0854  0.9526  0.1446
  682MOL0     C89928   5.446   8.612   5.077  0.3033 -0.1123  1.0742
  682MOL0     C89929   5.299   8.650   5.058  0.5670  0.8299  0.5783
  682MOL0     C89930   5.257   8.640   4.908  0.0314  0.9634 -0.1746
  682MOL0     C89931   5.104   8.648   4.888 -0.5088  0.0068 -0.3158
  682MOL0     C89932   5.072   8.620   4.744 -0.2487  0.5011 -0.8222
  682MOL0     C89933   4.934   8.669   4.702  0.1604 -0.4653 -0.1433
  682MOL0     C89934   4.881   8.624   4.565  0.3837  0.0461 -0.8058
  682MOL0     C89935   4.743   8.684   4.544 -0.2016 -0.0134 -0.0601
  682MOL0    Cl89936   4.639   8.596   4.434 -0.5620 -0.1425 -0.0841
  682MOL0     C89937   5.725   8.809   5.040 -0.3953  0.0133 -0.0940
  682MOL0     C89938   5.868   8.802   5.055  0.2068 -0.2818 -0.3243
  682MOL0     O89939   6.102   8.777   5.222 -0.6503 -0.7040  0.8583
  682MOL0     C89940   6.338   8.596   5.047 -0.1540 -0.6907 -0.5471
  682MOL0     C89941   6.470   8.570   5.035 -0.1070  0.6013 -0.1461
  682MOL0     N89942   6.980   8.478   4.656 -0.1701  0.2659 -0.2448
  682MOL0     N89943   7.064   8.418   4.577  0.3677  0.1340  0.9673
  682MOL0     C89944   8.210   8.625   4.269  0.4368 -1.4524  0.0700
  682MOL0     C89945   8.308   8.683   4.344  0.5132 -0.3241  0.0449
  682MOL0     C89946   8.698   8.700   4.601 -0.1982  0.2618  0.0138
  682MOL0     C89947   8.660   8.815   4.667  1.2147 -0.1915 -0.8372
  682MOL0     C89948   8.751   8.887   4.756  0.0264  0.7607  0.0023
  682MOL0     C89949   8.876   8.825   4.779 -0.5981  0.2637  0.1048
  682MOL0     O89950   8.955   8.885   4.879  1.0762  0.5418 -0.3268
  682MOL0     C89951   9.090   8.843   4.905  0.8387 -0.2497  0.5134
  682MOL0     C89952   9.184   8.915   4.812  0.1176 -0.8856  0.3044
  682MOL0     C89953   9.214   9.063   4.835 -0.1436  0.6062 -0.4641
  682MOL0     C89954   9.265   9.137   4.707 -0.2501 -0.0483 -0.3264
  682MOL0     C89955   9.156   9.127   4.607 -0.0232  0.2149 -0.0752
  682MOL0     C89956   9.048   9.128   4.548 -0.7725  0.5029  0.4160
  682MOL0     C89957   8.916   8.706   4.716  0.3987 -0.6330  0.4774
  682MOL0     C89958   8.826   8.655   4.620 -0.3020 -0.2781 -0.3653
  682MOL0     H89959   8.443   8.396   4.449  1.2109  1.4513 -1.1445
  682MOL0     H89960   8.287   8.304   4.270  0.3954  0.3881  0.2549
  682MOL0     H89961   7.995   8.496   4.339  0.0975  2.8074 -2.4321
  682MOL0     H89962   7.968   8.325   4.286  0.9623 -0.0594 -0.7702
  682MOL0     H89963   7.830   8.424   4.090  2.1983  3.0299 -2.7752
  682MOL0     H89964   7.862   8.582   4.155  1.9595 -1.2639 -0.6405
  682MOL0     H89965   7.640   8.533   4.203 -1.0468 -0.0825  0.5738
  682MOL0     H89966   7.728   8.545   4.351  1.5857 -0.7050  1.1993
  682MOL0     H89967   7.624   8.288   4.207  0.1200  0.0363  0.7205
  682MOL0     H89968   7.748   8.288   4.332  1.3612 -0.7882 -3.2267
  682MOL0     H89969   7.583   8.391   4.485  2.0385  0.2376 -0.1289
  682MOL0     H89970   7.522   8.243   4.405 -2.6690  0.8762  0.4352
  682MOL0     H89971   7.411   8.376   4.233 -2.1300 -4.6183  1.7938
  682MOL0     H89972   7.431   8.526   4.325 -0.2448 -0.1365 -0.8355
  682MOL0     H89973   7.216   8.437   4.356 -0.7574 -2.0210 -2.7478
  682MOL0     H89974   7.268   8.274   4.404 -0.7963 -0.3667  1.8448
  682MOL0     H89975   7.386   8.504   4.557 -0.4612  0.3952 -0.5473
  682MOL0     H89976   7.347   8.334   4.609  0.7749 -0.1732 -1.1926
  682MOL0     H89977   7.255   8.617   4.750  0.2095  1.8363 -0.0518
  682MOL0     H89978   6.853   8.663   4.774  0.3985 -1.7482 -0.2592
  682MOL0     H89979   6.987   8.772   4.796  3.0634 -0.7617 -0.9691
  682MOL0     H89980   6.915   8.733   5.015 -1.4962 -1.2848  0.8388
  682MOL0     H89981   7.064   8.644   5.001 -0.7070  1.3144  2.2988
  682MOL0     H89982   6.939   8.435   4.946 -0.1613 -0.7428  0.9170
  682MOL0     H89983   6.930   8.480   5.108 -0.1079  1.1776  0.9980
  682MOL0     H89984   6.713   8.407   5.018 -0.0763  0.1285 -1.4198
  682MOL0     H89985   6.717   8.555   4.918  0.2008 -0.0884 -0.1602
  682MOL0     H89986   6.580   8.784   5.274 -1.4534 -1.1331  1.4653
  682MOL0     H89987   6.333   8.841   5.273  0.1766 -2.6450  1.1022
  682MOL0     H89988   5.934   8.500   4.924  3.1204  1.8222  0.9976
  682MOL0     H89989   5.673   8.492   4.919  4.2599 -2.7366  0.5673
  682MOL0     H89990   5.480   8.599   5.180  1.9122  1.4592  0.7972
  682MOL0     H89991   5.461   8.515   5.028 -2.2312  0.0864 -0.2534
  682MOL0     H89992   5.277   8.753   5.089 -1.0330  1.1986 -1.5881
  682MOL0     H89993   5.240   8.580   5.119  0.0096  0.0066 -0.8666
  682MOL0     H89994   5.293   8.544   4.869  1.4666  0.6772  1.6706
  682MOL0     H89995   5.313   8.724   4.866  1.4871  0.3841  0.5238
  682MOL0     H89996   5.059   8.577   4.959 -1.0541  0.2128 -0.4491
  682MOL0     H89997   5.055   8.741   4.916 -1.7421 -0.2750 -1.4401
  682MOL0     H89998   5.078   8.512   4.730  1.0831  0.3194  0.7735
  682MOL0     H89999   5.150   8.669   4.684 -0.4328  0.1074 -1.3942
  682MOL0     H90000   4.917   8.777   4.698 -1.7188 -0.7724 -2.5762
  682MOL0     H90001   4.868   8.639   4.783  0.7320  0.8945  0.8718
  682MOL0     H90002   4.959   8.646   4.492  0.6158 -0.5101 -0.7373
  682MOL0     H90003   4.870   8.515   4.564 -1.5109  0.2075 -2.3133
  682MOL0     H90004   4.747   8.787   4.507  2.6309  0.1333  0.3676
  682MOL0     H90005   4.686   8.677   4.637 -0.6982 -0.8869 -0.4209
  682MOL0     H90006   5.675   8.905   5.053 -0.3058  0.4215 -2.2647
  682MOL0     H90007   5.920   8.886   5.099 -1.0759 -0.2650  1.2260
  682MOL0     H90008   6.272   8.530   4.991  1.9458 -2.5167 -0.9835
  682MOL0     H90009   6.492   8.505   4.951 -0.2508  0.6962 -0.2584
  682MOL0     H90010   8.131   8.684   4.224  0.5906 -0.6285  0.8575
  682MOL0     H90011   8.320   8.790   4.357  2.2845 -0.1756 -2.2628
  682MOL0     H90012   8.563   8.859   4.649  1.0894  0.2650  0.7854
  682MOL0     H90013   8.722   8.981   4.801  2.4672  0.7737  1.7536
  682MOL0     H90014   9.101   8.735   4.892 -0.5153 -0.3612  0.1325
  682MOL0     H90015   9.112   8.869   5.009  0.4388  0.8069  0.3445
  682MOL0     H90016   9.287   8.878   4.822  0.6352  0.5732  0.6113
  682MOL0     H90017   9.141   8.889   4.715 -2.7998 -1.7570  1.7386
  682MOL0     H90018   9.268   9.089   4.926  1.7464  1.4637 -1.7696
  682MOL0     H90019   9.117   9.113   4.851  0.8062  2.7371 -1.0203
  682MOL0     H90020   9.294   9.241   4.729 -1.3670  0.3909 -0.8280
  682MOL0     H90021   9.349   9.086   4.660  0.4045 -2.0587  2.7473
  682MOL0     H90022   8.963   9.108   4.486 -0.5612  0.0480  0.2699
  682MOL0     H90023   9.000   8.643   4.743  0.0250 -0.6174  1.7108
  682MOL0     H90024   8.855   8.564   4.568 -1.3068  0.6847 -2.7513
  683MOL0     O90025   7.042   6.192  10.366 -0.1975 -0.1781  0.2476
  683MOL0     C90026   7.079   6.281  10.445 -0.4582 -0.6156 -0.0419
  683MOL0     O90027   7.000   6.359  10.525  0.0101 -0.1819 -0.5343
  683MOL0     C90028   6.870   6.374  10.490  0.3142  0.4057 -0.2065
  683MOL0     C90029   6.776   6.395  10.591 -0.1589  0.0735 -0.2259
  683MOL0     C90030   6.637   6.395  10.578  0.3024 -0.4896  0.6971
  683MOL0     C90031   6.582   6.388  10.449 -0.0654 -0.4644 -0.0237
  683MOL0     O90032   6.451   6.403  10.430 -0.0299  0.0092  0.4897
  683MOL0     C90033   6.405   6.416  10.297  0.8110 -0.2063  0.3064
  683MOL0     C90034   6.254   6.432  10.300 -0.7702 -0.3718 -0.1088
  683MOL0     C90035   6.215   6.574  10.358  0.4088  0.2167  0.5052
  683MOL0     C90036   6.077   6.598  10.317  0.2973  0.2820  0.2354
  683MOL0     C90037   6.026   6.738  10.337  0.7227 -0.2545  0.1888
  683MOL0     C90038   5.928   6.783  10.221 -0.7654 -0.3120  0.0065
  683MOL0     C90039   5.852   6.912  10.265  0.6473  0.7649  0.3980
  683MOL0     C90040   5.789   6.985  10.148  0.1433  0.3279 -0.1668
  683MOL0     N90041   5.695   7.099  10.191  1.3261 -0.4757  0.4435
  683MOL0     C90042   5.669   7.152  10.312  0.0191  1.0754  0.2289
  683MOL0     C90043   5.569   7.249  10.294  0.1429  0.0944 -0.6492
  683MOL0     C90044   5.481   7.306  10.402 -0.4700  0.7114  0.7784
  683MOL0     C90045   5.510   7.464  10.428 -0.7510  0.0136 -0.1349
  683MOL0     C90046   5.447   7.546  10.320 -0.6644 -0.5359  0.2227
  683MOL0     C90047   5.305   7.565  10.350  0.4872 -0.2351  0.4529
  683MOL0     O90048   5.244   7.618  10.238  0.0047  0.0626  0.1419
  683MOL0     C90049   5.111   7.631  10.237 -0.8588 -0.2704  0.0454
  683MOL0     C90050   5.062   7.721  10.140  0.4519  0.4433 -0.7480
  683MOL0     C90051   4.928   7.733  10.125  0.4830  0.2300  0.2466
  683MOL0     C90052   4.836   7.660  10.198 -0.7939  1.1800 -0.4063
  683MOL0     C90053   4.696   7.675  10.190  0.7610 -0.1891  0.0011
  683MOL0     O90054   4.623   7.612  10.285  0.6986 -0.4117  0.2103
  683MOL0     C90055   4.488   7.641  10.303 -0.5050 -0.0502  0.2679
  683MOL0     C90056   4.407   7.526  10.320  0.1130 -1.0501 -0.4083
  683MOL0     C90057   4.268   7.544  10.327  0.1741  0.1070 -0.2933
  683MOL0     C90058   4.209   7.670  10.319 -0.1022  0.0102  0.2585
  683MOL0     O90059   4.077   7.690  10.310 -0.1969 -0.0368  0.8386
  683MOL0     C90060   3.990   7.573  10.290 -0.2223 -0.0715  0.4816
  683MOL0     C90061   3.855   7.610  10.247  0.6457 -0.7703  0.0791
  683MOL0     C90062   3.780   7.488  10.216 -1.0809 -0.2875  0.2434
  683MOL0     C90063   3.631   7.510  10.218 -0.7552 -0.7214  0.3765
  683MOL0     C90064   3.553   7.394  10.154 -0.0534 -0.7697 -0.1977
  683MOL0     C90065   3.401   7.415  10.169  0.7474 -1.0971  0.6730
  683MOL0     C90066   3.344   7.477  10.307 -0.1167 -1.2165  0.8675
  683MOL0     C90067   3.198   7.474  10.308 -0.3871  0.4916 -0.0590
  683MOL0    Cl90068   3.145   7.305  10.320  0.2915  0.5402  0.0421
  683MOL0     C90069   4.293   7.784  10.317 -0.0412  0.0135 -0.9750
  683MOL0     C90070   4.432   7.772  10.302  0.3001  0.4533  0.3987
  683MOL0     O90071   4.654   7.746  10.095  0.0876  0.1371 -0.0548
  683MOL0     C90072   4.894   7.571  10.297 -0.1501 -0.0190 -0.0890
  683MOL0     C90073   5.027   7.548  10.313  1.4706 -1.2520  0.2141
  683MOL0     N90074   5.550   7.248  10.160 -0.2582  0.1208  0.2660
  683MOL0     N90075   5.618   7.164  10.094 -0.5663 -0.4844 -0.3849
  683MOL0     C90076   6.672   6.376  10.337  0.1909 -0.9455 -0.2929
  683MOL0     C90077   6.821   6.375  10.359  0.3768 -0.4147 -0.4496
  683MOL0     C90078   7.226   6.301  10.448  0.7323  0.7949 -0.4828
  683MOL0     C90079   7.321   6.195  10.417 -0.2999  0.4389 -0.0011
  683MOL0     C90080   7.455   6.221  10.414 -0.3156 -0.8189 -0.5493
  683MOL0     C90081   7.510   6.354  10.439 -0.1834  0.0362 -0.1770
  683MOL0     O90082   7.644   6.389  10.448 -0.2552  0.2732  0.0497
  683MOL0     C90083   7.732   6.304  10.387 -0.2634 -0.2181  0.0359
  683MOL0     C90084   7.832   6.389  10.313 -0.2070 -0.3987  0.1029
  683MOL0     C90085   7.935   6.444  10.417  0.0455 -0.0462  0.2552
  683MOL0     C90086   8.007   6.574  10.367 -0.0525  0.5949  0.3887
  683MOL0     C90087   7.937   6.698  10.415 -0.0366 -0.0186  0.0721
  683MOL0     C90088   7.883   6.803  10.438 -0.0534  0.3648  0.4594
  683MOL0     C90089   7.423   6.462  10.463  0.6033  0.3638 -0.0065
  683MOL0     C90090   7.284   6.428  10.482  0.3174 -0.3961 -0.0043
  683MOL0     H90091   6.818   6.403  10.690  0.9003 -0.7364 -0.5962
  683MOL0     H90092   6.567   6.404  10.661  0.0612  0.7201  0.3835
  683MOL0     H90093   6.412   6.320  10.245 -3.7929 -0.3586 -0.4509
  683MOL0     H90094   6.452   6.505  10.255 -2.1275  1.2383 -0.1768
  683MOL0     H90095   6.201   6.352  10.353 -2.1092  0.5319 -0.0307
  683MOL0     H90096   6.215   6.427  10.197 -2.0673 -1.8394  0.4200
  683MOL0     H90097   6.274   6.654  10.311 -1.3396  0.3641 -1.5436
  683MOL0     H90098   6.230   6.572  10.466 -0.2474  0.4729  0.6029
  683MOL0     H90099   6.075   6.574  10.211  1.7816  4.8640 -1.0503
  683MOL0     H90100   6.014   6.526  10.371 -1.0888  2.0482  1.0613
  683MOL0     H90101   6.111   6.807  10.344  2.0594 -1.4641 -2.5095
  683MOL0     H90102   5.976   6.732  10.434  1.6773 -3.6213  0.6136
  683MOL0     H90103   5.861   6.700  10.199  4.0710 -4.6792 -0.2567
  683MOL0     H90104   5.993   6.801  10.135  0.2781  2.8558  1.2682
  683MOL0     H90105   5.781   6.885  10.343 -1.3527  1.8299 -0.9624
  683MOL0     H90106   5.928   6.980  10.305  0.8684  0.4249  0.5589
  683MOL0     H90107   5.715   6.914  10.113  1.0324 -2.0031  2.3521
  683MOL0     H90108   5.858   7.037  10.081 -0.1542  0.5025 -0.3394
  683MOL0     H90109   5.721   7.115  10.400  1.0770 -3.2974 -1.9680
  683MOL0     H90110   5.492   7.245  10.491  0.7513 -0.8373 -0.3787
  683MOL0     H90111   5.380   7.296  10.361 -0.9066  3.4130  1.0195
  683MOL0     H90112   5.618   7.472  10.446 -1.2258  0.9192  2.9434
  683MOL0     H90113   5.478   7.493  10.529  0.9151 -0.1659  0.4787
  683MOL0     H90114   5.493   7.644  10.337  1.8239 -1.8075  1.4170
  683MOL0     H90115   5.471   7.506  10.222  2.6081  0.8836  0.3211
  683MOL0     H90116   5.293   7.633  10.435  0.6898  0.3737 -0.0014
  683MOL0     H90117   5.262   7.467  10.375  0.4071 -0.3507 -0.1399
  683MOL0     H90118   5.129   7.780  10.077  5.8498 -1.1491  2.7950
  683MOL0     H90119   4.895   7.806  10.051 -1.3798 -0.1209  0.6901
  683MOL0     H90120   4.450   7.427  10.330  1.1164 -0.4401  2.2858
  683MOL0     H90121   4.216   7.449  10.327 -1.1282  0.8024 -0.1400
  683MOL0     H90122   3.978   7.534  10.391 -1.2241  0.8441  0.7262
  683MOL0     H90123   4.028   7.505  10.213 -2.1980 -0.7297  0.0419
  683MOL0     H90124   3.859   7.671  10.157  0.2035  0.5680  0.9350
  683MOL0     H90125   3.804   7.668  10.324  0.3282  1.0349 -1.4354
  683MOL0     H90126   3.791   7.409  10.292  1.5075 -1.7950 -1.5327
  683MOL0     H90127   3.808   7.434  10.125 -0.4076 -1.4953  1.1406
  683MOL0     H90128   3.593   7.533  10.318 -1.3937 -1.6063  0.3539
  683MOL0     H90129   3.608   7.599  10.159 -0.9705  1.3902  3.4193
  683MOL0     H90130   3.584   7.298  10.197  0.9852 -1.1296 -1.6698
  683MOL0     H90131   3.581   7.381  10.049  0.3307  0.3439 -0.2452
  683MOL0     H90132   3.365   7.315  10.145 -0.1797 -0.6707  0.2231
  683MOL0     H90133   3.372   7.487  10.091 -1.1747  0.9736  3.1519
  683MOL0     H90134   3.381   7.418  10.392  2.7500 -0.1168  0.4829
  683MOL0     H90135   3.384   7.578  10.319  0.9742 -1.6402  0.9237
  683MOL0     H90136   3.171   7.523  10.213  1.6461  1.9637  0.0295
  683MOL0     H90137   3.157   7.539  10.386 -3.3302  0.0488 -1.1331
  683MOL0     H90138   4.263   7.888  10.321 -0.5895 -0.1685  0.3249
  683MOL0     H90139   4.492   7.858  10.276 -0.2298  0.2290 -1.6849
  683MOL0     H90140   4.830   7.505  10.355 -0.0244  0.0311  0.1087
  683MOL0     H90141   5.063   7.491  10.397  1.8955 -0.5163  0.5365
  683MOL0     H90142   6.640   6.360  10.235 -0.3717 -1.5701 -0.0206
  683MOL0     H90143   6.890   6.368  10.275 -0.5951  1.3884 -1.4574
  683MOL0     H90144   7.291   6.091  10.408  1.8747 -0.0294 -3.0955
  683MOL0     H90145   7.517   6.135  10.392  1.5675  0.6156 -1.0851
  683MOL0     H90146   7.690   6.238  10.310  2.4855  1.3073 -3.0411
  683MOL0     H90147   7.786   6.235  10.453  1.8214  0.0766 -1.2587
  683MOL0     H90148   7.884   6.322  10.244  1.4118  1.5253 -0.6449
  683MOL0     H90149   7.780   6.469  10.259 -0.7019 -0.2079  0.8562
  683MOL0     H90150   8.016   6.371  10.430  0.7891  0.8648  0.8904
  683MOL0     H90151   7.887   6.444  10.515 -0.6984 -1.1662 -0.0946
  683MOL0     H90152   8.111   6.571  10.400 -0.7348 -1.8726  2.6595
  683MOL0     H90153   8.005   6.574  10.257  0.8793  0.2600  0.3631
  683MOL0     H90154   7.841   6.894  10.478  0.5858  1.1728 -0.6500
  683MOL0     H90155   7.469   6.559  10.477  0.1562  0.4683  0.8108
  683MOL0     H90156   7.221   6.517  10.484  1.3598  0.3600  1.6159
  684MOL0     O90157   7.953   0.283   8.370  0.4942 -0.1942 -0.8016
  684MOL0     C90158   8.007   0.309   8.481 -0.5863 -0.4210  0.0559
  684MOL0     O90159   7.940   0.358   8.589 -0.4025  0.7512 -0.5766
  684MOL0     C90160   7.805   0.391   8.593 -0.7904  0.0665 -0.2152
  684MOL0     C90161   7.732   0.368   8.707  0.4735  0.7448  0.1975
  684MOL0     C90162   7.593   0.397   8.707 -0.2248 -0.7800  0.5159
  684MOL0     C90163   7.537   0.459   8.600 -0.4176  0.2317 -0.1529
  684MOL0     O90164   7.405   0.492   8.600  0.1833  0.2639 -0.1392
  684MOL0     C90165   7.325   0.418   8.516  0.4427  0.1120  0.5610
  684MOL0     C90166   7.299   0.480   8.378  0.6421 -0.3569 -0.0977
  684MOL0     C90167   7.232   0.615   8.386 -0.0501  0.4673  0.9951
  684MOL0     C90168   7.181   0.668   8.246  0.0452 -0.0479  0.3700
  684MOL0     C90169   7.048   0.603   8.201 -0.1159  0.0131 -0.1933
  684MOL0     C90170   6.935   0.631   8.291  0.3788 -0.5292 -0.2149
  684MOL0     C90171   6.792   0.615   8.228  0.4162  0.1638 -0.5507
  684MOL0     C90172   6.749   0.745   8.163 -0.2944 -0.2013 -0.3527
  684MOL0     N90173   6.601   0.764   8.159 -0.7176 -0.5033  0.7168
  684MOL0     C90174   6.521   0.805   8.265  1.3012  0.6473  0.6091
  684MOL0     C90175   6.400   0.803   8.210  0.7105 -0.7525 -0.5247
  684MOL0     C90176   6.272   0.826   8.300 -0.1438 -0.3245 -0.3703
  684MOL0     C90177   6.151   0.846   8.213 -0.6420  0.1390  0.6412
  684MOL0     C90178   6.016   0.848   8.290  0.4708 -1.0397  0.3747
  684MOL0     C90179   5.899   0.853   8.193 -0.0308 -0.1294  0.6276
  684MOL0     O90180   5.778   0.890   8.263  0.1226 -0.0554 -0.1063
  684MOL0     C90181   5.676   0.946   8.171  0.3630 -0.6335 -0.5201
  684MOL0     C90182   5.684   0.947   8.025 -0.5137  0.6123  0.4963
  684MOL0     C90183   5.566   0.993   7.954 -0.3948  0.8041 -0.2972
  684MOL0     C90184   5.446   1.032   8.022  0.4157  0.0999  0.2569
  684MOL0     C90185   5.326   1.078   7.939 -0.0998  0.0430 -0.1163
  684MOL0     O90186   5.228   1.136   8.010  0.3865 -0.7510  0.3818
  684MOL0     C90187   5.118   1.187   7.950  0.1868  0.4067  0.2147
  684MOL0     C90188   5.120   1.299   7.862  0.0571 -0.0214  0.0989
  684MOL0     C90189   5.001   1.364   7.815 -0.1263 -0.4549 -0.2426
  684MOL0     C90190   4.878   1.311   7.858 -0.5451 -0.4187  0.2927
  684MOL0     O90191   4.757   1.366   7.826 -0.1987  0.5447 -0.6874
  684MOL0     C90192   4.743   1.441   7.700  0.2894 -0.2383  0.1945
  684MOL0     C90193   4.597   1.444   7.655 -0.0423 -0.0445  0.1006
  684MOL0     C90194   4.593   1.563   7.554  0.9933 -0.4403  0.0341
  684MOL0     C90195   4.445   1.577   7.520 -0.2792  0.0242 -0.6456
  684MOL0     C90196   4.376   1.684   7.622 -0.0520  0.0787  0.5129
  684MOL0     C90197   4.223   1.649   7.635  0.0812  0.0402  0.2659
  684MOL0     C90198   4.162   1.732   7.749 -0.1580  0.1497  0.3803
  684MOL0     C90199   4.008   1.729   7.742 -0.4676  0.0262 -0.1340
  684MOL0    Cl90200   3.950   1.800   7.597 -0.2324  0.0884  0.2123
  684MOL0     C90201   4.878   1.196   7.930  0.0487  0.3814 -0.2668
  684MOL0     C90202   4.991   1.128   7.971 -0.1567  0.0985 -0.1228
  684MOL0     O90203   5.341   1.071   7.817  0.0818  0.5599 -0.4343
  684MOL0     C90204   5.446   1.022   8.159 -1.4207 -0.0118 -0.3208
  684MOL0     C90205   5.567   0.997   8.237 -0.1201 -0.7053  0.6016
  684MOL0     N90206   6.403   0.764   8.083 -0.2903 -0.2048 -0.3525
  684MOL0     N90207   6.525   0.755   8.047  0.6043 -0.0235 -0.0522
  684MOL0     C90208   7.616   0.481   8.488 -0.0005  0.0820 -0.5115
  684MOL0     C90209   7.746   0.449   8.484  0.1253 -0.5857 -0.3342
  684MOL0     C90210   8.149   0.268   8.498 -0.1428 -0.7927  0.5083
  684MOL0     C90211   8.223   0.225   8.387 -0.3229 -0.7335  0.0169
  684MOL0     C90212   8.358   0.193   8.400 -0.8008 -0.8540 -0.6671
  684MOL0     C90213   8.424   0.197   8.520  0.7899  0.0913  0.1079
  684MOL0     O90214   8.541   0.147   8.540 -0.8136  0.2200 -0.3249
  684MOL0     C90215   8.641   0.205   8.451 -0.0650 -0.0944 -0.3108
  684MOL0     C90216   8.779   0.239   8.518 -0.2197  0.0179 -0.6898
  684MOL0     C90217   8.840   0.106   8.580  0.2232 -0.1502 -0.3985
  684MOL0     C90218   8.989   0.107   8.561 -0.7698  0.3329  1.0556
  684MOL0     C90219   9.048  -0.018   8.615 -0.2589 -0.6486  1.0304
  684MOL0     C90220   9.110  -0.116   8.655  0.3109 -0.6341  0.1259
  684MOL0     C90221   8.351   0.250   8.628  0.7879 -0.1317  0.6612
  684MOL0     C90222   8.218   0.291   8.618 -0.2461  0.2209 -0.3038
  684MOL0     H90223   7.774   0.306   8.785 -1.5606 -1.7426 -0.5559
  684MOL0     H90224   7.544   0.374   8.801  2.3710  1.8372  2.6793
  684MOL0     H90225   7.227   0.401   8.560 -0.2227 -1.5230 -1.4138
  684MOL0     H90226   7.358   0.314   8.507 -1.2724 -0.6018  2.0526
  684MOL0     H90227   7.236   0.411   8.321 -1.7784  0.9598  0.8270
  684MOL0     H90228   7.395   0.499   8.329  2.2010  2.7117  3.6640
  684MOL0     H90229   7.311   0.685   8.418  1.2931 -1.0429  1.1077
  684MOL0     H90230   7.148   0.610   8.456 -0.1459 -0.9508  0.7981
  684MOL0     H90231   7.171   0.777   8.252 -0.0650 -0.0849  0.8762
  684MOL0     H90232   7.257   0.658   8.168 -2.0851 -2.6835 -1.5387
  684MOL0     H90233   7.060   0.496   8.185 -1.1380  0.1823 -2.5155
  684MOL0     H90234   7.021   0.643   8.103 -1.6994  0.8914  0.5707
  684MOL0     H90235   6.939   0.729   8.340 -2.8622 -0.8682  0.9918
  684MOL0     H90236   6.947   0.566   8.378 -1.3673  0.8432  1.1186
  684MOL0     H90237   6.777   0.537   8.153 -1.0894 -3.7154  3.3217
  684MOL0     H90238   6.720   0.582   8.304  0.6338  0.1363 -0.3535
  684MOL0     H90239   6.794   0.750   8.064 -1.5632  1.5288 -0.8932
  684MOL0     H90240   6.791   0.827   8.222  2.7971  1.4654 -4.3647
  684MOL0     H90241   6.553   0.819   8.368 -0.5420 -1.2069  1.5055
  684MOL0     H90242   6.288   0.919   8.355 -2.9360 -0.0115  0.0234
  684MOL0     H90243   6.269   0.746   8.375 -1.9508  0.4385  0.4051
  684MOL0     H90244   6.155   0.758   8.149  3.8622  1.1928 -0.9302
  684MOL0     H90245   6.172   0.933   8.151  1.8523  1.9462  3.6561
  684MOL0     H90246   6.003   0.759   8.351 -2.1279 -2.5437 -2.1008
  684MOL0     H90247   6.016   0.940   8.349 -1.5407  1.0016 -2.4554
  684MOL0     H90248   5.893   0.756   8.143  1.5248 -0.5905  1.2753
  684MOL0     H90249   5.925   0.935   8.124  3.8640 -1.0490  0.7728
  684MOL0     H90250   5.771   0.898   7.983  1.2357 -1.0572  5.3135
  684MOL0     H90251   5.569   1.015   7.848  0.8351 -0.0881 -0.4693
  684MOL0     H90252   5.214   1.341   7.825  0.7647 -0.8320  0.9270
  684MOL0     H90253   4.998   1.454   7.754  1.2368 -1.1805 -1.4553
  684MOL0     H90254   4.808   1.406   7.620  1.4629  0.9064  0.6107
  684MOL0     H90255   4.780   1.541   7.724  2.5247 -0.9401 -0.1299
  684MOL0     H90256   4.527   1.455   7.739 -0.3101 -0.0140 -0.1275
  684MOL0     H90257   4.564   1.347   7.617 -0.8212  0.7359 -1.2932
  684MOL0     H90258   4.660   1.530   7.474  2.9573  3.5805 -0.2521
  684MOL0     H90259   4.633   1.660   7.585 -0.0951  0.5606 -1.5106
  684MOL0     H90260   4.433   1.623   7.421 -3.0135 -0.4099 -0.5952
  684MOL0     H90261   4.405   1.475   7.515  0.6837 -0.3357 -1.0641
  684MOL0     H90262   4.383   1.787   7.586  0.3583  1.7892  4.8792
  684MOL0     H90263   4.411   1.683   7.725 -1.0938 -1.2809  0.8896
  684MOL0     H90264   4.225   1.545   7.669 -0.3201 -0.7248 -1.9144
  684MOL0     H90265   4.167   1.655   7.541  0.2872  0.5856  0.1716
  684MOL0     H90266   4.196   1.705   7.849 -1.0108 -1.4175  0.2799
  684MOL0     H90267   4.194   1.836   7.748 -2.1184  0.8094 -0.7299
  684MOL0     H90268   3.980   1.782   7.833 -0.6532 -0.2100 -0.0522
  684MOL0     H90269   3.967   1.627   7.744  1.3307 -0.8171 -2.0244
  684MOL0     H90270   4.782   1.156   7.961  0.7056 -0.1076  1.2179
  684MOL0     H90271   4.983   1.038   8.031 -0.3146  1.8817  2.7842
  684MOL0     H90272   5.367   1.056   8.225  1.8556  1.0067  3.5267
  684MOL0     H90273   5.560   1.005   8.345 -1.9190  1.5156  0.4002
  684MOL0     H90274   7.567   0.535   8.407 -1.0178  3.9070  2.4057
  684MOL0     H90275   7.795   0.470   8.390 -2.9306  0.1694 -1.8735
  684MOL0     H90276   8.184   0.227   8.286 -0.5489 -0.7200  0.1046
  684MOL0     H90277   8.416   0.156   8.316  0.8293  0.0708  0.0086
  684MOL0     H90278   8.602   0.297   8.408  0.3232  0.1882 -0.0620
  684MOL0     H90279   8.651   0.145   8.360 -1.5082  1.9738 -1.9302
  684MOL0     H90280   8.839   0.286   8.439  2.5773  1.8894  2.2587
  684MOL0     H90281   8.777   0.322   8.589  1.8301 -1.0370  0.7309
  684MOL0     H90282   8.819   0.019   8.517  0.1020 -0.8005  0.5204
  684MOL0     H90283   8.815   0.095   8.686  0.7834 -0.5217 -0.3070
  684MOL0     H90284   9.013   0.124   8.455 -1.3964 -0.3932  0.7917
  684MOL0     H90285   9.039   0.191   8.610  2.3456 -0.7986  0.0781
  684MOL0     H90286   9.177  -0.189   8.694  0.2711 -1.5749 -1.4820
  684MOL0     H90287   8.396   0.256   8.726 -3.2713  0.4221  2.6742
  684MOL0     H90288   8.160   0.320   8.705  0.0907  1.7693 -0.5721
  685MOL0     O90289   1.873   1.392   1.173  0.2773 -0.2736 -0.0759
  685MOL0     C90290   1.875   1.281   1.226 -0.1090  0.4167  0.2655
  685MOL0     O90291   1.769   1.219   1.294 -0.2633 -0.2857  0.1324
  685MOL0     C90292   1.685   1.294   1.360 -0.4984 -0.0194 -0.8645
  685MOL0     C90293   1.667   1.297   1.499  1.0501 -0.8764  0.0946
  685MOL0     C90294   1.580   1.385   1.573  0.4378  0.3137  0.8611
  685MOL0     C90295   1.488   1.462   1.493 -0.3744  0.0479 -0.7887
  685MOL0     O90296   1.407   1.551   1.564 -0.7695  0.0713 -0.2199
  685MOL0     C90297   1.328   1.639   1.487  0.2330  0.1322 -0.9436
  685MOL0     C90298   1.224   1.715   1.568 -0.4589  0.6463  0.1193
  685MOL0     C90299   1.287   1.794   1.678 -0.4951 -0.5010  0.3125
  685MOL0     C90300   1.175   1.889   1.735  0.2072 -0.8441  1.2248
  685MOL0     C90301   1.175   1.874   1.887  0.0446 -0.1420  0.4125
  685MOL0     C90302   1.056   1.940   1.958  0.6218 -0.6629 -1.0654
  685MOL0     C90303   0.911   1.903   1.900  0.3489 -0.1277  0.4408
  685MOL0     C90304   0.803   1.934   2.008 -0.0910 -0.6131 -0.0152
  685MOL0     N90305   0.679   1.887   1.939 -0.2226 -0.2337 -0.7815
  685MOL0     C90306   0.599   1.966   1.858 -0.2591 -0.5287 -0.5359
  685MOL0     C90307   0.495   1.896   1.827  0.2342  0.6493  0.5064
  685MOL0     C90308   0.378   1.934   1.741  0.6454  0.2178  0.1741
  685MOL0     C90309   0.248   1.939   1.821 -0.0706 -0.5029 -0.5799
  685MOL0     C90310   0.132   2.024   1.757  0.7497  0.7106  0.6908
  685MOL0     C90311   0.010   2.035   1.842 -0.5604  1.0112 -0.2444
  685MOL0     O90312  -0.051   1.909   1.862  0.0784  0.0792  0.2531
  685MOL0     C90313  -0.180   1.914   1.914  0.0492  0.4955  0.2037
  685MOL0     C90314  -0.247   2.018   1.986 -0.2498 -0.4556 -0.5680
  685MOL0     C90315  -0.383   2.020   2.019  0.1425 -0.1552  0.2713
  685MOL0     C90316  -0.457   1.904   1.982 -0.2178  0.8049 -0.5284
  685MOL0     C90317  -0.610   1.899   1.974  0.1550  0.4341 -0.1856
  685MOL0     O90318  -0.668   1.773   1.947  0.0814 -0.4852  0.7996
  685MOL0     C90319  -0.807   1.754   1.949 -0.1624 -0.7244  0.1915
  685MOL0     C90320  -0.872   1.660   1.867 -0.2306  0.1807 -0.3813
  685MOL0     C90321  -1.006   1.635   1.884  0.7493  0.1961  0.5154
  685MOL0     C90322  -1.085   1.701   1.988 -0.6077  0.0386 -0.4305
  685MOL0     O90323  -1.213   1.679   2.023  0.8676 -0.6559  0.3435
  685MOL0     C90324  -1.284   1.609   1.922  0.1584  0.8697  0.6733
  685MOL0     C90325  -1.439   1.608   1.953  0.4405 -0.3538  0.0735
  685MOL0     C90326  -1.478   1.644   2.100 -0.2788 -0.7307  0.9952
  685MOL0     C90327  -1.629   1.624   2.133  0.6662 -0.1216 -0.3908
  685MOL0     C90328  -1.713   1.663   2.015  0.2148 -0.2117  0.1402
  685MOL0     C90329  -1.862   1.682   2.053  0.3344 -0.0174 -0.7505
  685MOL0     C90330  -1.924   1.546   2.058  0.1621 -0.2574 -0.2902
  685MOL0     C90331  -2.065   1.549   2.123  0.4492  0.3752  0.1520
  685MOL0    Cl90332  -2.132   1.376   2.103 -0.1582 -0.1768  0.3243
  685MOL0     C90333  -1.015   1.795   2.070  0.7389  0.2638 -0.1531
  685MOL0     C90334  -0.884   1.819   2.048 -0.0208  0.2725 -0.4118
  685MOL0     O90335  -0.659   2.009   1.975  0.1256  0.8510  0.3112
  685MOL0     C90336  -0.390   1.788   1.948  0.1413  0.8239  0.4197
  685MOL0     C90337  -0.256   1.792   1.904 -0.5169 -0.2438  0.1816
  685MOL0     N90338   0.514   1.762   1.876 -0.2473 -1.1332 -0.6592
  685MOL0     N90339   0.615   1.769   1.961  0.3705  0.0016 -0.0572
  685MOL0     C90340   1.496   1.449   1.353 -0.4302  0.4026 -0.2073
  685MOL0     C90341   1.600   1.381   1.289 -0.1491  0.4820 -0.2251
  685MOL0     C90342   2.002   1.195   1.189  0.3241 -0.0767 -0.5786
  685MOL0     C90343   2.070   1.227   1.070 -0.8748  0.2027  0.6268
  685MOL0     C90344   2.193   1.168   1.039 -0.4950  0.6781  0.4080
  685MOL0     C90345   2.255   1.073   1.129 -0.0239 -0.0940  0.0229
  685MOL0     O90346   2.369   0.999   1.102 -0.1347 -0.7105 -0.1871
  685MOL0     C90347   2.457   1.024   0.993  0.3301  0.8509  0.3903
  685MOL0     C90348   2.555   1.140   1.023 -0.7206 -0.2723 -0.5775
  685MOL0     C90349   2.621   1.148   1.154  0.4890 -0.0759 -1.2346
  685MOL0     C90350   2.732   1.038   1.188 -0.1607  0.5272  0.0235
  685MOL0     C90351   2.826   1.038   1.090 -0.6231 -0.4478  0.2883
  685MOL0     C90352   2.923   1.051   1.017 -0.4981  0.1024 -0.4395
  685MOL0     C90353   2.175   1.028   1.239 -0.2352 -0.1052 -0.8575
  685MOL0     C90354   2.057   1.093   1.267  0.0007 -1.0236 -0.2760
  685MOL0     H90355   1.740   1.230   1.544 -0.5336 -2.4110  0.4844
  685MOL0     H90356   1.571   1.398   1.680 -1.0877  0.5050  0.7328
  685MOL0     H90357   1.285   1.598   1.395 -0.3806 -0.3777 -0.4312
  685MOL0     H90358   1.400   1.711   1.446  1.2847 -0.0922  0.4383
  685MOL0     H90359   1.141   1.655   1.605 -1.9701  2.0426 -0.8601
  685MOL0     H90360   1.184   1.789   1.498 -1.6649  1.2172  1.3637
  685MOL0     H90361   1.380   1.844   1.649  0.6764 -2.7545 -0.0992
  685MOL0     H90362   1.307   1.733   1.767 -1.2651  1.1940  1.6989
  685MOL0     H90363   1.189   1.994   1.707  3.4678 -0.9359  2.1404
  685MOL0     H90364   1.076   1.871   1.691  0.8760  2.1460 -1.8770
  685MOL0     H90365   1.267   1.913   1.931 -0.4994  0.7475  0.7859
  685MOL0     H90366   1.158   1.768   1.909 -6.4318 -0.3880 -3.2010
  685MOL0     H90367   1.051   2.049   1.967  1.4482 -0.6271 -0.9093
  685MOL0     H90368   1.069   1.888   2.054 -1.6206  0.4454 -0.0992
  685MOL0     H90369   0.891   1.976   1.821 -1.5212  2.2085  2.8952
  685MOL0     H90370   0.902   1.800   1.864 -0.5596  0.8893 -2.6056
  685MOL0     H90371   0.800   2.041   2.029  0.7061 -0.2194 -1.7258
  685MOL0     H90372   0.800   1.876   2.101 -2.6726  0.9971  1.0380
  685MOL0     H90373   0.615   2.072   1.839 -0.4769 -0.2509  0.7598
  685MOL0     H90374   0.366   1.860   1.662  0.5468 -1.9763  2.1199
  685MOL0     H90375   0.389   2.027   1.686  2.0219 -0.7785 -1.3108
  685MOL0     H90376   0.272   1.974   1.921  2.2098  0.5372 -1.4121
  685MOL0     H90377   0.223   1.840   1.860  3.2676 -1.1108  0.3269
  685MOL0     H90378   0.165   2.124   1.726  0.5220  0.7157  0.4586
  685MOL0     H90379   0.105   1.971   1.665  0.7570  1.5855  0.1715
  685MOL0     H90380  -0.069   2.098   1.799 -1.9908  1.1443  2.3931
  685MOL0     H90381   0.039   2.086   1.934  1.8292 -0.1153 -0.3065
  685MOL0     H90382  -0.199   2.111   2.015 -1.7923 -0.4834  2.4347
  685MOL0     H90383  -0.431   2.104   2.069  1.3246 -0.5274  2.1688
  685MOL0     H90384  -0.818   1.588   1.808  1.1566 -0.8804  2.0333
  685MOL0     H90385  -1.065   1.574   1.816  1.5482  0.1303 -0.1365
  685MOL0     H90386  -1.250   1.505   1.925  1.5671  1.3306  2.3139
  685MOL0     H90387  -1.284   1.658   1.824  1.8018 -1.5549 -0.6656
  685MOL0     H90388  -1.469   1.504   1.936 -0.3244  0.2403 -2.5773
  685MOL0     H90389  -1.499   1.672   1.889 -0.6921  1.0603  2.3984
  685MOL0     H90390  -1.448   1.749   2.110  3.4273 -1.4097 -1.3439
  685MOL0     H90391  -1.415   1.582   2.164  3.5181  1.8745  0.1478
  685MOL0     H90392  -1.657   1.519   2.146  0.8194 -0.4588 -2.4882
  685MOL0     H90393  -1.655   1.691   2.215 -2.4229  0.0252 -1.3893
  685MOL0     H90394  -1.712   1.601   1.925 -1.9959 -1.7492  1.0947
  685MOL0     H90395  -1.671   1.756   1.975  0.8021 -1.2903 -1.9203
  685MOL0     H90396  -1.921   1.737   1.979 -1.3003 -0.1346  0.4049
  685MOL0     H90397  -1.870   1.739   2.146  1.9890  0.5928 -0.9445
  685MOL0     H90398  -1.924   1.515   1.953  0.5124 -1.2777 -0.0033
  685MOL0     H90399  -1.866   1.469   2.110  0.8951  0.0260 -0.6714
  685MOL0     H90400  -2.122   1.623   2.066  0.0789  0.6849  0.8989
  685MOL0     H90401  -2.063   1.576   2.229  1.3368  0.7806  0.0381
  685MOL0     H90402  -1.064   1.856   2.146  1.0348  1.8630 -1.1951
  685MOL0     H90403  -0.834   1.884   2.119  0.5396  0.2444 -0.7687
  685MOL0     H90404  -0.437   1.692   1.931  2.7392 -0.1241 -2.1530
  685MOL0     H90405  -0.211   1.706   1.855  1.7828  0.1241  1.4864
  685MOL0     H90406   1.439   1.492   1.270 -1.2325  0.4506  0.3539
  685MOL0     H90407   1.606   1.383   1.181  0.8520  1.7110 -0.1753
  685MOL0     H90408   2.030   1.290   0.992  2.5890  2.1405  0.2643
  685MOL0     H90409   2.242   1.197   0.947 -0.7024 -0.2639 -0.0139
  685MOL0     H90410   2.391   1.039   0.907 -0.6844  0.2168  1.0386
  685MOL0     H90411   2.514   0.933   0.971  1.4389  1.7805 -0.8091
  685MOL0     H90412   2.628   1.141   0.941 -2.4592  2.3679 -2.2651
  685MOL0     H90413   2.511   1.238   1.003 -0.7776 -0.5770 -2.1213
  685MOL0     H90414   2.541   1.152   1.229 -0.1642 -0.0977 -1.9258
  685MOL0     H90415   2.669   1.246   1.152  1.0052 -0.3163 -0.8819
  685MOL0     H90416   2.779   1.052   1.286 -0.6327  0.1150  0.3164
  685MOL0     H90417   2.689   0.937   1.190  1.5656 -0.2236  0.4012
  685MOL0     H90418   3.008   1.068   0.953 -0.0663 -0.8565 -0.1278
  685MOL0     H90419   2.209   0.947   1.302  1.7632  0.1718 -1.5010
  685MOL0     H90420   2.003   1.077   1.360 -0.1866  1.6487  0.1791
  686MOL0     O90421   3.449   8.693   2.265 -0.4289 -0.8820  0.0412
  686MOL0     C90422   3.506   8.805   2.243  0.0573  0.0667  0.2974
  686MOL0     O90423   3.444   8.927   2.219  0.3393  0.3238  0.4038
  686MOL0     C90424   3.312   8.942   2.204 -0.4663 -0.5291 -0.3622
  686MOL0     C90425   3.208   8.847   2.232  0.6336 -0.3166  0.5789
  686MOL0     C90426   3.073   8.890   2.199 -0.2230 -0.8131 -1.2861
  686MOL0     C90427   3.039   9.021   2.162  0.7227 -0.0422  0.2455
  686MOL0     O90428   2.909   9.075   2.149 -0.4697  0.9570 -0.1091
  686MOL0     C90429   2.805   8.970   2.151  0.1435  0.6327 -0.3311
  686MOL0     C90430   2.679   9.026   2.075  0.0971  1.0589  0.3071
  686MOL0     C90431   2.588   9.081   2.178 -0.0107  0.0151 -0.3700
  686MOL0     C90432   2.471   9.150   2.098 -0.6515  0.2286  0.0314
  686MOL0     C90433   2.363   9.222   2.188 -0.2511  0.4763 -0.8037
  686MOL0     C90434   2.244   9.267   2.110 -0.6342  0.0395 -0.4189
  686MOL0     C90435   2.131   9.313   2.203  0.8386  0.2035 -0.1819
  686MOL0     C90436   2.066   9.185   2.269 -0.1395 -0.7057 -0.5698
  686MOL0     N90437   1.921   9.209   2.309 -0.3137  0.2822  0.5070
  686MOL0     C90438   1.819   9.218   2.219  1.0884 -0.8846  0.4424
  686MOL0     C90439   1.711   9.244   2.301 -0.2091  0.6851 -0.4536
  686MOL0     C90440   1.567   9.257   2.262  0.3450  1.1811 -0.7646
  686MOL0     C90441   1.490   9.159   2.340 -0.1807  0.2715 -0.4884
  686MOL0     C90442   1.343   9.151   2.289  0.9245 -0.0499 -0.4424
  686MOL0     C90443   1.249   9.132   2.404  0.8571  0.1243 -0.1686
  686MOL0     O90444   1.109   9.128   2.365  0.1996  0.7855  0.5532
  686MOL0     C90445   1.016   9.071   2.455 -0.1903 -0.6036  0.0211
  686MOL0     C90446   1.034   9.058   2.591  0.2025  0.3280 -0.0803
  686MOL0     C90447   0.928   9.022   2.673  0.2160 -0.0846  0.3078
  686MOL0     C90448   0.802   8.996   2.622  0.3215 -1.0835 -1.1360
  686MOL0     C90449   0.691   8.952   2.717 -0.4528  0.2972 -0.2149
  686MOL0     O90450   0.579   8.937   2.657  0.4130  0.7617  0.2125
  686MOL0     C90451   0.487   8.850   2.724 -0.4406 -0.3493  1.0886
  686MOL0     C90452   0.507   8.713   2.713 -0.0445 -0.1935  0.2920
  686MOL0     C90453   0.413   8.632   2.774 -0.1425 -0.2567  0.1987
  686MOL0     C90454   0.304   8.689   2.844  1.0437 -0.0248  0.0773
  686MOL0     O90455   0.197   8.613   2.893 -0.3366 -0.5441  0.4871
  686MOL0     C90456   0.211   8.470   2.919 -0.2209 -0.1469 -0.1934
  686MOL0     C90457   0.170   8.453   3.067 -0.2869 -0.0051 -0.4356
  686MOL0     C90458   0.044   8.362   3.079 -0.4893 -0.0879 -0.2829
  686MOL0     C90459   0.037   8.285   3.209 -0.0324  0.3695 -0.8720
  686MOL0     C90460  -0.110   8.251   3.250  0.4252 -0.4562 -0.0022
  686MOL0     C90461  -0.197   8.375   3.291  0.4909  1.2215 -0.4551
  686MOL0     C90462  -0.327   8.331   3.363  0.5179  0.5949 -0.2216
  686MOL0     C90463  -0.410   8.456   3.395 -0.4732 -0.0928  0.4802
  686MOL0    Cl90464  -0.333   8.578   3.496 -0.1523  0.7050  0.1186
  686MOL0     C90465   0.275   8.827   2.846  0.0088  0.1730 -0.2093
  686MOL0     C90466   0.374   8.911   2.789  0.4764  0.4288 -0.1054
  686MOL0     O90467   0.714   8.925   2.837 -0.0126 -0.8054  0.3395
  686MOL0     C90468   0.783   9.019   2.487 -0.0859  0.6125  0.1751
  686MOL0     C90469   0.892   9.053   2.400  0.5778 -0.4928 -0.3159
  686MOL0     N90470   1.754   9.251   2.433 -0.1198 -0.2332  0.3830
  686MOL0     N90471   1.879   9.227   2.436 -0.9760 -0.2639 -0.3927
  686MOL0     C90472   3.148   9.104   2.129 -0.4057  0.8082  0.1281
  686MOL0     C90473   3.279   9.070   2.164  0.1548 -0.5903  0.0659
  686MOL0     C90474   3.654   8.801   2.244  0.1504  0.1417 -0.8357
  686MOL0     C90475   3.725   8.921   2.247 -0.5700  0.5209 -0.1139
  686MOL0     C90476   3.869   8.916   2.257  0.2141 -0.0704  0.2164
  686MOL0     C90477   3.931   8.791   2.258  0.3820 -0.2488 -0.0509
  686MOL0     O90478   4.068   8.780   2.265 -0.1283 -0.0291 -0.3173
  686MOL0     C90479   4.150   8.901   2.243  0.2890 -1.0044 -0.2225
  686MOL0     C90480   4.301   8.867   2.226 -0.0509  0.4935 -0.0162
  686MOL0     C90481   4.382   8.991   2.187  0.8491  1.0190  0.3776
  686MOL0     C90482   4.528   8.970   2.225  0.6222 -0.2056  0.1198
  686MOL0     C90483   4.603   9.095   2.200 -0.2621  0.8175  0.4430
  686MOL0     C90484   4.654   9.206   2.198 -0.2789 -0.7077 -0.3407
  686MOL0     C90485   3.856   8.669   2.249  0.4381 -0.7671  0.9860
  686MOL0     C90486   3.718   8.678   2.253 -0.3457  0.4002  0.4117
  686MOL0     H90487   3.221   8.752   2.283 -0.7211 -1.0841 -0.4315
  686MOL0     H90488   2.985   8.827   2.205 -0.3841 -0.6004 -1.4680
  686MOL0     H90489   2.788   8.921   2.247 -0.1372 -1.0073 -1.1863
  686MOL0     H90490   2.833   8.893   2.078  0.2183  0.8260 -0.5060
  686MOL0     H90491   2.623   8.949   2.021  0.6607  0.5780  0.3961
  686MOL0     H90492   2.712   9.097   1.997  1.8619  0.8733  0.8280
  686MOL0     H90493   2.640   9.154   2.241  1.5114  0.2251 -1.8085
  686MOL0     H90494   2.538   9.002   2.234 -1.3033  1.6415  0.9041
  686MOL0     H90495   2.510   9.216   2.020 -0.0913 -0.0526  0.0735
  686MOL0     H90496   2.420   9.074   2.038 -1.9763  1.6287 -0.6791
  686MOL0     H90497   2.412   9.311   2.230  2.3447 -0.5808 -1.4173
  686MOL0     H90498   2.338   9.154   2.270 -1.8642  1.8869 -0.0521
  686MOL0     H90499   2.214   9.181   2.049  0.9203  0.2825 -1.5812
  686MOL0     H90500   2.286   9.351   2.054 -0.0155  0.0644  0.0770
  686MOL0     H90501   2.166   9.388   2.275  1.2358  1.6927 -1.8554
  686MOL0     H90502   2.059   9.371   2.145  1.3437  0.2481 -0.7738
  686MOL0     H90503   2.120   9.156   2.360 -3.6167  0.3016  2.0259
  686MOL0     H90504   2.068   9.098   2.204 -0.4499 -1.3291  0.2314
  686MOL0     H90505   1.823   9.207   2.111 -0.6413  1.9093 -0.0236
  686MOL0     H90506   1.560   9.218   2.161  0.4319 -0.2248 -0.2459
  686MOL0     H90507   1.525   9.357   2.281  0.2073  0.6099  2.6201
  686MOL0     H90508   1.487   9.201   2.441 -0.5815  0.6111 -0.6407
  686MOL0     H90509   1.530   9.057   2.333  0.7305  0.6604 -1.1615
  686MOL0     H90510   1.315   9.242   2.236  4.9021  0.6987 -1.5837
  686MOL0     H90511   1.338   9.073   2.211  2.0314 -0.4951 -0.0909
  686MOL0     H90512   1.261   9.214   2.475  1.0548 -1.2559  1.4305
  686MOL0     H90513   1.281   9.046   2.463  0.4130  0.9796  1.3654
  686MOL0     H90514   1.132   9.060   2.637 -0.0289  1.4893  0.4064
  686MOL0     H90515   0.953   9.015   2.779 -0.2688  0.6883  0.4757
  686MOL0     H90516   0.582   8.669   2.648  0.0864  0.7120 -0.1828
  686MOL0     H90517   0.424   8.524   2.761 -0.1755 -0.3531  0.9622
  686MOL0     H90518   0.309   8.423   2.913 -1.6343 -3.1869 -1.0249
  686MOL0     H90519   0.139   8.420   2.854  2.4932 -2.4494 -1.6496
  686MOL0     H90520   0.162   8.554   3.109  1.5035 -0.8185  2.1632
  686MOL0     H90521   0.258   8.408   3.113  0.7742 -0.7692 -3.0297
  686MOL0     H90522   0.044   8.290   2.996  1.5352  1.4871 -1.7766
  686MOL0     H90523  -0.043   8.425   3.063  0.1752  1.3541  1.4894
  686MOL0     H90524   0.099   8.195   3.204  0.6573  0.8183 -0.4930
  686MOL0     H90525   0.076   8.345   3.291 -0.0040 -0.9101  0.0948
  686MOL0     H90526  -0.093   8.196   3.343 -0.0080  1.8023  1.4713
  686MOL0     H90527  -0.159   8.183   3.179 -2.6526  2.7456 -1.2126
  686MOL0     H90528  -0.228   8.414   3.193 -0.6686 -0.0381 -0.6181
  686MOL0     H90529  -0.136   8.441   3.353  0.4097 -1.3651  2.6499
  686MOL0     H90530  -0.382   8.254   3.307 -0.4244  1.6270 -0.7556
  686MOL0     H90531  -0.295   8.279   3.454 -2.7508  1.3481  1.4880
  686MOL0     H90532  -0.493   8.416   3.453 -1.6282 -0.8215 -1.5504
  686MOL0     H90533  -0.453   8.496   3.302  0.9076 -0.5151 -0.3865
  686MOL0     H90534   0.190   8.874   2.896 -0.3516 -0.1473 -0.5152
  686MOL0     H90535   0.369   9.019   2.800 -1.3343  0.1832  1.9535
  686MOL0     H90536   0.683   9.017   2.445 -0.1808  3.8372  0.0176
  686MOL0     H90537   0.863   9.058   2.296  0.0734  1.8963 -0.1057
  686MOL0     H90538   3.123   9.201   2.088 -1.9879  1.4173  2.3459
  686MOL0     H90539   3.356   9.141   2.136  0.4314  0.2758  2.7891
  686MOL0     H90540   3.684   9.021   2.243 -0.1065  1.0061  3.7540
  686MOL0     H90541   3.930   9.005   2.251  1.4378 -0.9638 -1.0920
  686MOL0     H90542   4.139   8.968   2.328 -0.0545  1.5260 -2.1403
  686MOL0     H90543   4.117   8.958   2.156  1.9546  0.6322  0.1762
  686MOL0     H90544   4.342   8.824   2.318  0.1785  0.0585 -0.3183
  686MOL0     H90545   4.325   8.793   2.149  0.1983  0.6132 -0.0556
  686MOL0     H90546   4.337   9.076   2.239 -3.5364 -0.6763 -0.2852
  686MOL0     H90547   4.366   9.008   2.080  0.2037  0.5795  0.4014
  686MOL0     H90548   4.531   8.953   2.333 -2.0027  0.1330  0.3003
  686MOL0     H90549   4.585   8.888   2.180 -0.7606 -1.5316  0.6968
  686MOL0     H90550   4.693   9.305   2.212 -0.6447 -0.9230  3.1083
  686MOL0     H90551   3.905   8.574   2.270  2.1246  0.1462  1.3396
  686MOL0     H90552   3.666   8.582   2.251  1.5695 -0.6826  0.4577
  687MOL0     O90553   1.601   0.847  10.355 -0.4412  0.2278 -0.2018
  687MOL0     C90554   1.596   0.720  10.335  0.2660 -0.5908 -0.5246
  687MOL0     O90555   1.515   0.665  10.242  0.0607 -0.2791 -0.0527
  687MOL0     C90556   1.429   0.740  10.169 -0.0289  0.0003  0.2884
  687MOL0     C90557   1.431   0.734  10.030  0.8395 -0.5192  0.3329
  687MOL0     C90558   1.337   0.804   9.945 -0.3532 -0.4075  0.1343
  687MOL0     C90559   1.228   0.866  10.016 -0.5506  0.9365 -0.1269
  687MOL0     O90560   1.119   0.928   9.966  0.1876 -0.5354  0.0276
  687MOL0     C90561   1.056   0.852   9.860  0.4853 -0.0659  0.8993
  687MOL0     C90562   0.911   0.894   9.845 -0.0697  0.8446  0.0100
  687MOL0     C90563   0.831   0.847   9.725  0.9921 -0.0227 -0.5282
  687MOL0     C90564   0.694   0.905   9.719 -0.5002 -0.9902  0.5036
  687MOL0     C90565   0.633   0.851   9.587  0.7454  0.1959  0.5693
  687MOL0     C90566   0.690   0.890   9.456 -0.2521 -0.1591  0.7585
  687MOL0     C90567   0.600   0.860   9.337 -0.1588  0.0642  0.6497
  687MOL0     C90568   0.649   0.931   9.206 -0.2698 -0.1719  0.6044
  687MOL0     N90569   0.562   0.897   9.091  0.3448  0.0842  0.1343
  687MOL0     C90570   0.430   0.943   9.072  0.8371 -0.0175 -0.2411
  687MOL0     C90571   0.410   0.904   8.948  1.9640  0.1908  0.4657
  687MOL0     C90572   0.283   0.946   8.879  0.5377  0.0869  0.8649
  687MOL0     C90573   0.174   0.837   8.894  0.6781 -0.1632  1.0773
  687MOL0     C90574   0.041   0.913   8.903  0.4583  0.4101 -0.6531
  687MOL0     C90575  -0.088   0.827   8.913 -0.0477  0.3493  0.6085
  687MOL0     O90576  -0.209   0.901   8.913  0.1702 -1.2041 -0.7937
  687MOL0     C90577  -0.329   0.837   8.920  0.0538 -0.0145  0.3977
  687MOL0     C90578  -0.336   0.698   8.911  1.0667  0.1193  1.2326
  687MOL0     C90579  -0.467   0.643   8.888 -0.1315  0.4441 -1.2937
  687MOL0     C90580  -0.584   0.725   8.886 -0.6396 -1.0539 -0.7002
  687MOL0     C90581  -0.717   0.659   8.874 -0.1537 -0.0604  0.7453
  687MOL0     O90582  -0.821   0.745   8.844  0.3821 -0.3583  0.1719
  687MOL0     C90583  -0.952   0.705   8.855 -0.0665  0.0902 -0.2813
  687MOL0     C90584  -0.995   0.621   8.963 -0.5955  0.3472  0.3132
  687MOL0     C90585  -1.138   0.609   8.984 -0.2379 -0.5133  0.6962
  687MOL0     C90586  -1.227   0.672   8.905  0.3102 -0.7365  0.1166
  687MOL0     O90587  -1.350   0.641   8.936  0.3634  0.0911  0.0071
  687MOL0     C90588  -1.455   0.697   8.852 -1.0701  0.4036  0.7141
  687MOL0     C90589  -1.590   0.656   8.902  0.0928  0.0190 -0.1459
  687MOL0     C90590  -1.694   0.654   8.788  0.2314  0.2849  0.0916
  687MOL0     C90591  -1.837   0.624   8.845  0.7792  0.2855 -0.3250
  687MOL0     C90592  -1.942   0.625   8.735  1.2589  0.3062 -0.8741
  687MOL0     C90593  -2.067   0.570   8.796  0.1552 -0.0076  0.3559
  687MOL0     C90594  -2.170   0.532   8.691 -0.5118 -0.5881  0.3497
  687MOL0     C90595  -2.213   0.661   8.615 -0.0407 -0.0729  0.4677
  687MOL0    Cl90596  -2.343   0.632   8.483  0.0840 -0.6073 -0.1559
  687MOL0     C90597  -1.181   0.754   8.801  0.6042  0.0954 -0.3256
  687MOL0     C90598  -1.048   0.772   8.778 -0.4537  0.3469 -0.2292
  687MOL0     O90599  -0.732   0.541   8.891 -0.1945  0.1034  0.4961
  687MOL0     C90600  -0.564   0.863   8.886  0.2287  0.1514  0.4992
  687MOL0     C90601  -0.444   0.916   8.907  0.2550 -0.0235 -0.2829
  687MOL0     N90602   0.507   0.823   8.899  0.0539  0.5135 -0.0211
  687MOL0     N90603   0.603   0.823   8.978 -0.5942  0.2524  0.5398
  687MOL0     C90604   1.226   0.874  10.152 -0.3962 -0.7296 -0.1398
  687MOL0     C90605   1.327   0.813  10.226 -1.1068 -0.6507 -0.1331
  687MOL0     C90606   1.698   0.647  10.408  0.0471 -0.3662 -0.2235
  687MOL0     C90607   1.820   0.706  10.451 -0.6485 -1.0602  0.1339
  687MOL0     C90608   1.919   0.632  10.521  0.6035 -0.0582  0.7502
  687MOL0     C90609   1.894   0.493  10.555  0.4799  0.7728  0.5727
  687MOL0     O90610   1.981   0.425  10.642 -0.0930  0.1167 -0.0727
  687MOL0     C90611   2.120   0.439  10.604  0.1520 -0.8297 -0.1919
  687MOL0     C90612   2.178   0.480  10.734  0.3609 -0.2366  0.0466
  687MOL0     C90613   2.329   0.501  10.736 -0.3619 -0.7137 -0.8385
  687MOL0     C90614   2.388   0.637  10.695 -0.2477 -0.0342  0.4885
  687MOL0     C90615   2.345   0.677  10.559 -0.0925  0.9010 -0.7722
  687MOL0     C90616   2.317   0.717  10.451 -0.1623  0.1172 -1.0001
  687MOL0     C90617   1.771   0.440  10.515  0.0008 -0.0516  0.3321
  687MOL0     C90618   1.676   0.513  10.451 -0.0023  0.3375 -0.0689
  687MOL0     H90619   1.518   0.683   9.991  1.7706  0.5706  0.9314
  687MOL0     H90620   1.336   0.804   9.836 -0.0096  2.7381  0.0380
  687MOL0     H90621   1.051   0.743   9.870 -3.1010  0.0263  1.5962
  687MOL0     H90622   1.115   0.869   9.770 -1.4871  0.6680 -0.3122
  687MOL0     H90623   0.899   1.002   9.849  1.1185  0.9978 -0.1168
  687MOL0     H90624   0.855   0.860   9.933 -1.4033  1.0526 -0.7444
  687MOL0     H90625   0.833   0.737   9.721  1.0762 -0.0627  0.4635
  687MOL0     H90626   0.876   0.889   9.635 -2.3515  2.7076 -1.0917
  687MOL0     H90627   0.634   0.876   9.805  0.7360 -0.4679  1.5656
  687MOL0     H90628   0.698   1.015   9.716  1.7550 -1.0461 -0.6215
  687MOL0     H90629   0.527   0.876   9.592  0.4844 -0.5118 -1.1017
  687MOL0     H90630   0.634   0.741   9.586 -4.4682 -0.0613 -0.2655
  687MOL0     H90631   0.784   0.839   9.433  0.8860  1.3296  1.9213
  687MOL0     H90632   0.697   0.999   9.459 -1.3660 -0.1083  1.9091
  687MOL0     H90633   0.595   0.750   9.336  0.4934 -0.0293 -2.4128
  687MOL0     H90634   0.496   0.892   9.348 -0.1848  0.6726 -1.0910
  687MOL0     H90635   0.750   0.895   9.186 -0.8436 -0.7747 -1.3588
  687MOL0     H90636   0.656   1.038   9.231  0.1962 -0.0336 -0.0988
  687MOL0     H90637   0.364   1.006   9.131  0.4151 -0.7932  0.1286
  687MOL0     H90638   0.299   0.955   8.771 -0.1706  1.9001  0.8719
  687MOL0     H90639   0.246   1.045   8.905 -1.9543 -0.0275 -1.7145
  687MOL0     H90640   0.189   0.763   8.973 -1.9114  0.1394  1.9528
  687MOL0     H90641   0.175   0.787   8.796  0.1078 -0.7611  1.3693
  687MOL0     H90642   0.043   0.982   8.988  2.1883  1.0684 -1.1934
  687MOL0     H90643   0.028   0.971   8.811  0.7399  1.1976 -0.1977
  687MOL0     H90644  -0.092   0.767   9.004  1.1188 -2.0499 -0.8194
  687MOL0     H90645  -0.083   0.761   8.826  1.0814 -4.4323  3.8996
  687MOL0     H90646  -0.250   0.634   8.929  0.9484 -0.2168  0.6300
  687MOL0     H90647  -0.488   0.538   8.906 -2.5493  1.0467 -0.1144
  687MOL0     H90648  -0.922   0.575   9.029  0.7424 -0.4851 -1.6392
  687MOL0     H90649  -1.176   0.543   9.061 -0.1718  0.3186  1.4481
  687MOL0     H90650  -1.442   0.693   8.743 -0.3141  3.8791  0.5647
  687MOL0     H90651  -1.451   0.805   8.867 -0.7828  0.0477  3.6725
  687MOL0     H90652  -1.618   0.724   8.983 -0.0650  0.5860 -0.6710
  687MOL0     H90653  -1.580   0.563   8.960  1.2859  3.2167  5.5742
  687MOL0     H90654  -1.675   0.574   8.716  0.0905 -0.0272  0.3981
  687MOL0     H90655  -1.694   0.755   8.745 -2.4393  1.6073  2.8320
  687MOL0     H90656  -1.841   0.530   8.900 -0.1170  1.2650  1.3652
  687MOL0     H90657  -1.862   0.694   8.925 -1.7776 -3.0560  2.0908
  687MOL0     H90658  -1.902   0.574   8.647  4.4405 -2.1618  1.7421
  687MOL0     H90659  -1.949   0.731   8.706  0.5781 -0.1003 -2.2495
  687MOL0     H90660  -2.115   0.646   8.859 -1.0038  2.4246 -3.1726
  687MOL0     H90661  -2.056   0.484   8.862  0.5108 -0.3818 -0.1934
  687MOL0     H90662  -2.144   0.451   8.623  3.2251  2.4144 -2.2325
  687MOL0     H90663  -2.263   0.512   8.744 -0.6783  1.1384  0.7788
  687MOL0     H90664  -2.129   0.708   8.563  1.0167 -0.0761  2.0955
  687MOL0     H90665  -2.237   0.740   8.686 -0.9194  0.3856 -0.3148
  687MOL0     H90666  -1.252   0.811   8.742 -0.6993 -1.8745 -0.7347
  687MOL0     H90667  -1.016   0.837   8.697  1.3972  0.2330  0.3715
  687MOL0     H90668  -0.649   0.929   8.873 -0.1947 -0.8118 -2.4658
  687MOL0     H90669  -0.434   1.023   8.923  0.5726 -0.3301  1.8850
  687MOL0     H90670   1.148   0.932  10.201  0.7344  0.3112  0.4938
  687MOL0     H90671   1.319   0.823  10.334 -0.0766 -1.8430  0.0754
  687MOL0     H90672   1.858   0.805  10.430  2.1615 -1.8435  1.0473
  687MOL0     H90673   2.005   0.688  10.555 -0.9259  2.6003  0.5881
  687MOL0     H90674   2.141   0.518  10.531  1.9828 -0.0865  1.0419
  687MOL0     H90675   2.162   0.343  10.571 -0.8223 -1.1230 -0.6218
  687MOL0     H90676   2.122   0.562  10.781 -1.2738  0.7436 -3.3242
  687MOL0     H90677   2.165   0.396  10.804  1.4131  1.2081  2.0705
  687MOL0     H90678   2.369   0.422  10.670  0.3950 -1.3400  0.3308
  687MOL0     H90679   2.364   0.490  10.839 -0.9946  3.0637 -0.0986
  687MOL0     H90680   2.348   0.714  10.761  2.0425 -0.0592  2.0127
  687MOL0     H90681   2.496   0.623  10.694 -0.2852 -0.2951 -0.2763
  687MOL0     H90682   2.283   0.754  10.357 -1.6551 -0.6377 -0.7933
  687MOL0     H90683   1.760   0.334  10.532  2.0214  0.0197  2.6351
  687MOL0     H90684   1.578   0.471  10.427 -0.3247  1.1343 -0.1658
  688MOL0     O90685   3.507   1.736   9.906  0.3034 -0.8324  0.1631
  688MOL0     C90686   3.482   1.620   9.934 -0.0357 -0.4618 -0.2849
  688MOL0     O90687   3.360   1.567   9.937 -0.1741  0.6292 -0.6025
  688MOL0     C90688   3.240   1.645   9.910 -1.1608 -0.1572  0.0550
  688MOL0     C90689   3.129   1.568   9.893 -0.5005 -0.2837  0.0523
  688MOL0     C90690   3.000   1.625   9.869 -0.2892 -0.8953 -0.2600
  688MOL0     C90691   2.986   1.758   9.854  0.4878 -0.9565 -0.0106
  688MOL0     O90692   2.859   1.808   9.825 -0.1582  0.1910 -0.2714
  688MOL0     C90693   2.843   1.957   9.823  0.2227 -0.6238  0.2466
  688MOL0     C90694   2.693   1.990   9.805 -0.2728  0.1213  0.2738
  688MOL0     C90695   2.644   1.976   9.650 -0.4704 -0.4158  0.0775
  688MOL0     C90696   2.495   2.000   9.645 -0.8328 -0.0041  0.1883
  688MOL0     C90697   2.440   2.029   9.506  0.5388 -0.1956  0.8239
  688MOL0     C90698   2.475   2.163   9.447 -0.1220  0.0989 -0.5391
  688MOL0     C90699   2.386   2.183   9.324  0.3134 -0.5000 -0.2281
  688MOL0     C90700   2.412   2.322   9.260 -0.5318  0.7352  0.0004
  688MOL0     N90701   2.292   2.355   9.173 -0.3466 -0.9490 -0.1846
  688MOL0     C90702   2.161   2.374   9.219 -0.6435 -0.1602 -0.2640
  688MOL0     C90703   2.090   2.419   9.115 -0.5648 -0.0982  0.7592
  688MOL0     C90704   1.937   2.423   9.115 -0.4396  1.1661 -0.2932
  688MOL0     C90705   1.870   2.370   8.985  0.0887 -1.2294  0.1722
  688MOL0     C90706   1.863   2.486   8.886  0.3191  0.4847  0.4737
  688MOL0     C90707   1.821   2.435   8.749  0.3338 -0.0659 -0.2055
  688MOL0     O90708   1.693   2.367   8.757  0.2409  0.3440  0.8089
  688MOL0     C90709   1.623   2.348   8.646  0.4667 -0.1819 -0.1230
  688MOL0     C90710   1.500   2.280   8.646 -1.4555 -0.7119  0.3736
  688MOL0     C90711   1.416   2.264   8.536  0.3315  0.1840 -0.1567
  688MOL0     C90712   1.451   2.323   8.413 -0.7795 -0.5258  0.0367
  688MOL0     C90713   1.355   2.311   8.304 -0.5195 -0.5965 -0.8628
  688MOL0     O90714   1.232   2.263   8.328  0.9048  0.1965 -0.0949
  688MOL0     C90715   1.146   2.229   8.223 -0.2844  0.1014  0.2668
  688MOL0     C90716   1.143   2.099   8.174  0.6733  0.1642  0.0402
  688MOL0     C90717   1.050   2.065   8.077 -0.2861  0.4158 -0.4971
  688MOL0     C90718   0.970   2.161   8.016 -0.1351 -0.3478 -0.0995
  688MOL0     O90719   0.869   2.133   7.929  0.3644 -0.2229  0.4494
  688MOL0     C90720   0.789   2.010   7.955  0.0777 -0.4928 -0.2227
  688MOL0     C90721   0.680   2.026   7.857 -0.4031  0.0970 -0.3347
  688MOL0     C90722   0.582   2.142   7.908 -0.9623 -0.2111  0.3823
  688MOL0     C90723   0.442   2.108   7.852  0.4220 -0.4958 -0.0989
  688MOL0     C90724   0.345   2.230   7.875 -0.0462 -0.4622 -1.1402
  688MOL0     C90725   0.212   2.176   7.855 -0.1750 -0.5141  0.4589
  688MOL0     C90726   0.107   2.285   7.838 -0.5853  0.3654 -0.4582
  688MOL0     C90727  -0.042   2.237   7.838 -0.6478  0.6693 -0.6052
  688MOL0    Cl90728  -0.059   2.099   7.727  0.1238  0.4916 -0.0077
  688MOL0     C90729   0.993   2.299   8.053 -0.0345 -0.1750  1.4806
  688MOL0     C90730   1.071   2.332   8.169  0.2425 -0.3893 -0.9167
  688MOL0     O90731   1.402   2.322   8.193  0.1636 -0.7667 -0.3344
  688MOL0     C90732   1.572   2.388   8.402  0.2888 -0.1910  0.1456
  688MOL0     C90733   1.656   2.396   8.518 -0.8163  0.2740  1.1093
  688MOL0     N90734   2.178   2.407   9.005 -0.3282 -0.5488 -1.2864
  688MOL0     N90735   2.290   2.371   9.037  0.5699 -0.6679  0.1888
  688MOL0     C90736   3.104   1.839   9.876  1.3524 -0.6104  0.8605
  688MOL0     C90737   3.225   1.781   9.908  0.4119 -0.2809 -0.2437
  688MOL0     C90738   3.603   1.527   9.943  0.1894  0.4297 -0.1277
  688MOL0     C90739   3.589   1.386   9.942  0.3003 -0.3227 -0.4738
  688MOL0     C90740   3.695   1.304   9.962 -1.0427  1.0427  1.1841
  688MOL0     C90741   3.823   1.353  10.000 -0.4848  0.3436  0.0858
  688MOL0     O90742   3.934   1.275  10.025  0.4224  0.1051  0.8614
  688MOL0     C90743   3.983   1.278  10.160  0.7011  0.3756 -0.5018
  688MOL0     C90744   4.090   1.168  10.191 -0.1675  0.7363 -0.3361
  688MOL0     C90745   4.170   1.211  10.324 -0.1549  0.0706  0.3503
  688MOL0     C90746   4.267   1.324  10.298  0.0301 -0.3069  0.3489
  688MOL0     C90747   4.361   1.354  10.401 -0.4066 -0.7091 -1.0953
  688MOL0     C90748   4.426   1.392  10.495  0.0524  0.9413 -0.1479
  688MOL0     C90749   3.833   1.493   9.993 -0.8020 -0.2563  0.6498
  688MOL0     C90750   3.727   1.578   9.961 -0.9027 -0.6361 -0.3161
  688MOL0     H90751   3.136   1.460   9.901 -0.2714 -0.2735 -0.0082
  688MOL0     H90752   2.919   1.553   9.868 -1.4015 -0.0827  4.7885
  688MOL0     H90753   2.911   2.003   9.751  0.5514 -0.3373  0.7303
  688MOL0     H90754   2.872   2.008   9.916  0.6365 -1.6752  0.7164
  688MOL0     H90755   2.680   2.097   9.826 -1.2895 -0.1963  1.3489
  688MOL0     H90756   2.644   1.932   9.883  1.2102 -0.3277  0.9049
  688MOL0     H90757   2.667   1.878   9.607 -1.5216  0.2041 -2.0925
  688MOL0     H90758   2.697   2.049   9.588 -2.2818  1.8568  1.0626
  688MOL0     H90759   2.445   1.911   9.683  0.0167 -0.0585  1.2106
  688MOL0     H90760   2.458   2.087   9.699 -0.9336 -0.7275  1.3041
  688MOL0     H90761   2.331   2.017   9.516  0.4473 -1.8642 -1.3623
  688MOL0     H90762   2.467   1.947   9.439  0.2602  1.4542 -1.4530
  688MOL0     H90763   2.580   2.165   9.416  0.5015 -0.6794  1.3992
  688MOL0     H90764   2.452   2.250   9.509 -0.8650  0.2726 -1.0502
  688MOL0     H90765   2.394   2.100   9.253  0.0256 -1.4951  0.8658
  688MOL0     H90766   2.280   2.189   9.349  0.2902  0.1933 -0.4596
  688MOL0     H90767   2.509   2.322   9.208 -0.5266  1.8064 -0.0242
  688MOL0     H90768   2.425   2.395   9.341 -0.2661  0.4936  0.1750
  688MOL0     H90769   2.132   2.339   9.317  3.0702 -0.0695  1.0098
  688MOL0     H90770   1.910   2.527   9.131 -0.5467  1.1448 -0.3343
  688MOL0     H90771   1.893   2.376   9.203 -0.4112  1.2970 -0.2088
  688MOL0     H90772   1.768   2.353   9.019 -0.5104  2.5446  0.7546
  688MOL0     H90773   1.929   2.284   8.951  2.2902 -0.8326  2.7252
  688MOL0     H90774   1.781   2.556   8.905 -3.4318 -1.7652 -4.6711
  688MOL0     H90775   1.959   2.538   8.888  0.1813  0.7694  2.9846
  688MOL0     H90776   1.896   2.362   8.715 -0.6373 -1.5454  0.7365
  688MOL0     H90777   1.813   2.520   8.681 -0.7414 -1.7513 -2.2894
  688MOL0     H90778   1.468   2.244   8.744  1.2171 -0.9342  1.2461
  688MOL0     H90779   1.332   2.196   8.544 -1.1311  1.9467  0.1524
  688MOL0     H90780   1.204   2.023   8.223 -1.1654 -2.9888 -2.1391
  688MOL0     H90781   1.047   1.959   8.053 -0.8746 -0.1683  1.8806
  688MOL0     H90782   0.752   2.003   8.058 -1.4260 -0.0990 -0.7076
  688MOL0     H90783   0.842   1.918   7.931  1.6194  0.5408 -0.9555
  688MOL0     H90784   0.646   1.922   7.862  2.2048 -0.8173 -0.3405
  688MOL0     H90785   0.716   2.046   7.755 -1.3313 -0.0362 -0.7032
  688MOL0     H90786   0.615   2.239   7.870  0.4632 -1.4513 -1.7121
  688MOL0     H90787   0.577   2.148   8.017 -1.0675 -1.1007  0.4299
  688MOL0     H90788   0.443   2.109   7.742  0.7170  1.4027 -0.1183
  688MOL0     H90789   0.399   2.013   7.885 -0.4574  0.1522  0.6839
  688MOL0     H90790   0.369   2.305   7.799  0.1058 -1.3911 -2.0286
  688MOL0     H90791   0.362   2.263   7.978  1.2156 -2.6405 -0.5824
  688MOL0     H90792   0.172   2.109   7.931 -0.3579  1.2716  2.0060
  688MOL0     H90793   0.217   2.132   7.755  0.2198  0.5101  0.0077
  688MOL0     H90794   0.119   2.362   7.914 -0.8922 -0.3344  0.3192
  688MOL0     H90795   0.125   2.342   7.747 -2.1696 -1.5336 -2.0466
  688MOL0     H90796  -0.104   2.319   7.802 -1.6047  0.9350  1.5092
  688MOL0     H90797  -0.079   2.214   7.938 -0.5085  1.6937 -0.3096
  688MOL0     H90798   0.938   2.379   8.005  1.2908  0.2015  0.5484
  688MOL0     H90799   1.075   2.438   8.193  0.1504 -0.4965 -0.4297
  688MOL0     H90800   1.621   2.423   8.312  0.8300  3.5466  1.6993
  688MOL0     H90801   1.753   2.430   8.484 -1.7975  0.6536 -1.5605
  688MOL0     H90802   3.097   1.946   9.859 -0.1587 -0.8375 -0.1955
  688MOL0     H90803   3.317   1.836   9.926  3.0106 -4.1324 -0.6782
  688MOL0     H90804   3.489   1.343   9.942  0.1965 -0.2322 -3.0362
  688MOL0     H90805   3.688   1.196   9.962  0.3427  0.9278  0.5704
  688MOL0     H90806   3.904   1.269  10.235  3.4672  0.8865  2.7406
  688MOL0     H90807   4.033   1.375  10.173  0.8017  0.7212 -3.0002
  688MOL0     H90808   4.037   1.077  10.221  2.8962 -1.0019  0.2206
  688MOL0     H90809   4.149   1.143  10.102 -3.5291  0.7708 -2.7882
  688MOL0     H90810   4.234   1.126  10.350 -0.3922 -1.0654 -2.3943
  688MOL0     H90811   4.094   1.231  10.400 -1.0752 -0.4764 -0.4020
  688MOL0     H90812   4.333   1.296  10.215  1.5599 -0.2373  1.5145
  688MOL0     H90813   4.210   1.413  10.269  1.3314 -0.1037 -1.8012
  688MOL0     H90814   4.476   1.442  10.576  0.1145  2.9453 -1.3556
  688MOL0     H90815   3.929   1.537  10.019 -1.3033 -0.1941  2.5895
  688MOL0     H90816   3.737   1.685   9.974  6.2814 -0.7392 -1.0986
  689MOL0     O90817   7.072   5.720   3.369  0.6190 -0.3754  0.1695
  689MOL0     C90818   7.097   5.842   3.345 -0.5316 -0.2960  0.1659
  689MOL0     O90819   7.015   5.922   3.280  0.6356 -1.0467 -0.1047
  689MOL0     C90820   6.888   5.876   3.241  0.6000 -1.0451  0.0200
  689MOL0     C90821   6.787   5.975   3.219 -0.7186 -0.1476 -1.0371
  689MOL0     C90822   6.663   5.943   3.171  0.2527 -0.3593 -0.1656
  689MOL0     C90823   6.632   5.814   3.133  0.6404  0.4570 -0.4461
  689MOL0     O90824   6.514   5.779   3.073  0.3020 -0.0450  0.4956
  689MOL0     C90825   6.395   5.818   3.150 -0.8420 -0.5629  0.4106
  689MOL0     C90826   6.275   5.741   3.095  0.8117  0.2155 -0.6234
  689MOL0     C90827   6.316   5.590   3.062  0.1395  0.2740  0.4918
  689MOL0     C90828   6.319   5.499   3.185 -1.1285 -0.0684 -0.4619
  689MOL0     C90829   6.408   5.381   3.158  0.4111 -0.4580 -0.5744
  689MOL0     C90830   6.366   5.305   3.033  0.7971 -0.4737  0.5201
  689MOL0     C90831   6.401   5.150   3.032 -0.1789 -0.5801 -0.3460
  689MOL0     C90832   6.340   5.060   3.139  0.8260 -0.3029 -0.6287
  689MOL0     N90833   6.194   5.076   3.127  0.0066 -0.2594 -0.8322
  689MOL0     C90834   6.114   5.153   3.210 -0.3754 -0.0288 -0.1888
  689MOL0     C90835   5.992   5.127   3.168 -0.2299  0.0999  0.5691
  689MOL0     C90836   5.863   5.162   3.246 -0.0138 -0.0408  0.3566
  689MOL0     C90837   5.737   5.091   3.184 -0.6684  0.1774  0.1129
  689MOL0     C90838   5.611   5.107   3.274  0.1821 -1.1409  0.3894
  689MOL0     C90839   5.487   5.079   3.193 -0.7225  0.3291  0.7917
  689MOL0     O90840   5.384   5.171   3.242 -0.2610  0.3550 -1.1208
  689MOL0     C90841   5.254   5.162   3.204 -0.1610 -0.1857 -0.0074
  689MOL0     C90842   5.178   5.274   3.220 -0.5047 -0.7057 -0.4526
  689MOL0     C90843   5.037   5.267   3.194  0.0781  0.2961 -0.0543
  689MOL0     C90844   4.979   5.153   3.145 -0.5831 -0.6700 -0.1876
  689MOL0     C90845   4.835   5.144   3.117  0.5266 -0.9779  0.3238
  689MOL0     O90846   4.777   5.021   3.096 -0.0616  0.5302  1.1874
  689MOL0     C90847   4.649   5.016   3.069 -0.0009  0.1579 -0.0219
  689MOL0     C90848   4.616   5.019   2.934 -0.6719  0.4719  0.0382
  689MOL0     C90849   4.479   5.015   2.901 -0.2867  0.9379  0.3438
  689MOL0     C90850   4.378   5.019   3.004  0.5416  0.3998  0.0636
  689MOL0     O90851   4.250   5.012   2.959 -0.2655 -0.5243 -0.7705
  689MOL0     C90852   4.151   4.958   3.044  0.7603  1.0168 -0.9093
  689MOL0     C90853   4.013   4.988   2.984  0.1910 -0.8072 -0.2722
  689MOL0     C90854   3.993   4.947   2.838  0.6886 -1.2435  0.3609
  689MOL0     C90855   3.845   4.955   2.799  0.1732  0.0122  1.0551
  689MOL0     C90856   3.787   5.097   2.837 -0.3093 -0.0781  0.5280
  689MOL0     C90857   3.644   5.116   2.775  0.6419  0.0577 -0.3667
  689MOL0     C90858   3.578   5.243   2.828  0.1847  0.1358 -0.2860
  689MOL0     C90859   3.436   5.280   2.786 -0.3476  0.3105  0.0193
  689MOL0    Cl90860   3.336   5.131   2.822 -0.3505  0.1441  0.2790
  689MOL0     C90861   4.416   5.026   3.134  0.0794 -0.6727  0.2435
  689MOL0     C90862   4.549   5.019   3.167 -0.4749 -0.2147  0.3851
  689MOL0     O90863   4.769   5.250   3.108 -0.3232  0.3979 -0.0038
  689MOL0     C90864   5.062   5.036   3.125 -0.6204  0.1343  0.6476
  689MOL0     C90865   5.200   5.035   3.161  0.0775 -0.7816 -0.1256
  689MOL0     N90866   6.002   5.056   3.052 -0.5140 -0.0270 -0.2047
  689MOL0     N90867   6.122   5.014   3.036  0.2643 -0.5472 -0.2365
  689MOL0     C90868   6.724   5.710   3.153 -0.2410 -0.0347 -0.4078
  689MOL0     C90869   6.851   5.744   3.200  0.0284 -0.3772  0.6374
  689MOL0     C90870   7.231   5.888   3.367 -0.3120 -0.0612 -0.2631
  689MOL0     C90871   7.264   6.023   3.334 -0.4546  0.3377  0.5452
  689MOL0     C90872   7.396   6.062   3.320  0.6483 -0.1917 -0.1092
  689MOL0     C90873   7.503   5.980   3.368 -0.1488 -0.5272  0.2702
  689MOL0     O90874   7.629   6.036   3.371 -0.4947  0.2744 -0.5122
  689MOL0     C90875   7.740   5.942   3.377  0.2088  0.1045  0.9918
  689MOL0     C90876   7.868   6.020   3.334  0.7797 -1.7018  0.0879
  689MOL0     C90877   7.887   6.149   3.419 -0.6696  0.8730 -0.1333
  689MOL0     C90878   8.021   6.218   3.387  0.7466  1.0769 -0.5205
  689MOL0     C90879   8.026   6.247   3.246  0.4470  0.2935  0.2724
  689MOL0     C90880   8.018   6.260   3.126  0.4052 -0.1421  0.4430
  689MOL0     C90881   7.468   5.853   3.417  0.3957  0.1435 -0.1379
  689MOL0     C90882   7.335   5.798   3.403  0.6316 -0.5320 -0.6796
  689MOL0     H90883   6.797   6.080   3.243 -0.7463 -0.6676  1.5447
  689MOL0     H90884   6.598   6.029   3.164  1.0905  0.3872  0.9109
  689MOL0     H90885   6.377   5.926   3.157  5.9119  1.1654 -1.9977
  689MOL0     H90886   6.431   5.779   3.246  2.1061 -1.7760 -1.0805
  689MOL0     H90887   6.232   5.795   3.010  0.7299 -0.0160 -0.7291
  689MOL0     H90888   6.199   5.732   3.174 -1.3610  1.3907 -2.4768
  689MOL0     H90889   6.401   5.574   2.996 -0.7358  0.6607 -0.7707
  689MOL0     H90890   6.234   5.547   3.003 -2.5899  0.6729  3.6716
  689MOL0     H90891   6.360   5.553   3.271 -0.5565  0.0038 -0.7749
  689MOL0     H90892   6.217   5.470   3.213 -0.7746 -0.3135  0.6195
  689MOL0     H90893   6.412   5.314   3.245  1.4771 -0.9744 -0.9905
  689MOL0     H90894   6.515   5.404   3.165  0.4982 -1.1834  1.1039
  689MOL0     H90895   6.403   5.359   2.945 -1.3951  0.4729  0.1190
  689MOL0     H90896   6.259   5.314   3.012  0.9883 -0.3537 -0.4683
  689MOL0     H90897   6.369   5.124   2.931 -0.6403 -0.2790 -0.2779
  689MOL0     H90898   6.509   5.130   3.032 -0.0147  0.2670 -0.4997
  689MOL0     H90899   6.367   5.097   3.239  1.4750 -3.6916  0.5631
  689MOL0     H90900   6.377   4.958   3.131  1.1075 -0.1260 -1.7702
  689MOL0     H90901   6.130   5.211   3.300  0.7537 -1.2982  0.4538
  689MOL0     H90902   5.852   5.270   3.234 -2.4489  0.1772  3.4482
  689MOL0     H90903   5.874   5.132   3.350 -1.9268 -0.9045  0.3469
  689MOL0     H90904   5.767   4.986   3.188  2.1850  0.9396  1.5089
  689MOL0     H90905   5.727   5.129   3.082 -0.9072  1.3787  0.5596
  689MOL0     H90906   5.619   5.031   3.352 -1.5885 -2.5998 -0.7796
  689MOL0     H90907   5.610   5.211   3.306  1.1001 -1.2410  0.7674
  689MOL0     H90908   5.459   4.974   3.204 -5.5362  1.4688  1.9452
  689MOL0     H90909   5.494   5.100   3.086  0.0711  2.4586  1.2025
  689MOL0     H90910   5.231   5.366   3.241  1.8180 -1.5932 -2.0687
  689MOL0     H90911   4.984   5.362   3.202  1.1230  0.8867 -0.0383
  689MOL0     H90912   4.681   4.995   2.850  0.8146  0.4171  1.1648
  689MOL0     H90913   4.447   4.997   2.799 -0.3096 -3.9369  0.9541
  689MOL0     H90914   4.151   5.004   3.143  2.0322  2.9357 -1.7316
  689MOL0     H90915   4.163   4.850   3.057 -1.3051  1.0809  2.5748
  689MOL0     H90916   4.015   5.098   2.985  2.4699 -0.7846  0.4583
  689MOL0     H90917   3.934   4.952   3.050 -0.8627  0.6516 -0.6981
  689MOL0     H90918   4.032   4.848   2.812  1.0721 -0.6606 -1.4358
  689MOL0     H90919   4.049   5.006   2.765 -0.9407 -1.6808 -1.3235
  689MOL0     H90920   3.838   4.923   2.695  0.0855  1.4857  0.5854
  689MOL0     H90921   3.786   4.882   2.854  0.5319 -0.1318  1.2556
  689MOL0     H90922   3.857   5.177   2.810 -0.8582 -0.0845 -0.9769
  689MOL0     H90923   3.779   5.126   2.942 -2.0894  1.3375  0.0398
  689MOL0     H90924   3.592   5.025   2.804  2.5258 -0.3901  1.8705
  689MOL0     H90925   3.653   5.112   2.666  0.5935 -2.7258 -0.3282
  689MOL0     H90926   3.571   5.230   2.936  2.2121 -1.4348 -0.2947
  689MOL0     H90927   3.647   5.325   2.805 -1.3048  0.5162 -4.2715
  689MOL0     H90928   3.443   5.295   2.678 -0.4625 -1.7385 -0.3072
  689MOL0     H90929   3.387   5.361   2.840 -1.3695 -0.2447 -0.0499
  689MOL0     H90930   4.340   5.046   3.209 -1.7125  0.6903 -1.8169
  689MOL0     H90931   4.576   5.019   3.272 -1.5332 -0.1941  0.6592
  689MOL0     H90932   5.017   4.939   3.105  0.3972 -0.2529  0.1636
  689MOL0     H90933   5.255   4.944   3.138 -0.7265 -1.1120 -0.7937
  689MOL0     H90934   6.706   5.605   3.131 -3.0533 -0.3074  2.3982
  689MOL0     H90935   6.926   5.665   3.196  1.5967  1.1015 -0.6871
  689MOL0     H90936   7.189   6.091   3.297 -1.7629 -0.9298  0.7707
  689MOL0     H90937   7.437   6.156   3.285  0.6643  1.4153  3.7437
  689MOL0     H90938   7.730   5.854   3.312  0.4675  1.6928 -1.3206
  689MOL0     H90939   7.764   5.907   3.477  2.7586 -1.7088 -0.1526
  689MOL0     H90940   7.957   5.956   3.332  2.8260  0.9537 -1.1108
  689MOL0     H90941   7.856   6.059   3.233  0.1561  1.9393  1.4150
  689MOL0     H90942   7.885   6.134   3.527 -3.6249 -0.8281 -0.3280
  689MOL0     H90943   7.808   6.221   3.393 -0.9274 -0.3257 -2.9371
  689MOL0     H90944   8.018   6.311   3.445  0.9168  0.0482  1.2022
  689MOL0     H90945   8.102   6.151   3.419 -0.4841 -0.9136 -1.3645
  689MOL0     H90946   8.020   6.277   3.020  1.3875  1.3408  0.6552
  689MOL0     H90947   7.550   5.786   3.441  1.1482  0.6251 -1.2856
  689MOL0     H90948   7.306   5.695   3.423 -2.1309 -0.0712 -1.8101
  690MOL0     O90949   3.266   2.394   0.115 -0.0629 -0.8551  0.0146
  690MOL0     C90950   3.264   2.509   0.081 -0.4304  0.8113  0.0924
  690MOL0     O90951   3.157   2.583   0.043 -0.1532  0.2784  0.0722
  690MOL0     C90952   3.025   2.531   0.048 -0.1969 -0.3411 -0.3444
  690MOL0     C90953   2.978   2.458   0.166 -0.2203  0.0993  0.1082
  690MOL0     C90954   2.843   2.416   0.189 -0.3074 -0.8044 -0.3061
  690MOL0     C90955   2.751   2.441   0.091  0.9604  0.3818  0.7403
  690MOL0     O90956   2.627   2.378   0.098 -0.5540  0.1983  0.3603
  690MOL0     C90957   2.526   2.394  -0.010  1.0365  0.9639 -0.4968
  690MOL0     C90958   2.406   2.467   0.049  0.5052 -0.8128 -0.0630
  690MOL0     C90959   2.281   2.460  -0.040  0.4416 -0.2508  0.4112
  690MOL0     C90960   2.167   2.545   0.022 -0.1184  0.4432 -0.1167
  690MOL0     C90961   2.036   2.497  -0.053 -0.4775 -0.3595 -0.2385
  690MOL0     C90962   1.920   2.569   0.008  0.4464 -0.8062 -0.5793
  690MOL0     C90963   1.792   2.526  -0.065 -0.6444  0.1270 -0.2430
  690MOL0     C90964   1.675   2.602  -0.000  0.2279 -0.5263 -0.5721
  690MOL0     N90965   1.555   2.571  -0.068 -0.0890  0.1096  0.7958
  690MOL0     C90966   1.466   2.473  -0.025  0.5493 -0.3432 -0.9492
  690MOL0     C90967   1.374   2.450  -0.120  0.0652  0.1933 -0.4377
  690MOL0     C90968   1.264   2.343  -0.130 -0.6603 -0.8148  0.0549
  690MOL0     C90969   1.129   2.393  -0.088 -0.6909 -0.8263  0.2273
  690MOL0     C90970   1.071   2.491  -0.192  0.1235  0.6445  0.0054
  690MOL0     C90971   0.930   2.535  -0.158  0.2036 -0.3131  0.8281
  690MOL0     O90972   0.830   2.433  -0.186  0.2188 -0.1448 -0.4530
  690MOL0     C90973   0.694   2.469  -0.200  0.2901  0.1632  0.3453
  690MOL0     C90974   0.652   2.602  -0.207  0.2139 -0.7206 -0.4836
  690MOL0     C90975   0.521   2.634  -0.234 -0.2865  0.5221 -0.7424
  690MOL0     C90976   0.425   2.536  -0.265 -0.2275 -0.0891 -0.4661
  690MOL0     C90977   0.284   2.565  -0.306 -0.1820 -0.7348  0.0610
  690MOL0     O90978   0.198   2.463  -0.304 -0.0161  0.0707  0.5693
  690MOL0     C90979   0.066   2.474  -0.340  0.8912 -0.6977  0.6759
  690MOL0     C90980   0.002   2.360  -0.372 -0.9954  0.3977 -0.3962
  690MOL0     C90981  -0.133   2.353  -0.410  0.8662  0.3909 -0.7527
  690MOL0     C90982  -0.212   2.477  -0.406 -0.6603  0.9423  0.3802
  690MOL0     O90983  -0.345   2.484  -0.438  0.2849  0.0332  0.0826
  690MOL0     C90984  -0.414   2.361  -0.449 -0.6046  0.0070  0.7053
  690MOL0     C90985  -0.565   2.378  -0.450  0.0096  0.0173  0.4215
  690MOL0     C90986  -0.606   2.471  -0.557 -0.5030 -0.4651 -0.4400
  690MOL0     C90987  -0.757   2.480  -0.564 -0.4612  0.0792  0.6865
  690MOL0     C90988  -0.799   2.567  -0.686 -0.0626 -0.2324 -0.6221
  690MOL0     C90989  -0.952   2.590  -0.704  0.1686 -0.1183 -0.7942
  690MOL0     C90990  -1.027   2.509  -0.814  0.7390 -0.2061  0.3373
  690MOL0     C90991  -1.019   2.356  -0.780 -0.0694  0.3015  0.2725
  690MOL0    Cl90992  -1.092   2.308  -0.621 -0.5475  0.1170  0.6794
  690MOL0     C90993  -0.146   2.596  -0.371 -0.1428  0.5239 -0.0516
  690MOL0     C90994  -0.011   2.596  -0.331 -0.3755  0.4824 -0.3727
  690MOL0     O90995   0.262   2.673  -0.343  0.0652 -0.9913  0.4347
  690MOL0     C90996   0.465   2.408  -0.231  0.3548 -0.7770  0.1056
  690MOL0     C90997   0.600   2.368  -0.209 -0.1315 -0.3854 -0.5598
  690MOL0     N90998   1.399   2.541  -0.224  0.1391  0.0983  0.7187
  690MOL0     N90999   1.502   2.615  -0.190  0.1124  0.3127 -0.0121
  690MOL0     C91000   2.794   2.514  -0.027 -0.6295  0.0724 -0.0707
  690MOL0     C91001   2.925   2.558  -0.042  1.4847 -1.0749 -0.7226
  690MOL0     C91002   3.395   2.573   0.091 -1.0914  0.7260 -0.3541
  690MOL0     C91003   3.400   2.708   0.073 -0.3918 -0.1368 -0.3656
  690MOL0     C91004   3.515   2.788   0.111  0.0328 -0.1898 -0.5306
  690MOL0     C91005   3.621   2.726   0.176 -0.1373  0.2487  0.0171
  690MOL0     O91006   3.722   2.801   0.234  0.4290  0.6683  0.0731
  690MOL0     C91007   3.845   2.749   0.282 -0.6081  0.1029  0.4570
  690MOL0     C91008   3.940   2.869   0.281 -0.0750  0.2524 -0.6399
  690MOL0     C91009   4.090   2.823   0.274  0.2164 -0.6654 -0.2982
  690MOL0     C91010   4.194   2.942   0.259  0.6254  0.0916 -0.3594
  690MOL0     C91011   4.173   3.027   0.140 -0.1991  0.5654 -0.8063
  690MOL0     C91012   4.160   3.105   0.047 -0.6666 -0.1862 -0.4701
  690MOL0     C91013   3.619   2.586   0.200 -0.0106 -0.1978  0.4052
  690MOL0     C91014   3.512   2.513   0.152  0.5455  1.4434  0.1250
  690MOL0     H91015   3.050   2.433   0.243 -0.0848  0.9024  0.2515
  690MOL0     H91016   2.814   2.367   0.281  3.4612 -0.2245  1.3900
  690MOL0     H91017   2.495   2.299  -0.055  2.6843  2.1134 -4.4340
  690MOL0     H91018   2.563   2.448  -0.097  2.5811 -1.5205 -1.4887
  690MOL0     H91019   2.435   2.569   0.075 -0.7664  0.6113 -3.6372
  690MOL0     H91020   2.375   2.410   0.138 -0.0663  1.2742  1.1398
  690MOL0     H91021   2.255   2.355  -0.059  1.7766 -0.7328  1.1472
  690MOL0     H91022   2.314   2.492  -0.139 -1.1099  0.6817  0.1652
  690MOL0     H91023   2.171   2.545   0.131  0.5375 -1.6007 -0.0988
  690MOL0     H91024   2.185   2.652   0.005  0.5502 -0.1673 -4.5796
  690MOL0     H91025   2.010   2.392  -0.036 -0.9896 -0.0689  0.8343
  690MOL0     H91026   2.058   2.514  -0.159  0.8624 -1.7715 -0.2250
  690MOL0     H91027   1.942   2.675  -0.012 -3.0143 -0.0343 -1.0331
  690MOL0     H91028   1.914   2.561   0.117  2.8422 -1.1229 -0.4284
  690MOL0     H91029   1.789   2.551  -0.171 -1.2849 -0.0812 -0.2762
  690MOL0     H91030   1.778   2.418  -0.058 -0.3419  0.0699 -0.4957
  690MOL0     H91031   1.691   2.708  -0.022  1.0767 -0.4418  0.4075
  690MOL0     H91032   1.660   2.594   0.108 -2.7414 -3.0963 -1.0388
  690MOL0     H91033   1.479   2.414   0.065  0.2030  2.0681  0.7594
  690MOL0     H91034   1.299   2.251  -0.081  1.3133 -2.4371 -3.8821
  690MOL0     H91035   1.274   2.323  -0.237  1.6364  0.8322 -0.1102
  690MOL0     H91036   1.137   2.448   0.006 -2.7325  0.6530 -0.3949
  690MOL0     H91037   1.067   2.306  -0.065  0.4063 -2.3439 -2.1555
  690MOL0     H91038   1.139   2.576  -0.198  2.8978 -1.4086  0.3702
  690MOL0     H91039   1.074   2.441  -0.289 -2.4286  2.3346 -1.0338
  690MOL0     H91040   0.915   2.619  -0.226  1.1610 -0.1545  0.8053
  690MOL0     H91041   0.914   2.570  -0.056 -3.2854  0.9282 -0.0191
  690MOL0     H91042   0.732   2.674  -0.191  1.6209 -2.6876  1.9441
  690MOL0     H91043   0.501   2.739  -0.252  0.5486  1.2570  2.0683
  690MOL0     H91044   0.053   2.264  -0.369 -1.6417  0.0533 -0.0048
  690MOL0     H91045  -0.164   2.254  -0.439 -0.9371 -0.2193  2.7270
  690MOL0     H91046  -0.392   2.286  -0.372 -0.0538 -0.3457  0.2216
  690MOL0     H91047  -0.392   2.314  -0.546  0.3517 -1.1015  1.4264
  690MOL0     H91048  -0.599   2.417  -0.354 -0.8155  2.7256 -0.8418
  690MOL0     H91049  -0.617   2.283  -0.466 -0.8098  0.9492 -4.0473
  690MOL0     H91050  -0.578   2.440  -0.658 -0.6697  0.7682 -0.8843
  690MOL0     H91051  -0.559   2.565  -0.528 -0.8791 -0.4943  0.2877
  690MOL0     H91052  -0.785   2.375  -0.576  4.1394 -1.2715 -0.3698
  690MOL0     H91053  -0.806   2.521  -0.475 -2.0673  3.4195 -1.5449
  690MOL0     H91054  -0.758   2.533  -0.781  0.6591  0.1956 -0.4732
  690MOL0     H91055  -0.760   2.669  -0.680 -2.0018  0.4836  2.8629
  690MOL0     H91056  -0.976   2.697  -0.712 -4.7905 -0.4311  4.1265
  690MOL0     H91057  -1.000   2.570  -0.608  1.9894 -0.4394  0.0732
  690MOL0     H91058  -1.129   2.547  -0.809  1.1308  0.7609  1.5097
  690MOL0     H91059  -0.990   2.537  -0.914  1.0909  4.1981  1.4734
  690MOL0     H91060  -0.912   2.334  -0.772  0.2350  2.1988  2.2333
  690MOL0     H91061  -1.076   2.291  -0.847 -3.2474 -0.0460  3.0773
  690MOL0     H91062  -0.205   2.687  -0.366  0.0510  0.7586 -1.7044
  690MOL0     H91063   0.031   2.688  -0.293  1.0124 -0.4812  0.5580
  690MOL0     H91064   0.389   2.332  -0.244  0.7956 -1.0338 -1.0714
  690MOL0     H91065   0.634   2.266  -0.197 -1.2583 -0.6511  0.6222
  690MOL0     H91066   2.731   2.550  -0.108  2.2169  2.7180 -1.3137
  690MOL0     H91067   2.964   2.612  -0.127  0.0468  0.0252 -0.7306
  690MOL0     H91068   3.315   2.759   0.028 -0.1928  1.0067  0.5100
  690MOL0     H91069   3.521   2.896   0.098  0.7618 -0.3401 -1.6569
  690MOL0     H91070   3.880   2.685   0.201 -0.1127  2.6433 -1.4777
  690MOL0     H91071   3.837   2.700   0.380 -2.7612  0.8799  0.7371
  690MOL0     H91072   3.916   2.927   0.191  0.9292  1.4129 -0.1975
  690MOL0     H91073   3.924   2.933   0.368 -1.0158  0.9080 -1.2705
  690MOL0     H91074   4.101   2.762   0.184  1.7407 -0.2577 -0.4025
  690MOL0     H91075   4.104   2.759   0.362  2.1019  2.2545  1.6929
  690MOL0     H91076   4.191   3.003   0.349  0.2194  1.7046 -1.4247
  690MOL0     H91077   4.290   2.890   0.252 -0.0170 -1.9254  3.3895
  690MOL0     H91078   4.150   3.184  -0.024 -0.2864  0.3701  0.0840
  690MOL0     H91079   3.708   2.535   0.234  0.0327 -2.0128 -2.1798
  690MOL0     H91080   3.516   2.406   0.165  3.0247  1.6073  1.3960
  691MOL0     O91081   0.870   1.531   2.506 -0.1034 -0.4422  0.5776
  691MOL0     C91082   0.807   1.626   2.454 -0.1704 -0.1519 -0.2879
  691MOL0     O91083   0.841   1.680   2.344  0.1288 -0.7812 -0.0182
  691MOL0     C91084   0.934   1.630   2.257  0.7316  0.1215  0.6189
  691MOL0     C91085   0.876   1.591   2.130 -0.3353  0.4862 -0.1766
  691MOL0     C91086   0.957   1.549   2.027  0.5720 -0.1539 -0.4307
  691MOL0     C91087   1.101   1.554   2.038 -0.6539  0.8666 -0.5790
  691MOL0     O91088   1.167   1.503   1.933  0.1615  0.4598 -0.0137
  691MOL0     C91089   1.290   1.440   1.946 -0.0373 -0.2595 -0.5167
  691MOL0     C91090   1.407   1.541   1.951  0.1978 -1.0543 -0.1616
  691MOL0     C91091   1.532   1.470   2.010 -0.0415  0.8078  0.2007
  691MOL0     C91092   1.639   1.568   2.029 -0.7134  0.9514 -0.0628
  691MOL0     C91093   1.774   1.495   2.063  0.8420  0.0877  0.2702
  691MOL0     C91094   1.858   1.455   1.932  0.0554  0.1171 -0.2726
  691MOL0     C91095   1.977   1.368   1.984  0.2372 -0.4570 -0.4434
  691MOL0     C91096   2.073   1.450   2.077  0.0930 -0.4559 -0.2732
  691MOL0     N91097   2.210   1.430   2.053  0.7843  0.5175 -0.2330
  691MOL0     C91098   2.273   1.303   2.032  0.2612  0.4791 -1.4010
  691MOL0     C91099   2.407   1.329   2.042  0.0621  0.3840 -0.9529
  691MOL0     C91100   2.526   1.230   2.026  0.9260 -0.1817  0.1242
  691MOL0     C91101   2.504   1.104   2.116 -1.1477 -0.5991 -0.3750
  691MOL0     C91102   2.526   1.146   2.264  0.0869 -0.1433  0.6458
  691MOL0     C91103   2.396   1.195   2.328 -0.6703 -0.2424 -0.4556
  691MOL0     O91104   2.291   1.106   2.303  0.2372 -0.2452 -0.6482
  691MOL0     C91105   2.163   1.161   2.299  0.4159 -0.4981  0.3760
  691MOL0     C91106   2.061   1.087   2.239 -0.2905  0.1775  0.1152
  691MOL0     C91107   1.924   1.121   2.261 -0.3936 -0.2876 -0.8306
  691MOL0     C91108   1.883   1.232   2.336 -0.0781  0.5218 -0.1964
  691MOL0     C91109   1.745   1.250   2.366 -0.7079 -0.5077 -0.5493
  691MOL0     O91110   1.656   1.156   2.314 -0.2232 -0.2281 -0.0432
  691MOL0     C91111   1.524   1.161   2.340 -0.5306 -1.0660  0.4892
  691MOL0     C91112   1.443   1.272   2.375  0.3045 -1.2317  0.1691
  691MOL0     C91113   1.306   1.266   2.379  0.2134  0.6723  1.2085
  691MOL0     C91114   1.242   1.132   2.358 -0.5180 -0.7099 -0.3431
  691MOL0     O91115   1.109   1.114   2.360 -0.3985 -0.5188 -0.2985
  691MOL0     C91116   1.021   1.228   2.383 -0.6715  0.5240 -0.3144
  691MOL0     C91117   0.877   1.179   2.356 -0.7833 -0.6776 -0.0011
  691MOL0     C91118   0.847   1.077   2.469 -0.0401  0.5244 -1.0308
  691MOL0     C91119   0.699   1.025   2.462  0.1484 -0.3800 -0.5163
  691MOL0     C91120   0.663   0.950   2.331 -0.2529 -0.0524 -0.4507
  691MOL0     C91121   0.559   0.843   2.365 -0.2462  0.6480  0.4283
  691MOL0     C91122   0.530   0.747   2.249 -0.4998  0.2996  0.9813
  691MOL0     C91123   0.439   0.822   2.156  0.1454  0.0435  0.1419
  691MOL0    Cl91124   0.454   0.729   2.000  0.1561  0.6968  0.2399
  691MOL0     C91125   1.324   1.024   2.331 -0.3322  1.4305 -0.0506
  691MOL0     C91126   1.464   1.037   2.319  0.3298 -0.1295 -0.3673
  691MOL0     O91127   1.719   1.338   2.445 -0.6611 -0.2956 -0.2581
  691MOL0     C91128   1.989   1.312   2.395 -0.8518  0.5782  1.2618
  691MOL0     C91129   2.127   1.280   2.366 -0.7989  0.5500 -0.2404
  691MOL0     N91130   2.422   1.471   2.067  0.1156 -0.2027  0.2514
  691MOL0     N91131   2.306   1.522   2.071  0.1481 -0.5528 -0.7119
  691MOL0     C91132   1.154   1.587   2.160  0.4948  0.1600 -0.8006
  691MOL0     C91133   1.070   1.623   2.266  0.3141  0.1805  0.0871
  691MOL0     C91134   0.685   1.674   2.509  0.6155  0.2112 -0.0575
  691MOL0     C91135   0.609   1.579   2.587 -0.0487  0.4190 -0.0274
  691MOL0     C91136   0.487   1.623   2.642  0.4102  0.0265  0.1752
  691MOL0     C91137   0.429   1.743   2.589  0.4173 -0.8480  0.6932
  691MOL0     O91138   0.302   1.800   2.623 -0.2582 -0.0902  0.3058
  691MOL0     C91139   0.200   1.715   2.691 -0.1995  1.0087  0.5610
  691MOL0     C91140   0.062   1.779   2.678  0.0927 -0.1724 -0.1170
  691MOL0     C91141  -0.042   1.718   2.774 -0.2991  0.5306 -0.6255
  691MOL0     C91142  -0.181   1.751   2.730 -0.1402 -0.5337  0.3919
  691MOL0     C91143  -0.213   1.887   2.766  0.9302 -0.1331 -0.0052
  691MOL0     C91144  -0.231   2.004   2.819 -0.8917 -0.4927  0.3697
  691MOL0     C91145   0.508   1.825   2.514  0.9365  0.1005  0.2355
  691MOL0     C91146   0.629   1.801   2.470  0.1820  0.9197 -0.6450
  691MOL0     H91147   0.768   1.596   2.119 -0.2406 -0.2797 -1.7168
  691MOL0     H91148   0.911   1.531   1.930 -2.0204 -0.0148  0.6745
  691MOL0     H91149   1.297   1.391   1.849 -1.2953  1.1732 -1.3788
  691MOL0     H91150   1.282   1.364   2.025  3.9412 -1.1119 -0.7165
  691MOL0     H91151   1.382   1.630   2.010 -0.3586 -0.3418 -1.4453
  691MOL0     H91152   1.423   1.578   1.849 -0.3080 -2.5412 -0.8021
  691MOL0     H91153   1.566   1.380   1.958  0.2169  2.3784 -2.5446
  691MOL0     H91154   1.499   1.443   2.110  1.6403  0.2158  0.6304
  691MOL0     H91155   1.655   1.629   1.939 -0.8270 -0.0485 -0.7693
  691MOL0     H91156   1.604   1.623   2.117 -2.1791 -1.8282  1.1891
  691MOL0     H91157   1.756   1.403   2.119 -0.7345  0.6568  0.7518
  691MOL0     H91158   1.840   1.551   2.130 -1.4448  2.8225  0.4077
  691MOL0     H91159   1.892   1.545   1.879 -1.4047  1.1887  0.5178
  691MOL0     H91160   1.798   1.393   1.865 -0.6434 -0.7080  1.0841
  691MOL0     H91161   1.951   1.273   2.031  0.8003 -0.4417 -0.1008
  691MOL0     H91162   2.025   1.340   1.889 -1.9183 -0.4231 -1.6198
  691MOL0     H91163   2.049   1.416   2.179 -0.4755 -3.8330 -1.3821
  691MOL0     H91164   2.049   1.557   2.074 -1.0863 -0.7201 -1.4677
  691MOL0     H91165   2.229   1.207   2.005 -0.7608  0.7394 -0.6905
  691MOL0     H91166   2.607   1.293   2.062 -2.2067  3.6216  1.2748
  691MOL0     H91167   2.537   1.195   1.923  2.3380 -2.4868  1.0040
  691MOL0     H91168   2.569   1.018   2.099 -2.0226 -2.0544  2.7699
  691MOL0     H91169   2.412   1.053   2.087 -0.8363 -0.2896 -1.9793
  691MOL0     H91170   2.567   1.054   2.308  0.0369 -1.2443 -1.4486
  691MOL0     H91171   2.608   1.217   2.280 -0.3063  0.4631  0.0009
  691MOL0     H91172   2.372   1.291   2.281 -2.2601 -0.7351 -0.7133
  691MOL0     H91173   2.398   1.208   2.437  2.9032 -0.6809 -0.3499
  691MOL0     H91174   2.086   0.988   2.202  0.0525  0.8103 -1.4583
  691MOL0     H91175   1.854   1.052   2.214 -1.7229  0.0817  0.5181
  691MOL0     H91176   1.487   1.369   2.399 -0.6092 -0.6307 -0.5360
  691MOL0     H91177   1.259   1.353   2.424 -0.2861  0.0220  1.9664
  691MOL0     H91178   1.036   1.306   2.307 -0.1020  0.8469  0.1260
  691MOL0     H91179   1.031   1.262   2.486 -0.2500  2.4358 -0.9433
  691MOL0     H91180   0.870   1.119   2.265  0.2591  0.1540 -0.6465
  691MOL0     H91181   0.814   1.267   2.340  1.5257  1.0420 -0.1329
  691MOL0     H91182   0.865   1.126   2.565  0.0097 -0.8111 -0.3296
  691MOL0     H91183   0.912   0.989   2.461  1.0650  1.4330 -2.5060
  691MOL0     H91184   0.680   0.955   2.544 -0.7667 -0.1221 -0.4936
  691MOL0     H91185   0.625   1.106   2.467  0.7460  0.4137 -2.8989
  691MOL0     H91186   0.757   0.910   2.293  0.1004 -1.3362  1.6538
  691MOL0     H91187   0.614   1.016   2.258 -0.3493  0.1606 -0.1935
  691MOL0     H91188   0.472   0.899   2.401 -1.5642 -0.3028 -1.1140
  691MOL0     H91189   0.603   0.776   2.439  3.5417  0.2724 -1.9269
  691MOL0     H91190   0.619   0.718   2.194 -0.7147 -2.0972  1.7982
  691MOL0     H91191   0.477   0.658   2.283 -1.1544 -0.4306 -1.7537
  691MOL0     H91192   0.465   0.927   2.137  2.6135 -0.4868  0.2436
  691MOL0     H91193   0.336   0.828   2.194 -0.7568  1.3825 -2.3166
  691MOL0     H91194   1.291   0.923   2.308  0.4939  1.4648 -1.4560
  691MOL0     H91195   1.529   0.951   2.308  0.4037 -0.3681  1.5117
  691MOL0     H91196   1.969   1.399   2.458  0.0427  0.2679  1.9890
  691MOL0     H91197   2.211   1.341   2.397  0.1374  0.0760 -1.7433
  691MOL0     H91198   1.259   1.587   2.188  0.1546  0.1124  0.5251
  691MOL0     H91199   1.117   1.640   2.363  3.3485 -1.5530 -0.9452
  691MOL0     H91200   0.647   1.482   2.615  0.1014 -0.0130 -1.6753
  691MOL0     H91201   0.425   1.561   2.705  1.3169 -0.8151  0.2577
  691MOL0     H91202   0.231   1.703   2.795  0.1531 -0.4708  0.3098
  691MOL0     H91203   0.191   1.614   2.650  0.3909  0.8967  0.6917
  691MOL0     H91204   0.076   1.887   2.690  2.1062 -0.5590  1.4829
  691MOL0     H91205   0.031   1.769   2.573  1.3572 -3.1231 -0.3161
  691MOL0     H91206  -0.028   1.757   2.875 -0.1818  0.8259 -0.7566
  691MOL0     H91207  -0.037   1.609   2.781  0.8321  0.5752 -0.5765
  691MOL0     H91208  -0.187   1.736   2.622  2.1493 -3.4011  0.5611
  691MOL0     H91209  -0.259   1.692   2.779 -1.3481  0.2853 -0.4837
  691MOL0     H91210  -0.248   2.106   2.847 -0.8071 -0.0594 -1.0529
  691MOL0     H91211   0.466   1.925   2.502  1.6006  0.4349  0.6234
  691MOL0     H91212   0.695   1.875   2.425  2.2839 -0.3060  0.2416
  692MOL0     O91213   9.525   0.097   1.220  0.2404 -0.3716 -0.3589
  692MOL0     C91214   9.581   0.136   1.321 -0.6766  0.1939  0.3177
  692MOL0     O91215   9.524   0.171   1.440 -0.2433  0.5900  0.0477
  692MOL0     C91216   9.385   0.175   1.455 -0.5161  0.9247 -0.2198
  692MOL0     C91217   9.330   0.139   1.578  0.1134  0.8022  0.2904
  692MOL0     C91218   9.198   0.181   1.600 -0.0984 -0.3901 -0.0571
  692MOL0     C91219   9.117   0.216   1.497  0.3732 -0.2810  0.1990
  692MOL0     O91220   8.982   0.224   1.537  0.4898 -0.8366  0.2816
  692MOL0     C91221   8.881   0.244   1.441 -0.2224 -0.2066 -0.8558
  692MOL0     C91222   8.744   0.240   1.505  0.2560 -0.9293 -0.2743
  692MOL0     C91223   8.633   0.283   1.410 -0.6597 -0.2729  0.0640
  692MOL0     C91224   8.500   0.257   1.475  0.5684 -0.1466 -0.9718
  692MOL0     C91225   8.382   0.338   1.404 -0.4126  0.0746 -0.0104
  692MOL0     C91226   8.246   0.315   1.468 -0.1520  1.1882 -0.7982
  692MOL0     C91227   8.144   0.364   1.368 -0.2380 -0.8728  0.0506
  692MOL0     C91228   7.995   0.360   1.420 -0.5685 -0.3876  0.0547
  692MOL0     N91229   7.900   0.413   1.323 -0.1914 -0.6187  0.3460
  692MOL0     C91230   7.853   0.541   1.311 -0.0356  1.4361 -0.0828
  692MOL0     C91231   7.757   0.534   1.213  0.3218 -0.2560  0.3454
  692MOL0     C91232   7.670   0.644   1.173 -0.3740 -0.3862 -0.0516
  692MOL0     C91233   7.550   0.599   1.093 -0.4538 -0.5596  0.1818
  692MOL0     C91234   7.437   0.696   1.084  0.8626  0.7532 -0.6429
  692MOL0     C91235   7.331   0.634   0.985 -0.4587  1.1259 -0.3270
  692MOL0     O91236   7.257   0.734   0.915  0.1146 -0.7589 -0.2503
  692MOL0     C91237   7.148   0.694   0.846 -0.1762 -0.5972  0.5241
  692MOL0     C91238   7.109   0.561   0.821 -0.4250 -0.2133 -0.1507
  692MOL0     C91239   6.995   0.534   0.746 -0.5079 -0.2196 -0.4723
  692MOL0     C91240   6.926   0.639   0.695  0.0712  0.5497  0.2322
  692MOL0     C91241   6.806   0.612   0.613 -0.1536 -0.5994  0.0000
  692MOL0     O91242   6.725   0.718   0.585  0.2446 -0.0411  0.2402
  692MOL0     C91243   6.603   0.707   0.519  0.4848 -0.5331  0.5735
  692MOL0     C91244   6.560   0.814   0.436 -0.2355  0.4770  0.1617
  692MOL0     C91245   6.437   0.801   0.365  0.1268  0.4240  0.5326
  692MOL0     C91246   6.367   0.675   0.363  0.1879 -0.1498 -0.3385
  692MOL0     O91247   6.250   0.674   0.288 -0.5732 -0.6963  0.6772
  692MOL0     C91248   6.154   0.579   0.329  0.1297 -0.2171  0.9830
  692MOL0     C91249   6.016   0.612   0.277  0.3217 -0.8500  0.8495
  692MOL0     C91250   5.973   0.609   0.125 -0.9468  0.3601  0.1494
  692MOL0     C91251   5.823   0.643   0.104 -0.2012  0.1461  0.1149
  692MOL0     C91252   5.780   0.585  -0.032 -0.0425 -0.2261 -0.6860
  692MOL0     C91253   5.643   0.634  -0.069 -0.1410  0.3383 -0.1749
  692MOL0     C91254   5.538   0.596   0.040 -0.0386  0.5663 -0.2391
  692MOL0     C91255   5.399   0.639  -0.010 -0.1473 -0.1392  0.4678
  692MOL0    Cl91256   5.259   0.574   0.076  0.0422  0.4291 -0.1740
  692MOL0     C91257   6.417   0.570   0.448  0.1004  0.1354 -0.6283
  692MOL0     C91258   6.539   0.584   0.517  0.6534 -0.1862  0.6249
  692MOL0     O91259   6.786   0.494   0.586  0.4268  0.2250  0.3269
  692MOL0     C91260   6.962   0.778   0.716 -0.5405  0.4516 -1.2300
  692MOL0     C91261   7.077   0.807   0.796 -0.1027 -0.3012  0.3930
  692MOL0     N91262   7.750   0.406   1.168 -0.3115  0.0759  0.1195
  692MOL0     N91263   7.839   0.336   1.225 -0.6625  0.5079 -0.1256
  692MOL0     C91264   9.171   0.243   1.373 -0.8826  0.1669 -0.4242
  692MOL0     C91265   9.310   0.228   1.352 -0.4363  0.0053  0.1689
  692MOL0     C91266   9.729   0.138   1.311 -0.7505  0.0685 -0.0389
  692MOL0     C91267   9.788   0.088   1.194 -0.1702 -0.7950 -0.2635
  692MOL0     C91268   9.928   0.092   1.172 -0.1324 -0.1106 -0.6629
  692MOL0     C91269  10.004   0.137   1.278 -0.0949  0.0315  0.1892
  692MOL0     O91270  10.138   0.147   1.284 -0.6532 -0.2128 -0.1312
  692MOL0     C91271  10.214   0.033   1.240  0.2495 -0.8099  0.1108
  692MOL0     C91272  10.357   0.046   1.291  0.3681  0.0750  0.0650
  692MOL0     C91273  10.453  -0.060   1.230  0.6331  0.3393  0.0169
  692MOL0     C91274  10.559  -0.113   1.327  0.0345 -0.6993  0.2712
  692MOL0     C91275  10.620  -0.237   1.276 -1.0230  0.1752 -0.6173
  692MOL0     C91276  10.693  -0.333   1.256  0.7382  0.9104  0.0116
  692MOL0     C91277   9.940   0.193   1.394 -0.3767  0.7918  0.1077
  692MOL0     C91278   9.804   0.203   1.408  0.0183  0.1528 -0.3096
  692MOL0     H91279   9.395   0.094   1.651  1.1460 -0.0646 -1.1163
  692MOL0     H91280   9.159   0.162   1.700  0.7956  0.3834  0.4555
  692MOL0     H91281   8.886   0.157   1.375 -4.5454  0.3768 -2.3008
  692MOL0     H91282   8.888   0.331   1.375  0.1724 -1.7344 -2.9509
  692MOL0     H91283   8.738   0.303   1.595  1.9240 -1.6393  0.3778
  692MOL0     H91284   8.733   0.135   1.530  1.1992 -0.8743  0.4477
  692MOL0     H91285   8.633   0.221   1.321  0.8160  0.1398 -0.2583
  692MOL0     H91286   8.647   0.390   1.388 -1.1201 -0.5561 -1.7656
  692MOL0     H91287   8.476   0.151   1.487  2.5721 -0.3284  2.8151
  692MOL0     H91288   8.507   0.306   1.572  0.4483  1.8492 -1.9147
  692MOL0     H91289   8.366   0.302   1.302  1.9735 -1.3891  0.0697
  692MOL0     H91290   8.407   0.444   1.391  0.0024  0.0083  0.2378
  692MOL0     H91291   8.236   0.365   1.565  2.5635  0.1597  0.0874
  692MOL0     H91292   8.228   0.210   1.491  0.2842  0.6863 -2.6195
  692MOL0     H91293   8.166   0.469   1.345 -2.6160  0.0540  1.5475
  692MOL0     H91294   8.144   0.313   1.271 -0.3659  0.5391 -0.7182
  692MOL0     H91295   8.002   0.407   1.518  0.6007 -1.7414  0.6507
  692MOL0     H91296   7.969   0.254   1.421 -1.3843 -0.1950  1.0856
  692MOL0     H91297   7.887   0.637   1.349 -1.0415  0.8361  2.5760
  692MOL0     H91298   7.725   0.714   1.110 -0.2020 -0.7750 -0.3400
  692MOL0     H91299   7.634   0.694   1.263  1.1005  0.4774  0.1014
  692MOL0     H91300   7.518   0.509   1.146 -0.0004 -1.0236 -0.3158
  692MOL0     H91301   7.580   0.578   0.990  0.1310  3.2198 -0.5630
  692MOL0     H91302   7.387   0.716   1.179 -0.9054 -0.4762 -1.2579
  692MOL0     H91303   7.476   0.785   1.035  1.7122 -0.0728 -1.5062
  692MOL0     H91304   7.264   0.563   1.035  0.0683 -0.4886 -1.7878
  692MOL0     H91305   7.375   0.575   0.903 -1.5176 -0.0528 -0.0885
  692MOL0     H91306   7.160   0.471   0.854 -0.7324 -0.4056 -0.1935
  692MOL0     H91307   6.960   0.431   0.743 -0.1450 -0.3241 -1.2464
  692MOL0     H91308   6.613   0.909   0.429 -0.2592  0.4434 -0.4558
  692MOL0     H91309   6.393   0.881   0.307 -0.5450  0.6307  1.3196
  692MOL0     H91310   6.158   0.581   0.439  1.3823  0.4708  0.9567
  692MOL0     H91311   6.183   0.478   0.298  0.4357 -0.0719  0.7845
  692MOL0     H91312   5.985   0.708   0.319 -0.1639  0.2639 -1.8397
  692MOL0     H91313   5.945   0.541   0.320  0.1622 -0.3897  1.3647
  692MOL0     H91314   6.005   0.512   0.085  0.6295  0.2096  1.6611
  692MOL0     H91315   6.022   0.688   0.067 -2.2744 -0.6171 -2.4594
  692MOL0     H91316   5.771   0.595   0.188  2.2012  0.0420  1.6530
  692MOL0     H91317   5.797   0.748   0.122  2.0847  0.8682 -0.3863
  692MOL0     H91318   5.777   0.477  -0.012  4.3370 -0.8193 -2.2265
  692MOL0     H91319   5.857   0.606  -0.106  0.2502 -0.0607 -0.3348
  692MOL0     H91320   5.609   0.588  -0.163  0.0578  0.5056 -0.3276
  692MOL0     H91321   5.637   0.743  -0.066 -1.1934  0.2653  1.2638
  692MOL0     H91322   5.539   0.488   0.056  0.1230  0.8161  1.7874
  692MOL0     H91323   5.556   0.644   0.137 -0.9820  0.6313 -0.0771
  692MOL0     H91324   5.381   0.606  -0.113 -1.9766  1.5126  0.2015
  692MOL0     H91325   5.405   0.747  -0.002  2.7997 -0.2722  1.2424
  692MOL0     H91326   6.370   0.473   0.456  1.9997 -0.6827  2.4227
  692MOL0     H91327   6.572   0.495   0.569 -0.3873  0.7450  2.9911
  692MOL0     H91328   6.918   0.866   0.671 -0.9900  1.1738  0.5421
  692MOL0     H91329   7.103   0.911   0.811  1.7727 -0.6679 -0.0738
  692MOL0     H91330   9.106   0.274   1.293 -0.9204 -0.8243 -0.7905
  692MOL0     H91331   9.342   0.270   1.258  1.4191 -0.4330  0.5600
  692MOL0     H91332   9.728   0.034   1.122 -1.5189  1.4218 -0.9350
  692MOL0     H91333   9.986   0.050   1.091  3.6282 -1.8203  2.5718
  692MOL0     H91334  10.211   0.039   1.131  1.1094  0.8018  0.1446
  692MOL0     H91335  10.172  -0.062   1.274  1.6496 -0.3336  3.5906
  692MOL0     H91336  10.393   0.148   1.273  0.3419  0.1236  0.2856
  692MOL0     H91337  10.362   0.024   1.398  1.9342 -0.0533 -0.0126
  692MOL0     H91338  10.507  -0.015   1.147 -1.1542  0.4147 -1.1610
  692MOL0     H91339  10.383  -0.137   1.197 -1.3524  1.6519  0.9384
  692MOL0     H91340  10.636  -0.036   1.340  0.5831 -1.4458  1.6906
  692MOL0     H91341  10.521  -0.132   1.428  0.8767  0.3978  0.8168
  692MOL0     H91342  10.750  -0.424   1.250  0.0983  0.5136 -0.1422
  692MOL0     H91343  10.001   0.234   1.474  3.1176  1.3397 -2.5909
  692MOL0     H91344   9.768   0.243   1.503  0.0771 -1.2236  0.3223
  693MOL0     O91345   0.488   0.098   9.508  0.2454  0.0449 -0.2275
  693MOL0     C91346   0.530   0.021   9.421 -0.1935 -0.5476  0.8799
  693MOL0     O91347   0.453  -0.071   9.355 -0.6685  0.5005 -0.3178
  693MOL0     C91348   0.326  -0.032   9.347 -0.1620  0.8940 -1.0647
  693MOL0     C91349   0.231  -0.077   9.445 -0.4311  0.9007 -0.4549
  693MOL0     C91350   0.101  -0.035   9.418  0.4479 -0.2853  0.1138
  693MOL0     C91351   0.066   0.057   9.311 -0.5411  0.9840 -0.8975
  693MOL0     O91352  -0.065   0.101   9.284 -0.0348  0.9114  0.5195
  693MOL0     C91353  -0.158   0.119   9.394  0.6638  0.6707 -0.4324
  693MOL0     C91354  -0.293   0.142   9.335 -0.6593 -0.0653  0.0084
  693MOL0     C91355  -0.410   0.170   9.442  0.0906  0.5097 -0.3474
  693MOL0     C91356  -0.545   0.181   9.361  0.4576 -0.1886 -0.1558
  693MOL0     C91357  -0.669   0.208   9.450 -0.7642 -0.1119  0.9290
  693MOL0     C91358  -0.794   0.140   9.387  0.2967 -0.2138 -0.0039
  693MOL0     C91359  -0.910   0.177   9.478  0.1222 -0.0386  0.0364
  693MOL0     C91360  -1.042   0.125   9.425 -0.8540  0.1132  1.1001
  693MOL0     N91361  -1.155   0.152   9.511  0.1319  1.1540 -0.5013
  693MOL0     C91362  -1.259   0.064   9.513  0.7671  0.2784 -0.6289
  693MOL0     C91363  -1.312   0.077   9.636 -0.2090 -0.5097  0.2121
  693MOL0     C91364  -1.441   0.007   9.681  0.3284  0.5318 -0.1777
  693MOL0     C91365  -1.563   0.081   9.622 -0.0938 -1.0910 -0.4175
  693MOL0     C91366  -1.567   0.241   9.647 -0.5300  0.4872 -0.1161
  693MOL0     C91367  -1.709   0.292   9.628  0.5767  0.0730 -0.3614
  693MOL0     O91368  -1.786   0.239   9.728 -0.3140  0.1413 -0.3225
  693MOL0     C91369  -1.923   0.227   9.710  0.0423 -0.7345 -0.1666
  693MOL0     C91370  -1.991   0.175   9.813 -0.0139 -0.0161 -0.4847
  693MOL0     C91371  -2.127   0.157   9.830 -0.4543  0.4190  0.3739
  693MOL0     C91372  -2.208   0.200   9.719  0.7775 -0.4246 -0.2995
  693MOL0     C91373  -2.357   0.190   9.720  0.2982 -0.4839 -0.5924
  693MOL0     O91374  -2.421   0.263   9.622  0.5457 -0.3506 -0.1580
  693MOL0     C91375  -2.550   0.306   9.633 -0.3505  0.1064 -0.9944
  693MOL0     C91376  -2.652   0.275   9.540 -0.2713 -0.0823  0.3918
  693MOL0     C91377  -2.779   0.317   9.556 -0.1795  0.8066 -1.2543
  693MOL0     C91378  -2.821   0.383   9.664 -0.4148 -0.4476 -0.4704
  693MOL0     O91379  -2.957   0.417   9.652  0.3343 -0.2421 -0.3783
  693MOL0     C91380  -3.023   0.456   9.767  0.1697 -0.4640 -0.8124
  693MOL0     C91381  -3.098   0.335   9.817 -0.3985 -0.3235  0.4944
  693MOL0     C91382  -3.197   0.376   9.925  0.3686  0.0484 -0.0815
  693MOL0     C91383  -3.286   0.264   9.975  0.3436 -0.2421 -0.4828
  693MOL0     C91384  -3.341   0.305  10.123  1.0913 -1.3130  0.7185
  693MOL0     C91385  -3.486   0.259  10.140  0.5955 -0.7593  0.0607
  693MOL0     C91386  -3.513   0.106  10.149  0.3972  0.9157 -1.0175
  693MOL0     C91387  -3.662   0.085  10.158  0.0007  0.1605 -0.1228
  693MOL0    Cl91388  -3.735   0.139  10.001  0.0472  0.2802  0.2870
  693MOL0     C91389  -2.724   0.415   9.765  0.0408 -0.1278 -0.5990
  693MOL0     C91390  -2.588   0.382   9.751  0.3864 -0.4900  0.4096
  693MOL0     O91391  -2.422   0.124   9.805  0.2085 -0.1315 -0.0762
  693MOL0     C91392  -2.143   0.266   9.613  0.3019 -0.0162  0.2494
  693MOL0     C91393  -2.003   0.284   9.606 -0.7050  0.8396 -0.0755
  693MOL0     N91394  -1.244   0.177   9.711  0.1451 -0.6277 -0.1551
  693MOL0     N91395  -1.148   0.218   9.631  0.1764 -0.1312 -0.3896
  693MOL0     C91396   0.169   0.102   9.229  0.9314 -0.0047  0.1967
  693MOL0     C91397   0.304   0.063   9.251  0.3109 -0.0620  0.3678
  693MOL0     C91398   0.682   0.025   9.408 -0.6156  0.4879  0.8786
  693MOL0     C91399   0.744  -0.086   9.353  0.5693  0.2613 -0.5049
  693MOL0     C91400   0.884  -0.091   9.345 -0.0938  0.1289 -0.3679
  693MOL0     C91401   0.964   0.004   9.413 -0.3613  0.4058 -0.2030
  693MOL0     O91402   1.097  -0.012   9.413 -0.2112  0.3361 -0.4009
  693MOL0     C91403   1.184   0.083   9.478  0.0590 -0.6225  0.6291
  693MOL0     C91404   1.326   0.070   9.416 -0.2815  0.4860 -0.0109
  693MOL0     C91405   1.427   0.174   9.457 -0.6192 -0.3153 -0.7513
  693MOL0     C91406   1.560   0.167   9.380 -0.7839  0.6002  0.5988
  693MOL0     C91407   1.649   0.278   9.429 -0.3759  0.4623 -1.1928
  693MOL0     C91408   1.720   0.374   9.471 -0.8705  0.0277 -0.3862
  693MOL0     C91409   0.896   0.111   9.467 -0.5241 -0.3139  0.2354
  693MOL0     C91410   0.760   0.127   9.458 -0.2628  0.6893  0.8087
  693MOL0     H91411   0.257  -0.148   9.523 -2.0932  1.5063  0.7354
  693MOL0     H91412   0.016  -0.059   9.482  0.6229 -0.1804  0.3853
  693MOL0     H91413  -0.127   0.196   9.464  2.6171 -0.4302 -0.0099
  693MOL0     H91414  -0.154   0.026   9.452  2.7501  1.7819  1.3445
  693MOL0     H91415  -0.322   0.050   9.284 -0.5471 -0.2328  0.2501
  693MOL0     H91416  -0.307   0.227   9.268 -2.2164 -0.5904 -0.3776
  693MOL0     H91417  -0.397   0.267   9.491 -1.2154  0.8309 -0.5868
  693MOL0     H91418  -0.408   0.092   9.519 -1.4652  0.7678 -0.0205
  693MOL0     H91419  -0.530   0.262   9.289  0.7033 -0.8400 -0.8518
  693MOL0     H91420  -0.545   0.083   9.311 -0.3547 -1.2812  1.8797
  693MOL0     H91421  -0.689   0.316   9.454 -0.5973 -0.0536  0.2484
  693MOL0     H91422  -0.645   0.175   9.552  0.4305  0.5171  0.8727
  693MOL0     H91423  -0.792   0.031   9.383 -1.2756 -0.3084  0.9507
  693MOL0     H91424  -0.813   0.183   9.289  0.2658  1.5391  0.7323
  693MOL0     H91425  -0.898   0.113   9.566  0.7875 -0.5085 -0.3858
  693MOL0     H91426  -0.911   0.279   9.515  1.3050 -0.7839  2.2874
  693MOL0     H91427  -1.032   0.016   9.418 -0.8260  0.1658  0.2489
  693MOL0     H91428  -1.056   0.177   9.330  1.1007 -1.2343  0.0224
  693MOL0     H91429  -1.301  -0.005   9.440 -1.3342  1.1315 -0.2991
  693MOL0     H91430  -1.453   0.000   9.790 -2.1704 -0.5299 -0.4447
  693MOL0     H91431  -1.433  -0.096   9.647 -1.1832  0.7611 -1.3401
  693MOL0     H91432  -1.643   0.047   9.688  0.5832 -2.8864 -0.4537
  693MOL0     H91433  -1.576   0.054   9.516 -0.3631 -0.8414 -0.4501
  693MOL0     H91434  -1.535   0.256   9.751  1.1450  0.0098 -0.5239
  693MOL0     H91435  -1.508   0.301   9.578  1.1952  0.5919  1.3555
  693MOL0     H91436  -1.754   0.255   9.536 -1.3507  2.2761 -0.3746
  693MOL0     H91437  -1.712   0.401   9.625  0.2868  0.0495 -0.9150
  693MOL0     H91438  -1.916   0.163   9.891 -0.7314 -1.0356  0.0617
  693MOL0     H91439  -2.173   0.113   9.918  0.3247  0.2080  0.6866
  693MOL0     H91440  -2.644   0.207   9.456  1.2172  0.3645  0.1337
  693MOL0     H91441  -2.854   0.288   9.484 -0.0237  0.5279 -1.3073
  693MOL0     H91442  -3.087   0.540   9.737  0.2032  0.0588  0.5385
  693MOL0     H91443  -2.956   0.493   9.845  0.0841 -0.3802 -0.7783
  693MOL0     H91444  -3.022   0.267   9.856  1.8096  0.7506 -1.6743
  693MOL0     H91445  -3.151   0.297   9.729  0.5764 -0.7176  0.0601
  693MOL0     H91446  -3.252   0.462   9.885  0.5945  1.4436  2.4394
  693MOL0     H91447  -3.143   0.406  10.015  1.2142 -3.0006  0.5111
  693MOL0     H91448  -3.366   0.241   9.905 -0.2095 -2.6659  0.8174
  693MOL0     H91449  -3.240   0.167   9.997 -0.1089 -1.0682 -2.9150
  693MOL0     H91450  -3.336   0.413  10.142 -1.7290 -1.4671  3.1630
  693MOL0     H91451  -3.282   0.258  10.202  1.3463 -0.5791  0.9679
  693MOL0     H91452  -3.549   0.309  10.067  0.6307  2.2651  1.9279
  693MOL0     H91453  -3.515   0.294  10.240 -0.6657  0.9190 -0.8567
  693MOL0     H91454  -3.471   0.060  10.059  0.6822  0.6034 -0.7294
  693MOL0     H91455  -3.475   0.075  10.246 -0.8092  2.8971  0.1704
  693MOL0     H91456  -3.695   0.157  10.233  3.3789  1.8720 -0.1115
  693MOL0     H91457  -3.685  -0.020  10.180 -0.9323  0.7546  1.9731
  693MOL0     H91458  -2.752   0.482   9.846 -0.6545 -2.0364  0.8052
  693MOL0     H91459  -2.520   0.407   9.832  1.1562  0.6838 -0.5698
  693MOL0     H91460  -2.207   0.291   9.528  1.4049 -0.3220 -0.6856
  693MOL0     H91461  -1.965   0.319   9.510 -0.7353 -2.1794 -1.3078
  693MOL0     H91462   0.149   0.187   9.164 -3.0373  0.5031  1.7931
  693MOL0     H91463   0.382   0.108   9.191  0.0849 -0.9492 -0.6210
  693MOL0     H91464   0.677  -0.166   9.321  0.7853  0.1269 -0.6244
  693MOL0     H91465   0.932  -0.174   9.293  2.2652  2.8364 -2.8470
  693MOL0     H91466   1.188   0.063   9.585  3.2679  1.7756  1.1108
  693MOL0     H91467   1.157   0.189   9.465 -1.4866 -0.9988  0.5285
  693MOL0     H91468   1.365  -0.031   9.428  2.7572  1.4961 -0.5534
  693MOL0     H91469   1.306   0.089   9.310 -0.8244  0.4888  0.0888
  693MOL0     H91470   1.457   0.170   9.562  2.8936 -0.4264 -1.6448
  693MOL0     H91471   1.393   0.277   9.439 -0.5823  0.3633  2.3734
  693MOL0     H91472   1.615   0.074   9.396  1.1524  0.7878 -3.4790
  693MOL0     H91473   1.534   0.173   9.274  1.4846 -0.1698 -0.0719
  693MOL0     H91474   1.769   0.464   9.503  0.6971 -0.5650 -1.0001
  693MOL0     H91475   0.944   0.188   9.527  0.4271 -1.5898  1.1898
  693MOL0     H91476   0.722   0.223   9.489  1.6007  2.0881 -0.9490
  694MOL0     O91477   3.482   0.539   4.354 -0.3720 -1.0070  0.0269
  694MOL0     C91478   3.485   0.643   4.289  0.1306  0.1934  0.3041
  694MOL0     O91479   3.377   0.720   4.258  0.0408 -0.6879  0.5832
  694MOL0     C91480   3.261   0.660   4.272  0.5719 -0.7521  0.8943
  694MOL0     C91481   3.211   0.629   4.395  0.9095 -0.7534 -0.9515
  694MOL0     C91482   3.102   0.538   4.406  0.3748 -1.0457 -0.1309
  694MOL0     C91483   3.035   0.488   4.293 -0.6100 -0.0701  0.3265
  694MOL0     O91484   2.935   0.398   4.286 -0.7235  0.4549  0.0303
  694MOL0     C91485   2.840   0.395   4.399 -0.7654 -0.2966 -0.7843
  694MOL0     C91486   2.711   0.342   4.340  0.1575  0.2489  0.0648
  694MOL0     C91487   2.650   0.442   4.242 -0.5139  0.5923 -0.7122
  694MOL0     C91488   2.502   0.385   4.240  0.1669  0.7534  0.6153
  694MOL0     C91489   2.430   0.434   4.119  0.5056 -0.9915  0.6458
  694MOL0     C91490   2.278   0.394   4.130 -0.1622  0.6766  0.4169
  694MOL0     C91491   2.249   0.246   4.136 -0.6421  0.2260 -0.5836
  694MOL0     C91492   2.284   0.154   4.014 -0.2607 -0.2668 -0.5789
  694MOL0     N91493   2.254   0.018   4.055 -0.5690 -0.0238 -0.1239
  694MOL0     C91494   2.339  -0.053   4.131 -0.1645  0.6130 -1.0884
  694MOL0     C91495   2.285  -0.173   4.164  0.3250  0.2885 -0.4330
  694MOL0     C91496   2.353  -0.282   4.245 -0.4497 -0.0771 -0.3255
  694MOL0     C91497   2.283  -0.344   4.364  0.7738  0.4366  0.2374
  694MOL0     C91498   2.222  -0.472   4.319 -0.2835 -0.1683 -0.1001
  694MOL0     C91499   2.119  -0.518   4.426  0.3996  0.3262 -0.5204
  694MOL0     O91500   2.069  -0.642   4.378 -0.3448 -0.2052  0.5348
  694MOL0     C91501   1.945  -0.694   4.410  0.6474  0.0193  0.0879
  694MOL0     C91502   1.844  -0.626   4.494 -0.2518 -0.0098  1.1034
  694MOL0     C91503   1.725  -0.689   4.528  0.6100  0.7772 -0.2549
  694MOL0     C91504   1.701  -0.818   4.482  0.2747  0.5292 -0.1218
  694MOL0     C91505   1.570  -0.886   4.507 -0.1020 -0.4476  0.1951
  694MOL0     O91506   1.471  -0.821   4.575  0.9086  0.0190 -0.7933
  694MOL0     C91507   1.335  -0.860   4.592 -0.5178 -0.1156  0.5077
  694MOL0     C91508   1.258  -0.792   4.680 -0.2627 -0.7656  0.2640
  694MOL0     C91509   1.122  -0.817   4.704 -0.3276  0.5092 -0.2277
  694MOL0     C91510   1.062  -0.909   4.622 -0.2443 -0.2687  0.1391
  694MOL0     O91511   0.925  -0.908   4.654 -0.5227  0.4159 -0.3689
  694MOL0     C91512   0.857  -1.032   4.624 -0.2684 -0.0479  0.0999
  694MOL0     C91513   0.719  -1.047   4.695 -0.5733  0.0195  0.2507
  694MOL0     C91514   0.731  -1.052   4.848 -0.7349 -0.9911 -0.0215
  694MOL0     C91515   0.605  -1.088   4.931  0.5342 -0.1861 -0.2453
  694MOL0     C91516   0.632  -1.151   5.067  0.6620  0.1285 -0.2515
  694MOL0     C91517   0.498  -1.192   5.135  0.1948  0.8895 -0.1234
  694MOL0     C91518   0.435  -1.315   5.065 -0.4685  0.8590 -0.2352
  694MOL0     C91519   0.534  -1.439   5.074  0.0584 -0.5584  0.0486
  694MOL0    Cl91520   0.607  -1.461   5.244 -0.0599 -0.1476  0.1186
  694MOL0     C91521   1.138  -0.981   4.530  0.4465 -0.6214  0.1332
  694MOL0     C91522   1.272  -0.958   4.511 -0.7300 -0.5602 -0.1330
  694MOL0     O91523   1.568  -0.999   4.466  0.4075  0.4305  0.2443
  694MOL0     C91524   1.804  -0.881   4.397  0.1693  0.4225 -0.2847
  694MOL0     C91525   1.928  -0.821   4.364  0.2755  0.3131 -0.3654
  694MOL0     N91526   2.168  -0.174   4.101  0.5266  0.0929  0.1703
  694MOL0     N91527   2.141  -0.057   4.049 -0.1986 -0.3698 -0.0834
  694MOL0     C91528   3.079   0.531   4.167  0.6955 -0.5094  0.1522
  694MOL0     C91529   3.199   0.609   4.163  0.6621 -0.3227 -0.1460
  694MOL0     C91530   3.613   0.685   4.245  0.1133  0.0194 -0.2142
  694MOL0     C91531   3.739   0.653   4.302 -0.3138 -0.1081  0.3469
  694MOL0     C91532   3.849   0.721   4.258 -0.3042  0.6931  0.8954
  694MOL0     C91533   3.850   0.803   4.144 -0.0874  0.7941  0.0701
  694MOL0     O91534   3.964   0.868   4.111  0.0762 -0.4279  0.3184
  694MOL0     C91535   3.958   0.962   4.000 -0.0003  0.1641  0.0114
  694MOL0     C91536   4.087   1.035   3.987 -0.3355  0.9472 -0.3914
  694MOL0     C91537   4.208   0.942   3.999 -1.0060  0.6054  0.1488
  694MOL0     C91538   4.348   1.022   3.991  0.1552 -0.0336 -1.2607
  694MOL0     C91539   4.369   1.080   3.857  0.2699 -0.7101 -0.1746
  694MOL0     C91540   4.389   1.132   3.744  0.2093  0.4272 -0.7513
  694MOL0     C91541   3.730   0.823   4.071 -0.5896 -0.5330 -0.6663
  694MOL0     C91542   3.611   0.769   4.124 -0.1853 -0.2993  0.7774
  694MOL0     H91543   3.275   0.657   4.478  1.2265 -3.3229 -0.2257
  694MOL0     H91544   3.055   0.498   4.496 -1.4118 -0.7243 -0.8754
  694MOL0     H91545   2.824   0.501   4.417 -1.3419 -0.5444  0.2550
  694MOL0     H91546   2.876   0.350   4.492 -1.0779  1.2179  0.0840
  694MOL0     H91547   2.639   0.320   4.420  2.7749  0.7286  2.7115
  694MOL0     H91548   2.725   0.252   4.281  1.1331  0.3259  0.1673
  694MOL0     H91549   2.712   0.432   4.152  0.9784 -0.7691  0.4135
  694MOL0     H91550   2.650   0.546   4.277  3.0495  0.6527 -0.5098
  694MOL0     H91551   2.500   0.278   4.219 -0.0817  1.2308 -2.3605
  694MOL0     H91552   2.452   0.412   4.333  0.3780  3.2562  0.0775
  694MOL0     H91553   2.469   0.395   4.025 -4.1173  0.5327 -2.2128
  694MOL0     H91554   2.438   0.542   4.110  1.7318 -1.1722 -0.7444
  694MOL0     H91555   2.228   0.434   4.041  0.0558  2.2662  0.9748
  694MOL0     H91556   2.230   0.446   4.214  2.4727  3.5193  0.3645
  694MOL0     H91557   2.306   0.203   4.219  0.9246  1.6285 -0.8809
  694MOL0     H91558   2.141   0.243   4.151 -0.9418  4.0954 -0.9624
  694MOL0     H91559   2.391   0.148   3.994 -0.3910 -1.7206 -1.0304
  694MOL0     H91560   2.222   0.187   3.929 -0.4876  0.8441  0.0124
  694MOL0     H91561   2.440  -0.031   4.165 -0.0506 -3.0619  1.5286
  694MOL0     H91562   2.455  -0.246   4.263  0.5976 -1.6487 -2.5832
  694MOL0     H91563   2.378  -0.373   4.189 -0.3656 -0.2141 -0.0698
  694MOL0     H91564   2.199  -0.280   4.394  0.6229 -0.5141  1.9502
  694MOL0     H91565   2.343  -0.355   4.455  0.1687 -0.7391  0.5202
  694MOL0     H91566   2.164  -0.447   4.229 -2.1995  1.3369  1.4485
  694MOL0     H91567   2.300  -0.546   4.301 -1.0945 -0.4547 -3.0684
  694MOL0     H91568   2.039  -0.447   4.448 -1.3470 -1.9581  1.0957
  694MOL0     H91569   2.173  -0.530   4.521  2.2463  0.2709 -1.5323
  694MOL0     H91570   1.852  -0.532   4.547  0.7907  0.6770 -0.2069
  694MOL0     H91571   1.652  -0.633   4.586  0.5559 -0.5502  1.0169
  694MOL0     H91572   1.314  -0.720   4.740  1.2164 -1.5612 -0.1283
  694MOL0     H91573   1.066  -0.773   4.786 -0.3094  0.6234 -0.2764
  694MOL0     H91574   0.927  -1.110   4.653 -2.4835 -2.6762 -1.1930
  694MOL0     H91575   0.836  -1.045   4.517  0.3660 -1.7586  0.1674
  694MOL0     H91576   0.669  -1.137   4.659 -1.1465  0.2812  0.3875
  694MOL0     H91577   0.657  -0.959   4.675 -0.0891  0.7007  1.5993
  694MOL0     H91578   0.767  -0.953   4.879  1.1038 -1.9155  0.9840
  694MOL0     H91579   0.810  -1.123   4.873 -0.9577 -0.6283  1.8982
  694MOL0     H91580   0.547  -0.996   4.947 -1.8143 -1.9895  2.4888
  694MOL0     H91581   0.538  -1.154   4.876 -0.6000  0.7609 -0.0447
  694MOL0     H91582   0.685  -1.079   5.130 -0.0142  0.3213  0.1073
  694MOL0     H91583   0.700  -1.237   5.066 -0.5266 -0.8422 -2.3541
  694MOL0     H91584   0.425  -1.115   5.109  0.3582  0.1843 -2.9697
  694MOL0     H91585   0.491  -1.207   5.243 -1.7704 -2.3597 -0.5816
  694MOL0     H91586   0.341  -1.338   5.116 -0.5448 -1.2826 -1.2282
  694MOL0     H91587   0.403  -1.289   4.964  3.0911  2.9996 -0.9838
  694MOL0     H91588   0.625  -1.430   5.013  0.6622 -3.1532  0.4177
  694MOL0     H91589   0.496  -1.538   5.045  0.6407 -0.4793 -1.0637
  694MOL0     H91590   1.099  -1.053   4.459  0.0002 -0.6308  0.3790
  694MOL0     H91591   1.322  -1.013   4.432  0.5778 -1.1754  1.0740
  694MOL0     H91592   1.776  -0.977   4.354 -1.3968  1.3840 -1.5475
  694MOL0     H91593   1.998  -0.875   4.301 -0.5736 -0.5617 -0.5819
  694MOL0     H91594   3.037   0.483   4.079  2.2324  0.0238 -0.9165
  694MOL0     H91595   3.253   0.629   4.071  0.7146  1.0875  0.1655
  694MOL0     H91596   3.749   0.581   4.382  0.3409  1.9183  2.1882
  694MOL0     H91597   3.946   0.706   4.306  1.5990  1.6254 -2.3643
  694MOL0     H91598   3.888   1.043   4.022 -0.2993  0.5261 -2.0748
  694MOL0     H91599   3.921   0.909   3.912 -2.3493 -1.9820  2.1437
  694MOL0     H91600   4.087   1.103   3.901 -0.4243  0.0412 -1.1210
  694MOL0     H91601   4.099   1.102   4.073  0.4063 -1.3661  1.4231
  694MOL0     H91602   4.209   0.856   3.932 -2.5400 -0.4654  1.4283
  694MOL0     H91603   4.203   0.905   4.101 -0.3446  0.6413  0.1997
  694MOL0     H91604   4.338   1.104   4.062  0.6834  0.1285 -1.3661
  694MOL0     H91605   4.432   0.958   4.018  0.5936  1.3418  0.8443
  694MOL0     H91606   4.390   1.167   3.643 -0.1539  0.6187 -0.6907
  694MOL0     H91607   3.720   0.880   3.979 -0.4799 -0.4573 -0.6322
  694MOL0     H91608   3.518   0.793   4.073 -0.0857  0.6576  1.0233
  695MOL0     O91609   7.640   1.509  10.603  0.9765  0.3308 -0.0545
  695MOL0     C91610   7.590   1.414  10.662 -0.8034  0.1468  0.1925
  695MOL0     O91611   7.660   1.314  10.724 -0.3523  0.2357  0.1463
  695MOL0     C91612   7.799   1.316  10.715  0.0883 -0.1979 -0.2084
  695MOL0     C91613   7.891   1.412  10.777  0.3763  0.0390  0.2551
  695MOL0     C91614   8.026   1.392  10.779 -0.5769 -1.2581  1.3707
  695MOL0     C91615   8.085   1.279  10.715  0.2605 -0.9001 -0.5415
  695MOL0     O91616   8.217   1.244  10.730 -0.7131 -0.0736  0.3764
  695MOL0     C91617   8.307   1.331  10.803 -0.5704 -0.3938  0.1809
  695MOL0     C91618   8.458   1.281  10.789  0.8480 -0.5768 -0.3919
  695MOL0     C91619   8.555   1.395  10.824 -0.0889  0.2366  0.5633
  695MOL0     C91620   8.694   1.350  10.776 -1.3595  0.1619 -0.5373
  695MOL0     C91621   8.804   1.440  10.818 -0.7256 -0.9150 -0.1713
  695MOL0     C91622   8.801   1.575  10.756  0.3050 -0.5018 -0.1426
  695MOL0     C91623   8.909   1.664  10.796 -0.3041 -0.5896 -0.0186
  695MOL0     C91624   9.034   1.641  10.714 -0.4540  0.2546 -0.5797
  695MOL0     N91625   9.152   1.720  10.753 -0.6007 -0.0347 -0.2563
  695MOL0     C91626   9.267   1.724  10.680 -0.5408  0.9546  0.2272
  695MOL0     C91627   9.333   1.831  10.714  1.2125  0.4983  0.2166
  695MOL0     C91628   9.453   1.893  10.639 -0.5970 -0.1508 -0.0007
  695MOL0     C91629   9.541   1.975  10.741  0.1447 -0.2067  0.5188
  695MOL0     C91630   9.652   2.041  10.659  0.3973 -0.1360 -0.0157
  695MOL0     C91631   9.778   2.093  10.730  0.1974 -0.4483  0.5729
  695MOL0     O91632   9.868   1.982  10.756 -0.5859  0.5487  0.5988
  695MOL0     C91633  10.002   2.016  10.788  0.2295  0.0945 -0.5362
  695MOL0     C91634  10.039   2.129  10.856  0.4647 -0.1670 -0.4615
  695MOL0     C91635  10.173   2.151  10.902  0.5950  0.2229  0.4903
  695MOL0     C91636  10.272   2.047  10.882  0.1808  0.2234  0.4116
  695MOL0     C91637  10.412   2.057  10.920 -0.0616 -0.5671  0.1247
  695MOL0     O91638  10.500   1.955  10.889  0.1673 -1.1195 -0.0346
  695MOL0     C91639  10.633   1.958  10.919 -0.3344  0.1227 -0.2739
  695MOL0     C91640  10.704   1.858  10.852  1.0104 -0.7066  0.2466
  695MOL0     C91641  10.844   1.840  10.870 -0.2755  0.5755 -0.1933
  695MOL0     C91642  10.916   1.937  10.935 -0.6376  0.2797 -0.8754
  695MOL0     O91643  11.049   1.912  10.938 -0.2235  0.3316  0.1025
  695MOL0     C91644  11.118   1.957  11.056  0.6472 -0.6355  0.2498
  695MOL0     C91645  11.253   1.901  11.067  0.4253 -0.0278 -0.0515
  695MOL0     C91646  11.269   1.753  11.113  0.0726  0.2426  0.7703
  695MOL0     C91647  11.422   1.718  11.118  0.2458  0.3473  0.2078
  695MOL0     C91648  11.419   1.572  11.147  0.1847  1.1612  0.0453
  695MOL0     C91649  11.555   1.510  11.143 -0.6976  0.2822 -0.0700
  695MOL0     C91650  11.555   1.359  11.163  0.0826  0.1971 -0.3102
  695MOL0     C91651  11.668   1.297  11.086  0.0240 -0.3602  0.2318
  695MOL0    Cl91652  11.765   1.199  11.195  0.1553  0.1004  0.5631
  695MOL0     C91653  10.842   2.040  10.998  0.3713 -0.1520  0.9243
  695MOL0     C91654  10.703   2.049  10.998 -0.2547  0.5538 -0.2992
  695MOL0     O91655  10.443   2.173  10.947 -1.0025 -0.3905 -0.1116
  695MOL0     C91656  10.236   1.940  10.804  0.9161 -0.4445 -0.0831
  695MOL0     C91657  10.101   1.920  10.756  0.6383 -1.2033 -0.5379
  695MOL0     N91658   9.263   1.890  10.816 -0.2141  0.3379  0.6553
  695MOL0     N91659   9.158   1.822  10.849  0.4608  0.3846  0.3765
  695MOL0     C91660   7.993   1.188  10.649 -0.1737 -0.4608  0.0719
  695MOL0     C91661   7.859   1.217  10.641 -0.1642  0.3497 -0.4065
  695MOL0     C91662   7.448   1.380  10.633  0.4311 -0.1485 -0.2078
  695MOL0     C91663   7.387   1.255  10.674  1.2290  0.1941 -0.5686
  695MOL0     C91664   7.261   1.226  10.631  0.9268  0.1716  0.7452
  695MOL0     C91665   7.189   1.303  10.530 -0.0281  0.3957  0.0722
  695MOL0     O91666   7.075   1.264  10.462  0.1774 -0.0650 -0.1037
  695MOL0     C91667   7.027   1.130  10.460  0.2008 -0.3041 -0.5691
  695MOL0     C91668   6.883   1.109  10.495 -0.0004  0.2926  0.5558
  695MOL0     C91669   6.844   1.167  10.630 -0.7646  0.1767 -0.4630
  695MOL0     C91670   6.721   1.108  10.692 -0.9238 -0.3606 -0.4270
  695MOL0     C91671   6.592   1.124  10.630 -0.5280  0.0235 -0.2442
  695MOL0     C91672   6.482   1.132  10.585  0.5320  0.6924 -0.0744
  695MOL0     C91673   7.251   1.423  10.502  0.5402 -0.0073  0.4911
  695MOL0     C91674   7.365   1.463  10.554 -0.0078  0.7979 -0.5534
  695MOL0     H91675   7.859   1.499  10.833  3.8212  0.9365  1.0447
  695MOL0     H91676   8.088   1.461  10.836 -0.3036 -0.9607  0.7134
  695MOL0     H91677   8.276   1.320  10.908  2.4343 -0.3014  1.1532
  695MOL0     H91678   8.286   1.437  10.784  2.0621  0.4207  1.3664
  695MOL0     H91679   8.472   1.235  10.691  1.6471 -3.5760  1.0250
  695MOL0     H91680   8.466   1.205  10.867 -2.6417  0.2572  0.9753
  695MOL0     H91681   8.554   1.404  10.933 -2.2539  2.6304  0.4141
  695MOL0     H91682   8.529   1.486  10.769  0.7808 -0.0626 -0.3764
  695MOL0     H91683   8.719   1.252  10.817 -0.3265  0.4627 -0.4240
  695MOL0     H91684   8.700   1.337  10.668  1.6441 -4.5698 -0.0862
  695MOL0     H91685   8.897   1.390  10.790 -1.6423 -2.8047  0.0046
  695MOL0     H91686   8.791   1.451  10.926  0.6754  0.3617 -0.1019
  695MOL0     H91687   8.716   1.634  10.790 -1.0239 -2.3401 -0.1240
  695MOL0     H91688   8.796   1.567  10.647  3.5849  3.0122 -0.7698
  695MOL0     H91689   8.877   1.769  10.791 -0.1339 -0.5090  0.4835
  695MOL0     H91690   8.940   1.651  10.900 -1.5868  1.8289  0.7570
  695MOL0     H91691   9.010   1.658  10.608  0.9192  1.5063 -0.7332
  695MOL0     H91692   9.064   1.537  10.734  0.6973  0.7726  0.4893
  695MOL0     H91693   9.295   1.663  10.595  0.7634  1.9826 -0.0966
  695MOL0     H91694   9.404   1.954  10.562 -3.3475  0.2200  1.9132
  695MOL0     H91695   9.514   1.815  10.592  0.2336 -1.0924  2.4764
  695MOL0     H91696   9.592   1.920  10.820  1.0359  0.6390  0.5505
  695MOL0     H91697   9.484   2.059  10.783  2.1511  0.3309  2.3534
  695MOL0     H91698   9.679   1.972  10.579 -1.9450 -1.2784  0.0877
  695MOL0     H91699   9.609   2.134  10.622  2.5273  1.2611  0.8672
  695MOL0     H91700   9.747   2.150  10.818  2.5902  1.8959  0.0283
  695MOL0     H91701   9.827   2.164  10.662 -1.3598 -0.6802 -0.8525
  695MOL0     H91702   9.965   2.206  10.868  1.6582  0.9827 -0.2426
  695MOL0     H91703  10.191   2.247  10.949 -3.3185  1.1706  0.3988
  695MOL0     H91704  10.640   1.778  10.815 -2.5957  2.8123 -2.0764
  695MOL0     H91705  10.895   1.752  10.833  1.7055  1.5035  0.2217
  695MOL0     H91706  11.062   1.918  11.142 -1.8757  0.4027 -0.8468
  695MOL0     H91707  11.116   2.066  11.043 -2.3100 -0.6786 -0.4135
  695MOL0     H91708  11.302   1.960  11.144 -0.8215  1.3134 -0.2387
  695MOL0     H91709  11.292   1.917  10.966  2.1626 -2.3644  0.1742
  695MOL0     H91710  11.216   1.682  11.049 -0.9289  1.1789  0.5153
  695MOL0     H91711  11.229   1.741  11.214  0.6488  2.7943  1.3828
  695MOL0     H91712  11.476   1.736  11.024 -0.5550  1.9282  0.0195
  695MOL0     H91713  11.478   1.770  11.197  2.1261  0.3632 -1.0664
  695MOL0     H91714  11.351   1.525  11.076  1.2449  3.0399 -2.3361
  695MOL0     H91715  11.375   1.557  11.247  0.3839  0.1483 -0.0104
  695MOL0     H91716  11.619   1.550  11.222  1.1592  0.3361 -1.5299
  695MOL0     H91717  11.604   1.530  11.048  0.7829  2.0393  1.0188
  695MOL0     H91718  11.583   1.346  11.268 -0.7105  0.6924 -0.0232
  695MOL0     H91719  11.462   1.305  11.146  0.5303 -1.0353  0.9958
  695MOL0     H91720  11.723   1.366  11.021 -1.0730  1.0842  0.7876
  695MOL0     H91721  11.626   1.228  11.012 -0.9248  0.2780  0.1633
  695MOL0     H91722  10.892   2.120  11.052 -1.2000  1.5621 -0.0821
  695MOL0     H91723  10.655   2.130  11.052  0.4549  0.0871  1.0863
  695MOL0     H91724  10.308   1.863  10.779 -1.1496 -2.0147 -1.5507
  695MOL0     H91725  10.064   1.829  10.710 -0.7282 -1.0273  0.1648
  695MOL0     H91726   8.029   1.094  10.608  0.0879 -0.4346  0.2335
  695MOL0     H91727   7.788   1.150  10.594 -2.5509 -0.0645  3.3659
  695MOL0     H91728   7.436   1.183  10.738 -1.9448 -1.6338  0.0291
  695MOL0     H91729   7.225   1.130  10.666  2.8338 -0.6515  0.5203
  695MOL0     H91730   7.085   1.079  10.538 -1.2584  1.1521  1.5860
  695MOL0     H91731   7.054   1.091  10.361  1.0596  3.1887 -1.8436
  695MOL0     H91732   6.829   1.162  10.416 -1.5207  1.9111  2.5802
  695MOL0     H91733   6.860   1.002  10.494  0.4394  0.0369  4.2847
  695MOL0     H91734   6.828   1.274  10.613 -2.3974 -0.4612 -3.7288
  695MOL0     H91735   6.924   1.142  10.700 -0.9585  1.5697  0.3054
  695MOL0     H91736   6.754   1.007  10.716  0.5735  0.5938  1.9000
  695MOL0     H91737   6.717   1.147  10.794  1.3391  0.0446 -0.4320
  695MOL0     H91738   6.378   1.126  10.559  0.3495  0.4031  0.7050
  695MOL0     H91739   7.209   1.493  10.430  1.3254 -0.2008 -0.1750
  695MOL0     H91740   7.397   1.563  10.526  0.7347  1.0383  1.0245
  696MOL0     O91741   1.861   4.071   9.749  0.0579  0.5848  0.0076
  696MOL0     C91742   1.829   4.147   9.842  0.0367  0.2427 -0.0287
  696MOL0     O91743   1.699   4.187   9.874 -0.0442 -0.3631  0.0231
  696MOL0     C91744   1.583   4.157   9.809  0.2741  0.1613  0.8651
  696MOL0     C91745   1.476   4.226   9.828  0.0118  0.8814 -0.4762
  696MOL0     C91746   1.350   4.189   9.772  0.3269  0.0275  0.2286
  696MOL0     C91747   1.346   4.087   9.676  0.0206  0.1046 -0.0308
  696MOL0     O91748   1.230   4.047   9.618  0.3043 -0.5390 -0.1869
  696MOL0     C91749   1.166   4.156   9.541 -0.2168 -0.3203  0.1587
  696MOL0     C91750   1.096   4.102   9.420  0.5574 -0.5548 -0.8508
  696MOL0     C91751   0.973   4.175   9.383  0.4660 -0.7299  0.8059
  696MOL0     C91752   0.887   4.094   9.297 -0.2636  0.8235  0.6380
  696MOL0     C91753   0.767   4.162   9.228  0.6373 -0.0332  0.7167
  696MOL0     C91754   0.664   4.215   9.337 -0.8006 -1.2508 -1.0690
  696MOL0     C91755   0.565   4.314   9.269 -0.3100 -0.8005  0.0666
  696MOL0     C91756   0.449   4.233   9.209  0.2175  0.6477 -0.0430
  696MOL0     N91757   0.397   4.314   9.098  0.5952 -1.0328 -0.3919
  696MOL0     C91758   0.323   4.430   9.112 -0.4916 -0.5002 -0.8744
  696MOL0     C91759   0.303   4.479   8.993 -0.5103  0.0172  0.9384
  696MOL0     C91760   0.238   4.611   8.956  0.3268  0.8915 -0.4349
  696MOL0     C91761   0.087   4.603   8.978 -1.1050  0.6646  0.3632
  696MOL0     C91762   0.011   4.715   8.912 -0.3685 -0.2127 -0.2069
  696MOL0     C91763  -0.139   4.694   8.932  0.0436 -0.3793  0.1854
  696MOL0     O91764  -0.190   4.597   8.846  1.3446 -0.2486  0.7481
  696MOL0     C91765  -0.321   4.592   8.826  1.0382 -0.3795  0.0112
  696MOL0     C91766  -0.376   4.538   8.713 -0.4069  0.6051  0.5316
  696MOL0     C91767  -0.518   4.528   8.699  0.3948 -0.7464 -0.7404
  696MOL0     C91768  -0.611   4.585   8.792  0.0379 -0.1977 -0.5677
  696MOL0     C91769  -0.763   4.588   8.795 -1.2786 -0.3312  0.5046
  696MOL0     O91770  -0.826   4.615   8.909 -0.4052  0.2592 -0.2562
  696MOL0     C91771  -0.955   4.593   8.905  0.0181 -0.0544  0.1944
  696MOL0     C91772  -1.004   4.464   8.937  0.1970  0.1573  0.5468
  696MOL0     C91773  -1.138   4.439   8.955  0.3988 -0.1284 -0.1514
  696MOL0     C91774  -1.230   4.543   8.936  0.1832  0.2203 -1.1193
  696MOL0     O91775  -1.369   4.543   8.953  0.6584 -0.0013  0.2129
  696MOL0     C91776  -1.445   4.427   8.930  0.2945  0.4166  0.2814
  696MOL0     C91777  -1.588   4.450   8.981  0.0822 -0.5636  0.3215
  696MOL0     C91778  -1.683   4.332   8.931 -0.3249  0.1648  0.5965
  696MOL0     C91779  -1.818   4.318   9.003 -0.2415 -0.3543 -0.2525
  696MOL0     C91780  -1.892   4.201   8.932  0.3884 -0.1816  0.4805
  696MOL0     C91781  -1.822   4.059   8.937  0.1441  0.4512 -0.2160
  696MOL0     C91782  -1.900   3.950   8.858 -0.4121  0.0163  0.5408
  696MOL0     C91783  -1.847   3.800   8.878  0.3430  0.0681 -0.8422
  696MOL0    Cl91784  -1.948   3.693   8.779  0.0880 -0.0058 -0.1217
  696MOL0     C91785  -1.188   4.671   8.903 -0.5749  0.8960  0.5011
  696MOL0     C91786  -1.048   4.690   8.878  0.2381 -0.2088 -0.4299
  696MOL0     O91787  -0.814   4.555   8.691 -0.4937 -0.4781 -0.3363
  696MOL0     C91788  -0.554   4.652   8.901 -0.9993  0.2778  0.5986
  696MOL0     C91789  -0.413   4.652   8.914  0.1021  0.2398  0.2215
  696MOL0     N91790   0.373   4.391   8.908  0.3036 -0.7448  0.3439
  696MOL0     N91791   0.428   4.300   8.969 -0.1227  0.3562  0.3930
  696MOL0     C91792   1.457   4.005   9.670 -0.9800 -0.4510  0.8504
  696MOL0     C91793   1.575   4.043   9.730 -0.4510 -0.1396  0.3186
  696MOL0     C91794   1.940   4.206   9.921 -0.0105 -0.3965  0.6768
  696MOL0     C91795   2.073   4.169   9.896  0.2954 -0.6246 -0.1819
  696MOL0     C91796   2.181   4.207   9.977  0.0899 -0.6740  0.4026
  696MOL0     C91797   2.152   4.303  10.074  0.3170  0.1761 -1.2441
  696MOL0     O91798   2.257   4.346  10.154 -0.4090  0.0716 -0.4129
  696MOL0     C91799   2.320   4.251  10.242 -0.7342 -0.6390  0.6078
  696MOL0     C91800   2.449   4.203  10.186 -0.2108 -0.3407 -0.3269
  696MOL0     C91801   2.536   4.321  10.139 -0.1849 -0.8354  0.2929
  696MOL0     C91802   2.673   4.266  10.087  0.9869 -0.3894 -0.5447
  696MOL0     C91803   2.763   4.377  10.060  0.2137  0.0707  0.0766
  696MOL0     C91804   2.823   4.466  10.016  0.1592  0.2064 -0.2876
  696MOL0     C91805   2.022   4.355  10.094 -0.0232  0.7266 -0.7991
  696MOL0     C91806   1.918   4.308  10.018  0.5507 -0.3959  0.7435
  696MOL0     H91807   1.475   4.308   9.899  0.9773 -0.2502  0.8996
  696MOL0     H91808   1.258   4.245   9.789 -0.4753 -0.7693 -1.2412
  696MOL0     H91809   1.230   4.240   9.512 -2.4564  1.5582  0.2708
  696MOL0     H91810   1.086   4.204   9.599 -1.1828  0.4949 -1.7564
  696MOL0     H91811   1.070   3.998   9.440  0.5630  0.1230  3.8029
  696MOL0     H91812   1.165   4.104   9.335  0.0753 -1.6650 -1.2864
  696MOL0     H91813   1.000   4.263   9.324 -1.5941  0.4351  1.4596
  696MOL0     H91814   0.938   4.230   9.471  3.2287  1.0517  0.9161
  696MOL0     H91815   0.948   4.059   9.213 -0.5258 -2.2450  1.6135
  696MOL0     H91816   0.855   4.009   9.357 -0.5833  1.0244  0.7580
  696MOL0     H91817   0.722   4.089   9.160  1.6015  0.9523 -1.0628
  696MOL0     H91818   0.799   4.242   9.160 -0.5300 -1.5091 -1.7131
  696MOL0     H91819   0.724   4.274   9.407 -0.9950 -1.1722 -0.9689
  696MOL0     H91820   0.620   4.135   9.398  2.8109 -2.6133  0.0174
  696MOL0     H91821   0.518   4.381   9.342  0.5752  0.1187 -0.1929
  696MOL0     H91822   0.610   4.380   9.195 -1.5359 -1.3606 -1.2351
  696MOL0     H91823   0.366   4.211   9.276 -0.7964 -2.4143 -2.0764
  696MOL0     H91824   0.488   4.133   9.185  0.4343 -0.2774  3.5694
  696MOL0     H91825   0.290   4.479   9.203 -2.8542 -1.4989 -1.1323
  696MOL0     H91826   0.272   4.622   8.853  0.5086 -0.9451 -0.6118
  696MOL0     H91827   0.262   4.699   9.016 -0.8856  2.8719 -2.7330
  696MOL0     H91828   0.058   4.599   9.083  0.4635 -2.6094  0.7909
  696MOL0     H91829   0.050   4.512   8.931 -1.4051  2.0022 -2.2236
  696MOL0     H91830   0.039   4.798   8.978  0.6873 -0.8261  0.1634
  696MOL0     H91831   0.043   4.726   8.808 -0.8667 -0.5245 -0.3978
  696MOL0     H91832  -0.188   4.785   8.897 -0.5624  0.7707  3.6352
  696MOL0     H91833  -0.156   4.680   9.040  0.3890  0.8883  0.4271
  696MOL0     H91834  -0.316   4.506   8.628 -1.5005  0.5318 -0.2442
  696MOL0     H91835  -0.561   4.482   8.611  1.1750 -0.0797 -1.4778
  696MOL0     H91836  -0.928   4.395   8.972  0.3272 -0.3011 -0.5806
  696MOL0     H91837  -1.171   4.341   8.987 -2.0353  0.9084  0.7036
  696MOL0     H91838  -1.402   4.341   8.982 -0.3684  0.8291  1.5469
  696MOL0     H91839  -1.457   4.417   8.822  0.9833 -0.4659  0.2677
  696MOL0     H91840  -1.633   4.540   8.937  0.0427 -1.2220 -1.0609
  696MOL0     H91841  -1.600   4.471   9.087  2.7355 -1.7890  0.9541
  696MOL0     H91842  -1.622   4.242   8.942 -1.3090 -1.0705 -2.6919
  696MOL0     H91843  -1.706   4.353   8.826 -1.6666  1.4121  1.0883
  696MOL0     H91844  -1.807   4.290   9.108 -2.5016  0.7178  0.3335
  696MOL0     H91845  -1.865   4.416   9.017  0.2090 -0.1361 -0.2454
  696MOL0     H91846  -1.916   4.232   8.830  1.3060 -0.8759  0.0486
  696MOL0     H91847  -1.984   4.188   8.990  0.0020  0.0755 -0.0713
  696MOL0     H91848  -1.810   4.034   9.043 -0.8884 -0.5697 -0.3265
  696MOL0     H91849  -1.720   4.066   8.897 -0.0160  0.6656 -0.6019
  696MOL0     H91850  -2.006   3.955   8.886 -0.6213  1.7886 -0.4126
  696MOL0     H91851  -1.882   3.990   8.758 -0.2701  0.2969  0.6756
  696MOL0     H91852  -1.857   3.772   8.983  1.0818 -0.7925 -0.9906
  696MOL0     H91853  -1.741   3.800   8.854  0.4496 -0.8062 -0.3906
  696MOL0     H91854  -1.254   4.757   8.900  0.3530  1.6311  0.9184
  696MOL0     H91855  -1.017   4.792   8.858  1.4785 -0.5884 -0.5642
  696MOL0     H91856  -0.611   4.709   8.973  1.5547  1.6214  1.6695
  696MOL0     H91857  -0.377   4.705   9.001  4.1650 -0.0793 -1.0341
  696MOL0     H91858   1.461   3.911   9.616  1.0704  0.4685 -0.7444
  696MOL0     H91859   1.664   3.984   9.712 -0.8269 -0.7264  0.3312
  696MOL0     H91860   2.082   4.101   9.812 -0.1804  0.3074 -1.0110
  696MOL0     H91861   2.281   4.167   9.968 -0.0660 -1.6854  2.6257
  696MOL0     H91862   2.251   4.169  10.263 -1.1514  0.0921  2.2475
  696MOL0     H91863   2.348   4.303  10.334  2.5341  0.8933 -1.1015
  696MOL0     H91864   2.502   4.138  10.256  0.8301  0.2133 -0.5731
  696MOL0     H91865   2.423   4.146  10.096 -0.6257  0.1083 -0.4984
  696MOL0     H91866   2.561   4.386  10.224 -1.7465  0.8661 -0.4664
  696MOL0     H91867   2.489   4.390  10.068 -0.2209  0.7432  1.7713
  696MOL0     H91868   2.715   4.202  10.165  1.0824  2.0131  1.5235
  696MOL0     H91869   2.672   4.202   9.999 -1.8576  1.7865 -2.2464
  696MOL0     H91870   2.862   4.549   9.960 -0.5860  1.0553  0.4135
  696MOL0     H91871   2.008   4.427  10.174 -0.5340 -0.0038 -0.2070
  696MOL0     H91872   1.818   4.347  10.036 -0.1102 -1.8733  0.4711
  697MOL0     O91873   7.231   5.054   1.849 -0.8905 -0.0540 -0.4106
  697MOL0     C91874   7.249   4.991   1.953  0.1053  0.6268  0.4208
  697MOL0     O91875   7.151   4.944   2.034 -0.7118 -0.6469 -0.0553
  697MOL0     C91876   7.017   4.946   1.995  0.9920 -0.3386 -0.8184
  697MOL0     C91877   6.922   4.944   2.093  0.3186 -0.7792 -0.2874
  697MOL0     C91878   6.784   4.951   2.068  0.6527  0.5670 -0.0979
  697MOL0     C91879   6.738   4.949   1.934  1.6184 -0.2045 -0.4594
  697MOL0     O91880   6.609   4.953   1.897 -0.1201  0.8256  0.9178
  697MOL0     C91881   6.498   4.954   1.993 -0.4407  0.3752 -0.0273
  697MOL0     C91882   6.380   4.942   1.899  0.9043 -0.4650 -0.6279
  697MOL0     C91883   6.253   4.910   1.975 -0.2758  0.3812  0.2279
  697MOL0     C91884   6.145   4.916   1.873  0.1578  1.2439 -0.4815
  697MOL0     C91885   6.003   4.892   1.920  0.0576  0.0152 -0.5579
  697MOL0     C91886   5.899   4.883   1.806  0.0695 -0.1887 -0.0249
  697MOL0     C91887   5.755   4.837   1.845 -0.0188  0.1243  0.4557
  697MOL0     C91888   5.693   4.925   1.962 -1.4501 -0.1981  0.5515
  697MOL0     N91889   5.660   5.062   1.915 -0.6698  1.5229 -0.5164
  697MOL0     C91890   5.744   5.174   1.900 -0.1961  0.1735 -0.6735
  697MOL0     C91891   5.668   5.272   1.839  0.1252  0.4227 -0.1558
  697MOL0     C91892   5.700   5.421   1.809 -0.3996 -0.5912 -0.2683
  697MOL0     C91893   5.804   5.439   1.696 -0.4302  0.2336 -0.6945
  697MOL0     C91894   5.950   5.375   1.700 -0.0459  0.0048  0.4499
  697MOL0     C91895   6.049   5.434   1.801 -0.0098  0.1871 -0.3257
  697MOL0     O91896   6.163   5.356   1.800 -0.3944  0.2841 -0.5856
  697MOL0     C91897   6.288   5.412   1.785  0.5114 -0.4940  0.2871
  697MOL0     C91898   6.386   5.317   1.755  0.0607 -0.6784 -0.5418
  697MOL0     C91899   6.524   5.360   1.765 -0.3814 -0.5301  0.0664
  697MOL0     C91900   6.557   5.491   1.804 -0.9299 -0.0818  0.8288
  697MOL0     C91901   6.693   5.537   1.833 -0.1775 -0.4454  1.1455
  697MOL0     O91902   6.794   5.442   1.816 -0.9583 -0.4585  0.2020
  697MOL0     C91903   6.924   5.462   1.853  0.3061  0.8222  0.1084
  697MOL0     C91904   6.986   5.354   1.924 -0.7024  0.5898  0.8282
  697MOL0     C91905   7.113   5.366   1.975  0.1065 -0.2547 -0.1463
  697MOL0     C91906   7.189   5.484   1.950  0.7049 -0.5500 -0.8179
  697MOL0     O91907   7.321   5.504   1.974 -0.1467 -0.1051  0.2063
  697MOL0     C91908   7.400   5.389   1.987 -0.2325 -0.2418  0.1042
  697MOL0     C91909   7.550   5.429   2.004 -0.5768  0.1201 -0.2368
  697MOL0     C91910   7.649   5.315   1.973  0.1451 -0.3930  0.8200
  697MOL0     C91911   7.795   5.360   1.983 -0.1128 -0.3229 -0.3532
  697MOL0     C91912   7.899   5.259   1.939  0.3592 -0.6295 -1.3986
  697MOL0     C91913   7.920   5.155   2.053  0.4475 -0.4286 -0.5510
  697MOL0     C91914   8.036   5.065   2.025  0.8284 -1.2233  0.0749
  697MOL0     C91915   8.078   4.983   2.142  0.1399  0.3413  0.5191
  697MOL0    Cl91916   8.184   4.850   2.082 -0.7513 -0.1660 -0.5500
  697MOL0     C91917   7.126   5.587   1.884  0.5003 -0.2726 -0.8390
  697MOL0     C91918   6.992   5.582   1.840 -0.4460 -0.9673  0.3361
  697MOL0     O91919   6.707   5.649   1.874  0.5186  0.3954  0.3116
  697MOL0     C91920   6.456   5.591   1.820  0.5508  0.4676  0.0169
  697MOL0     C91921   6.322   5.547   1.824 -0.4241 -0.0755 -0.1467
  697MOL0     N91922   5.541   5.217   1.816  0.7000 -0.3843 -0.0694
  697MOL0     N91923   5.537   5.088   1.849  0.2944  0.1474 -0.7658
  697MOL0     C91924   6.839   4.955   1.830  1.0597  0.0887  0.7962
  697MOL0     C91925   6.972   4.954   1.861  0.1320 -0.6773  0.0105
  697MOL0     C91926   7.388   4.953   1.985 -0.4334 -0.7016 -0.8516
  697MOL0     C91927   7.418   4.872   2.099 -0.3811  1.0186 -0.8217
  697MOL0     C91928   7.550   4.833   2.131 -0.2017  0.1084  0.4847
  697MOL0     C91929   7.656   4.856   2.037 -0.4260 -0.2575  0.6621
  697MOL0     O91930   7.782   4.818   2.069  0.0402 -0.0913 -0.3652
  697MOL0     C91931   7.844   4.716   1.982 -0.6853 -0.7489 -0.5827
  697MOL0     C91932   7.850   4.590   2.064 -0.0815  0.5115  0.6278
  697MOL0     C91933   7.708   4.530   2.076 -0.1413  0.2884 -0.0800
  697MOL0     C91934   7.695   4.419   2.180 -0.7618 -0.1372 -0.1751
  697MOL0     C91935   7.732   4.298   2.111 -0.2795  0.0557 -0.2213
  697MOL0     C91936   7.768   4.194   2.056  0.5798  0.7750  0.1729
  697MOL0     C91937   7.628   4.931   1.916  0.1703  0.2008 -0.2578
  697MOL0     C91938   7.494   4.980   1.896  0.0901 -1.1448  0.0071
  697MOL0     H91939   6.968   4.939   2.191 -0.4973 -1.8576  0.0697
  697MOL0     H91940   6.713   4.952   2.150  0.9716 -1.3304  0.2329
  697MOL0     H91941   6.504   5.048   2.048  1.4216  1.3836 -1.7904
  697MOL0     H91942   6.502   4.872   2.064 -0.3238  1.3448  1.1118
  697MOL0     H91943   6.401   4.864   1.825 -0.1041  0.5847 -2.0866
  697MOL0     H91944   6.369   5.041   1.852  1.8310 -0.1591 -0.2198
  697MOL0     H91945   6.237   4.998   2.038  0.5580  0.3709  0.4630
  697MOL0     H91946   6.252   4.817   2.033  2.2984  1.1914  1.7344
  697MOL0     H91947   6.137   5.020   1.839 -1.6593  1.5165  0.6636
  697MOL0     H91948   6.176   4.849   1.793 -0.4710  1.5719 -1.0120
  697MOL0     H91949   5.982   4.970   1.994  2.9083  0.6466 -0.2886
  697MOL0     H91950   5.993   4.799   1.977 -0.4941 -0.3808 -1.2867
  697MOL0     H91951   5.948   4.824   1.729  2.9673  0.8076  0.9068
  697MOL0     H91952   5.889   4.978   1.753 -0.8802 -1.2976 -1.9323
  697MOL0     H91953   5.690   4.824   1.757  0.1480  0.2973  0.3065
  697MOL0     H91954   5.760   4.736   1.888 -1.5135  0.2923  1.0697
  697MOL0     H91955   5.770   4.934   2.039 -3.2147  2.9390  2.1323
  697MOL0     H91956   5.612   4.867   2.006 -0.7458 -2.4889 -0.9816
  697MOL0     H91957   5.845   5.176   1.941  0.6632  0.6329 -2.6893
  697MOL0     H91958   5.738   5.459   1.905 -2.0302  0.1263  0.1333
  697MOL0     H91959   5.608   5.474   1.783  0.2678 -0.9922 -3.9991
  697MOL0     H91960   5.816   5.546   1.677  2.7965 -0.4071 -3.1498
  697MOL0     H91961   5.751   5.395   1.612 -1.9885 -0.6731  0.7077
  697MOL0     H91962   5.930   5.269   1.722  2.7737 -0.6759  0.1480
  697MOL0     H91963   5.987   5.384   1.597 -0.2912  0.8127  0.4304
  697MOL0     H91964   6.015   5.438   1.906  1.4767 -0.1695  0.1868
  697MOL0     H91965   6.067   5.534   1.761  3.5473 -0.1817  0.0727
  697MOL0     H91966   6.355   5.218   1.724  0.0110 -1.3179  1.4089
  697MOL0     H91967   6.604   5.288   1.753 -1.6920 -2.0431  0.0397
  697MOL0     H91968   6.921   5.268   1.926 -2.0300  1.5559  0.8029
  697MOL0     H91969   7.152   5.299   2.050  0.9392  1.7678  1.3116
  697MOL0     H91970   7.384   5.332   1.895  0.8544 -1.9807  0.9422
  697MOL0     H91971   7.354   5.326   2.064 -2.1839 -0.3963 -1.1185
  697MOL0     H91972   7.563   5.462   2.108 -0.5090  2.2326 -0.8721
  697MOL0     H91973   7.571   5.514   1.939  0.7610 -1.4462 -1.9595
  697MOL0     H91974   7.624   5.275   1.874  1.7243 -0.1381  0.2893
  697MOL0     H91975   7.629   5.235   2.044  0.5632  0.4126  1.8707
  697MOL0     H91976   7.814   5.429   1.900  1.8108 -0.4843 -0.0905
  697MOL0     H91977   7.822   5.401   2.081 -0.8331 -2.3711  0.7580
  697MOL0     H91978   7.992   5.310   1.912  0.7350 -0.0062  0.9218
  697MOL0     H91979   7.866   5.210   1.847  1.2647  0.2918 -2.2414
  697MOL0     H91980   7.831   5.093   2.060 -0.3087 -0.0461 -4.4086
  697MOL0     H91981   7.939   5.205   2.149  0.2131  0.1119 -0.7792
  697MOL0     H91982   7.996   4.992   1.954 -1.9676 -0.7084  1.0170
  697MOL0     H91983   8.118   5.128   1.987  2.6047 -3.1774  0.4975
  697MOL0     H91984   7.989   4.942   2.190  0.0311  0.7544  0.6768
  697MOL0     H91985   8.134   5.046   2.212 -0.2775  0.4814  0.7342
  697MOL0     H91986   7.187   5.677   1.874 -2.1405  1.8007  0.2148
  697MOL0     H91987   6.946   5.676   1.812 -0.0875  0.4282  3.9057
  697MOL0     H91988   6.476   5.698   1.827  2.1858  0.1002  1.7257
  697MOL0     H91989   6.247   5.621   1.850 -1.6522 -0.9064 -1.2291
  697MOL0     H91990   6.808   4.937   1.728  0.6122 -2.4801  1.3138
  697MOL0     H91991   7.030   4.944   1.770 -1.6008  0.5030 -1.3052
  697MOL0     H91992   7.332   4.843   2.159  0.2701 -0.7962 -0.7215
  697MOL0     H91993   7.581   4.775   2.216  2.2604 -2.2304 -1.8086
  697MOL0     H91994   7.948   4.749   1.974  0.2473 -3.1493  0.3832
  697MOL0     H91995   7.802   4.713   1.881 -0.2752 -1.0183 -0.7477
  697MOL0     H91996   7.908   4.518   2.006 -1.2366 -1.5075  1.8563
  697MOL0     H91997   7.889   4.612   2.163 -0.7856  0.9194  0.8199
  697MOL0     H91998   7.670   4.499   1.979  1.8692  1.4964 -1.3205
  697MOL0     H91999   7.647   4.610   2.121  2.3205  1.0286  2.2604
  697MOL0     H92000   7.742   4.436   2.278 -2.1473 -3.1347  1.1396
  697MOL0     H92001   7.589   4.426   2.208 -1.3874  2.0661 -2.6703
  697MOL0     H92002   7.797   4.120   1.984  1.7701  1.8930 -0.5421
  697MOL0     H92003   7.718   4.957   1.861  2.4744 -0.6956  2.7952
  697MOL0     H92004   7.481   5.037   1.805  2.2450 -0.8103 -0.1383
  698MOL0     O92005   2.362  10.652   2.417 -0.4770  0.7579 -0.3947
  698MOL0     C92006   2.406  10.542   2.430 -0.5650 -0.3557 -0.3377
  698MOL0     O92007   2.326  10.433   2.426 -0.0648 -0.0158 -0.0234
  698MOL0     C92008   2.205  10.441   2.372 -0.0166 -0.2720  0.1506
  698MOL0     C92009   2.093  10.387   2.437  0.8889 -0.2831  0.9987
  698MOL0     C92010   1.960  10.395   2.387 -0.3411  0.6187 -0.7244
  698MOL0     C92011   1.933  10.471   2.270  0.4468 -0.3541 -0.3717
  698MOL0     O92012   1.819  10.504   2.206 -0.1894 -0.5486 -0.1590
  698MOL0     C92013   1.699  10.494   2.278 -0.9672 -0.2261 -0.9370
  698MOL0     C92014   1.582  10.526   2.189  0.8673 -0.4203  0.9081
  698MOL0     C92015   1.456  10.459   2.253  0.1796 -0.3432  0.7107
  698MOL0     C92016   1.326  10.483   2.176 -0.2354 -0.5777  0.0491
  698MOL0     C92017   1.219  10.393   2.220  0.0680  0.2774 -0.0394
  698MOL0     C92018   1.090  10.418   2.141  0.4653  0.8106  0.0851
  698MOL0     C92019   0.986  10.316   2.190  0.3435 -0.4943 -0.4278
  698MOL0     C92020   0.849  10.378   2.155 -0.1059 -0.5707 -0.5269
  698MOL0     N92021   0.744  10.274   2.162  0.5128 -0.3179  0.3447
  698MOL0     C92022   0.724  10.178   2.069 -0.5039 -0.1764  0.2192
  698MOL0     C92023   0.597  10.144   2.081 -0.5120 -0.1815 -0.4305
  698MOL0     C92024   0.517  10.067   1.982  0.7427 -0.2443  0.0355
  698MOL0     C92025   0.381  10.009   2.047  0.0693  0.5035 -0.0202
  698MOL0     C92026   0.301   9.917   1.952 -0.4725 -0.2625 -0.2227
  698MOL0     C92027   0.162   9.859   2.000 -0.2910 -0.3137  0.9077
  698MOL0     O92028   0.111   9.757   1.911  0.2326 -0.0744 -0.5412
  698MOL0     C92029  -0.012   9.691   1.937 -0.6444  0.0180 -0.2185
  698MOL0     C92030  -0.045   9.598   1.837  0.5154 -0.0269 -0.6603
  698MOL0     C92031  -0.157   9.513   1.851 -1.0023 -0.0292 -0.6885
  698MOL0     C92032  -0.236   9.519   1.963  0.0687  0.0435 -0.6040
  698MOL0     C92033  -0.342   9.426   1.978 -0.3088  0.4729 -0.0836
  698MOL0     O92034  -0.378   9.355   1.872 -0.4850 -0.8194  0.1177
  698MOL0     C92035  -0.454   9.250   1.888  0.9590 -0.2269 -0.2470
  698MOL0     C92036  -0.593   9.268   1.903 -0.1664 -0.6843  0.6927
  698MOL0     C92037  -0.677   9.166   1.949 -0.0835  0.6840  0.2928
  698MOL0     C92038  -0.626   9.034   1.972  0.0946 -0.9987 -0.6647
  698MOL0     O92039  -0.697   8.924   2.013  0.4935  0.4689 -0.7667
  698MOL0     C92040  -0.818   8.908   1.946  0.7130  0.1083 -0.4900
  698MOL0     C92041  -0.867   8.758   1.923  0.5763 -0.5522 -0.5369
  698MOL0     C92042  -0.852   8.682   2.056 -0.7137 -1.1720 -0.1914
  698MOL0     C92043  -0.980   8.704   2.143 -0.3063 -0.5108  0.9362
  698MOL0     C92044  -0.951   8.689   2.291  0.3071  0.2579 -0.1552
  698MOL0     C92045  -0.946   8.539   2.324  0.3131 -0.2070  0.0404
  698MOL0     C92046  -0.922   8.500   2.468  0.3958 -0.4988  0.3514
  698MOL0     C92047  -1.017   8.555   2.572 -1.5929  0.6980 -0.0769
  698MOL0    Cl92048  -1.189   8.542   2.523  0.1278  0.1510  0.2886
  698MOL0     C92049  -0.490   9.019   1.949  0.6755  0.7375  0.9833
  698MOL0     C92050  -0.409   9.123   1.911 -0.0876  0.2646  0.1499
  698MOL0     O92051  -0.374   9.399   2.097  0.2887 -0.0715 -0.1628
  698MOL0     C92052  -0.208   9.620   2.064  0.3686  0.4683 -0.3916
  698MOL0     C92053  -0.096   9.705   2.051 -0.1463 -0.0831 -0.5681
  698MOL0     N92054   0.552  10.210   2.193 -0.1586  0.4478  0.1050
  698MOL0     N92055   0.639  10.284   2.235 -0.1825 -0.3124  0.6220
  698MOL0     C92056   2.043  10.522   2.200 -0.3409 -0.4582 -0.4175
  698MOL0     C92057   2.178  10.509   2.246  0.2077 -0.1074 -0.8013
  698MOL0     C92058   2.551  10.534   2.465  0.4866 -0.4634  0.2126
  698MOL0     C92059   2.611  10.413   2.472  0.2336 -0.0699  0.1682
  698MOL0     C92060   2.749  10.409   2.503  0.0943  0.3245  0.5959
  698MOL0     C92061   2.822  10.523   2.538 -0.8851  0.6767  0.0905
  698MOL0     O92062   2.946  10.528   2.593 -0.2702  0.2169  0.5584
  698MOL0     C92063   3.027  10.407   2.595 -0.4399 -0.6900  0.0942
  698MOL0     C92064   3.165  10.448   2.625 -0.0585 -1.1368  0.4080
  698MOL0     C92065   3.225  10.541   2.520  0.0608 -0.1299 -0.1423
  698MOL0     C92066   3.370  10.583   2.556  0.1655  0.7015 -0.3110
  698MOL0     C92067   3.417  10.688   2.468 -1.1450 -0.2897 -0.3660
  698MOL0     C92068   3.458  10.775   2.392 -0.4515 -0.5401 -0.8947
  698MOL0     C92069   2.762  10.645   2.523 -0.6963 -0.7849 -0.8414
  698MOL0     C92070   2.633  10.652   2.489  0.2176 -0.8247  0.2016
  698MOL0     H92071   2.107  10.335   2.532  1.2106 -3.4036 -0.6162
  698MOL0     H92072   1.879  10.366   2.453 -1.1075 -0.0569 -1.9263
  698MOL0     H92073   1.706  10.575   2.351  0.5034 -1.0866 -0.0687
  698MOL0     H92074   1.694  10.399   2.332  0.2742 -0.4174 -1.1253
  698MOL0     H92075   1.598  10.472   2.095  3.3529 -1.3611  1.7802
  698MOL0     H92076   1.560  10.631   2.168 -0.1117 -1.4080 -4.3390
  698MOL0     H92077   1.435  10.496   2.354  0.1723 -3.4012  1.9405
  698MOL0     H92078   1.482  10.353   2.263 -1.2198 -0.6126  1.9170
  698MOL0     H92079   1.287  10.585   2.185  0.5123 -0.4108  1.9801
  698MOL0     H92080   1.345  10.454   2.072 -4.7688  0.4697 -1.3020
  698MOL0     H92081   1.204  10.404   2.328  1.2610 -0.1863  0.1847
  698MOL0     H92082   1.251  10.291   2.197 -0.0444  0.4542 -1.0347
  698MOL0     H92083   1.115  10.399   2.036 -1.1290 -3.0379  0.2262
  698MOL0     H92084   1.058  10.521   2.158 -0.7610  0.1530  2.2246
  698MOL0     H92085   1.000  10.219   2.142 -1.1921 -0.6241 -0.6684
  698MOL0     H92086   0.994  10.307   2.299 -4.0101 -1.1829  0.0149
  698MOL0     H92087   0.848  10.430   2.058 -0.8053  0.7503  0.1670
  698MOL0     H92088   0.823  10.450   2.233 -1.7985 -0.3608 -1.2394
  698MOL0     H92089   0.797  10.150   1.994 -0.3357 -2.1759  1.0397
  698MOL0     H92090   0.579   9.981   1.958 -1.1174 -1.5067 -0.4295
  698MOL0     H92091   0.496  10.116   1.886 -1.9827  0.6861  1.0130
  698MOL0     H92092   0.316  10.087   2.088 -0.0095 -0.7523  2.3617
  698MOL0     H92093   0.405   9.953   2.137  0.7996 -0.8149 -0.9951
  698MOL0     H92094   0.296   9.959   1.851  0.3378  0.3720 -0.0117
  698MOL0     H92095   0.361   9.828   1.932 -1.2711 -0.9409  0.3317
  698MOL0     H92096   0.087   9.939   1.998 -0.1415 -0.1836  0.3451
  698MOL0     H92097   0.160   9.819   2.102 -0.7979 -0.6086  0.7884
  698MOL0     H92098   0.024   9.592   1.754  3.7345 -0.2394  1.8636
  698MOL0     H92099  -0.176   9.435   1.778  0.5748 -1.8705  0.7767
  698MOL0     H92100  -0.626   9.372   1.898  0.3590 -0.5735 -1.2549
  698MOL0     H92101  -0.778   9.184   1.986 -0.6752 -0.1699 -0.8563
  698MOL0     H92102  -0.809   8.956   1.849 -0.2569  0.9728 -0.1718
  698MOL0     H92103  -0.886   8.962   2.013  3.9358 -0.0417  3.2593
  698MOL0     H92104  -0.813   8.717   1.838  2.1782 -1.0236  0.6629
  698MOL0     H92105  -0.974   8.751   1.899  0.1551  1.7590  0.3736
  698MOL0     H92106  -0.763   8.711   2.112 -1.7898  1.4057  0.3507
  698MOL0     H92107  -0.850   8.576   2.030 -1.2237 -1.5926  1.4061
  698MOL0     H92108  -1.003   8.810   2.134  0.1366 -0.4660  0.2172
  698MOL0     H92109  -1.065   8.648   2.103  0.8750  0.0736 -2.8038
  698MOL0     H92110  -1.035   8.728   2.351  1.0881 -0.3999  1.4375
  698MOL0     H92111  -0.857   8.728   2.331  1.5695 -2.7688  0.0768
  698MOL0     H92112  -0.860   8.503   2.267 -0.6157 -1.3943 -0.6466
  698MOL0     H92113  -1.040   8.495   2.289 -0.0041  1.9526 -2.0929
  698MOL0     H92114  -0.938   8.393   2.484 -0.3663 -0.2458  1.3769
  698MOL0     H92115  -0.822   8.533   2.497 -0.8176  1.4817  2.6221
  698MOL0     H92116  -0.991   8.660   2.579 -4.8012  1.8712 -3.0316
  698MOL0     H92117  -1.005   8.500   2.667 -0.0571 -1.4254 -1.4170
  698MOL0     H92118  -0.449   8.919   1.961 -1.3295 -0.1756  0.6787
  698MOL0     H92119  -0.301   9.112   1.902 -0.2037 -0.5001 -0.5292
  698MOL0     H92120  -0.286   9.638   2.137 -1.2989 -4.3759 -0.5788
  698MOL0     H92121  -0.074   9.774   2.132  0.6923 -1.2665  0.2426
  698MOL0     H92122   2.036  10.589   2.116  1.4017 -0.9870 -1.0273
  698MOL0     H92123   2.259  10.557   2.192 -2.3307  3.5942 -1.7237
  698MOL0     H92124   2.555  10.322   2.452  0.6954 -0.8213  2.0952
  698MOL0     H92125   2.800  10.313   2.510 -2.4968 -1.3656 -1.8245
  698MOL0     H92126   3.034  10.355   2.498  0.8794  0.9964 -0.7615
  698MOL0     H92127   2.991  10.346   2.679 -2.9184  2.0909  1.2161
  698MOL0     H92128   3.157  10.508   2.716 -2.1137  0.2664 -0.6054
  698MOL0     H92129   3.227  10.359   2.632 -0.4179 -1.3123  1.6150
  698MOL0     H92130   3.170  10.633   2.497  2.5878  1.6036  0.3695
  698MOL0     H92131   3.225  10.480   2.429  2.9482 -1.9296  0.9318
  698MOL0     H92132   3.379  10.624   2.657  3.2592  1.1349 -0.6516
  698MOL0     H92133   3.431  10.493   2.550 -1.6930 -0.7627  1.4580
  698MOL0     H92134   3.479  10.863   2.335  0.7991 -0.6267 -0.5980
  698MOL0     H92135   2.813  10.740   2.536  0.8359 -1.1678 -3.3446
  698MOL0     H92136   2.600  10.754   2.474  1.1006 -0.4725  0.5965
  699MOL0     O92137   4.259  10.681   9.606  0.0447  0.0825 -1.4421
  699MOL0     C92138   4.291  10.575   9.551  0.4959  0.8059  0.0566
  699MOL0     O92139   4.206  10.489   9.496 -0.0654 -0.5706 -0.1988
  699MOL0     C92140   4.079  10.495   9.532  0.2113  0.1582 -0.5082
  699MOL0     C92141   4.038  10.518   9.662 -0.6647 -0.8144 -0.4747
  699MOL0     C92142   3.906  10.534   9.696  0.1389 -0.1897  0.5839
  699MOL0     C92143   3.809  10.542   9.594 -0.2144  0.0337  0.0169
  699MOL0     O92144   3.672  10.575   9.627  0.0303  0.8323  0.1354
  699MOL0     C92145   3.580  10.468   9.629 -0.6944 -0.7824  0.3625
  699MOL0     C92146   3.464  10.508   9.726  0.0790 -0.9305  0.3043
  699MOL0     C92147   3.505  10.575   9.868  0.0229  0.3781  0.5434
  699MOL0     C92148   3.583  10.477   9.956 -0.6599  0.0689  0.5195
  699MOL0     C92149   3.668  10.549  10.060  0.0732  0.1291 -0.1677
  699MOL0     C92150   3.735  10.454  10.147 -0.1060  0.6891 -0.7063
  699MOL0     C92151   3.642  10.425  10.267 -0.2044 -0.1430 -0.2167
  699MOL0     C92152   3.700  10.317  10.358 -0.1776 -0.0774 -0.6793
  699MOL0     N92153   3.652  10.317  10.495 -0.5204 -0.6566 -0.2394
  699MOL0     C92154   3.532  10.271  10.542 -0.0628  0.5025 -0.3218
  699MOL0     C92155   3.534  10.293  10.675 -0.2745 -1.1030  0.0599
  699MOL0     C92156   3.438  10.251  10.783 -0.7260 -0.0908  0.2369
  699MOL0     C92157   3.309  10.335  10.783 -0.0722  0.0111  0.4514
  699MOL0     C92158   3.239  10.366  10.643  0.2256  1.0649  0.0697
  699MOL0     C92159   3.166  10.241  10.583 -0.0058 -0.2826  0.1925
  699MOL0     O92160   3.067  10.297  10.494  0.8010  0.3172  0.0435
  699MOL0     C92161   2.951  10.354  10.556 -1.0328 -0.2403 -0.2515
  699MOL0     C92162   2.895  10.315  10.674 -0.1757 -0.8669 -1.1220
  699MOL0     C92163   2.771  10.369  10.722  1.2752  0.8818 -0.7780
  699MOL0     C92164   2.695  10.454  10.640 -1.0333  0.4171 -0.5689
  699MOL0     C92165   2.568  10.507  10.690 -0.1481  0.0267 -0.4374
  699MOL0     O92166   2.511  10.437  10.795  0.6777 -0.0777 -0.1023
  699MOL0     C92167   2.373  10.443  10.803  0.0865  0.0958 -0.3178
  699MOL0     C92168   2.304  10.552  10.853  0.2057  0.2342 -0.0212
  699MOL0     C92169   2.167  10.552  10.852  0.3616  0.3308 -0.5770
  699MOL0     C92170   2.098  10.437  10.824 -0.4884  0.0541  0.6492
  699MOL0     O92171   1.966  10.449  10.849  0.0382  0.4053  0.6194
  699MOL0     C92172   1.875  10.362  10.783 -0.1894 -0.8422 -0.6561
  699MOL0     C92173   1.832  10.397  10.648 -0.8775 -0.4923 -0.5633
  699MOL0     C92174   1.702  10.319  10.613 -1.1318  0.0938  0.5819
  699MOL0     C92175   1.646  10.367  10.477  0.7513  0.4177  0.2200
  699MOL0     C92176   1.519  10.284  10.445 -0.0389  1.0295 -0.1743
  699MOL0     C92177   1.561  10.157  10.378  0.5890  0.3281  0.6321
  699MOL0     C92178   1.442  10.069  10.345 -0.6166  0.7334  0.2251
  699MOL0     C92179   1.338  10.104  10.242  0.0865 -0.7670  0.6319
  699MOL0    Cl92180   1.215   9.970  10.266  0.3859 -0.1654  0.0334
  699MOL0     C92181   2.170  10.321  10.788  1.0707  0.2862  0.4402
  699MOL0     C92182   2.305  10.321  10.778  0.1377 -0.2933  0.1181
  699MOL0     O92183   2.519  10.603  10.632 -0.7250 -0.3467 -0.0906
  699MOL0     C92184   2.751  10.493  10.515  0.8800 -0.3023  0.3446
  699MOL0     C92185   2.877  10.442  10.474 -0.1009  0.3582 -0.3579
  699MOL0     N92186   3.651  10.368  10.704  0.1778 -0.4757 -0.8193
  699MOL0     N92187   3.714  10.388  10.594  0.8739  0.4447  0.5819
  699MOL0     C92188   3.853  10.516   9.469  0.4939  0.1556  0.5333
  699MOL0     C92189   3.986  10.491   9.441 -0.2417  0.1464  0.0705
  699MOL0     C92190   4.431  10.547   9.543  0.3810 -0.1195  0.8528
  699MOL0     C92191   4.497  10.480   9.434 -0.4132  0.8415  0.2123
  699MOL0     C92192   4.631  10.441   9.438 -0.7173  0.0490 -0.0372
  699MOL0     C92193   4.702  10.466   9.555 -0.1339  0.0213 -0.1199
  699MOL0     O92194   4.825  10.407   9.564 -0.4239 -0.5199 -0.0392
  699MOL0     C92195   4.895  10.392   9.686 -1.3169  0.4045  0.1054
  699MOL0     C92196   4.987  10.273   9.674  0.5017  0.4072 -0.2226
  699MOL0     C92197   5.070  10.265   9.799 -1.1635  0.2950 -0.6842
  699MOL0     C92198   5.155  10.141   9.786 -0.1583  1.1976 -1.2749
  699MOL0     C92199   5.253  10.147   9.684 -0.4133 -0.9950 -0.6530
  699MOL0     C92200   5.337  10.156   9.601 -0.0672 -0.5259 -0.7285
  699MOL0     C92201   4.642  10.532   9.661  0.3919  0.6671  0.5615
  699MOL0     C92202   4.513  10.579   9.651 -0.2060 -0.7171 -0.2390
  699MOL0     H92203   4.108  10.507   9.744 -3.7692  0.2970  2.5790
  699MOL0     H92204   3.888  10.548   9.802  0.5184 -0.0176  0.6296
  699MOL0     H92205   3.629  10.380   9.671 -2.1303 -0.5452  2.7171
  699MOL0     H92206   3.536  10.443   9.532  0.1733  0.3197 -0.3371
  699MOL0     H92207   3.397  10.422   9.730 -0.0196 -0.9822 -1.4718
  699MOL0     H92208   3.403  10.583   9.676  0.5863  0.9470  2.3503
  699MOL0     H92209   3.405  10.591   9.910 -0.9052 -0.4380 -1.2298
  699MOL0     H92210   3.561  10.668   9.856  2.3953 -1.1534 -1.3486
  699MOL0     H92211   3.502  10.411   9.988 -0.2534 -1.2352 -0.9923
  699MOL0     H92212   3.652  10.423   9.891 -0.9331  1.5124 -1.0498
  699MOL0     H92213   3.610  10.617  10.122 -2.1731 -0.0680 -1.9134
  699MOL0     H92214   3.746  10.606  10.009  0.8489  0.0955  0.9377
  699MOL0     H92215   3.821  10.509  10.186 -0.8483  2.1474 -1.0520
  699MOL0     H92216   3.761  10.360  10.098 -0.9438  1.4318 -2.6805
  699MOL0     H92217   3.634  10.514  10.330  1.2399 -1.1281  1.4454
  699MOL0     H92218   3.543  10.393  10.231  0.4147 -0.8696 -1.3389
  699MOL0     H92219   3.808  10.331  10.367 -0.0634 -1.6158  0.8187
  699MOL0     H92220   3.682  10.221  10.309  1.6044 -0.3478 -0.8756
  699MOL0     H92221   3.449  10.223  10.491 -3.4919  3.6427  1.8228
  699MOL0     H92222   3.492  10.271  10.876 -0.2073  1.3393 -0.3375
  699MOL0     H92223   3.410  10.146  10.783 -0.0234 -0.2882  1.0385
  699MOL0     H92224   3.327  10.427  10.840 -0.1814  0.8036 -0.7504
  699MOL0     H92225   3.231  10.287  10.843 -0.0330 -1.7273 -0.8120
  699MOL0     H92226   3.171  10.448  10.667  1.1941  2.9774 -3.1114
  699MOL0     H92227   3.309  10.408  10.570  2.1409 -0.4678  0.9538
  699MOL0     H92228   3.115  10.192  10.666 -3.9423  0.9413 -1.2880
  699MOL0     H92229   3.239  10.182  10.526 -0.1673 -0.2934 -0.0037
  699MOL0     H92230   2.945  10.248  10.742 -1.6505 -0.3129  0.5917
  699MOL0     H92231   2.728  10.342  10.818  1.4558 -0.7894 -1.1236
  699MOL0     H92232   2.372  10.628  10.892  0.4043 -0.6342  1.3956
  699MOL0     H92233   2.108  10.625  10.906 -0.6231 -1.9726  1.6808
  699MOL0     H92234   1.787  10.351  10.846  0.6018 -2.6559  0.2064
  699MOL0     H92235   1.928  10.266  10.778  2.1495  0.3194  0.3474
  699MOL0     H92236   1.919  10.380  10.583  0.0120 -4.3131  1.3627
  699MOL0     H92237   1.821  10.506  10.652 -0.2373 -0.4642  1.9935
  699MOL0     H92238   1.623  10.327  10.688 -1.7086  1.7276 -0.1470
  699MOL0     H92239   1.732  10.214  10.613  1.2634  0.7176  1.1983
  699MOL0     H92240   1.623  10.474  10.474 -0.0147  0.3119  1.5899
  699MOL0     H92241   1.721  10.357  10.398  0.4949 -2.1970  0.2293
  699MOL0     H92242   1.457  10.344  10.379 -1.3394  0.2061  0.2471
  699MOL0     H92243   1.476  10.254  10.541 -1.1371 -2.1289 -1.5098
  699MOL0     H92244   1.634  10.103  10.439 -0.7092 -2.4658 -0.1314
  699MOL0     H92245   1.617  10.178  10.286  1.4892 -2.3997  0.4507
  699MOL0     H92246   1.486   9.974  10.312 -0.0935  0.8430  0.5996
  699MOL0     H92247   1.382  10.047  10.434  2.2321  3.0887  2.9306
  699MOL0     H92248   1.375  10.114  10.139  1.4570 -0.7998  1.0915
  699MOL0     H92249   1.286  10.198  10.262 -1.3307 -0.7937 -2.4730
  699MOL0     H92250   2.119  10.227  10.765 -3.4230  2.9755 -2.0198
  699MOL0     H92251   2.362  10.235  10.747 -0.2019 -0.2841 -0.5372
  699MOL0     H92252   2.699  10.562  10.449 -0.0870 -0.1109  1.2734
  699MOL0     H92253   2.922  10.479  10.382 -2.8247  1.8008 -1.2046
  699MOL0     H92254   3.776  10.512   9.393  0.9195 -2.1180  0.1427
  699MOL0     H92255   4.029  10.468   9.344  2.7158 -0.4255  1.3967
  699MOL0     H92256   4.431  10.470   9.349  0.9749 -0.1810 -0.8022
  699MOL0     H92257   4.691  10.401   9.356  0.3566  1.0879  0.2033
  699MOL0     H92258   4.829  10.384   9.773  0.0875 -1.3333  1.0935
  699MOL0     H92259   4.951  10.485   9.704 -0.5652  0.1089 -0.6479
  699MOL0     H92260   4.923  10.187   9.652 -0.8557  1.3482 -0.0892
  699MOL0     H92261   5.053  10.275   9.587 -1.1184 -3.2478 -1.7412
  699MOL0     H92262   5.008  10.267   9.889 -1.0927  0.0711 -0.6296
  699MOL0     H92263   5.142  10.347   9.809  1.3079 -1.3668 -3.3012
  699MOL0     H92264   5.195  10.136   9.888 -1.4230 -0.7978 -0.8158
  699MOL0     H92265   5.105  10.044   9.774  2.0577 -0.3835  1.0897
  699MOL0     H92266   5.419  10.161   9.532  0.8641 -2.7883  0.1110
  699MOL0     H92267   4.700  10.552   9.750  1.8407  0.3684 -0.2891
  699MOL0     H92268   4.490  10.648   9.732  3.9456  1.4894 -0.6963
  700MOL0     O92269   6.887   4.326   3.922  0.3027 -0.3533  0.3866
  700MOL0     C92270   6.899   4.362   4.037  0.2634 -0.4519  0.1812
  700MOL0     O92271   6.819   4.333   4.134 -0.3406  0.5684 -0.3307
  700MOL0     C92272   6.693   4.291   4.112 -0.2319  0.1125  0.3091
  700MOL0     C92273   6.593   4.361   4.175  0.2012 -0.5800 -0.9088
  700MOL0     C92274   6.458   4.326   4.168  0.2302  0.7875  0.2125
  700MOL0     C92275   6.422   4.220   4.096 -0.2091  0.1727  0.1426
  700MOL0     O92276   6.291   4.180   4.111 -0.3392 -0.3336 -0.1190
  700MOL0     C92277   6.229   4.127   3.998  0.2023 -0.2301  0.2916
  700MOL0     C92278   6.082   4.129   4.031 -0.5887 -0.0568  0.0191
  700MOL0     C92279   5.990   4.061   3.937  0.3754  1.1668 -0.4095
  700MOL0     C92280   5.845   4.085   3.996  0.4726 -0.1946  0.8351
  700MOL0     C92281   5.748   4.074   3.876 -0.3524 -0.3275 -0.5068
  700MOL0     C92282   5.606   4.065   3.917  0.2222  0.8163  0.6504
  700MOL0     C92283   5.517   4.013   3.795 -0.3601 -0.3588 -0.5855
  700MOL0     C92284   5.362   3.984   3.843  0.1940 -0.6332 -0.5971
  700MOL0     N92285   5.265   3.944   3.746  0.2267 -0.8040  0.6630
  700MOL0     C92286   5.219   4.013   3.639 -0.2387 -0.2283  0.2382
  700MOL0     C92287   5.129   3.937   3.574 -0.3328  0.7136 -0.2284
  700MOL0     C92288   5.060   3.973   3.445 -0.2728  0.3543  0.3507
  700MOL0     C92289   4.930   4.040   3.473  0.3511 -0.7388  0.2381
  700MOL0     C92290   4.842   4.041   3.342  0.0132  0.3015 -0.8381
  700MOL0     C92291   4.739   4.152   3.347  0.2790  0.2046 -0.7809
  700MOL0     O92292   4.678   4.182   3.225 -0.5391 -0.0906 -0.0079
  700MOL0     C92293   4.564   4.120   3.193  0.0399  0.0528  0.4808
  700MOL0     C92294   4.507   4.153   3.068 -0.5464 -0.4097  0.2920
  700MOL0     C92295   4.393   4.100   3.016  0.0354 -0.8667  0.2151
  700MOL0     C92296   4.329   4.000   3.090 -0.8656  1.0779 -0.9900
  700MOL0     C92297   4.201   3.926   3.049 -1.0132  0.1752  0.2034
  700MOL0     O92298   4.158   3.936   2.921 -0.0388 -0.8265 -0.1098
  700MOL0     C92299   4.024   3.927   2.905 -0.1892  0.2486  0.2815
  700MOL0     C92300   3.942   4.041   2.917 -0.2524 -0.1932  0.2548
  700MOL0     C92301   3.804   4.033   2.922 -0.7660  0.4933  0.1381
  700MOL0     C92302   3.745   3.903   2.905 -0.0053  0.0133  0.0980
  700MOL0     O92303   3.609   3.910   2.873 -0.1722  0.5451  0.6637
  700MOL0     C92304   3.539   3.789   2.868  0.5357 -0.1568  0.0567
  700MOL0     C92305   3.393   3.829   2.910 -0.1236  1.5260  0.3113
  700MOL0     C92306   3.321   3.697   2.904  0.1601  0.0409 -0.5150
  700MOL0     C92307   3.166   3.719   2.931  0.4263 -0.6851  0.1817
  700MOL0     C92308   3.077   3.591   2.907 -0.5443 -0.5497 -0.0007
  700MOL0     C92309   2.924   3.606   2.891 -0.6587  0.3092  0.3491
  700MOL0     C92310   2.888   3.670   2.756  0.3837 -0.1088 -0.3861
  700MOL0     C92311   2.741   3.670   2.718 -0.1443  0.1108 -0.6222
  700MOL0    Cl92312   2.632   3.776   2.810  0.3593  0.4866 -0.0326
  700MOL0     C92313   3.821   3.785   2.905 -0.3223 -1.0355 -0.8417
  700MOL0     C92314   3.961   3.807   2.894 -0.7139 -0.0932  0.0655
  700MOL0     O92315   4.142   3.878   3.142 -0.1529  0.1341 -0.8230
  700MOL0     C92316   4.389   3.958   3.213 -0.3356 -1.0012  0.6105
  700MOL0     C92317   4.504   4.017   3.257  0.3745  0.0905 -0.0829
  700MOL0     N92318   5.109   3.822   3.644 -0.9114 -0.6466 -0.0996
  700MOL0     N92319   5.194   3.823   3.744  0.2674 -0.6125 -0.1703
  700MOL0     C92320   6.517   4.149   4.023 -0.1875 -0.2094 -0.5823
  700MOL0     C92321   6.651   4.185   4.034 -0.3257 -0.5054 -0.6466
  700MOL0     C92322   7.014   4.440   4.077 -0.2464 -0.1880 -0.3736
  700MOL0     C92323   7.103   4.495   3.985  0.3785 -0.1812  0.3065
  700MOL0     C92324   7.217   4.563   4.031  0.0417  0.6416 -0.2395
  700MOL0     C92325   7.248   4.568   4.161 -0.7020  0.3770 -1.1316
  700MOL0     O92326   7.366   4.633   4.197 -0.3245  0.6535 -1.1550
  700MOL0     C92327   7.485   4.563   4.167 -0.6367  0.3143  0.0180
  700MOL0     C92328   7.539   4.480   4.278  0.3176  0.0647 -0.3232
  700MOL0     C92329   7.684   4.454   4.243  0.1125 -0.6621 -0.0377
  700MOL0     C92330   7.737   4.337   4.332 -0.5748  0.1309 -0.8080
  700MOL0     C92331   7.788   4.373   4.468 -0.5595  0.0695  0.5095
  700MOL0     C92332   7.830   4.405   4.574  0.4392 -0.2948 -0.1339
  700MOL0     C92333   7.161   4.519   4.260  0.6893  0.5370  0.0142
  700MOL0     C92334   7.042   4.463   4.218  0.3359 -0.7788  0.8287
  700MOL0     H92335   6.621   4.443   4.240  0.2683  1.0385 -2.9142
  700MOL0     H92336   6.379   4.372   4.227  0.5673  0.4842  0.9133
  700MOL0     H92337   6.255   4.023   3.975  0.4038 -0.2922  0.7805
  700MOL0     H92338   6.233   4.200   3.916  0.9695  0.1767  0.6732
  700MOL0     H92339   6.064   4.237   4.038 -0.0215  0.0367  0.1142
  700MOL0     H92340   6.063   4.091   4.131  2.1605 -0.8097  0.3483
  700MOL0     H92341   5.999   3.952   3.929  3.9049  1.4618 -2.3914
  700MOL0     H92342   6.006   4.101   3.837  0.4412  0.0384 -0.8702
  700MOL0     H92343   5.837   4.010   4.076  3.6956 -0.3641  1.1436
  700MOL0     H92344   5.846   4.188   4.034 -1.0968 -0.3318  1.3010
  700MOL0     H92345   5.778   3.979   3.832 -0.7734 -0.4430 -0.5395
  700MOL0     H92346   5.771   4.156   3.807 -1.0216  1.2941  1.1161
  700MOL0     H92347   5.572   4.165   3.946  2.6718  2.0700 -0.4225
  700MOL0     H92348   5.604   3.996   4.002  1.3723 -0.1437 -0.0585
  700MOL0     H92349   5.515   4.087   3.715  1.5139 -0.0751 -0.4079
  700MOL0     H92350   5.557   3.917   3.762 -1.9308 -1.3279  0.1938
  700MOL0     H92351   5.324   4.074   3.892  2.1801 -0.1335  0.1471
  700MOL0     H92352   5.354   3.897   3.908 -2.2722  0.2593  0.3981
  700MOL0     H92353   5.250   4.115   3.616  1.6831 -1.1127 -1.3961
  700MOL0     H92354   5.039   3.887   3.381 -0.3727  0.5979  0.0537
  700MOL0     H92355   5.117   4.041   3.381 -1.8919 -1.2642 -3.0938
  700MOL0     H92356   4.947   4.142   3.508  1.7338 -1.0078  0.3780
  700MOL0     H92357   4.875   3.995   3.556 -0.7452  0.8845  0.4495
  700MOL0     H92358   4.911   4.054   3.258 -2.8869 -0.5857 -3.5705
  700MOL0     H92359   4.780   3.951   3.331  0.0938  0.3471 -1.7486
  700MOL0     H92360   4.794   4.240   3.382  0.3543 -0.0387 -0.2825
  700MOL0     H92361   4.666   4.136   3.426 -0.7452 -0.6194 -1.8688
  700MOL0     H92362   4.550   4.230   3.005 -1.1616 -1.1740 -1.1038
  700MOL0     H92363   4.372   4.132   2.915  1.8406  1.2062  0.4104
  700MOL0     H92364   3.997   4.130   2.948  1.2691 -1.8096  2.5537
  700MOL0     H92365   3.730   4.113   2.932 -1.0552 -0.0114  2.8044
  700MOL0     H92366   3.583   3.714   2.934  4.8867  1.4699 -0.6331
  700MOL0     H92367   3.549   3.754   2.765  4.5892 -2.1964  0.9341
  700MOL0     H92368   3.356   3.906   2.842 -1.9031  0.4317 -0.0210
  700MOL0     H92369   3.396   3.870   3.011 -0.6056 -0.4989  1.1847
  700MOL0     H92370   3.350   3.626   2.982  2.9704  1.6685  0.0350
  700MOL0     H92371   3.340   3.650   2.807  1.3724 -1.2243  0.2940
  700MOL0     H92372   3.149   3.744   3.036 -1.0838  1.4391 -0.4966
  700MOL0     H92373   3.132   3.807   2.876  2.2287 -0.3802 -0.4885
  700MOL0     H92374   3.082   3.521   2.991 -1.5281  0.7560  1.1820
  700MOL0     H92375   3.112   3.550   2.811 -1.0372 -3.0417  0.8179
  700MOL0     H92376   2.878   3.663   2.973 -1.5723  0.7158 -0.4328
  700MOL0     H92377   2.881   3.505   2.898 -2.4297  1.0282  0.4475
  700MOL0     H92378   2.913   3.776   2.761 -0.2837  0.0578 -0.4287
  700MOL0     H92379   2.935   3.611   2.677  1.5025 -0.4208  0.4968
  700MOL0     H92380   2.704   3.568   2.729 -1.0374  0.5831  0.9895
  700MOL0     H92381   2.736   3.705   2.614  0.7270  0.5819 -0.5163
  700MOL0     H92382   3.769   3.692   2.883 -1.2527 -0.0999 -2.8449
  700MOL0     H92383   4.020   3.718   2.878  3.1450  2.1853  0.3488
  700MOL0     H92384   4.351   3.872   3.267 -1.0439 -1.0102  0.1246
  700MOL0     H92385   4.548   3.984   3.350  0.5603  1.4734  0.3480
  700MOL0     H92386   6.492   4.059   3.968 -1.3469 -0.9301  1.0481
  700MOL0     H92387   6.733   4.125   3.996 -1.6237 -2.1681 -0.9712
  700MOL0     H92388   7.073   4.494   3.880 -0.6275  1.0298  0.5608
  700MOL0     H92389   7.275   4.600   3.948 -1.9107  0.6451 -1.6745
  700MOL0     H92390   7.561   4.636   4.137 -0.7347  0.2093 -0.5034
  700MOL0     H92391   7.466   4.502   4.078 -3.5030 -0.2620  0.9127
  700MOL0     H92392   7.541   4.536   4.372 -0.5214  2.1581 -1.4839
  700MOL0     H92393   7.472   4.394   4.289 -0.4315  0.7545  0.9185
  700MOL0     H92394   7.740   4.547   4.252  1.4117 -1.4349  0.0491
  700MOL0     H92395   7.682   4.431   4.136 -0.7924  0.4365 -0.2764
  700MOL0     H92396   7.661   4.260   4.347 -2.0466  1.8030  0.9466
  700MOL0     H92397   7.820   4.295   4.275 -1.5151  1.4635 -3.3852
  700MOL0     H92398   7.887   4.442   4.657  2.8143  2.2478 -2.6447
  700MOL0     H92399   7.177   4.544   4.365  2.7928 -1.1437  0.1810
  700MOL0     H92400   6.969   4.438   4.295  0.3074  0.5823  1.2832
  701MOL0     O92401   4.540  11.217   7.108  0.2215 -0.3407 -0.7536
  701MOL0     C92402   4.583  11.246   7.218  1.0191 -0.1403  0.7404
  701MOL0     O92403   4.513  11.231   7.335 -0.5505 -0.1451 -0.3371
  701MOL0     C92404   4.386  11.176   7.344 -0.1054 -0.1949  0.4820
  701MOL0     C92405   4.309  11.232   7.435 -0.0867 -0.0806 -0.5193
  701MOL0     C92406   4.173  11.192   7.451  0.1589 -0.0003  0.6512
  701MOL0     C92407   4.118  11.095   7.368  0.0350 -1.1161  0.5219
  701MOL0     O92408   3.989  11.046   7.376 -0.1278  0.2068  0.0361
  701MOL0     C92409   3.903  11.108   7.475 -0.1033 -0.1107 -0.5758
  701MOL0     C92410   3.778  11.038   7.483 -0.2923  0.3156 -0.6623
  701MOL0     C92411   3.684  11.088   7.599 -0.0366 -1.0596 -0.6177
  701MOL0     C92412   3.545  11.022   7.619 -1.0083 -0.1958  0.3462
  701MOL0     C92413   3.452  11.001   7.494  0.0777  0.0401  0.5877
  701MOL0     C92414   3.392  11.135   7.437 -0.2617  0.5719  0.1763
  701MOL0     C92415   3.279  11.105   7.327  0.2023 -0.0421 -0.2631
  701MOL0     C92416   3.346  11.082   7.188  0.1571  0.1727 -0.8607
  701MOL0     N92417   3.248  11.013   7.099  0.0482  0.1766  0.1454
  701MOL0     C92418   3.195  10.888   7.126 -1.0636  0.2689 -0.6622
  701MOL0     C92419   3.066  10.894   7.070 -0.5475  0.3185  0.2562
  701MOL0     C92420   2.970  10.787   7.052  0.9570 -0.2619 -0.3617
  701MOL0     C92421   2.874  10.777   7.168 -0.3502 -0.3954 -0.6783
  701MOL0     C92422   2.733  10.735   7.138  0.7190  0.0449  0.4606
  701MOL0     C92423   2.725  10.589   7.091 -0.0430 -1.4193  0.5730
  701MOL0     O92424   2.625  10.574   6.990  0.1434 -0.2363  0.2832
  701MOL0     C92425   2.511  10.510   7.018 -0.3129  0.5905 -0.0536
  701MOL0     C92426   2.441  10.447   6.909 -0.4648  0.4445  0.1976
  701MOL0     C92427   2.325  10.377   6.934  0.3847  0.1859 -0.2061
  701MOL0     C92428   2.278  10.356   7.068 -0.5080  0.2689 -0.8213
  701MOL0     C92429   2.150  10.287   7.087  0.7754  0.5181  0.4054
  701MOL0     O92430   2.101  10.289   7.217 -0.3964  0.4058 -0.0680
  701MOL0     C92431   1.968  10.248   7.233  0.0043 -0.0034  0.1893
  701MOL0     C92432   1.870  10.350   7.232  0.8187 -0.3463 -0.6421
  701MOL0     C92433   1.733  10.321   7.234  0.3836  1.2315 -0.0145
  701MOL0     C92434   1.696  10.188   7.256 -1.0860  0.4828  0.1522
  701MOL0     O92435   1.578  10.132   7.287 -0.6581  0.5400 -0.7357
  701MOL0     C92436   1.461  10.220   7.271  0.6946  0.2439  0.0477
  701MOL0     C92437   1.339  10.131   7.280 -0.8089 -1.0205 -0.5205
  701MOL0     C92438   1.211  10.209   7.247 -0.9824 -0.6758  0.5173
  701MOL0     C92439   1.079  10.116   7.238 -0.0879  0.3180 -0.1930
  701MOL0     C92440   0.965  10.194   7.175 -0.3200 -0.5601  0.2410
  701MOL0     C92441   0.848  10.106   7.121 -0.4259 -0.5558  0.4439
  701MOL0     C92442   0.744  10.201   7.060 -0.3620  0.2656 -0.1884
  701MOL0     C92443   0.629  10.117   7.005  0.7616 -0.3488  0.0281
  701MOL0    Cl92444   0.528  10.230   6.913 -0.4642 -0.0254 -0.1665
  701MOL0     C92445   1.791  10.083   7.254 -0.0687 -0.3475 -0.0140
  701MOL0     C92446   1.929  10.112   7.239  0.5229 -1.3482 -0.9822
  701MOL0     O92447   2.101  10.237   6.993 -0.3920  0.4224  0.5993
  701MOL0     C92448   2.349  10.424   7.167 -0.0467  0.4095  0.1719
  701MOL0     C92449   2.457  10.507   7.144  0.5496 -0.6917 -0.0554
  701MOL0     N92450   3.049  11.017   7.002 -0.1711 -1.0217  0.1332
  701MOL0     N92451   3.153  11.085   7.029  0.2540 -0.3375 -0.2902
  701MOL0     C92452   4.206  11.035   7.273 -0.2750 -0.4167 -0.2021
  701MOL0     C92453   4.340  11.073   7.261 -0.2338 -0.3357 -1.2172
  701MOL0     C92454   4.697  11.331   7.239 -0.0933 -0.7683  0.3387
  701MOL0     C92455   4.740  11.396   7.125 -0.3976  0.3039 -0.3865
  701MOL0     C92456   4.839  11.491   7.139 -0.4073  0.5126  0.0399
  701MOL0     C92457   4.876  11.541   7.261 -0.5886 -0.0851 -0.1199
  701MOL0     O92458   4.965  11.640   7.261 -0.2032  0.1396  0.4173
  701MOL0     C92459   5.018  11.702   7.384  0.7088  0.3894  0.5172
  701MOL0     C92460   4.904  11.797   7.437 -0.4484 -0.3222 -0.3542
  701MOL0     C92461   4.878  11.922   7.354  0.2414  0.8151 -0.5068
  701MOL0     C92462   4.756  11.901   7.259  0.3446 -0.6396  0.4031
  701MOL0     C92463   4.770  11.980   7.137  0.1244 -0.2811  0.3566
  701MOL0     C92464   4.782  12.047   7.042 -0.2926  0.8869 -0.5192
  701MOL0     C92465   4.842  11.470   7.380 -0.8258  0.2368 -0.7770
  701MOL0     C92466   4.751  11.356   7.368 -0.1047 -0.7045  0.2084
  701MOL0     H92467   4.344  11.314   7.498  1.9070 -2.7596  2.1619
  701MOL0     H92468   4.115  11.247   7.524 -1.9687 -1.8137  0.4615
  701MOL0     H92469   3.888  11.212   7.445 -0.0973  0.1057  0.1415
  701MOL0     H92470   3.952  11.112   7.573 -3.0832  2.2875  0.9938
  701MOL0     H92471   3.798  10.932   7.504  1.0710  0.2614 -2.1105
  701MOL0     H92472   3.727  11.036   7.387  0.7938  1.3536 -1.2867
  701MOL0     H92473   3.671  11.196   7.586 -0.2904 -1.2656 -2.4096
  701MOL0     H92474   3.731  11.076   7.697 -0.8077  0.0983 -0.0850
  701MOL0     H92475   3.576  10.923   7.653 -1.8765 -0.0289  1.7222
  701MOL0     H92476   3.497  11.055   7.712  0.5521  1.1200  0.7387
  701MOL0     H92477   3.369  10.930   7.502  0.1797 -0.2376 -0.6440
  701MOL0     H92478   3.510  10.955   7.413  0.5216  1.7303 -0.0855
  701MOL0     H92479   3.477  11.194   7.401  0.9726 -1.5953 -0.6351
  701MOL0     H92480   3.353  11.194   7.521  3.0599 -0.4348  2.6745
  701MOL0     H92481   3.215  11.017   7.346  0.4270 -0.2711 -0.5533
  701MOL0     H92482   3.203  11.183   7.323 -0.2205 -0.3326  1.2146
  701MOL0     H92483   3.428  11.010   7.204  0.5571  0.8469  0.2189
  701MOL0     H92484   3.388  11.174   7.147  0.1456  1.3966  1.7152
  701MOL0     H92485   3.226  10.804   7.188 -0.0137  1.4910  0.5293
  701MOL0     H92486   3.011  10.687   7.039  4.0663  0.5525  1.9057
  701MOL0     H92487   2.931  10.813   6.953  2.3052  1.3044 -0.5392
  701MOL0     H92488   2.867  10.876   7.213  1.8084 -1.0135  1.1848
  701MOL0     H92489   2.920  10.714   7.245  0.9765  5.0537  3.5658
  701MOL0     H92490   2.680  10.760   7.230  0.8284  2.8585 -0.1207
  701MOL0     H92491   2.685  10.797   7.061  0.7787 -0.7645 -0.2372
  701MOL0     H92492   2.709  10.528   7.181  0.1131  1.3321  2.5874
  701MOL0     H92493   2.818  10.558   7.042  0.1019  1.9626 -1.5783
  701MOL0     H92494   2.489  10.464   6.813  0.1577 -0.9176  0.2510
  701MOL0     H92495   2.265  10.341   6.850 -0.1930  1.7166 -0.4797
  701MOL0     H92496   1.916  10.449   7.226  2.7311 -1.2138 -1.2412
  701MOL0     H92497   1.661  10.401   7.217 -3.0092 -1.2212  1.5102
  701MOL0     H92498   1.461  10.277   7.177  2.4789  0.9107  0.4123
  701MOL0     H92499   1.461  10.289   7.355  2.7559  0.0164  0.3053
  701MOL0     H92500   1.336  10.099   7.384 -0.3363  4.8260  1.6675
  701MOL0     H92501   1.352  10.041   7.219  1.9981 -0.1691 -1.3501
  701MOL0     H92502   1.233  10.259   7.152  0.8128 -0.7331  0.8597
  701MOL0     H92503   1.204  10.288   7.322 -0.6397 -1.2130  1.1236
  701MOL0     H92504   1.109  10.040   7.166  1.6606 -0.1867  0.9943
  701MOL0     H92505   1.067  10.074   7.339 -1.2528  0.4241 -0.2722
  701MOL0     H92506   1.003  10.265   7.101 -0.3891 -0.8479 -0.0754
  701MOL0     H92507   0.923  10.249   7.259  2.4481 -1.7623  2.5984
  701MOL0     H92508   0.815  10.051   7.210 -0.5226 -1.1466  0.0474
  701MOL0     H92509   0.883  10.036   7.045  0.1824  2.5522 -2.4299
  701MOL0     H92510   0.716  10.279   7.132  2.7733  2.0523 -0.6942
  701MOL0     H92511   0.795  10.260   6.984 -1.4256  1.8292  0.2552
  701MOL0     H92512   0.568  10.070   7.082 -1.0840  2.1612  0.2218
  701MOL0     H92513   0.667  10.038   6.939  0.6447  0.0731 -0.5554
  701MOL0     H92514   1.764   9.978   7.268  1.5513 -0.7576  0.1433
  701MOL0     H92515   1.995  10.026   7.239  1.4906 -0.6332 -0.1217
  701MOL0     H92516   2.321  10.421   7.272 -1.6287  3.0748 -0.0768
  701MOL0     H92517   2.507  10.551   7.229  1.0774 -1.2277 -0.0836
  701MOL0     H92518   4.172  10.947   7.220 -0.3387 -0.0815 -0.7296
  701MOL0     H92519   4.418  11.018   7.209  1.8378  1.7954 -0.5484
  701MOL0     H92520   4.718  11.356   7.027 -2.3774 -1.8494  0.8375
  701MOL0     H92521   4.879  11.536   7.048 -0.9210 -0.8804 -0.8990
  701MOL0     H92522   5.105  11.765   7.367  1.9369 -1.5656 -0.9512
  701MOL0     H92523   5.052  11.631   7.460 -0.7707 -1.5196 -0.4871
  701MOL0     H92524   4.811  11.739   7.437  0.0087 -1.0633 -0.2213
  701MOL0     H92525   4.923  11.823   7.542  1.4333 -1.7593 -0.2840
  701MOL0     H92526   4.968  11.957   7.302  2.1200  1.9003  3.1098
  701MOL0     H92527   4.854  12.001   7.426  1.4956 -0.8695  1.8898
  701MOL0     H92528   4.748  11.796   7.230  0.5739 -0.1047 -1.7804
  701MOL0     H92529   4.660  11.926   7.302 -0.4077  1.0602 -2.0381
  701MOL0     H92530   4.800  12.105   6.954 -1.3800 -1.0504 -2.0949
  701MOL0     H92531   4.888  11.495   7.476  5.2126 -0.9210 -2.9097
  701MOL0     H92532   4.730  11.295   7.455 -2.0868  0.5090  0.6650
  702MOL0     O92533  10.190  10.589   2.155  0.2772  0.3587 -0.5172
  702MOL0     C92534  10.225  10.516   2.249 -0.0090  0.0332  0.4292
  702MOL0     O92535  10.147  10.405   2.289 -0.0802 -0.1986  0.0920
  702MOL0     C92536  10.062  10.328   2.217  0.7305 -1.4392  0.5877
  702MOL0     C92537  10.087  10.318   2.074  0.4238  0.5691 -0.1321
  702MOL0     C92538  10.005  10.236   2.001 -0.0002 -0.4986  0.1837
  702MOL0     C92539   9.901  10.166   2.058 -0.5104  0.3703 -0.5766
  702MOL0     O92540   9.837  10.081   1.975  0.7417  0.6836 -0.2911
  702MOL0     C92541   9.690  10.078   1.989  0.0885  0.2194  0.1619
  702MOL0     C92542   9.621  10.005   1.873  0.2105 -0.7554 -0.1411
  702MOL0     C92543   9.653   9.858   1.849  0.1615  0.7795  0.2471
  702MOL0     C92544   9.594   9.812   1.715 -0.6195  0.0159  0.5753
  702MOL0     C92545   9.605   9.665   1.688  0.2193  1.2461 -1.0706
  702MOL0     C92546   9.486   9.577   1.736  0.1901 -0.7716  0.3402
  702MOL0     C92547   9.425   9.598   1.877 -0.3307  0.1572 -0.3311
  702MOL0     C92548   9.310   9.508   1.893 -0.3181  0.3394  0.9635
  702MOL0     N92549   9.270   9.500   2.032 -0.2131  0.3608  0.6010
  702MOL0     C92550   9.224   9.598   2.111  0.1406 -0.3988 -0.1722
  702MOL0     C92551   9.211   9.545   2.231  1.1306 -0.2615 -0.5293
  702MOL0     C92552   9.163   9.602   2.362  0.5635 -0.4821 -0.7961
  702MOL0     C92553   9.040   9.699   2.344  0.1688  0.4711  0.1323
  702MOL0     C92554   8.969   9.741   2.477  0.4438  0.1947  0.4349
  702MOL0     C92555   8.888   9.634   2.545  0.1915  0.0519  0.5635
  702MOL0     O92556   8.781   9.613   2.454 -0.6614 -0.0880  0.5353
  702MOL0     C92557   8.692   9.515   2.482  0.1986 -0.1605  0.1682
  702MOL0     C92558   8.588   9.499   2.391  0.0203  0.2058 -0.4162
  702MOL0     C92559   8.481   9.417   2.404  0.1538  0.1340 -1.2906
  702MOL0     C92560   8.473   9.353   2.535 -1.1928 -0.5787 -0.3575
  702MOL0     C92561   8.354   9.269   2.563 -0.3441  0.2867 -0.2311
  702MOL0     O92562   8.342   9.219   2.696  0.0520 -0.4217  0.4717
  702MOL0     C92563   8.211   9.168   2.719 -0.1443  0.0595  0.2326
  702MOL0     C92564   8.120   9.247   2.797  0.3645  0.2850 -0.2178
  702MOL0     C92565   7.990   9.206   2.809 -0.2991 -0.6377  1.1978
  702MOL0     C92566   7.940   9.082   2.757 -0.9970 -0.6147 -0.2255
  702MOL0     O92567   7.808   9.034   2.754  0.2857 -0.5211 -0.2434
  702MOL0     C92568   7.708   9.121   2.800  0.4219 -0.8881  0.0063
  702MOL0     C92569   7.570   9.061   2.784  0.6167 -1.3408 -0.4491
  702MOL0     C92570   7.463   9.099   2.893 -0.1016  0.4884  0.2270
  702MOL0     C92571   7.332   9.042   2.850  0.3360  0.1658 -0.0797
  702MOL0     C92572   7.216   9.089   2.945  0.2964 -0.0619  1.1579
  702MOL0     C92573   7.074   9.068   2.887  0.4282 -0.4120 -0.3036
  702MOL0     C92574   6.962   9.084   2.984 -0.0117  0.5565 -0.0597
  702MOL0     C92575   6.821   9.062   2.930 -0.6041 -0.2711  0.3535
  702MOL0    Cl92576   6.783   9.182   2.803 -0.6297 -0.2345 -0.0608
  702MOL0     C92577   8.041   8.998   2.700  0.0325  0.1371  0.5292
  702MOL0     C92578   8.172   9.036   2.686 -0.3178 -0.4445  0.0171
  702MOL0     O92579   8.280   9.236   2.472 -0.2435 -0.6082 -0.1268
  702MOL0     C92580   8.575   9.370   2.633 -0.0893 -0.6227 -1.4581
  702MOL0     C92581   8.680   9.453   2.607 -1.1038 -0.1737  0.3358
  702MOL0     N92582   9.253   9.411   2.224  0.9918  0.6183  0.6983
  702MOL0     N92583   9.284   9.384   2.104  0.1258 -0.9872  0.3304
  702MOL0     C92584   9.874  10.181   2.197  0.0864 -0.1485  0.3072
  702MOL0     C92585   9.956  10.257   2.272  0.0943 -0.1313  0.0895
  702MOL0     C92586  10.343  10.550   2.321 -0.2197  0.5753  0.0766
  702MOL0     C92587  10.416  10.437   2.364 -0.3782 -0.3082  0.3413
  702MOL0     C92588  10.522  10.462   2.449 -1.0419  0.1412  0.4212
  702MOL0     C92589  10.571  10.589   2.479 -0.3150  0.0425  0.4045
  702MOL0     O92590  10.668  10.603   2.573 -0.6105 -0.8178 -0.6445
  702MOL0     C92591  10.777  10.692   2.529 -0.2070 -0.3461 -0.2914
  702MOL0     C92592  10.844  10.756   2.653  0.4203 -0.3060 -1.3118
  702MOL0     C92593  10.964  10.664   2.693  0.6846  0.4431  0.7664
  702MOL0     C92594  11.007  10.693   2.833 -0.5369  0.8772  0.2660
  702MOL0     C92595  11.090  10.816   2.848 -0.0613 -0.5535 -0.8057
  702MOL0     C92596  11.164  10.917   2.851  0.3899 -0.4855  0.7129
  702MOL0     C92597  10.498  10.699   2.423 -0.2124  0.3001  0.2049
  702MOL0     C92598  10.386  10.679   2.339  0.3740 -0.2336 -0.3922
  702MOL0     H92599  10.157  10.383   2.022  0.0351  0.9321 -0.2098
  702MOL0     H92600  10.013  10.222   1.894  0.2961  1.9597 -0.1692
  702MOL0     H92601   9.640  10.175   1.995  0.9494  0.6433  0.5843
  702MOL0     H92602   9.652  10.027   2.078 -0.9504  1.5436  0.5040
  702MOL0     H92603   9.646  10.069   1.787  0.4961  0.6938  0.9796
  702MOL0     H92604   9.513  10.023   1.880  0.7555  3.7980 -0.3756
  702MOL0     H92605   9.620   9.804   1.939  0.9164  0.9463  0.6295
  702MOL0     H92606   9.762   9.850   1.848  0.2318  1.6560  0.5190
  702MOL0     H92607   9.489   9.840   1.706  0.1591  3.1953  0.2981
  702MOL0     H92608   9.650   9.863   1.636 -0.1511 -2.0141 -0.4893
  702MOL0     H92609   9.697   9.624   1.730 -0.4814 -0.7223 -1.3337
  702MOL0     H92610   9.623   9.655   1.581  0.4092 -3.4838 -0.8177
  702MOL0     H92611   9.502   9.469   1.723 -0.8147 -0.6491 -3.0411
  702MOL0     H92612   9.409   9.602   1.662  0.9111  1.7954  0.3823
  702MOL0     H92613   9.499   9.580   1.955  0.4472 -0.9385 -1.2757
  702MOL0     H92614   9.387   9.700   1.882  2.8722  1.7688 -3.8486
  702MOL0     H92615   9.335   9.407   1.858 -3.5147 -0.3969  0.4872
  702MOL0     H92616   9.226   9.534   1.829 -0.4202 -0.4152  0.7747
  702MOL0     H92617   9.201   9.700   2.081  1.4946  0.0562  0.2635
  702MOL0     H92618   9.245   9.647   2.418  0.6620 -1.7191  0.0898
  702MOL0     H92619   9.129   9.517   2.421 -1.6297  1.7659  1.4451
  702MOL0     H92620   8.960   9.653   2.286 -2.6886  1.7313  2.7813
  702MOL0     H92621   9.070   9.792   2.294 -1.4242 -0.0282 -1.8573
  702MOL0     H92622   9.044   9.781   2.546 -1.2481  1.3532  1.7051
  702MOL0     H92623   8.895   9.816   2.445 -1.8233 -1.7592  0.7870
  702MOL0     H92624   8.843   9.671   2.637  2.6440  0.6783  1.6037
  702MOL0     H92625   8.944   9.545   2.575 -2.4637 -1.7171  0.5900
  702MOL0     H92626   8.598   9.563   2.304 -1.0254 -0.5168 -1.0817
  702MOL0     H92627   8.401   9.409   2.331 -1.7897 -1.3058  0.8528
  702MOL0     H92628   8.155   9.341   2.837  0.1523  1.4327 -2.5469
  702MOL0     H92629   7.908   9.268   2.844  1.4310  2.0049  0.8393
  702MOL0     H92630   7.715   9.216   2.746 -0.6050 -1.8151 -1.8409
  702MOL0     H92631   7.721   9.150   2.905 -1.3661  2.6371 -0.6071
  702MOL0     H92632   7.574   8.952   2.783  2.2413 -1.3568  1.6241
  702MOL0     H92633   7.526   9.100   2.691 -1.5375  0.2384  1.1113
  702MOL0     H92634   7.446   9.207   2.898 -1.4647  0.4289 -1.8187
  702MOL0     H92635   7.483   9.063   2.994 -1.1124  3.1695  1.4983
  702MOL0     H92636   7.312   9.072   2.747 -1.9015 -1.2480 -0.1241
  702MOL0     H92637   7.333   8.933   2.858 -1.2368  0.1663  0.4130
  702MOL0     H92638   7.240   9.194   2.967  0.6222 -0.1940  1.4362
  702MOL0     H92639   7.225   9.031   3.037  1.4204 -0.7755  0.6118
  702MOL0     H92640   7.067   8.969   2.841 -1.5510 -0.4928  0.0730
  702MOL0     H92641   7.058   9.148   2.815  0.4156 -0.1837 -0.0474
  702MOL0     H92642   6.977   9.010   3.063  2.5003 -1.0067 -1.8555
  702MOL0     H92643   6.966   9.186   3.023  1.9777  0.7333 -0.6389
  702MOL0     H92644   6.758   9.056   3.019 -0.7397  0.6344  0.3250
  702MOL0     H92645   6.823   8.961   2.888 -2.7245 -0.3059  0.2263
  702MOL0     H92646   8.017   8.896   2.673 -0.0687  0.0882  0.8074
  702MOL0     H92647   8.233   8.954   2.650  1.4276  0.9491 -0.3320
  702MOL0     H92648   8.551   9.314   2.723 -2.5986 -0.3504 -1.8638
  702MOL0     H92649   8.749   9.468   2.689 -0.4142  0.5995 -0.3678
  702MOL0     H92650   9.800  10.116   2.243 -2.3536  2.1392 -0.1281
  702MOL0     H92651   9.958  10.257   2.380  0.1183  1.8743  0.1293
  702MOL0     H92652  10.391  10.334   2.342 -2.4436  0.5603 -1.7696
  702MOL0     H92653  10.579  10.379   2.490 -0.2870  0.8717  0.8816
  702MOL0     H92654  10.747  10.782   2.475  0.6405 -0.3975 -0.8732
  702MOL0     H92655  10.844  10.633   2.466  2.1441  0.4039  1.3910
  702MOL0     H92656  10.873  10.859   2.631  2.5377 -0.3004  1.0844
  702MOL0     H92657  10.764  10.768   2.727  4.4258  0.0883  3.4328
  702MOL0     H92658  11.053  10.671   2.631  1.7576  0.1538  2.2203
  702MOL0     H92659  10.927  10.561   2.688  0.0329  0.6067  1.7442
  702MOL0     H92660  10.914  10.711   2.888 -1.0434 -1.1554  0.1679
  702MOL0     H92661  11.058  10.609   2.882 -2.0881 -0.9616 -1.1040
  702MOL0     H92662  11.231  11.000   2.844  0.4889 -0.5641  0.7525
  702MOL0     H92663  10.526  10.802   2.442 -0.0743 -0.1729  2.9439
  702MOL0     H92664  10.331  10.768   2.310 -1.6265 -1.1271  0.4775
  703MOL0     O92665   4.288   9.257   5.648  0.0697 -0.2569 -0.2661
  703MOL0     C92666   4.389   9.281   5.574  0.5866 -0.1526  0.0442
  703MOL0     O92667   4.406   9.231   5.450 -0.4393  0.3709  0.2260
  703MOL0     C92668   4.313   9.156   5.384  0.7253  0.1132  0.7794
  703MOL0     C92669   4.307   9.162   5.244  0.0033 -0.1540 -1.0055
  703MOL0     C92670   4.239   9.076   5.168  0.5815  0.9360  0.1838
  703MOL0     C92671   4.152   8.985   5.232  0.1035  0.7971 -0.1099
  703MOL0     O92672   4.056   8.905   5.172  0.6825  0.1802 -0.4599
  703MOL0     C92673   4.077   8.835   5.041 -0.0751  0.7487  0.1919
  703MOL0     C92674   3.948   8.798   4.968 -0.8211  0.1686  0.1222
  703MOL0     C92675   3.887   8.672   5.016 -0.4172 -0.3297  0.4817
  703MOL0     C92676   3.760   8.632   4.942  0.7300  0.0385 -0.1278
  703MOL0     C92677   3.703   8.506   5.008  0.1163 -0.3575 -0.7570
  703MOL0     C92678   3.557   8.486   4.951 -0.8563  0.1914  0.1961
  703MOL0     C92679   3.502   8.357   4.990  0.2955  0.2528  0.7724
  703MOL0     C92680   3.346   8.358   4.988 -0.4810 -0.9266  0.1188
  703MOL0     N92681   3.296   8.223   5.016  0.2909  1.2639 -0.6293
  703MOL0     C92682   3.264   8.182   5.146  0.0503 -0.3731  0.1490
  703MOL0     C92683   3.206   8.064   5.130  1.1017  0.3951  0.7103
  703MOL0     C92684   3.171   7.960   5.228 -0.2014 -0.1027 -0.2052
  703MOL0     C92685   3.022   7.969   5.257 -1.0431  0.5361 -0.1389
  703MOL0     C92686   2.989   7.871   5.366  0.5461  0.0261 -0.5395
  703MOL0     C92687   2.840   7.845   5.364  0.1365  0.7935 -0.9085
  703MOL0     O92688   2.813   7.740   5.466  0.2056  0.1927 -0.2552
  703MOL0     C92689   2.686   7.709   5.508  0.6649 -0.5332  0.4872
  703MOL0     C92690   2.672   7.623   5.616  1.1334 -0.0620  0.1952
  703MOL0     C92691   2.545   7.591   5.676  0.2185  0.0756  0.5965
  703MOL0     C92692   2.428   7.656   5.620 -0.4930  0.1152 -0.2184
  703MOL0     C92693   2.302   7.634   5.690  0.4025 -1.1889  0.9632
  703MOL0     O92694   2.198   7.709   5.641 -0.8053 -1.2276  0.6192
  703MOL0     C92695   2.082   7.664   5.691  0.1628 -1.0045 -0.1746
  703MOL0     C92696   2.002   7.579   5.616  0.3249  0.8274  0.4250
  703MOL0     C92697   1.887   7.527   5.676  0.0828  0.0968  0.4214
  703MOL0     C92698   1.845   7.554   5.801 -1.2751 -0.5301 -1.1783
  703MOL0     O92699   1.730   7.491   5.839  0.0334  0.3488  0.3867
  703MOL0     C92700   1.703   7.478   5.976 -0.2204  0.5672 -0.1288
  703MOL0     C92701   1.600   7.582   6.029  0.4598 -0.3427  0.1596
  703MOL0     C92702   1.544   7.553   6.179  0.3911  0.0973 -0.7433
  703MOL0     C92703   1.443   7.660   6.211  0.8828  0.8993 -0.4447
  703MOL0     C92704   1.356   7.627   6.334 -0.3038  0.2273  0.2203
  703MOL0     C92705   1.230   7.547   6.299 -0.1925 -0.7729  0.6822
  703MOL0     C92706   1.113   7.640   6.280  0.1535  0.5498  0.5638
  703MOL0     C92707   0.983   7.568   6.248 -0.6523  0.4090  0.2620
  703MOL0    Cl92708   0.932   7.437   6.358  0.3595  0.2968  0.6366
  703MOL0     C92709   1.919   7.643   5.884 -0.3312 -0.5733  0.0707
  703MOL0     C92710   2.040   7.694   5.830  0.4925 -0.8391  0.1661
  703MOL0     O92711   2.296   7.546   5.775  0.5258  0.5891  0.0670
  703MOL0     C92712   2.443   7.733   5.498  0.6682  0.2873 -0.7214
  703MOL0     C92713   2.571   7.763   5.444  0.3830  0.7553  0.1857
  703MOL0     N92714   3.212   8.032   4.992  0.2760  0.9541 -0.5032
  703MOL0     N92715   3.268   8.124   4.929 -0.4833  0.1900 -0.9060
  703MOL0     C92716   4.141   8.989   5.373  0.3773 -0.1570 -0.2705
  703MOL0     C92717   4.221   9.070   5.446 -0.1418  0.3301 -0.0564
  703MOL0     C92718   4.487   9.381   5.621  0.5646 -0.0487 -0.4839
  703MOL0     C92719   4.611   9.389   5.550  0.2771 -0.8489  0.0268
  703MOL0     C92720   4.706   9.485   5.588  0.1870 -0.5673 -0.2009
  703MOL0     C92721   4.679   9.562   5.703  0.3109  1.2900 -0.4005
  703MOL0     O92722   4.757   9.669   5.735  0.4458  0.0851 -0.0008
  703MOL0     C92723   4.857   9.717   5.646 -0.0193 -0.7375 -0.0237
  703MOL0     C92724   4.912   9.844   5.727 -0.0197 -0.1417  0.2230
  703MOL0     C92725   4.991   9.798   5.850 -0.7339  0.3493 -0.4076
  703MOL0     C92726   5.029   9.904   5.947 -0.1365 -0.0365 -0.1848
  703MOL0     C92727   4.923   9.990   5.992  0.7741 -0.4315 -0.0596
  703MOL0     C92728   4.849  10.065   6.047 -0.2176  0.4256  0.3405
  703MOL0     C92729   4.557   9.552   5.775 -0.0494  0.3161 -0.1380
  703MOL0     C92730   4.455   9.464   5.730 -1.1455  0.4329  0.2889
  703MOL0     H92731   4.362   9.238   5.189  0.9478  0.1587  0.2997
  703MOL0     H92732   4.240   9.082   5.060  1.9759 -0.0208  0.1259
  703MOL0     H92733   4.123   8.738   5.064 -2.3417 -0.8669 -1.6526
  703MOL0     H92734   4.142   8.894   4.976  0.7102  0.9856  1.1589
  703MOL0     H92735   3.975   8.794   4.862  0.9919 -0.7262  0.5729
  703MOL0     H92736   3.885   8.887   4.972  1.5916  1.9852  0.4474
  703MOL0     H92737   3.867   8.679   5.123 -2.2536 -0.2136  0.1694
  703MOL0     H92738   3.955   8.591   4.986  1.1257  1.6067 -1.5854
  703MOL0     H92739   3.692   8.718   4.948  2.1077  1.0435  3.2923
  703MOL0     H92740   3.773   8.608   4.836 -0.5465  0.1250 -0.3229
  703MOL0     H92741   3.701   8.516   5.117  3.0544  0.9155 -0.7304
  703MOL0     H92742   3.768   8.421   4.984 -1.0517 -2.6601  3.2184
  703MOL0     H92743   3.558   8.476   4.842 -3.7232 -2.2120  0.2728
  703MOL0     H92744   3.502   8.571   4.992  1.0234  0.8474  1.5525
  703MOL0     H92745   3.530   8.268   4.933  0.7559 -0.5991  2.2684
  703MOL0     H92746   3.532   8.333   5.092  1.3958  2.5588  1.0577
  703MOL0     H92747   3.308   8.391   4.890 -1.1392 -0.8869  0.3803
  703MOL0     H92748   3.290   8.424   5.055 -0.8113  1.1910 -2.0813
  703MOL0     H92749   3.290   8.226   5.242  2.0676  2.3629 -1.5048
  703MOL0     H92750   3.229   7.976   5.320 -1.9533 -1.1999  1.1475
  703MOL0     H92751   3.195   7.865   5.179  2.0220  0.9441 -1.2982
  703MOL0     H92752   2.974   7.935   5.165 -2.1271  1.6747 -0.0201
  703MOL0     H92753   3.007   8.075   5.280 -0.2919  0.8418 -1.0009
  703MOL0     H92754   3.024   7.768   5.350 -4.4440 -2.3888  1.9683
  703MOL0     H92755   3.018   7.915   5.461  1.8115 -1.0327 -0.4049
  703MOL0     H92756   2.807   7.808   5.267  1.6492 -1.8221 -0.5168
  703MOL0     H92757   2.795   7.942   5.387  0.6835  0.5668  1.4531
  703MOL0     H92758   2.761   7.580   5.662  0.3418 -0.9099  0.9824
  703MOL0     H92759   2.563   7.513   5.749  4.2212 -0.2284 -0.4570
  703MOL0     H92760   2.024   7.562   5.511 -3.6480 -0.7365 -0.3470
  703MOL0     H92761   1.818   7.457   5.631  0.4385 -1.7126  2.4951
  703MOL0     H92762   1.791   7.481   6.041  0.1276 -0.7633 -0.5025
  703MOL0     H92763   1.645   7.386   5.988 -0.3264  0.7862  1.1161
  703MOL0     H92764   1.519   7.580   5.956  0.8597  0.2764 -0.3160
  703MOL0     H92765   1.649   7.680   6.027  1.5588 -0.8665  0.4912
  703MOL0     H92766   1.626   7.558   6.251 -1.3815 -0.2715  1.4131
  703MOL0     H92767   1.504   7.452   6.177 -1.2446  0.7162 -1.5209
  703MOL0     H92768   1.485   7.760   6.228 -1.9419  2.3117 -1.1576
  703MOL0     H92769   1.380   7.674   6.123 -2.3605  1.6301  1.8154
  703MOL0     H92770   1.326   7.716   6.390 -2.3307 -0.7988  0.8791
  703MOL0     H92771   1.410   7.567   6.407 -1.6100 -1.1517  0.1070
  703MOL0     H92772   1.205   7.489   6.389 -0.7941  0.7321  1.5316
  703MOL0     H92773   1.231   7.482   6.212 -1.0662 -0.7372  0.6343
  703MOL0     H92774   1.102   7.698   6.373  3.1018 -0.1366  1.4612
  703MOL0     H92775   1.150   7.697   6.194 -0.6443  1.1562  0.6172
  703MOL0     H92776   1.001   7.515   6.154  0.9635  2.3082 -0.5583
  703MOL0     H92777   0.901   7.638   6.230 -0.8040  0.0219 -0.6274
  703MOL0     H92778   1.896   7.667   5.988  0.7433 -3.6108  1.1389
  703MOL0     H92779   2.097   7.763   5.892  0.7644  0.6531 -1.6316
  703MOL0     H92780   2.361   7.785   5.449 -0.4767  1.7748  2.5313
  703MOL0     H92781   2.585   7.830   5.360  0.0365  0.7827  0.1453
  703MOL0     H92782   4.070   8.915   5.409  1.4454 -2.1402 -2.0651
  703MOL0     H92783   4.222   9.058   5.554 -0.2173 -0.6045 -0.1539
  703MOL0     H92784   4.636   9.322   5.468 -0.7840  0.9438 -1.8385
  703MOL0     H92785   4.803   9.496   5.542 -0.1791 -1.2930 -1.1848
  703MOL0     H92786   4.815   9.740   5.548  0.3005  0.2403  0.0527
  703MOL0     H92787   4.940   9.646   5.637 -2.2530 -3.6587  0.8605
  703MOL0     H92788   4.969   9.911   5.662  0.8944 -0.6355  0.4996
  703MOL0     H92789   4.815   9.890   5.751 -0.3824 -0.6794 -0.1781
  703MOL0     H92790   5.090   9.764   5.817  0.1330  1.9488  0.4145
  703MOL0     H92791   4.952   9.707   5.896  4.3090 -1.9114  0.0461
  703MOL0     H92792   5.073   9.859   6.036  1.5437 -0.5881 -1.2454
  703MOL0     H92793   5.107   9.967   5.903  1.1910  0.8667  3.1736
  703MOL0     H92794   4.786  10.134   6.100  0.2489  0.3305  1.0369
  703MOL0     H92795   4.553   9.589   5.876 -0.3807 -0.8556  0.2974
  703MOL0     H92796   4.370   9.454   5.796  1.0338 -2.3279  2.9919
  704MOL0     O92797   4.036   3.167   8.417  0.5352  0.9377  0.0896
  704MOL0     C92798   4.048   3.085   8.506  0.5475 -0.4992  0.6977
  704MOL0     O92799   3.973   2.975   8.529  0.6989 -0.5444 -0.6441
  704MOL0     C92800   3.890   2.925   8.430 -0.5411 -0.8180 -0.1400
  704MOL0     C92801   3.777   2.853   8.468  0.1418  0.0042  0.3446
  704MOL0     C92802   3.686   2.789   8.377 -0.4207 -0.1159 -0.3782
  704MOL0     C92803   3.705   2.816   8.235  0.9588  0.8243 -0.3692
  704MOL0     O92804   3.611   2.792   8.140  0.4309 -0.0857  0.4069
  704MOL0     C92805   3.488   2.727   8.184 -0.0798  0.1870  0.5482
  704MOL0     C92806   3.402   2.692   8.068 -0.2271  0.6238 -0.0527
  704MOL0     C92807   3.369   2.807   7.971  0.0596 -0.5882 -0.5638
  704MOL0     C92808   3.260   2.753   7.883  0.0475  0.6493  0.7453
  704MOL0     C92809   3.224   2.841   7.762 -0.4257  1.0332 -0.5093
  704MOL0     C92810   3.112   2.780   7.669 -0.2673 -0.1928 -0.7978
  704MOL0     C92811   3.088   2.852   7.536  0.4671  0.0389 -0.6794
  704MOL0     C92812   3.184   2.799   7.433  0.4863 -0.6096 -0.5092
  704MOL0     N92813   3.130   2.677   7.370  0.4886 -0.5086  0.2321
  704MOL0     C92814   3.190   2.551   7.376 -0.0045  0.1174  0.4102
  704MOL0     C92815   3.115   2.475   7.294  0.2649 -0.6917 -0.9276
  704MOL0     C92816   3.125   2.325   7.269  0.3782 -0.6401 -0.3288
  704MOL0     C92817   2.987   2.248   7.260 -0.0923  0.0519 -0.3744
  704MOL0     C92818   3.011   2.107   7.253 -0.3990  0.5163 -0.5979
  704MOL0     C92819   3.117   2.062   7.152  0.3443  0.0455 -0.5563
  704MOL0     O92820   3.067   2.122   7.029  0.1235 -0.2709  0.2734
  704MOL0     C92821   2.970   2.051   6.965 -0.5442 -0.3732 -0.0071
  704MOL0     C92822   2.876   2.145   6.907  0.0008  0.7979 -0.3940
  704MOL0     C92823   2.778   2.092   6.823 -0.3816 -0.0826  0.2596
  704MOL0     C92824   2.758   1.954   6.806 -0.1946  0.2185 -0.1447
  704MOL0     C92825   2.651   1.890   6.728  0.4386  0.7469 -0.4866
  704MOL0     O92826   2.669   1.759   6.693 -0.3601  0.2260 -0.3136
  704MOL0     C92827   2.597   1.714   6.593  0.0962 -0.6123  1.1221
  704MOL0     C92828   2.623   1.737   6.463 -0.0897  0.2890  0.2107
  704MOL0     C92829   2.537   1.681   6.357  0.2386  0.2943 -0.7556
  704MOL0     C92830   2.433   1.597   6.397  0.2086 -0.7473 -0.2657
  704MOL0     O92831   2.336   1.549   6.312  0.1762  0.1949 -0.2320
  704MOL0     C92832   2.382   1.484   6.195 -0.5794 -0.0704  0.3090
  704MOL0     C92833   2.267   1.405   6.136  0.2755 -0.1748 -0.0413
  704MOL0     C92834   2.197   1.316   6.242 -0.3011 -0.1855  0.5811
  704MOL0     C92835   2.281   1.194   6.265  0.4237  0.2849  0.3059
  704MOL0     C92836   2.242   1.099   6.379  0.3646  0.4022 -0.2409
  704MOL0     C92837   2.101   1.044   6.357  0.2796  0.3942 -0.6773
  704MOL0     C92838   2.071   0.936   6.462  0.3365  0.2785 -0.0200
  704MOL0     C92839   1.961   0.832   6.425 -0.2120  0.1473  0.4813
  704MOL0    Cl92840   1.966   0.711   6.550 -0.5586 -0.0170  0.2208
  704MOL0     C92841   2.404   1.583   6.531  0.4310 -0.1923  0.3636
  704MOL0     C92842   2.487   1.645   6.627  0.1602  0.5339 -0.0736
  704MOL0     O92843   2.557   1.956   6.693  0.2196  0.0486  0.1132
  704MOL0     C92844   2.852   1.871   6.873  0.4230  0.2139 -0.5155
  704MOL0     C92845   2.961   1.908   6.955  0.2881 -0.3362  0.3056
  704MOL0     N92846   3.007   2.553   7.252 -0.2061 -0.0450 -0.1937
  704MOL0     N92847   3.020   2.675   7.289  0.0925  0.2923 -0.3537
  704MOL0     C92848   3.819   2.881   8.198  0.7288 -0.3587 -0.2280
  704MOL0     C92849   3.906   2.936   8.293 -0.5353  0.2635 -0.1846
  704MOL0     C92850   4.156   3.108   8.606  0.1903  0.6314  0.4580
  704MOL0     C92851   4.183   3.022   8.713 -0.3779 -0.2175  0.4602
  704MOL0     C92852   4.284   3.050   8.805 -0.6509  0.0927  0.2918
  704MOL0     C92853   4.366   3.161   8.782 -0.3140 -1.0434  0.3552
  704MOL0     O92854   4.465   3.181   8.872  0.0639  0.5580  0.2308
  704MOL0     C92855   4.594   3.181   8.815 -0.5803 -0.2152  0.2747
  704MOL0     C92856   4.702   3.123   8.905 -0.4858  0.0982 -0.1479
  704MOL0     C92857   4.846   3.134   8.848  0.0922 -0.3021  1.1292
  704MOL0     C92858   4.899   3.283   8.824 -0.5082 -0.4054 -0.9265
  704MOL0     C92859   5.026   3.290   8.753 -0.2059 -0.5628  1.1724
  704MOL0     C92860   5.126   3.285   8.695 -0.4122  0.1631 -0.0363
  704MOL0     C92861   4.342   3.248   8.670 -0.0787  0.1080  0.3227
  704MOL0     C92862   4.240   3.213   8.577  0.3722  0.1866  0.4284
  704MOL0     H92863   3.766   2.832   8.574  1.0128  0.1016  0.4668
  704MOL0     H92864   3.596   2.743   8.416  0.6548  0.0305  2.5111
  704MOL0     H92865   3.445   2.804   8.249 -1.0158  0.0482  0.1035
  704MOL0     H92866   3.510   2.633   8.235 -1.0137 -1.1417 -1.3375
  704MOL0     H92867   3.315   2.651   8.119  0.5827 -0.1882  0.7273
  704MOL0     H92868   3.453   2.613   8.011 -2.6614  0.8625 -2.7591
  704MOL0     H92869   3.452   2.838   7.907 -0.4528  0.1760 -0.8724
  704MOL0     H92870   3.336   2.895   8.026  2.4775 -1.6820  3.0040
  704MOL0     H92871   3.281   2.652   7.846  2.3013  1.7621 -1.2219
  704MOL0     H92872   3.167   2.740   7.940  1.0318 -2.8290  1.8191
  704MOL0     H92873   3.316   2.875   7.716  1.0035  0.5843  1.8266
  704MOL0     H92874   3.176   2.927   7.809 -0.5623  0.2545  0.8396
  704MOL0     H92875   3.018   2.764   7.723  0.0637 -0.3383 -0.2651
  704MOL0     H92876   3.162   2.685   7.650 -3.0083 -1.8690 -0.2538
  704MOL0     H92877   2.987   2.832   7.499  0.0721  0.8204 -0.0594
  704MOL0     H92878   3.087   2.961   7.544  1.0383 -0.0048  0.1082
  704MOL0     H92879   3.280   2.791   7.484 -0.1614  1.4551  1.1846
  704MOL0     H92880   3.204   2.882   7.364  2.3795 -1.0072 -0.4882
  704MOL0     H92881   3.275   2.519   7.436  1.2452  0.3973 -1.1399
  704MOL0     H92882   3.186   2.270   7.341  1.0480 -0.7220 -0.9493
  704MOL0     H92883   3.172   2.316   7.171  0.1625  0.5835 -0.5563
  704MOL0     H92884   2.938   2.287   7.171 -2.4450 -0.2026  0.7387
  704MOL0     H92885   2.919   2.263   7.345 -0.9047  0.4779 -1.0870
  704MOL0     H92886   3.042   2.081   7.354 -2.5668 -2.1371 -0.5199
  704MOL0     H92887   2.921   2.049   7.232  1.4774 -2.3048 -1.4105
  704MOL0     H92888   3.121   1.953   7.154  2.3814  0.0817 -0.9730
  704MOL0     H92889   3.212   2.101   7.188  0.5005  1.2403 -2.1897
  704MOL0     H92890   2.885   2.252   6.922 -0.1041  0.5970  1.2524
  704MOL0     H92891   2.715   2.172   6.787  0.2688  1.2302  1.8819
  704MOL0     H92892   2.703   1.803   6.431 -1.4191  1.7951 -0.1151
  704MOL0     H92893   2.558   1.702   6.252  2.8803  1.2020 -0.1346
  704MOL0     H92894   2.463   1.413   6.212 -1.4851 -1.4181 -0.7686
  704MOL0     H92895   2.417   1.552   6.117  0.1164 -0.6984  0.0520
  704MOL0     H92896   2.293   1.347   6.048  0.5002  0.5485 -0.4564
  704MOL0     H92897   2.197   1.475   6.090 -0.5160 -2.3343 -2.3287
  704MOL0     H92898   2.099   1.282   6.208 -1.9921  3.2471  1.5048
  704MOL0     H92899   2.182   1.371   6.335  0.4166  0.9118  0.0744
  704MOL0     H92900   2.281   1.146   6.166 -1.3074  1.6785 -0.4180
  704MOL0     H92901   2.388   1.218   6.275  1.1786 -2.2171 -0.8624
  704MOL0     H92902   2.239   1.157   6.471 -3.3826  0.6442 -0.3802
  704MOL0     H92903   2.319   1.021   6.375  0.4532  0.5005 -0.4901
  704MOL0     H92904   2.091   1.009   6.254  2.3308  3.4015 -2.0640
  704MOL0     H92905   2.028   1.125   6.367  0.1216  0.2159 -0.3951
  704MOL0     H92906   2.165   0.883   6.476  1.1988  2.2526  2.7203
  704MOL0     H92907   2.044   0.977   6.560 -3.6041 -1.1176 -0.3290
  704MOL0     H92908   1.973   0.785   6.327  0.4178  0.0555  0.6021
  704MOL0     H92909   1.865   0.886   6.424  1.0807  2.7535 -2.4655
  704MOL0     H92910   2.308   1.540   6.556  0.3633  0.7878  1.9906
  704MOL0     H92911   2.455   1.652   6.730 -2.0401 -1.5824 -0.5190
  704MOL0     H92912   2.841   1.763   6.877  1.2981  0.1470  0.9592
  704MOL0     H92913   3.034   1.840   6.997  2.0649  0.5792 -1.1311
  704MOL0     H92914   3.836   2.888   8.091  0.8670  1.1312 -0.1301
  704MOL0     H92915   3.991   2.996   8.264 -0.2251 -0.1469 -0.1293
  704MOL0     H92916   4.115   2.938   8.724 -0.5538  0.0411  1.4419
  704MOL0     H92917   4.307   2.973   8.878  0.0509  0.8482  0.8814
  704MOL0     H92918   4.627   3.284   8.796  1.8685 -1.1115 -0.7836
  704MOL0     H92919   4.603   3.131   8.718  1.1186 -0.5742  0.5740
  704MOL0     H92920   4.697   3.185   8.995  1.5079 -1.9814  1.5043
  704MOL0     H92921   4.663   3.024   8.928  0.1765  0.2435  1.8341
  704MOL0     H92922   4.849   3.075   8.756 -0.7263  0.6753  0.4363
  704MOL0     H92923   4.905   3.078   8.920 -0.3460  0.4528  2.0977
  704MOL0     H92924   4.823   3.355   8.793  0.6880  0.3649 -2.2271
  704MOL0     H92925   4.920   3.336   8.918  0.1501 -0.6965 -0.9034
  704MOL0     H92926   5.223   3.268   8.653  1.4184  2.7968  2.7534
  704MOL0     H92927   4.400   3.338   8.652 -0.3013  0.0341 -0.8603
  704MOL0     H92928   4.245   3.278   8.489  4.4830  0.7404  0.8940
  705MOL0     O92929   7.342   8.817   4.919  0.7057 -0.0901 -0.2485
  705MOL0     C92930   7.445   8.811   4.983 -0.4534 -0.9441  0.0757
  705MOL0     O92931   7.458   8.762   5.112 -0.6054 -0.1507 -0.6745
  705MOL0     C92932   7.345   8.743   5.187 -0.8120  0.2976 -0.8495
  705MOL0     C92933   7.304   8.850   5.272  0.3778  0.0995 -0.3271
  705MOL0     C92934   7.192   8.842   5.362 -0.3798 -0.4464 -0.2886
  705MOL0     C92935   7.132   8.716   5.384  0.3614 -0.1411 -0.5947
  705MOL0     O92936   7.030   8.705   5.486  0.9809 -0.0721 -0.3921
  705MOL0     C92937   6.980   8.576   5.530  0.1800  0.4576 -0.1174
  705MOL0     C92938   6.865   8.540   5.431 -0.3249  0.8693  0.1310
  705MOL0     C92939   6.749   8.481   5.516 -1.0594  0.0232 -0.1644
  705MOL0     C92940   6.653   8.414   5.411 -0.7949  0.2995 -0.0056
  705MOL0     C92941   6.548   8.321   5.480  0.1033  0.1657  0.3488
  705MOL0     C92942   6.471   8.406   5.589  1.0423 -0.0326  0.5148
  705MOL0     C92943   6.379   8.529   5.534 -1.3138 -0.2629 -0.1488
  705MOL0     C92944   6.283   8.484   5.426  0.8316 -0.2267  0.7547
  705MOL0     N92945   6.209   8.360   5.459 -0.1914  0.1027 -0.1172
  705MOL0     C92946   6.203   8.245   5.379 -0.3709 -0.1483 -0.0894
  705MOL0     C92947   6.137   8.156   5.452  0.8869 -0.3907 -0.0094
  705MOL0     C92948   6.091   8.018   5.418 -0.3845 -0.2768 -0.7420
  705MOL0     C92949   5.968   8.028   5.311  0.0263 -0.1827 -0.3226
  705MOL0     C92950   5.931   7.884   5.269  0.1327 -0.8251  0.2381
  705MOL0     C92951   5.788   7.862   5.237 -0.0842  0.4824 -0.8201
  705MOL0     O92952   5.714   7.856   5.351  0.0018  0.6517 -0.5077
  705MOL0     C92953   5.584   7.812   5.341 -0.6524 -0.2011  0.1062
  705MOL0     C92954   5.524   7.763   5.223  0.6996 -0.0937  0.0584
  705MOL0     C92955   5.389   7.725   5.208 -0.1714 -0.6363 -0.6561
  705MOL0     C92956   5.302   7.737   5.323  0.0969 -0.0151  0.5924
  705MOL0     C92957   5.167   7.690   5.325 -0.8764 -0.6933 -0.3631
  705MOL0     O92958   5.116   7.668   5.452  0.5039 -0.0870  0.1388
  705MOL0     C92959   4.984   7.623   5.459  0.9365 -0.0906  0.3685
  705MOL0     C92960   4.887   7.688   5.543 -0.3541 -0.0156  0.1057
  705MOL0     C92961   4.765   7.624   5.559  0.7155  0.0387  0.3411
  705MOL0     C92962   4.723   7.510   5.495  0.7134 -0.0514  0.3151
  705MOL0     O92963   4.587   7.473   5.490  0.5611  0.0651 -0.5604
  705MOL0     C92964   4.537   7.407   5.370  0.4050 -0.0005 -0.2837
  705MOL0     C92965   4.408   7.329   5.394  0.1699 -0.5123  0.5320
  705MOL0     C92966   4.355   7.279   5.260  0.1147  0.3351  0.0123
  705MOL0     C92967   4.237   7.187   5.273 -1.0652 -0.2363 -0.0837
  705MOL0     C92968   4.112   7.251   5.337 -0.0301 -0.1905 -0.8649
  705MOL0     C92969   4.003   7.148   5.359  0.1300  0.0640 -0.5986
  705MOL0     C92970   3.937   7.085   5.232  0.0529  0.1078  0.8673
  705MOL0     C92971   3.863   7.184   5.139  0.1160  0.1145  0.0972
  705MOL0    Cl92972   3.707   7.208   5.217 -0.4607 -0.0147 -0.0695
  705MOL0     C92973   4.825   7.438   5.429 -0.4335  0.0888  0.3269
  705MOL0     C92974   4.958   7.492   5.415  0.9542 -0.2816 -0.0847
  705MOL0     O92975   5.119   7.671   5.218  0.0034 -0.0360  0.1812
  705MOL0     C92976   5.363   7.791   5.443  0.4619  0.0083 -0.1715
  705MOL0     C92977   5.500   7.821   5.450  0.7451 -1.3427  0.2730
  705MOL0     N92978   6.103   8.218   5.572 -0.1091  0.1821 -0.3504
  705MOL0     N92979   6.135   8.345   5.568 -0.8463 -0.0231  0.0937
  705MOL0     C92980   7.179   8.605   5.311 -0.2338 -0.0079  0.4156
  705MOL0     C92981   7.282   8.621   5.216 -0.4101  0.1597 -0.4320
  705MOL0     C92982   7.564   8.856   4.920 -0.1373 -0.7772 -0.1576
  705MOL0     C92983   7.687   8.855   4.992  0.1472  1.1035  0.1060
  705MOL0     C92984   7.804   8.904   4.928 -0.4313  0.4781  0.1434
  705MOL0     C92985   7.794   8.957   4.799 -0.9026  0.0126 -0.8294
  705MOL0     O92986   7.904   8.988   4.721 -0.0941  0.0629  0.2075
  705MOL0     C92987   8.029   9.021   4.793  0.1213 -0.7208  0.5363
  705MOL0     C92988   8.131   9.084   4.697 -0.4824 -0.8984 -0.4769
  705MOL0     C92989   8.115   9.054   4.547  0.0279 -0.4343 -0.2225
  705MOL0     C92990   8.241   9.077   4.471 -0.0955 -0.2401  0.2658
  705MOL0     C92991   8.349   9.164   4.531  0.8562  0.4036 -1.0568
  705MOL0     C92992   8.432   9.239   4.577  0.6324 -0.0220 -0.8121
  705MOL0     C92993   7.676   8.965   4.733 -0.1317 -0.0246 -0.0627
  705MOL0     C92994   7.563   8.924   4.797 -0.0842  0.0120  0.8128
  705MOL0     H92995   7.350   8.946   5.251 -3.4033  1.9149 -0.9611
  705MOL0     H92996   7.152   8.929   5.412  0.7734 -1.7123  3.0921
  705MOL0     H92997   6.939   8.600   5.629 -0.9243  1.3428 -0.7702
  705MOL0     H92998   7.057   8.499   5.532  0.6129  0.7350  4.3102
  705MOL0     H92999   6.901   8.465   5.360  0.2195 -0.6234  1.9006
  705MOL0     H93000   6.830   8.626   5.372  0.1251 -0.4437 -2.1660
  705MOL0     H93001   6.693   8.562   5.564 -0.5182 -0.0737  0.6599
  705MOL0     H93002   6.788   8.411   5.590  0.4601 -2.5744 -3.1771
  705MOL0     H93003   6.597   8.490   5.355  3.8904  3.2103 -1.2550
  705MOL0     H93004   6.714   8.360   5.338  0.1279 -0.2816  1.1761
  705MOL0     H93005   6.606   8.241   5.528  1.7317  3.1213  3.9002
  705MOL0     H93006   6.471   8.284   5.412 -1.5285 -0.3847  2.3875
  705MOL0     H93007   6.543   8.435   5.666 -0.0422 -1.2752  2.0791
  705MOL0     H93008   6.420   8.326   5.644  1.3527 -1.1894 -0.8012
  705MOL0     H93009   6.313   8.561   5.615 -2.3738 -2.3481 -0.1051
  705MOL0     H93010   6.442   8.611   5.501 -3.1753  2.1725  1.9427
  705MOL0     H93011   6.343   8.469   5.335  1.5040  1.2315  0.9189
  705MOL0     H93012   6.217   8.566   5.395  2.6434  0.9499 -0.1945
  705MOL0     H93013   6.230   8.230   5.275 -0.7737  1.6250 -0.4693
  705MOL0     H93014   6.042   7.974   5.506 -1.2347  0.3283 -0.8968
  705MOL0     H93015   6.166   7.948   5.380  1.1190 -0.1685  1.8209
  705MOL0     H93016   5.998   8.075   5.217 -0.4249 -2.9342 -1.9559
  705MOL0     H93017   5.883   8.075   5.363  2.0218  2.1165  1.0688
  705MOL0     H93018   5.989   7.870   5.178  1.8957 -0.3900  1.2424
  705MOL0     H93019   5.968   7.815   5.346  3.2466 -0.5758 -0.8900
  705MOL0     H93020   5.785   7.768   5.180  0.3340 -0.3750  0.5172
  705MOL0     H93021   5.740   7.946   5.185  1.1393  3.2889  2.2562
  705MOL0     H93022   5.571   7.766   5.125 -0.9630  0.5281 -0.7494
  705MOL0     H93023   5.352   7.681   5.116 -0.4328  1.2278 -1.4882
  705MOL0     H93024   4.908   7.777   5.602 -1.0247 -1.2313  2.3104
  705MOL0     H93025   4.689   7.675   5.618 -1.0495  0.0508 -1.8340
  705MOL0     H93026   4.616   7.342   5.331  1.9256  0.9651  1.0561
  705MOL0     H93027   4.520   7.488   5.299 -1.5398 -0.0193  0.1061
  705MOL0     H93028   4.336   7.398   5.440 -1.9744 -1.8125 -0.7048
  705MOL0     H93029   4.419   7.251   5.470 -0.1616 -0.5233  0.5709
  705MOL0     H93030   4.437   7.218   5.219  0.5467 -0.4485  1.9429
  705MOL0     H93031   4.333   7.362   5.192 -2.9396 -1.9643 -2.0636
  705MOL0     H93032   4.207   7.151   5.175 -1.5239  1.9187 -0.7682
  705MOL0     H93033   4.252   7.100   5.338 -1.4915 -1.1029 -1.1137
  705MOL0     H93034   4.088   7.336   5.273  0.0698  0.0047 -0.6453
  705MOL0     H93035   4.130   7.300   5.433 -2.8145  1.0705 -0.8991
  705MOL0     H93036   3.923   7.188   5.424 -2.5546 -2.6136 -2.0023
  705MOL0     H93037   4.046   7.059   5.406  1.1207  0.8506  0.0279
  705MOL0     H93038   4.010   7.029   5.173 -0.0163  0.6999  0.1993
  705MOL0     H93039   3.867   7.006   5.261 -1.1197 -0.6139 -3.1776
  705MOL0     H93040   3.833   7.146   5.041 -0.5488  0.6056  0.0982
  705MOL0     H93041   3.918   7.276   5.120  1.3720 -0.2565  1.7022
  705MOL0     H93042   4.809   7.342   5.383  0.8460 -0.3740  0.7968
  705MOL0     H93043   5.032   7.431   5.366  1.4915  0.4481 -0.1950
  705MOL0     H93044   5.306   7.811   5.533 -0.4642 -0.6899 -0.5791
  705MOL0     H93045   5.534   7.866   5.543 -1.5270 -0.5008  0.7486
  705MOL0     H93046   7.145   8.504   5.332  1.1606 -0.7600 -0.7416
  705MOL0     H93047   7.323   8.536   5.161 -1.7859  1.1050 -3.1082
  705MOL0     H93048   7.683   8.821   5.096  2.0415  1.5952  0.3695
  705MOL0     H93049   7.899   8.909   4.980 -0.5397 -0.2202  0.4203
  705MOL0     H93050   8.071   8.932   4.841 -0.3865 -4.1335 -4.5894
  705MOL0     H93051   8.011   9.107   4.858  1.3418  0.0168 -0.0500
  705MOL0     H93052   8.144   9.190   4.718  0.2723 -0.6380 -2.1639
  705MOL0     H93053   8.224   9.030   4.714 -0.9284 -2.0396 -1.5580
  705MOL0     H93054   8.040   9.125   4.511  0.9559  0.4448 -0.4610
  705MOL0     H93055   8.080   8.951   4.532  1.2585 -0.9718  0.4336
  705MOL0     H93056   8.292   8.985   4.441  2.7497  0.8718  1.3576
  705MOL0     H93057   8.209   9.113   4.372  1.0851 -1.2772 -0.5291
  705MOL0     H93058   8.506   9.309   4.613 -1.4476  1.1795  1.4809
  705MOL0     H93059   7.676   9.006   4.633  2.2908  0.8542  0.2224
  705MOL0     H93060   7.470   8.930   4.740 -1.2413  0.5728  2.6699
  706MOL0     O93061   8.883  10.308   0.611 -0.1105  0.6640 -0.6414
  706MOL0     C93062   8.890  10.183   0.595  0.5666 -0.0509 -0.2075
  706MOL0     O93063   9.000  10.109   0.588 -0.4317  0.1265 -0.2489
  706MOL0     C93064   9.127  10.160   0.602 -0.8880  0.3461 -0.3734
  706MOL0     C93065   9.172  10.293   0.575 -0.0345 -0.6613 -0.1633
  706MOL0     C93066   9.308  10.335   0.595 -0.1137  1.0170 -0.3393
  706MOL0     C93067   9.404  10.223   0.628 -0.0502 -0.1042 -1.0886
  706MOL0     O93068   9.538  10.262   0.625 -0.0296 -0.0466  0.0599
  706MOL0     C93069   9.579  10.352   0.734  0.0007  0.4750 -0.6215
  706MOL0     C93070   9.719  10.412   0.710  0.3495 -0.1605  0.4453
  706MOL0     C93071   9.727  10.541   0.635  0.2484 -0.3433  0.4659
  706MOL0     C93072   9.865  10.607   0.630  0.3912 -0.6317  0.0168
  706MOL0     C93073   9.869  10.736   0.552  0.6793  0.5064  0.4098
  706MOL0     C93074  10.020  10.788   0.563  0.7969  0.4508 -0.7385
  706MOL0     C93075  10.054  10.901   0.475 -0.6481 -0.9925 -0.2472
  706MOL0     C93076   9.981  11.034   0.505  0.1148  1.1148  0.4051
  706MOL0     N93077  10.059  11.150   0.463  0.3974 -0.0869  0.8321
  706MOL0     C93078  10.187  11.193   0.491 -0.6708  0.1952  0.5860
  706MOL0     C93079  10.204  11.324   0.450 -0.1563 -0.1715 -0.1438
  706MOL0     C93080  10.326  11.396   0.455 -1.0165 -0.0346  1.3302
  706MOL0     C93081  10.442  11.331   0.394  0.4653  0.3441 -0.3489
  706MOL0     C93082  10.528  11.248   0.492  0.0021  0.2266  0.2039
  706MOL0     C93083  10.664  11.210   0.424  0.9948  0.5143 -0.4850
  706MOL0     O93084  10.716  11.101   0.489  0.6812  0.1873  0.3963
  706MOL0     C93085  10.801  11.018   0.422  0.8264 -0.6994 -0.5897
  706MOL0     C93086  10.816  10.993   0.286 -0.0348  0.2297  0.4313
  706MOL0     C93087  10.921  10.903   0.246 -0.2607 -0.1314 -0.4596
  706MOL0     C93088  11.010  10.854   0.340 -1.2514  0.6628 -0.2408
  706MOL0     C93089  11.120  10.757   0.301 -0.4638  0.7380 -0.5874
  706MOL0     O93090  11.144  10.745   0.170 -0.0505  0.5394 -0.5058
  706MOL0     C93091  11.244  10.654   0.133 -0.0197  1.1610  0.0466
  706MOL0     C93092  11.213  10.537   0.063 -0.2284  0.3834  0.5316
  706MOL0     C93093  11.299  10.438   0.031 -0.1360  1.5390  0.1761
  706MOL0     C93094  11.436  10.460   0.050 -0.3553  0.3623  0.1942
  706MOL0     O93095  11.517  10.352   0.008 -0.7001 -0.4060  0.0126
  706MOL0     C93096  11.649  10.382  -0.026  0.2905  0.3402  0.4424
  706MOL0     C93097  11.664  10.470  -0.157  0.0049 -0.0581  0.8682
  706MOL0     C93098  11.800  10.438  -0.223  0.3666 -0.6377  0.0717
  706MOL0     C93099  11.788  10.424  -0.375  1.4073  0.7821 -0.9725
  706MOL0     C93100  11.916  10.390  -0.457  0.3905  0.5243 -0.2954
  706MOL0     C93101  12.022  10.496  -0.426  0.4943 -0.4250  0.6313
  706MOL0     C93102  12.136  10.489  -0.524 -0.1885 -0.0196  0.1846
  706MOL0     C93103  12.257  10.581  -0.482 -0.3770 -0.6182 -0.3057
  706MOL0    Cl93104  12.216  10.741  -0.421 -0.6518  0.2488 -0.0154
  706MOL0     C93105  11.478  10.562   0.132 -0.0216 -0.1768 -0.9306
  706MOL0     C93106  11.381  10.664   0.172  0.7558  0.5504  0.2500
  706MOL0     O93107  11.173  10.691   0.388  0.5497  0.1332  0.6379
  706MOL0     C93108  10.999  10.882   0.477  0.2201 -0.6636  0.3657
  706MOL0     C93109  10.890  10.961   0.512  0.4617  0.1401 -0.4270
  706MOL0     N93110  10.085  11.362   0.395  0.2810 -0.8740  0.6520
  706MOL0     N93111  10.007  11.258   0.399  0.2138 -0.2699 -0.0400
  706MOL0     C93112   9.360  10.106   0.681 -0.1688  0.6037 -0.3444
  706MOL0     C93113   9.218  10.075   0.664  0.2076  0.4517 -0.2915
  706MOL0     C93114   8.760  10.117   0.592 -0.5143  0.1971  0.5323
  706MOL0     C93115   8.753   9.975   0.581  0.8238  0.0063 -0.6347
  706MOL0     C93116   8.635   9.910   0.615 -0.4193 -0.7397  0.1535
  706MOL0     C93117   8.516   9.982   0.652 -0.1543 -0.3339  0.3372
  706MOL0     O93118   8.404   9.909   0.676 -0.1072  0.1599  0.2038
  706MOL0     C93119   8.304   9.958   0.766  0.5654  0.1247 -0.3010
  706MOL0     C93120   8.179   9.871   0.755  0.6030 -0.0212 -0.1634
  706MOL0     C93121   8.195   9.718   0.773  1.4837  0.4578  0.1864
  706MOL0     C93122   8.075   9.647   0.712  0.5204  0.8270  0.1983
  706MOL0     C93123   8.084   9.501   0.721 -0.0027  0.1726 -0.4624
  706MOL0     C93124   8.077   9.383   0.741 -0.5468  1.0798  0.3559
  706MOL0     C93125   8.517  10.117   0.654 -0.0726  0.2650  1.4596
  706MOL0     C93126   8.639  10.181   0.613  0.0883 -0.1804  1.0467
  706MOL0     H93127   9.102  10.364   0.533  0.0532 -0.2880  0.3010
  706MOL0     H93128   9.350  10.429   0.562  0.6501  0.5125 -0.8303
  706MOL0     H93129   9.605  10.285   0.817  3.4307 -1.5162 -3.0528
  706MOL0     H93130   9.500  10.423   0.759 -1.8856 -1.6888 -0.0854
  706MOL0     H93131   9.785  10.341   0.660 -0.2960  0.1035 -0.8402
  706MOL0     H93132   9.765  10.436   0.806 -0.0732  1.1541  0.3386
  706MOL0     H93133   9.659  10.614   0.679  0.0985 -0.0115 -0.3001
  706MOL0     H93134   9.677  10.528   0.539 -0.1375 -0.8190  0.7237
  706MOL0     H93135   9.886  10.625   0.736 -1.7014  1.6058  0.1415
  706MOL0     H93136   9.943  10.541   0.589 -0.5170 -0.7999 -1.4852
  706MOL0     H93137   9.798  10.805   0.600 -3.0264 -1.9251 -1.1689
  706MOL0     H93138   9.855  10.724   0.445  2.8631  0.3297  0.0905
  706MOL0     H93139  10.087  10.705   0.538  1.1927  0.9576 -1.4103
  706MOL0     H93140  10.056  10.823   0.661  2.8415 -0.5094 -1.0963
  706MOL0     H93141  10.162  10.916   0.489 -0.8318  0.0055  0.1585
  706MOL0     H93142  10.052  10.874   0.369 -0.6267  3.5738 -1.6361
  706MOL0     H93143   9.973  11.063   0.610  1.9863  3.6038 -0.0278
  706MOL0     H93144   9.883  11.034   0.456  0.6202  4.2729 -0.8773
  706MOL0     H93145  10.253  11.119   0.534 -0.4353 -0.6167 -1.0886
  706MOL0     H93146  10.358  11.437   0.551  0.9012  1.8413 -0.0168
  706MOL0     H93147  10.322  11.491   0.400  1.6348 -1.3183 -1.3646
  706MOL0     H93148  10.508  11.414   0.365 -0.6002  1.0639 -0.7489
  706MOL0     H93149  10.417  11.270   0.307  0.5689  0.8174 -0.7176
  706MOL0     H93150  10.549  11.307   0.582 -2.0999  3.2281 -1.0934
  706MOL0     H93151  10.471  11.157   0.513  1.0950 -0.4590  0.3033
  706MOL0     H93152  10.735  11.293   0.419  1.6143  0.2515  2.4245
  706MOL0     H93153  10.643  11.187   0.319  1.1193  0.8282 -0.5817
  706MOL0     H93154  10.746  11.035   0.215 -1.8053  0.1257  2.0218
  706MOL0     H93155  10.930  10.900   0.138  1.8198  0.1920 -0.3356
  706MOL0     H93156  11.113  10.523   0.023  0.3172  0.3207 -0.8793
  706MOL0     H93157  11.265  10.349  -0.021 -0.7640  1.2817  1.0192
  706MOL0     H93158  11.688  10.281  -0.040 -0.9337 -0.0187 -0.5214
  706MOL0     H93159  11.704  10.420   0.060 -1.2027  2.2883  0.6080
  706MOL0     H93160  11.655  10.576  -0.133 -0.4203  0.2362 -0.5153
  706MOL0     H93161  11.587  10.447  -0.231 -1.7224  0.3115  2.4922
  706MOL0     H93162  11.846  10.350  -0.178  0.2976 -0.0636  1.2856
  706MOL0     H93163  11.860  10.528  -0.207 -1.2193  0.8871 -1.8715
  706MOL0     H93164  11.718  10.342  -0.394  0.3338  1.5490 -0.3866
  706MOL0     H93165  11.743  10.516  -0.413 -0.1052  1.1397  1.4779
  706MOL0     H93166  11.887  10.375  -0.561 -0.5906  0.3524 -0.0164
  706MOL0     H93167  11.948  10.291  -0.422  2.5638  0.4112 -2.4242
  706MOL0     H93168  12.060  10.472  -0.326  1.4690 -3.5927 -0.3799
  706MOL0     H93169  11.976  10.595  -0.435  0.8153 -0.3933 -0.8990
  706MOL0     H93170  12.176  10.387  -0.531  2.9971  1.2153 -1.9118
  706MOL0     H93171  12.096  10.516  -0.622 -1.8097  1.2546  1.1466
  706MOL0     H93172  12.313  10.601  -0.574 -3.5842 -0.0991 -2.3118
  706MOL0     H93173  12.319  10.525  -0.412  0.6153 -0.8321 -1.3263
  706MOL0     H93174  11.580  10.571   0.167 -0.6653 -1.9670  1.7561
  706MOL0     H93175  11.405  10.758   0.222 -0.6298  0.8181  0.4642
  706MOL0     H93176  11.070  10.844   0.549 -1.3489 -2.4205  1.0508
  706MOL0     H93177  10.905  10.973   0.619  0.4337 -1.0328 -0.2852
  706MOL0     H93178   9.418  10.025   0.725 -1.6802 -0.9139 -1.0262
  706MOL0     H93179   9.184   9.983   0.712  2.3142  0.4434  1.3493
  706MOL0     H93180   8.848   9.924   0.564  0.3234 -0.6769 -1.4318
  706MOL0     H93181   8.637   9.802   0.608  1.5176 -0.6284 -2.1168
  706MOL0     H93182   8.277  10.062   0.751  1.2304  0.3826  0.2140
  706MOL0     H93183   8.356   9.954   0.862 -0.9769  2.4997  0.7223
  706MOL0     H93184   8.106   9.910   0.826  0.5653  0.2540 -0.3520
  706MOL0     H93185   8.142   9.891   0.654 -1.4510 -2.7351 -0.0455
  706MOL0     H93186   8.210   9.701   0.880  1.6856 -1.6289 -0.1305
  706MOL0     H93187   8.283   9.683   0.718 -0.5846 -4.5465 -0.5676
  706MOL0     H93188   7.984   9.677   0.764 -0.4321 -1.6448  0.0961
  706MOL0     H93189   8.070   9.674   0.606  3.4843 -0.3929 -0.3531
  706MOL0     H93190   8.059   9.278   0.747  1.2263  0.7812  1.1407
  706MOL0     H93191   8.436  10.182   0.685 -0.9724  0.2483 -0.6578
  706MOL0     H93192   8.642  10.289   0.619 -0.7829 -0.0208 -0.8778
  707MOL0     O93193   2.559   6.993   0.231  0.4150  0.5830  0.1096
  707MOL0     C93194   2.450   6.947   0.196 -0.6769 -0.4549  0.7252
  707MOL0     O93195   2.436   6.860   0.094 -0.0659 -0.2629 -0.3206
  707MOL0     C93196   2.542   6.831   0.022  0.1558  0.1410 -0.3397
  707MOL0     C93197   2.626   6.724   0.047 -0.2208  0.5663  0.3709
  707MOL0     C93198   2.737   6.699  -0.039 -0.5907 -0.5670 -0.6495
  707MOL0     C93199   2.774   6.787  -0.139  0.5998 -0.1189  0.4139
  707MOL0     O93200   2.882   6.742  -0.221 -0.0683  0.2416  0.3447
  707MOL0     C93201   2.908   6.802  -0.350  0.7222 -0.3376 -0.0007
  707MOL0     C93202   2.803   6.773  -0.458 -0.2508  0.0448 -0.0033
  707MOL0     C93203   2.771   6.623  -0.476  0.7894 -0.2268 -0.2265
  707MOL0     C93204   2.891   6.541  -0.506 -0.2230 -0.8675 -0.1814
  707MOL0     C93205   2.857   6.395  -0.529  0.7252  0.3623 -0.6414
  707MOL0     C93206   2.798   6.325  -0.404 -0.3295 -0.8477 -0.8831
  707MOL0     C93207   2.778   6.179  -0.436 -0.8639  0.5873 -0.0019
  707MOL0     C93208   2.735   6.093  -0.317  0.4549  0.2226  0.7813
  707MOL0     N93209   2.585   6.105  -0.292 -0.5049 -0.4339 -0.3990
  707MOL0     C93210   2.531   6.180  -0.190  0.0498  0.1951  0.0058
  707MOL0     C93211   2.400   6.176  -0.213 -0.1383  0.1516 -0.1273
  707MOL0     C93212   2.285   6.241  -0.143  0.2455  1.3600  0.8854
  707MOL0     C93213   2.171   6.147  -0.122  0.2754  0.7620  0.1297
  707MOL0     C93214   2.183   6.041  -0.024 -0.1010 -0.4236  0.5629
  707MOL0     C93215   2.063   5.954  -0.016 -0.1825  0.0943 -0.1982
  707MOL0     O93216   2.069   5.859   0.098  0.2107  0.3081  0.4860
  707MOL0     C93217   1.949   5.793   0.130 -0.8035  0.0068 -0.2946
  707MOL0     C93218   1.824   5.807   0.059 -0.9894 -0.2694  0.5903
  707MOL0     C93219   1.704   5.755   0.103  0.4746  0.2007 -0.6176
  707MOL0     C93220   1.709   5.675   0.221 -0.0126  0.5677  0.9570
  707MOL0     C93221   1.592   5.601   0.270 -0.2071  0.1921  0.0247
  707MOL0     O93222   1.616   5.491   0.345 -0.8071  0.2829 -0.5744
  707MOL0     C93223   1.507   5.420   0.402 -0.9098 -0.2943  0.0011
  707MOL0     C93224   1.445   5.312   0.325  0.4967  0.0590 -0.9599
  707MOL0     C93225   1.352   5.225   0.383 -0.0443 -0.0343 -0.1442
  707MOL0     C93226   1.318   5.244   0.518  0.2778 -0.7943  0.9358
  707MOL0     O93227   1.226   5.174   0.589 -0.0490 -0.1573 -0.2661
  707MOL0     C93228   1.226   5.033   0.561  0.2320 -0.7116 -0.1863
  707MOL0     C93229   1.114   4.954   0.644  0.2049 -0.2171  0.6406
  707MOL0     C93230   1.155   4.951   0.794  1.3931  0.4638  0.3749
  707MOL0     C93231   1.061   4.854   0.871 -0.7387 -0.3562 -1.4852
  707MOL0     C93232   0.931   4.903   0.930  0.0961  0.4879 -0.0563
  707MOL0     C93233   0.887   4.826   1.056  0.1754  0.2157  0.8406
  707MOL0     C93234   0.780   4.905   1.132  0.3225  0.1331 -1.3049
  707MOL0     C93235   0.722   4.836   1.259  0.4750  0.7217 -0.8881
  707MOL0    Cl93236   0.620   4.940   1.357  0.1223 -0.0546 -0.2735
  707MOL0     C93237   1.387   5.341   0.593  0.8839 -0.0489 -0.3504
  707MOL0     C93238   1.479   5.435   0.533  0.7674  0.4766 -0.2868
  707MOL0     O93239   1.481   5.637   0.235  0.0841 -0.7447  0.4550
  707MOL0     C93240   1.836   5.659   0.289 -0.2686  0.5118 -0.3555
  707MOL0     C93241   1.962   5.702   0.231 -0.2698 -0.2065  0.5134
  707MOL0     N93242   2.380   6.091  -0.320 -0.2278 -0.2193  0.3686
  707MOL0     N93243   2.487   6.038  -0.360  0.3663  0.1671  0.4920
  707MOL0     C93244   2.687   6.893  -0.165 -0.3466  0.7074 -0.0900
  707MOL0     C93245   2.578   6.912  -0.090 -0.0548  0.8894 -0.1822
  707MOL0     C93246   2.323   6.975   0.258  0.3284 -0.1344  0.1142
  707MOL0     C93247   2.204   6.959   0.194  0.1586 -0.0472  0.7626
  707MOL0     C93248   2.083   6.959   0.251 -0.6979  0.7311 -0.2591
  707MOL0     C93249   2.069   6.980   0.387  0.2043  0.3208 -0.4383
  707MOL0     O93250   1.951   6.988   0.464  0.3217  0.5924  0.3763
  707MOL0     C93251   1.817   6.962   0.406  0.2082  0.6123  0.1298
  707MOL0     C93252   1.698   7.036   0.472  0.4773  0.0478  0.0390
  707MOL0     C93253   1.640   6.983   0.603 -1.2633 -0.5045  0.0889
  707MOL0     C93254   1.752   6.964   0.713  0.1257  0.2416  0.2336
  707MOL0     C93255   1.691   6.970   0.848 -0.3790  0.3131  0.3440
  707MOL0     C93256   1.634   6.985   0.959 -0.0553 -0.4823 -0.4573
  707MOL0     C93257   2.184   7.009   0.460 -0.0315  0.6791 -1.1539
  707MOL0     C93258   2.309   7.006   0.389  0.2287 -1.0470 -0.6306
  707MOL0     H93259   2.590   6.643   0.110 -2.5204  0.9689 -0.3264
  707MOL0     H93260   2.784   6.602  -0.025 -2.0813 -1.3723 -1.1075
  707MOL0     H93261   2.998   6.752  -0.389  0.2018  1.9432 -4.7537
  707MOL0     H93262   2.928   6.909  -0.335 -1.9275  0.5240 -1.9475
  707MOL0     H93263   2.843   6.806  -0.554 -1.2563  1.4257  0.0149
  707MOL0     H93264   2.719   6.838  -0.430  0.9005  2.1263 -1.1593
  707MOL0     H93265   2.694   6.605  -0.552 -1.0781 -1.1905  1.7758
  707MOL0     H93266   2.712   6.582  -0.393  0.8538  1.0436  0.4841
  707MOL0     H93267   2.956   6.572  -0.587  2.1198 -2.5586  0.9353
  707MOL0     H93268   2.945   6.542  -0.410  0.6576  0.1218 -0.6655
  707MOL0     H93269   2.951   6.346  -0.556  0.1134 -1.8878  1.0117
  707MOL0     H93270   2.802   6.379  -0.622  0.3858 -1.3383 -0.1763
  707MOL0     H93271   2.702   6.365  -0.369  0.5336  0.6214 -0.0600
  707MOL0     H93272   2.872   6.333  -0.324  0.8516 -1.8801 -1.8462
  707MOL0     H93273   2.705   6.170  -0.516 -0.5484  2.8633 -0.6294
  707MOL0     H93274   2.874   6.136  -0.467 -0.0552  1.6522  0.9412
  707MOL0     H93275   2.788   6.127  -0.227 -0.5656  0.7716  1.1957
  707MOL0     H93276   2.744   5.986  -0.336 -0.3601  0.2641  0.0888
  707MOL0     H93277   2.562   6.238  -0.104 -1.8904  1.5724 -0.1340
  707MOL0     H93278   2.257   6.330  -0.200  0.5579 -0.0765 -1.6472
  707MOL0     H93279   2.320   6.262  -0.041  1.7887 -0.0816  0.6990
  707MOL0     H93280   2.141   6.112  -0.221  1.5953  2.1036 -0.7828
  707MOL0     H93281   2.086   6.201  -0.081  1.1196  1.8387  0.5197
  707MOL0     H93282   2.269   5.977  -0.042 -1.3302 -1.8647 -0.3559
  707MOL0     H93283   2.203   6.095   0.069 -0.5332  1.1032 -0.1856
  707MOL0     H93284   2.057   5.892  -0.106 -1.0472 -0.9989  0.5926
  707MOL0     H93285   1.977   6.020  -0.005  0.4237  0.5333  2.5412
  707MOL0     H93286   1.814   5.875  -0.024 -2.6059 -0.3611  0.6869
  707MOL0     H93287   1.617   5.784   0.045 -0.5937 -2.3933 -0.4620
  707MOL0     H93288   1.480   5.295   0.224  0.7146 -1.0974 -0.7022
  707MOL0     H93289   1.320   5.137   0.328  0.8255 -0.5244  0.1180
  707MOL0     H93290   1.328   4.995   0.575  1.2605  2.5541  2.5031
  707MOL0     H93291   1.198   5.028   0.455 -3.4834 -1.8404  0.6894
  707MOL0     H93292   1.085   4.853   0.612 -0.6786  0.3358 -0.3506
  707MOL0     H93293   1.015   4.998   0.631  0.2603 -0.9383 -3.1786
  707MOL0     H93294   1.150   5.053   0.834  1.1442  0.6542 -0.1228
  707MOL0     H93295   1.256   4.913   0.804  0.7210 -1.8281 -0.8304
  707MOL0     H93296   1.048   4.759   0.818  0.5531 -0.8417 -0.9807
  707MOL0     H93297   1.127   4.810   0.947 -0.3247 -1.1296 -2.2644
  707MOL0     H93298   0.855   4.912   0.853  1.3826  2.2670 -1.2055
  707MOL0     H93299   0.944   5.007   0.962 -4.5523  0.8044  1.4681
  707MOL0     H93300   0.977   4.818   1.117  1.0444 -1.2046 -0.5441
  707MOL0     H93301   0.850   4.725   1.035 -0.6912  0.8603 -0.9589
  707MOL0     H93302   0.813   5.005   1.163 -0.7670  0.5250 -1.3369
  707MOL0     H93303   0.697   4.918   1.062 -1.1686 -1.2294  0.1223
  707MOL0     H93304   0.807   4.807   1.322 -0.8574  0.0128  0.6501
  707MOL0     H93305   0.676   4.738   1.239  3.0833 -1.0971  1.3600
  707MOL0     H93306   1.366   5.343   0.699 -0.1063  0.9849 -0.5374
  707MOL0     H93307   1.537   5.500   0.597 -0.3487  0.0042  1.2707
  707MOL0     H93308   1.852   5.599   0.378  1.2525 -0.8226 -1.4770
  707MOL0     H93309   2.056   5.680   0.280  0.4738 -1.7405 -1.5059
  707MOL0     H93310   2.713   6.970  -0.237 -0.2850  0.5948 -0.1894
  707MOL0     H93311   2.528   7.009  -0.092  0.2219  1.1183  1.5638
  707MOL0     H93312   2.208   6.950   0.086 -0.2682  1.8785  0.5504
  707MOL0     H93313   1.987   6.953   0.200 -0.2682  0.9234 -1.0991
  707MOL0     H93314   1.804   6.854   0.404 -4.2965  0.9100  2.0816
  707MOL0     H93315   1.808   6.995   0.302 -3.0503  0.8823  0.3939
  707MOL0     H93316   1.719   7.143   0.485 -0.6252  0.4147 -1.0350
  707MOL0     H93317   1.618   7.025   0.399  1.4057  0.6967 -1.1128
  707MOL0     H93318   1.585   6.891   0.585 -2.6790  0.4739 -0.8637
  707MOL0     H93319   1.564   7.055   0.635 -2.1396 -1.4400  0.1582
  707MOL0     H93320   1.791   6.863   0.701 -2.4479 -0.4956 -3.6954
  707MOL0     H93321   1.824   7.047   0.709 -1.0581  1.3883  1.3397
  707MOL0     H93322   1.580   7.004   1.049  3.2053  1.2991  1.2903
  707MOL0     H93323   2.158   7.034   0.562  0.4343 -1.9325 -0.3159
  707MOL0     H93324   2.397   7.027   0.450  0.7288  1.2994 -2.0254
  708MOL0     O93325   7.711  11.212   8.974  0.5227  0.7433 -0.8382
  708MOL0     C93326   7.639  11.121   9.028 -0.4589 -0.5299  0.1151
  708MOL0     O93327   7.685  11.017   9.094 -0.3599  0.6462 -0.4391
  708MOL0     C93328   7.816  11.009   9.091  0.9109  0.0347  0.4877
  708MOL0     C93329   7.884  10.960   8.975  0.4472  0.2479 -0.1687
  708MOL0     C93330   8.027  10.960   8.977  0.3267 -0.4417 -0.3527
  708MOL0     C93331   8.098  10.977   9.099  0.2832 -0.0042  0.7708
  708MOL0     O93332   8.238  10.977   9.097  0.2423  0.5387 -0.8801
  708MOL0     C93333   8.307  11.036   9.208  1.3637 -0.2257  0.5102
  708MOL0     C93334   8.456  11.028   9.180 -0.3657  0.4939  0.1884
  708MOL0     C93335   8.500  10.879   9.179 -0.2327  0.4985  0.3892
  708MOL0     C93336   8.649  10.860   9.165 -0.2712 -0.1446  0.3508
  708MOL0     C93337   8.692  10.712   9.167  0.2662 -0.1716 -0.7117
  708MOL0     C93338   8.676  10.643   9.304  0.6161 -0.0838  0.1708
  708MOL0     C93339   8.746  10.718   9.412 -0.1491 -1.1321 -0.3706
  708MOL0     C93340   8.761  10.629   9.545 -0.1437 -0.5465 -0.0687
  708MOL0     N93341   8.630  10.575   9.572  0.1101 -0.1382 -0.4240
  708MOL0     C93342   8.518  10.653   9.607 -0.0422  0.2148 -0.4689
  708MOL0     C93343   8.416  10.566   9.608  0.8029 -0.1862  0.3336
  708MOL0     C93344   8.269  10.609   9.617 -0.0781  0.3453 -1.1622
  708MOL0     C93345   8.189  10.570   9.490  0.2473  0.2660 -0.1034
  708MOL0     C93346   8.218  10.680   9.385  0.9953  0.1838 -0.6699
  708MOL0     C93347   8.106  10.674   9.272 -0.5667 -0.1488 -0.2783
  708MOL0     O93348   8.041  10.546   9.254 -0.6309  0.3838 -0.5502
  708MOL0     C93349   7.922  10.535   9.185  0.4466  0.1272 -0.2125
  708MOL0     C93350   7.854  10.642   9.123 -0.0945 -0.3096 -0.7360
  708MOL0     C93351   7.735  10.621   9.055  0.2521  0.2172  0.8149
  708MOL0     C93352   7.674  10.493   9.060 -0.7448  0.1625  0.7856
  708MOL0     C93353   7.537  10.481   9.001 -0.7441 -0.4023  0.6902
  708MOL0     O93354   7.486  10.585   8.938  0.8182 -0.2331  0.5222
  708MOL0     C93355   7.380  10.567   8.855 -0.2823 -0.2453  0.4079
  708MOL0     C93356   7.258  10.621   8.879 -0.4027 -0.5171 -0.5152
  708MOL0     C93357   7.159  10.610   8.791  0.9891  1.5304  1.7279
  708MOL0     C93358   7.174  10.553   8.665  0.1940 -0.8228  0.5002
  708MOL0     O93359   7.065  10.550   8.579 -0.7484 -0.4304  0.0581
  708MOL0     C93360   7.057  10.459   8.469  0.1887 -0.2773  0.3831
  708MOL0     C93361   6.909  10.445   8.426 -0.1096  0.3704 -0.1448
  708MOL0     C93362   6.840  10.579   8.410 -1.1713 -0.3034  0.2121
  708MOL0     C93363   6.687  10.561   8.373 -0.3685  0.8902  0.0774
  708MOL0     C93364   6.625  10.694   8.339  0.3276  0.2100  0.7754
  708MOL0     C93365   6.475  10.680   8.293  0.8343  0.4585 -0.3884
  708MOL0     C93366   6.397  10.820   8.281  0.0981  0.1533  0.1108
  708MOL0     C93367   6.251  10.788   8.243  0.4014  0.5298 -0.1779
  708MOL0    Cl93368   6.139  10.920   8.248 -0.1499  0.2045  0.2360
  708MOL0     C93369   7.295  10.490   8.636 -1.0601 -0.7328 -0.0767
  708MOL0     C93370   7.403  10.500   8.735  0.0100 -1.0586 -0.5049
  708MOL0     O93371   7.489  10.370   9.014 -0.5004 -0.3957  0.6077
  708MOL0     C93372   7.736  10.387   9.134  0.1797 -0.1542  0.3405
  708MOL0     C93373   7.858  10.410   9.199 -0.0395 -1.1977  0.0185
  708MOL0     N93374   8.457  10.441   9.575  0.4486  0.8094  0.1041
  708MOL0     N93375   8.590  10.444   9.566  0.8736  0.3107 -0.4302
  708MOL0     C93376   8.022  11.011   9.210 -1.2048  0.3302 -0.0194
  708MOL0     C93377   7.887  11.034   9.199  0.5514  0.4625  0.3414
  708MOL0     C93378   7.498  11.112   8.998 -0.2369  0.3634  1.2488
  708MOL0     C93379   7.400  11.027   9.063 -0.8544  0.1857  0.4648
  708MOL0     C93380   7.269  11.034   9.032  0.4725  0.1372 -0.3203
  708MOL0     C93381   7.221  11.141   8.956  0.3315  1.7203 -0.3973
  708MOL0     O93382   7.084  11.141   8.945  0.0376 -0.1239  0.0358
  708MOL0     C93383   7.008  11.240   8.870 -0.1873  0.5646 -0.1037
  708MOL0     C93384   6.854  11.215   8.886  0.4750 -0.4697  0.1568
  708MOL0     C93385   6.790  11.260   9.017 -0.4266  0.0622 -0.6590
  708MOL0     C93386   6.649  11.189   9.042  0.3784  0.7306 -0.0825
  708MOL0     C93387   6.586  11.244   9.159  0.2566  0.0734 -0.8286
  708MOL0     C93388   6.532  11.285   9.258  0.2998  0.1680  0.0379
  708MOL0     C93389   7.306  11.231   8.891 -0.5816  0.3762  0.7855
  708MOL0     C93390   7.446  11.208   8.902 -0.4736  0.0916 -0.3899
  708MOL0     H93391   7.829  10.936   8.885 -0.8075  2.4312 -0.0466
  708MOL0     H93392   8.075  10.932   8.884  0.5795 -0.5818 -0.1794
  708MOL0     H93393   8.287  10.984   9.303 -1.8310  1.5431  0.9495
  708MOL0     H93394   8.272  11.138   9.226  0.2944 -0.4342 -0.2609
  708MOL0     H93395   8.511  11.086   9.254 -1.7533 -0.0509  1.7054
  708MOL0     H93396   8.488  11.066   9.083  0.9231  1.5173  0.9870
  708MOL0     H93397   8.451  10.821   9.100 -1.1553 -0.6455  1.7386
  708MOL0     H93398   8.472  10.851   9.281  1.0439  0.2700  0.7045
  708MOL0     H93399   8.668  10.907   9.068 -0.9351 -0.6991 -0.0519
  708MOL0     H93400   8.699  10.914   9.246 -0.6964  0.6822  0.0809
  708MOL0     H93401   8.797  10.715   9.137  0.5868  1.5562  0.4162
  708MOL0     H93402   8.652  10.649   9.087  1.6663  0.2117 -1.7504
  708MOL0     H93403   8.712  10.541   9.292  0.7861 -0.0314  0.2344
  708MOL0     H93404   8.568  10.639   9.323  0.8129 -0.7263  1.2444
  708MOL0     H93405   8.844  10.744   9.370  1.3638 -2.5128  2.0779
  708MOL0     H93406   8.687  10.809   9.427 -0.8949 -1.8637  1.4789
  708MOL0     H93407   8.808  10.690   9.622 -1.5001  1.5776 -0.8221
  708MOL0     H93408   8.820  10.538   9.536 -0.8131 -0.8075 -3.2302
  708MOL0     H93409   8.517  10.760   9.627 -2.9482  0.7797 -2.8908
  708MOL0     H93410   8.271  10.714   9.648 -2.0890  0.2738 -0.6816
  708MOL0     H93411   8.225  10.556   9.702  2.4989 -0.6539 -0.3522
  708MOL0     H93412   8.084  10.576   9.521 -0.0807 -0.1754 -1.0879
  708MOL0     H93413   8.217  10.473   9.450 -0.2283 -0.3470  1.0055
  708MOL0     H93414   8.221  10.780   9.430 -0.2149  0.3337 -0.8887
  708MOL0     H93415   8.320  10.666   9.347  0.8594  0.1054 -1.0079
  708MOL0     H93416   8.159  10.707   9.182  0.6047  2.0509  1.1055
  708MOL0     H93417   8.031  10.753   9.279  1.2041  1.5056  1.4477
  708MOL0     H93418   7.905  10.738   9.115 -1.6352  0.5202 -1.1073
  708MOL0     H93419   7.690  10.710   9.013  0.6595  0.0939  0.0933
  708MOL0     H93420   7.238  10.679   8.969  4.4155  0.3005  0.2846
  708MOL0     H93421   7.062  10.647   8.823 -0.2338  0.1763 -0.1903
  708MOL0     H93422   7.089  10.360   8.503 -0.7462 -0.5638  0.4655
  708MOL0     H93423   7.118  10.501   8.388 -0.2420  2.3156  1.3062
  708MOL0     H93424   6.857  10.387   8.503 -0.3253 -0.7665 -1.1045
  708MOL0     H93425   6.919  10.381   8.338 -1.1481 -2.2767  1.5297
  708MOL0     H93426   6.893  10.633   8.331 -1.4413  0.4633  0.5449
  708MOL0     H93427   6.840  10.638   8.502  0.6314 -0.5232  0.3950
  708MOL0     H93428   6.674  10.489   8.292 -0.0208 -0.1332  0.9163
  708MOL0     H93429   6.646  10.510   8.461  0.6648  0.4144  0.2940
  708MOL0     H93430   6.675  10.726   8.247  0.1634 -3.8903 -0.9203
  708MOL0     H93431   6.648  10.765   8.419  2.0873 -0.1971  0.6771
  708MOL0     H93432   6.422  10.607   8.355  1.5396  0.9240  0.7958
  708MOL0     H93433   6.468  10.627   8.198 -0.0291  0.2815 -0.2359
  708MOL0     H93434   6.399  10.871   8.377  1.2904 -0.9279  0.7061
  708MOL0     H93435   6.454  10.889   8.217  2.8754 -0.1382  2.0851
  708MOL0     H93436   6.221  10.718   8.322  1.7807  0.7325  0.5544
  708MOL0     H93437   6.238  10.752   8.141 -4.5885  0.2977  0.2778
  708MOL0     H93438   7.308  10.433   8.545  0.9934  0.4316 -0.5647
  708MOL0     H93439   7.499  10.452   8.721  1.7528  1.8760  0.4727
  708MOL0     H93440   7.699  10.285   9.123  1.0691 -0.3809 -0.7614
  708MOL0     H93441   7.913  10.331   9.250 -0.3261 -0.0279  2.2914
  708MOL0     H93442   8.067  11.037   9.305 -0.6391 -3.0528  0.7676
  708MOL0     H93443   7.833  11.060   9.290  1.8603 -0.1381  1.3188
  708MOL0     H93444   7.424  10.947   9.132  0.5884 -0.5158 -0.7919
  708MOL0     H93445   7.191  10.968   9.071 -0.5758  1.3010 -0.3743
  708MOL0     H93446   7.051  11.231   8.770  2.2920  0.3379  0.8992
  708MOL0     H93447   7.035  11.337   8.912  0.0207 -0.0752  1.3021
  708MOL0     H93448   6.792  11.269   8.814 -1.4384 -0.2767  1.8562
  708MOL0     H93449   6.839  11.107   8.875  0.9560 -0.8340  2.4636
  708MOL0     H93450   6.781  11.369   9.016 -3.7557 -0.0043  2.4634
  708MOL0     H93451   6.862  11.236   9.095 -0.4673 -0.0789 -0.6635
  708MOL0     H93452   6.580  11.210   8.960 -0.6011  0.9047  0.7648
  708MOL0     H93453   6.663  11.081   9.050 -4.1862 -0.1986 -1.5994
  708MOL0     H93454   6.470  11.310   9.341  0.4233  1.2406 -0.1805
  708MOL0     H93455   7.262  11.302   8.822 -2.9257 -0.0714  1.6958
  708MOL0     H93456   7.508  11.275   8.843 -0.3805  0.6216  0.2958
  709MOL0     O93457   5.428   4.165   3.461  0.4078 -0.7625  1.1990
  709MOL0     C93458   5.534   4.148   3.403  0.0048 -0.6770 -0.1791
  709MOL0     O93459   5.566   4.055   3.318  0.9324 -0.3350 -0.2669
  709MOL0     C93460   5.460   3.979   3.272 -1.0304 -0.2896 -0.1971
  709MOL0     C93461   5.423   3.853   3.313  0.1363  0.2547 -0.5675
  709MOL0     C93462   5.316   3.787   3.256 -0.7149  1.1263 -0.5016
  709MOL0     C93463   5.251   3.839   3.138  0.4607 -0.1279 -0.0649
  709MOL0     O93464   5.176   3.759   3.061  0.4434 -0.6477  0.6788
  709MOL0     C93465   5.057   3.819   3.000 -0.3292  0.9438  0.1641
  709MOL0     C93466   5.023   3.719   2.892 -0.8996  0.6677  0.5197
  709MOL0     C93467   4.924   3.780   2.798 -0.6451  0.2734  0.2224
  709MOL0     C93468   4.785   3.795   2.857  0.0964 -0.0624 -0.0766
  709MOL0     C93469   4.690   3.824   2.741 -0.4756  0.2833  0.1568
  709MOL0     C93470   4.543   3.830   2.799 -0.8761 -0.3242  0.0681
  709MOL0     C93471   4.440   3.857   2.689  0.4432  0.0010  0.6557
  709MOL0     C93472   4.442   4.008   2.656  0.2480 -0.5692 -0.6430
  709MOL0     N93473   4.318   4.060   2.603  0.9027 -0.2737 -0.4454
  709MOL0     C93474   4.206   3.995   2.576  0.1937 -0.3395 -1.1923
  709MOL0     C93475   4.137   4.076   2.504  0.6419 -0.0922 -0.0164
  709MOL0     C93476   4.006   4.046   2.447  0.3958  0.0669 -0.4671
  709MOL0     C93477   3.896   4.111   2.536  0.0322 -0.2376  0.3446
  709MOL0     C93478   3.756   4.072   2.479  0.6399 -0.2119  0.6766
  709MOL0     C93479   3.640   4.115   2.576  0.0166  0.1667 -0.1644
  709MOL0     O93480   3.515   4.085   2.503  0.1243  0.5817 -0.0282
  709MOL0     C93481   3.395   4.085   2.579  0.6693  0.0396  0.2564
  709MOL0     C93482   3.280   4.009   2.563  0.6503  0.5748  0.1959
  709MOL0     C93483   3.158   4.045   2.619  0.2748  0.4549  0.4526
  709MOL0     C93484   3.148   4.140   2.725 -0.2153  0.0942 -0.2589
  709MOL0     C93485   3.016   4.159   2.789  0.0399 -0.2265 -0.1914
  709MOL0     O93486   2.903   4.107   2.718 -0.0541  0.0663  0.1767
  709MOL0     C93487   2.787   4.160   2.763 -0.2953 -0.3974  0.0029
  709MOL0     C93488   2.756   4.292   2.730 -0.7077  0.6830 -0.9530
  709MOL0     C93489   2.646   4.349   2.789  0.6537 -0.8970 -0.8337
  709MOL0     C93490   2.558   4.277   2.874  0.7352  0.1328  0.5637
  709MOL0     O93491   2.456   4.351   2.922 -0.1367 -0.3441 -1.1706
  709MOL0     C93492   2.365   4.303   3.021  0.4116 -0.7574  0.4410
  709MOL0     C93493   2.243   4.260   2.941  0.7204 -0.8451 -0.1452
  709MOL0     C93494   2.138   4.189   3.026 -0.1352  0.0670 -0.5383
  709MOL0     C93495   1.999   4.173   2.957  0.2145  0.0781  0.4664
  709MOL0     C93496   1.886   4.140   3.061  0.3011  0.7517  0.2599
  709MOL0     C93497   1.752   4.210   3.017 -0.3822 -0.7877  0.1573
  709MOL0     C93498   1.622   4.155   3.093  0.1906 -0.6621 -0.1788
  709MOL0     C93499   1.525   4.264   3.127  0.5518  0.4237 -0.4797
  709MOL0    Cl93500   1.381   4.182   3.194 -0.1222  0.4651 -0.2994
  709MOL0     C93501   2.592   4.145   2.897  0.4179  0.1190 -0.2349
  709MOL0     C93502   2.704   4.086   2.850  0.3600  0.7975  1.0770
  709MOL0     O93503   3.009   4.235   2.892 -0.0466  0.0665  0.2273
  709MOL0     C93504   3.269   4.197   2.761 -0.0410 -0.6044 -0.1089
  709MOL0     C93505   3.389   4.168   2.689  0.0319  0.1861  0.0242
  709MOL0     N93506   4.200   4.194   2.481 -0.6350 -0.5183 -0.4337
  709MOL0     N93507   4.319   4.175   2.537  0.6306  0.4227 -0.1263
  709MOL0     C93508   5.285   3.971   3.103  0.0294 -1.0860 -0.1078
  709MOL0     C93509   5.391   4.034   3.168 -0.4208 -0.6837  0.0231
  709MOL0     C93510   5.642   4.243   3.452  0.0345  0.2114 -0.0595
  709MOL0     C93511   5.627   4.317   3.576 -0.7472  1.4734 -0.1394
  709MOL0     C93512   5.741   4.386   3.618  0.0444 -0.3948  0.2014
  709MOL0     C93513   5.848   4.402   3.535  0.9156 -0.1625 -0.3093
  709MOL0     O93514   5.936   4.498   3.576 -0.3913  0.3505  0.5967
  709MOL0     C93515   6.073   4.475   3.541 -0.6874 -0.0696 -0.8562
  709MOL0     C93516   6.150   4.543   3.660 -0.0043  0.3012 -0.0846
  709MOL0     C93517   6.107   4.486   3.799 -0.2357 -0.4165  0.1277
  709MOL0     C93518   6.200   4.515   3.922  0.1847  1.1008  0.0815
  709MOL0     C93519   6.206   4.661   3.921  0.1568  0.1382 -0.1423
  709MOL0     C93520   6.226   4.779   3.940  0.2049 -0.3385 -0.0239
  709MOL0     C93521   5.858   4.333   3.412 -0.4040 -0.5362  0.2987
  709MOL0     C93522   5.754   4.253   3.373 -0.1792  0.8795 -0.4837
  709MOL0     H93523   5.462   3.819   3.409 -1.8631  3.6497  1.6530
  709MOL0     H93524   5.301   3.684   3.288  1.1578  0.9151 -0.1426
  709MOL0     H93525   5.081   3.916   2.956 -0.8217  1.8256  1.7537
  709MOL0     H93526   4.973   3.832   3.069 -0.0077  1.7701  0.4170
  709MOL0     H93527   4.987   3.626   2.937  0.4732 -0.0724  0.1268
  709MOL0     H93528   5.117   3.697   2.841 -1.7776 -1.3613 -0.3222
  709MOL0     H93529   4.922   3.703   2.720  1.7791  0.9010 -0.5559
  709MOL0     H93530   4.959   3.874   2.754 -1.9403  2.5051  3.5417
  709MOL0     H93531   4.763   3.701   2.908  1.6260 -0.2576  0.2815
  709MOL0     H93532   4.775   3.874   2.933  2.4257  1.0499 -0.8307
  709MOL0     H93533   4.701   3.740   2.672  0.6009  2.4643 -2.5208
  709MOL0     H93534   4.720   3.914   2.688 -3.1408 -0.2758 -2.6000
  709MOL0     H93535   4.542   3.903   2.880  0.8688  0.8633 -0.9130
  709MOL0     H93536   4.525   3.731   2.843  1.8012 -0.1041  1.9592
  709MOL0     H93537   4.471   3.793   2.606  3.7181 -1.5335  2.8339
  709MOL0     H93538   4.339   3.835   2.726  0.7537  2.9870  3.8714
  709MOL0     H93539   4.536   4.027   2.603  1.8987  1.3975  2.6697
  709MOL0     H93540   4.466   4.070   2.743  2.4528 -0.2173 -1.4314
  709MOL0     H93541   4.176   3.900   2.620 -1.5184  0.3265 -0.8595
  709MOL0     H93542   4.004   3.937   2.440  0.5584  0.1466 -4.7282
  709MOL0     H93543   4.002   4.078   2.342  0.7148 -0.9534 -0.8040
  709MOL0     H93544   3.910   4.219   2.523 -1.3079 -0.4068 -4.0799
  709MOL0     H93545   3.909   4.079   2.640 -1.2619  1.7259  1.1634
  709MOL0     H93546   3.741   4.125   2.385 -0.4721 -0.4217  0.7152
  709MOL0     H93547   3.756   3.964   2.465  2.9993 -0.1164 -0.4574
  709MOL0     H93548   3.652   4.219   2.607 -1.9478 -0.1256  1.8149
  709MOL0     H93549   3.659   4.050   2.662  0.0318 -0.4189 -0.5964
  709MOL0     H93550   3.286   3.929   2.490 -2.8037  1.3903 -1.1714
  709MOL0     H93551   3.072   3.991   2.582  1.1198 -0.6947  0.0993
  709MOL0     H93552   2.820   4.352   2.666  0.9484 -0.2918 -0.2863
  709MOL0     H93553   2.638   4.456   2.771 -1.2005 -0.8118  0.1550
  709MOL0     H93554   2.355   4.384   3.094 -0.1889 -0.8942  0.5104
  709MOL0     H93555   2.411   4.221   3.079 -0.8920 -4.2069 -2.9638
  709MOL0     H93556   2.281   4.201   2.857 -0.1451  1.9679 -2.6830
  709MOL0     H93557   2.204   4.360   2.918 -1.3589 -1.5433  0.1527
  709MOL0     H93558   2.131   4.244   3.121  1.1821  0.1589 -0.4738
  709MOL0     H93559   2.176   4.091   3.054 -0.9936 -0.0484  0.2578
  709MOL0     H93560   1.969   4.267   2.910 -0.7889  0.2982  1.5074
  709MOL0     H93561   2.015   4.103   2.875  1.9589  1.7341 -0.7025
  709MOL0     H93562   1.914   4.182   3.158 -0.3607  1.0017  0.3457
  709MOL0     H93563   1.867   4.035   3.085  1.1802  1.0788  2.5740
  709MOL0     H93564   1.739   4.207   2.908  0.3674  0.9234 -0.0102
  709MOL0     H93565   1.766   4.319   3.022 -0.5681 -0.7840  0.5842
  709MOL0     H93566   1.565   4.089   3.026 -1.8523  0.4966  0.3282
  709MOL0     H93567   1.647   4.096   3.181  0.0645 -1.2125 -0.5054
  709MOL0     H93568   1.501   4.320   3.036  0.0819  1.3953  0.2232
  709MOL0     H93569   1.575   4.322   3.205  0.8656 -0.5848  0.0868
  709MOL0     H93570   2.532   4.094   2.971  3.0143  1.3172  2.9424
  709MOL0     H93571   2.736   3.990   2.888 -1.4639 -0.5639 -0.6353
  709MOL0     H93572   3.279   4.258   2.850 -2.3660 -0.9083  0.4163
  709MOL0     H93573   3.476   4.223   2.723  0.2073  0.9582 -1.5892
  709MOL0     H93574   5.235   4.029   3.026 -0.4041  0.5410  1.3392
  709MOL0     H93575   5.420   4.135   3.142 -1.5116  0.1945  1.9712
  709MOL0     H93576   5.530   4.316   3.624 -2.1907 -0.7388 -2.8323
  709MOL0     H93577   5.735   4.451   3.705 -0.1427  1.1828 -0.9317
  709MOL0     H93578   6.111   4.515   3.447 -1.7572  0.2254 -1.1765
  709MOL0     H93579   6.102   4.369   3.537  2.1498  0.5877 -0.1218
  709MOL0     H93580   6.258   4.530   3.650  0.1988  2.2047 -0.7596
  709MOL0     H93581   6.122   4.649   3.654 -2.1928 -0.2959 -1.6415
  709MOL0     H93582   6.095   4.378   3.784 -0.8374 -0.2728 -0.5061
  709MOL0     H93583   6.011   4.530   3.828  0.1673  0.7009 -0.2103
  709MOL0     H93584   6.149   4.472   4.009  1.9013  0.2129  0.6911
  709MOL0     H93585   6.298   4.467   3.919  0.0639  0.9125 -2.2832
  709MOL0     H93586   6.255   4.882   3.954  1.5894 -0.6147 -0.6767
  709MOL0     H93587   5.944   4.343   3.347  0.0570  0.0509  0.9767
  709MOL0     H93588   5.764   4.199   3.279  2.3848 -0.2616  0.3406
  710MOL0     O93589   0.646   2.659   8.602 -0.9934  0.1430 -0.5214
  710MOL0     C93590   0.644   2.594   8.707 -0.3974 -0.7323 -0.2971
  710MOL0     O93591   0.536   2.545   8.772  0.5773 -0.2555  0.5918
  710MOL0     C93592   0.405   2.559   8.724 -0.0737  0.8534  0.1931
  710MOL0     C93593   0.362   2.636   8.622 -0.0395  0.0628  0.1476
  710MOL0     C93594   0.227   2.638   8.584  0.4114  1.0631 -0.0393
  710MOL0     C93595   0.135   2.558   8.656  0.6338 -1.3225  0.2503
  710MOL0     O93596   0.003   2.564   8.622 -0.0027 -0.7611 -0.0346
  710MOL0     C93597  -0.075   2.681   8.629  0.3914  0.7377 -0.1586
  710MOL0     C93598  -0.212   2.659   8.688  0.7709  0.5950  0.0838
  710MOL0     C93599  -0.193   2.615   8.829 -0.3840 -0.0996 -0.4580
  710MOL0     C93600  -0.324   2.598   8.888 -1.3929  1.0116  0.7744
  710MOL0     C93601  -0.402   2.472   8.848 -0.5801  0.3213  0.3780
  710MOL0     C93602  -0.510   2.427   8.949 -0.1672  0.0460  0.2200
  710MOL0     C93603  -0.639   2.517   8.956  0.4511 -0.4024 -0.2794
  710MOL0     C93604  -0.726   2.479   8.836 -0.0973 -0.7616 -0.0703
  710MOL0     N93605  -0.823   2.377   8.868  0.0646  0.0333 -0.0347
  710MOL0     C93606  -0.795   2.240   8.876 -0.9900 -0.1228  0.5389
  710MOL0     C93607  -0.910   2.174   8.905  0.3646  1.4596 -0.2275
  710MOL0     C93608  -0.930   2.024   8.915 -0.1360  0.6230 -1.1416
  710MOL0     C93609  -1.032   1.963   8.831  0.7681  0.5779  0.5570
  710MOL0     C93610  -1.009   1.978   8.675  0.0319  0.2926  0.3453
  710MOL0     C93611  -1.115   1.915   8.583 -0.3822 -0.0686 -0.0966
  710MOL0     O93612  -1.233   1.990   8.598  0.5661 -0.0757 -0.4065
  710MOL0     C93613  -1.348   1.914   8.614 -0.2905  0.3374  0.2322
  710MOL0     C93614  -1.363   1.775   8.645  0.3367 -0.9719  0.5569
  710MOL0     C93615  -1.494   1.721   8.658 -0.1895  0.1413 -0.2089
  710MOL0     C93616  -1.608   1.794   8.624 -0.5061  1.1572  0.1577
  710MOL0     C93617  -1.738   1.725   8.626 -0.1185  0.0355 -0.1290
  710MOL0     O93618  -1.826   1.775   8.532 -0.2171 -0.4505  0.1232
  710MOL0     C93619  -1.964   1.729   8.535  0.0181  0.0481 -0.2880
  710MOL0     C93620  -2.038   1.719   8.416  0.7255 -0.3465 -0.6153
  710MOL0     C93621  -2.172   1.689   8.414  0.4105  0.4046 -0.8804
  710MOL0     C93622  -2.244   1.670   8.541 -0.0868  0.0228 -0.6383
  710MOL0     O93623  -2.379   1.636   8.546  0.0658 -0.1121  0.7142
  710MOL0     C93624  -2.423   1.567   8.664 -0.1445  0.0231  0.2080
  710MOL0     C93625  -2.569   1.505   8.657 -0.1706 -0.1827 -0.2635
  710MOL0     C93626  -2.667   1.600   8.591  0.8186  0.0755 -0.2803
  710MOL0     C93627  -2.802   1.532   8.555 -0.4237 -0.2050 -0.3742
  710MOL0     C93628  -2.858   1.452   8.672  0.5503 -0.5732 -0.5373
  710MOL0     C93629  -3.012   1.461   8.666 -0.6699  0.4780 -0.5988
  710MOL0     C93630  -3.070   1.401   8.801  0.0726  0.0879  0.5615
  710MOL0     C93631  -3.223   1.402   8.792  0.2069 -0.1715  0.7426
  710MOL0    Cl93632  -3.287   1.362   8.949  0.3853  0.1736 -0.1288
  710MOL0     C93633  -2.169   1.677   8.654 -0.1089  0.2984 -0.3354
  710MOL0     C93634  -2.033   1.707   8.653  0.6710  0.8371 -0.3278
  710MOL0     O93635  -1.759   1.633   8.703 -0.6032  0.0317  0.0466
  710MOL0     C93636  -1.587   1.933   8.596  0.6232  0.0729  0.6398
  710MOL0     C93637  -1.457   1.991   8.594 -0.4368  0.4141  0.1215
  710MOL0     N93638  -1.001   2.270   8.925 -0.3250 -0.1374 -0.7892
  710MOL0     N93639  -0.954   2.387   8.896  0.7446 -0.3568  0.6020
  710MOL0     C93640   0.172   2.492   8.773  0.8320 -0.4648  0.5028
  710MOL0     C93641   0.309   2.486   8.798 -0.2332  0.7225 -0.0130
  710MOL0     C93642   0.776   2.567   8.768  0.2102 -0.1558  0.5843
  710MOL0     C93643   0.784   2.526   8.905  0.1968 -0.2734  0.3738
  710MOL0     C93644   0.911   2.534   8.971  0.6659  0.9287  1.0641
  710MOL0     C93645   1.038   2.553   8.909  0.5759 -0.0392 -0.8247
  710MOL0     O93646   1.153   2.553   8.978  0.2469  0.7470 -0.0898
  710MOL0     C93647   1.275   2.584   8.913 -0.0455  0.0072  0.0127
  710MOL0     C93648   1.386   2.568   9.021 -0.1749 -0.2214 -0.1053
  710MOL0     C93649   1.373   2.441   9.110 -0.5115 -0.1770  0.5517
  710MOL0     C93650   1.492   2.383   9.181 -0.3630  0.7203  0.1422
  710MOL0     C93651   1.584   2.491   9.238 -0.0001  0.2290  0.0687
  710MOL0     C93652   1.658   2.570   9.294  0.1341 -1.0538 -0.1073
  710MOL0     C93653   1.022   2.590   8.771 -0.4770  0.1554  0.0911
  710MOL0     C93654   0.899   2.597   8.704 -0.3254  0.0244  0.5063
  710MOL0     H93655   0.428   2.689   8.554 -1.5482 -0.6997 -2.0160
  710MOL0     H93656   0.191   2.707   8.508 -2.4939 -0.0558  0.1777
  710MOL0     H93657  -0.105   2.708   8.527 -2.3983 -1.2196  0.0359
  710MOL0     H93658  -0.013   2.763   8.667 -1.0707  2.3368 -1.0782
  710MOL0     H93659  -0.266   2.579   8.636 -0.2473  1.5843 -0.4247
  710MOL0     H93660  -0.271   2.751   8.685  0.2665  0.2691 -1.9771
  710MOL0     H93661  -0.145   2.697   8.882 -2.5840  1.1376 -0.2361
  710MOL0     H93662  -0.137   2.521   8.832  1.8899  1.2191  0.8471
  710MOL0     H93663  -0.304   2.589   8.995 -0.5972 -0.3272  0.5243
  710MOL0     H93664  -0.391   2.683   8.873 -2.8114  0.0167  1.3046
  710MOL0     H93665  -0.330   2.390   8.838 -3.1163 -2.3041  1.8755
  710MOL0     H93666  -0.454   2.491   8.754 -2.0924 -3.8881  0.1488
  710MOL0     H93667  -0.480   2.419   9.054 -1.2522  0.8190  0.6020
  710MOL0     H93668  -0.538   2.323   8.932 -0.3830 -0.2081  1.9292
  710MOL0     H93669  -0.695   2.503   9.048  0.3452  0.0141 -0.2788
  710MOL0     H93670  -0.606   2.621   8.965  0.8828 -0.7010  2.4826
  710MOL0     H93671  -0.681   2.447   8.741 -3.2682 -3.5312 -0.8399
  710MOL0     H93672  -0.785   2.566   8.806  0.2159 -1.0254 -1.5541
  710MOL0     H93673  -0.692   2.208   8.884 -0.4203  1.4062 -0.2754
  710MOL0     H93674  -0.952   2.007   9.021 -0.3109  0.1706 -1.2479
  710MOL0     H93675  -0.835   1.977   8.886 -0.7881 -1.5475  0.0074
  710MOL0     H93676  -1.127   2.007   8.864  0.2252  2.2480 -2.7599
  710MOL0     H93677  -1.039   1.859   8.864 -0.7368  0.4012 -0.2199
  710MOL0     H93678  -0.980   2.079   8.645  2.1628  0.0906  1.4848
  710MOL0     H93679  -0.917   1.922   8.654 -0.1612 -0.4413  1.3818
  710MOL0     H93680  -1.120   1.806   8.590 -1.2369 -0.0085  0.3932
  710MOL0     H93681  -1.093   1.943   8.480 -0.6915  3.9707  0.7593
  710MOL0     H93682  -1.276   1.710   8.654  1.3468  0.0773 -1.0599
  710MOL0     H93683  -1.500   1.617   8.688 -2.9015  0.9300  2.5080
  710MOL0     H93684  -1.991   1.744   8.321 -0.6354 -0.5370 -1.3580
  710MOL0     H93685  -2.226   1.670   8.321  0.7204 -1.8048 -0.6709
  710MOL0     H93686  -2.416   1.645   8.741  2.6382 -0.6934  0.7628
  710MOL0     H93687  -2.359   1.484   8.694  1.1379  0.0702 -2.2184
  710MOL0     H93688  -2.598   1.475   8.758  0.0039 -0.4622 -0.2958
  710MOL0     H93689  -2.571   1.413   8.598 -1.9911 -1.7349  2.0313
  710MOL0     H93690  -2.621   1.631   8.498 -2.6497  0.7445 -1.9261
  710MOL0     H93691  -2.684   1.689   8.653 -0.9997 -1.1337  1.0727
  710MOL0     H93692  -2.873   1.606   8.516  0.7524  2.3069  1.8874
  710MOL0     H93693  -2.779   1.465   8.472 -0.6860  0.1298 -0.7233
  710MOL0     H93694  -2.825   1.506   8.760  0.9153 -1.5772 -0.0424
  710MOL0     H93695  -2.821   1.349   8.681  3.3716  0.5253  2.6493
  710MOL0     H93696  -3.049   1.414   8.575  2.0900 -0.8572 -1.1642
  710MOL0     H93697  -3.035   1.568   8.667  0.2463  0.7223  1.3909
  710MOL0     H93698  -3.031   1.302   8.831  0.7185  0.4833  1.0648
  710MOL0     H93699  -3.041   1.465   8.885  1.3026  0.1198  0.1380
  710MOL0     H93700  -3.246   1.340   8.705  2.5051  1.3494 -1.0811
  710MOL0     H93701  -3.258   1.505   8.774 -0.0443 -0.6979 -2.2363
  710MOL0     H93702  -2.212   1.685   8.754 -0.2762  3.4899 -0.5393
  710MOL0     H93703  -1.986   1.730   8.749 -1.2989  0.0163  0.8910
  710MOL0     H93704  -1.671   2.001   8.582 -1.1944 -1.7204  2.1495
  710MOL0     H93705  -1.436   2.089   8.550 -1.5806 -0.8386 -3.6231
  710MOL0     H93706   0.105   2.430   8.832 -0.2579  0.9381  0.7836
  710MOL0     H93707   0.347   2.434   8.885 -0.7025  0.1409 -0.1523
  710MOL0     H93708   0.690   2.508   8.958  0.0489 -0.4924  0.0374
  710MOL0     H93709   0.925   2.518   9.078 -0.5901  1.8416  1.3906
  710MOL0     H93710   1.266   2.678   8.857  0.4266  0.4440  0.6468
  710MOL0     H93711   1.289   2.509   8.836 -0.7113  0.4030 -0.5031
  710MOL0     H93712   1.469   2.542   8.955 -0.9425 -0.6662 -0.8977
  710MOL0     H93713   1.397   2.652   9.091 -1.8332 -0.7185  0.8162
  710MOL0     H93714   1.335   2.365   9.041 -0.2485  0.8721 -0.8136
  710MOL0     H93715   1.290   2.449   9.180  0.2242  1.8469  1.2747
  710MOL0     H93716   1.465   2.317   9.264 -0.7610 -1.5889 -1.7339
  710MOL0     H93717   1.548   2.324   9.108 -1.8185  2.6479 -2.6734
  710MOL0     H93718   1.708   2.631   9.366  0.2201 -0.9980 -0.2138
  710MOL0     H93719   1.111   2.607   8.711 -1.5986 -1.0861 -2.0450
  710MOL0     H93720   0.890   2.644   8.607 -0.6921 -0.9153  0.0692
  711MOL0     O93721  10.214  10.917   8.454 -0.3632  0.0254  0.2536
  711MOL0     C93722  10.240  10.881   8.338 -0.5696  0.2070 -1.0125
  711MOL0     O93723  10.177  10.783   8.272  0.7293 -0.3091 -0.2969
  711MOL0     C93724  10.059  10.730   8.319  0.1392 -0.3337 -0.4717
  711MOL0     C93725   9.947  10.791   8.387  0.4018 -0.5074  0.3887
  711MOL0     C93726   9.839  10.707   8.425 -0.0444 -0.9898  0.1139
  711MOL0     C93727   9.827  10.577   8.383  0.3557  0.2982 -0.6796
  711MOL0     O93728   9.718  10.515   8.436  0.4601  0.6688 -0.3283
  711MOL0     C93729   9.645  10.424   8.348  0.4113  0.1191 -0.4793
  711MOL0     C93730   9.541  10.345   8.426 -0.4634  0.2046 -1.0346
  711MOL0     C93731   9.425  10.436   8.457 -0.6165  0.1938 -0.5154
  711MOL0     C93732   9.321  10.353   8.535 -0.3656 -0.6243  0.0852
  711MOL0     C93733   9.174  10.407   8.538 -0.1272  0.4182  0.4387
  711MOL0     C93734   9.105  10.403   8.401  1.8428  0.0220  0.1121
  711MOL0     C93735   8.949  10.429   8.415  0.4558 -0.0798 -0.2513
  711MOL0     C93736   8.886  10.447   8.272  0.4349 -0.4701 -0.2969
  711MOL0     N93737   8.737  10.472   8.285  0.9296 -0.1092  0.0707
  711MOL0     C93738   8.645  10.423   8.376  0.1574  0.7396 -0.4578
  711MOL0     C93739   8.517  10.443   8.337 -0.5385 -0.1471  0.4441
  711MOL0     C93740   8.396  10.401   8.415  0.4186  0.1596 -0.9205
  711MOL0     C93741   8.267  10.372   8.335  1.1295 -0.1812 -0.1263
  711MOL0     C93742   8.149  10.358   8.434  0.1879  0.5743  0.7389
  711MOL0     C93743   8.026  10.336   8.352  0.0715 -0.6622 -0.0210
  711MOL0     O93744   7.913  10.341   8.434 -0.6166  0.2374  0.1226
  711MOL0     C93745   7.791  10.329   8.386 -0.5434  0.0177 -1.4280
  711MOL0     C93746   7.692  10.317   8.485 -0.2498 -0.8923 -0.0065
  711MOL0     C93747   7.558  10.296   8.449  0.5121  0.2274  0.3602
  711MOL0     C93748   7.519  10.290   8.314  0.2167 -0.2795 -0.2906
  711MOL0     C93749   7.379  10.295   8.269 -0.1447 -0.2013 -0.3449
  711MOL0     O93750   7.346  10.379   8.164 -0.5894  0.0703  0.3258
  711MOL0     C93751   7.222  10.379   8.119 -0.0500 -0.6638  0.3850
  711MOL0     C93752   7.139  10.261   8.108  0.6943  0.6900 -0.1976
  711MOL0     C93753   7.014  10.264   8.046 -0.0878  0.4246  0.2953
  711MOL0     C93754   6.973  10.385   7.994  0.0191 -0.6799 -0.2986
  711MOL0     O93755   6.863  10.379   7.920  0.8579  0.8631  0.2884
  711MOL0     C93756   6.795  10.504   7.887  0.4269  0.1392 -0.2622
  711MOL0     C93757   6.653  10.472   7.831  1.1354 -0.2102  0.9581
  711MOL0     C93758   6.569  10.602   7.814  0.4025  0.7970 -0.6489
  711MOL0     C93759   6.432  10.554   7.789  1.0755  0.3524 -0.1806
  711MOL0     C93760   6.327  10.672   7.797 -1.2155  0.4183  0.6492
  711MOL0     C93761   6.207  10.658   7.709  0.5520  0.3269 -0.4719
  711MOL0     C93762   6.242  10.714   7.574 -0.1736  0.3227 -0.6387
  711MOL0     C93763   6.133  10.699   7.473  0.6311 -0.1639 -0.3528
  711MOL0    Cl93764   6.180  10.744   7.315 -0.2426 -0.0184 -0.3566
  711MOL0     C93765   7.048  10.503   8.014  0.0227 -0.5004 -0.4631
  711MOL0     C93766   7.168  10.505   8.074  0.8561  0.1149  0.0457
  711MOL0     O93767   7.296  10.242   8.348 -0.5083  0.5520 -0.4204
  711MOL0     C93768   7.621  10.312   8.212  0.3202  0.1226 -0.9543
  711MOL0     C93769   7.752  10.331   8.252  0.2909 -0.5401  0.1660
  711MOL0     N93770   8.531  10.500   8.215  0.3566  0.3738  0.4549
  711MOL0     N93771   8.651  10.517   8.188  0.2648 -0.0017  0.9734
  711MOL0     C93772   9.918  10.531   8.289 -0.2562 -0.1054  0.0164
  711MOL0     C93773  10.035  10.606   8.266  0.4785  0.0073  0.2461
  711MOL0     C93774  10.346  10.953   8.267  0.3775 -0.1739  0.1106
  711MOL0     C93775  10.451  11.032   8.332  0.0042 -0.6389 -0.2306
  711MOL0     C93776  10.554  11.087   8.252 -0.3755  0.2565  0.2395
  711MOL0     C93777  10.550  11.085   8.115  1.0173 -0.2947 -0.7893
  711MOL0     O93778  10.643  11.137   8.034 -0.1761  0.3749  0.0244
  711MOL0     C93779  10.755  11.205   8.087  0.5235 -0.0102 -0.7004
  711MOL0     C93780  10.829  11.269   7.979 -0.0238 -0.0801  0.2772
  711MOL0     C93781  10.960  11.333   8.026 -0.1371  0.5192  0.1519
  711MOL0     C93782  11.018  11.422   7.905  0.4011  1.0598 -0.5841
  711MOL0     C93783  11.065  11.329   7.799  0.8245 -0.2266  0.5470
  711MOL0     C93784  11.099  11.270   7.700 -0.0602 -0.3632 -0.6743
  711MOL0     C93785  10.445  11.019   8.056  0.6855 -0.5947  0.2024
  711MOL0     C93786  10.347  10.958   8.130  0.1566 -0.0592 -0.9451
  711MOL0     H93787   9.950  10.892   8.426 -1.8655 -0.9402  1.8964
  711MOL0     H93788   9.772  10.741   8.503 -2.7194  1.7678 -3.0593
  711MOL0     H93789   9.701  10.350   8.290 -2.5646 -0.6186 -2.6404
  711MOL0     H93790   9.592  10.483   8.272 -2.8682 -1.6782  0.2049
  711MOL0     H93791   9.575  10.304   8.521 -1.0709  0.5347 -0.6683
  711MOL0     H93792   9.514  10.267   8.355 -0.3684  0.3336 -1.2119
  711MOL0     H93793   9.380  10.462   8.361 -0.5438 -1.7224 -1.1184
  711MOL0     H93794   9.444  10.527   8.514  2.2317  0.7305 -2.1037
  711MOL0     H93795   9.320  10.258   8.481 -3.6501  0.2289 -1.6484
  711MOL0     H93796   9.364  10.345   8.635  0.5972  3.2038  0.1204
  711MOL0     H93797   9.169  10.506   8.585 -1.4074  0.9864 -0.8371
  711MOL0     H93798   9.113  10.345   8.605 -1.4070  0.6251 -0.4987
  711MOL0     H93799   9.126  10.302   8.362 -0.9254 -1.8960  3.0533
  711MOL0     H93800   9.153  10.480   8.340 -0.0366 -0.3118 -1.9378
  711MOL0     H93801   8.906  10.350   8.477  1.8151  0.7344  1.8470
  711MOL0     H93802   8.937  10.519   8.477  0.0978 -0.9882  1.0340
  711MOL0     H93803   8.909  10.356   8.217  0.3099  0.2650 -1.6119
  711MOL0     H93804   8.943  10.526   8.222  1.8195 -0.8657  0.5917
  711MOL0     H93805   8.659  10.374   8.472  2.0916 -0.1529 -1.1526
  711MOL0     H93806   8.368  10.476   8.490 -0.8063 -1.0045 -0.1549
  711MOL0     H93807   8.424  10.310   8.469  3.3764  0.8518 -1.1288
  711MOL0     H93808   8.290  10.280   8.281  0.1940  0.8182 -2.3695
  711MOL0     H93809   8.256  10.450   8.259  2.2543  1.1654  1.0208
  711MOL0     H93810   8.164  10.276   8.504  0.3794  0.4290  0.5261
  711MOL0     H93811   8.138  10.449   8.495 -0.4344  0.6582  0.5108
  711MOL0     H93812   8.033  10.235   8.311  1.4195 -0.9363  0.8074
  711MOL0     H93813   8.019  10.416   8.277 -0.4606 -0.6572  0.0316
  711MOL0     H93814   7.720  10.313   8.590 -0.0801  1.8721  0.1474
  711MOL0     H93815   7.488  10.280   8.531  2.7523 -0.0741  2.3227
  711MOL0     H93816   7.175  10.164   8.141 -0.9529 -0.4045 -1.4230
  711MOL0     H93817   6.969  10.177   7.999  2.8719 -0.6241 -0.8797
  711MOL0     H93818   6.850  10.569   7.818  1.1489  1.7662  1.7636
  711MOL0     H93819   6.784  10.555   7.983 -2.0228 -0.6512 -0.0271
  711MOL0     H93820   6.602  10.406   7.902 -2.6379  1.8491  0.4107
  711MOL0     H93821   6.655  10.428   7.730 -0.6083 -0.1198  0.8617
  711MOL0     H93822   6.616  10.675   7.747 -0.0774  4.0647  2.3111
  711MOL0     H93823   6.555  10.662   7.904 -1.4958  0.4568 -0.6848
  711MOL0     H93824   6.416  10.517   7.688 -2.6849 -0.9957  0.7229
  711MOL0     H93825   6.398  10.475   7.857  0.0210  1.1190  0.2100
  711MOL0     H93826   6.372  10.770   7.781  0.7186 -0.1030  2.3820
  711MOL0     H93827   6.281  10.666   7.896 -1.2931 -2.7267  0.5335
  711MOL0     H93828   6.126  10.722   7.745 -0.2146 -1.4314  1.1105
  711MOL0     H93829   6.165  10.558   7.696 -0.6870  0.6065  1.0112
  711MOL0     H93830   6.262  10.820   7.595 -0.5434 -0.2001  2.9858
  711MOL0     H93831   6.332  10.665   7.536  0.0172  0.6461 -0.6115
  711MOL0     H93832   6.057  10.775   7.496  1.8613  0.4135  2.1551
  711MOL0     H93833   6.083  10.603   7.459 -4.3966  1.8371  1.4173
  711MOL0     H93834   7.014  10.603   7.989 -1.7306 -0.9804 -0.1580
  711MOL0     H93835   7.232  10.593   8.078 -0.2587  0.9208  1.8252
  711MOL0     H93836   7.591  10.310   8.108  0.0970  1.0812 -0.9109
  711MOL0     H93837   7.826  10.337   8.173  0.7798  0.6057  0.6863
  711MOL0     H93838   9.916  10.433   8.242 -2.4042 -0.4057  0.6221
  711MOL0     H93839  10.097  10.570   8.185  1.2943  2.9750 -0.5962
  711MOL0     H93840  10.449  11.046   8.439 -1.5633 -1.9544 -0.0445
  711MOL0     H93841  10.638  11.137   8.300  0.3517 -1.6651  1.0728
  711MOL0     H93842  10.817  11.136   8.143  0.8731  0.4992 -0.4573
  711MOL0     H93843  10.722  11.280   8.159  3.1538 -0.7271  1.3761
  711MOL0     H93844  10.840  11.193   7.902  1.8262  0.8580 -0.4493
  711MOL0     H93845  10.776  11.349   7.926  3.5222 -1.5056 -6.5227
  711MOL0     H93846  11.036  11.263   8.063  1.3017  2.7559  1.6358
  711MOL0     H93847  10.952  11.392   8.117  2.4138 -1.8810  2.1099
  711MOL0     H93848  10.942  11.498   7.883 -1.7876  0.4190  3.6802
  711MOL0     H93849  11.108  11.471   7.944  0.9717 -0.3700 -0.0230
  711MOL0     H93850  11.114  11.241   7.598 -0.7874  0.9653 -1.1873
  711MOL0     H93851  10.441  11.017   7.948 -0.1134 -0.8762  0.2310
  711MOL0     H93852  10.280  10.898   8.070  0.9313  1.8643 -3.9678
  712MOL0     O93853   2.707  10.881   4.151 -0.1866  0.1169 -0.2079
  712MOL0     C93854   2.803  10.901   4.073 -1.3422 -0.1149 -0.2418
  712MOL0     O93855   2.797  10.928   3.941 -0.4471 -0.3390 -0.0332
  712MOL0     C93856   2.668  10.960   3.893 -0.5189  0.6552  0.6938
  712MOL0     C93857   2.589  10.871   3.831  0.4146 -0.2479 -0.1150
  712MOL0     C93858   2.462  10.903   3.783  0.4261 -0.9244 -0.0093
  712MOL0     C93859   2.415  11.034   3.797  0.1401 -0.4181  0.2851
  712MOL0     O93860   2.288  11.072   3.753  0.5101  0.0436  0.9855
  712MOL0     C93861   2.190  10.970   3.705  0.6279 -0.0115 -0.3702
  712MOL0     C93862   2.045  11.018   3.712 -0.0129  0.3339 -0.0049
  712MOL0     C93863   1.945  10.899   3.695 -0.9344 -1.1703  0.1846
  712MOL0     C93864   1.796  10.940   3.720  0.5110 -0.3485  0.6698
  712MOL0     C93865   1.712  10.814   3.714 -0.5045  0.1566  0.4294
  712MOL0     C93866   1.568  10.858   3.703 -0.0088 -0.4216  0.0381
  712MOL0     C93867   1.475  10.748   3.659  0.1664 -0.3668  0.2403
  712MOL0     C93868   1.443  10.642   3.763 -0.3102  0.3180 -0.3300
  712MOL0     N93869   1.329  10.567   3.707 -0.0259  0.0450 -0.5194
  712MOL0     C93870   1.223  10.543   3.789  0.8578 -0.4863 -0.6950
  712MOL0     C93871   1.127  10.499   3.695 -0.2437  0.2597  1.2287
  712MOL0     C93872   0.986  10.474   3.719 -0.1535 -0.9806  0.5888
  712MOL0     C93873   0.908  10.385   3.619 -0.0162 -0.2729 -0.1914
  712MOL0     C93874   0.751  10.400   3.630 -0.5560  0.0824 -0.3293
  712MOL0     C93875   0.713  10.532   3.568  0.4379 -0.8575 -0.3332
  712MOL0     O93876   0.591  10.587   3.633 -0.4717 -0.5315 -0.0701
  712MOL0     C93877   0.471  10.552   3.583  0.1619 -0.5127 -0.2729
  712MOL0     C93878   0.362  10.619   3.650 -0.1384  0.1630 -0.2646
  712MOL0     C93879   0.229  10.590   3.612 -0.0127  0.3662  0.3123
  712MOL0     C93880   0.196  10.501   3.516 -0.0977  0.0106  0.8700
  712MOL0     C93881   0.061  10.473   3.467  1.1369 -0.8758 -0.2911
  712MOL0     O93882   0.042  10.365   3.388  0.4948  0.0300  0.2088
  712MOL0     C93883  -0.084  10.339   3.339 -0.1051  0.8772 -0.0371
  712MOL0     C93884  -0.119  10.204   3.339  0.2209  0.5129 -0.3737
  712MOL0     C93885  -0.244  10.156   3.282 -0.7546 -0.4630 -0.2857
  712MOL0     C93886  -0.336  10.252   3.245  0.5722  0.2705 -0.4420
  712MOL0     O93887  -0.457  10.216   3.203  0.1860 -0.1105 -0.1709
  712MOL0     C93888  -0.518  10.085   3.228 -0.6355 -0.2810 -0.2514
  712MOL0     C93889  -0.652  10.059   3.155 -0.0072 -1.0114  0.5386
  712MOL0     C93890  -0.770  10.130   3.224  0.6298  0.4768 -0.4171
  712MOL0     C93891  -0.899  10.094   3.145 -0.2749  0.0164 -1.1495
  712MOL0     C93892  -1.004  10.212   3.148  0.0389 -0.3583 -0.4501
  712MOL0     C93893  -1.125  10.171   3.058  0.0033  0.1980  0.7598
  712MOL0     C93894  -1.262  10.236   3.103  0.0975  0.5519  0.7311
  712MOL0     C93895  -1.272  10.384   3.071  0.5098 -0.9112  0.5994
  712MOL0    Cl93896  -1.167  10.479   3.186 -0.3122 -0.2785 -0.2976
  712MOL0     C93897  -0.303  10.384   3.238  0.1605  0.0676  0.2927
  712MOL0     C93898  -0.174  10.433   3.280  0.5145  0.3238  0.0418
  712MOL0     O93899  -0.030  10.551   3.505 -0.5964 -0.5909 -0.5489
  712MOL0     C93900   0.305  10.438   3.454 -0.7048  0.0723  0.1870
  712MOL0     C93901   0.440  10.462   3.486 -0.0500  0.5663  0.1520
  712MOL0     N93902   1.182  10.487   3.568 -0.2060 -0.1996  0.0677
  712MOL0     N93903   1.304  10.521   3.583  0.2524 -0.0358  0.2447
  712MOL0     C93904   2.506  11.133   3.847  0.2002 -0.5935 -0.6629
  712MOL0     C93905   2.624  11.097   3.896  0.7588  1.0297 -0.3198
  712MOL0     C93906   2.941  10.904   4.135 -0.1549  0.3100 -0.5428
  712MOL0     C93907   3.055  10.927   4.052  0.3441 -0.2604  0.0030
  712MOL0     C93908   3.180  10.930   4.113 -0.1019  0.3509  0.8000
  712MOL0     C93909   3.196  10.911   4.247 -0.3918 -0.6339 -0.1491
  712MOL0     O93910   3.327  10.887   4.291 -0.3037  0.6141 -0.4761
  712MOL0     C93911   3.358  10.849   4.427  0.3118 -0.4684  0.3917
  712MOL0     C93912   3.499  10.911   4.463  0.7541  0.8273  0.3291
  712MOL0     C93913   3.502  11.065   4.459  0.1032  0.2172  0.2911
  712MOL0     C93914   3.635  11.124   4.488 -0.5500  0.5048  0.4994
  712MOL0     C93915   3.676  11.102   4.627 -0.4680  0.1669 -0.7411
  712MOL0     C93916   3.690  11.092   4.742 -0.2547  0.1602 -0.6005
  712MOL0     C93917   3.086  10.896   4.331  0.3764  0.3952 -0.7867
  712MOL0     C93918   2.960  10.897   4.273 -0.0152 -0.1735 -0.1655
  712MOL0     H93919   2.632  10.773   3.812  3.5801  0.9370  0.4478
  712MOL0     H93920   2.406  10.823   3.736 -1.2859 -0.0366  0.4397
  712MOL0     H93921   2.190  10.881   3.769 -0.4125  1.7725  2.2733
  712MOL0     H93922   2.205  10.944   3.599  0.5136  0.2948 -0.4638
  712MOL0     H93923   2.025  11.081   3.625 -2.5643 -0.0398  0.2260
  712MOL0     H93924   2.035  11.082   3.800  2.7289  0.3470  0.3849
  712MOL0     H93925   1.974  10.827   3.773 -1.7770 -0.5958  1.0384
  712MOL0     H93926   1.966  10.858   3.596  0.5759 -1.0381  0.4194
  712MOL0     H93927   1.790  10.985   3.819  5.2686  0.0507  1.0022
  712MOL0     H93928   1.768  11.016   3.646  1.2715 -0.4677  0.2478
  712MOL0     H93929   1.722  10.755   3.806 -2.2750  1.4380  1.4986
  712MOL0     H93930   1.743  10.748   3.633 -1.3234  0.5032 -0.1775
  712MOL0     H93931   1.555  10.940   3.632 -0.5832  0.2163  0.8572
  712MOL0     H93932   1.538  10.895   3.801 -0.2103 -2.5009  0.8234
  712MOL0     H93933   1.379  10.790   3.630  1.2955  2.1731 -0.0894
  712MOL0     H93934   1.516  10.700   3.569  0.9162  0.8794 -0.1137
  712MOL0     H93935   1.414  10.701   3.850 -0.2760 -1.4730  0.9183
  712MOL0     H93936   1.533  10.584   3.784  1.1251  2.2601 -0.7899
  712MOL0     H93937   1.210  10.571   3.893 -0.4591  0.4824 -1.1036
  712MOL0     H93938   0.935  10.570   3.729  1.0774 -0.1526 -0.7117
  712MOL0     H93939   0.983  10.426   3.817  2.3523  1.3595  1.9683
  712MOL0     H93940   0.938  10.285   3.652  0.6499  0.5365  1.7776
  712MOL0     H93941   0.936  10.401   3.515  1.5434  0.8757  0.3824
  712MOL0     H93942   0.695  10.323   3.576 -1.0559  1.5738 -2.0363
  712MOL0     H93943   0.718  10.405   3.734 -0.5436 -0.3129 -0.3044
  712MOL0     H93944   0.697  10.525   3.460 -1.2183  0.1354 -0.1736
  712MOL0     H93945   0.791  10.607   3.585  0.9655 -1.8097  1.8949
  712MOL0     H93946   0.392  10.695   3.722 -2.7329  2.7887 -1.7673
  712MOL0     H93947   0.151  10.649   3.658 -2.3889 -1.1964 -1.4303
  712MOL0     H93948  -0.042  10.134   3.371  0.6108  0.6480 -0.9904
  712MOL0     H93949  -0.270  10.051   3.293 -0.1859 -0.9199 -2.8121
  712MOL0     H93950  -0.533  10.071   3.336  1.4592 -2.3759 -0.1493
  712MOL0     H93951  -0.450  10.004   3.203 -1.9217 -1.8496  1.1000
  712MOL0     H93952  -0.684   9.956   3.141 -3.2203  0.0111 -0.6117
  712MOL0     H93953  -0.636  10.099   3.054  3.1583 -2.9673  0.1452
  712MOL0     H93954  -0.754  10.237   3.239 -1.9678  1.3670 -2.9016
  712MOL0     H93955  -0.784  10.087   3.324  2.3615  0.5685 -0.1198
  712MOL0     H93956  -0.883  10.070   3.040 -2.2314 -0.9773 -1.2738
  712MOL0     H93957  -0.942  10.007   3.195 -4.3397  1.7200 -1.2187
  712MOL0     H93958  -0.963  10.306   3.111 -0.2188  0.0482  0.2929
  712MOL0     H93959  -1.048  10.227   3.246  1.5448  1.7237 -0.0292
  712MOL0     H93960  -1.131  10.062   3.059 -1.1877  0.2515  1.2876
  712MOL0     H93961  -1.108  10.194   2.953  1.8855  0.1326  1.0161
  712MOL0     H93962  -1.342  10.185   3.048  0.3115 -0.4158  1.2943
  712MOL0     H93963  -1.271  10.224   3.211  2.4726 -1.8448  0.7589
  712MOL0     H93964  -1.376  10.414   3.086  0.2493 -1.7083  0.4214
  712MOL0     H93965  -1.251  10.404   2.966 -2.1691  0.2325  0.1952
  712MOL0     H93966  -0.375  10.457   3.203 -0.8288 -1.9217 -2.1121
  712MOL0     H93967  -0.136  10.533   3.263 -1.0362  1.2822  1.8116
  712MOL0     H93968   0.295  10.368   3.372  1.4518  1.2777 -1.2384
  712MOL0     H93969   0.509  10.419   3.413 -3.5225  0.0814 -3.1903
  712MOL0     H93970   2.481  11.238   3.844  0.1758 -0.5299  1.0284
  712MOL0     H93971   2.697  11.164   3.940  1.5855  0.4084 -0.7240
  712MOL0     H93972   3.058  10.936   3.944 -1.1979  0.0012 -0.0320
  712MOL0     H93973   3.259  10.922   4.039 -2.8024 -0.3999 -2.2475
  712MOL0     H93974   3.362  10.740   4.433  2.3653 -0.3438  3.3650
  712MOL0     H93975   3.291  10.886   4.505 -0.2183  0.0817 -0.3055
  712MOL0     H93976   3.520  10.874   4.564 -1.2766 -3.0472 -0.4854
  712MOL0     H93977   3.574  10.873   4.394  2.5508  1.9795  1.5602
  712MOL0     H93978   3.432  11.109   4.530 -0.6496 -0.2111 -0.1681
  712MOL0     H93979   3.471  11.089   4.357  0.4488 -0.4257  0.0250
  712MOL0     H93980   3.704  11.061   4.432 -0.3315  0.0786  1.2373
  712MOL0     H93981   3.650  11.228   4.455  4.3768 -0.3167 -0.5942
  712MOL0     H93982   3.699  11.089   4.848  2.5626 -1.7274 -0.7788
  712MOL0     H93983   3.082  10.884   4.439 -1.1888  0.8218 -0.7770
  712MOL0     H93984   2.879  10.894   4.345 -1.0572 -0.3755 -1.3225
  713MOL0     O93985   0.117   5.608   7.196  0.1006 -0.7422 -0.0220
  713MOL0     C93986   0.114   5.595   7.315  0.4760  0.5038  0.2548
  713MOL0     O93987  -0.001   5.568   7.389  0.7300 -0.6317 -0.8347
  713MOL0     C93988  -0.117   5.525   7.336  0.0690  0.1176 -0.1794
  713MOL0     C93989  -0.219   5.505   7.426  0.8024 -0.4488  1.0963
  713MOL0     C93990  -0.346   5.462   7.385 -0.3830  0.7598 -0.2349
  713MOL0     C93991  -0.372   5.432   7.250 -0.0202 -0.1236  0.2758
  713MOL0     O93992  -0.501   5.390   7.222  0.0706 -0.3016 -0.2390
  713MOL0     C93993  -0.560   5.422   7.094  0.0444 -0.7135 -0.0293
  713MOL0     C93994  -0.680   5.515   7.122  0.3353 -0.1461 -0.0572
  713MOL0     C93995  -0.805   5.433   7.178 -0.1639 -0.4069 -0.2710
  713MOL0     C93996  -0.898   5.380   7.065 -0.3613 -0.0378 -0.1590
  713MOL0     C93997  -1.011   5.299   7.126 -0.0715 -0.0435  0.9536
  713MOL0     C93998  -1.073   5.206   7.029  0.1153  0.8809  0.3879
  713MOL0     C93999  -1.211   5.155   7.050  0.7197 -0.4827  0.5676
  713MOL0     C94000  -1.233   5.053   7.160 -0.1788 -0.1466 -0.1270
  713MOL0     N94001  -1.368   4.997   7.138 -0.5398  0.3241 -0.1828
  713MOL0     C94002  -1.397   4.888   7.064  0.1897 -0.1291  0.7584
  713MOL0     C94003  -1.514   4.843   7.100  0.4706 -0.2386 -0.3569
  713MOL0     C94004  -1.583   4.735   7.026  0.7606 -0.4766  0.4145
  713MOL0     C94005  -1.730   4.734   7.059 -0.5935 -0.0058  0.2616
  713MOL0     C94006  -1.815   4.671   6.947  0.4838  0.2695  0.2692
  713MOL0     C94007  -1.966   4.680   6.976  0.4627 -0.0970  0.8470
  713MOL0     O94008  -2.036   4.616   6.865 -0.0846 -0.1713  0.6337
  713MOL0     C94009  -2.170   4.601   6.873  0.4612  0.0984 -0.5718
  713MOL0     C94010  -2.230   4.512   6.779 -0.3609  0.5261 -1.5564
  713MOL0     C94011  -2.365   4.481   6.788  0.3376 -0.1254 -0.1452
  713MOL0     C94012  -2.451   4.539   6.890 -0.4496 -0.3015  1.3543
  713MOL0     C94013  -2.599   4.502   6.892 -1.2758 -0.4837  0.0483
  713MOL0     O94014  -2.652   4.442   6.783 -0.4267 -0.0790  0.1804
  713MOL0     C94015  -2.767   4.364   6.782  0.0167  0.3847 -0.1788
  713MOL0     C94016  -2.818   4.308   6.899 -0.5585  1.2224 -0.3694
  713MOL0     C94017  -2.930   4.226   6.899  0.0829 -0.4375  0.2170
  713MOL0     C94018  -2.985   4.187   6.778 -0.8792 -0.5174  0.2329
  713MOL0     O94019  -3.080   4.089   6.757  0.0194 -0.4923  0.3451
  713MOL0     C94020  -3.129   4.023   6.871  0.7180 -0.0401  0.5704
  713MOL0     C94021  -3.040   3.904   6.895 -0.5307  0.7523  0.0432
  713MOL0     C94022  -3.030   3.822   6.769  0.1189  0.4641 -0.3861
  713MOL0     C94023  -2.964   3.681   6.799  0.8965 -0.0783  0.3514
  713MOL0     C94024  -2.939   3.603   6.670 -1.0343  0.4362 -0.5219
  713MOL0     C94025  -2.824   3.489   6.698  0.5342 -0.2278 -0.1330
  713MOL0     C94026  -2.771   3.441   6.560 -0.1972  0.3046  0.4813
  713MOL0     C94027  -2.665   3.341   6.595  0.0960  0.2551  0.3556
  713MOL0    Cl94028  -2.533   3.394   6.717  0.1830  0.6015  0.0645
  713MOL0     C94029  -2.926   4.238   6.652  0.1480 -1.0214  0.4743
  713MOL0     C94030  -2.827   4.330   6.660  0.4705  0.7765 -1.0942
  713MOL0     O94031  -2.663   4.547   6.990 -0.0428  0.5744  0.1542
  713MOL0     C94032  -2.389   4.616   6.987 -0.3655 -0.1099  0.1379
  713MOL0     C94033  -2.249   4.651   6.969 -0.3191 -0.4312  0.3370
  713MOL0     N94034  -1.569   4.931   7.192 -0.4765 -0.2491  0.2839
  713MOL0     N94035  -1.480   5.018   7.213  0.5784 -0.5160 -0.1106
  713MOL0     C94036  -0.267   5.443   7.156 -0.4768  1.2090  0.3550
  713MOL0     C94037  -0.138   5.485   7.199 -0.2426  0.7307 -0.4836
  713MOL0     C94038   0.231   5.610   7.395 -0.1695 -0.1094 -0.1156
  713MOL0     C94039   0.359   5.632   7.330 -0.7604  0.2206 -0.2707
  713MOL0     C94040   0.470   5.656   7.405 -0.3320  0.5639 -0.0219
  713MOL0     C94041   0.475   5.637   7.541  0.0448 -0.5144 -0.0815
  713MOL0     O94042   0.579   5.646   7.634  0.3408  0.3073 -0.7565
  713MOL0     C94043   0.696   5.709   7.599 -0.0532 -0.3793  0.5464
  713MOL0     C94044   0.792   5.608   7.539  0.7029  0.2074 -0.0575
  713MOL0     C94045   0.921   5.685   7.494 -0.0072 -0.2399 -0.2207
  713MOL0     C94046   1.028   5.578   7.443  0.8826  0.2530  0.4771
  713MOL0     C94047   1.119   5.542   7.552 -0.0683 -0.7211 -0.7591
  713MOL0     C94048   1.202   5.513   7.635  0.8949 -0.5739 -0.9386
  713MOL0     C94049   0.348   5.621   7.599  0.3745  0.0162  0.5202
  713MOL0     C94050   0.232   5.601   7.528  0.2127 -0.0585  0.0097
  713MOL0     H94051  -0.209   5.547   7.526 -0.5445  2.6977  0.0369
  713MOL0     H94052  -0.420   5.441   7.461  1.1561  2.2685  1.8050
  713MOL0     H94053  -0.597   5.328   7.052  1.1802 -0.4079 -1.7864
  713MOL0     H94054  -0.494   5.464   7.018  0.4244 -0.3130  0.5124
  713MOL0     H94055  -0.712   5.570   7.033  0.1986 -0.1436 -0.0064
  713MOL0     H94056  -0.658   5.589   7.200  0.1548  0.6235 -0.7307
  713MOL0     H94057  -0.859   5.502   7.245  0.3917  0.6479 -0.8803
  713MOL0     H94058  -0.767   5.355   7.245  1.1756  0.6918  0.2933
  713MOL0     H94059  -0.940   5.466   7.014  0.1015 -1.2204 -2.6766
  713MOL0     H94060  -0.844   5.318   6.993  0.6557  1.5440 -0.8031
  713MOL0     H94061  -1.088   5.360   7.175 -0.6183  0.1192 -0.0843
  713MOL0     H94062  -0.967   5.234   7.201 -0.9956 -1.0061  0.6870
  713MOL0     H94063  -1.011   5.115   7.031  0.8416  1.3091 -0.9231
  713MOL0     H94064  -1.060   5.245   6.927  1.7579 -0.2973  0.0926
  713MOL0     H94065  -1.286   5.233   7.067 -0.5545 -0.7828 -2.9183
  713MOL0     H94066  -1.238   5.117   6.952 -0.5086  1.8667 -0.0846
  713MOL0     H94067  -1.218   5.097   7.258 -2.1531  2.3457 -0.8522
  713MOL0     H94068  -1.165   4.975   7.124 -0.7911  0.8451 -3.9549
  713MOL0     H94069  -1.331   4.858   6.983  0.8192  1.6665  0.5650
  713MOL0     H94070  -1.542   4.640   7.062  1.6481  0.2115  1.2503
  713MOL0     H94071  -1.581   4.759   6.919 -1.8294  1.7633  0.7728
  713MOL0     H94072  -1.775   4.830   7.085 -0.4300 -0.0212  0.6118
  713MOL0     H94073  -1.739   4.680   7.154 -1.5319 -2.3307 -1.0605
  713MOL0     H94074  -1.789   4.711   6.849 -1.7880 -2.6468 -1.7123
  713MOL0     H94075  -1.797   4.564   6.938 -0.3888  0.1266  0.1266
  713MOL0     H94076  -2.008   4.779   6.997  1.3980  0.5269 -0.1000
  713MOL0     H94077  -1.966   4.612   7.061 -0.9494 -1.5795 -0.2741
  713MOL0     H94078  -2.170   4.463   6.703 -0.7501 -1.3586 -0.7130
  713MOL0     H94079  -2.423   4.422   6.718  1.5171 -1.4993 -0.0028
  713MOL0     H94080  -2.785   4.337   6.999 -1.9427  0.1472  0.4295
  713MOL0     H94081  -2.966   4.185   6.993 -1.3133  1.2432  0.4548
  713MOL0     H94082  -3.234   3.997   6.853  1.0120  0.2090 -1.8493
  713MOL0     H94083  -3.140   4.079   6.964 -3.5753 -0.3925  0.4870
  713MOL0     H94084  -3.075   3.844   6.979  2.3786 -0.3745  0.5598
  713MOL0     H94085  -2.938   3.935   6.920 -0.0750  0.4802 -1.3974
  713MOL0     H94086  -2.964   3.868   6.695 -1.8620 -1.1918 -3.3938
  713MOL0     H94087  -3.126   3.793   6.725 -0.0281  1.3088 -0.6344
  713MOL0     H94088  -2.872   3.688   6.858  0.0851  1.4384  1.4934
  713MOL0     H94089  -3.030   3.618   6.858  1.2921  0.6333  1.5775
  713MOL0     H94090  -2.920   3.664   6.581  1.9224  0.7593  0.2211
  713MOL0     H94091  -3.032   3.555   6.639 -1.4140  1.2934 -0.7607
  713MOL0     H94092  -2.856   3.398   6.749  4.8237 -1.5878  0.5484
  713MOL0     H94093  -2.737   3.534   6.746 -0.0031  0.1008  0.5477
  713MOL0     H94094  -2.844   3.385   6.502  0.8253 -2.9441  2.1120
  713MOL0     H94095  -2.726   3.513   6.491  0.2809 -0.3215  0.1377
  713MOL0     H94096  -2.599   3.308   6.515  0.9170  0.0756  1.0940
  713MOL0     H94097  -2.711   3.249   6.635  0.9554  0.5916  2.2428
  713MOL0     H94098  -2.967   4.211   6.555  0.9550  1.0027 -0.5047
  713MOL0     H94099  -2.784   4.361   6.565  1.5817 -0.4284 -1.0233
  713MOL0     H94100  -2.444   4.657   7.071 -1.0184 -1.4547  0.3780
  713MOL0     H94101  -2.215   4.714   7.050 -0.2494  0.5551 -0.4315
  713MOL0     H94102  -0.275   5.428   7.049  0.3367  1.4857  0.2480
  713MOL0     H94103  -0.063   5.486   7.121  1.0687 -1.4807  0.6403
  713MOL0     H94104   0.366   5.653   7.223  2.8374 -0.2491 -0.2588
  713MOL0     H94105   0.556   5.694   7.351 -1.0222 -0.0203 -1.5983
  713MOL0     H94106   0.736   5.749   7.693  1.7670 -1.6726  0.3582
  713MOL0     H94107   0.671   5.790   7.530  1.4683 -0.6835 -0.3888
  713MOL0     H94108   0.819   5.530   7.611  0.5107  0.6470  0.5009
  713MOL0     H94109   0.742   5.557   7.456 -2.2077 -0.0201  1.6846
  713MOL0     H94110   0.954   5.736   7.585  0.1664 -1.4679  0.4259
  713MOL0     H94111   0.891   5.750   7.412 -2.0043  0.4695  1.0091
  713MOL0     H94112   0.976   5.493   7.400  0.4733  0.5651  0.3528
  713MOL0     H94113   1.089   5.613   7.359  1.0410  0.8351  0.8291
  713MOL0     H94114   1.266   5.480   7.714  0.3557 -0.3978 -0.4204
  713MOL0     H94115   0.342   5.613   7.707  3.4423  0.7533  0.8389
  713MOL0     H94116   0.141   5.580   7.584 -0.6591 -0.5223 -1.5208
  714MOL0     O94117   1.142   4.995   2.075 -0.1041 -0.6730 -0.1066
  714MOL0     C94118   1.181   4.882   2.097  0.0759 -0.9322 -0.2297
  714MOL0     O94119   1.112   4.788   2.171 -0.6934  0.2469  0.2189
  714MOL0     C94120   0.986   4.811   2.224 -0.9280  0.5427  1.3593
  714MOL0     C94121   0.949   4.931   2.281  0.5816  0.1545 -0.6516
  714MOL0     C94122   0.815   4.936   2.331  0.6638 -0.7254 -0.2299
  714MOL0     C94123   0.734   4.827   2.342  0.4778  0.4273 -0.5548
  714MOL0     O94124   0.616   4.833   2.398  0.1991  0.3048  0.5303
  714MOL0     C94125   0.619   4.863   2.544 -0.3606 -0.3162 -0.2661
  714MOL0     C94126   0.482   4.841   2.611  0.6461  0.4517 -0.5636
  714MOL0     C94127   0.405   4.973   2.620  0.3891 -1.0075  0.0848
  714MOL0     C94128   0.278   4.980   2.701  0.4342 -0.1084  0.2451
  714MOL0     C94129   0.184   4.867   2.660 -0.1821  0.9409 -0.5365
  714MOL0     C94130   0.046   4.920   2.633  0.0389  0.0392  0.3451
  714MOL0     C94131  -0.039   4.802   2.580  0.4870 -0.3425  1.3730
  714MOL0     C94132  -0.185   4.840   2.544  0.4497 -0.0577 -0.3696
  714MOL0     N94133  -0.261   4.841   2.676 -0.0803 -0.1193 -0.3983
  714MOL0     C94134  -0.320   4.737   2.743  0.0394 -0.2119 -0.2758
  714MOL0     C94135  -0.374   4.800   2.856  0.0130 -0.4349  0.1370
  714MOL0     C94136  -0.477   4.740   2.952  0.0792 -0.3264  0.7757
  714MOL0     C94137  -0.460   4.785   3.104  0.0715 -0.3978  0.4006
  714MOL0     C94138  -0.517   4.687   3.200  0.0533 -0.3381 -0.7850
  714MOL0     C94139  -0.672   4.666   3.187  0.3992  0.1050  0.3220
  714MOL0     O94140  -0.732   4.578   3.290  0.1990  0.5097 -0.7457
  714MOL0     C94141  -0.758   4.626   3.420  0.2735 -0.3414 -0.0867
  714MOL0     C94142  -0.815   4.531   3.518 -0.3712  0.2141 -0.3536
  714MOL0     C94143  -0.831   4.575   3.654  0.1252  0.9773 -0.8730
  714MOL0     C94144  -0.809   4.711   3.689 -0.2665  1.1417 -0.1857
  714MOL0     C94145  -0.841   4.756   3.829  0.5393 -0.8108  0.1195
  714MOL0     O94146  -0.824   4.888   3.851  0.2704  0.2182  0.6469
  714MOL0     C94147  -0.822   4.916   3.981 -0.5668  0.1370  0.1099
  714MOL0     C94148  -0.941   4.961   4.042 -0.7083 -0.5936  0.2366
  714MOL0     C94149  -0.940   4.998   4.176 -0.2318  0.5790 -0.6113
  714MOL0     C94150  -0.825   5.006   4.259 -0.0730  0.7087 -0.2982
  714MOL0     O94151  -0.829   5.032   4.394  0.0495 -0.0315 -0.0928
  714MOL0     C94152  -0.906   5.144   4.434  0.2207  0.6142  0.8522
  714MOL0     C94153  -0.927   5.144   4.581 -0.5526 -0.1702 -0.9515
  714MOL0     C94154  -1.017   5.265   4.618 -0.0312 -1.0733  0.5746
  714MOL0     C94155  -1.047   5.254   4.767 -0.0155 -0.3294 -0.1110
  714MOL0     C94156  -1.144   5.139   4.797 -0.2109 -0.2464  0.0225
  714MOL0     C94157  -1.186   5.143   4.941 -0.5397  0.0658 -0.0721
  714MOL0     C94158  -1.306   5.051   4.971  0.1152  0.0152  0.4512
  714MOL0     C94159  -1.254   4.915   5.022  0.5779 -0.8488 -0.2953
  714MOL0    Cl94160  -1.392   4.831   5.093  0.4908  0.2953  0.1645
  714MOL0     C94161  -0.708   4.956   4.198  0.7922 -0.5948 -0.2476
  714MOL0     C94162  -0.711   4.914   4.061  0.4607 -0.3866  0.6919
  714MOL0     O94163  -0.854   4.670   3.911  0.7074 -0.5166  0.3094
  714MOL0     C94164  -0.774   4.806   3.596 -0.1331  0.5772  0.4850
  714MOL0     C94165  -0.748   4.759   3.462  0.3460  0.7798 -0.5369
  714MOL0     N94166  -0.356   4.937   2.852 -0.8827  0.4825 -1.2015
  714MOL0     N94167  -0.273   4.952   2.757 -0.2492 -0.3169  0.0671
  714MOL0     C94168   0.772   4.717   2.271 -0.7344  0.1580 -0.8208
  714MOL0     C94169   0.897   4.707   2.213  0.3378  0.5386 -0.2829
  714MOL0     C94170   1.309   4.854   2.029  1.0847  0.0471  0.2333
  714MOL0     C94171   1.391   4.749   2.067 -0.5578  0.1099 -0.4998
  714MOL0     C94172   1.516   4.730   1.997  0.5485  0.7086  0.0610
  714MOL0     C94173   1.568   4.813   1.900 -1.1005  0.3194  0.8234
  714MOL0     O94174   1.674   4.793   1.820 -0.1197 -0.8846  0.0074
  714MOL0     C94175   1.757   4.683   1.849  0.5674 -0.1108 -0.8728
  714MOL0     C94176   1.888   4.695   1.779 -0.3475 -0.5256 -1.1216
  714MOL0     C94177   1.972   4.568   1.753  0.6314  0.1266 -0.0567
  714MOL0     C94178   2.088   4.585   1.656  0.3671 -0.4381 -0.3680
  714MOL0     C94179   2.187   4.480   1.687  0.3258  0.4998  0.3312
  714MOL0     C94180   2.265   4.391   1.721 -0.0518 -1.0878  0.0631
  714MOL0     C94181   1.487   4.919   1.866 -0.2148 -0.2625  0.4095
  714MOL0     C94182   1.362   4.941   1.927  0.0791  0.0767  0.0150
  714MOL0     H94183   1.008   5.022   2.286  0.0815  0.4288  1.9450
  714MOL0     H94184   0.782   5.027   2.380 -1.6449 -1.2542 -0.6665
  714MOL0     H94185   0.644   4.968   2.558  2.8083 -1.1616  1.3000
  714MOL0     H94186   0.694   4.803   2.597  0.4711  0.7286 -0.2226
  714MOL0     H94187   0.503   4.813   2.714  2.2323  2.0189 -0.4108
  714MOL0     H94188   0.430   4.760   2.559  2.9312 -1.0842 -0.6446
  714MOL0     H94189   0.372   4.998   2.519  0.0213  2.1623  0.8688
  714MOL0     H94190   0.468   5.056   2.656  0.5721 -0.9229 -0.4216
  714MOL0     H94191   0.286   4.979   2.810 -2.4680  2.2246  0.6034
  714MOL0     H94192   0.234   5.079   2.686 -2.1135 -1.0362  1.1830
  714MOL0     H94193   0.181   4.794   2.741  1.3629  0.6607 -0.7003
  714MOL0     H94194   0.217   4.806   2.575 -0.2897  0.8641 -0.5230
  714MOL0     H94195   0.042   4.999   2.558 -0.4494 -0.5712 -0.2832
  714MOL0     H94196  -0.000   4.956   2.726  3.6970  0.2526  2.2606
  714MOL0     H94197   0.013   4.770   2.489 -0.8462 -0.1642  0.5186
  714MOL0     H94198  -0.026   4.718   2.648  4.0157  0.1355  1.5102
  714MOL0     H94199  -0.220   4.764   2.474  0.7057 -0.0876 -0.4661
  714MOL0     H94200  -0.192   4.944   2.510 -1.0807 -0.1803 -0.4787
  714MOL0     H94201  -0.338   4.636   2.707  2.5431 -1.1078  0.7983
  714MOL0     H94202  -0.466   4.632   2.941 -3.4778 -0.7472 -0.1516
  714MOL0     H94203  -0.577   4.766   2.913  0.1158  1.3627  1.6884
  714MOL0     H94204  -0.495   4.886   3.127  1.8941 -0.1974  2.6250
  714MOL0     H94205  -0.353   4.793   3.128 -0.1265  5.8514  0.8089
  714MOL0     H94206  -0.479   4.585   3.190 -1.6671 -1.1577  0.4683
  714MOL0     H94207  -0.486   4.729   3.296  0.0646  1.5777 -1.5821
  714MOL0     H94208  -0.704   4.626   3.091 -1.3531 -0.4218  1.0762
  714MOL0     H94209  -0.716   4.766   3.184  2.6657  1.1612  0.0238
  714MOL0     H94210  -0.836   4.427   3.493  0.7872 -0.7377  2.2276
  714MOL0     H94211  -0.853   4.506   3.735 -1.6832  3.9147  1.3513
  714MOL0     H94212  -1.032   4.967   3.984 -2.3209 -1.9070  2.4812
  714MOL0     H94213  -1.038   5.018   4.219  0.2623 -1.6060  1.7403
  714MOL0     H94214  -1.005   5.141   4.387  0.5753 -0.5940  0.1459
  714MOL0     H94215  -0.853   5.235   4.405 -0.8136  0.4433 -1.8625
  714MOL0     H94216  -0.835   5.153   4.640 -0.8990  1.3763 -0.5832
  714MOL0     H94217  -0.987   5.057   4.608 -1.1334 -0.4657 -3.0256
  714MOL0     H94218  -1.106   5.273   4.555  0.2403 -0.8214  0.2165
  714MOL0     H94219  -0.954   5.351   4.593  0.7947 -1.5275  1.0440
  714MOL0     H94220  -0.953   5.245   4.822  0.3606 -1.6606 -0.9157
  714MOL0     H94221  -1.094   5.349   4.794 -0.7790 -0.6777 -0.2043
  714MOL0     H94222  -1.096   5.042   4.780 -0.5900 -0.9232  2.4373
  714MOL0     H94223  -1.235   5.151   4.737  0.1556  0.0317 -0.4850
  714MOL0     H94224  -1.205   5.248   4.966  4.0851  0.2670  4.0884
  714MOL0     H94225  -1.100   5.114   5.002 -2.3720  2.3355  3.9407
  714MOL0     H94226  -1.372   5.101   5.042 -0.4053  2.2950 -1.5102
  714MOL0     H94227  -1.364   5.045   4.878 -3.6675  0.7070  2.5850
  714MOL0     H94228  -1.183   4.925   5.105  0.4737 -1.9907 -0.0539
  714MOL0     H94229  -1.215   4.860   4.936  1.8646  0.1801 -0.3997
  714MOL0     H94230  -0.626   4.937   4.266  0.8562  2.4776  0.6974
  714MOL0     H94231  -0.620   4.884   4.009 -1.4416 -3.2634 -1.3360
  714MOL0     H94232  -0.765   4.911   3.620  0.7379  0.2806  1.5402
  714MOL0     H94233  -0.720   4.825   3.380  0.4027  1.1431 -0.2256
  714MOL0     H94234   0.714   4.627   2.288 -3.1080  1.6838 -0.2360
  714MOL0     H94235   0.944   4.621   2.168 -0.1713  0.6045 -0.9481
  714MOL0     H94236   1.368   4.686   2.152  4.3970  0.4736  1.3983
  714MOL0     H94237   1.570   4.642   2.030  0.7781  0.7151 -0.2874
  714MOL0     H94238   1.700   4.593   1.822  0.9853 -1.1108  1.3458
  714MOL0     H94239   1.782   4.687   1.955  0.4475 -0.5276 -0.8262
  714MOL0     H94240   1.866   4.741   1.682 -0.3619  1.5953 -0.1719
  714MOL0     H94241   1.946   4.772   1.830 -3.2545  0.0198  1.7364
  714MOL0     H94242   1.905   4.503   1.696 -1.1164  1.2709  0.6125
  714MOL0     H94243   2.005   4.524   1.847 -0.7939 -1.3554 -0.2049
  714MOL0     H94244   2.049   4.587   1.553  1.2462  0.4776 -0.7045
  714MOL0     H94245   2.145   4.678   1.669  1.1332 -0.7398 -1.4175
  714MOL0     H94246   2.341   4.322   1.752  0.6766 -0.3714 -0.0834
  714MOL0     H94247   1.520   5.000   1.801  1.1726 -1.2075 -0.1019
  714MOL0     H94248   1.299   5.024   1.898  1.1084  0.9578  0.2791
  715MOL0     O94249  10.729   5.741   3.747 -0.4967 -0.1306 -0.0688
  715MOL0     C94250  10.792   5.774   3.648 -0.3304  0.1780  0.2717
  715MOL0     O94251  10.734   5.832   3.539 -0.6432  0.2412 -0.2138
  715MOL0     C94252  10.598   5.836   3.518 -0.1559 -0.3464  0.0754
  715MOL0     C94253  10.551   5.941   3.432  0.3464  0.8251  0.6423
  715MOL0     C94254  10.411   5.959   3.403  0.3656  0.2200  0.5256
  715MOL0     C94255  10.319   5.870   3.445 -0.1735 -0.2404  0.0576
  715MOL0     O94256  10.182   5.882   3.416 -0.2894  0.3832 -0.4862
  715MOL0     C94257  10.136   5.874   3.280 -0.5928 -0.7118 -0.2479
  715MOL0     C94258   9.990   5.916   3.295 -0.2332 -0.1507  0.0478
  715MOL0     C94259   9.919   5.908   3.158 -0.2517  0.0400  0.2557
  715MOL0     C94260   9.956   6.041   3.073 -0.8090 -0.8284  0.3587
  715MOL0     C94261   9.864   6.069   2.945 -0.5224  0.0753  1.0184
  715MOL0     C94262   9.729   6.141   2.977  0.3411 -0.4018  0.8213
  715MOL0     C94263   9.639   6.146   2.846  0.0467 -0.0785  0.2771
  715MOL0     C94264   9.535   6.033   2.854  0.4277  0.1978 -0.3106
  715MOL0     N94265   9.437   6.032   2.743 -0.6918  0.2686  0.1590
  715MOL0     C94266   9.386   6.154   2.710 -0.8206 -0.3025  0.0570
  715MOL0     C94267   9.321   6.126   2.594 -0.5217  0.3367 -1.1423
  715MOL0     C94268   9.228   6.216   2.521  0.1079 -0.2117 -0.3076
  715MOL0     C94269   9.093   6.172   2.489  0.1061  0.4331  0.0818
  715MOL0     C94270   9.050   6.248   2.361  0.5163 -0.3458 -0.4739
  715MOL0     C94271   8.905   6.231   2.324 -0.5131 -0.7966  0.0782
  715MOL0     O94272   8.895   6.098   2.263 -0.1140 -0.3636 -0.1313
  715MOL0     C94273   8.788   6.088   2.177  0.0255 -0.1671  0.6798
  715MOL0     C94274   8.677   6.172   2.149 -0.2917  0.3413 -0.0032
  715MOL0     C94275   8.580   6.128   2.055 -0.0595 -0.4755  0.7978
  715MOL0     C94276   8.580   6.001   1.989  0.5196 -0.1677 -0.5295
  715MOL0     C94277   8.490   5.959   1.881 -0.3013 -0.2795 -0.1243
  715MOL0     O94278   8.378   6.034   1.858  0.4514  0.3182 -0.0596
  715MOL0     C94279   8.303   6.020   1.751  0.3312  0.0540  0.3597
  715MOL0     C94280   8.171   6.038   1.782 -0.7230  0.0523  0.3157
  715MOL0     C94281   8.081   6.047   1.681 -0.4640  0.4170 -0.3286
  715MOL0     C94282   8.115   6.018   1.551 -0.0389  0.7017 -0.4695
  715MOL0     O94283   7.999   5.985   1.473 -0.0990 -0.7045 -0.0696
  715MOL0     C94284   8.011   5.982   1.329  0.0340 -0.0155  0.8263
  715MOL0     C94285   7.881   5.960   1.257 -0.1318  0.1457 -0.2869
  715MOL0     C94286   7.863   5.816   1.222 -0.1407  0.2796 -0.3403
  715MOL0     C94287   7.732   5.789   1.141  0.2242 -0.4855  0.4499
  715MOL0     C94288   7.598   5.778   1.213  0.0454  0.0424  0.1012
  715MOL0     C94289   7.488   5.713   1.111  0.3696 -0.0766  0.1240
  715MOL0     C94290   7.468   5.801   0.984 -0.3113 -0.3176  1.0806
  715MOL0     C94291   7.335   5.768   0.913 -0.3238  0.4607  0.3179
  715MOL0    Cl94292   7.180   5.787   1.030  0.0885  0.2710 -0.2658
  715MOL0     C94293   8.245   5.990   1.524 -0.0270  0.1262  0.1050
  715MOL0     C94294   8.344   5.999   1.621 -0.8587  0.2350 -0.0968
  715MOL0     O94295   8.521   5.855   1.821  0.6829 -0.4091  0.0253
  715MOL0     C94296   8.694   5.924   2.013 -0.9792  0.0385  0.1028
  715MOL0     C94297   8.796   5.972   2.095  1.2646 -0.7761 -0.5435
  715MOL0     N94298   9.353   5.992   2.558 -0.8887 -0.7669  0.0890
  715MOL0     N94299   9.416   5.931   2.659  0.8296 -0.0329  0.2788
  715MOL0     C94300  10.366   5.758   3.518 -0.2781  0.5572  0.0818
  715MOL0     C94301  10.499   5.738   3.556  0.2984 -0.8372  0.0263
  715MOL0     C94302  10.932   5.790   3.646 -1.1993 -0.2243 -0.3674
  715MOL0     C94303  10.997   5.847   3.537 -0.0014  0.4453 -0.0337
  715MOL0     C94304  11.132   5.873   3.533  0.6306  1.1139 -0.5447
  715MOL0     C94305  11.218   5.839   3.636  0.7562  0.4292  0.9757
  715MOL0     O94306  11.355   5.851   3.634 -0.5053  0.1916  0.3847
  715MOL0     C94307  11.427   5.853   3.510  0.1736  0.5551 -0.0525
  715MOL0     C94308  11.418   5.724   3.434  0.5869  0.0385  0.3623
  715MOL0     C94309  11.512   5.717   3.319  0.0537  0.4573 -0.1105
  715MOL0     C94310  11.482   5.588   3.247 -0.2660  0.0399 -0.3827
  715MOL0     C94311  11.360   5.592   3.166  0.0518  0.4706  0.0219
  715MOL0     C94312  11.272   5.624   3.105  0.9821  0.5734  0.1327
  715MOL0     C94313  11.157   5.788   3.749  0.3653 -0.3670 -0.8405
  715MOL0     C94314  11.013   5.763   3.757  1.0874 -0.2495  0.1278
  715MOL0     H94315  10.617   6.015   3.388 -0.3283 -0.3107 -2.5432
  715MOL0     H94316  10.378   6.028   3.326 -1.4584 -2.6158 -1.4352
  715MOL0     H94317  10.135   5.770   3.248  0.1168 -0.5379 -0.8762
  715MOL0     H94318  10.188   5.932   3.202 -0.0980  0.7039  1.0795
  715MOL0     H94319   9.989   6.016   3.340  2.4227  0.2524 -0.6130
  715MOL0     H94320   9.943   5.844   3.364 -1.9667 -1.0826 -2.0064
  715MOL0     H94321   9.810   5.906   3.166 -0.2103  1.2011  1.5350
  715MOL0     H94322   9.947   5.819   3.101  1.3189  1.9481 -2.1739
  715MOL0     H94323   9.944   6.129   3.136 -0.6751 -0.5862  0.0512
  715MOL0     H94324  10.060   6.038   3.040 -0.4913  1.6850  0.9214
  715MOL0     H94325   9.835   5.983   2.884 -0.5504  1.4552 -1.0145
  715MOL0     H94326   9.918   6.131   2.873  0.8736 -1.5320  0.6138
  715MOL0     H94327   9.743   6.249   2.985 -0.9046 -0.2501  1.2618
  715MOL0     H94328   9.688   6.094   3.067  1.0740 -0.1741  1.2807
  715MOL0     H94329   9.590   6.243   2.837  0.6045  0.0970 -1.1839
  715MOL0     H94330   9.707   6.126   2.763 -1.3606  3.2588 -1.8877
  715MOL0     H94331   9.480   6.033   2.949  0.3009 -0.1744 -0.3819
  715MOL0     H94332   9.592   5.940   2.862  1.0991  0.7345  2.1922
  715MOL0     H94333   9.390   6.242   2.774  1.6789  0.3673 -0.9067
  715MOL0     H94334   9.276   6.242   2.426  1.7493 -2.9572 -0.3278
  715MOL0     H94335   9.221   6.306   2.583 -1.7140 -0.7718  0.3559
  715MOL0     H94336   9.038   6.183   2.584  1.1387  1.3345  0.5853
  715MOL0     H94337   9.087   6.066   2.461 -0.0948  1.0474 -2.3944
  715MOL0     H94338   9.063   6.357   2.369 -2.1855 -0.0348  0.5057
  715MOL0     H94339   9.096   6.203   2.273  2.3812 -2.1939  1.3480
  715MOL0     H94340   8.886   6.320   2.263 -0.2672 -1.2121 -0.6109
  715MOL0     H94341   8.844   6.228   2.415 -1.1740 -4.8445 -0.2998
  715MOL0     H94342   8.654   6.266   2.198 -0.3539  0.6687 -0.6485
  715MOL0     H94343   8.509   6.203   2.023  1.4269  0.6141 -0.0334
  715MOL0     H94344   8.152   6.061   1.887  2.0262  0.3379  0.8209
  715MOL0     H94345   7.976   6.055   1.706 -1.1704  0.2056 -2.9410
  715MOL0     H94346   8.082   5.901   1.310 -0.0498 -0.0658  0.7333
  715MOL0     H94347   8.062   6.072   1.292 -1.1815  0.3104 -0.1347
  715MOL0     H94348   7.873   6.017   1.164 -0.9113  1.0766  0.3310
  715MOL0     H94349   7.791   5.980   1.316 -0.2626 -2.4416  0.5091
  715MOL0     H94350   7.858   5.758   1.315 -0.6791  2.3279  1.0032
  715MOL0     H94351   7.947   5.780   1.162  0.0694  0.1839  0.0095
  715MOL0     H94352   7.717   5.867   1.066  0.3701  0.7101  1.6426
  715MOL0     H94353   7.742   5.693   1.089  1.2899 -1.5573  2.4939
  715MOL0     H94354   7.574   5.882   1.239 -1.5859 -0.5242  0.9795
  715MOL0     H94355   7.608   5.722   1.306 -2.4747  2.0701  1.7661
  715MOL0     H94356   7.396   5.694   1.167 -0.1687 -1.7491 -1.2396
  715MOL0     H94357   7.533   5.619   1.078  1.4513  0.3022  0.4521
  715MOL0     H94358   7.449   5.898   1.031 -0.5218 -0.7670  1.9451
  715MOL0     H94359   7.551   5.787   0.914 -0.8606 -3.0942  0.8871
  715MOL0     H94360   7.339   5.669   0.868  1.5748  0.4756  0.4074
  715MOL0     H94361   7.317   5.835   0.828 -3.7673 -0.9800 -0.2809
  715MOL0     H94362   8.274   5.960   1.424  4.0134 -1.1365  1.4410
  715MOL0     H94363   8.448   5.986   1.593 -0.9965  2.0171 -1.5991
  715MOL0     H94364   8.704   5.823   1.973 -0.6472  0.2148 -0.2541
  715MOL0     H94365   8.876   5.901   2.112  0.3272 -1.7754 -0.1961
  715MOL0     H94366  10.292   5.685   3.550 -3.0057  2.7527 -0.7752
  715MOL0     H94367  10.522   5.655   3.622 -3.0937 -0.4395  1.9410
  715MOL0     H94368  10.947   5.880   3.446 -0.2875  0.3123  0.0717
  715MOL0     H94369  11.172   5.915   3.441  1.0969 -1.6365 -1.7109
  715MOL0     H94370  11.533   5.869   3.530 -0.1077  3.3687 -0.4822
  715MOL0     H94371  11.397   5.943   3.455 -1.4702  0.4958  0.6951
  715MOL0     H94372  11.448   5.648   3.507 -2.1006 -0.5817  0.9162
  715MOL0     H94373  11.317   5.699   3.402  2.6991 -3.1067 -5.2147
  715MOL0     H94374  11.612   5.719   3.364 -0.3464  0.4669  0.8078
  715MOL0     H94375  11.504   5.799   3.248 -0.5836  0.5875  0.1024
  715MOL0     H94376  11.567   5.574   3.180 -1.5477 -3.9310 -1.4844
  715MOL0     H94377  11.475   5.499   3.311  1.7682  1.9096  2.6519
  715MOL0     H94378  11.177   5.654   3.065 -0.8074 -1.0490  2.8434
  715MOL0     H94379  11.216   5.755   3.834 -1.4944  0.5935  0.9223
  715MOL0     H94380  10.974   5.722   3.850  2.3467 -1.4814  0.1561
  716MOL0     O94381   7.411   8.310   7.665  0.5369  0.0072 -0.3362
  716MOL0     C94382   7.442   8.331   7.778 -0.4948  0.1814  0.7365
  716MOL0     O94383   7.358   8.373   7.886 -0.4556  0.4456  0.7813
  716MOL0     C94384   7.258   8.456   7.842  0.4463 -0.0800 -0.0158
  716MOL0     C94385   7.253   8.550   7.734  0.5742 -0.7145  0.3237
  716MOL0     C94386   7.134   8.619   7.697  0.2686 -0.0774  0.4851
  716MOL0     C94387   7.020   8.597   7.770 -0.1806 -0.6308 -0.0091
  716MOL0     O94388   6.900   8.651   7.725  0.2337 -0.4438  0.7065
  716MOL0     C94389   6.785   8.643   7.812 -0.2085 -0.5418  0.1924
  716MOL0     C94390   6.669   8.714   7.738 -0.7633  0.1489 -0.1142
  716MOL0     C94391   6.553   8.765   7.825 -0.2793  0.0644 -0.6892
  716MOL0     C94392   6.474   8.881   7.761  0.3323 -0.6620 -0.2032
  716MOL0     C94393   6.338   8.899   7.822 -0.1102 -0.1618  0.3659
  716MOL0     C94394   6.262   9.030   7.787  0.2017 -0.2351 -0.4100
  716MOL0     C94395   6.120   9.025   7.861 -0.2856  0.5452  0.1512
  716MOL0     C94396   6.035   9.156   7.852 -0.4516  0.0489  0.6376
  716MOL0     N94397   5.965   9.172   7.721  0.1190  0.3061 -0.5146
  716MOL0     C94398   5.992   9.250   7.612  0.6955 -0.0953  0.0007
  716MOL0     C94399   5.886   9.233   7.524 -0.1406  0.1298 -1.0464
  716MOL0     C94400   5.871   9.322   7.404 -0.4776 -0.8487 -0.7846
  716MOL0     C94401   5.728   9.324   7.355 -0.3305 -0.5144 -1.0248
  716MOL0     C94402   5.687   9.193   7.284 -0.6201 -0.3645 -0.3851
  716MOL0     C94403   5.541   9.169   7.305 -0.2511 -0.1017 -0.6214
  716MOL0     O94404   5.498   9.082   7.205  0.5176 -0.5271  0.6145
  716MOL0     C94405   5.362   9.056   7.208 -0.7295 -0.6391 -0.2288
  716MOL0     C94406   5.317   8.977   7.105 -0.1037  0.1513 -0.2365
  716MOL0     C94407   5.180   8.944   7.093 -0.2895  0.0500  0.0524
  716MOL0     C94408   5.091   8.978   7.194  0.2428  0.4991  0.2441
  716MOL0     C94409   4.953   8.933   7.193  0.1923 -0.9842  0.8166
  716MOL0     O94410   4.916   8.813   7.156 -0.1950  0.2848  0.2648
  716MOL0     C94411   4.787   8.754   7.167  0.0386  0.3705  0.1226
  716MOL0     C94412   4.666   8.818   7.125 -0.2184 -0.3058  0.4689
  716MOL0     C94413   4.545   8.765   7.131  0.3471 -0.5228 -0.1741
  716MOL0     C94414   4.536   8.636   7.185  0.1947 -0.3938 -0.3693
  716MOL0     O94415   4.422   8.560   7.205 -0.0208 -0.2701 -0.1165
  716MOL0     C94416   4.292   8.632   7.195 -0.4165  0.7778  0.5302
  716MOL0     C94417   4.175   8.539   7.218  0.9573  0.2734 -0.2913
  716MOL0     C94418   4.054   8.614   7.271  0.3158 -0.7184 -0.1584
  716MOL0     C94419   3.935   8.522   7.290 -0.1156 -0.0386  0.4472
  716MOL0     C94420   3.811   8.603   7.326  0.6042  0.8063  0.5076
  716MOL0     C94421   3.685   8.517   7.322 -0.0906 -0.5461  0.3120
  716MOL0     C94422   3.562   8.599   7.360 -1.1330  0.3648  0.7001
  716MOL0     C94423   3.562   8.673   7.495  0.1355  0.2742 -0.0500
  716MOL0    Cl94424   3.379   8.720   7.511  0.1276 -0.4251 -0.1430
  716MOL0     C94425   4.654   8.573   7.233 -0.2065 -0.7032  0.0368
  716MOL0     C94426   4.780   8.628   7.217 -0.4708  0.2518  0.4704
  716MOL0     O94427   4.870   9.023   7.222  0.4163 -0.3493  0.7019
  716MOL0     C94428   5.140   9.051   7.306 -0.5507 -0.0742  0.0793
  716MOL0     C94429   5.276   9.082   7.315  0.7966  0.6682 -0.0544
  716MOL0     N94430   5.809   9.140   7.578  0.5441  0.7233 -0.3372
  716MOL0     N94431   5.851   9.107   7.697  0.4633 -0.0947 -0.2964
  716MOL0     C94432   7.025   8.503   7.871 -0.7090  0.4138 -0.9304
  716MOL0     C94433   7.146   8.431   7.914  0.3398 -0.5087  1.4840
  716MOL0     C94434   7.577   8.296   7.806 -0.4738 -0.1523  0.1029
  716MOL0     C94435   7.631   8.332   7.931  1.1102 -0.3420  0.0204
  716MOL0     C94436   7.761   8.311   7.959 -0.0915 -0.0739 -0.2472
  716MOL0     C94437   7.845   8.247   7.871 -1.0509 -0.0496  0.1076
  716MOL0     O94438   7.977   8.247   7.905 -0.1134  0.2765 -0.2706
  716MOL0     C94439   8.066   8.282   7.794  0.4885  1.1141 -0.1505
  716MOL0     C94440   8.191   8.346   7.846  0.1811 -0.2011  0.3141
  716MOL0     C94441   8.178   8.476   7.929  0.1298 -0.6149  0.9279
  716MOL0     C94442   8.170   8.607   7.841  0.3634 -0.1386 -0.4130
  716MOL0     C94443   8.039   8.596   7.769 -0.2961 -0.4041  1.1052
  716MOL0     C94444   7.931   8.609   7.711  0.3340  0.4625  0.1053
  716MOL0     C94445   7.800   8.206   7.746 -0.4818 -1.0944 -0.0628
  716MOL0     C94446   7.664   8.232   7.713  1.5244  0.3561 -0.3806
  716MOL0     H94447   7.334   8.563   7.662 -1.4409 -2.3215 -2.4274
  716MOL0     H94448   7.130   8.694   7.619 -0.6121 -0.6494 -0.0342
  716MOL0     H94449   6.819   8.689   7.905  0.7301 -1.9126  0.5469
  716MOL0     H94450   6.763   8.537   7.826 -1.6385 -0.1782  0.8978
  716MOL0     H94451   6.647   8.649   7.653  1.9629  0.8014 -1.4478
  716MOL0     H94452   6.714   8.806   7.699  3.3886 -1.2343  0.9061
  716MOL0     H94453   6.593   8.804   7.919 -1.3480 -0.8329  0.1635
  716MOL0     H94454   6.483   8.685   7.852 -0.9981  1.0987  0.6201
  716MOL0     H94455   6.546   8.964   7.767  1.6951 -1.7338 -1.0752
  716MOL0     H94456   6.459   8.863   7.654 -0.0453 -1.7882  0.0255
  716MOL0     H94457   6.356   8.897   7.930  2.9351 -0.9001 -0.0589
  716MOL0     H94458   6.275   8.827   7.770  1.2769  1.8956 -4.8845
  716MOL0     H94459   6.245   9.045   7.680 -2.0107 -1.6347 -0.3246
  716MOL0     H94460   6.326   9.109   7.829 -0.8354  0.1475  0.4827
  716MOL0     H94461   6.060   8.938   7.834 -2.8227  2.1035  0.4601
  716MOL0     H94462   6.145   9.010   7.967 -0.0757  0.7321  0.1312
  716MOL0     H94463   6.100   9.242   7.872 -1.5324  0.8050  0.9594
  716MOL0     H94464   5.963   9.160   7.934 -1.4183 -0.5390 -0.1676
  716MOL0     H94465   6.076   9.318   7.602  1.3460 -1.2499 -4.1880
  716MOL0     H94466   5.943   9.293   7.326  0.4408  1.0785 -0.7111
  716MOL0     H94467   5.898   9.422   7.437  0.8406 -2.3321  3.2181
  716MOL0     H94468   5.709   9.411   7.291 -0.0366  1.0019  0.8686
  716MOL0     H94469   5.672   9.345   7.446  1.5227  2.6197 -0.4532
  716MOL0     H94470   5.709   9.218   7.180 -0.6899 -0.6274 -0.4625
  716MOL0     H94471   5.738   9.102   7.315  0.3130 -0.3883 -1.8807
  716MOL0     H94472   5.484   9.262   7.312 -1.2951 -0.8332  1.3260
  716MOL0     H94473   5.533   9.109   7.396 -0.8239 -1.5633 -1.6069
  716MOL0     H94474   5.392   8.964   7.028  2.3786 -0.0005  2.0583
  716MOL0     H94475   5.151   8.886   7.006  0.5913 -1.1106  0.5092
  716MOL0     H94476   4.667   8.918   7.083  1.9458 -0.0239  1.0785
  716MOL0     H94477   4.454   8.822   7.111 -0.5120 -1.1710  1.6337
  716MOL0     H94478   4.276   8.665   7.092  2.2923  1.8023  0.3715
  716MOL0     H94479   4.286   8.718   7.263 -2.1099  0.9258  0.2369
  716MOL0     H94480   4.205   8.452   7.277  1.2983  0.7076  0.1859
  716MOL0     H94481   4.145   8.506   7.118  1.5888  2.7830 -1.3974
  716MOL0     H94482   4.041   8.686   7.189 -1.7244 -0.0228  0.6953
  716MOL0     H94483   4.075   8.673   7.361 -0.9406 -1.5038  0.6724
  716MOL0     H94484   3.907   8.463   7.202 -1.5731 -2.5790  2.5061
  716MOL0     H94485   3.967   8.448   7.363 -0.0823 -1.0519 -0.5763
  716MOL0     H94486   3.788   8.688   7.262 -1.8651 -0.1668 -0.0216
  716MOL0     H94487   3.822   8.646   7.426  2.4139 -0.6432  1.0032
  716MOL0     H94488   3.689   8.437   7.397 -2.2340 -1.1830 -0.1730
  716MOL0     H94489   3.676   8.475   7.221  0.7783 -2.1306  0.8596
  716MOL0     H94490   3.552   8.674   7.281  2.5802 -1.2452 -1.5534
  716MOL0     H94491   3.471   8.540   7.349 -1.4830  1.1248 -0.6844
  716MOL0     H94492   3.628   8.760   7.500  2.0980 -1.1577  0.1455
  716MOL0     H94493   3.585   8.613   7.583  1.2736 -0.4514 -0.8276
  716MOL0     H94494   4.647   8.484   7.295 -1.4195  0.7313  2.0560
  716MOL0     H94495   4.870   8.576   7.250 -0.3160 -1.2244 -2.0057
  716MOL0     H94496   5.073   9.082   7.385 -2.5329 -0.9663 -1.1596
  716MOL0     H94497   5.298   9.139   7.405 -1.7448  3.3048 -0.9338
  716MOL0     H94498   6.938   8.496   7.935 -0.2088  1.4578 -0.0965
  716MOL0     H94499   7.149   8.366   8.001  0.1644 -2.9908 -0.2391
  716MOL0     H94500   7.585   8.370   8.021 -0.1460 -3.7755  0.9907
  716MOL0     H94501   7.795   8.334   8.060  1.0793 -0.5480 -0.5165
  716MOL0     H94502   8.018   8.344   7.718 -2.0607 -1.7003 -1.0049
  716MOL0     H94503   8.094   8.197   7.731 -1.4456  1.1933 -1.1880
  716MOL0     H94504   8.250   8.275   7.904  1.6205  1.3054  0.7593
  716MOL0     H94505   8.258   8.356   7.760 -1.9863 -0.1605 -1.4518
  716MOL0     H94506   8.268   8.476   7.992  0.7782 -0.4036  0.0202
  716MOL0     H94507   8.092   8.475   7.996 -1.9597  0.8365 -1.5709
  716MOL0     H94508   8.183   8.696   7.903  1.2327  0.3179 -1.2415
  716MOL0     H94509   8.257   8.606   7.775  1.4620  0.1434  0.9891
  716MOL0     H94510   7.841   8.621   7.654 -0.3298 -3.3696  0.0821
  716MOL0     H94511   7.872   8.153   7.683  2.7714  2.0463  0.6822
  716MOL0     H94512   7.629   8.197   7.617  0.0555 -2.7899  1.1652
  717MOL0     O94513   1.042   6.749   5.604  0.3617 -0.5352  1.0338
  717MOL0     C94514   1.137   6.734   5.680 -0.2198 -0.5529  0.1332
  717MOL0     O94515   1.127   6.703   5.812 -0.2214 -0.5984 -0.9005
  717MOL0     C94516   1.010   6.720   5.875  0.9063  0.0217 -0.3434
  717MOL0     C94517   1.016   6.740   6.013 -0.1148 -0.1823 -0.7027
  717MOL0     C94518   0.906   6.768   6.090  0.4451  0.4790 -0.5220
  717MOL0     C94519   0.777   6.758   6.045  0.1840 -0.3494  1.0416
  717MOL0     O94520   0.664   6.769   6.136  0.0146  0.3035  0.1226
  717MOL0     C94521   0.565   6.669   6.117 -0.5706 -0.0028 -0.0704
  717MOL0     C94522   0.485   6.654   6.252 -0.9375 -0.2415 -0.7665
  717MOL0     C94523   0.356   6.577   6.230 -0.0983 -0.7626 -0.1355
  717MOL0     C94524   0.264   6.593   6.359 -0.0686  0.3408  0.3937
  717MOL0     C94525   0.143   6.507   6.378  0.4225  0.1377  0.2014
  717MOL0     C94526   0.053   6.499   6.248  0.5909  0.4132  0.6917
  717MOL0     C94527  -0.085   6.442   6.273 -0.7676  0.0756 -0.5939
  717MOL0     C94528  -0.173   6.450   6.151 -0.4835 -0.7556  0.3038
  717MOL0     N94529  -0.299   6.390   6.173  0.4896 -0.0399 -0.1036
  717MOL0     C94530  -0.372   6.317   6.085 -0.2465 -0.0461  0.4463
  717MOL0     C94531  -0.468   6.260   6.152 -0.2813 -0.4807  0.0702
  717MOL0     C94532  -0.554   6.157   6.083  0.4271 -0.4481 -0.3058
  717MOL0     C94533  -0.652   6.241   5.997  0.3200  0.0376  0.3930
  717MOL0     C94534  -0.741   6.138   5.929 -0.4172  0.8579 -0.1212
  717MOL0     C94535  -0.865   6.198   5.873  0.1376  0.1767  0.1132
  717MOL0     O94536  -0.950   6.101   5.809 -0.2026 -0.1531 -0.4435
  717MOL0     C94537  -1.084   6.103   5.832 -0.5414 -0.5909  0.8137
  717MOL0     C94538  -1.157   5.984   5.847 -0.5146  0.6086 -0.0330
  717MOL0     C94539  -1.296   5.986   5.882  0.3123  0.6125 -0.9052
  717MOL0     C94540  -1.360   6.105   5.901  0.2531 -0.3803 -0.5440
  717MOL0     C94541  -1.507   6.103   5.938  0.7494  0.5749 -0.2429
  717MOL0     O94542  -1.584   5.992   5.894  0.5382 -0.5081 -0.3184
  717MOL0     C94543  -1.719   5.973   5.925 -0.4151 -0.7741 -0.1104
  717MOL0     C94544  -1.767   5.839   5.906  0.3619 -0.4439 -0.4584
  717MOL0     C94545  -1.895   5.800   5.941 -0.5872  0.0314  0.4458
  717MOL0     C94546  -1.984   5.889   6.000  0.0502 -0.3098 -0.0419
  717MOL0     O94547  -2.109   5.845   6.040  0.4692 -0.3062 -0.0768
  717MOL0     C94548  -2.154   5.857   6.184  0.0497  0.4823  0.4349
  717MOL0     C94549  -2.288   5.927   6.179  0.5394  0.1905  0.5435
  717MOL0     C94550  -2.408   5.842   6.138 -0.1141  0.2263  0.5031
  717MOL0     C94551  -2.543   5.907   6.188 -0.2530  0.3098  0.9260
  717MOL0     C94552  -2.658   5.879   6.088  0.5434 -0.2733 -0.3762
  717MOL0     C94553  -2.688   5.729   6.050 -0.4631 -0.1537 -0.0028
  717MOL0     C94554  -2.819   5.713   5.979 -0.5608 -0.6048  0.1879
  717MOL0     C94555  -2.936   5.679   6.072  0.3528  0.4498  0.3278
  717MOL0    Cl94556  -3.034   5.551   5.999  0.2413 -0.3014  0.0805
  717MOL0     C94557  -1.940   6.021   6.010  0.1283 -0.3515  0.5078
  717MOL0     C94558  -1.809   6.067   5.974 -0.4293  0.0338  0.0056
  717MOL0     O94559  -1.551   6.199   6.005 -0.2430  0.2453 -0.0279
  717MOL0     C94560  -1.293   6.228   5.875  0.5365 -0.6560 -0.2209
  717MOL0     C94561  -1.161   6.221   5.833 -0.4818  0.0456  0.0670
  717MOL0     N94562  -0.455   6.295   6.287 -0.3581 -0.7938  0.5808
  717MOL0     N94563  -0.348   6.369   6.299  0.5388  0.0923 -0.0417
  717MOL0     C94564   0.763   6.720   5.906  0.2825  0.0636 -1.0129
  717MOL0     C94565   0.878   6.699   5.828  1.0343 -0.7122  0.4086
  717MOL0     C94566   1.270   6.733   5.618 -0.5147  0.2703 -0.4767
  717MOL0     C94567   1.389   6.708   5.696 -0.3519 -0.2865  0.3208
  717MOL0     C94568   1.520   6.705   5.649  0.1729  0.3674  0.4104
  717MOL0     C94569   1.540   6.712   5.507  0.1677 -0.2502 -0.3254
  717MOL0     O94570   1.664   6.713   5.450 -0.0791  0.1481  1.0375
  717MOL0     C94571   1.764   6.770   5.525 -0.3694 -0.5980  0.0716
  717MOL0     C94572   1.903   6.798   5.454  0.6039  0.3786  0.4762
  717MOL0     C94573   1.898   6.863   5.319 -0.1430 -0.0416  0.2160
  717MOL0     C94574   2.017   6.959   5.308 -0.4547 -0.7166  0.8283
  717MOL0     C94575   2.149   6.894   5.298 -0.1844 -0.5087  0.1749
  717MOL0     C94576   2.256   6.844   5.285 -0.8731 -0.7080  0.6311
  717MOL0     C94577   1.424   6.726   5.425 -0.3899 -0.4491 -0.0315
  717MOL0     C94578   1.296   6.730   5.475 -0.6051  0.4256 -0.2387
  717MOL0     H94579   1.116   6.738   6.055 -0.4258 -0.4683  0.0464
  717MOL0     H94580   0.926   6.777   6.197 -1.5671  0.5999 -0.1202
  717MOL0     H94581   0.601   6.572   6.084 -3.6965 -0.5404 -2.3018
  717MOL0     H94582   0.513   6.713   6.031  4.9375 -0.1307 -3.9395
  717MOL0     H94583   0.467   6.748   6.305 -2.1127 -0.7457 -0.2480
  717MOL0     H94584   0.551   6.602   6.322 -2.0515 -0.9638 -0.2441
  717MOL0     H94585   0.370   6.471   6.208 -0.6696 -0.6074 -1.3584
  717MOL0     H94586   0.307   6.613   6.139  0.7337  0.6565 -0.0520
  717MOL0     H94587   0.333   6.585   6.443 -1.8046 -0.6070  1.7850
  717MOL0     H94588   0.228   6.696   6.352 -1.3748 -0.0023  1.6450
  717MOL0     H94589   0.087   6.553   6.459 -0.7125 -0.9035  0.0293
  717MOL0     H94590   0.178   6.408   6.408 -1.7488 -1.2888 -1.5957
  717MOL0     H94591   0.113   6.430   6.188 -1.1401 -0.7107  0.1961
  717MOL0     H94592   0.043   6.594   6.195  2.3881  1.0970  1.5001
  717MOL0     H94593  -0.070   6.340   6.310  2.8781  0.8327  0.4252
  717MOL0     H94594  -0.125   6.502   6.355 -1.2268  0.6061 -1.1900
  717MOL0     H94595  -0.121   6.415   6.062 -0.0820 -2.3987  1.1454
  717MOL0     H94596  -0.195   6.556   6.135 -0.5615 -0.8564 -0.2885
  717MOL0     H94597  -0.350   6.313   5.979 -1.8938  0.9053  0.0270
  717MOL0     H94598  -0.602   6.101   6.164  1.0863  0.6032  0.8537
  717MOL0     H94599  -0.492   6.090   6.024 -0.2013 -0.1268 -1.3632
  717MOL0     H94600  -0.596   6.302   5.925 -0.5014  0.1565 -0.1544
  717MOL0     H94601  -0.712   6.301   6.066  0.3405  0.2567  0.2200
  717MOL0     H94602  -0.690   6.081   5.851 -0.1321  2.9034 -1.4828
  717MOL0     H94603  -0.777   6.072   6.009  3.0498 -2.2083 -0.7949
  717MOL0     H94604  -0.858   6.281   5.803 -2.7119 -0.0155 -0.4861
  717MOL0     H94605  -0.919   6.239   5.959 -3.1983  0.6639 -2.0522
  717MOL0     H94606  -1.101   5.891   5.843 -1.7522 -0.7979  5.6454
  717MOL0     H94607  -1.350   5.894   5.903 -0.5037  1.5152  1.1703
  717MOL0     H94608  -1.703   5.758   5.873 -1.1441 -1.3850 -1.1547
  717MOL0     H94609  -1.937   5.703   5.916  1.6785 -0.3377 -2.5024
  717MOL0     H94610  -2.073   5.903   6.241  0.0550 -0.3678  1.1319
  717MOL0     H94611  -2.164   5.756   6.222  0.3107  0.8125  1.3928
  717MOL0     H94612  -2.280   6.020   6.122 -3.7990 -0.0541 -0.8174
  717MOL0     H94613  -2.301   5.944   6.287  1.0332 -3.9175  1.4267
  717MOL0     H94614  -2.395   5.747   6.190 -0.7775  0.8478  1.8357
  717MOL0     H94615  -2.403   5.816   6.031  1.2624 -1.4183  0.9118
  717MOL0     H94616  -2.566   5.858   6.283  2.7123  1.0575  2.1445
  717MOL0     H94617  -2.533   6.016   6.182  1.7600  0.1151 -0.4951
  717MOL0     H94618  -2.641   5.928   5.991 -0.6289 -1.6138 -1.3149
  717MOL0     H94619  -2.747   5.925   6.132  2.1885  1.2496  1.4879
  717MOL0     H94620  -2.680   5.664   6.138  0.4235 -2.3677 -1.6136
  717MOL0     H94621  -2.608   5.701   5.981 -0.5840 -0.3984 -0.0455
  717MOL0     H94622  -2.838   5.800   5.915 -0.8658 -0.5126  0.4008
  717MOL0     H94623  -2.815   5.630   5.907  1.4730  1.8398 -2.8092
  717MOL0     H94624  -2.998   5.767   6.092 -0.9678 -0.2247 -0.6852
  717MOL0     H94625  -2.904   5.643   6.171 -1.5819  1.3005  1.3186
  717MOL0     H94626  -2.009   6.094   6.050 -0.5377 -0.8523  0.2935
  717MOL0     H94627  -1.791   6.174   5.980 -0.6767  0.1801 -1.3179
  717MOL0     H94628  -1.351   6.318   5.893 -0.1566 -1.1985  0.3591
  717MOL0     H94629  -1.110   6.314   5.811  1.0891 -0.9272 -0.5775
  717MOL0     H94630   0.666   6.694   5.864  1.0409 -0.5868 -2.4301
  717MOL0     H94631   0.856   6.664   5.727 -3.6699  2.6580 -0.0429
  717MOL0     H94632   1.365   6.701   5.801 -0.2650  0.1643  0.3731
  717MOL0     H94633   1.614   6.695   5.702  2.3948  1.6988 -2.9062
  717MOL0     H94634   1.786   6.708   5.612  0.8985 -1.3284 -0.7313
  717MOL0     H94635   1.730   6.865   5.567 -2.8429 -0.7912 -1.3318
  717MOL0     H94636   1.974   6.849   5.519  0.4826  1.1601  0.0172
  717MOL0     H94637   1.945   6.700   5.429 -2.1843 -1.7007  3.0966
  717MOL0     H94638   1.807   6.923   5.305  2.0388  3.1781 -1.5060
  717MOL0     H94639   1.919   6.793   5.238  4.7529  3.2128 -1.7840
  717MOL0     H94640   2.002   7.030   5.226 -2.7459  0.6720  2.3297
  717MOL0     H94641   2.012   7.026   5.394  0.5867 -1.2770  1.3336
  717MOL0     H94642   2.351   6.795   5.297  0.7197  1.8939 -0.4904
  717MOL0     H94643   1.452   6.728   5.320  0.2053  1.4432  0.1137
  717MOL0     H94644   1.213   6.734   5.405 -1.6265  2.6088  0.9688
  718MOL0     O94645   0.544   8.404   2.219  0.3542  0.1211 -0.3205
  718MOL0     C94646   0.616   8.341   2.304  0.7438  0.3173 -0.1152
  718MOL0     O94647   0.564   8.271   2.407 -0.0506  0.0994 -0.5201
  718MOL0     C94648   0.434   8.266   2.442  0.2971  0.2018 -0.0822
  718MOL0     C94649   0.355   8.156   2.396 -0.4463 -0.5955 -0.0930
  718MOL0     C94650   0.217   8.155   2.432  0.3862  0.4983  0.1774
  718MOL0     C94651   0.173   8.267   2.510 -0.1086  0.3413 -1.0147
  718MOL0     O94652   0.050   8.244   2.560  0.4280  0.2640  0.3684
  718MOL0     C94653  -0.058   8.255   2.467 -0.3182 -0.0039  0.5317
  718MOL0     C94654  -0.182   8.249   2.564  0.1074  0.0456  1.0557
  718MOL0     C94655  -0.315   8.226   2.484 -0.8641  0.6456  0.2201
  718MOL0     C94656  -0.436   8.224   2.578  0.1871 -0.4744 -0.9261
  718MOL0     C94657  -0.567   8.213   2.502 -0.1580 -0.1523  0.0690
  718MOL0     C94658  -0.687   8.182   2.602 -1.0152  0.2189  0.4689
  718MOL0     C94659  -0.805   8.129   2.511  0.1078  0.3751  0.6442
  718MOL0     C94660  -0.927   8.102   2.608 -0.3983 -0.5004  0.1422
  718MOL0     N94661  -1.048   8.087   2.529  0.0114  1.3681  0.3644
  718MOL0     C94662  -1.134   8.180   2.466 -0.6613 -0.1875 -0.1826
  718MOL0     C94663  -1.232   8.111   2.400 -0.2803  0.6186 -0.2413
  718MOL0     C94664  -1.353   8.161   2.320 -0.4670 -0.9312  0.0490
  718MOL0     C94665  -1.356   8.321   2.321 -0.2082 -0.3806 -0.8897
  718MOL0     C94666  -1.486   8.370   2.271 -0.5519  0.4042  0.3163
  718MOL0     C94667  -1.569   8.448   2.366  0.0083 -0.0888 -0.2509
  718MOL0     O94668  -1.667   8.508   2.288  0.5291 -0.1665  0.5708
  718MOL0     C94669  -1.779   8.437   2.264  0.0105  0.3651  0.7904
  718MOL0     C94670  -1.801   8.294   2.286 -0.3115 -0.6369  0.6138
  718MOL0     C94671  -1.917   8.231   2.252  0.1337 -0.0875 -0.4536
  718MOL0     C94672  -2.029   8.302   2.198 -0.1046 -0.8999 -0.9848
  718MOL0     C94673  -2.145   8.228   2.152 -0.5075  0.5006 -0.1842
  718MOL0     O94674  -2.202   8.255   2.022  0.0834 -0.0398 -0.0416
  718MOL0     C94675  -2.318   8.191   1.982 -0.1377 -0.0866  0.8812
  718MOL0     C94676  -2.429   8.151   2.072 -0.4730  0.9302  0.2339
  718MOL0     C94677  -2.550   8.089   2.016 -0.8188 -0.1431 -0.0151
  718MOL0     C94678  -2.562   8.071   1.877  0.7775 -0.1936  0.6141
  718MOL0     O94679  -2.678   8.027   1.816  0.0887 -0.0550 -0.1255
  718MOL0     C94680  -2.750   7.938   1.899 -1.1642 -0.9494 -1.1588
  718MOL0     C94681  -2.827   7.839   1.816  0.0754  0.4314  0.0368
  718MOL0     C94682  -2.933   7.755   1.890  0.0679  0.2914  0.4917
  718MOL0     C94683  -3.043   7.845   1.941 -0.3967  0.4510 -0.2021
  718MOL0     C94684  -3.171   7.760   1.971  0.1605  0.3932 -0.0145
  718MOL0     C94685  -3.302   7.843   1.948  1.0990 -0.5104 -0.5529
  718MOL0     C94686  -3.423   7.761   1.995 -0.5669  0.4855 -0.5879
  718MOL0     C94687  -3.422   7.698   2.141 -0.7116  0.4073  0.0673
  718MOL0    Cl94688  -3.386   7.832   2.257 -0.1608  0.1803  0.0747
  718MOL0     C94689  -2.450   8.104   1.799 -0.4390  0.2728 -0.3187
  718MOL0     C94690  -2.338   8.171   1.849 -0.0894 -0.1505 -0.5672
  718MOL0     O94691  -2.167   8.129   2.227 -0.0976  0.3277 -0.0468
  718MOL0     C94692  -2.011   8.440   2.173  0.2877 -0.2127  0.5492
  718MOL0     C94693  -1.888   8.509   2.208  0.9199 -0.9188  0.1937
  718MOL0     N94694  -1.189   7.984   2.414 -0.8104 -0.0364  0.3176
  718MOL0     N94695  -1.094   7.966   2.490 -0.4817  0.3336 -0.4247
  718MOL0     C94696   0.259   8.373   2.553 -0.2669  0.5819  0.4058
  718MOL0     C94697   0.388   8.371   2.521 -0.4553  1.1045  0.0832
  718MOL0     C94698   0.756   8.331   2.273 -0.5652  0.3037  0.0571
  718MOL0     C94699   0.853   8.243   2.342 -0.2431 -0.0465 -0.1317
  718MOL0     C94700   0.986   8.249   2.310 -0.0250  1.1127  0.2056
  718MOL0     C94701   1.031   8.314   2.194  0.0497  0.3386 -0.1184
  718MOL0     O94702   1.162   8.307   2.156 -1.0170 -0.1399 -0.2391
  718MOL0     C94703   1.273   8.277   2.255  0.1293  0.0397  0.4438
  718MOL0     C94704   1.399   8.294   2.175 -0.1561  0.3032  0.0347
  718MOL0     C94705   1.529   8.234   2.246 -0.0801 -0.3655 -0.3600
  718MOL0     C94706   1.535   8.269   2.392  0.5788 -1.7300 -0.2632
  718MOL0     C94707   1.678   8.257   2.437  0.3263 -0.0857 -0.2377
  718MOL0     C94708   1.785   8.255   2.484 -0.0204 -0.1054  0.9292
  718MOL0     C94709   0.940   8.398   2.122  0.2489  0.2552 -1.0968
  718MOL0     C94710   0.811   8.405   2.173  0.2440  0.8056  0.5857
  718MOL0     H94711   0.412   8.089   2.331 -1.0541  1.1332 -2.5632
  718MOL0     H94712   0.142   8.079   2.415  1.0144 -0.5053  1.6598
  718MOL0     H94713  -0.061   8.168   2.402  2.0654  0.9085 -0.9311
  718MOL0     H94714  -0.062   8.348   2.410  0.8015  0.4086  1.0818
  718MOL0     H94715  -0.186   8.331   2.636  1.8891 -1.2863  2.8036
  718MOL0     H94716  -0.160   8.152   2.610  1.9004  0.4496  1.1004
  718MOL0     H94717  -0.314   8.128   2.435 -0.1503 -0.4849  2.3947
  718MOL0     H94718  -0.338   8.301   2.407 -3.5652 -1.1699 -0.9017
  718MOL0     H94719  -0.420   8.133   2.637 -2.4789 -0.7023 -0.4270
  718MOL0     H94720  -0.433   8.312   2.642 -1.1309  0.1120 -1.6329
  718MOL0     H94721  -0.553   8.128   2.435  0.1886 -0.0597  0.0238
  718MOL0     H94722  -0.591   8.307   2.452 -1.3838 -0.1248  0.6772
  718MOL0     H94723  -0.717   8.274   2.652  1.5139  2.1897 -1.3979
  718MOL0     H94724  -0.659   8.097   2.665  1.1938 -2.5135 -3.6943
  718MOL0     H94725  -0.832   8.203   2.435 -1.2008  1.2417  1.9052
  718MOL0     H94726  -0.781   8.037   2.457 -2.8655  0.0595 -0.2853
  718MOL0     H94727  -0.930   8.189   2.673  0.5817 -0.5014  0.2037
  718MOL0     H94728  -0.919   8.008   2.664 -3.1284 -1.1241 -0.3798
  718MOL0     H94729  -1.128   8.288   2.460  0.1448 -0.1361  1.1942
  718MOL0     H94730  -1.446   8.126   2.364 -0.1050 -1.7567  0.1730
  718MOL0     H94731  -1.358   8.121   2.218  1.1470  1.8640 -1.2580
  718MOL0     H94732  -1.273   8.365   2.265 -0.5877  0.2032 -0.9977
  718MOL0     H94733  -1.353   8.347   2.427 -2.0053  1.0084 -1.1474
  718MOL0     H94734  -1.467   8.431   2.183  1.0641 -1.8099 -0.9756
  718MOL0     H94735  -1.542   8.285   2.231 -1.0134  0.9482 -0.2067
  718MOL0     H94736  -1.511   8.531   2.408  1.0382  0.7819 -3.1377
  718MOL0     H94737  -1.607   8.390   2.451 -3.3452 -0.5443 -1.8814
  718MOL0     H94738  -1.728   8.231   2.336  1.6175  0.0521 -1.1925
  718MOL0     H94739  -1.919   8.124   2.274 -0.4390  0.1950  1.0255
  718MOL0     H94740  -2.425   8.172   2.179 -2.0352  2.2055  0.0824
  718MOL0     H94741  -2.633   8.065   2.081 -1.1919  0.3299 -0.3125
  718MOL0     H94742  -2.817   7.991   1.967  0.0242  1.8724 -2.0252
  718MOL0     H94743  -2.673   7.879   1.948  1.9748  2.7908 -1.0880
  718MOL0     H94744  -2.763   7.758   1.780  0.1528 -0.9080  2.9382
  718MOL0     H94745  -2.870   7.899   1.736 -2.3478 -3.2260 -1.6756
  718MOL0     H94746  -2.884   7.715   1.979  0.5925  0.1528  0.1455
  718MOL0     H94747  -2.971   7.684   1.817 -0.6779  1.3619 -0.1842
  718MOL0     H94748  -3.023   7.903   2.032 -1.0184 -0.3618  0.4687
  718MOL0     H94749  -3.060   7.923   1.867 -0.1998  1.4162  0.7442
  718MOL0     H94750  -3.156   7.729   2.075 -0.4327 -3.5686 -0.9268
  718MOL0     H94751  -3.165   7.673   1.904  0.9456 -0.6456  1.3433
  718MOL0     H94752  -3.314   7.877   1.845  2.3970  1.2879 -0.1426
  718MOL0     H94753  -3.297   7.936   2.005 -3.1472 -0.6753  0.4100
  718MOL0     H94754  -3.512   7.825   1.994  0.9610  2.7289 -0.3352
  718MOL0     H94755  -3.451   7.671   1.940 -0.8825  0.8045 -0.9526
  718MOL0     H94756  -3.347   7.619   2.154 -2.1942 -0.9370  0.6489
  718MOL0     H94757  -3.513   7.641   2.160  0.1726 -0.7356  0.9817
  718MOL0     H94758  -2.467   8.097   1.692  0.6342 -0.0985 -0.4758
  718MOL0     H94759  -2.257   8.192   1.779  0.8613  0.1998  0.6154
  718MOL0     H94760  -2.096   8.490   2.127  1.3708 -1.0817 -2.6939
  718MOL0     H94761  -1.878   8.613   2.177 -2.1172 -1.2114 -2.3413
  718MOL0     H94762   0.208   8.456   2.600 -2.5979  1.7830 -3.7260
  718MOL0     H94763   0.460   8.450   2.535  1.1595  0.0976 -1.9804
  718MOL0     H94764   0.822   8.168   2.415 -0.9895  1.1183  0.8013
  718MOL0     H94765   1.062   8.189   2.359 -0.4201 -1.4810 -2.1049
  718MOL0     H94766   1.260   8.173   2.285  0.6088  0.2182  1.3253
  718MOL0     H94767   1.266   8.340   2.344  1.1888 -0.6048  1.0109
  718MOL0     H94768   1.378   8.239   2.083 -0.3067 -2.2384  1.5003
  718MOL0     H94769   1.414   8.401   2.159 -1.1687  0.4909  0.2280
  718MOL0     H94770   1.627   8.261   2.205  0.7225 -1.0409  1.0205
  718MOL0     H94771   1.522   8.125   2.239 -0.9671 -0.5493  2.2982
  718MOL0     H94772   1.509   8.376   2.390  1.9365 -1.3749 -0.8852
  718MOL0     H94773   1.468   8.204   2.448  1.0409 -0.8979  1.3221
  718MOL0     H94774   1.878   8.254   2.536 -0.1261  0.0483  1.1238
  718MOL0     H94775   0.971   8.458   2.036 -0.8663 -0.0709 -1.7427
  718MOL0     H94776   0.748   8.474   2.118 -2.5045 -1.5498  0.5825
  719MOL0     O94777   5.735   5.490   9.075  0.6569  0.1668  0.1686
  719MOL0     C94778   5.722   5.372   9.108 -0.1345 -1.0304 -0.3133
  719MOL0     O94779   5.628   5.284   9.057 -0.5988 -0.4536  0.0091
  719MOL0     C94780   5.553   5.325   8.948  0.0564  0.1920  0.4217
  719MOL0     C94781   5.589   5.277   8.819 -0.5000 -0.0919 -0.4937
  719MOL0     C94782   5.512   5.287   8.712  0.3373  0.6901  1.3210
  719MOL0     C94783   5.378   5.318   8.734 -0.0403 -0.0007 -0.5379
  719MOL0     O94784   5.281   5.310   8.642 -0.2922 -0.1845  0.8528
  719MOL0     C94785   5.306   5.240   8.518  0.1008  0.1561  0.7923
  719MOL0     C94786   5.375   5.327   8.414  0.9479 -0.3652 -0.1478
  719MOL0     C94787   5.476   5.246   8.350  0.0153  0.6135  0.3330
  719MOL0     C94788   5.511   5.310   8.214 -0.3992 -0.1279 -0.6637
  719MOL0     C94789   5.633   5.240   8.148 -0.0902 -0.0788 -0.8899
  719MOL0     C94790   5.779   5.290   8.184  0.4461  0.3869  0.5793
  719MOL0     C94791   5.880   5.208   8.101  0.1610 -0.5813  0.0695
  719MOL0     C94792   6.030   5.249   8.137 -0.9349  0.0287  0.2585
  719MOL0     N94793   6.069   5.395   8.126  0.6926 -0.7341 -0.1415
  719MOL0     C94794   6.042   5.486   8.029 -0.0059 -0.4660  0.8208
  719MOL0     C94795   6.101   5.602   8.070  0.5941 -0.1688  0.8969
  719MOL0     C94796   6.083   5.735   7.993  0.3187  0.3177  0.1434
  719MOL0     C94797   6.045   5.856   8.078  0.0859 -0.5740  1.2262
  719MOL0     C94798   5.934   5.824   8.176  0.0325  0.6988  0.2044
  719MOL0     C94799   5.902   5.953   8.259  0.0948  0.3077  0.9235
  719MOL0     O94800   5.819   6.060   8.192  0.0683 -0.0668 -0.0409
  719MOL0     C94801   5.687   6.044   8.152  0.2214  0.3078 -0.5392
  719MOL0     C94802   5.638   6.098   8.033 -0.2775  0.0342 -0.7793
  719MOL0     C94803   5.512   6.066   7.990 -0.0589  0.6294 -0.1774
  719MOL0     C94804   5.425   5.994   8.068 -0.2123  1.3428 -0.6754
  719MOL0     C94805   5.285   5.955   8.018 -0.5760 -0.8301  0.8143
  719MOL0     O94806   5.235   6.028   7.913  0.6166  0.4429  0.1455
  719MOL0     C94807   5.114   6.004   7.863 -0.5554 -0.2328  0.6270
  719MOL0     C94808   5.018   6.100   7.871  0.1366  0.7177  0.4180
  719MOL0     C94809   4.881   6.068   7.836 -0.8806 -0.0157 -0.8269
  719MOL0     C94810   4.849   5.956   7.769  0.0774  0.0803  0.2467
  719MOL0     O94811   4.725   5.949   7.705 -0.1455 -0.4626 -0.6090
  719MOL0     C94812   4.692   5.833   7.623  0.2533 -0.3955  0.5347
  719MOL0     C94813   4.566   5.859   7.543 -0.7207  0.4930 -0.3728
  719MOL0     C94814   4.436   5.832   7.635  0.8020  0.0328 -0.3547
  719MOL0     C94815   4.316   5.868   7.555  0.4522  0.5502  0.3030
  719MOL0     C94816   4.193   5.870   7.639 -0.1862 -0.3726 -0.4452
  719MOL0     C94817   4.133   5.730   7.667 -0.7027 -0.2890  0.2134
  719MOL0     C94818   4.005   5.745   7.750  1.0066  0.1307 -0.1630
  719MOL0     C94819   3.929   5.613   7.755 -0.9248  0.3529 -0.0579
  719MOL0    Cl94820   3.783   5.606   7.852 -0.3430  0.1538 -0.4212
  719MOL0     C94821   4.953   5.861   7.753  0.8040  0.0810 -0.4709
  719MOL0     C94822   5.083   5.883   7.800  0.1287  0.0080  0.1156
  719MOL0     O94823   5.226   5.869   8.080 -0.1284 -0.6457 -0.6917
  719MOL0     C94824   5.474   5.933   8.188 -0.0943 -1.1575  0.9017
  719MOL0     C94825   5.602   5.959   8.234  0.0181 -0.0336 -0.4131
  719MOL0     N94826   6.169   5.578   8.190  0.4713  0.7042 -1.1659
  719MOL0     N94827   6.136   5.461   8.229 -1.1015 -0.0988  0.3828
  719MOL0     C94828   5.334   5.356   8.863 -0.1316 -0.8067 -0.6683
  719MOL0     C94829   5.428   5.372   8.972  0.2868  0.0969 -0.3107
  719MOL0     C94830   5.828   5.320   9.200 -0.7253  0.1683 -0.1593
  719MOL0     C94831   5.810   5.207   9.264  0.6699 -0.0338  0.3641
  719MOL0     C94832   5.899   5.149   9.346  0.2304  0.1061 -0.2190
  719MOL0     C94833   6.027   5.218   9.365  1.5273  0.5732 -0.6698
  719MOL0     O94834   6.118   5.155   9.449  0.2849  0.1640  1.0884
  719MOL0     C94835   6.222   5.232   9.503 -0.1330  0.5950 -0.6828
  719MOL0     C94836   6.306   5.142   9.598 -0.3152  0.5539  0.1838
  719MOL0     C94837   6.443   5.205   9.635 -0.2478 -0.0999 -1.0700
  719MOL0     C94838   6.536   5.211   9.515 -0.8256 -0.7083 -0.4111
  719MOL0     C94839   6.595   5.339   9.519  0.1752  0.1299 -0.2024
  719MOL0     C94840   6.654   5.443   9.540  0.7089  0.4412  0.1075
  719MOL0     C94841   6.060   5.331   9.298 -0.5473  0.6229  0.3929
  719MOL0     C94842   5.955   5.384   9.218 -0.0391 -0.4200  0.3570
  719MOL0     H94843   5.694   5.251   8.809 -0.9163 -2.1760  0.0475
  719MOL0     H94844   5.540   5.275   8.608 -1.9491 -0.2839  0.7657
  719MOL0     H94845   5.210   5.217   8.472 -0.7649 -0.7259  2.8805
  719MOL0     H94846   5.358   5.144   8.524  2.0386  0.3560 -5.5823
  719MOL0     H94847   5.429   5.413   8.457  2.0709 -1.6337  1.0797
  719MOL0     H94848   5.297   5.360   8.345  0.5595 -1.3274 -0.1780
  719MOL0     H94849   5.434   5.148   8.328 -0.4973  0.5132  1.6852
  719MOL0     H94850   5.567   5.245   8.411  1.7084 -0.1269 -2.0420
  719MOL0     H94851   5.424   5.306   8.147 -0.0108  0.1608 -1.1928
  719MOL0     H94852   5.542   5.413   8.234 -1.1281  0.0216 -0.2839
  719MOL0     H94853   5.626   5.254   8.040  3.2292 -0.3519 -1.2721
  719MOL0     H94854   5.629   5.133   8.171 -0.1137 -0.1147 -1.0618
  719MOL0     H94855   5.802   5.288   8.291 -2.0577 -0.4473  1.1645
  719MOL0     H94856   5.795   5.394   8.153  2.9694  0.3224  1.4686
  719MOL0     H94857   5.857   5.101   8.113  0.2553 -0.6333 -0.2049
  719MOL0     H94858   5.861   5.232   7.996 -1.2870  0.0552  0.4558
  719MOL0     H94859   6.098   5.197   8.070 -0.8439 -0.5141  0.7632
  719MOL0     H94860   6.057   5.217   8.238 -0.8544 -1.2624 -0.1547
  719MOL0     H94861   5.986   5.482   7.936  2.2818 -0.4941 -0.6626
  719MOL0     H94862   6.007   5.711   7.918  0.4528  1.2669 -0.3091
  719MOL0     H94863   6.168   5.764   7.931 -1.1099 -3.7271 -4.3580
  719MOL0     H94864   6.012   5.935   8.011  1.5870 -0.3076  0.7520
  719MOL0     H94865   6.140   5.884   8.127  1.1844 -3.0091  0.6117
  719MOL0     H94866   5.842   5.793   8.125 -1.3932 -0.7133  3.3716
  719MOL0     H94867   5.962   5.742   8.242 -1.3129 -0.2459 -0.3638
  719MOL0     H94868   5.994   6.000   8.296  1.4706 -2.2821  1.0528
  719MOL0     H94869   5.845   5.914   8.344 -2.0016 -0.2764 -0.6691
  719MOL0     H94870   5.701   6.161   7.971 -1.3245  1.3787 -0.5227
  719MOL0     H94871   5.481   6.101   7.891  0.4072 -2.0264 -1.3437
  719MOL0     H94872   5.045   6.195   7.917  0.5872  0.8655 -0.1493
  719MOL0     H94873   4.812   6.150   7.849 -1.2530 -0.4968  0.5079
  719MOL0     H94874   4.684   5.743   7.685 -1.4172  1.5241  3.3442
  719MOL0     H94875   4.775   5.832   7.552 -0.7050  0.3869 -0.6135
  719MOL0     H94876   4.558   5.788   7.461 -1.5456  3.1170 -2.7144
  719MOL0     H94877   4.572   5.960   7.503 -0.3538  0.6496  0.0649
  719MOL0     H94878   4.442   5.891   7.727  1.1942 -0.3440 -0.1339
  719MOL0     H94879   4.427   5.725   7.657  0.5305  0.0405 -0.4320
  719MOL0     H94880   4.335   5.971   7.522  0.5061  0.5749  0.4112
  719MOL0     H94881   4.293   5.795   7.477  0.0472  0.5270  0.4439
  719MOL0     H94882   4.122   5.931   7.582  1.2179  0.5216 -1.3040
  719MOL0     H94883   4.213   5.927   7.730  2.8625 -0.8553 -0.6980
  719MOL0     H94884   4.200   5.666   7.725 -0.7926 -0.8739 -0.3082
  719MOL0     H94885   4.104   5.682   7.572 -0.7596 -2.4205  1.2533
  719MOL0     H94886   4.020   5.783   7.852 -1.0308  1.3456 -0.2611
  719MOL0     H94887   3.942   5.819   7.700 -2.7106 -0.7297  2.7993
  719MOL0     H94888   3.990   5.534   7.799 -0.9026  0.6667  0.4986
  719MOL0     H94889   3.915   5.583   7.651  3.2949  0.2247 -0.7726
  719MOL0     H94890   4.918   5.765   7.715 -0.0649 -0.3217  1.1992
  719MOL0     H94891   5.150   5.798   7.793  1.2020  0.7301  1.2596
  719MOL0     H94892   5.422   5.857   8.245 -1.0347 -1.5292 -0.4020
  719MOL0     H94893   5.639   5.906   8.321  1.3538  0.4916 -0.6245
  719MOL0     H94894   5.227   5.373   8.874  0.3142  1.7547  0.3295
  719MOL0     H94895   5.402   5.401   9.073 -2.4950 -2.8935 -0.0228
  719MOL0     H94896   5.723   5.145   9.245 -0.4576  1.0780  1.7240
  719MOL0     H94897   5.878   5.062   9.407  0.2719 -0.2320 -0.6727
  719MOL0     H94898   6.180   5.318   9.557 -1.4266  1.4788 -2.9444
  719MOL0     H94899   6.289   5.274   9.428 -0.2795  0.8741 -0.6613
  719MOL0     H94900   6.263   5.104   9.691  0.8663 -0.1979  0.4392
  719MOL0     H94901   6.330   5.051   9.543  0.2370 -0.7578  2.4682
  719MOL0     H94902   6.490   5.148   9.715  2.4497  3.5875  0.2401
  719MOL0     H94903   6.428   5.308   9.667  0.6733  0.3203 -1.9220
  719MOL0     H94904   6.611   5.131   9.516 -0.4673 -0.3817 -0.5533
  719MOL0     H94905   6.494   5.204   9.415 -0.9315  1.3088 -0.5539
  719MOL0     H94906   6.703   5.538   9.543  0.7112  0.4618 -0.5138
  719MOL0     H94907   6.153   5.384   9.313  0.1472 -0.3392 -0.3436
  719MOL0     H94908   5.984   5.477   9.170 -0.1654 -1.4330 -1.7614
  720MOL0     O94909   8.703   2.020   6.600  0.5654  0.3953 -0.2093
  720MOL0     C94910   8.799   2.008   6.672 -1.0625 -0.3353 -0.0991
  720MOL0     O94911   8.816   1.921   6.770 -0.3902 -0.7384  0.4263
  720MOL0     C94912   8.712   1.840   6.800  0.0126  0.2692  0.2807
  720MOL0     C94913   8.718   1.706   6.749 -0.6023 -0.5269  0.3399
  720MOL0     C94914   8.621   1.617   6.779 -0.7734 -0.4466  0.0901
  720MOL0     C94915   8.502   1.666   6.849  0.2985  1.4310 -0.3483
  720MOL0     O94916   8.406   1.569   6.881 -0.5942  0.1680  0.1871
  720MOL0     C94917   8.294   1.603   6.956  0.2298 -0.2604 -0.0572
  720MOL0     C94918   8.187   1.501   6.941 -0.4197 -0.4468  0.0113
  720MOL0     C94919   8.053   1.553   6.991  0.1082  0.3406  0.0091
  720MOL0     C94920   8.045   1.571   7.139  0.4576 -0.0875 -1.1649
  720MOL0     C94921   7.898   1.632   7.178  0.1502 -0.5071  0.6797
  720MOL0     C94922   7.901   1.707   7.315 -0.0617 -0.2611  0.7084
  720MOL0     C94923   7.767   1.777   7.351  0.2615 -0.2456 -0.0875
  720MOL0     C94924   7.755   1.831   7.496  0.0387  0.1059 -0.7523
  720MOL0     N94925   7.632   1.914   7.506  0.4610 -0.1919  0.4218
  720MOL0     C94926   7.532   1.893   7.600  0.0902 -0.0564  0.2931
  720MOL0     C94927   7.451   1.993   7.569  0.0998 -0.2020 -0.2862
  720MOL0     C94928   7.335   2.024   7.654 -0.1267 -0.0558 -0.0791
  720MOL0     C94929   7.243   2.144   7.606  1.0244  0.0166  0.6985
  720MOL0     C94930   7.128   2.186   7.697  0.6840 -0.6147 -0.2289
  720MOL0     C94931   7.016   2.262   7.635  0.9493  0.3607 -0.1361
  720MOL0     O94932   6.918   2.312   7.737 -0.3533  0.0558  0.2608
  720MOL0     C94933   6.794   2.252   7.749 -0.4174  1.0890  0.5137
  720MOL0     C94934   6.702   2.323   7.827 -1.1981  0.3885  0.8909
  720MOL0     C94935   6.569   2.286   7.828  0.2439  0.1251 -0.4077
  720MOL0     C94936   6.529   2.162   7.765  0.5647 -0.0853  0.9011
  720MOL0     C94937   6.386   2.127   7.773  0.3608  0.1256  0.7583
  720MOL0     O94938   6.301   2.216   7.835  0.0947  0.3205 -0.4814
  720MOL0     C94939   6.166   2.184   7.840  0.6705  0.2201  0.0304
  720MOL0     C94940   6.079   2.230   7.742 -0.1719  0.2173  0.6652
  720MOL0     C94941   5.946   2.196   7.736 -0.6535  0.3055 -0.1589
  720MOL0     C94942   5.889   2.136   7.850 -0.1630 -0.9299  0.0226
  720MOL0     O94943   5.756   2.113   7.860 -0.2330 -0.0844 -0.1605
  720MOL0     C94944   5.673   2.170   7.752  0.1834 -1.5940  0.4490
  720MOL0     C94945   5.520   2.139   7.772  0.6532 -0.4548 -0.2848
  720MOL0     C94946   5.456   2.227   7.879  1.1305 -0.4693  0.0157
  720MOL0     C94947   5.322   2.162   7.912 -1.0491  0.4659  0.2941
  720MOL0     C94948   5.231   2.247   8.002 -0.6455  0.4187  0.6773
  720MOL0     C94949   5.106   2.174   8.028 -0.4870  0.0261  0.2044
  720MOL0     C94950   5.036   2.218   8.163  0.0546  1.0255  0.8451
  720MOL0     C94951   4.895   2.165   8.185  0.5129 -0.7072  0.3383
  720MOL0    Cl94952   4.781   2.229   8.061 -0.0285 -0.0403  0.0795
  720MOL0     C94953   5.967   2.095   7.955  0.6870 -0.1377  0.2000
  720MOL0     C94954   6.104   2.124   7.949 -0.8654  0.1219 -0.2284
  720MOL0     O94955   6.344   2.026   7.718 -0.8089 -0.3378  0.3904
  720MOL0     C94956   6.619   2.092   7.685  0.1237  0.2555  0.2236
  720MOL0     C94957   6.747   2.136   7.676  0.1471  0.8108  0.3611
  720MOL0     N94958   7.497   2.076   7.470 -0.4515  0.3471 -0.1926
  720MOL0     N94959   7.615   2.032   7.441  0.5637  0.2377  0.0702
  720MOL0     C94960   8.496   1.797   6.897  0.2447  0.3742 -0.2310
  720MOL0     C94961   8.605   1.886   6.873 -0.5419  0.1352  0.2399
  720MOL0     C94962   8.913   2.098   6.637  0.2585 -0.1666 -1.3113
  720MOL0     C94963   8.900   2.203   6.550  0.2576  0.0793 -0.6222
  720MOL0     C94964   9.015   2.271   6.501  0.7732 -0.6405  0.2361
  720MOL0     C94965   9.145   2.237   6.545 -0.3415  0.0890 -0.2207
  720MOL0     O94966   9.255   2.296   6.495 -0.8694 -0.0494  0.2018
  720MOL0     C94967   9.357   2.209   6.454 -0.0575  0.1519 -0.3954
  720MOL0     C94968   9.486   2.236   6.527 -0.3541 -0.3208  1.0646
  720MOL0     C94969   9.547   2.375   6.505  0.2521 -0.0448  0.3615
  720MOL0     C94970   9.684   2.399   6.552 -0.8793 -0.0547 -0.0316
  720MOL0     C94971   9.730   2.526   6.501  0.0402  0.2097 -0.4726
  720MOL0     C94972   9.782   2.633   6.471  0.5481 -0.6243  0.8311
  720MOL0     C94973   9.151   2.144   6.645 -0.2250 -0.1320  0.8564
  720MOL0     C94974   9.042   2.074   6.689 -0.0409 -0.4653 -0.7597
  720MOL0     H94975   8.802   1.678   6.686 -0.6546  2.7259 -1.4240
  720MOL0     H94976   8.619   1.521   6.729  0.2343 -0.1856 -0.4962
  720MOL0     H94977   8.242   1.696   6.931 -0.7241  0.1153  2.8634
  720MOL0     H94978   8.315   1.631   7.060 -2.3019 -1.7676  0.9753
  720MOL0     H94979   8.210   1.408   6.994 -0.6363  0.2803  1.4486
  720MOL0     H94980   8.181   1.480   6.834 -1.5862 -1.0716  0.1846
  720MOL0     H94981   7.978   1.484   6.952  0.9970  0.0825 -1.3203
  720MOL0     H94982   8.043   1.649   6.940  4.7403  0.9603 -0.2365
  720MOL0     H94983   8.066   1.483   7.200 -1.0904  1.3834  1.7002
  720MOL0     H94984   8.113   1.641   7.187 -1.4571  0.2287  1.2672
  720MOL0     H94985   7.825   1.550   7.169  0.9431 -0.9685 -3.2120
  720MOL0     H94986   7.876   1.712   7.106  1.2414 -0.1596  0.7257
  720MOL0     H94987   7.976   1.786   7.305 -0.7737  0.1254 -2.9280
  720MOL0     H94988   7.920   1.637   7.397 -1.7548 -0.2093  1.1675
  720MOL0     H94989   7.761   1.855   7.274  3.6456 -1.4330 -1.7714
  720MOL0     H94990   7.689   1.702   7.333  2.5131 -2.8723  0.4230
  720MOL0     H94991   7.843   1.885   7.531  0.6890 -1.4370  0.1238
  720MOL0     H94992   7.742   1.742   7.558 -3.3406  1.4715  0.7640
  720MOL0     H94993   7.538   1.828   7.686  0.5916 -0.1875  0.1627
  720MOL0     H94994   7.377   2.041   7.754  1.5912  0.3529 -0.8298
  720MOL0     H94995   7.270   1.937   7.655 -0.0808 -0.1596 -2.0743
  720MOL0     H94996   7.198   2.103   7.516 -0.0766  0.9274  0.8077
  720MOL0     H94997   7.311   2.229   7.589  2.7093 -1.8412 -2.8284
  720MOL0     H94998   7.079   2.096   7.735 -1.5830  1.4277  2.0219
  720MOL0     H94999   7.165   2.240   7.785 -1.1116  2.3456 -1.1391
  720MOL0     H95000   6.963   2.199   7.562  0.6498  0.2082  0.2113
  720MOL0     H95001   7.059   2.346   7.579 -2.0145  1.4422 -0.9737
  720MOL0     H95002   6.734   2.418   7.868 -0.4646  0.2575  0.6410
  720MOL0     H95003   6.501   2.348   7.885  0.8508  0.1373  0.3200
  720MOL0     H95004   6.118   2.284   7.656 -1.6951 -3.2022 -2.4316
  720MOL0     H95005   5.887   2.242   7.657 -1.0807 -0.2191 -0.1503
  720MOL0     H95006   5.702   2.128   7.656  1.4599 -1.7732  0.8988
  720MOL0     H95007   5.691   2.278   7.752 -1.5357 -1.2757  1.0760
  720MOL0     H95008   5.511   2.037   7.811 -1.5597  0.5626  2.1306
  720MOL0     H95009   5.465   2.145   7.678 -2.0928  0.8311  1.2736
  720MOL0     H95010   5.433   2.325   7.838  0.2603 -0.5382  0.3155
  720MOL0     H95011   5.515   2.248   7.969  1.4737 -0.4702 -0.2056
  720MOL0     H95012   5.270   2.131   7.821  1.6293 -3.2585 -0.1887
  720MOL0     H95013   5.352   2.068   7.959 -3.0058 -2.1728 -3.2596
  720MOL0     H95014   5.204   2.336   7.945 -0.9623 -0.9381 -1.4031
  720MOL0     H95015   5.283   2.266   8.096 -1.2920  1.7646  0.7886
  720MOL0     H95016   5.126   2.067   8.025 -0.0761  0.1226 -0.8891
  720MOL0     H95017   5.046   2.180   7.937  1.1538 -0.4667 -0.9549
  720MOL0     H95018   5.106   2.172   8.234  0.4482  2.3477  1.3319
  720MOL0     H95019   5.037   2.326   8.174  1.0205  1.4773 -2.5857
  720MOL0     H95020   4.860   2.172   8.288 -2.1431 -3.2979 -0.2611
  720MOL0     H95021   4.906   2.058   8.165 -0.2667 -0.3245 -2.6591
  720MOL0     H95022   5.930   2.048   8.045  2.4816  0.4077  1.2810
  720MOL0     H95023   6.156   2.087   8.036 -2.7208  0.2667  0.9991
  720MOL0     H95024   6.587   2.002   7.632 -1.8110  1.5063 -0.8864
  720MOL0     H95025   6.815   2.074   7.620 -0.4482 -1.3112  1.8652
  720MOL0     H95026   8.419   1.845   6.956  1.1107 -0.7310  1.9285
  720MOL0     H95027   8.599   1.993   6.892 -0.7554  1.1412 -4.2277
  720MOL0     H95028   8.796   2.224   6.527  0.0764  2.6765  2.0086
  720MOL0     H95029   9.001   2.345   6.423 -2.4097  0.8990  2.0802
  720MOL0     H95030   9.374   2.239   6.350  0.8236  2.4321  0.3387
  720MOL0     H95031   9.334   2.102   6.465  0.5459  0.1962  1.7603
  720MOL0     H95032   9.472   2.217   6.634 -0.0820 -1.6187  0.8950
  720MOL0     H95033   9.557   2.162   6.487  0.2505  1.5801 -1.6565
  720MOL0     H95034   9.488   2.450   6.557  1.0406  0.8035  0.0534
  720MOL0     H95035   9.547   2.394   6.398  3.0490 -0.1888  0.2504
  720MOL0     H95036   9.692   2.395   6.661  1.2011  1.4590 -0.0706
  720MOL0     H95037   9.745   2.321   6.507  0.9511  1.0033  0.5433
  720MOL0     H95038   9.816   2.730   6.443 -0.4722 -0.0212  1.6147
  720MOL0     H95039   9.249   2.116   6.683 -0.1940 -1.1647  0.0630
  720MOL0     H95040   9.057   2.003   6.770 -0.9807 -0.3044 -0.4289
  721MOL0     O95041   9.366   1.164   7.153 -0.7741 -0.3325 -0.0091
  721MOL0     C95042   9.309   1.246   7.083  0.2756  0.2664  0.6167
  721MOL0     O95043   9.349   1.372   7.060  0.3373 -0.4449 -0.5259
  721MOL0     C95044   9.447   1.435   7.128  0.6623 -0.1672  0.0854
  721MOL0     C95045   9.506   1.397   7.248 -0.1980  0.4937 -0.4891
  721MOL0     C95046   9.613   1.465   7.293  0.4622 -0.6071  0.2883
  721MOL0     C95047   9.668   1.571   7.230  0.0628  0.6015 -0.3223
  721MOL0     O95048   9.770   1.637   7.287 -0.4635  0.0889 -0.1770
  721MOL0     C95049   9.861   1.561   7.373 -0.3817 -0.0278  0.9871
  721MOL0     C95050   9.985   1.647   7.393 -0.9717 -0.2134 -0.0427
  721MOL0     C95051   9.961   1.772   7.470  0.3143  0.8021  0.4019
  721MOL0     C95052   9.864   1.759   7.587 -0.5775 -0.7146 -0.2162
  721MOL0     C95053   9.864   1.882   7.679  0.4163 -0.5027 -0.3196
  721MOL0     C95054   9.763   1.980   7.618 -0.4234  0.0132  0.3581
  721MOL0     C95055   9.779   2.118   7.683 -0.0475  0.7128 -0.1273
  721MOL0     C95056   9.867   2.218   7.598  0.4778  0.5018 -0.3476
  721MOL0     N95057   9.822   2.355   7.625  0.0220 -0.9471 -0.4096
  721MOL0     C95058   9.752   2.431   7.533 -0.6704  0.2695 -0.3729
  721MOL0     C95059   9.728   2.545   7.602  0.3682 -0.1002  0.0453
  721MOL0     C95060   9.653   2.672   7.553 -0.0331 -0.0606  0.1272
  721MOL0     C95061   9.687   2.801   7.636 -0.5144 -0.2664 -0.1754
  721MOL0     C95062   9.590   2.915   7.599 -0.0652 -1.0936 -0.4078
  721MOL0     C95063   9.436   2.899   7.624  0.1207  1.3240 -0.5901
  721MOL0     O95064   9.411   2.883   7.761 -0.0200 -0.3797 -0.3691
  721MOL0     C95065   9.286   2.829   7.795  0.2884 -0.9963 -0.0625
  721MOL0     C95066   9.172   2.789   7.712 -0.4444 -0.0496  0.0031
  721MOL0     C95067   9.057   2.730   7.763 -0.7522  0.6284  0.4580
  721MOL0     C95068   9.055   2.698   7.894 -0.0872  0.4714 -0.8867
  721MOL0     C95069   8.947   2.617   7.959  0.3333  0.2207 -0.9499
  721MOL0     O95070   8.950   2.617   8.097  0.4913 -0.2798  0.6255
  721MOL0     C95071   8.844   2.556   8.150  0.6515 -0.0502  0.0413
  721MOL0     C95072   8.719   2.625   8.160  0.7304  0.8485  0.2264
  721MOL0     C95073   8.613   2.558   8.217  0.9914  0.2614 -0.6265
  721MOL0     C95074   8.630   2.426   8.273  1.1972  0.6620  0.4764
  721MOL0     O95075   8.525   2.357   8.334  0.3569 -0.7808 -0.1287
  721MOL0     C95076   8.412   2.436   8.370 -0.4897  0.0908  0.3966
  721MOL0     C95077   8.332   2.336   8.461  0.1088 -0.1960 -0.0416
  721MOL0     C95078   8.214   2.411   8.530 -0.3108 -0.2453 -0.7479
  721MOL0     C95079   8.095   2.315   8.572 -0.3473  0.2365 -0.8685
  721MOL0     C95080   7.980   2.402   8.624  0.6205  0.6244 -0.2943
  721MOL0     C95081   7.878   2.293   8.660 -0.0258 -0.4084 -0.1775
  721MOL0     C95082   7.784   2.344   8.769  0.5520  0.1685 -0.7653
  721MOL0     C95083   7.663   2.420   8.732 -0.4403  0.6006 -0.2293
  721MOL0    Cl95084   7.581   2.511   8.869 -0.1103 -0.0857  0.3464
  721MOL0     C95085   8.760   2.373   8.277  0.4258 -0.0201 -0.3462
  721MOL0     C95086   8.866   2.435   8.214 -0.4270 -0.0227 -0.1425
  721MOL0     O95087   8.877   2.547   7.889  1.2543  0.2034  0.0065
  721MOL0     C95088   9.160   2.739   7.979  0.3324 -0.2339  0.7363
  721MOL0     C95089   9.272   2.804   7.933 -0.4253 -1.2293 -0.0811
  721MOL0     N95090   9.797   2.541   7.719 -0.4286 -0.0850 -0.0413
  721MOL0     N95091   9.857   2.429   7.734 -0.2451  1.0856 -0.2028
  721MOL0     C95092   9.610   1.613   7.108 -0.6102  0.1716 -0.8508
  721MOL0     C95093   9.494   1.547   7.062 -0.3584  0.0747  0.3974
  721MOL0     C95094   9.193   1.214   6.994 -0.2676  0.0644  0.8093
  721MOL0     C95095   9.149   1.298   6.887  0.2496 -0.5134  0.7455
  721MOL0     C95096   9.054   1.252   6.797  0.3763 -0.7614  0.9638
  721MOL0     C95097   8.981   1.137   6.820  0.5196  0.6393 -0.5948
  721MOL0     O95098   8.874   1.125   6.742  0.5184 -0.8206 -0.3929
  721MOL0     C95099   8.781   1.014   6.755 -0.7472 -0.3093 -0.7007
  721MOL0     C95100   8.837   0.886   6.706  0.2586  0.0329  0.1917
  721MOL0     C95101   8.818   0.871   6.555  0.5722 -0.0285  0.1431
  721MOL0     C95102   8.836   0.729   6.509  0.5833 -0.7690  0.0940
  721MOL0     C95103   8.788   0.704   6.374 -0.1825 -0.8522 -0.1769
  721MOL0     C95104   8.748   0.670   6.263 -0.8897 -0.1215 -1.0500
  721MOL0     C95105   9.015   1.058   6.927 -1.0090 -0.3672 -0.6518
  721MOL0     C95106   9.130   1.095   7.005  0.2237  0.2747  0.4926
  721MOL0     H95107   9.476   1.309   7.304  3.3550 -0.7784 -0.3174
  721MOL0     H95108   9.642   1.425   7.389  1.5176 -0.0858  0.1939
  721MOL0     H95109   9.890   1.463   7.334 -0.2649 -0.1147  1.2926
  721MOL0     H95110   9.815   1.536   7.469 -0.9692 -0.7682  0.5255
  721MOL0     H95111  10.029   1.659   7.293 -1.1699  1.7988  0.0636
  721MOL0     H95112  10.061   1.594   7.452 -1.5774 -0.4433  0.5434
  721MOL0     H95113   9.926   1.851   7.403 -1.5932 -1.0820 -0.9116
  721MOL0     H95114  10.052   1.821   7.506  1.9184 -0.8901 -1.1466
  721MOL0     H95115   9.765   1.738   7.546  0.1180 -0.6248 -2.0405
  721MOL0     H95116   9.904   1.680   7.651  0.2785  0.3742  0.6191
  721MOL0     H95117   9.962   1.927   7.692 -0.4055  1.8940 -1.7483
  721MOL0     H95118   9.829   1.871   7.782  3.3743 -1.4554  0.6753
  721MOL0     H95119   9.659   1.948   7.633 -0.1632 -0.6973  0.7123
  721MOL0     H95120   9.774   1.997   7.510 -1.8038 -1.5210 -0.0853
  721MOL0     H95121   9.683   2.170   7.694 -0.0786  0.5255  0.5201
  721MOL0     H95122   9.816   2.107   7.785 -1.7761  0.6594  0.5221
  721MOL0     H95123   9.867   2.206   7.490 -0.0591 -0.4997 -0.2525
  721MOL0     H95124   9.970   2.206   7.634 -0.2591  0.9865  2.1276
  721MOL0     H95125   9.726   2.398   7.433 -1.5682 -3.1371  0.8524
  721MOL0     H95126   9.546   2.652   7.560 -0.0933  0.6677  1.7316
  721MOL0     H95127   9.679   2.693   7.449  3.0379  1.3725  1.0597
  721MOL0     H95128   9.794   2.824   7.637 -0.1019 -1.3313  4.9043
  721MOL0     H95129   9.659   2.769   7.737 -3.4033  1.0096 -0.4609
  721MOL0     H95130   9.616   3.007   7.651 -1.5000  0.6158 -2.5126
  721MOL0     H95131   9.601   2.938   7.492 -1.1164  2.1648  0.0639
  721MOL0     H95132   9.408   2.809   7.569 -1.1190 -0.5901  2.8300
  721MOL0     H95133   9.381   2.986   7.586 -3.0723  0.5910  1.9059
  721MOL0     H95134   9.189   2.797   7.605  1.8571 -2.0671  0.1317
  721MOL0     H95135   8.981   2.693   7.695  0.0774 -0.0437 -0.1159
  721MOL0     H95136   8.707   2.727   8.126 -0.0676  1.3096  1.8125
  721MOL0     H95137   8.521   2.616   8.214 -0.7370 -2.3517 -2.2000
  721MOL0     H95138   8.345   2.463   8.287 -0.8069 -0.9847  0.2854
  721MOL0     H95139   8.440   2.524   8.428  0.4404 -0.1328  0.2993
  721MOL0     H95140   8.393   2.290   8.539  1.1324  1.1358 -0.0311
  721MOL0     H95141   8.300   2.252   8.397  0.2011 -0.3671  0.1352
  721MOL0     H95142   8.178   2.478   8.452 -2.5205  0.5198  0.8377
  721MOL0     H95143   8.255   2.465   8.615 -1.5708 -0.0670 -0.2395
  721MOL0     H95144   8.052   2.272   8.481 -1.2645  1.7665 -1.1965
  721MOL0     H95145   8.143   2.241   8.637 -0.3686 -0.7972 -2.0028
  721MOL0     H95146   7.935   2.465   8.547  1.6458  0.2269 -1.2510
  721MOL0     H95147   8.009   2.455   8.715 -4.8010  0.8448  1.6233
  721MOL0     H95148   7.931   2.212   8.711 -0.1464 -0.7214 -0.5441
  721MOL0     H95149   7.819   2.251   8.578  0.1375 -2.0335  0.4978
  721MOL0     H95150   7.745   2.255   8.820  0.0010 -0.0794 -1.6002
  721MOL0     H95151   7.842   2.389   8.850 -1.2661 -0.0761  0.7332
  721MOL0     H95152   7.593   2.346   8.691 -0.9846  0.6351  0.6208
  721MOL0     H95153   7.686   2.494   8.654  2.9684  0.3018  0.3632
  721MOL0     H95154   8.778   2.288   8.342  4.2429  0.7262 -0.1594
  721MOL0     H95155   8.956   2.375   8.214 -1.8879 -2.4040  1.4745
  721MOL0     H95156   9.153   2.716   8.085  0.5001 -1.7213  0.4446
  721MOL0     H95157   9.364   2.833   7.984 -0.7070  1.7459 -1.0628
  721MOL0     H95158   9.665   1.694   7.061  1.7454 -0.3265  0.8530
  721MOL0     H95159   9.447   1.571   6.967 -1.6611 -0.8922  0.7786
  721MOL0     H95160   9.209   1.387   6.868  2.1389 -1.6064  1.3575
  721MOL0     H95161   9.037   1.309   6.707  2.8312 -0.1269  0.8339
  721MOL0     H95162   8.694   1.038   6.694 -2.6923  0.0634  2.0692
  721MOL0     H95163   8.749   0.995   6.858 -0.6149 -0.7635 -0.7412
  721MOL0     H95164   8.939   0.870   6.742  0.0952 -1.3735  0.0833
  721MOL0     H95165   8.782   0.804   6.754 -1.8039 -0.8077 -3.2816
  721MOL0     H95166   8.888   0.935   6.501  0.1044  0.1814 -0.2275
  721MOL0     H95167   8.714   0.904   6.539  1.1406  1.2274 -1.2875
  721MOL0     H95168   8.943   0.709   6.512  0.8165 -0.3559 -2.7482
  721MOL0     H95169   8.785   0.662   6.580 -1.6101  1.7787  1.0821
  721MOL0     H95170   8.720   0.621   6.172 -0.6963  0.1921 -1.2779
  721MOL0     H95171   8.966   0.965   6.953 -0.3191 -0.5059  0.1845
  721MOL0     H95172   9.177   1.024   7.072 -0.2754 -1.2674 -0.7113
  722MOL0     O95173   4.458   9.404   7.071 -0.1647 -0.0130 -0.4407
  722MOL0     C95174   4.533   9.311   7.057  0.0029  0.3332  0.0335
  722MOL0     O95175   4.504   9.178   7.090  0.1072 -0.3693 -0.6496
  722MOL0     C95176   4.372   9.144   7.120 -0.2478 -1.0381  0.5314
  722MOL0     C95177   4.353   9.063   7.229 -0.3276 -0.4649  0.0184
  722MOL0     C95178   4.231   9.035   7.278  0.4520 -0.5637 -0.2470
  722MOL0     C95179   4.121   9.071   7.193  0.0176  0.3465  0.5011
  722MOL0     O95180   3.993   9.028   7.223 -0.2001  0.1593  0.5955
  722MOL0     C95181   3.943   9.102   7.341 -0.9064 -0.7411  0.5474
  722MOL0     C95182   3.795   9.069   7.369  0.2731  0.0782 -0.2920
  722MOL0     C95183   3.698   9.079   7.252  0.6440 -0.1926  0.1377
  722MOL0     C95184   3.564   9.141   7.280  0.7970  0.3261  0.2036
  722MOL0     C95185   3.580   9.286   7.327  0.0497 -0.3593 -0.0622
  722MOL0     C95186   3.442   9.364   7.334 -0.6835  0.1139 -0.0988
  722MOL0     C95187   3.383   9.397   7.191 -0.3256 -0.0884 -0.4673
  722MOL0     C95188   3.277   9.502   7.213 -0.3768  0.0397 -0.3222
  722MOL0     N95189   3.175   9.462   7.308  0.4078  0.5827  0.0241
  722MOL0     C95190   3.074   9.368   7.295  0.7246 -0.1975  0.1926
  722MOL0     C95191   2.997   9.378   7.405 -0.8309  0.2762 -1.0043
  722MOL0     C95192   2.877   9.291   7.435 -0.1376 -0.3830 -1.2043
  722MOL0     C95193   2.753   9.370   7.406 -0.3486  0.0351 -0.0754
  722MOL0     C95194   2.726   9.403   7.252 -0.3342  0.3278 -0.6230
  722MOL0     C95195   2.593   9.483   7.238 -0.0044  0.4916  0.6936
  722MOL0     O95196   2.476   9.397   7.217  0.2868 -0.8934 -0.3600
  722MOL0     C95197   2.352   9.454   7.204 -0.4660  0.1875  0.3263
  722MOL0     C95198   2.264   9.368   7.157  0.1276  0.4538  0.1561
  722MOL0     C95199   2.129   9.408   7.133  0.2565  0.9591 -0.4436
  722MOL0     C95200   2.091   9.543   7.141 -0.1948  0.3768  0.3426
  722MOL0     C95201   1.952   9.590   7.105  0.3803 -1.0507  0.5431
  722MOL0     O95202   1.855   9.495   7.100 -0.3530  0.4000  0.2332
  722MOL0     C95203   1.733   9.526   7.038 -0.2895  0.2825  0.0344
  722MOL0     C95204   1.629   9.708   7.051 -0.0821 -0.1812  0.4420
  722MOL0     C95205   1.432   9.729   6.959  0.2072  0.0152 -0.0431
  722MOL0     C95206   1.346   9.562   6.865 -0.5919  0.7778 -0.6101
  722MOL0     O95207   1.219   9.576   6.818 -0.0921  0.6363 -0.1015
  722MOL0     C95208   1.170   9.713   6.823 -0.1291  1.0133  0.1643
  722MOL0     C95209   1.050   9.717   6.725 -0.5410 -0.4155 -0.0213
  722MOL0     C95210   0.929   9.709   6.815  0.6981 -0.3322  0.0947
  722MOL0     C95211   0.803   9.743   6.739 -0.1167  0.2331  0.8407
  722MOL0     C95212   0.686   9.706   6.828 -0.8186  0.1351  0.4301
  722MOL0     C95213   0.562   9.795   6.792  0.0542 -0.4104  0.2704
  722MOL0     C95214   0.473   9.795   6.915  0.2284  0.0399  0.5156
  722MOL0     C95215   0.334   9.857   6.890  0.1220  0.3726  0.0947
  722MOL0    Cl95216   0.223   9.806   6.751  0.1463  0.0506  0.2065
  722MOL0     C95217   1.450   9.379   6.853  0.3209 -0.3254  0.5599
  722MOL0     C95218   1.644   9.359   6.940 -0.7108  0.5000 -0.8130
  722MOL0     O95219   1.939   9.710   7.059  0.7021 -0.2302 -0.0119
  722MOL0     C95220   2.194   9.631   7.182  0.6808  0.5396  0.0319
  722MOL0     C95221   2.322   9.586   7.208  0.0187  0.0990 -0.0466
  722MOL0     N95222   3.044   9.473   7.482  0.1603 -0.4804 -0.3787
  722MOL0     N95223   3.152   9.529   7.431 -0.2257  0.7850  0.0189
  722MOL0     C95224   4.139   9.146   7.081  0.6158  0.4607 -0.0794
  722MOL0     C95225   4.264   9.182   7.045  0.5291 -0.0009 -0.4437
  722MOL0     C95226   4.680   9.329   7.010  0.3542  0.5256  0.0090
  722MOL0     C95227   4.738   9.457   7.010  0.2173 -0.0423  0.5948
  722MOL0     C95228   4.867   9.477   6.971 -1.1064 -0.6841  0.7258
  722MOL0     C95229   4.951   9.367   6.944 -1.0323 -0.5271  0.0104
  722MOL0     O95230   5.081   9.400   6.923 -0.3731  0.6091  0.2379
  722MOL0     C95231   5.175   9.312   6.860 -0.3908  0.6695 -0.0262
  722MOL0     C95232   5.127   9.283   6.724  0.6539  0.2026  0.4792
  722MOL0     C95233   5.110   9.397   6.630  0.6388  0.6092 -0.1904
  722MOL0     C95234   5.043   9.351   6.504 -0.0921  0.1517  0.3943
  722MOL0     C95235   5.128   9.263   6.423  0.2433  0.3165 -0.3332
  722MOL0     C95236   5.197   9.205   6.346 -0.6978 -0.3713 -0.1791
  722MOL0     C95237   4.902   9.238   6.966  0.2611 -0.1387  0.0004
  722MOL0     C95238   4.772   9.221   6.999 -0.0260 -0.4087  0.5011
  722MOL0     H95239   4.441   9.036   7.287  1.2471  0.7321 -1.6978
  722MOL0     H95240   4.217   8.968   7.361 -0.7444  0.1546  0.1585
  722MOL0     H95241   3.956   9.209   7.324  1.6916 -1.1525 -0.4636
  722MOL0     H95242   4.000   9.069   7.429 -0.1281  2.0741  1.2224
  722MOL0     H95243   3.758   9.138   7.446 -0.0641  3.1409 -2.9665
  722MOL0     H95244   3.790   8.973   7.419 -2.2394  0.8318  1.0942
  722MOL0     H95245   3.700   8.978   7.209  3.0011 -0.7866  1.4458
  722MOL0     H95246   3.740   9.139   7.170 -1.4840  1.3924  0.1421
  722MOL0     H95247   3.498   9.139   7.192  4.3652  2.4273 -2.8021
  722MOL0     H95248   3.515   9.083   7.359  1.1253  2.4399  2.0647
  722MOL0     H95249   3.640   9.351   7.263 -1.3572  2.0081  0.8892
  722MOL0     H95250   3.620   9.288   7.429  0.8418  0.7918 -0.3754
  722MOL0     H95251   3.472   9.457   7.382  1.4047 -0.2702 -0.5751
  722MOL0     H95252   3.371   9.315   7.401 -0.7526  0.7190  0.2797
  722MOL0     H95253   3.458   9.427   7.117  1.7519  0.2818  1.6937
  722MOL0     H95254   3.334   9.308   7.148  1.1663 -1.3254  0.2842
  722MOL0     H95255   3.233   9.524   7.115 -2.1375 -3.1496 -0.3848
  722MOL0     H95256   3.317   9.599   7.244  1.2741 -0.4099 -0.9190
  722MOL0     H95257   3.053   9.304   7.210 -0.8239  1.8563 -1.0898
  722MOL0     H95258   2.878   9.272   7.543  1.4862  0.4748 -1.0311
  722MOL0     H95259   2.864   9.194   7.387 -4.5801 -1.4214  1.5598
  722MOL0     H95260   2.754   9.463   7.464 -0.5713 -0.3397  0.5490
  722MOL0     H95261   2.665   9.316   7.443 -0.9616  0.3342 -1.0801
  722MOL0     H95262   2.810   9.460   7.211  0.2231 -0.5250 -0.6856
  722MOL0     H95263   2.716   9.306   7.202  0.6743 -0.5998  0.8677
  722MOL0     H95264   2.603   9.543   7.147 -0.4080  0.8292  0.8666
  722MOL0     H95265   2.568   9.553   7.318 -3.0342  0.7485 -0.3354
  722MOL0     H95266   2.296   9.267   7.137  0.1282  0.2667  1.0379
  722MOL0     H95267   2.069   9.329   7.088  4.1020 -1.3092 -2.1443
  722MOL0     H95268   1.663   9.797   7.103  0.2691 -0.1057  0.0873
  722MOL0     H95269   1.385   9.827   6.961  0.4366  0.1368 -0.4202
  722MOL0     H95270   1.252   9.779   6.794  0.3120  0.6799  0.6253
  722MOL0     H95271   1.142   9.737   6.926 -1.9205  0.2920 -0.1260
  722MOL0     H95272   1.031   9.640   6.651 -3.4492 -0.9477  1.1389
  722MOL0     H95273   1.052   9.817   6.681  0.0811 -0.4400 -0.0550
  722MOL0     H95274   0.924   9.768   6.908 -3.4768  1.0362 -0.7827
  722MOL0     H95275   0.921   9.605   6.850  0.8129 -0.7321 -1.0194
  722MOL0     H95276   0.799   9.850   6.717 -0.8041 -0.1728 -1.3476
  722MOL0     H95277   0.803   9.685   6.645 -1.3702  0.9839  0.3441
  722MOL0     H95278   0.707   9.706   6.935 -0.8871  1.9234  0.4754
  722MOL0     H95279   0.670   9.600   6.804  2.3450 -0.2782 -0.3552
  722MOL0     H95280   0.512   9.768   6.698 -2.7005  2.1653  0.8696
  722MOL0     H95281   0.582   9.901   6.773  0.6020 -0.1808  1.9978
  722MOL0     H95282   0.448   9.694   6.950 -3.0480  0.1230 -1.1994
  722MOL0     H95283   0.518   9.847   6.999 -0.0511 -1.7471  1.8335
  722MOL0     H95284   0.359   9.963   6.882  1.0606  0.0195 -2.8851
  722MOL0     H95285   0.276   9.851   6.982 -0.2391  0.2633 -0.1372
  722MOL0     H95286   1.403   9.290   6.812  1.6049 -1.4670  1.4387
  722MOL0     H95287   1.688   9.260   6.934  1.2121  1.1482  1.2265
  722MOL0     H95288   2.170   9.736   7.191  1.5518  0.7004  0.7238
  722MOL0     H95289   2.392   9.662   7.239  0.4790 -0.0566 -0.6791
  722MOL0     H95290   4.061   9.178   7.013  2.1984  2.0219 -1.2457
  722MOL0     H95291   4.262   9.252   6.962 -2.7078  2.6979  1.6812
  722MOL0     H95292   4.665   9.537   7.019  2.1517  2.2194 -2.0519
  722MOL0     H95293   4.901   9.580   6.968  0.1958 -1.1073 -1.2959
  722MOL0     H95294   5.186   9.222   6.921  1.4141  1.4009  0.7901
  722MOL0     H95295   5.273   9.360   6.849 -0.0378 -0.5568 -3.9051
  722MOL0     H95296   5.201   9.219   6.674  1.9899  1.7934  0.3039
  722MOL0     H95297   5.032   9.229   6.727 -0.4396  1.8730 -1.2957
  722MOL0     H95298   5.208   9.442   6.612  0.6679  0.6676  0.1148
  722MOL0     H95299   5.039   9.464   6.678 -4.0599 -3.1699 -1.1732
  722MOL0     H95300   4.945   9.307   6.525 -0.1169  0.8552  1.9314
  722MOL0     H95301   5.026   9.445   6.451  1.9868  2.2016  3.0476
  722MOL0     H95302   5.248   9.144   6.273  0.0971  0.3170 -0.2133
  722MOL0     H95303   4.969   9.154   6.957  0.3136 -0.0254 -0.7284
  722MOL0     H95304   4.746   9.119   7.026  1.4888 -0.8023  0.5532
  723MOL0     O95305   8.144   6.376   8.127 -0.1932 -0.2109 -0.7552
  723MOL0     C95306   8.257   6.379   8.083  1.0764 -0.2324  0.1721
  723MOL0     O95307   8.319   6.289   8.007 -0.7069  0.2055 -0.2136
  723MOL0     C95308   8.247   6.181   7.949 -0.0727 -0.1286 -0.0901
  723MOL0     C95309   8.314   6.127   7.831 -0.1991  0.1190  0.1236
  723MOL0     C95310   8.256   6.020   7.761  0.6464  0.2051 -0.0528
  723MOL0     C95311   8.139   5.961   7.819 -0.9172  0.3700  0.6015
  723MOL0     O95312   8.076   5.850   7.766 -0.4821  0.0594 -0.4442
  723MOL0     C95313   8.166   5.747   7.724 -0.0902  0.7784  0.1492
  723MOL0     C95314   8.078   5.618   7.714  0.2864 -0.2659  0.3077
  723MOL0     C95315   8.048   5.539   7.838  0.1306  0.8825 -0.6515
  723MOL0     C95316   7.922   5.605   7.904 -0.7694  1.1359  0.6687
  723MOL0     C95317   7.879   5.543   8.040  0.5286 -0.4517  0.0845
  723MOL0     C95318   7.977   5.565   8.153 -0.3517 -0.9148 -1.5993
  723MOL0     C95319   8.011   5.706   8.189 -0.2211 -0.2689 -0.1298
  723MOL0     C95320   8.097   5.724   8.316 -0.7609 -0.0924 -0.3370
  723MOL0     N95321   8.243   5.711   8.291  0.8465  0.9758  0.2885
  723MOL0     C95322   8.300   5.793   8.200  0.7557  0.2347 -0.2693
  723MOL0     C95323   8.435   5.760   8.204  0.5126 -0.4312 -0.5550
  723MOL0     C95324   8.549   5.812   8.118 -0.4459  0.8502 -0.0183
  723MOL0     C95325   8.517   5.900   7.998  0.5473 -1.0019  0.4724
  723MOL0     C95326   8.643   5.940   7.913  0.4252  0.4475  0.3406
  723MOL0     C95327   8.719   6.061   7.958 -0.3314 -0.1717  0.3376
  723MOL0     O95328   8.771   6.039   8.087  0.2880 -0.0563 -0.1015
  723MOL0     C95329   8.883   6.115   8.126  0.0364 -0.1911 -0.1736
  723MOL0     C95330   8.926   6.232   8.051  0.9798 -0.7779  0.7958
  723MOL0     C95331   9.033   6.312   8.083  0.8773  0.5814  0.0803
  723MOL0     C95332   9.110   6.278   8.193 -0.5966 -0.1263 -0.5600
  723MOL0     C95333   9.237   6.356   8.239 -0.2679  0.1538  0.2906
  723MOL0     O95334   9.264   6.470   8.165  0.2288 -0.6869 -0.1422
  723MOL0     C95335   9.385   6.527   8.210 -0.4823 -0.1386 -0.6205
  723MOL0     C95336   9.418   6.565   8.345  0.0384  0.1561  0.0808
  723MOL0     C95337   9.541   6.623   8.375 -0.2640  0.3900 -0.5764
  723MOL0     C95338   9.628   6.653   8.270  0.1673 -1.0306 -0.1012
  723MOL0     O95339   9.746   6.718   8.307  0.7810 -0.8282 -0.0110
  723MOL0     C95340   9.800   6.807   8.198  0.0099 -0.1670 -0.2902
  723MOL0     C95341   9.907   6.898   8.247 -0.1466  0.0527 -0.2469
  723MOL0     C95342   9.960   6.973   8.123  0.4266  0.0705 -0.3009
  723MOL0     C95343  10.096   7.045   8.151  0.2164  0.2680  0.1278
  723MOL0     C95344  10.154   7.110   8.025 -0.3776  0.1582  0.3545
  723MOL0     C95345  10.059   7.194   7.940 -0.6477  0.1829  0.7603
  723MOL0     C95346   9.986   7.309   8.009  0.2859 -0.9287  0.0786
  723MOL0     C95347   9.889   7.394   7.925 -0.3566 -0.4014  0.5871
  723MOL0    Cl95348   9.967   7.480   7.797 -0.3798  0.0529  0.4394
  723MOL0     C95349   9.589   6.632   8.137  0.6166  0.8940  0.6762
  723MOL0     C95350   9.473   6.558   8.105 -1.2586  0.7976  0.0795
  723MOL0     O95351   9.308   6.304   8.332  0.4274 -0.1417  0.0924
  723MOL0     C95352   9.073   6.161   8.265  1.0294 -0.5448 -0.2505
  723MOL0     C95353   8.957   6.083   8.231 -0.3196  0.5751 -0.4957
  723MOL0     N95354   8.453   5.651   8.292 -0.1409 -0.4760 -0.3412
  723MOL0     N95355   8.333   5.613   8.330 -0.6358  0.1095 -0.7450
  723MOL0     C95356   8.076   6.013   7.930  0.2025  0.9816 -0.3788
  723MOL0     C95357   8.128   6.121   7.999  0.8765  0.8756  0.8683
  723MOL0     C95358   8.341   6.492   8.127 -0.3979  0.3020  0.5405
  723MOL0     C95359   8.450   6.529   8.049  0.0100  0.0377  0.2328
  723MOL0     C95360   8.541   6.627   8.093 -0.7766 -0.9746  0.0827
  723MOL0     C95361   8.511   6.701   8.214 -0.2607  1.1907  0.9276
  723MOL0     O95362   8.580   6.805   8.273  0.4404  0.0102  0.0216
  723MOL0     C95363   8.695   6.861   8.202  0.1155 -0.0219 -0.4739
  723MOL0     C95364   8.829   6.798   8.240  0.5953 -0.2200 -0.2195
  723MOL0     C95365   8.951   6.884   8.200  0.0658 -0.7482 -0.6664
  723MOL0     C95366   9.080   6.806   8.226 -1.3057  0.7534  0.2872
  723MOL0     C95367   9.199   6.867   8.164 -0.9306  0.8111 -0.5133
  723MOL0     C95368   9.300   6.901   8.116  0.3698  0.0721  0.1012
  723MOL0     C95369   8.400   6.663   8.289 -0.0597 -0.0787  0.1458
  723MOL0     C95370   8.318   6.559   8.249 -0.4599 -0.1857 -0.4505
  723MOL0     H95371   8.409   6.166   7.796  0.1199  1.1887  2.0601
  723MOL0     H95372   8.305   5.981   7.673 -0.9631 -1.0985 -0.4190
  723MOL0     H95373   8.251   5.738   7.794  0.9859 -0.2724 -1.2304
  723MOL0     H95374   8.213   5.757   7.626  0.7685 -1.5234  0.2437
  723MOL0     H95375   8.135   5.554   7.647  1.5446 -0.5568  1.6100
  723MOL0     H95376   7.985   5.634   7.658 -1.1116  3.0340  3.1734
  723MOL0     H95377   8.129   5.551   7.911 -0.0175  1.0196 -0.5083
  723MOL0     H95378   8.030   5.431   7.827 -1.9210  1.1648 -0.5124
  723MOL0     H95379   7.937   5.710   7.929 -0.6842  0.5982  3.1549
  723MOL0     H95380   7.839   5.601   7.833 -0.2336  1.8913 -0.0218
  723MOL0     H95381   7.875   5.434   8.029  0.6088 -0.4601  0.1394
  723MOL0     H95382   7.785   5.580   8.081 -0.0366 -1.5197 -0.2147
  723MOL0     H95383   8.073   5.520   8.127  1.4292  1.7033 -0.1056
  723MOL0     H95384   7.940   5.504   8.236  0.8527  0.2665 -0.1169
  723MOL0     H95385   8.055   5.759   8.105 -1.6594  3.4998  1.2873
  723MOL0     H95386   7.921   5.761   8.218  1.1276  2.1511 -0.2425
  723MOL0     H95387   8.074   5.649   8.392  0.4387 -0.1974 -0.0478
  723MOL0     H95388   8.091   5.826   8.355 -1.2563 -0.9088  1.8621
  723MOL0     H95389   8.253   5.874   8.145  0.4889  0.2355 -0.0454
  723MOL0     H95390   8.600   5.718   8.092  0.2150  0.3710  2.7023
  723MOL0     H95391   8.631   5.854   8.177  2.2876 -2.6338 -0.9960
  723MOL0     H95392   8.465   5.988   8.038  1.1178 -0.5564  0.2624
  723MOL0     H95393   8.453   5.837   7.936 -2.4410  1.2098  1.0915
  723MOL0     H95394   8.715   5.858   7.906  0.4681  0.4616  0.6079
  723MOL0     H95395   8.596   5.963   7.817 -1.9103  1.9249  1.7291
  723MOL0     H95396   8.642   6.139   7.961  0.7844  0.9499  0.7150
  723MOL0     H95397   8.799   6.078   7.885 -1.1523 -1.1740 -0.8433
  723MOL0     H95398   8.865   6.272   7.970 -0.7677  0.6828  2.7188
  723MOL0     H95399   9.063   6.401   8.029  1.8865  2.6530  3.6607
  723MOL0     H95400   9.337   6.537   8.411  0.2856 -3.4417 -0.9072
  723MOL0     H95401   9.568   6.655   8.475 -0.3207  0.4437 -0.5776
  723MOL0     H95402   9.722   6.865   8.148  1.2832 -0.8386 -3.3024
  723MOL0     H95403   9.844   6.744   8.121  2.1007  2.0298 -0.9973
  723MOL0     H95404   9.994   6.844   8.289 -1.2791 -1.5499  0.1526
  723MOL0     H95405   9.870   6.958   8.331 -4.0901 -2.2460 -0.1020
  723MOL0     H95406   9.886   7.049   8.098  0.2579  0.4986  1.4196
  723MOL0     H95407   9.969   6.906   8.037  0.0928 -2.3956  1.4860
  723MOL0     H95408  10.089   7.117   8.233  2.0961 -1.1611  1.6611
  723MOL0     H95409  10.163   6.963   8.180 -1.6334 -1.7781 -1.0054
  723MOL0     H95410  10.175   7.025   7.959  0.0552 -0.5323  1.3644
  723MOL0     H95411  10.248   7.161   8.050 -1.8862  3.9563 -1.0342
  723MOL0     H95412   9.973   7.136   7.905 -1.4194  1.7339 -0.0147
  723MOL0     H95413  10.108   7.231   7.850 -0.3415  0.4993  1.0525
  723MOL0     H95414   9.923   7.271   8.090  0.3424 -0.9686  0.1033
  723MOL0     H95415  10.063   7.371   8.053 -0.0640 -0.2544 -0.2442
  723MOL0     H95416   9.847   7.481   7.976  1.7557  0.8865  0.2231
  723MOL0     H95417   9.807   7.329   7.893 -0.4543  0.2895 -0.6371
  723MOL0     H95418   9.643   6.651   8.044 -1.0079 -2.1447 -1.0574
  723MOL0     H95419   9.451   6.530   8.003 -0.8463 -2.1708  0.7096
  723MOL0     H95420   9.131   6.125   8.349 -0.1259 -2.3634 -0.1616
  723MOL0     H95421   8.939   6.003   8.303 -0.6008  2.0889  1.1896
  723MOL0     H95422   7.986   5.964   7.968  0.8538  0.7988  0.9988
  723MOL0     H95423   8.086   6.144   8.096  0.9803 -0.7084  1.3249
  723MOL0     H95424   8.468   6.466   7.962 -2.7733 -0.1447 -0.2922
  723MOL0     H95425   8.638   6.625   8.043 -1.6598 -3.8731 -1.6984
  723MOL0     H95426   8.696   6.968   8.226 -0.2183  0.4905 -2.5535
  723MOL0     H95427   8.679   6.857   8.094  1.6617  0.6964 -0.7540
  723MOL0     H95428   8.824   6.782   8.348 -1.2487 -0.2749 -0.2813
  723MOL0     H95429   8.829   6.696   8.201  1.2941 -1.0395  1.7722
  723MOL0     H95430   8.950   6.969   8.269  0.0380  2.2344 -4.0399
  723MOL0     H95431   8.946   6.919   8.096  2.7515  0.7836 -0.3670
  723MOL0     H95432   9.092   6.781   8.332 -0.9183  1.6079  0.4530
  723MOL0     H95433   9.067   6.715   8.167 -0.0589  0.9438 -0.3247
  723MOL0     H95434   9.393   6.938   8.078  0.5464 -0.3391  0.1217
  723MOL0     H95435   8.389   6.726   8.376 -0.1089 -1.7481  1.3972
  723MOL0     H95436   8.231   6.522   8.302 -1.0648 -0.7798 -1.8137
  724MOL0     O95437  10.627   0.177   3.648  0.1442 -0.8491 -0.0732
  724MOL0     C95438  10.639   0.258   3.554  0.0735  0.2715 -0.4651
  724MOL0     O95439  10.536   0.283   3.464 -0.6308 -0.1323 -0.4093
  724MOL0     C95440  10.414   0.223   3.472  0.0494 -0.1387 -0.8984
  724MOL0     C95441  10.300   0.285   3.516  0.3310 -0.5724  0.1706
  724MOL0     C95442  10.177   0.225   3.520  0.8307 -0.4877 -0.6686
  724MOL0     C95443  10.167   0.084   3.487  0.2421  0.8750 -0.0022
  724MOL0     O95444  10.037   0.039   3.482  0.6797  0.3121 -0.0669
  724MOL0     C95445  10.018  -0.085   3.405 -0.3032  0.5575  0.4869
  724MOL0     C95446   9.879  -0.136   3.409 -0.0168  0.1330 -0.3496
  724MOL0     C95447   9.864  -0.216   3.280 -0.9776 -0.0732  0.1145
  724MOL0     C95448   9.737  -0.303   3.284 -0.5555 -0.0563  0.5341
  724MOL0     C95449   9.609  -0.216   3.260  0.4423  0.2496  0.4114
  724MOL0     C95450   9.482  -0.293   3.252 -0.3469  0.6849  1.3349
  724MOL0     C95451   9.367  -0.191   3.220 -0.4367  0.4549  0.1585
  724MOL0     C95452   9.239  -0.274   3.220 -0.1963 -0.0501  0.4751
  724MOL0     N95453   9.127  -0.171   3.203 -0.1290 -0.3304 -0.0188
  724MOL0     C95454   9.109  -0.085   3.095  0.0025  0.5370  0.0185
  724MOL0     C95455   8.987  -0.038   3.116  1.1020 -0.7723 -0.6661
  724MOL0     C95456   8.909   0.058   3.036  0.2545  0.4605  0.7325
  724MOL0     C95457   8.863   0.179   3.117 -0.1233  0.7438 -1.2026
  724MOL0     C95458   8.980   0.265   3.173 -0.6882  0.2393  0.6740
  724MOL0     C95459   9.021   0.241   3.316  0.0455 -0.6149  0.7617
  724MOL0     O95460   9.116   0.349   3.341  0.4074  0.3357  0.4482
  724MOL0     C95461   9.251   0.327   3.306 -0.4863 -0.0281  0.2982
  724MOL0     C95462   9.305   0.196   3.265 -0.1945 -1.0355 -0.4304
  724MOL0     C95463   9.441   0.178   3.237  0.5978 -0.6563 -0.2113
  724MOL0     C95464   9.522   0.287   3.209  0.8089 -0.4122  0.5378
  724MOL0     C95465   9.665   0.273   3.172 -0.1241 -0.6307  0.1925
  724MOL0     O95466   9.741   0.386   3.181  0.3911 -0.1166 -0.7927
  724MOL0     C95467   9.875   0.374   3.152 -0.0073  0.9447 -0.1871
  724MOL0     C95468   9.926   0.446   3.045 -0.0199 -0.1731 -1.3729
  724MOL0     C95469  10.059   0.451   3.007  0.6105 -0.4591  0.5297
  724MOL0     C95470  10.148   0.365   3.072  0.4328  0.7013  0.2616
  724MOL0     O95471  10.283   0.368   3.042 -0.1239  0.6729  0.6547
  724MOL0     C95472  10.376   0.408   3.151 -1.1781  0.9567 -0.3850
  724MOL0     C95473  10.362   0.561   3.174 -0.1245 -0.7898  0.5826
  724MOL0     C95474  10.422   0.615   3.302 -0.7555  0.2723 -0.5232
  724MOL0     C95475  10.405   0.762   3.310 -0.2326 -0.9121 -0.5995
  724MOL0     C95476  10.423   0.814   3.455  0.3442 -0.8709  0.0481
  724MOL0     C95477  10.542   0.762   3.537 -0.3111 -0.2722 -0.0716
  724MOL0     C95478  10.685   0.761   3.470  0.5800 -0.3818  0.1455
  724MOL0     C95479  10.804   0.794   3.566 -0.3095  0.4963  0.1727
  724MOL0    Cl95480  10.961   0.759   3.481 -0.3014 -0.2774  0.1565
  724MOL0     C95481  10.110   0.286   3.178 -0.4744  0.3505 -0.1123
  724MOL0     C95482   9.968   0.291   3.214 -0.3813  0.7293 -0.9405
  724MOL0     O95483   9.704   0.157   3.155 -0.1427  1.0080 -0.3425
  724MOL0     C95484   9.470   0.415   3.251  0.2252  0.2481 -0.3019
  724MOL0     C95485   9.339   0.436   3.302  0.4099 -0.1558  0.6884
  724MOL0     N95486   8.939  -0.088   3.235 -0.3423  0.0964  0.1968
  724MOL0     N95487   9.016  -0.174   3.282  0.2230  0.7264 -0.4336
  724MOL0     C95488  10.279   0.009   3.458  0.1627 -0.3852 -0.0152
  724MOL0     C95489  10.397   0.086   3.455 -1.0358  1.3414 -0.3513
  724MOL0     C95490  10.772   0.311   3.520  0.4757 -0.3448  0.4443
  724MOL0     C95491  10.882   0.283   3.598 -0.8457  0.1459  0.1381
  724MOL0     C95492  11.018   0.328   3.565  0.2319 -0.2468  0.2539
  724MOL0     C95493  11.041   0.407   3.455 -0.5134  0.4062 -0.3852
  724MOL0     O95494  11.157   0.464   3.410 -0.1525 -0.2641 -0.6012
  724MOL0     C95495  11.283   0.457   3.477 -0.2020 -0.3110 -0.4835
  724MOL0     C95496  11.383   0.554   3.418 -0.3328  0.0396  0.0011
  724MOL0     C95497  11.514   0.550   3.494 -0.4262 -0.4575  0.6689
  724MOL0     C95498  11.606   0.655   3.429 -0.3170  0.0568 -0.0853
  724MOL0     C95499  11.746   0.659   3.486 -0.2404 -1.1023  0.1120
  724MOL0     C95500  11.866   0.650   3.524  0.5816 -0.5161 -0.0299
  724MOL0     C95501  10.927   0.436   3.371  0.3445  0.4088 -0.5196
  724MOL0     C95502  10.797   0.391   3.405 -0.6461 -0.2353 -0.6752
  724MOL0     H95503  10.298   0.389   3.549 -0.5029 -0.3599 -0.5103
  724MOL0     H95504  10.096   0.282   3.564  1.3802 -0.4952  0.3823
  724MOL0     H95505  10.076  -0.160   3.458 -0.9123  0.3017  0.8082
  724MOL0     H95506  10.054  -0.065   3.303  1.2847  0.7805  1.0670
  724MOL0     H95507   9.813  -0.048   3.400  2.2174  1.7159 -3.2825
  724MOL0     H95508   9.857  -0.202   3.493 -2.8321  2.3622  0.8676
  724MOL0     H95509   9.947  -0.286   3.269 -0.5701  0.5290 -0.8064
  724MOL0     H95510   9.874  -0.157   3.189  1.9479 -0.2555  0.2166
  724MOL0     H95511   9.744  -0.388   3.215 -3.2499 -1.5662  1.9591
  724MOL0     H95512   9.735  -0.350   3.383  0.6114 -0.1746  0.5073
  724MOL0     H95513   9.634  -0.177   3.160  1.3665 -2.7976 -0.6709
  724MOL0     H95514   9.591  -0.150   3.345  1.1220 -1.2031  1.7376
  724MOL0     H95515   9.469  -0.343   3.348  2.5775  1.5888  2.2920
  724MOL0     H95516   9.485  -0.372   3.176  4.9097  1.0434  0.8191
  724MOL0     H95517   9.364  -0.121   3.305  1.7968 -0.4026  1.0321
  724MOL0     H95518   9.390  -0.152   3.120  1.1235  3.5686  1.5692
  724MOL0     H95519   9.240  -0.324   3.317 -0.0596  1.3371  1.2151
  724MOL0     H95520   9.239  -0.356   3.147  0.3008  0.8116 -0.5400
  724MOL0     H95521   9.174  -0.074   3.009 -0.0815 -2.4538 -0.5461
  724MOL0     H95522   8.827   0.011   2.982  1.5621 -3.4315  1.7841
  724MOL0     H95523   8.973   0.095   2.956 -1.7331 -2.6588 -2.5571
  724MOL0     H95524   8.809   0.142   3.205  1.5088  0.1107 -0.4389
  724MOL0     H95525   8.788   0.239   3.063 -1.1942  1.9273  1.4107
  724MOL0     H95526   9.069   0.252   3.110  0.1440  3.0614  1.1494
  724MOL0     H95527   8.949   0.368   3.157  1.1776  0.8968  1.0405
  724MOL0     H95528   9.061   0.143   3.343 -2.0520 -1.1910  2.0038
  724MOL0     H95529   8.930   0.259   3.374  0.2049 -0.4036  0.9450
  724MOL0     H95530   9.245   0.106   3.257  0.1146 -1.0793 -2.8672
  724MOL0     H95531   9.481   0.081   3.212  0.8892 -0.5229 -0.2738
  724MOL0     H95532   9.853   0.512   2.999  1.2494  2.1796 -0.2095
  724MOL0     H95533  10.090   0.519   2.928 -1.7159  1.4895  1.1894
  724MOL0     H95534  10.481   0.381   3.132 -1.3404 -1.4743  1.7382
  724MOL0     H95535  10.358   0.358   3.247  1.9653  0.6136  0.1428
  724MOL0     H95536  10.256   0.585   3.169 -0.1652 -1.2364 -1.7692
  724MOL0     H95537  10.404   0.613   3.088 -0.1547  1.8930  2.0911
  724MOL0     H95538  10.523   0.575   3.316 -1.9878 -2.2324  2.2046
  724MOL0     H95539  10.369   0.560   3.380  0.9427  1.3215  1.4733
  724MOL0     H95540  10.489   0.804   3.253  0.9099 -4.3902 -1.7680
  724MOL0     H95541  10.315   0.803   3.263  0.2981 -0.1974 -1.0126
  724MOL0     H95542  10.330   0.794   3.511  0.6335  1.8371  1.7031
  724MOL0     H95543  10.425   0.923   3.445 -0.3468 -0.5118  2.9178
  724MOL0     H95544  10.531   0.655   3.558  0.4683 -0.3828 -0.2070
  724MOL0     H95545  10.554   0.826   3.624 -0.0194 -1.0435  0.4668
  724MOL0     H95546  10.700   0.663   3.425 -0.8504 -1.2608  1.5129
  724MOL0     H95547  10.673   0.832   3.387  0.1434 -1.7679 -1.0134
  724MOL0     H95548  10.805   0.741   3.662 -0.9588 -1.1711 -0.7006
  724MOL0     H95549  10.796   0.900   3.592 -0.0184  0.5809 -0.0824
  724MOL0     H95550  10.182   0.211   3.211 -0.6578 -1.1587 -2.8942
  724MOL0     H95551   9.942   0.230   3.300  1.0949  2.5440  0.9241
  724MOL0     H95552   9.522   0.508   3.228 -4.0842  3.3780  1.1670
  724MOL0     H95553   9.307   0.538   3.317 -0.8740 -0.0374 -2.2138
  724MOL0     H95554  10.283  -0.095   3.429  1.0956  0.9413 -5.7242
  724MOL0     H95555  10.490   0.032   3.453 -0.3404  2.4029  1.2729
  724MOL0     H95556  10.880   0.219   3.686  2.5898  3.3812  2.8822
  724MOL0     H95557  11.092   0.316   3.643 -0.1804 -2.3717  0.3621
  724MOL0     H95558  11.324   0.357   3.464 -0.7582 -0.7055  0.6669
  724MOL0     H95559  11.273   0.478   3.584  0.0269  2.3577 -0.9098
  724MOL0     H95560  11.395   0.523   3.313  1.5347 -0.2760  0.2781
  724MOL0     H95561  11.342   0.656   3.411  1.1567  0.7188  0.7928
  724MOL0     H95562  11.567   0.454   3.494  0.9315  0.2544  2.3157
  724MOL0     H95563  11.493   0.574   3.598  0.7041 -0.7423  0.9759
  724MOL0     H95564  11.621   0.639   3.322  2.3684  0.5056  0.1543
  724MOL0     H95565  11.568   0.758   3.432 -0.5462  0.1157 -2.6967
  724MOL0     H95566  11.972   0.641   3.539  0.6674  1.1046  0.5822
  724MOL0     H95567  10.935   0.493   3.279  0.4250 -2.1797 -2.2166
  724MOL0     H95568  10.716   0.412   3.335 -0.1743 -1.1666 -1.5264
  725MOL0     O95569  10.554   2.140   6.969  0.0481 -0.7791  0.3175
  725MOL0     C95570  10.464   2.176   6.895  0.5544  0.8741  0.8338
  725MOL0     O95571  10.418   2.304   6.883 -0.0186 -0.0791 -0.6443
  725MOL0     C95572  10.467   2.388   6.981 -0.7384 -0.5608  0.8002
  725MOL0     C95573  10.603   2.427   6.989 -0.3956  0.9314 -0.4232
  725MOL0     C95574  10.658   2.524   7.064 -0.6495 -0.7888  0.9011
  725MOL0     C95575  10.580   2.590   7.159 -0.5579  0.6744 -0.3919
  725MOL0     O95576  10.637   2.672   7.250  0.5075 -0.3408  0.1433
  725MOL0     C95577  10.779   2.681   7.276 -1.5246 -0.3526 -0.6161
  725MOL0     C95578  10.803   2.799   7.369  0.6514 -0.6155 -1.1514
  725MOL0     C95579  10.721   2.785   7.498  0.5759  0.0634 -0.3190
  725MOL0     C95580  10.755   2.901   7.602  0.0345  0.2342 -0.8890
  725MOL0     C95581  10.873   2.864   7.693 -1.0481 -0.0929 -1.1320
  725MOL0     C95582  10.898   2.964   7.804 -0.0733 -0.6954 -0.4447
  725MOL0     C95583  10.775   3.001   7.886  0.3178  0.1937  0.6756
  725MOL0     C95584  10.801   3.088   8.004  0.5138 -0.3536  1.2515
  725MOL0     N95585  10.821   3.018   8.130 -0.6672  0.3386  0.7174
  725MOL0     C95586  10.712   2.955   8.199 -0.1572 -0.6963  0.1450
  725MOL0     C95587  10.760   2.925   8.321 -0.2439  0.3724 -0.4158
  725MOL0     C95588  10.679   2.871   8.437  0.0103 -0.1855  0.1565
  725MOL0     C95589  10.697   2.950   8.571 -1.0202 -0.1923 -0.2439
  725MOL0     C95590  10.706   3.106   8.560 -0.7098  0.1037 -0.2091
  725MOL0     C95591  10.598   3.170   8.486 -0.1260 -0.4195 -0.1507
  725MOL0     O95592  10.470   3.123   8.524  0.0559  1.1018 -0.2279
  725MOL0     C95593  10.366   3.162   8.448 -0.0376 -0.1832 -0.2651
  725MOL0     C95594  10.329   3.296   8.410  0.0441  0.4316 -0.2061
  725MOL0     C95595  10.202   3.312   8.355 -0.1241  0.3071 -0.1224
  725MOL0     C95596  10.103   3.205   8.328  0.2516  0.0675  0.4534
  725MOL0     C95597   9.966   3.229   8.272 -0.1585 -0.1242 -0.0234
  725MOL0     O95598   9.894   3.123   8.275  0.2976  0.7131  0.6575
  725MOL0     C95599   9.756   3.142   8.256 -0.9553 -0.0435 -0.1387
  725MOL0     C95600   9.699   3.040   8.178 -0.4931  0.2613  0.0422
  725MOL0     C95601   9.558   3.049   8.167 -0.0925 -0.3404  0.4944
  725MOL0     C95602   9.479   3.146   8.222 -0.4950  0.8551 -0.2254
  725MOL0     O95603   9.339   3.131   8.212  0.4261  0.1452 -0.3238
  725MOL0     C95604   9.256   3.195   8.318  0.7850 -0.6628  0.8886
  725MOL0     C95605   9.116   3.138   8.307 -0.6046 -0.2953  0.6131
  725MOL0     C95606   9.050   3.130   8.447 -0.3197 -0.4711  0.6594
  725MOL0     C95607   8.908   3.073   8.454 -0.5917  0.2482 -0.1892
  725MOL0     C95608   8.796   3.162   8.411  0.7943 -0.4133 -0.1291
  725MOL0     C95609   8.668   3.081   8.401  0.9420 -0.4634 -0.9021
  725MOL0     C95610   8.558   3.166   8.344  0.3988 -0.4432  0.8667
  725MOL0     C95611   8.429   3.087   8.308 -0.1272 -0.0371 -0.1614
  725MOL0    Cl95612   8.456   2.995   8.158  0.5045  0.7385  0.1466
  725MOL0     C95613   9.540   3.247   8.300  0.1574  0.2924 -0.8932
  725MOL0     C95614   9.679   3.248   8.309 -0.2226 -0.6913  0.3370
  725MOL0     O95615   9.932   3.341   8.228  0.0364 -0.1334  0.1774
  725MOL0     C95616  10.154   3.077   8.361 -0.1240  1.0724 -0.3274
  725MOL0     C95617  10.275   3.058   8.424 -0.1198 -0.0370 -0.3697
  725MOL0     N95618  10.896   2.956   8.321  0.0087 -0.3802  0.0402
  725MOL0     N95619  10.929   3.007   8.208 -0.5619 -0.0958  0.5074
  725MOL0     C95620  10.446   2.561   7.160 -0.2231  0.6158  1.0105
  725MOL0     C95621  10.387   2.470   7.064 -0.0589 -0.7549  0.5047
  725MOL0     C95622  10.399   2.073   6.811 -0.6604 -0.5921 -1.0093
  725MOL0     C95623  10.314   2.110   6.704  0.9157 -0.5565 -0.4218
  725MOL0     C95624  10.265   2.015   6.627  1.0091  0.6980  0.3611
  725MOL0     C95625  10.289   1.875   6.646  0.6900 -0.2208  0.2948
  725MOL0     O95626  10.246   1.785   6.550 -0.2704  0.4918  0.7383
  725MOL0     C95627  10.171   1.683   6.603 -0.2045 -0.1046  0.5672
  725MOL0     C95628  10.115   1.601   6.491  0.9044 -0.8508  0.6226
  725MOL0     C95629  10.014   1.488   6.545  1.1490 -0.6161  1.2486
  725MOL0     C95630  10.083   1.357   6.573  0.1363  0.2822 -0.3227
  725MOL0     C95631  10.178   1.362   6.686 -0.8034  0.1671 -0.1650
  725MOL0     C95632  10.258   1.351   6.767  0.8764 -1.0131 -0.3033
  725MOL0     C95633  10.375   1.843   6.753  0.2241 -0.0191  0.3401
  725MOL0     C95634  10.421   1.941   6.841 -0.5002 -0.1997  0.1605
  725MOL0     H95635  10.683   2.377   6.935 -1.0749 -2.4049  1.3804
  725MOL0     H95636  10.765   2.531   7.053 -0.5918 -2.5983 -0.0786
  725MOL0     H95637  10.826   2.704   7.180  0.2726 -1.3715 -0.0171
  725MOL0     H95638  10.825   2.588   7.308  3.0110  1.0530 -2.1868
  725MOL0     H95639  10.788   2.888   7.308 -2.9359 -0.1302  0.2006
  725MOL0     H95640  10.906   2.795   7.405  0.6555 -1.1966 -1.2129
  725MOL0     H95641  10.757   2.692   7.544 -0.2782 -0.3695 -0.4970
  725MOL0     H95642  10.614   2.776   7.474  0.6249 -4.5900  0.1854
  725MOL0     H95643  10.773   2.993   7.547  1.2836  1.9156  2.1118
  725MOL0     H95644  10.670   2.916   7.669 -0.1571  0.8193 -1.2646
  725MOL0     H95645  10.966   2.847   7.637  1.0534  0.6000  1.8832
  725MOL0     H95646  10.858   2.772   7.749  0.5670  1.8077  2.7666
  725MOL0     H95647  10.931   3.055   7.752 -0.4271  0.4250  1.2081
  725MOL0     H95648  10.984   2.929   7.861 -0.0425 -2.8643 -1.7382
  725MOL0     H95649  10.702   3.049   7.820 -0.4615 -1.7870  0.0359
  725MOL0     H95650  10.726   2.911   7.923 -2.3589  2.0490  1.9897
  725MOL0     H95651  10.713   3.153   8.008 -0.5900 -1.3471 -2.4576
  725MOL0     H95652  10.889   3.152   7.990  2.6844 -3.0969  1.4775
  725MOL0     H95653  10.611   2.949   8.158 -0.6174  1.4582  0.8360
  725MOL0     H95654  10.705   2.764   8.441  1.5147  0.0943 -1.0642
  725MOL0     H95655  10.576   2.885   8.405 -0.6515 -0.8733  1.8339
  725MOL0     H95656  10.794   2.919   8.613  1.3304  3.1305 -2.7016
  725MOL0     H95657  10.619   2.914   8.640 -1.7351  1.1879 -0.3010
  725MOL0     H95658  10.720   3.157   8.656  1.9064  2.9643 -1.8885
  725MOL0     H95659  10.799   3.142   8.514  0.9854 -3.1182  0.4637
  725MOL0     H95660  10.603   3.139   8.381 -0.6248  0.2477 -0.3722
  725MOL0     H95661  10.604   3.279   8.477  1.1941 -0.4460  0.1070
  725MOL0     H95662  10.398   3.377   8.434 -0.5255  0.8663 -0.0093
  725MOL0     H95663  10.178   3.412   8.321 -2.3643 -0.4897 -1.0811
  725MOL0     H95664   9.751   2.950   8.146 -0.8140  0.1722 -0.2434
  725MOL0     H95665   9.510   2.962   8.123  1.5318 -1.5515  0.9863
  725MOL0     H95666   9.248   3.304   8.311  1.7571 -0.5872  0.7595
  725MOL0     H95667   9.297   3.171   8.417  4.0816  0.9193  0.0642
  725MOL0     H95668   9.138   3.046   8.252 -0.4513 -0.0657  0.2866
  725MOL0     H95669   9.058   3.202   8.240  0.9346 -0.1368 -0.6422
  725MOL0     H95670   9.051   3.223   8.504  1.0364 -2.6237  4.5329
  725MOL0     H95671   9.116   3.071   8.511  0.4566  0.7235  0.9967
  725MOL0     H95672   8.915   2.985   8.389  0.1646  1.1897 -1.4257
  725MOL0     H95673   8.886   3.037   8.554 -0.4152  1.4391  0.2982
  725MOL0     H95674   8.821   3.195   8.310  4.2766  2.9337  1.5565
  725MOL0     H95675   8.781   3.247   8.478 -2.1354  0.2513 -1.4779
  725MOL0     H95676   8.634   3.047   8.499 -2.1944  2.8222 -0.6309
  725MOL0     H95677   8.687   2.994   8.337 -0.5299 -0.3860 -1.4876
  725MOL0     H95678   8.532   3.250   8.408  1.4238 -1.2003  2.3302
  725MOL0     H95679   8.597   3.200   8.248 -2.1638  0.6993  0.1393
  725MOL0     H95680   8.334   3.141   8.310 -0.2242 -0.2140  0.5184
  725MOL0     H95681   8.411   3.014   8.389 -1.2941  2.0569  1.5705
  725MOL0     H95682   9.477   3.331   8.328  1.3787  0.4149  1.8284
  725MOL0     H95683   9.714   3.335   8.364  0.6222 -0.6910 -0.1917
  725MOL0     H95684  10.094   2.988   8.345  2.4730 -0.9388  0.3829
  725MOL0     H95685  10.308   2.958   8.452  1.8147  0.6123 -0.1831
  725MOL0     H95686  10.384   2.616   7.231  1.1677  4.2978 -0.3734
  725MOL0     H95687  10.282   2.449   7.051  0.0740 -0.4639 -1.3795
  725MOL0     H95688  10.288   2.213   6.679 -0.4713 -0.8743 -0.3459
  725MOL0     H95689  10.192   2.049   6.554  1.6618 -0.0173 -0.6534
  725MOL0     H95690  10.088   1.728   6.657 -1.5552 -2.5395  0.6258
  725MOL0     H95691  10.230   1.626   6.676 -0.7655  1.0563  1.9680
  725MOL0     H95692  10.065   1.668   6.421  0.1213 -3.3219 -1.3030
  725MOL0     H95693  10.194   1.549   6.437  2.2043  2.5758 -1.1122
  725MOL0     H95694   9.942   1.468   6.465  0.0207  2.0221  1.4957
  725MOL0     H95695   9.972   1.527   6.638  2.5754  0.7066  1.3720
  725MOL0     H95696   9.998   1.293   6.601  0.2922 -0.4914 -1.5389
  725MOL0     H95697  10.118   1.312   6.479  1.1369  2.4338 -1.0530
  725MOL0     H95698  10.340   1.323   6.831  0.3669 -0.0529  0.8202
  725MOL0     H95699  10.389   1.737   6.774  0.1618  0.0758  0.8886
  725MOL0     H95700  10.481   1.911   6.926 -0.6511  2.1196  1.1634
  726MOL0     O95701   9.463   7.734  10.357 -0.0646  0.1548 -0.7007
  726MOL0     C95702   9.420   7.775  10.249 -0.1860 -0.3738  0.4105
  726MOL0     O95703   9.308   7.731  10.194  0.1973 -0.5989 -0.6588
  726MOL0     C95704   9.206   7.692  10.275 -1.5088 -0.0585 -0.0374
  726MOL0     C95705   9.163   7.559  10.287  0.3591  0.2285 -1.3680
  726MOL0     C95706   9.053   7.518  10.358 -0.2076  0.1934  0.2046
  726MOL0     C95707   8.983   7.618  10.424  0.5703 -0.0187 -0.8329
  726MOL0     O95708   8.881   7.578  10.501  0.3719  0.2379  0.5666
  726MOL0     C95709   8.753   7.651  10.498 -0.2221 -1.3142  0.2957
  726MOL0     C95710   8.642   7.556  10.516 -0.0750 -0.4321 -0.4681
  726MOL0     C95711   8.639   7.466  10.387  2.0491 -0.2683 -0.1641
  726MOL0     C95712   8.555   7.350  10.417  0.6696  0.0743  0.4214
  726MOL0     C95713   8.584   7.241  10.314  1.1487  0.0047 -0.3162
  726MOL0     C95714   8.554   7.275  10.169 -0.3836 -0.2838 -0.1036
  726MOL0     C95715   8.534   7.147  10.079  0.1518 -0.0699 -0.3741
  726MOL0     C95716   8.537   7.179   9.940 -0.5820  0.2820  0.4918
  726MOL0     N95717   8.532   7.047   9.871  0.0475  0.4976  0.1563
  726MOL0     C95718   8.638   6.962   9.844 -0.3806 -0.7734 -0.4437
  726MOL0     C95719   8.594   6.887   9.743  0.0768 -1.0742 -0.3879
  726MOL0     C95720   8.674   6.778   9.679 -0.9227  0.3382  1.1046
  726MOL0     C95721   8.754   6.835   9.558  0.1447  0.8920  0.1362
  726MOL0     C95722   8.679   6.920   9.459 -0.3058 -0.0330 -0.5920
  726MOL0     C95723   8.760   6.951   9.334  0.4444 -0.5920 -0.4602
  726MOL0     O95724   8.886   7.019   9.363 -0.3475  0.2951 -0.6541
  726MOL0     C95725   8.961   7.064   9.260 -0.1651 -0.6382  0.2952
  726MOL0     C95726   8.930   7.052   9.125  0.6432 -0.1615  0.5419
  726MOL0     C95727   9.013   7.091   9.024 -0.9404 -0.4381  0.3391
  726MOL0     C95728   9.132   7.154   9.059 -1.9287 -0.5895 -0.5725
  726MOL0     C95729   9.235   7.194   8.954  0.1853 -0.0295 -0.2298
  726MOL0     O95730   9.364   7.199   8.998  0.0450 -0.0731 -0.3702
  726MOL0     C95731   9.461   7.214   8.903  0.7735 -0.3080 -0.5461
  726MOL0     C95732   9.514   7.340   8.872 -0.1268  0.3107 -0.3692
  726MOL0     C95733   9.609   7.356   8.771  0.0371  0.2957 -0.8624
  726MOL0     C95734   9.659   7.245   8.706 -0.0376  0.4448  0.4725
  726MOL0     O95735   9.751   7.265   8.613  0.3857 -0.2475  0.4447
  726MOL0     C95736   9.847   7.167   8.590 -0.2637 -0.3276 -0.5194
  726MOL0     C95737   9.954   7.223   8.499  0.0152 -0.1678 -0.0519
  726MOL0     C95738  10.041   7.322   8.576  0.0600 -1.0624  0.4745
  726MOL0     C95739  10.140   7.394   8.481 -0.2750 -1.3097 -0.7559
  726MOL0     C95740  10.077   7.512   8.410 -0.4930 -0.0638  0.1168
  726MOL0     C95741  10.172   7.618   8.342 -0.0489 -1.3089  0.3348
  726MOL0     C95742  10.234   7.727   8.436  0.3095  0.1969 -0.1284
  726MOL0     C95743  10.328   7.820   8.370  0.1899 -0.4319  0.8698
  726MOL0    Cl95744  10.497   7.762   8.346 -0.5140 -0.0302 -0.1858
  726MOL0     C95745   9.608   7.119   8.737 -0.0427 -0.0873  0.4977
  726MOL0     C95746   9.509   7.105   8.827 -0.7272 -0.1711 -0.4670
  726MOL0     O95747   9.193   7.206   8.842 -0.6052 -0.0194  0.0068
  726MOL0     C95748   9.167   7.176   9.196 -0.2644 -0.4305 -0.2928
  726MOL0     C95749   9.086   7.119   9.297 -0.1235 -0.6981  1.1647
  726MOL0     N95750   8.467   6.927   9.705 -0.2010  0.2573  0.0303
  726MOL0     N95751   8.433   7.020   9.784 -0.5961 -0.3875 -1.0942
  726MOL0     C95752   9.021   7.755  10.419  0.7407  0.2266 -0.9438
  726MOL0     C95753   9.130   7.791  10.340  0.2046  0.4417  0.1607
  726MOL0     C95754   9.504   7.859  10.152 -1.1468  0.0238 -0.6056
  726MOL0     C95755   9.446   7.909  10.032  0.5344  0.5811 -0.4971
  726MOL0     C95756   9.524   7.990   9.944  0.1886  0.5552 -1.0956
  726MOL0     C95757   9.653   8.014   9.982 -0.0278  0.4583  0.2796
  726MOL0     O95758   9.726   8.071   9.878 -0.0692 -0.5348 -0.2629
  726MOL0     C95759   9.825   7.981   9.830 -0.1793  1.6401  0.1364
  726MOL0     C95760   9.927   8.056   9.737  0.0785 -0.1930  0.3031
  726MOL0     C95761  10.039   7.958   9.681 -0.6485 -0.4050  0.3150
  726MOL0     C95762  10.131   8.030   9.573 -0.7986 -0.2240 -0.1805
  726MOL0     C95763  10.187   8.148   9.638 -0.1609 -0.1863 -0.5615
  726MOL0     C95764  10.224   8.242   9.697  0.6237  0.1016  0.1055
  726MOL0     C95765   9.705   7.983  10.108  0.1849  1.2419  0.2023
  726MOL0     C95766   9.628   7.902  10.193 -0.2378 -0.7820  0.3810
  726MOL0     H95767   9.223   7.482  10.239  0.4483 -0.1768 -0.6196
  726MOL0     H95768   9.039   7.411  10.367  0.3993  0.1445  0.6916
  726MOL0     H95769   8.736   7.697  10.400  0.6069 -3.1930 -0.7755
  726MOL0     H95770   8.742   7.732  10.571 -1.1548 -1.9534  0.8866
  726MOL0     H95771   8.546   7.604  10.537 -1.0023 -1.4572 -2.1761
  726MOL0     H95772   8.665   7.489  10.599  0.7284 -1.6994 -1.6822
  726MOL0     H95773   8.742   7.436  10.363  1.9260  0.2640 -1.3980
  726MOL0     H95774   8.598   7.524  10.304 -0.7339 -1.7271  0.0559
  726MOL0     H95775   8.585   7.310  10.514  2.3862 -2.1674 -0.9301
  726MOL0     H95776   8.450   7.381  10.412  1.0395  1.2045 -1.1148
  726MOL0     H95777   8.515   7.160  10.337  0.5032  0.2903 -1.1746
  726MOL0     H95778   8.689   7.214  10.326  1.1724 -0.4936 -1.4675
  726MOL0     H95779   8.627   7.341  10.122 -1.0716 -0.0648 -0.8931
  726MOL0     H95780   8.455   7.323  10.168  0.6563  2.0286  0.7537
  726MOL0     H95781   8.613   7.075  10.102  0.7672  1.0400  1.0946
  726MOL0     H95782   8.442   7.092  10.099  0.3134 -0.7791 -1.4691
  726MOL0     H95783   8.628   7.234   9.916 -1.5919  1.5140 -0.6831
  726MOL0     H95784   8.448   7.234   9.910  1.4986  1.9038 -3.4217
  726MOL0     H95785   8.737   6.963   9.888 -1.0289 -1.4046  1.1140
  726MOL0     H95786   8.606   6.698   9.647 -2.6607  1.2730  2.2453
  726MOL0     H95787   8.747   6.736   9.748 -0.0588 -0.8205 -0.4396
  726MOL0     H95788   8.785   6.740   9.513  0.0924  0.2577  1.3744
  726MOL0     H95789   8.838   6.895   9.593 -0.0133  0.7510  0.7730
  726MOL0     H95790   8.583   6.879   9.426  0.3634 -0.9426 -1.4428
  726MOL0     H95791   8.655   7.016   9.508  1.4341  0.1762 -0.0815
  726MOL0     H95792   8.702   7.018   9.270  0.7396  0.4114  0.2971
  726MOL0     H95793   8.772   6.861   9.274 -2.0984 -0.0653 -1.9295
  726MOL0     H95794   8.836   6.999   9.110  0.7280 -0.4549  1.0336
  726MOL0     H95795   8.981   7.092   8.921 -0.1150  1.2401  0.0739
  726MOL0     H95796   9.469   7.426   8.920 -0.9919 -0.2655 -0.1328
  726MOL0     H95797   9.647   7.455   8.749 -0.9576  1.1857  1.1745
  726MOL0     H95798   9.796   7.084   8.541  1.7282 -2.3128  0.5658
  726MOL0     H95799   9.891   7.123   8.680 -0.6477 -0.8502 -0.5827
  726MOL0     H95800   9.903   7.261   8.410  1.1806 -1.1856 -1.1756
  726MOL0     H95801  10.014   7.135   8.475 -0.6572 -1.5355  2.7822
  726MOL0     H95802  10.099   7.272   8.654 -1.2718 -2.2966  0.7211
  726MOL0     H95803   9.979   7.397   8.626 -1.2261 -0.6224 -1.6268
  726MOL0     H95804  10.210   7.441   8.550  1.6179 -3.5032 -1.0758
  726MOL0     H95805  10.194   7.322   8.419  1.6370  0.3029 -1.0961
  726MOL0     H95806  10.021   7.566   8.487  1.3194  0.8673  0.8509
  726MOL0     H95807  10.012   7.476   8.330  0.5389 -0.4195 -0.5864
  726MOL0     H95808  10.128   7.663   8.252  2.1418  1.2104  0.3728
  726MOL0     H95809  10.258   7.566   8.298  0.7335  1.8917 -2.3794
  726MOL0     H95810  10.150   7.784   8.477  1.0127  0.0546  1.5664
  726MOL0     H95811  10.283   7.676   8.520 -2.3659 -1.5173  0.5299
  726MOL0     H95812  10.333   7.919   8.416  1.3232  0.1676 -0.4517
  726MOL0     H95813  10.285   7.836   8.271 -0.2170  0.5035  1.1886
  726MOL0     H95814   9.642   7.032   8.683  4.1431  1.4397  0.2938
  726MOL0     H95815   9.473   7.003   8.835  0.8742 -0.8685 -1.6323
  726MOL0     H95816   9.258   7.221   9.234 -0.7595 -0.7082  1.3334
  726MOL0     H95817   9.112   7.115   9.402 -2.7904 -2.0013  1.8725
  726MOL0     H95818   8.960   7.826  10.474  0.0629  0.6534 -2.2122
  726MOL0     H95819   9.162   7.894  10.322  0.1795  0.2455 -1.1148
  726MOL0     H95820   9.342   7.893  10.007  1.1461  0.2584 -3.1673
  726MOL0     H95821   9.491   8.030   9.849 -0.0516 -0.1662 -1.3249
  726MOL0     H95822   9.773   7.911   9.764  0.2709  1.4641 -0.0388
  726MOL0     H95823   9.886   7.930   9.906 -2.2293 -2.3446 -0.6006
  726MOL0     H95824   9.878   8.110   9.656  2.6085 -1.0370 -1.9636
  726MOL0     H95825   9.979   8.126   9.804 -1.5529  3.1040 -1.6720
  726MOL0     H95826   9.990   7.877   9.627 -0.3643 -1.3881  1.4978
  726MOL0     H95827  10.103   7.917   9.760  0.5797  2.4539  0.9509
  726MOL0     H95828  10.212   7.966   9.537  0.2463 -0.1770  1.9490
  726MOL0     H95829  10.064   8.058   9.491 -1.6734 -1.8244 -0.0626
  726MOL0     H95830  10.238   8.337   9.745  1.3646  0.4983 -0.8527
  726MOL0     H95831   9.804   8.002  10.149  0.2903 -0.1914  0.6824
  726MOL0     H95832   9.672   7.874  10.288 -1.2644 -0.0144  1.1082
  727MOL0     O95833   6.135   5.221   0.821  0.5032  0.1101 -0.2001
  727MOL0     C95834   6.094   5.189   0.934  0.3232  0.1758 -0.1851
  727MOL0     O95835   6.152   5.094   1.017  0.1404  0.8522 -0.8069
  727MOL0     C95836   6.273   5.032   0.998 -0.9409 -0.3851  0.3889
  727MOL0     C95837   6.375   5.064   0.903  0.5080  0.4846  0.1136
  727MOL0     C95838   6.501   5.019   0.927 -0.3148  0.2980 -0.6753
  727MOL0     C95839   6.534   4.944   1.038  0.2453  0.0899 -0.7447
  727MOL0     O95840   6.664   4.916   1.081 -0.4075 -0.2652  0.6967
  727MOL0     C95841   6.759   4.868   0.987 -0.2683  0.2775  0.0042
  727MOL0     C95842   6.878   4.838   1.065 -0.4122 -0.1049 -0.1681
  727MOL0     C95843   6.964   4.744   0.996  0.8175 -0.4100 -0.3838
  727MOL0     C95844   7.096   4.741   1.077  0.4556  0.0071  0.1644
  727MOL0     C95845   7.205   4.638   1.038 -0.0466  0.7331  0.0613
  727MOL0     C95846   7.292   4.609   1.157  0.1246 -0.4088 -0.9306
  727MOL0     C95847   7.360   4.463   1.154 -0.1828  0.2745  0.3140
  727MOL0     C95848   7.427   4.433   1.286  0.8305  0.0079 -0.4162
  727MOL0     N95849   7.463   4.292   1.298  0.2950  0.8448 -0.4983
  727MOL0     C95850   7.554   4.225   1.214 -0.3039  0.3994  0.4701
  727MOL0     C95851   7.553   4.096   1.253  0.0831  0.0783 -0.4784
  727MOL0     C95852   7.643   3.988   1.212  0.5980 -0.1090 -0.1482
  727MOL0     C95853   7.637   3.945   1.064  0.6372 -0.5392 -0.0136
  727MOL0     C95854   7.503   3.881   1.042 -0.0812 -0.0057 -0.7083
  727MOL0     C95855   7.377   3.964   1.032  0.3628  0.0727  0.0041
  727MOL0     O95856   7.403   4.086   0.968 -0.7693  1.4272  0.3430
  727MOL0     C95857   7.292   4.158   0.932 -0.8259  0.4092 -0.1848
  727MOL0     C95858   7.157   4.115   0.952  0.7977 -0.7083 -0.7646
  727MOL0     C95859   7.051   4.191   0.901 -0.0975  0.5557 -0.0725
  727MOL0     C95860   7.078   4.316   0.841 -0.1228  0.1389  0.1806
  727MOL0     C95861   6.973   4.404   0.780  0.6013 -0.1600  0.3878
  727MOL0     O95862   6.841   4.368   0.802 -0.0038 -0.4666  0.2246
  727MOL0     C95863   6.733   4.442   0.765  0.6774  0.1756  0.2005
  727MOL0     C95864   6.690   4.438   0.631 -0.4073  0.0602  1.1542
  727MOL0     C95865   6.574   4.504   0.590  0.8801 -0.1862  0.0758
  727MOL0     C95866   6.505   4.577   0.682  0.5046 -0.0916 -1.2848
  727MOL0     O95867   6.383   4.612   0.636 -0.7913 -0.8415 -0.2861
  727MOL0     C95868   6.289   4.664   0.718  0.2327 -0.1619  0.7381
  727MOL0     C95869   6.162   4.723   0.640  0.1875 -0.2662 -0.3909
  727MOL0     C95870   6.052   4.625   0.601 -0.8434  0.1372 -0.2899
  727MOL0     C95871   5.954   4.694   0.506 -0.0825 -0.2667  0.2869
  727MOL0     C95872   5.837   4.606   0.471 -0.8154  0.5200 -0.2523
  727MOL0     C95873   5.752   4.673   0.372 -0.1101 -0.1168 -0.5574
  727MOL0     C95874   5.617   4.596   0.360  0.3428 -0.2420  0.6510
  727MOL0     C95875   5.570   4.583   0.213  0.3183  0.5867  0.6442
  727MOL0    Cl95876   5.399   4.534   0.226  0.2482  0.1976  0.4340
  727MOL0     C95877   6.549   4.590   0.814  0.0307 -0.5867 -0.5321
  727MOL0     C95878   6.662   4.521   0.860 -0.6804 -0.2436  0.5312
  727MOL0     O95879   7.013   4.501   0.714  0.1870 -0.3852  0.6103
  727MOL0     C95880   7.212   4.363   0.834  0.6086  0.0304  0.0505
  727MOL0     C95881   7.317   4.283   0.876 -0.3303  0.3978  0.1153
  727MOL0     N95882   7.468   4.089   1.364  0.4352  0.0927 -0.5553
  727MOL0     N95883   7.415   4.202   1.389 -0.3758  0.6701  0.1027
  727MOL0     C95884   6.432   4.919   1.135  0.2851 -0.4064  0.1940
  727MOL0     C95885   6.300   4.967   1.114 -0.1717 -0.4431  0.2482
  727MOL0     C95886   5.979   5.259   0.985 -0.0284 -0.7542 -0.7100
  727MOL0     C95887   5.917   5.364   0.916 -0.2854 -0.3852 -0.3350
  727MOL0     C95888   5.812   5.436   0.975  0.4654  0.4242 -0.5282
  727MOL0     C95889   5.764   5.410   1.106  0.0751 -0.4816  0.0336
  727MOL0     O95890   5.655   5.479   1.154 -0.3003  0.8281 -0.3413
  727MOL0     C95891   5.638   5.485   1.303 -0.4649 -0.3481  0.2058
  727MOL0     C95892   5.547   5.599   1.342 -0.6685  0.6125  0.9256
  727MOL0     C95893   5.614   5.708   1.425 -0.5309 -0.1241  1.1716
  727MOL0     C95894   5.521   5.816   1.473 -0.5481 -0.1930 -0.5593
  727MOL0     C95895   5.440   5.764   1.593 -0.1265  0.1469  0.6099
  727MOL0     C95896   5.377   5.709   1.674  0.7981 -0.1382 -0.4506
  727MOL0     C95897   5.827   5.305   1.171 -0.8168  0.3487 -0.4148
  727MOL0     C95898   5.934   5.231   1.116  0.1813 -0.2779 -0.0960
  727MOL0     H95899   6.349   5.125   0.816 -0.6484 -3.3566 -2.5169
  727MOL0     H95900   6.577   5.052   0.857  0.2747 -2.2241 -1.2899
  727MOL0     H95901   6.786   4.939   0.908 -2.1371  0.9833 -0.0456
  727MOL0     H95902   6.728   4.772   0.944  0.3998 -0.1069  0.3763
  727MOL0     H95903   6.848   4.782   1.154 -0.1331 -0.8871 -0.5523
  727MOL0     H95904   6.936   4.926   1.095 -0.2942 -0.8180  1.8599
  727MOL0     H95905   6.983   4.773   0.892 -1.4309 -3.2229 -1.7057
  727MOL0     H95906   6.914   4.647   0.994  1.5567 -0.9587  2.4773
  727MOL0     H95907   7.143   4.840   1.079  1.5588 -0.4767  2.3351
  727MOL0     H95908   7.067   4.724   1.182 -0.8739  1.6582  0.1111
  727MOL0     H95909   7.278   4.669   0.962  1.2440 -0.4070  0.7941
  727MOL0     H95910   7.152   4.546   1.013 -0.2357  0.5223  1.2102
  727MOL0     H95911   7.225   4.612   1.243  0.1824  1.2332 -0.9025
  727MOL0     H95912   7.363   4.691   1.174  0.0072 -0.6572  1.0694
  727MOL0     H95913   7.284   4.387   1.132 -0.2984  0.8262 -1.3653
  727MOL0     H95914   7.436   4.453   1.076  0.3413  0.5096  0.7940
  727MOL0     H95915   7.360   4.466   1.366 -2.7905 -0.6407 -2.9607
  727MOL0     H95916   7.514   4.500   1.286  0.1266  1.0061  1.4717
  727MOL0     H95917   7.603   4.279   1.133 -0.6038  1.8859  1.2348
  727MOL0     H95918   7.626   3.900   1.274 -2.0178  0.2083 -0.2940
  727MOL0     H95919   7.745   4.017   1.238  0.0480  1.8336  0.0339
  727MOL0     H95920   7.720   3.878   1.039  0.1996 -1.7462  1.6213
  727MOL0     H95921   7.645   4.028   0.993  3.4964 -0.0029  0.8065
  727MOL0     H95922   7.513   3.825   0.948  3.1891 -2.9793  1.1669
  727MOL0     H95923   7.491   3.810   1.125 -2.0854  1.1223  0.0203
  727MOL0     H95924   7.348   3.980   1.136  1.4372  0.6051  0.2294
  727MOL0     H95925   7.297   3.904   0.988  0.7724 -0.9444  0.6135
  727MOL0     H95926   7.132   4.025   1.007 -0.1059 -0.1208 -0.1976
  727MOL0     H95927   6.950   4.152   0.911  0.5362 -1.1612  0.0436
  727MOL0     H95928   6.757   4.384   0.564  1.5555  1.0359  2.2170
  727MOL0     H95929   6.540   4.494   0.488 -0.7402  1.8696  0.3455
  727MOL0     H95930   6.320   4.745   0.784 -0.7640  1.2142 -0.4035
  727MOL0     H95931   6.255   4.582   0.782 -0.8035 -0.4697 -0.1514
  727MOL0     H95932   6.200   4.776   0.552  0.1647 -1.8327 -1.3976
  727MOL0     H95933   6.115   4.796   0.706  0.2590  0.7196 -1.3904
  727MOL0     H95934   6.009   4.575   0.687  1.5011 -0.6435  0.5195
  727MOL0     H95935   6.098   4.541   0.548 -3.8963  1.0396 -4.9561
  727MOL0     H95936   5.914   4.786   0.549  0.4333 -0.2747  0.8053
  727MOL0     H95937   6.006   4.729   0.417 -5.6170  0.7440 -2.9799
  727MOL0     H95938   5.786   4.588   0.566  0.4099 -1.7797  0.0429
  727MOL0     H95939   5.853   4.506   0.428 -2.4300  0.9775 -2.0447
  727MOL0     H95940   5.805   4.677   0.276  0.1762 -1.0687 -0.4523
  727MOL0     H95941   5.737   4.772   0.415  1.6932  0.5003 -1.2386
  727MOL0     H95942   5.619   4.499   0.411 -2.2477  0.5420  2.4788
  727MOL0     H95943   5.545   4.662   0.409 -0.2489  1.5282 -2.3713
  727MOL0     H95944   5.620   4.498   0.165 -0.8021  0.8252 -1.0261
  727MOL0     H95945   5.584   4.667   0.144 -2.1681  2.2346  1.9992
  727MOL0     H95946   6.491   4.650   0.883  0.6643 -0.2540 -0.2762
  727MOL0     H95947   6.702   4.518   0.960  2.1324 -0.1777 -0.5021
  727MOL0     H95948   7.225   4.454   0.777 -1.9441  1.9724  2.3277
  727MOL0     H95949   7.419   4.318   0.862  0.3124 -0.9089  1.2816
  727MOL0     H95950   6.466   4.877   1.229 -1.2458 -0.7620  0.6168
  727MOL0     H95951   6.227   4.966   1.194 -1.7708 -0.7805 -1.1586
  727MOL0     H95952   5.955   5.382   0.816  1.2642  0.8203  0.4323
  727MOL0     H95953   5.757   5.506   0.912  3.7076  1.7454 -2.1019
  727MOL0     H95954   5.728   5.485   1.365 -1.6676 -1.7061  2.0737
  727MOL0     H95955   5.598   5.387   1.330  2.7742 -1.9918 -0.4175
  727MOL0     H95956   5.502   5.636   1.249 -1.3004  0.6728  1.2471
  727MOL0     H95957   5.467   5.551   1.398 -0.8386  1.2175  1.2178
  727MOL0     H95958   5.692   5.749   1.360  0.8166 -2.0300  1.5213
  727MOL0     H95959   5.660   5.662   1.513  1.7153  1.4926  0.9175
  727MOL0     H95960   5.573   5.908   1.502  0.5714 -0.6880 -0.9215
  727MOL0     H95961   5.453   5.832   1.389 -3.1142 -1.1402  1.2056
  727MOL0     H95962   5.314   5.664   1.748  2.2377 -0.4023  0.6720
  727MOL0     H95963   5.777   5.272   1.261  0.6911 -2.8921 -0.6102
  727MOL0     H95964   5.981   5.159   1.183 -1.3282 -1.5209 -0.3247
  728MOL0     O95965   4.886   8.445  10.550 -0.4987  0.1584 -0.2143
  728MOL0     C95966   4.951   8.548  10.552 -0.0329 -0.2064 -0.6662
  728MOL0     O95967   4.899   8.669  10.591  0.0251  0.0191 -0.0072
  728MOL0     C95968   4.764   8.701  10.607 -0.0721 -0.0438  0.0451
  728MOL0     C95969   4.656   8.630  10.557  0.6305 -0.2611  0.2959
  728MOL0     C95970   4.525   8.648  10.589 -0.0831  1.0423 -0.6212
  728MOL0     C95971   4.493   8.754  10.672  0.8321  0.4442  0.3917
  728MOL0     O95972   4.358   8.758  10.688 -0.0603 -0.2685 -0.4693
  728MOL0     C95973   4.293   8.866  10.748 -1.4109 -0.5205 -0.1851
  728MOL0     C95974   4.150   8.882  10.706 -1.1073  0.0216 -0.1092
  728MOL0     C95975   4.075   8.752  10.732  0.7414  0.3126  1.0243
  728MOL0     C95976   3.936   8.760  10.670  0.4802 -0.1377  0.1748
  728MOL0     C95977   3.861   8.618  10.671  0.0423 -1.0647 -0.7446
  728MOL0     C95978   3.737   8.631  10.576 -0.3661  1.0582  0.1251
  728MOL0     C95979   3.670   8.492  10.546 -0.1452  0.3538  0.3760
  728MOL0     C95980   3.522   8.509  10.498 -0.6690 -0.4739 -0.4528
  728MOL0     N95981   3.524   8.525  10.355  0.6054 -0.9902 -0.0659
  728MOL0     C95982   3.476   8.643  10.288 -0.1042  0.3730 -0.5909
  728MOL0     C95983   3.486   8.611  10.161 -0.3049 -0.4734 -0.8627
  728MOL0     C95984   3.426   8.707  10.059  0.0631  0.1420 -0.2563
  728MOL0     C95985   3.274   8.713  10.075  0.2961 -0.6487 -0.5723
  728MOL0     C95986   3.200   8.578  10.035  0.1734 -0.2313  0.0452
  728MOL0     C95987   3.047   8.609  10.022  0.3342 -0.7335 -0.6433
  728MOL0     O95988   2.997   8.636  10.154  0.4519 -0.0713 -0.8108
  728MOL0     C95989   2.863   8.663  10.153 -0.3677  0.2545  0.0995
  728MOL0     C95990   2.813   8.784  10.094  0.5015  0.2969 -0.4671
  728MOL0     C95991   2.679   8.815  10.087  0.6223  0.3250  0.4924
  728MOL0     C95992   2.591   8.723  10.141  0.6277 -0.0898 -0.5056
  728MOL0     C95993   2.445   8.753  10.111  0.0726  0.0947 -0.3242
  728MOL0     O95994   2.408   8.864  10.047  0.1075  0.7516 -0.1737
  728MOL0     C95995   2.275   8.874  10.005 -0.3230 -0.1438  0.3315
  728MOL0     C95996   2.256   8.902   9.876  0.0588  0.6682  0.2083
  728MOL0     C95997   2.131   8.895   9.825 -0.0629 -0.0556 -0.0099
  728MOL0     C95998   2.018   8.866   9.906 -0.3667  0.1450 -0.8335
  728MOL0     O95999   1.901   8.824   9.861 -0.5902 -0.2109  0.3535
  728MOL0     C96000   1.843   8.899   9.755 -0.3200  0.3876  0.5387
  728MOL0     C96001   1.803   9.040   9.802 -0.3869 -0.2160  0.1398
  728MOL0     C96002   1.647   9.046   9.841  0.0090  0.8445  0.2920
  728MOL0     C96003   1.559   9.064   9.713 -0.0260  0.2898  0.1426
  728MOL0     C96004   1.407   9.057   9.743  0.0080  0.3378 -0.8032
  728MOL0     C96005   1.307   9.064   9.629  0.0796 -0.0793 -0.6137
  728MOL0     C96006   1.159   9.037   9.677 -0.3599  0.3247 -0.7852
  728MOL0     C96007   1.054   9.059   9.567  0.1510 -0.1825  0.5646
  728MOL0    Cl96008   0.889   9.038   9.633 -0.1318 -0.0272  0.0914
  728MOL0     C96009   2.038   8.854  10.047 -0.3997  0.5533 -0.0487
  728MOL0     C96010   2.166   8.864  10.098 -0.0721  0.4873  0.8948
  728MOL0     O96011   2.366   8.662  10.152 -0.0713 -0.0161 -0.0982
  728MOL0     C96012   2.643   8.607  10.210  0.2874 -0.0554 -0.1736
  728MOL0     C96013   2.779   8.568  10.209 -0.2239  0.1780  0.5900
  728MOL0     N96014   3.509   8.476  10.147 -0.0955  0.5871 -0.3481
  728MOL0     N96015   3.536   8.422  10.261  0.0845 -0.2045 -0.0529
  728MOL0     C96016   4.591   8.837  10.726  0.3376  0.0281 -0.0018
  728MOL0     C96017   4.730   8.809  10.704 -0.2456 -0.5193 -0.3002
  728MOL0     C96018   5.091   8.534  10.526  0.0757  0.3966 -0.3721
  728MOL0     C96019   5.130   8.432  10.434 -1.5746 -0.0783 -0.6722
  728MOL0     C96020   5.264   8.424  10.398 -0.4100  0.2369  0.4698
  728MOL0     C96021   5.361   8.496  10.466 -0.3093 -0.3078  0.0812
  728MOL0     O96022   5.498   8.488  10.443  0.3889 -0.0718  0.0275
  728MOL0     C96023   5.547   8.374  10.368  0.0370 -0.6165 -0.0106
  728MOL0     C96024   5.691   8.347  10.390 -0.6492 -0.1300 -0.4567
  728MOL0     C96025   5.755   8.400  10.528  0.4049  0.4315 -0.1877
  728MOL0     C96026   5.861   8.300  10.579  0.5014 -0.7790  1.5444
  728MOL0     C96027   5.885   8.317  10.723 -0.3879 -0.0782  0.1456
  728MOL0     C96028   5.895   8.331  10.847  0.5622  0.1070  0.2622
  728MOL0     C96029   5.319   8.604  10.553  0.0525  0.5362  0.5971
  728MOL0     C96030   5.183   8.618  10.581  0.1385 -0.1119  0.3255
  728MOL0     H96031   4.665   8.545  10.490  3.6138  0.7273 -0.7340
  728MOL0     H96032   4.451   8.581  10.547  1.6815 -0.0409 -2.1542
  728MOL0     H96033   4.340   8.961  10.721 -4.1150  0.3325 -2.3099
  728MOL0     H96034   4.308   8.864  10.857  1.1585 -1.5122 -0.4929
  728MOL0     H96035   4.126   8.912  10.603  1.5842 -2.4745 -1.6425
  728MOL0     H96036   4.110   8.954  10.777  0.0327 -0.1328  0.7036
  728MOL0     H96037   4.068   8.726  10.839  1.5939  2.6008  1.6962
  728MOL0     H96038   4.123   8.668  10.681 -0.6257  0.7610 -1.0770
  728MOL0     H96039   3.885   8.839  10.726 -0.5285 -1.0511  0.5821
  728MOL0     H96040   3.940   8.797  10.567  0.2474  0.1635  0.2694
  728MOL0     H96041   3.833   8.592  10.773  3.0537 -0.7097  0.2702
  728MOL0     H96042   3.925   8.534  10.642  1.5747 -0.0952 -0.2757
  728MOL0     H96043   3.766   8.674  10.479 -0.7928 -0.7363 -0.8640
  728MOL0     H96044   3.663   8.697  10.620  0.2132  2.0272 -0.3207
  728MOL0     H96045   3.730   8.434  10.475 -2.5693 -2.3955  0.3661
  728MOL0     H96046   3.665   8.441  10.642  2.0300  0.7999  0.7652
  728MOL0     H96047   3.466   8.586  10.553  1.1425 -0.2230  1.1311
  728MOL0     H96048   3.470   8.415  10.522  2.4580 -1.9470  1.1644
  728MOL0     H96049   3.432   8.731  10.333 -0.7995 -0.5519  0.6223
  728MOL0     H96050   3.460   8.676   9.959 -0.1359 -1.8270  0.2484
  728MOL0     H96051   3.467   8.807  10.073  2.7122 -1.0088  0.6807
  728MOL0     H96052   3.247   8.797  10.010 -1.2372 -2.4977 -2.4668
  728MOL0     H96053   3.251   8.747  10.176 -3.5896  1.5995 -2.0070
  728MOL0     H96054   3.238   8.525   9.947 -0.2832  1.2129 -1.0714
  728MOL0     H96055   3.207   8.501  10.112  0.6466 -1.8497 -1.5513
  728MOL0     H96056   2.984   8.528   9.983 -1.2309  1.0971 -2.1385
  728MOL0     H96057   3.030   8.691   9.951 -1.5530 -0.3827  0.1460
  728MOL0     H96058   2.894   8.848  10.061  2.3228 -2.2116 -1.1257
  728MOL0     H96059   2.649   8.908  10.040  1.4556  0.3498 -0.0027
  728MOL0     H96060   2.350   8.925   9.827 -0.6455  3.0771 -0.1798
  728MOL0     H96061   2.126   8.910   9.718  1.5599 -0.6780 -0.2040
  728MOL0     H96062   1.756   8.846   9.714  0.3820 -0.0851 -0.3591
  728MOL0     H96063   1.909   8.905   9.668 -0.2384 -2.2675  0.3294
  728MOL0     H96064   1.818   9.114   9.724 -1.9461  0.0571  0.0620
  728MOL0     H96065   1.854   9.073   9.893 -2.0184 -0.0685  1.0414
  728MOL0     H96066   1.631   9.126   9.913  2.6286  1.5398  0.2096
  728MOL0     H96067   1.631   8.949   9.889  0.4891 -0.1576 -1.4513
  728MOL0     H96068   1.590   9.155   9.661  1.0078  0.7610  1.5231
  728MOL0     H96069   1.577   8.988   9.637  0.7337  1.2258 -0.6305
  728MOL0     H96070   1.382   9.144   9.804  1.6815  1.1891 -1.2799
  728MOL0     H96071   1.403   8.967   9.805  0.5532  0.3845 -0.7009
  728MOL0     H96072   1.338   8.987   9.558  0.4070 -0.4727 -0.0422
  728MOL0     H96073   1.314   9.165   9.586 -1.4052  1.0814  1.6524
  728MOL0     H96074   1.148   8.932   9.707 -2.4367  0.5831 -0.5098
  728MOL0     H96075   1.138   9.108   9.757 -1.8302  2.4726 -2.9324
  728MOL0     H96076   1.068   8.987   9.486  0.0406 -0.4429  0.7738
  728MOL0     H96077   1.062   9.158   9.521 -2.4051  0.2379  0.8658
  728MOL0     H96078   1.954   8.841  10.115 -0.8663  2.8787 -0.0937
  728MOL0     H96079   2.180   8.848  10.205 -1.8343 -1.1181  0.9336
  728MOL0     H96080   2.577   8.534  10.255  1.0316 -1.2709 -0.9872
  728MOL0     H96081   2.816   8.477  10.253  2.4049 -0.3717 -2.3839
  728MOL0     H96082   4.562   8.924  10.784  1.1473 -0.0555  0.5316
  728MOL0     H96083   4.797   8.882  10.750 -1.8657  1.7606 -1.3956
  728MOL0     H96084   5.051   8.366  10.401 -0.0927 -1.0805 -2.3883
  728MOL0     H96085   5.286   8.357  10.316 -0.7536  1.0038 -0.2673
  728MOL0     H96086   5.526   8.380  10.261 -2.3543 -1.7335  0.3336
  728MOL0     H96087   5.492   8.284  10.397 -1.3517  0.0304 -0.5337
  728MOL0     H96088   5.693   8.238  10.383  0.9948 -0.2260  0.7213
  728MOL0     H96089   5.752   8.383  10.306  0.7606 -0.0717  0.5430
  728MOL0     H96090   5.682   8.403  10.610  1.7974 -3.1284  1.3891
  728MOL0     H96091   5.807   8.495  10.513  0.2142  0.2560 -2.0925
  728MOL0     H96092   5.840   8.198  10.545 -0.3664 -0.2049  0.2764
  728MOL0     H96093   5.945   8.322  10.512 -0.0755 -2.5407  0.1713
  728MOL0     H96094   5.911   8.354  10.950 -0.5296  0.3373  0.3921
  728MOL0     H96095   5.397   8.662  10.600 -1.3104  1.5971  1.6252
  728MOL0     H96096   5.162   8.698  10.651  2.4016 -0.6792  1.7543
  729MOL0     O96097   3.572   4.535   7.203 -0.3603 -0.3544  0.4093
  729MOL0     C96098   3.659   4.623   7.198  0.6009  0.3331  0.0871
  729MOL0     O96099   3.649   4.746   7.250  0.0675  0.2081 -0.2354
  729MOL0     C96100   3.521   4.798   7.278 -0.9117  0.2327 -0.5802
  729MOL0     C96101   3.470   4.901   7.198 -0.3787 -0.1324 -0.3997
  729MOL0     C96102   3.345   4.956   7.244 -0.0893 -0.6276 -0.1888
  729MOL0     C96103   3.271   4.902   7.345 -0.0822  0.4402  0.1720
  729MOL0     O96104   3.152   4.962   7.367  1.0943  0.1660  0.3220
  729MOL0     C96105   3.141   5.025   7.496 -0.1496  0.0083 -0.5064
  729MOL0     C96106   3.141   5.178   7.481  0.4636 -0.1415 -0.1102
  729MOL0     C96107   3.129   5.263   7.609 -0.7672  0.4349  0.4969
  729MOL0     C96108   3.089   5.405   7.576  0.0003  0.1661 -0.0743
  729MOL0     C96109   3.051   5.471   7.701  0.2692  0.7236 -0.5750
  729MOL0     C96110   2.901   5.461   7.727  0.5556  0.6455 -0.2044
  729MOL0     C96111   2.848   5.524   7.857  0.2008 -0.4580  0.4665
  729MOL0     C96112   2.869   5.686   7.855 -0.4939  0.5216  0.8868
  729MOL0     N96113   2.796   5.742   7.746  0.1461 -0.4667 -0.0296
  729MOL0     C96114   2.839   5.778   7.621  0.8492 -0.8953  0.6032
  729MOL0     C96115   2.733   5.793   7.539  0.0246 -0.4215 -0.3693
  729MOL0     C96116   2.718   5.820   7.393  1.1439  0.5383 -0.0227
  729MOL0     C96117   2.576   5.852   7.345  0.6098  0.5020  0.2836
  729MOL0     C96118   2.529   5.989   7.397  0.2197  0.8142 -0.1848
  729MOL0     C96119   2.382   6.021   7.342 -0.3268  0.6290 -0.7723
  729MOL0     O96120   2.379   6.014   7.202 -0.6213  0.1454  0.0629
  729MOL0     C96121   2.445   6.104   7.119 -0.5727 -0.2996 -0.1877
  729MOL0     C96122   2.479   6.067   6.987 -0.5672  0.1398  0.1900
  729MOL0     C96123   2.528   6.161   6.893 -0.0197 -0.0271 -0.1612
  729MOL0     C96124   2.546   6.294   6.933 -0.2697  0.4686 -0.3344
  729MOL0     C96125   2.606   6.394   6.839  0.2413  0.2661  0.1519
  729MOL0     O96126   2.629   6.347   6.704  0.4164 -0.5851 -0.6218
  729MOL0     C96127   2.732   6.409   6.631 -0.5890 -0.7339 -0.4563
  729MOL0     C96128   2.709   6.532   6.570 -0.7437  0.7107  0.2572
  729MOL0     C96129   2.807   6.590   6.488  0.1187 -0.3803  0.5771
  729MOL0     C96130   2.933   6.530   6.474  0.1126 -0.3598 -0.4924
  729MOL0     O96131   3.037   6.586   6.411  0.0397  0.7396 -0.1651
  729MOL0     C96132   3.012   6.628   6.279 -0.3290  0.2802 -0.2732
  729MOL0     C96133   3.126   6.566   6.184  0.9635 -0.4753 -1.1573
  729MOL0     C96134   3.252   6.663   6.188  0.8307  0.7741 -0.1912
  729MOL0     C96135   3.333   6.646   6.059  0.1111 -0.2196 -0.3621
  729MOL0     C96136   3.452   6.742   6.064 -0.5575  0.3708  0.4686
  729MOL0     C96137   3.553   6.734   5.947  0.7224 -0.0933 -0.1247
  729MOL0     C96138   3.680   6.822   5.976 -0.4380 -0.1444 -0.3798
  729MOL0     C96139   3.779   6.835   5.858  0.0664  0.7178  0.5956
  729MOL0    Cl96140   3.814   6.659   5.816  0.0341  0.1517 -0.1185
  729MOL0     C96141   2.959   6.410   6.532  0.1083  0.8274  0.2134
  729MOL0     C96142   2.866   6.350   6.615  0.2986  0.2340 -0.2912
  729MOL0     O96143   2.663   6.494   6.883  0.2450  0.0632 -0.2709
  729MOL0     C96144   2.533   6.327   7.067  0.1799  0.6963 -0.1793
  729MOL0     C96145   2.480   6.233   7.161 -0.2195  0.2598 -0.2536
  729MOL0     N96146   2.624   5.770   7.618 -0.3601 -0.2614  0.4091
  729MOL0     N96147   2.662   5.750   7.746 -0.9628  0.7228 -0.1531
  729MOL0     C96148   3.309   4.786   7.408  0.2677 -0.4739  0.0319
  729MOL0     C96149   3.441   4.734   7.372 -0.6164 -0.1083  0.1823
  729MOL0     C96150   3.791   4.582   7.159  0.3701  0.5357 -0.2789
  729MOL0     C96151   3.816   4.450   7.104  1.1329 -1.4565  0.3904
  729MOL0     C96152   3.946   4.424   7.063 -1.0012  0.6220 -0.2934
  729MOL0     C96153   4.053   4.516   7.066  0.3611  0.9336 -0.3954
  729MOL0     O96154   4.174   4.479   7.012 -0.0431  0.0114  0.6751
  729MOL0     C96155   4.234   4.575   6.925 -0.1704  0.2836 -0.2195
  729MOL0     C96156   4.334   4.507   6.839  0.0469  0.2365 -0.4755
  729MOL0     C96157   4.292   4.456   6.705  0.9324 -0.6044  0.5448
  729MOL0     C96158   4.410   4.406   6.614  0.1032 -0.6544 -0.0400
  729MOL0     C96159   4.472   4.283   6.656 -0.3011  0.8903 -0.0749
  729MOL0     C96160   4.534   4.187   6.704  0.4601  0.9066  0.6918
  729MOL0     C96161   4.025   4.642   7.125  0.4993  0.0352 -0.0836
  729MOL0     C96162   3.896   4.682   7.156  0.5541 -0.0054 -1.0994
  729MOL0     H96163   3.526   4.949   7.119  1.9871  1.6343  2.1274
  729MOL0     H96164   3.309   5.048   7.200  2.0308 -0.3454 -1.4335
  729MOL0     H96165   3.221   4.998   7.565 -2.2175 -5.3817  0.2523
  729MOL0     H96166   3.043   4.997   7.536 -0.3451 -0.3595 -1.2292
  729MOL0     H96167   3.045   5.194   7.431 -0.5722 -0.9528  1.5266
  729MOL0     H96168   3.223   5.206   7.415 -0.4232  0.5863 -0.9350
  729MOL0     H96169   3.230   5.277   7.648 -1.1146  2.5846  0.7150
  729MOL0     H96170   3.060   5.219   7.682  1.5516 -1.0014  1.9381
  729MOL0     H96171   3.172   5.460   7.530  1.6333 -2.9502 -1.1078
  729MOL0     H96172   3.009   5.413   7.502  3.2074 -1.6085 -4.1335
  729MOL0     H96173   3.084   5.575   7.704  0.3228  0.7028  2.1530
  729MOL0     H96174   3.106   5.429   7.786 -0.4971 -0.6575 -0.7330
  729MOL0     H96175   2.867   5.358   7.742 -0.4205  1.1401  1.2376
  729MOL0     H96176   2.843   5.493   7.640 -1.3167  1.1104  1.1574
  729MOL0     H96177   2.742   5.498   7.862  0.3255 -0.8551  1.0795
  729MOL0     H96178   2.898   5.494   7.950 -0.0783 -0.5585  0.5840
  729MOL0     H96179   2.975   5.699   7.831 -0.3657 -3.4224 -1.6921
  729MOL0     H96180   2.817   5.729   7.941 -2.8139  1.6623 -0.9809
  729MOL0     H96181   2.941   5.785   7.584  0.4499  0.4021 -0.3302
  729MOL0     H96182   2.754   5.722   7.357  1.4171  0.5151  0.3064
  729MOL0     H96183   2.796   5.886   7.354  2.0198  0.5261  1.6235
  729MOL0     H96184   2.508   5.780   7.391  0.4848  0.3443 -0.1415
  729MOL0     H96185   2.562   5.836   7.238 -1.4844  3.0088  0.0649
  729MOL0     H96186   2.537   5.983   7.506  1.6039 -0.0950 -0.3101
  729MOL0     H96187   2.602   6.061   7.360  2.6124 -0.0337  2.4903
  729MOL0     H96188   2.363   6.124   7.373 -2.2078 -0.0905  0.6397
  729MOL0     H96189   2.305   5.952   7.375  0.7608  0.3415  1.3294
  729MOL0     H96190   2.467   5.962   6.963 -0.1825 -0.5542  2.7344
  729MOL0     H96191   2.541   6.135   6.788 -0.1535 -1.3876  0.1331
  729MOL0     H96192   2.619   6.589   6.592 -0.7853  0.7294  0.0436
  729MOL0     H96193   2.783   6.682   6.436  2.4248  0.3977  0.7978
  729MOL0     H96194   3.013   6.736   6.263  1.3208  0.1102 -1.6151
  729MOL0     H96195   2.913   6.598   6.244  0.6017 -1.4668 -1.5671
  729MOL0     H96196   3.086   6.568   6.082 -0.5010  1.3123 -0.6274
  729MOL0     H96197   3.146   6.464   6.217  0.5713 -0.3414 -0.4872
  729MOL0     H96198   3.310   6.644   6.279  1.8934  0.8314 -0.8378
  729MOL0     H96199   3.216   6.766   6.198 -1.0852  0.1524 -0.1414
  729MOL0     H96200   3.364   6.541   6.060  1.4961  0.1577  0.5041
  729MOL0     H96201   3.275   6.663   5.968 -0.3213 -2.5792 -0.6006
  729MOL0     H96202   3.512   6.724   6.154 -0.9845  1.5288  1.0029
  729MOL0     H96203   3.416   6.845   6.061  1.2246  1.0245  0.0343
  729MOL0     H96204   3.511   6.777   5.856 -0.3269  1.9345  1.2476
  729MOL0     H96205   3.586   6.632   5.924 -0.8330 -1.1502  1.9492
  729MOL0     H96206   3.644   6.925   5.991 -0.7308 -0.5231  1.8447
  729MOL0     H96207   3.740   6.792   6.062 -0.0663  0.7375 -0.3228
  729MOL0     H96208   3.877   6.878   5.881  0.8008 -1.6094  2.2175
  729MOL0     H96209   3.741   6.881   5.766  0.6970  1.4974  0.7205
  729MOL0     H96210   3.058   6.366   6.530  0.5382  1.7551  0.4686
  729MOL0     H96211   2.896   6.265   6.676  0.9842  0.7543  0.1157
  729MOL0     H96212   2.547   6.427   7.106 -1.8410 -0.1737  3.2335
  729MOL0     H96213   2.452   6.263   7.261  0.9247  0.4668  0.0094
  729MOL0     H96214   3.241   4.741   7.480 -0.0365  2.9913  2.1030
  729MOL0     H96215   3.480   4.640   7.408 -0.3032 -1.3212 -3.0271
  729MOL0     H96216   3.732   4.382   7.092 -0.1178  0.0118  0.6770
  729MOL0     H96217   3.959   4.329   7.013 -2.8325 -0.4506  1.1459
  729MOL0     H96218   4.295   4.649   6.978  0.2001  1.5628 -2.3373
  729MOL0     H96219   4.157   4.632   6.872  0.0703  0.7995 -0.0302
  729MOL0     H96220   4.416   4.579   6.826  0.6407 -0.6680 -2.0274
  729MOL0     H96221   4.373   4.416   6.886 -0.0982  0.1180 -0.5881
  729MOL0     H96222   4.239   4.534   6.650  1.5547 -0.7183 -0.2187
  729MOL0     H96223   4.234   4.364   6.715  1.8867 -1.5879 -2.1639
  729MOL0     H96224   4.373   4.385   6.513 -1.1650  0.7050  0.1017
  729MOL0     H96225   4.492   4.478   6.606 -2.3216  2.4764  1.1630
  729MOL0     H96226   4.582   4.099   6.741 -1.6586 -0.3826  0.5529
  729MOL0     H96227   4.111   4.708   7.135 -0.6140  1.5414 -0.0818
  729MOL0     H96228   3.879   4.784   7.187 -1.4196  0.2985 -2.9549
  730MOL0     O96229   2.326   4.371   5.029 -0.6779 -0.9162  0.7443
  730MOL0     C96230   2.345   4.291   4.936  0.4401 -0.2272 -0.6321
  730MOL0     O96231   2.395   4.318   4.816  0.5161  0.2665 -0.5233
  730MOL0     C96232   2.402   4.444   4.775  0.5710 -0.3777  0.3343
  730MOL0     C96233   2.281   4.510   4.739  0.8549 -0.1194 -0.5526
  730MOL0     C96234   2.285   4.644   4.715 -0.3277  0.2077 -0.6378
  730MOL0     C96235   2.411   4.707   4.699 -0.0125  0.0496  1.0011
  730MOL0     O96236   2.426   4.836   4.660 -0.0014  0.4112 -0.5953
  730MOL0     C96237   2.389   4.931   4.761 -0.1916  0.8978 -0.4187
  730MOL0     C96238   2.467   5.054   4.719 -1.4426  0.5629 -0.5635
  730MOL0     C96239   2.451   5.162   4.822 -0.1860 -0.2930  0.1876
  730MOL0     C96240   2.311   5.213   4.855 -0.2700  0.3779 -0.3385
  730MOL0     C96241   2.315   5.319   4.964  0.3866 -0.5249  0.3194
  730MOL0     C96242   2.395   5.441   4.929  0.5664 -1.3277  0.3699
  730MOL0     C96243   2.377   5.560   5.030  0.1876 -0.8828  1.6296
  730MOL0     C96244   2.399   5.538   5.175  0.1834 -0.4798 -0.0146
  730MOL0     N96245   2.355   5.659   5.243  0.4942 -0.5284  0.1742
  730MOL0     C96246   2.238   5.671   5.314  0.6518  0.0676  0.7221
  730MOL0     C96247   2.241   5.798   5.384  0.6360  1.1141  0.6253
  730MOL0     C96248   2.142   5.854   5.482 -0.4173  0.3918 -0.3866
  730MOL0     C96249   1.993   5.852   5.447  0.4151 -0.9339 -0.1971
  730MOL0     C96250   1.917   5.938   5.549  0.5620 -0.1102  0.8637
  730MOL0     C96251   1.769   5.890   5.572  0.1396 -0.3913 -0.0654
  730MOL0     O96252   1.701   5.998   5.646 -0.7377  1.1329 -0.6174
  730MOL0     C96253   1.576   5.971   5.690  0.0507  0.8881 -0.0677
  730MOL0     C96254   1.521   6.066   5.776  0.7147 -0.4055 -0.2364
  730MOL0     C96255   1.397   6.053   5.835  0.1830  0.4039  0.1664
  730MOL0     C96256   1.313   5.939   5.793 -0.6414  0.1294 -0.7492
  730MOL0     C96257   1.178   5.933   5.847 -0.3220 -1.0237  0.2580
  730MOL0     O96258   1.103   5.833   5.799  0.2722  0.0616  0.4661
  730MOL0     C96259   0.964   5.827   5.812  0.1815 -0.0892  0.1991
  730MOL0     C96260   0.907   5.701   5.800 -0.3534 -0.2790 -0.1317
  730MOL0     C96261   0.768   5.678   5.820 -0.4961 -0.5949 -0.5311
  730MOL0     C96262   0.685   5.789   5.846 -0.0597  0.2903  0.0103
  730MOL0     O96263   0.554   5.777   5.867  0.2269  0.3054  0.0654
  730MOL0     C96264   0.473   5.721   5.768 -0.4274 -0.3069  0.8645
  730MOL0     C96265   0.341   5.675   5.826 -0.1713  1.0071  0.0338
  730MOL0     C96266   0.352   5.553   5.918 -0.1484  0.2285 -0.4795
  730MOL0     C96267   0.391   5.421   5.843 -0.5132  0.0354 -0.6046
  730MOL0     C96268   0.380   5.290   5.931 -0.5494 -0.6113  0.0423
  730MOL0     C96269   0.510   5.285   6.020 -0.1857 -0.3126  0.6559
  730MOL0     C96270   0.544   5.143   6.073 -0.3483 -0.0714  0.7020
  730MOL0     C96271   0.641   5.148   6.187 -0.1458 -0.7534 -0.0845
  730MOL0    Cl96272   0.561   5.145   6.350  0.2326 -0.2299 -0.3039
  730MOL0     C96273   0.746   5.910   5.845  0.0784 -0.2103 -0.3793
  730MOL0     C96274   0.880   5.937   5.827 -0.3984  0.2001  0.5106
  730MOL0     O96275   1.146   6.030   5.920 -0.0865 -0.8045 -0.5163
  730MOL0     C96276   1.366   5.846   5.711  0.1411  0.2199 -0.7270
  730MOL0     C96277   1.496   5.862   5.656 -0.3233  0.5540 -1.0735
  730MOL0     N96278   2.345   5.864   5.329 -0.2062  0.4986 -0.2369
  730MOL0     N96279   2.415   5.783   5.253 -0.3471  0.4829 -0.2336
  730MOL0     C96280   2.524   4.637   4.729  0.8373 -0.2481 -0.3349
  730MOL0     C96281   2.517   4.507   4.768  0.4755 -0.5614 -0.2906
  730MOL0     C96282   2.320   4.144   4.962  1.2100  0.3858 -1.0332
  730MOL0     C96283   2.301   4.049   4.867 -0.1911 -0.4552 -0.3262
  730MOL0     C96284   2.262   3.917   4.906 -0.2671 -0.4685  0.4100
  730MOL0     C96285   2.256   3.878   5.043  0.5701 -0.3995  0.4171
  730MOL0     O96286   2.214   3.743   5.058  0.7351  0.1440 -0.3377
  730MOL0     C96287   2.227   3.678   5.190  0.7094 -0.4939  0.3106
  730MOL0     C96288   2.207   3.530   5.177  0.0809  0.5412 -0.2396
  730MOL0     C96289   2.319   3.467   5.104  0.0916  0.5630 -0.3696
  730MOL0     C96290   2.305   3.318   5.097  0.0959  0.0104 -0.3054
  730MOL0     C96291   2.255   3.288   4.960 -0.6348 -0.2806 -0.2013
  730MOL0     C96292   2.215   3.267   4.849  0.7952 -0.1318  0.6816
  730MOL0     C96293   2.266   3.972   5.133  1.2698  0.6584 -0.9995
  730MOL0     C96294   2.302   4.102   5.093 -0.2509  0.4244 -0.0516
  730MOL0     H96295   2.185   4.461   4.755  2.0224 -2.1123  0.6906
  730MOL0     H96296   2.199   4.705   4.689  1.3272  1.8344 -2.6653
  730MOL0     H96297   2.420   4.893   4.859 -1.6387  0.6471 -0.0411
  730MOL0     H96298   2.283   4.955   4.760 -0.2583  1.1064  2.7001
  730MOL0     H96299   2.414   5.092   4.631 -0.3603 -0.6677 -1.8147
  730MOL0     H96300   2.574   5.043   4.698 -0.7803  2.4774  1.3870
  730MOL0     H96301   2.503   5.243   4.769 -1.4534  0.5900  0.2451
  730MOL0     H96302   2.503   5.137   4.914  0.6796  1.2120  0.1528
  730MOL0     H96303   2.265   5.254   4.765  0.2841  0.3463 -0.6367
  730MOL0     H96304   2.243   5.131   4.882 -0.2890 -0.2000 -2.0096
  730MOL0     H96305   2.356   5.274   5.055 -0.3167 -0.9997  0.4116
  730MOL0     H96306   2.210   5.340   4.988  1.3334  4.2265  1.2201
  730MOL0     H96307   2.362   5.481   4.832  2.1894  1.2531  0.7642
  730MOL0     H96308   2.503   5.429   4.939  1.1186  2.6826  1.0906
  730MOL0     H96309   2.438   5.642   4.990 -0.2322 -0.8411  1.0628
  730MOL0     H96310   2.271   5.582   5.016 -0.0361 -2.1011  1.3606
  730MOL0     H96311   2.501   5.511   5.204  0.3726  0.6246  0.3965
  730MOL0     H96312   2.331   5.464   5.218 -0.6783 -0.9857 -2.1640
  730MOL0     H96313   2.164   5.591   5.321  0.3801  0.0969 -1.3177
  730MOL0     H96314   2.168   5.955   5.516 -2.5247 -0.1938  3.5787
  730MOL0     H96315   2.158   5.796   5.573 -1.0273 -3.2097 -2.3816
  730MOL0     H96316   1.970   5.745   5.454  0.1399 -0.8497  0.1807
  730MOL0     H96317   1.960   5.881   5.347 -0.9775 -1.6421  0.0426
  730MOL0     H96318   1.960   5.932   5.650 -2.6122 -1.0833  2.2979
  730MOL0     H96319   1.926   6.044   5.522  1.4254  0.1424  2.0117
  730MOL0     H96320   1.765   5.794   5.624  0.6877 -0.0341  0.6538
  730MOL0     H96321   1.725   5.887   5.472  0.3747 -0.6875 -0.1605
  730MOL0     H96322   1.585   6.150   5.802 -1.1729  0.3854  2.2118
  730MOL0     H96323   1.363   6.130   5.904  3.0606 -0.6978  3.0166
  730MOL0     H96324   0.972   5.620   5.767  0.2289  0.1518 -0.0397
  730MOL0     H96325   0.729   5.577   5.823 -0.4176 -0.6229  1.8403
  730MOL0     H96326   0.516   5.638   5.711 -2.3777 -0.0580 -1.1147
  730MOL0     H96327   0.449   5.809   5.707 -3.1787 -1.1699  0.5638
  730MOL0     H96328   0.284   5.638   5.740  2.9729  0.2650 -1.9118
  730MOL0     H96329   0.299   5.759   5.882  1.7238  0.3696  2.6095
  730MOL0     H96330   0.255   5.546   5.969 -0.5809  1.9622 -1.0088
  730MOL0     H96331   0.431   5.567   5.992  0.5840 -0.5637 -1.0923
  730MOL0     H96332   0.320   5.413   5.760  0.7114 -0.7213 -1.6161
  730MOL0     H96333   0.492   5.423   5.801 -1.0162  0.7084 -1.8323
  730MOL0     H96334   0.376   5.208   5.859 -0.4898 -0.4874 -0.1054
  730MOL0     H96335   0.290   5.290   5.992  0.3714  3.5810  1.7467
  730MOL0     H96336   0.497   5.353   6.105 -1.0539 -0.4586  0.6416
  730MOL0     H96337   0.596   5.319   5.961 -2.0038 -1.3994 -2.8991
  730MOL0     H96338   0.449   5.094   6.095 -1.4683  0.5218 -2.3840
  730MOL0     H96339   0.593   5.076   6.002 -0.1232  0.7275  0.0925
  730MOL0     H96340   0.695   5.243   6.174 -3.3380  0.8856 -2.7496
  730MOL0     H96341   0.715   5.067   6.185  1.6069  0.6348  2.5329
  730MOL0     H96342   0.681   5.991   5.877  1.1318 -0.9866  4.4509
  730MOL0     H96343   0.925   6.036   5.822  1.3021 -0.5104  0.9511
  730MOL0     H96344   1.310   5.761   5.671  3.3457 -2.7974  0.6406
  730MOL0     H96345   1.532   5.779   5.597  4.4255  0.1290  1.9251
  730MOL0     H96346   2.619   4.688   4.714  0.4421  0.5548 -0.1956
  730MOL0     H96347   2.608   4.450   4.787  0.8567 -0.1219 -0.7693
  730MOL0     H96348   2.302   4.091   4.767  1.0971  1.7846  0.5694
  730MOL0     H96349   2.231   3.851   4.826 -2.8964  3.8127 -2.5245
  730MOL0     H96350   2.155   3.709   5.267 -0.4005 -2.4030  0.1363
  730MOL0     H96351   2.325   3.692   5.236  0.8184  1.0128 -0.3557
  730MOL0     H96352   2.202   3.486   5.277  0.2729  0.2396 -0.3588
  730MOL0     H96353   2.114   3.515   5.122  0.6373  0.5908 -1.2192
  730MOL0     H96354   2.413   3.483   5.157 -0.7089 -0.1643  1.3556
  730MOL0     H96355   2.324   3.515   5.006 -0.8869  0.5624 -0.4371
  730MOL0     H96356   2.395   3.260   5.120  0.8661  1.2523 -0.0709
  730MOL0     H96357   2.228   3.284   5.167  2.5605 -2.3824  1.4357
  730MOL0     H96358   2.169   3.250   4.754  1.4646  2.4457 -0.1983
  730MOL0     H96359   2.235   3.940   5.232 -0.0837  1.0769 -1.2723
  730MOL0     H96360   2.324   4.179   5.166 -1.3923 -0.9239  1.8083
  731MOL0     O96361   1.313   9.504   0.426  0.0416 -0.2243  0.4846
  731MOL0     C96362   1.309   9.551   0.541  0.2080  0.0687  0.1532
  731MOL0     O96363   1.412   9.597   0.617 -0.4111 -0.6566  0.8833
  731MOL0     C96364   1.538   9.606   0.570 -0.5391  0.0759 -0.0388
  731MOL0     C96365   1.616   9.705   0.631 -0.3262  0.0681  0.4364
  731MOL0     C96366   1.743   9.738   0.585 -0.3644 -0.1236 -0.0332
  731MOL0     C96367   1.805   9.650   0.493  0.2189 -0.0814 -0.1400
  731MOL0     O96368   1.934   9.680   0.455  0.3788  0.4751 -0.1063
  731MOL0     C96369   1.945   9.695   0.315 -0.2504 -0.5657 -0.2731
  731MOL0     C96370   2.082   9.761   0.286 -0.2339 -0.3934  0.4480
  731MOL0     C96371   2.131   9.766   0.141 -0.3216  0.5307  0.0130
  731MOL0     C96372   2.267   9.836   0.115  0.6993 -0.5649  0.0191
  731MOL0     C96373   2.383   9.774   0.183  0.5281 -0.5163 -0.0421
  731MOL0     C96374   2.522   9.841   0.167  0.4841  0.0860 -0.9195
  731MOL0     C96375   2.635   9.768   0.244  0.5179  0.3980 -0.7396
  731MOL0     C96376   2.656   9.618   0.207 -0.5194  0.5772  0.2393
  731MOL0     N96377   2.601   9.512   0.290  0.2418 -0.3324 -0.3813
  731MOL0     C96378   2.467   9.471   0.307 -0.5843  0.4382 -0.0878
  731MOL0     C96379   2.481   9.356   0.382  0.0586 -0.0736 -0.0868
  731MOL0     C96380   2.366   9.273   0.429  0.2470  0.1524 -0.4737
  731MOL0     C96381   2.315   9.331   0.569 -0.9162  0.5661  0.7974
  731MOL0     C96382   2.197   9.241   0.631 -0.2069  0.3987  0.0841
  731MOL0     C96383   2.059   9.245   0.564  0.3149 -0.7297 -0.4699
  731MOL0     O96384   2.078   9.185   0.436 -0.4861  0.2745 -0.0735
  731MOL0     C96385   1.968   9.191   0.346  0.1399  0.8006  0.0690
  731MOL0     C96386   1.840   9.228   0.387  0.6565 -0.6951  0.0384
  731MOL0     C96387   1.731   9.236   0.301  0.2632 -0.3496  0.5714
  731MOL0     C96388   1.755   9.219   0.160  0.1209 -0.5020  0.8598
  731MOL0     C96389   1.657   9.268   0.055  0.5338 -0.5797  0.0136
  731MOL0     O96390   1.548   9.333   0.107  0.8437 -0.1775 -0.0557
  731MOL0     C96391   1.449   9.372   0.022  0.1505 -0.0687  0.6543
  731MOL0     C96392   1.383   9.279  -0.061  0.5372 -0.0275  0.3913
  731MOL0     C96393   1.287   9.327  -0.157  0.1808  0.0060  0.3078
  731MOL0     C96394   1.266   9.468  -0.176 -0.2908 -0.1375  0.0964
  731MOL0     O96395   1.184   9.525  -0.265  0.0055  0.5816  1.3749
  731MOL0     C96396   1.096   9.450  -0.347 -0.2127  0.5885  0.7630
  731MOL0     C96397   1.001   9.548  -0.412  0.2090 -0.4834 -0.5114
  731MOL0     C96398   1.064   9.662  -0.484 -1.1550  0.0764 -0.6586
  731MOL0     C96399   0.948   9.741  -0.552 -0.3876 -0.2786  0.6665
  731MOL0     C96400   0.983   9.872  -0.609 -0.7389  0.5283 -0.3620
  731MOL0     C96401   0.872   9.929  -0.685  0.0338  0.0962 -0.3906
  731MOL0     C96402   0.872   9.879  -0.826  0.9121  0.2699  0.4868
  731MOL0     C96403   0.752   9.952  -0.906 -0.7102 -0.0475  0.1768
  731MOL0    Cl96404   0.595   9.910  -0.827  0.2818  0.3994  0.0875
  731MOL0     C96405   1.323   9.553  -0.078 -0.4487  0.1012  0.4759
  731MOL0     C96406   1.419   9.509   0.013  0.7865 -0.4604  0.6745
  731MOL0     O96407   1.678   9.244  -0.063 -0.3153 -0.1025 -0.2737
  731MOL0     C96408   1.882   9.183   0.115  0.2595  0.0164  0.5139
  731MOL0     C96409   1.984   9.153   0.208 -0.2359  0.0451  0.2292
  731MOL0     N96410   2.611   9.349   0.434 -0.3004 -0.4527  0.1673
  731MOL0     N96411   2.687   9.432   0.366  0.3372 -0.2353 -1.3175
  731MOL0     C96412   1.734   9.548   0.441 -1.2463  0.4485 -0.4941
  731MOL0     C96413   1.598   9.527   0.470 -0.2515  0.2149  0.5600
  731MOL0     C96414   1.178   9.545   0.608 -0.2207  0.1431 -0.8034
  731MOL0     C96415   1.067   9.521   0.535 -1.1155 -0.9815 -0.1551
  731MOL0     C96416   0.935   9.532   0.584 -0.4411  0.5041 -0.8805
  731MOL0     C96417   0.918   9.550   0.721  0.3763 -0.1892 -0.6077
  731MOL0     O96418   0.796   9.554   0.773  0.3320  0.2223 -0.0228
  731MOL0     C96419   0.766   9.452   0.870 -0.0995  0.2824  0.6007
  731MOL0     C96420   0.647   9.369   0.818 -0.2742 -0.3030  0.1969
  731MOL0     C96421   0.516   9.456   0.801  0.4001 -0.1455  0.1478
  731MOL0     C96422   0.408   9.386   0.727 -0.4739  0.5598 -0.3890
  731MOL0     C96423   0.283   9.470   0.723  0.8573  0.7687 -0.0662
  731MOL0     C96424   0.187   9.540   0.746  1.1761  0.3127  0.2356
  731MOL0     C96425   1.037   9.558   0.805  0.4346 -1.4263  1.0019
  731MOL0     C96426   1.164   9.559   0.746  0.5413  0.1284 -0.0851
  731MOL0     H96427   1.576   9.766   0.712  2.6272  1.1197  1.2490
  731MOL0     H96428   1.807   9.818   0.622 -1.2727  0.3626  0.5214
  731MOL0     H96429   1.866   9.760   0.277  0.8698  1.5865  0.8495
  731MOL0     H96430   1.946   9.599   0.263 -1.0715 -1.0115  0.5011
  731MOL0     H96431   2.160   9.705   0.339  0.2555 -0.1864 -0.0398
  731MOL0     H96432   2.088   9.865   0.321 -0.1636  0.5371 -2.1489
  731MOL0     H96433   2.059   9.813   0.075  0.8699  0.0183 -1.7232
  731MOL0     H96434   2.143   9.663   0.106 -1.2614  0.3565  0.1937
  731MOL0     H96435   2.292   9.843   0.008  0.4892 -0.2183 -0.0098
  731MOL0     H96436   2.250   9.935   0.159 -2.6503 -0.9517 -0.1713
  731MOL0     H96437   2.376   9.671   0.144 -1.5739 -0.9833  1.3731
  731MOL0     H96438   2.361   9.772   0.290  1.0170  2.6048  0.1995
  731MOL0     H96439   2.505   9.944   0.198 -0.1726  0.2693 -1.8789
  731MOL0     H96440   2.541   9.830   0.060  0.0471 -0.8784 -0.9052
  731MOL0     H96441   2.729   9.823   0.236 -0.9854  3.0303 -1.5165
  731MOL0     H96442   2.623   9.769   0.353 -0.4617 -0.9447 -0.8074
  731MOL0     H96443   2.765   9.603   0.204 -0.5492 -0.0216  1.4605
  731MOL0     H96444   2.618   9.599   0.106 -0.9717  0.2595  0.4676
  731MOL0     H96445   2.377   9.510   0.261 -0.7445  0.4260  0.2079
  731MOL0     H96446   2.392   9.167   0.429 -0.2715 -0.0235  1.7289
  731MOL0     H96447   2.282   9.294   0.362  1.5862  0.6616 -2.0765
  731MOL0     H96448   2.294   9.438   0.577 -0.3973  0.9705 -2.0751
  731MOL0     H96449   2.402   9.312   0.633 -2.0794 -1.3463  1.8750
  731MOL0     H96450   2.236   9.141   0.651  0.5166  1.1441  2.8793
  731MOL0     H96451   2.187   9.275   0.735  2.6934 -0.9389  0.8880
  731MOL0     H96452   2.007   9.341   0.558  1.2690 -0.2379 -1.0960
  731MOL0     H96453   1.995   9.179   0.623  1.8236 -1.3822  0.4886
  731MOL0     H96454   1.822   9.250   0.491  0.9130 -2.9227  0.6222
  731MOL0     H96455   1.632   9.264   0.335  0.9347 -0.6672  2.9486
  731MOL0     H96456   1.395   9.172  -0.053 -1.4591 -0.3070  0.1542
  731MOL0     H96457   1.220   9.265  -0.215  0.1636  2.0502 -2.0212
  731MOL0     H96458   1.046   9.375  -0.284  0.9787  0.1458  1.2228
  731MOL0     H96459   1.156   9.401  -0.424  1.1084  0.7832  1.6165
  731MOL0     H96460   0.947   9.603  -0.334  1.3251  0.3661 -0.3207
  731MOL0     H96461   0.922   9.498  -0.469  0.9984 -2.6392  0.1875
  731MOL0     H96462   1.142   9.613  -0.543 -1.0342 -0.5811  0.0326
  731MOL0     H96463   1.117   9.733  -0.419  1.5745 -0.3371 -2.2677
  731MOL0     H96464   0.909   9.676  -0.631  0.5221 -0.6486  0.5150
  731MOL0     H96465   0.862   9.760  -0.487 -1.4242  1.1739 -1.0480
  731MOL0     H96466   1.072   9.858  -0.671 -0.4667  0.4253  0.0534
  731MOL0     H96467   1.010   9.933  -0.523 -2.0734 -0.6936  0.9891
  731MOL0     H96468   0.888  10.037  -0.686 -1.8774  0.4156 -1.0598
  731MOL0     H96469   0.774   9.910  -0.639 -0.1338  0.0269 -0.7703
  731MOL0     H96470   0.960   9.917  -0.878  2.9278  1.6639  4.5276
  731MOL0     H96471   0.865   9.771  -0.835 -2.5356  0.4207 -0.3758
  731MOL0     H96472   0.751   9.925  -1.011 -2.4965 -3.4220  0.9265
  731MOL0     H96473   0.756  10.062  -0.903 -0.6538 -0.0531  0.3983
  731MOL0     H96474   1.314   9.661  -0.089  4.1774  0.7899  1.2971
  731MOL0     H96475   1.463   9.576   0.085 -0.7658  0.3475  0.9197
  731MOL0     H96476   1.909   9.161   0.013  0.5414 -1.0474  0.8046
  731MOL0     H96477   2.081   9.118   0.175 -1.0227 -2.4909  0.4242
  731MOL0     H96478   1.800   9.504   0.368 -1.2571  0.1472 -0.3252
  731MOL0     H96479   1.555   9.441   0.419  2.1735  0.0375 -1.3760
  731MOL0     H96480   1.077   9.505   0.428  0.4048  1.9552 -0.5589
  731MOL0     H96481   0.850   9.513   0.520 -0.0897  1.3457 -1.6266
  731MOL0     H96482   0.730   9.503   0.959  2.0217  1.9354  0.5942
  731MOL0     H96483   0.853   9.388   0.889  1.4950  0.8388 -3.6079
  731MOL0     H96484   0.688   9.334   0.722 -1.3595  0.4004 -0.5440
  731MOL0     H96485   0.627   9.283   0.882  1.1429 -0.4099  0.5273
  731MOL0     H96486   0.529   9.556   0.760  0.1971 -0.1929 -0.0393
  731MOL0     H96487   0.486   9.474   0.905  0.9319 -2.2480  0.7184
  731MOL0     H96488   0.438   9.359   0.625 -2.0090  0.3449 -0.8008
  731MOL0     H96489   0.394   9.287   0.771  1.2170  0.5226  0.1643
  731MOL0     H96490   0.090   9.581   0.768  0.9248 -0.1464  0.0206
  731MOL0     H96491   1.021   9.582   0.910  0.3608 -0.7132  0.8347
  731MOL0     H96492   1.244   9.594   0.810  1.5302  3.2234 -2.7170
  732MOL0     O96493   2.772   7.036   7.749 -0.2907 -0.4662 -0.1640
  732MOL0     C96494   2.848   6.945   7.727 -0.3103  1.1928 -0.8708
  732MOL0     O96495   2.807   6.816   7.702 -0.2570  0.0350  0.3678
  732MOL0     C96496   2.680   6.780   7.735  0.0922 -0.4950 -0.9512
  732MOL0     C96497   2.673   6.678   7.833 -0.9110 -0.7950  0.6679
  732MOL0     C96498   2.551   6.649   7.892  0.4310  0.9216  0.6151
  732MOL0     C96499   2.431   6.710   7.847 -0.3482 -0.3537  0.8238
  732MOL0     O96500   2.307   6.689   7.892  0.9089  0.5170 -0.1245
  732MOL0     C96501   2.293   6.589   8.002  0.8145 -1.0652  0.9822
  732MOL0     C96502   2.156   6.603   8.073  0.0483 -0.1933 -0.7023
  732MOL0     C96503   2.041   6.561   7.984 -0.2285  0.6396 -0.3701
  732MOL0     C96504   1.906   6.527   8.061 -0.5232 -0.0390 -0.0288
  732MOL0     C96505   1.784   6.501   7.969  0.6219 -0.3988 -0.6095
  732MOL0     C96506   1.643   6.502   8.050 -0.0095 -0.1225  0.5482
  732MOL0     C96507   1.521   6.516   7.954 -0.5013  0.4197 -0.0399
  732MOL0     C96508   1.380   6.526   8.022  0.3994  0.7774  0.0162
  732MOL0     N96509   1.330   6.393   8.077  0.1287  0.3651  0.3778
  732MOL0     C96510   1.191   6.376   8.108 -0.1014  0.5948 -0.1728
  732MOL0     C96511   1.184   6.276   8.201  0.2345  0.1098  0.0250
  732MOL0     C96512   1.056   6.226   8.276 -0.3210 -0.2209  0.2726
  732MOL0     C96513   0.948   6.184   8.175  0.6853 -0.0972 -0.0670
  732MOL0     C96514   0.833   6.122   8.249 -0.9669  0.6491 -0.4160
  732MOL0     C96515   0.699   6.141   8.171  0.1781  0.0919  0.6687
  732MOL0     O96516   0.592   6.128   8.259 -0.9207  1.0619 -0.2349
  732MOL0     C96517   0.463   6.119   8.224  0.0357 -0.0681  0.2750
  732MOL0     C96518   0.409   6.121   8.093 -0.0939  0.6609 -0.6683
  732MOL0     C96519   0.274   6.119   8.061  0.8460 -0.0177  0.2273
  732MOL0     C96520   0.180   6.111   8.163 -0.6570 -0.0060 -0.4377
  732MOL0     C96521   0.035   6.099   8.131  0.3973 -0.2799  0.4318
  732MOL0     O96522  -0.047   6.086   8.248 -0.0040  0.1803 -0.4661
  732MOL0     C96523  -0.185   6.100   8.232 -0.1553  0.4054 -0.5193
  732MOL0     C96524  -0.250   6.215   8.282 -0.7378  1.1122 -0.3969
  732MOL0     C96525  -0.383   6.231   8.268  0.3313  0.1839  0.6248
  732MOL0     C96526  -0.462   6.132   8.206  1.2998 -0.3999  0.2361
  732MOL0     O96527  -0.600   6.155   8.198  0.5881  0.4561 -0.2763
  732MOL0     C96528  -0.691   6.053   8.157 -0.6489  0.3958 -0.6216
  732MOL0     C96529  -0.706   6.074   8.010  1.0228  0.9745  0.4313
  732MOL0     C96530  -0.746   6.212   7.965  0.1444 -0.6579  0.2342
  732MOL0     C96531  -0.894   6.258   7.980  0.3880 -0.6841  0.3467
  732MOL0     C96532  -0.919   6.395   7.917 -0.0651 -0.0961 -0.6742
  732MOL0     C96533  -1.062   6.438   7.939  0.2232 -0.3587 -0.4842
  732MOL0     C96534  -1.093   6.569   7.867 -0.0048  0.5077  0.6215
  732MOL0     C96535  -1.235   6.571   7.822 -0.2974  0.3811  0.4589
  732MOL0    Cl96536  -1.301   6.737   7.800  0.0661  0.1768 -0.5981
  732MOL0     C96537  -0.394   6.019   8.156  0.8412 -0.3004  0.2624
  732MOL0     C96538  -0.257   6.004   8.170  0.0279 -0.1132 -0.1092
  732MOL0     O96539  -0.010   6.128   8.017 -1.1684 -0.3153 -0.7958
  732MOL0     C96540   0.228   6.117   8.298 -0.0008 -0.0749  0.6054
  732MOL0     C96541   0.363   6.114   8.326  0.4830 -0.8763 -0.4828
  732MOL0     N96542   1.319   6.233   8.215 -0.1537 -0.5822  0.0742
  732MOL0     N96543   1.400   6.302   8.149  1.1997 -0.4435  0.1771
  732MOL0     C96544   2.441   6.802   7.744  0.6265 -0.3268 -0.3623
  732MOL0     C96545   2.563   6.834   7.691 -0.3791 -0.4623 -0.3035
  732MOL0     C96546   2.995   6.985   7.711 -0.8017 -0.0829  0.9609
  732MOL0     C96547   3.043   7.117   7.725 -0.2808 -0.2082 -0.0345
  732MOL0     C96548   3.180   7.145   7.697  0.5221  0.6113  0.2559
  732MOL0     C96549   3.265   7.045   7.659 -0.2676 -0.9596  0.0990
  732MOL0     O96550   3.392   7.090   7.622  0.5595 -0.2126 -0.5214
  732MOL0     C96551   3.489   6.996   7.599 -0.8123  0.3914 -0.1360
  732MOL0     C96552   3.604   7.083   7.549  0.4411 -0.4998  0.3999
  732MOL0     C96553   3.743   7.027   7.550 -0.2078 -0.6711 -0.1067
  732MOL0     C96554   3.852   7.136   7.584  0.3131 -0.2851  0.1120
  732MOL0     C96555   3.980   7.072   7.576 -0.3053 -0.7429  0.3195
  732MOL0     C96556   4.092   7.033   7.603  0.1340 -0.0500 -0.5173
  732MOL0     C96557   3.223   6.918   7.648 -0.0878 -0.3082  0.0173
  732MOL0     C96558   3.092   6.882   7.671 -0.0918 -0.2949  0.5242
  732MOL0     H96559   2.756   6.622   7.874  0.9469  0.9200 -0.5832
  732MOL0     H96560   2.552   6.565   7.961  2.0150 -0.8663 -1.4435
  732MOL0     H96561   2.375   6.579   8.074  2.0874 -2.7852 -0.5964
  732MOL0     H96562   2.291   6.494   7.947 -1.6846 -0.1146 -0.7343
  732MOL0     H96563   2.142   6.708   8.102 -0.0224 -0.3835 -0.0404
  732MOL0     H96564   2.165   6.546   8.166  1.3930  1.1477  0.0443
  732MOL0     H96565   2.071   6.464   7.943  1.1568  1.1447 -0.5979
  732MOL0     H96566   2.017   6.630   7.902 -1.5222 -0.3804 -0.8957
  732MOL0     H96567   1.919   6.440   8.125 -1.6785 -1.9034 -2.1951
  732MOL0     H96568   1.882   6.609   8.130  0.8154 -0.4411  0.9530
  732MOL0     H96569   1.809   6.412   7.911  3.0030  0.4319 -0.9350
  732MOL0     H96570   1.778   6.579   7.892  1.0220 -0.0146 -0.2547
  732MOL0     H96571   1.656   6.588   8.117  2.6590  0.2410 -0.3278
  732MOL0     H96572   1.633   6.410   8.109  0.8406 -0.4129  0.2471
  732MOL0     H96573   1.522   6.601   7.885  1.4621 -2.8664 -4.5157
  732MOL0     H96574   1.527   6.424   7.895  1.5961 -0.4894  1.4614
  732MOL0     H96575   1.313   6.564   7.944 -1.0682 -3.5636 -1.1409
  732MOL0     H96576   1.374   6.597   8.105  1.4746  1.1743 -0.2274
  732MOL0     H96577   1.110   6.438   8.070 -0.2809  1.3828  1.4130
  732MOL0     H96578   1.029   6.308   8.343  0.3509  1.1219 -1.0327
  732MOL0     H96579   1.075   6.143   8.346  2.1499  1.8013  2.1934
  732MOL0     H96580   0.976   6.109   8.101 -2.5929  0.2140 -1.7819
  732MOL0     H96581   0.926   6.274   8.118  2.5004  0.1495 -0.4415
  732MOL0     H96582   0.858   6.019   8.276  0.9715  1.2907  0.4384
  732MOL0     H96583   0.813   6.179   8.341 -0.8791 -1.4378  0.9454
  732MOL0     H96584   0.693   6.058   8.100  1.8702 -0.6816  1.3851
  732MOL0     H96585   0.708   6.235   8.115  3.7698  0.8905  2.3068
  732MOL0     H96586   0.477   6.132   8.008 -0.8161  2.3955 -1.0483
  732MOL0     H96587   0.241   6.118   7.958 -2.2849  1.1243  1.1123
  732MOL0     H96588  -0.190   6.284   8.340 -0.2339 -0.6773  1.3164
  732MOL0     H96589  -0.432   6.324   8.298  3.8358  1.4982  2.9686
  732MOL0     H96590  -0.781   6.066   8.218 -0.7283  0.1723 -0.6902
  732MOL0     H96591  -0.647   5.954   8.172 -2.0337 -0.3863 -1.5298
  732MOL0     H96592  -0.787   6.008   7.975  0.5698  0.5779  2.1286
  732MOL0     H96593  -0.622   6.038   7.949 -1.5912  2.1552 -4.3708
  732MOL0     H96594  -0.723   6.215   7.858  0.7746 -0.6189  0.3691
  732MOL0     H96595  -0.691   6.283   8.027 -0.6163  1.1255 -1.0192
  732MOL0     H96596  -0.944   6.184   7.917 -1.9205  2.2019 -1.4890
  732MOL0     H96597  -0.933   6.253   8.082 -2.0234  3.7091 -0.0926
  732MOL0     H96598  -0.895   6.387   7.811  0.7749  1.6843 -0.6498
  732MOL0     H96599  -0.846   6.470   7.947  0.5320 -1.0352  0.3289
  732MOL0     H96600  -1.080   6.444   8.047  0.6097 -1.5590 -0.3384
  732MOL0     H96601  -1.135   6.368   7.898 -1.1623  0.8827 -0.2700
  732MOL0     H96602  -1.093   6.655   7.935 -1.5234  3.2078 -2.5010
  732MOL0     H96603  -1.017   6.587   7.791 -0.5079 -1.7872 -0.5183
  732MOL0     H96604  -1.309   6.518   7.883 -0.7341  0.2638 -0.1673
  732MOL0     H96605  -1.231   6.545   7.716 -1.1351 -1.0994  0.7676
  732MOL0     H96606  -0.448   5.944   8.100  1.2374 -0.7665  0.4926
  732MOL0     H96607  -0.220   5.911   8.129  0.3372  0.7881 -1.9920
  732MOL0     H96608   0.161   6.115   8.384  0.5417  0.6660  1.0515
  732MOL0     H96609   0.399   6.126   8.427  1.1398  1.4423 -0.9274
  732MOL0     H96610   2.353   6.853   7.707 -0.8489 -1.5495  1.2852
  732MOL0     H96611   2.579   6.919   7.625  0.0013 -0.7097 -0.5333
  732MOL0     H96612   2.978   7.198   7.758 -0.6713 -0.9076  0.9789
  732MOL0     H96613   3.217   7.247   7.692  0.9942  0.5304  1.7209
  732MOL0     H96614   3.467   6.923   7.521  1.1097 -1.0352  0.5719
  732MOL0     H96615   3.521   6.941   7.688  1.6172  0.2263 -1.0304
  732MOL0     H96616   3.578   7.138   7.458 -1.5154  0.3594  1.4233
  732MOL0     H96617   3.598   7.169   7.616 -0.7882  1.0564 -1.6043
  732MOL0     H96618   3.771   6.980   7.455 -0.8108  1.7613 -1.5681
  732MOL0     H96619   3.744   6.946   7.624 -1.1021 -1.0457 -0.4911
  732MOL0     H96620   3.845   7.228   7.527 -0.6127  0.4044  1.2946
  732MOL0     H96621   3.847   7.164   7.690  0.5177  2.1268 -0.4651
  732MOL0     H96622   4.190   7.001   7.630 -0.4996 -2.4190 -0.7995
  732MOL0     H96623   3.290   6.838   7.616 -2.2073 -1.3939 -1.9779
  732MOL0     H96624   3.062   6.779   7.653 -1.6654  0.0442  1.0165
  733MOL0     O96625   1.937  10.662   5.005  0.1971  0.1270  0.9728
  733MOL0     C96626   1.916  10.579   4.912  1.1704 -0.0543 -0.2838
  733MOL0     O96627   1.794  10.517   4.884 -0.3070 -0.5995 -0.0887
  733MOL0     C96628   1.675  10.555   4.943  0.4339 -0.2827 -0.5161
  733MOL0     C96629   1.562  10.492   4.891  0.1862 -0.3000 -0.1256
  733MOL0     C96630   1.441  10.514   4.962  0.4394  0.4424 -0.5440
  733MOL0     C96631   1.424  10.620   5.065  0.4524  0.8421  0.6495
  733MOL0     O96632   1.304  10.655   5.112  0.0831  0.1188  0.3285
  733MOL0     C96633   1.190  10.578   5.075 -0.2530  0.4002  0.1957
  733MOL0     C96634   1.065  10.629   5.147 -0.1856  0.2787  0.9647
  733MOL0     C96635   0.942  10.546   5.125 -0.3663  0.4376 -0.1889
  733MOL0     C96636   0.825  10.632   5.176 -0.0135  0.4222 -0.2484
  733MOL0     C96637   0.701  10.542   5.169 -0.2586 -0.5526  0.1852
  733MOL0     C96638   0.592  10.620   5.244 -0.1298  0.3096 -0.7092
  733MOL0     C96639   0.452  10.543   5.246 -0.8524 -0.2643 -0.3621
  733MOL0     C96640   0.328  10.630   5.242 -1.1980 -0.0064 -0.8030
  733MOL0     N96641   0.210  10.546   5.221  0.6825  0.2391 -1.0152
  733MOL0     C96642   0.176  10.497   5.094  0.2840  0.1593 -0.5329
  733MOL0     C96643   0.060  10.433   5.129  0.1113 -0.4054 -0.3575
  733MOL0     C96644  -0.020  10.351   5.037  0.1946 -0.4550 -0.6922
  733MOL0     C96645   0.048  10.215   5.023  0.1456  0.9605  1.5068
  733MOL0     C96646   0.066  10.129   5.151  0.5495  0.1793  0.3781
  733MOL0     C96647  -0.061  10.123   5.233 -0.5541 -0.5810  0.6621
  733MOL0     O96648  -0.033  10.027   5.335  0.7379  0.3867 -0.3002
  733MOL0     C96649  -0.145   9.978   5.396  0.4196 -0.4936  0.9117
  733MOL0     C96650  -0.238  10.067   5.449  0.9063 -1.0208  0.0247
  733MOL0     C96651  -0.359  10.022   5.500  0.3654  0.3452  0.1039
  733MOL0     C96652  -0.399   9.886   5.498 -0.3567  0.1949  0.4221
  733MOL0     C96653  -0.524   9.837   5.552 -0.5340  0.5113 -0.3402
  733MOL0     O96654  -0.593   9.921   5.634 -0.8624  0.5372 -1.0193
  733MOL0     C96655  -0.715   9.876   5.689 -1.3091  0.0790 -0.6310
  733MOL0     C96656  -0.702   9.787   5.792 -0.3561 -0.1720  0.2665
  733MOL0     C96657  -0.819   9.720   5.837 -0.4138 -0.7284 -1.0307
  733MOL0     C96658  -0.944   9.755   5.777 -0.7895  0.3291 -0.2095
  733MOL0     O96659  -1.060   9.694   5.813 -0.9364  0.7113  0.3469
  733MOL0     C96660  -1.097   9.692   5.950  0.2434  0.2691 -0.3705
  733MOL0     C96661  -1.242   9.748   5.965 -0.5811 -0.0264 -0.3436
  733MOL0     C96662  -1.358   9.671   5.910  0.1857  0.5084 -0.4558
  733MOL0     C96663  -1.380   9.701   5.765  0.2570  0.5070 -0.3293
  733MOL0     C96664  -1.457   9.588   5.694  0.1846 -0.0629  0.8209
  733MOL0     C96665  -1.473   9.618   5.550  0.3200 -0.7148  0.2077
  733MOL0     C96666  -1.584   9.531   5.488  0.5117  0.2889 -0.2458
  733MOL0     C96667  -1.609   9.556   5.336  0.5543  0.1279 -0.7775
  733MOL0    Cl96668  -1.714   9.428   5.274 -0.1051  0.2497 -0.2323
  733MOL0     C96669  -0.949   9.855   5.679 -0.1333  0.5757 -0.0991
  733MOL0     C96670  -0.835   9.920   5.635  0.0660  0.2928  0.9974
  733MOL0     O96671  -0.555   9.713   5.530  0.3177  0.4055 -0.4753
  733MOL0     C96672  -0.309   9.797   5.438  0.1510 -0.1261  0.0047
  733MOL0     C96673  -0.186   9.841   5.388 -0.2720  0.0285  0.3627
  733MOL0     N96674   0.023  10.450   5.263  0.7539  0.2027 -0.5931
  733MOL0     N96675   0.118  10.510   5.315  0.0299 -0.5831 -0.1969
  733MOL0     C96676   1.538  10.685   5.101 -0.0224 -0.2948 -0.2047
  733MOL0     C96677   1.666  10.649   5.049 -0.2560  0.7078 -0.3158
  733MOL0     C96678   2.034  10.526   4.839  0.3777  0.3118 -0.0593
  733MOL0     C96679   2.004  10.438   4.730 -0.0648  0.2206  0.8671
  733MOL0     C96680   2.105  10.371   4.654 -0.1959  0.9316 -0.7920
  733MOL0     C96681   2.235  10.398   4.682 -0.4550 -0.5713  0.9819
  733MOL0     O96682   2.348  10.367   4.600  0.7548 -0.1433  0.5248
  733MOL0     C96683   2.327  10.282   4.484 -0.0403 -0.0815 -0.2836
  733MOL0     C96684   2.461  10.203   4.467 -0.6799  0.4242  0.2268
  733MOL0     C96685   2.577  10.293   4.420  0.3222 -0.5520 -0.3615
  733MOL0     C96686   2.705  10.210   4.392 -0.0218 -0.3850  0.1442
  733MOL0     C96687   2.762  10.151   4.510 -0.2439 -0.6350 -0.3559
  733MOL0     C96688   2.817  10.092   4.601 -0.1990  0.3796 -0.5905
  733MOL0     C96689   2.266  10.479   4.789 -0.4530  0.0524  0.0742
  733MOL0     C96690   2.172  10.542   4.869  0.7386  0.5637  0.5792
  733MOL0     H96691   1.572  10.412   4.818 -0.5511  1.3216 -2.1046
  733MOL0     H96692   1.354  10.451   4.943  1.9689 -1.6230 -1.1010
  733MOL0     H96693   1.199  10.475   5.111  1.9529  0.3270 -0.4032
  733MOL0     H96694   1.168  10.577   4.968  0.2364  1.6672  0.0687
  733MOL0     H96695   1.039  10.731   5.115 -2.0377 -0.3129  0.4475
  733MOL0     H96696   1.078  10.618   5.255  2.0585 -0.8057  0.6294
  733MOL0     H96697   0.937  10.457   5.187 -1.3787 -1.4069 -2.7578
  733MOL0     H96698   0.918  10.510   5.025 -0.1286 -1.2561  0.3366
  733MOL0     H96699   0.845  10.669   5.277  1.4971 -0.2251 -0.2845
  733MOL0     H96700   0.816  10.721   5.113  0.6441  0.1956 -0.6680
  733MOL0     H96701   0.728  10.454   5.228  0.8397  0.6915  1.6259
  733MOL0     H96702   0.676  10.520   5.065 -0.2018 -2.8223  0.5891
  733MOL0     H96703   0.576  10.712   5.187  0.6386  0.8839 -0.0204
  733MOL0     H96704   0.620  10.650   5.346  1.5854  1.4918 -1.4855
  733MOL0     H96705   0.460  10.479   5.157  3.9753  0.0927 -0.4338
  733MOL0     H96706   0.456  10.468   5.326  2.3710  1.7183  1.5892
  733MOL0     H96707   0.336  10.703   5.161  2.4810  1.9343  1.0964
  733MOL0     H96708   0.327  10.687   5.335  3.2172 -0.1774 -0.4584
  733MOL0     H96709   0.223  10.511   4.998  1.1284 -2.2759 -0.5243
  733MOL0     H96710  -0.027  10.397   4.938  1.8744  0.5242 -0.3993
  733MOL0     H96711  -0.120  10.350   5.083  0.9055 -0.5929  0.9156
  733MOL0     H96712   0.138  10.229   4.963 -2.5123  3.0290 -2.4708
  733MOL0     H96713  -0.018  10.160   4.955 -1.0001  1.4312  2.2164
  733MOL0     H96714   0.086  10.028   5.115  0.6657  0.6462 -0.9565
  733MOL0     H96715   0.146  10.173   5.211  1.9976  1.4775 -2.3091
  733MOL0     H96716  -0.142  10.082   5.171 -1.0679  1.2352  0.0705
  733MOL0     H96717  -0.093  10.222   5.267  1.1488  0.7035 -1.2135
  733MOL0     H96718  -0.220  10.174   5.450  0.5499 -0.9336 -1.1490
  733MOL0     H96719  -0.419  10.096   5.551 -1.1718 -0.3337 -0.6725
  733MOL0     H96720  -0.611   9.756   5.844  0.2134 -0.9084 -1.1351
  733MOL0     H96721  -0.804   9.648   5.917  2.3624  1.7772  0.9563
  733MOL0     H96722  -1.028   9.751   6.011  2.6761 -0.9424 -1.7858
  733MOL0     H96723  -1.086   9.595   6.001 -2.6927  0.3063  0.4936
  733MOL0     H96724  -1.239   9.853   5.935 -1.9755  0.2165  0.2901
  733MOL0     H96725  -1.256   9.748   6.073 -0.7912 -1.5037 -0.3564
  733MOL0     H96726  -1.449   9.687   5.970 -1.1036 -3.5590 -1.0331
  733MOL0     H96727  -1.332   9.566   5.928 -0.7572  0.5652  1.5182
  733MOL0     H96728  -1.443   9.789   5.747 -2.5728 -1.7805 -2.7370
  733MOL0     H96729  -1.284   9.721   5.715  0.6128 -1.2635 -0.4183
  733MOL0     H96730  -1.556   9.589   5.741  0.1894  1.0961  0.8383
  733MOL0     H96731  -1.408   9.491   5.704  0.6737  0.0903 -0.0176
  733MOL0     H96732  -1.383   9.592   5.493  0.3087 -1.4510  0.5109
  733MOL0     H96733  -1.497   9.724   5.540 -1.2975 -0.7511  2.7860
  733MOL0     H96734  -1.567   9.424   5.505  0.2140  0.1279 -0.9422
  733MOL0     H96735  -1.679   9.554   5.537 -0.3705 -1.6246 -0.9671
  733MOL0     H96736  -1.516   9.554   5.279  0.3446 -0.5998 -1.1055
  733MOL0     H96737  -1.655   9.655   5.323 -0.2974  0.0125  1.1325
  733MOL0     H96738  -1.048   9.882   5.644 -0.7375 -1.1347  0.1659
  733MOL0     H96739  -0.833   9.999   5.561 -0.4705  1.1353  1.8521
  733MOL0     H96740  -0.342   9.697   5.414 -2.7710  0.5053  0.9447
  733MOL0     H96741  -0.116   9.775   5.339  1.3159  0.8532  1.4595
  733MOL0     H96742   1.536  10.771   5.168 -0.6526  0.7840 -1.5543
  733MOL0     H96743   1.749  10.696   5.101  1.1022  0.5203 -2.1910
  733MOL0     H96744   1.907  10.411   4.689  2.2328 -4.4723 -2.3950
  733MOL0     H96745   2.064  10.315   4.571 -2.1096  2.4191 -0.9354
  733MOL0     H96746   2.303  10.334   4.391  0.8162 -0.7947 -0.9151
  733MOL0     H96747   2.254  10.204   4.510 -0.3656 -0.0306 -1.0056
  733MOL0     H96748   2.482  10.148   4.559 -1.1941 -1.6666 -0.8609
  733MOL0     H96749   2.446  10.127   4.390 -2.1711 -1.9850  2.7380
  733MOL0     H96750   2.611  10.367   4.494 -2.4896 -0.7057  1.2009
  733MOL0     H96751   2.553  10.354   4.333  3.4983  0.1899 -0.8746
  733MOL0     H96752   2.669  10.132   4.323 -1.3437 -0.5138  0.9406
  733MOL0     H96753   2.780  10.274   4.345  3.0157 -3.3215  0.6012
  733MOL0     H96754   2.864  10.051   4.688  0.6113  0.7863 -0.8257
  733MOL0     H96755   2.366  10.498   4.829  0.0195 -0.5920 -0.7793
  733MOL0     H96756   2.205  10.594   4.959 -0.1282  1.0224  0.6420
  734MOL0     O96757   8.073   6.238   5.200 -0.3473 -0.0661 -0.4461
  734MOL0     C96758   8.104   6.134   5.254  0.1478 -0.0661  1.3250
  734MOL0     O96759   8.022   6.056   5.336 -0.4265 -0.4067 -0.4949
  734MOL0     C96760   7.886   6.080   5.337 -0.1988 -0.5084  0.2621
  734MOL0     C96761   7.808   6.122   5.230  0.2397 -0.5202  0.8844
  734MOL0     C96762   7.667   6.143   5.239 -0.7714  0.1790 -0.0531
  734MOL0     C96763   7.607   6.111   5.363  1.2266  0.1982  0.2705
  734MOL0     O96764   7.469   6.113   5.388 -0.2485 -0.3963 -0.6418
  734MOL0     C96765   7.373   6.081   5.289 -0.2377  0.4126 -1.1754
  734MOL0     C96766   7.253   6.014   5.363 -0.1055  0.2994 -0.1722
  734MOL0     C96767   7.166   6.086   5.468 -0.4034 -0.2364  0.2791
  734MOL0     C96768   7.047   5.992   5.494  0.1005  0.2821  0.3722
  734MOL0     C96769   6.968   6.065   5.609 -0.6337  0.0779 -0.4929
  734MOL0     C96770   6.826   6.011   5.610  0.5885 -0.7225 -0.7085
  734MOL0     C96771   6.747   6.078   5.733 -0.7190  0.5566  0.8678
  734MOL0     C96772   6.595   6.081   5.707  0.3676  0.0219  0.5578
  734MOL0     N96773   6.527   5.951   5.702 -0.4922  0.1827 -0.8340
  734MOL0     C96774   6.477   5.876   5.805 -0.4704 -0.0453 -0.7195
  734MOL0     C96775   6.419   5.770   5.745 -1.2885  0.1692  0.3214
  734MOL0     C96776   6.325   5.678   5.818  1.0750 -0.3846  0.6655
  734MOL0     C96777   6.181   5.685   5.759 -0.0465  0.2323  0.1362
  734MOL0     C96778   6.096   5.802   5.824 -0.2712  0.3459 -0.4413
  734MOL0     C96779   5.936   5.804   5.788 -0.3745  0.6562  0.3886
  734MOL0     O96780   5.886   5.670   5.809 -0.5042  0.2084  0.1301
  734MOL0     C96781   5.755   5.648   5.781  0.1676  0.3285  0.7946
  734MOL0     C96782   5.653   5.747   5.766 -0.7259  0.6094 -0.7526
  734MOL0     C96783   5.526   5.710   5.742  0.2872 -0.2977  0.6084
  734MOL0     C96784   5.491   5.575   5.723 -0.0930  0.0713  0.6917
  734MOL0     C96785   5.357   5.539   5.679 -0.0021  0.5867  0.2987
  734MOL0     O96786   5.266   5.635   5.690  0.4493  0.2047  0.1480
  734MOL0     C96787   5.139   5.592   5.646  0.4486  0.5124  0.0197
  734MOL0     C96788   5.046   5.519   5.721  0.3745 -0.3975 -0.1077
  734MOL0     C96789   4.921   5.475   5.662 -0.4018 -0.4882  0.0740
  734MOL0     C96790   4.893   5.501   5.528  0.3779  0.2864 -0.8200
  734MOL0     O96791   4.788   5.445   5.459  0.0066  0.2862 -0.2753
  734MOL0     C96792   4.719   5.335   5.515  0.6339 -0.0352 -0.0749
  734MOL0     C96793   4.589   5.321   5.435 -0.1156  0.0445  0.4383
  734MOL0     C96794   4.528   5.182   5.457  0.3075  0.1943 -0.4432
  734MOL0     C96795   4.380   5.176   5.418  0.5656  0.8539  0.3380
  734MOL0     C96796   4.286   5.104   5.512  0.5390  0.1749  0.1881
  734MOL0     C96797   4.141   5.153   5.493  0.1070  0.1738  0.1058
  734MOL0     C96798   4.058   5.085   5.600  0.0818  0.3097 -0.5982
  734MOL0     C96799   3.909   5.137   5.597  0.1938 -0.2463 -0.5336
  734MOL0    Cl96800   3.830   5.130   5.431 -0.0796  0.5325 -0.1741
  734MOL0     C96801   4.994   5.561   5.447 -0.2961 -0.0672 -1.7766
  734MOL0     C96802   5.111   5.606   5.508  0.2278  0.0425  0.2307
  734MOL0     O96803   5.346   5.432   5.614 -0.2576 -0.3018 -0.1893
  734MOL0     C96804   5.591   5.475   5.731 -0.0213 -0.5297 -0.5505
  734MOL0     C96805   5.720   5.517   5.767  0.3556 -0.5452  0.1109
  734MOL0     N96806   6.472   5.753   5.622 -0.0659  0.5715 -0.3253
  734MOL0     N96807   6.529   5.865   5.599 -0.8636  0.4188 -0.5506
  734MOL0     C96808   7.675   6.065   5.471 -0.6173 -0.5371 -0.3948
  734MOL0     C96809   7.815   6.058   5.458 -0.0384 -0.5177 -0.4075
  734MOL0     C96810   8.237   6.088   5.231  0.0259 -0.0355 -0.4992
  734MOL0     C96811   8.343   6.177   5.187  0.6762  0.1598  1.1201
  734MOL0     C96812   8.473   6.127   5.172  0.9601  0.1344 -0.1947
  734MOL0     C96813   8.491   5.991   5.198 -0.1743 -0.4799 -0.1104
  734MOL0     O96814   8.624   5.943   5.192 -0.3047  0.0660 -0.5180
  734MOL0     C96815   8.710   5.958   5.307 -0.3548 -0.2730  0.6927
  734MOL0     C96816   8.661   5.905   5.436  0.5002  0.3966  0.0472
  734MOL0     C96817   8.765   5.900   5.552 -0.4158  0.3599  0.6591
  734MOL0     C96818   8.841   6.021   5.557  0.1871  0.3383 -0.6377
  734MOL0     C96819   8.920   6.021   5.681  0.5604 -0.0222  0.0136
  734MOL0     C96820   8.987   6.022   5.786 -0.0680 -0.2000 -1.0072
  734MOL0     C96821   8.395   5.902   5.231 -0.3556 -0.0198  0.0974
  734MOL0     C96822   8.264   5.951   5.251 -0.1344 -0.2542 -0.3471
  734MOL0     H96823   7.848   6.139   5.130 -0.4961 -1.0509  0.4887
  734MOL0     H96824   7.598   6.177   5.163 -0.0872  1.3079 -0.1813
  734MOL0     H96825   7.415   6.004   5.223  0.2911 -0.7078  0.4181
  734MOL0     H96826   7.343   6.169   5.232  1.2369  1.8362  0.1553
  734MOL0     H96827   7.291   5.921   5.408  0.5994  0.4476 -0.4453
  734MOL0     H96828   7.188   5.985   5.279  1.8659 -0.4677 -1.5077
  734MOL0     H96829   7.121   6.181   5.438  0.2495  0.3966  1.2485
  734MOL0     H96830   7.230   6.097   5.556 -0.3131  1.2696  0.0473
  734MOL0     H96831   6.986   5.969   5.407 -0.3789  1.4128  0.4039
  734MOL0     H96832   7.084   5.896   5.533 -0.8066 -1.1262 -2.0503
  734MOL0     H96833   6.978   6.172   5.588  1.0268  0.0087 -0.1950
  734MOL0     H96834   7.014   6.063   5.708 -3.5547 -1.9310  0.9507
  734MOL0     H96835   6.830   5.902   5.620  1.2169 -0.7032 -0.6809
  734MOL0     H96836   6.774   6.026   5.515 -1.3470  2.3083  0.6943
  734MOL0     H96837   6.787   6.022   5.819  0.5265 -1.9832 -1.2094
  734MOL0     H96838   6.772   6.182   5.755  3.3684 -0.5721  2.3982
  734MOL0     H96839   6.576   6.135   5.614 -1.2132 -0.0014  0.8459
  734MOL0     H96840   6.546   6.137   5.787 -0.6791 -0.0287 -0.0366
  734MOL0     H96841   6.455   5.915   5.904 -0.3079 -0.3696 -0.5568
  734MOL0     H96842   6.325   5.708   5.923 -0.9367 -2.2519  1.2885
  734MOL0     H96843   6.354   5.573   5.816 -1.3309 -1.1124  0.3375
  734MOL0     H96844   6.123   5.597   5.789 -1.2976  0.7529 -0.6510
  734MOL0     H96845   6.174   5.699   5.651 -1.7262  0.3776  0.2362
  734MOL0     H96846   6.095   5.792   5.933  0.6807  4.5595  0.1135
  734MOL0     H96847   6.150   5.896   5.810  1.7186 -0.4955  1.2222
  734MOL0     H96848   5.913   5.821   5.683  1.2934 -1.8468 -0.4564
  734MOL0     H96849   5.882   5.881   5.844 -2.3435  0.8742 -1.7248
  734MOL0     H96850   5.677   5.852   5.780  0.9430  0.4713 -2.1170
  734MOL0     H96851   5.449   5.786   5.735  0.7960  0.0966 -1.7304
  734MOL0     H96852   5.062   5.498   5.827  0.5516 -0.1550 -0.0855
  734MOL0     H96853   4.857   5.418   5.729  1.7930 -3.7648 -0.3502
  734MOL0     H96854   4.690   5.352   5.619 -2.7091  0.1820 -0.9093
  734MOL0     H96855   4.787   5.252   5.497  0.2415  0.0659 -2.3029
  734MOL0     H96856   4.609   5.343   5.329  1.9099  1.8283  1.1137
  734MOL0     H96857   4.519   5.398   5.469 -1.4878 -0.5971 -0.7959
  734MOL0     H96858   4.536   5.162   5.565  0.0188 -2.0977 -0.7824
  734MOL0     H96859   4.595   5.117   5.400  1.0197  0.3041  0.2435
  734MOL0     H96860   4.335   5.276   5.417 -0.8941  0.2593  1.5112
  734MOL0     H96861   4.373   5.139   5.315 -0.9214 -1.6012  1.2293
  734MOL0     H96862   4.319   5.114   5.615 -0.4176  0.8135  0.4401
  734MOL0     H96863   4.284   4.996   5.497 -1.2699  0.2823 -0.5293
  734MOL0     H96864   4.105   5.139   5.391  0.2302  1.2863 -0.1044
  734MOL0     H96865   4.133   5.262   5.496 -0.4131  0.1646 -0.6958
  734MOL0     H96866   4.050   4.977   5.586 -3.4074  0.3251  0.4010
  734MOL0     H96867   4.082   5.112   5.704 -1.5518  2.0831 -0.6258
  734MOL0     H96868   3.916   5.241   5.629  0.2428 -0.1426 -0.8832
  734MOL0     H96869   3.849   5.092   5.677  0.8824 -1.9340 -0.9229
  734MOL0     H96870   4.975   5.570   5.341  0.5212 -0.9298 -2.0121
  734MOL0     H96871   5.198   5.630   5.447  0.4860 -2.2797 -0.4051
  734MOL0     H96872   5.583   5.368   5.717  2.0304 -1.0114  1.3387
  734MOL0     H96873   5.790   5.435   5.778 -1.9141 -2.5760  0.3011
  734MOL0     H96874   7.624   6.044   5.564 -1.4163 -0.0818 -0.7210
  734MOL0     H96875   7.869   6.038   5.549 -2.7567  1.3783  1.8108
  734MOL0     H96876   8.340   6.284   5.176  2.7554  0.3040  1.5109
  734MOL0     H96877   8.560   6.192   5.161  0.0198  1.5549  0.4520
  734MOL0     H96878   8.727   6.065   5.318  2.4632 -0.2807 -1.9927
  734MOL0     H96879   8.811   5.921   5.289 -1.4489 -1.6835 -3.5981
  734MOL0     H96880   8.578   5.966   5.474  1.7983  0.4232  3.1435
  734MOL0     H96881   8.631   5.802   5.417 -0.0815  0.0083  2.6727
  734MOL0     H96882   8.822   5.807   5.543 -0.6123  0.3468 -0.5799
  734MOL0     H96883   8.715   5.883   5.648 -2.4155 -1.7474 -0.6497
  734MOL0     H96884   8.913   6.021   5.475 -0.4791 -2.6535 -1.3218
  734MOL0     H96885   8.779   6.112   5.553  0.9586  0.8599 -0.9508
  734MOL0     H96886   9.057   6.011   5.867 -0.3490 -5.6387 -1.1523
  734MOL0     H96887   8.430   5.799   5.242  1.1450  0.2888 -1.3964
  734MOL0     H96888   8.189   5.878   5.277  0.0740 -0.7986 -1.2489
  735MOL0     O96889   3.180   2.082  10.426  0.4076 -0.0218 -0.2737
  735MOL0     C96890   3.225   2.149  10.519 -0.8609 -1.0350  0.4298
  735MOL0     O96891   3.144   2.229  10.598 -0.0388  0.7109  0.7694
  735MOL0     C96892   3.010   2.221  10.572  1.0269 -0.0841  0.0094
  735MOL0     C96893   2.956   2.259  10.449  1.0181  0.7900 -0.4027
  735MOL0     C96894   2.827   2.223  10.421  0.9490 -0.3985 -0.2325
  735MOL0     C96895   2.747   2.165  10.514  0.5988 -0.1506 -0.8025
  735MOL0     O96896   2.612   2.148  10.484  0.4669 -0.7867 -0.6675
  735MOL0     C96897   2.518   2.146  10.591  0.3751 -0.3872  0.0600
  735MOL0     C96898   2.381   2.116  10.538 -0.2831 -0.1125  0.1420
  735MOL0     C96899   2.350   2.214  10.412  0.3994  1.2551 -0.6625
  735MOL0     C96900   2.202   2.183  10.366  0.7348  0.0238  0.2613
  735MOL0     C96901   2.157   2.266  10.259 -0.6032  1.0373 -0.1742
  735MOL0     C96902   2.008   2.234  10.219 -0.0724  0.1020  0.2001
  735MOL0     C96903   1.908   2.274  10.331  0.6546  0.8670 -0.4623
  735MOL0     C96904   1.788   2.342  10.290  0.3427  0.1002 -0.6637
  735MOL0     N96905   1.693   2.256  10.220  0.1694  0.1085  0.0350
  735MOL0     C96906   1.716   2.215  10.098  0.1574 -0.4659 -0.6740
  735MOL0     C96907   1.611   2.131  10.069 -0.2633  0.2009  0.0658
  735MOL0     C96908   1.596   2.038   9.953  0.2714 -0.4299 -0.4367
  735MOL0     C96909   1.514   2.091   9.845 -0.2476  0.1931 -0.0816
  735MOL0     C96910   1.514   2.005   9.717 -0.0686 -0.2308 -0.3043
  735MOL0     C96911   1.419   2.063   9.615  0.3852  0.2470 -0.6126
  735MOL0     O96912   1.427   2.016   9.482 -0.1853  0.6159 -0.4182
  735MOL0     C96913   1.339   2.067   9.392 -0.3811  0.5164 -0.1272
  735MOL0     C96914   1.257   2.178   9.404 -1.3034  0.6034 -0.2528
  735MOL0     C96915   1.162   2.216   9.306  0.1731  0.4478 -0.7274
  735MOL0     C96916   1.165   2.149   9.188  0.1477 -0.1728  0.3935
  735MOL0     C96917   1.086   2.194   9.078  0.3649  1.1303  0.9999
  735MOL0     O96918   1.121   2.138   8.955  0.9285  0.4145  0.0107
  735MOL0     C96919   1.048   2.181   8.840  0.4337 -0.1579  0.1574
  735MOL0     C96920   0.916   2.136   8.818 -0.4764 -1.4821  0.1185
  735MOL0     C96921   0.849   2.180   8.700 -0.0918  1.0020  0.0724
  735MOL0     C96922   0.912   2.265   8.610  0.1461  0.5278  0.7492
  735MOL0     O96923   0.852   2.312   8.496  0.3712 -0.0060 -0.3432
  735MOL0     C96924   0.793   2.218   8.404  0.1730  0.5700  0.2637
  735MOL0     C96925   0.694   2.278   8.304 -0.2915 -0.6155 -0.0158
  735MOL0     C96926   0.570   2.344   8.372  0.6010 -0.3519 -0.3484
  735MOL0     C96927   0.484   2.242   8.446  0.1537  0.2048  0.8539
  735MOL0     C96928   0.331   2.274   8.464 -0.0623 -0.9877 -0.2260
  735MOL0     C96929   0.253   2.260   8.329  0.3945  0.2538  0.1226
  735MOL0     C96930   0.111   2.203   8.340  1.0404 -0.1217  0.2058
  735MOL0     C96931   0.022   2.303   8.422 -0.5090 -0.4566 -0.2271
  735MOL0    Cl96932   0.004   2.447   8.315 -0.5908 -0.2337  0.2250
  735MOL0     C96933   1.047   2.295   8.629  0.1934  0.5611  0.6468
  735MOL0     C96934   1.112   2.257   8.743  0.4767 -0.5569 -0.0031
  735MOL0     O96935   0.990   2.265   9.098 -0.0398  0.1478  0.2801
  735MOL0     C96936   1.257   2.052   9.172  0.1041  1.2095  1.1027
  735MOL0     C96937   1.333   2.009   9.273 -0.6918 -0.5026 -0.1803
  735MOL0     N96938   1.528   2.114  10.184 -1.2075  0.4709 -0.0719
  735MOL0     N96939   1.583   2.192  10.275 -0.1189 -0.3127  0.0331
  735MOL0     C96940   2.799   2.129  10.635 -0.8446  0.6955  0.7131
  735MOL0     C96941   2.931   2.157  10.665  0.5926 -0.6164 -0.8764
  735MOL0     C96942   3.369   2.157  10.545  0.1969  0.0925 -1.1088
  735MOL0     C96943   3.418   2.237  10.652 -0.0265  0.4866 -0.2012
  735MOL0     C96944   3.553   2.247  10.686 -0.2244  0.7372  0.1959
  735MOL0     C96945   3.652   2.175  10.613  0.8959 -0.6895  0.1082
  735MOL0     O96946   3.787   2.173  10.644  0.1097  0.9499 -0.0625
  735MOL0     C96947   3.839   2.269  10.733  0.5068 -0.0644  0.4239
  735MOL0     C96948   3.994   2.259  10.724  0.0046 -0.0427 -1.0241
  735MOL0     C96949   4.039   2.119  10.799  0.2206 -0.6710  0.3306
  735MOL0     C96950   4.179   2.123  10.868 -0.4435 -0.0096 -0.5950
  735MOL0     C96951   4.279   2.197  10.786  0.5271 -0.2718  0.8219
  735MOL0     C96952   4.339   2.265  10.711 -0.2836 -0.3179  0.0060
  735MOL0     C96953   3.605   2.091  10.511  0.6040 -1.0098 -0.0261
  735MOL0     C96954   3.468   2.082  10.480 -0.6664  0.2927  0.4423
  735MOL0     H96955   3.021   2.305  10.375 -2.7482  2.3157 -3.0603
  735MOL0     H96956   2.790   2.246  10.322  0.0902  0.8750  0.3661
  735MOL0     H96957   2.497   2.241  10.639 -0.6350  0.7012 -2.3647
  735MOL0     H96958   2.547   2.070  10.665  1.5752  0.3480  0.3745
  735MOL0     H96959   2.306   2.117  10.618  1.8780 -2.6096  2.3867
  735MOL0     H96960   2.383   2.011  10.508 -1.8824  0.0024 -0.4729
  735MOL0     H96961   2.426   2.192  10.336  0.1247  0.6088 -0.7619
  735MOL0     H96962   2.357   2.319  10.441 -1.0013  1.7898 -2.0943
  735MOL0     H96963   2.218   2.080  10.331  2.1021  0.0411  0.7400
  735MOL0     H96964   2.129   2.170  10.446 -0.2690 -4.9613 -1.1220
  735MOL0     H96965   2.224   2.235  10.179 -0.7293 -1.5697  0.6482
  735MOL0     H96966   2.160   2.373  10.278 -0.0665  1.1713 -0.9537
  735MOL0     H96967   2.002   2.127  10.197 -1.2353  0.2406 -0.2092
  735MOL0     H96968   1.989   2.282  10.122 -0.1156  0.0021  0.1598
  735MOL0     H96969   1.883   2.187  10.392  0.8714  0.9656 -0.2305
  735MOL0     H96970   1.964   2.337  10.400  1.1455  0.1072 -0.1457
  735MOL0     H96971   1.812   2.418  10.215  0.4160  1.9662  1.1630
  735MOL0     H96972   1.735   2.399  10.368 -1.6331 -1.2352 -0.9490
  735MOL0     H96973   1.794   2.235  10.025 -0.0664  0.2277 -0.7275
  735MOL0     H96974   1.545   1.947   9.986  2.5234 -1.5621  0.1654
  735MOL0     H96975   1.700   2.019   9.925 -0.1357 -2.1662 -0.9208
  735MOL0     H96976   1.554   2.189   9.818 -1.9687  0.5786 -1.4896
  735MOL0     H96977   1.413   2.101   9.885  0.4986 -0.5816  2.1402
  735MOL0     H96978   1.615   1.996   9.675  0.3394  0.8164  0.4081
  735MOL0     H96979   1.484   1.902   9.738 -1.2663  0.3864  1.1663
  735MOL0     H96980   1.431   2.171   9.626  2.8412 -0.1283  1.3204
  735MOL0     H96981   1.319   2.036   9.650  1.8435 -1.0034  3.0824
  735MOL0     H96982   1.264   2.238   9.495  0.6887  1.1960 -0.7561
  735MOL0     H96983   1.095   2.301   9.315 -1.7205 -0.8079 -2.2606
  735MOL0     H96984   0.861   2.073   8.888 -0.2182 -1.5559  0.2555
  735MOL0     H96985   0.744   2.161   8.683  0.5076 -1.5336 -1.3904
  735MOL0     H96986   0.734   2.142   8.457 -0.4737  0.9336  0.0725
  735MOL0     H96987   0.874   2.172   8.347  1.0456  3.4158 -0.9889
  735MOL0     H96988   0.656   2.194   8.245 -0.3011  2.1992 -4.5485
  735MOL0     H96989   0.752   2.354   8.251  0.7862  0.4978  2.6243
  735MOL0     H96990   0.508   2.386   8.293 -0.1345 -2.0480 -0.7258
  735MOL0     H96991   0.612   2.417   8.442  1.7972 -2.4543  1.2731
  735MOL0     H96992   0.486   2.150   8.387 -0.6298  0.0180  1.1083
  735MOL0     H96993   0.532   2.216   8.541  2.0221 -1.3274 -0.4291
  735MOL0     H96994   0.320   2.378   8.496  1.4580 -1.4551  2.0665
  735MOL0     H96995   0.288   2.199   8.530 -0.5988  0.6678  1.4031
  735MOL0     H96996   0.309   2.193   8.263 -0.8464 -0.2598 -0.4277
  735MOL0     H96997   0.234   2.355   8.279 -5.1945  0.0004  1.1203
  735MOL0     H96998   0.059   2.181   8.247 -0.8429 -2.8331  1.7529
  735MOL0     H96999   0.096   2.105   8.386 -0.9581  1.1073  2.4288
  735MOL0     H97000   0.063   2.320   8.522 -0.3512  4.3114 -0.8909
  735MOL0     H97001  -0.076   2.258   8.440 -0.7387  0.5544  1.1712
  735MOL0     H97002   1.101   2.356   8.558  0.0329  1.5811  1.3773
  735MOL0     H97003   1.205   2.298   8.782 -0.3602 -0.2247  1.7272
  735MOL0     H97004   1.262   1.989   9.083  0.4274  2.1571  0.4313
  735MOL0     H97005   1.407   1.931   9.257  0.1273 -0.3186  2.2811
  735MOL0     H97006   2.753   2.068  10.713 -1.2249  0.1156  0.0487
  735MOL0     H97007   2.961   2.119  10.762 -2.0847  1.0952  0.7700
  735MOL0     H97008   3.356   2.306  10.707  2.4649  1.6597  1.3131
  735MOL0     H97009   3.594   2.327  10.747  1.2284 -0.1991  0.4824
  735MOL0     H97010   3.807   2.245  10.835  0.9011  0.0182  0.5728
  735MOL0     H97011   3.814   2.372  10.704 -0.6314 -0.7858 -1.2379
  735MOL0     H97012   4.035   2.263  10.623  3.6674  0.8152  0.3416
  735MOL0     H97013   4.045   2.335  10.784  3.3507 -2.5574 -0.3705
  735MOL0     H97014   4.026   2.039  10.726 -1.1408 -2.2313  2.1650
  735MOL0     H97015   3.962   2.094  10.873  1.6249 -1.8866  1.4435
  735MOL0     H97016   4.186   2.162  10.970  1.6574 -1.3121 -0.1664
  735MOL0     H97017   4.214   2.020  10.874  1.9214  0.6947 -1.2053
  735MOL0     H97018   4.395   2.320  10.639  0.7185  0.9145  1.6470
  735MOL0     H97019   3.682   2.043  10.452  1.9453  3.2335 -2.1136
  735MOL0     H97020   3.437   2.011  10.404 -0.8928 -1.3772  2.0373
  736MOL0     O97021   5.720   8.611   5.971  0.0257  0.3896 -0.4071
  736MOL0     C97022   5.783   8.504   5.961  0.4695  0.3886 -0.2615
  736MOL0     O97023   5.720   8.387   5.929 -0.2691 -0.0168 -0.2153
  736MOL0     C97024   5.584   8.388   5.927  0.5158 -0.4879 -0.7083
  736MOL0     C97025   5.514   8.302   6.009 -0.7964  0.7877  0.5851
  736MOL0     C97026   5.374   8.294   6.007 -0.0356  0.3102 -0.1739
  736MOL0     C97027   5.294   8.358   5.905 -0.1209  0.3795 -0.2654
  736MOL0     O97028   5.156   8.313   5.900 -0.0330  0.0033  0.5740
  736MOL0     C97029   5.071   8.411   5.832 -0.1186  0.3620 -0.2909
  736MOL0     C97030   4.938   8.350   5.850 -0.1707 -0.1822  0.4357
  736MOL0     C97031   4.814   8.429   5.784 -0.5229  0.9131  0.1228
  736MOL0     C97032   4.808   8.580   5.801  0.2689  0.5403 -0.0508
  736MOL0     C97033   4.805   8.627   5.948  0.8077  0.5066 -0.2659
  736MOL0     C97034   4.686   8.575   6.028 -0.0111  0.8357  0.0698
  736MOL0     C97035   4.556   8.645   5.991  0.4491  1.3357  0.3082
  736MOL0     C97036   4.445   8.590   6.088 -0.0444 -0.0142  0.0348
  736MOL0     N97037   4.309   8.620   6.050  0.2796 -0.6020 -0.4616
  736MOL0     C97038   4.251   8.745   6.059 -0.1416  0.4161 -0.5700
  736MOL0     C97039   4.127   8.732   6.016  0.3032  0.5115  0.5652
  736MOL0     C97040   4.031   8.845   6.017 -0.2055 -0.0146 -0.1344
  736MOL0     C97041   3.953   8.853   6.145  0.0681 -1.0272  0.2644
  736MOL0     C97042   3.951   9.006   6.183 -0.5120  1.1305 -1.0744
  736MOL0     C97043   3.833   9.024   6.278 -0.1917  0.2185 -0.9085
  736MOL0     O97044   3.716   8.987   6.210  0.1093 -0.2696  0.3459
  736MOL0     C97045   3.596   8.971   6.272 -0.4145  1.1544 -0.1122
  736MOL0     C97046   3.482   8.938   6.203  0.0215  0.0439 -0.2794
  736MOL0     C97047   3.359   8.901   6.266  0.5243  0.0072 -0.1315
  736MOL0     C97048   3.344   8.913   6.401 -0.6423 -0.3924 -0.6452
  736MOL0     C97049   3.217   8.868   6.457 -0.2903 -0.2804 -0.1343
  736MOL0     O97050   3.102   8.872   6.384 -0.9156 -0.3489 -0.5229
  736MOL0     C97051   2.990   8.834   6.454 -0.0003 -0.3284 -0.0910
  736MOL0     C97052   2.924   8.923   6.536  0.3913  0.7956 -0.0984
  736MOL0     C97053   2.814   8.887   6.609 -1.6688 -0.3491 -0.7093
  736MOL0     C97054   2.744   8.778   6.581 -0.1733  0.5729 -0.0740
  736MOL0     O97055   2.624   8.750   6.644  0.6383 -0.4236  0.4246
  736MOL0     C97056   2.582   8.814   6.759  0.0328  0.0883 -1.1288
  736MOL0     C97057   2.440   8.773   6.782 -0.3263  0.3098 -0.2241
  736MOL0     C97058   2.355   8.784   6.668  0.4412 -0.1955  0.2744
  736MOL0     C97059   2.221   8.708   6.682 -0.3453  0.3475 -0.2026
  736MOL0     C97060   2.105   8.766   6.590  0.1696 -0.9879 -0.7098
  736MOL0     C97061   2.143   8.752   6.443  0.3159  0.7748  0.2192
  736MOL0     C97062   2.030   8.794   6.347  0.2647 -0.1150 -0.4412
  736MOL0     C97063   1.916   8.691   6.343 -0.2576  0.4032 -0.6620
  736MOL0    Cl97064   1.795   8.759   6.220 -0.3433 -0.0590 -0.2341
  736MOL0     C97065   2.795   8.685   6.482  0.2538 -0.2190 -0.7172
  736MOL0     C97066   2.926   8.712   6.429  0.1410  1.0607 -0.0944
  736MOL0     O97067   3.222   8.859   6.579  0.3824 -0.1393 -0.2990
  736MOL0     C97068   3.452   8.953   6.481 -0.1444  0.4665 -0.6669
  736MOL0     C97069   3.576   8.967   6.411 -0.1444  0.1520  0.1114
  736MOL0     N97070   4.097   8.596   5.978 -0.3925 -0.5654  0.2044
  736MOL0     N97071   4.212   8.527   6.007  0.5146 -1.6392 -0.5651
  736MOL0     C97072   5.364   8.438   5.819  0.1119  0.0150  0.2410
  736MOL0     C97073   5.503   8.452   5.834 -0.3366 -0.5324 -0.4598
  736MOL0     C97074   5.926   8.527   5.949  0.2989 -0.3973 -0.6277
  736MOL0     C97075   6.005   8.434   5.893 -0.0491 -0.5491  0.0334
  736MOL0     C97076   6.142   8.454   5.879  0.4143  0.0941  0.6402
  736MOL0     C97077   6.205   8.565   5.927  0.4861  0.4047  0.5139
  736MOL0     O97078   6.342   8.575   5.909  0.1625 -0.0998  0.2106
  736MOL0     C97079   6.422   8.696   5.927 -0.2500 -0.5639  0.1193
  736MOL0     C97080   6.571   8.691   5.888  0.8520  0.1301 -0.2982
  736MOL0     C97081   6.636   8.559   5.935  0.6377 -0.4888 -0.6004
  736MOL0     C97082   6.780   8.541   5.897 -0.2337  0.2519  0.6339
  736MOL0     C97083   6.838   8.410   5.926  0.1283 -0.3326  0.4358
  736MOL0     C97084   6.885   8.303   5.945 -0.4451 -0.2070 -0.1255
  736MOL0     C97085   6.121   8.655   6.001 -0.1476  0.0205  0.6391
  736MOL0     C97086   5.984   8.644   6.005  0.0499  0.0586 -0.0719
  736MOL0     H97087   5.585   8.252   6.075  2.2346  1.3387 -2.0349
  736MOL0     H97088   5.322   8.227   6.075  1.1692 -0.2830  0.1907
  736MOL0     H97089   5.090   8.413   5.725  0.8083 -1.2532 -0.1884
  736MOL0     H97090   5.077   8.508   5.883  1.6271 -0.3905  1.0328
  736MOL0     H97091   4.917   8.338   5.957  0.3435 -5.0292  0.2287
  736MOL0     H97092   4.955   8.249   5.810  0.7245  1.3069 -3.2995
  736MOL0     H97093   4.728   8.379   5.830 -0.6675  1.8209  0.8920
  736MOL0     H97094   4.805   8.414   5.677  2.6521  0.1833 -0.1259
  736MOL0     H97095   4.892   8.628   5.750  0.1861  1.0098  0.2401
  736MOL0     H97096   4.720   8.621   5.751  0.8487 -1.6673 -3.1402
  736MOL0     H97097   4.809   8.736   5.948 -2.1757  0.7906 -3.0703
  736MOL0     H97098   4.900   8.598   5.993  2.2090  3.1716 -1.3402
  736MOL0     H97099   4.713   8.600   6.131  1.4457  4.2234 -0.9799
  736MOL0     H97100   4.665   8.469   6.016 -1.6218  1.2406 -1.0740
  736MOL0     H97101   4.564   8.754   6.005 -0.7164  1.5132 -0.3428
  736MOL0     H97102   4.513   8.618   5.895 -2.0994 -0.0301  1.7457
  736MOL0     H97103   4.470   8.629   6.187  1.5566  0.4080 -0.5090
  736MOL0     H97104   4.453   8.481   6.092 -0.0695 -0.0244 -0.2037
  736MOL0     H97105   4.303   8.835   6.089 -0.2149  0.1844  0.2684
  736MOL0     H97106   3.967   8.832   5.930  0.1013  0.2817 -0.4067
  736MOL0     H97107   4.092   8.933   5.994 -3.1950  2.8441  1.9725
  736MOL0     H97108   3.995   8.791   6.225  1.6841 -1.9673 -1.2543
  736MOL0     H97109   3.853   8.815   6.124  0.5772 -1.4340 -1.5710
  736MOL0     H97110   4.040   9.037   6.239 -0.8663 -1.6675  1.2616
  736MOL0     H97111   3.936   9.071   6.096 -0.0813  0.3746 -1.7172
  736MOL0     H97112   3.821   9.127   6.313 -2.5277 -0.1327 -0.5125
  736MOL0     H97113   3.849   8.957   6.364 -0.1130 -0.8513 -1.7398
  736MOL0     H97114   3.486   8.920   6.096  0.8289 -2.8433  0.1720
  736MOL0     H97115   3.271   8.884   6.204 -1.1895  1.7647  1.6424
  736MOL0     H97116   2.968   9.021   6.551 -0.2906  0.7898  2.3749
  736MOL0     H97117   2.780   8.949   6.692 -1.0439 -1.5453  0.4861
  736MOL0     H97118   2.573   8.922   6.746 -0.4938  0.3789  1.1304
  736MOL0     H97119   2.640   8.779   6.845  0.3992  1.2049 -0.9108
  736MOL0     H97120   2.408   8.843   6.860 -0.6293 -2.3101  2.1737
  736MOL0     H97121   2.436   8.670   6.817 -1.9051  0.2540 -0.4956
  736MOL0     H97122   2.402   8.748   6.576  1.1927  0.2933  0.4618
  736MOL0     H97123   2.333   8.889   6.649  0.6806  0.3345  2.6598
  736MOL0     H97124   2.223   8.602   6.657 -2.2177  0.0761  0.6609
  736MOL0     H97125   2.197   8.720   6.788 -0.1812  2.3360 -0.3599
  736MOL0     H97126   2.097   8.872   6.617 -2.8676 -1.6118  1.4004
  736MOL0     H97127   2.007   8.725   6.615 -0.3181  0.3036 -0.4078
  736MOL0     H97128   2.180   8.650   6.432 -1.1429  0.2254  0.2443
  736MOL0     H97129   2.231   8.816   6.427 -1.9053  3.8757 -0.6221
  736MOL0     H97130   1.997   8.892   6.385  3.7500 -0.4970  4.5080
  736MOL0     H97131   2.072   8.801   6.246  0.2348  0.0257 -0.4438
  736MOL0     H97132   1.871   8.676   6.441 -0.3025 -2.3369 -1.0087
  736MOL0     H97133   1.941   8.590   6.307 -2.5861 -0.9884  1.3098
  736MOL0     H97134   2.741   8.594   6.459 -1.1137 -0.1181  1.8336
  736MOL0     H97135   2.959   8.637   6.359 -3.0713  0.1563 -0.8393
  736MOL0     H97136   3.446   8.987   6.584  1.6313  1.0000 -0.7098
  736MOL0     H97137   3.655   8.993   6.481 -0.0695  1.0827 -0.2994
  736MOL0     H97138   5.321   8.486   5.732  0.9015 -1.6281 -1.1147
  736MOL0     H97139   5.542   8.520   5.759  0.9579 -0.0132  0.6489
  736MOL0     H97140   5.948   8.351   5.853 -1.9412  1.4759 -1.7349
  736MOL0     H97141   6.191   8.374   5.825 -0.6311 -1.9167  2.5060
  736MOL0     H97142   6.422   8.712   6.036  0.1133 -0.1914  0.0647
  736MOL0     H97143   6.379   8.780   5.872  0.3150 -1.8243 -2.3731
  736MOL0     H97144   6.597   8.693   5.782  0.0412  2.8263 -0.5311
  736MOL0     H97145   6.608   8.786   5.927  1.5180  0.6310 -2.0326
  736MOL0     H97146   6.571   8.480   5.894 -0.3839  0.2227 -0.3649
  736MOL0     H97147   6.624   8.546   6.043  3.2486 -0.2741 -0.2221
  736MOL0     H97148   6.795   8.552   5.789  0.1956 -3.0877  0.2650
  736MOL0     H97149   6.835   8.621   5.949 -2.3485  0.2404  3.1030
  736MOL0     H97150   6.924   8.205   5.966  3.1450  1.1975  0.3690
  736MOL0     H97151   6.179   8.733   6.050  0.8028 -1.3899  1.8324
  736MOL0     H97152   5.913   8.708   6.057  0.5913 -1.1544  2.2727
  737MOL0     O97153   7.579   1.703   7.064 -0.0508 -0.3278 -0.2917
  737MOL0     C97154   7.585   1.795   6.981  0.4282 -0.0021  0.3440
  737MOL0     O97155   7.655   1.799   6.854 -0.8530  0.3975 -0.4691
  737MOL0     C97156   7.719   1.691   6.799 -0.2426  0.9340  0.8322
  737MOL0     C97157   7.824   1.726   6.706  0.0166  0.5693 -0.5234
  737MOL0     C97158   7.903   1.632   6.640 -0.2115  0.6195 -0.7262
  737MOL0     C97159   7.893   1.492   6.667 -0.8264 -0.6954  0.2099
  737MOL0     O97160   7.986   1.398   6.622  0.2426  0.0636  0.5491
  737MOL0     C97161   8.094   1.445   6.542  0.5113  0.3859 -0.0061
  737MOL0     C97162   8.208   1.342   6.516  0.2412 -0.0906 -0.2214
  737MOL0     C97163   8.159   1.194   6.525  0.5607  0.3686  0.9519
  737MOL0     C97164   8.277   1.098   6.496  0.0084  0.9071  0.4257
  737MOL0     C97165   8.237   0.953   6.523  0.0605 -0.4283 -0.6302
  737MOL0     C97166   8.355   0.882   6.587  1.2113  0.2341 -0.0796
  737MOL0     C97167   8.343   0.726   6.596  0.4660  0.3034 -0.3639
  737MOL0     C97168   8.455   0.653   6.667 -0.0847  0.0682  0.4891
  737MOL0     N97169   8.454   0.695   6.809 -0.4446  0.4754  0.2791
  737MOL0     C97170   8.412   0.620   6.916  0.0298  0.7417  0.3485
  737MOL0     C97171   8.466   0.682   7.028  0.2047 -0.1050 -0.5370
  737MOL0     C97172   8.449   0.628   7.167 -0.1273 -0.3058 -0.4084
  737MOL0     C97173   8.318   0.569   7.198 -1.2219  0.2639  0.4003
  737MOL0     C97174   8.204   0.656   7.176 -0.2117 -0.3973 -0.2050
  737MOL0     C97175   8.069   0.605   7.236  0.8017  0.5890 -0.0474
  737MOL0     O97176   8.061   0.583   7.385 -0.0886  0.4072  0.1428
  737MOL0     C97177   8.018   0.683   7.464  0.6346  0.2618 -0.6720
  737MOL0     C97178   8.080   0.687   7.595 -1.2982 -0.2904 -0.0424
  737MOL0     C97179   8.022   0.770   7.695 -0.9521  0.6656  0.1929
  737MOL0     C97180   7.927   0.865   7.657 -0.8402 -0.5544  0.6082
  737MOL0     C97181   7.884   0.963   7.756 -0.7584  1.0764  0.4324
  737MOL0     O97182   7.850   1.091   7.712  0.6633 -0.0307 -1.1389
  737MOL0     C97183   7.783   1.172   7.803  0.6554 -0.2407 -0.2880
  737MOL0     C97184   7.658   1.220   7.767 -0.2743 -0.1501  0.5332
  737MOL0     C97185   7.589   1.311   7.860 -0.2600  0.0814 -0.5317
  737MOL0     C97186   7.648   1.356   7.976 -0.2640 -0.0890 -0.6218
  737MOL0     O97187   7.590   1.443   8.060 -0.4264  0.6808  0.4825
  737MOL0     C97188   7.598   1.415   8.199 -0.1104 -0.1939  0.4582
  737MOL0     C97189   7.503   1.500   8.286 -0.0435  0.1419 -0.3080
  737MOL0     C97190   7.360   1.464   8.252 -0.3746 -0.3547  0.2047
  737MOL0     C97191   7.278   1.559   8.339 -0.7656  0.7748 -0.2474
  737MOL0     C97192   7.126   1.516   8.338  0.4868  0.5413 -0.1608
  737MOL0     C97193   7.050   1.587   8.450 -0.6891  0.0105  0.1930
  737MOL0     C97194   6.912   1.503   8.471 -1.3327  0.2062  0.4493
  737MOL0     C97195   6.802   1.597   8.494 -0.3075 -0.2781  0.1487
  737MOL0    Cl97196   6.661   1.500   8.555 -0.1561 -0.1234  0.2077
  737MOL0     C97197   7.784   1.316   8.005 -0.1286 -0.6957  0.7150
  737MOL0     C97198   7.847   1.225   7.919 -0.0564  0.2798  0.2658
  737MOL0     O97199   7.888   0.921   7.870  0.3254 -0.0659 -0.3545
  737MOL0     C97200   7.884   0.875   7.525  0.4783  0.2513  0.1837
  737MOL0     C97201   7.917   0.781   7.437 -0.2209  0.6452  1.0606
  737MOL0     N97202   8.528   0.794   6.987 -0.0527 -0.0641 -0.3007
  737MOL0     N97203   8.521   0.806   6.857  0.4601  0.5707 -0.7697
  737MOL0     C97204   7.785   1.459   6.762 -0.1107 -0.1307  0.0146
  737MOL0     C97205   7.695   1.556   6.817 -0.0733  0.6850  0.3111
  737MOL0     C97206   7.520   1.922   7.020 -0.0271 -0.1418  0.2192
  737MOL0     C97207   7.537   2.040   6.946  0.3978  0.1340  0.3747
  737MOL0     C97208   7.463   2.160   6.980 -0.3202  0.0583  0.3468
  737MOL0     C97209   7.364   2.155   7.082  0.2921 -0.1115  0.0460
  737MOL0     O97210   7.308   2.271   7.118 -0.3412 -0.0555 -0.4262
  737MOL0     C97211   7.208   2.286   7.223 -0.0666  0.4563 -0.1646
  737MOL0     C97212   7.124   2.401   7.171  0.7600  0.0245  0.2807
  737MOL0     C97213   7.034   2.426   7.293  0.4240  0.7602 -0.4811
  737MOL0     C97214   6.912   2.509   7.257 -0.9123 -0.2393  0.5269
  737MOL0     C97215   6.820   2.497   7.362  0.6305 -0.3117 -0.4688
  737MOL0     C97216   6.755   2.499   7.464 -0.5737 -0.0529 -0.3348
  737MOL0     C97217   7.343   2.032   7.156  0.2293  0.4005  0.5273
  737MOL0     C97218   7.418   1.928   7.119 -0.2238 -0.3250  0.7594
  737MOL0     H97219   7.839   1.833   6.691 -1.1034  0.7864 -0.2090
  737MOL0     H97220   7.977   1.670   6.569 -1.0387  0.6683 -1.5880
  737MOL0     H97221   8.142   1.530   6.591 -0.4616  1.5685 -1.0332
  737MOL0     H97222   8.063   1.466   6.439  1.0259 -1.3495 -0.5401
  737MOL0     H97223   8.291   1.367   6.583  0.3161  0.5724 -0.5499
  737MOL0     H97224   8.249   1.360   6.416  3.2622 -2.7337  0.3563
  737MOL0     H97225   8.090   1.177   6.442  0.6205  0.0434  0.9642
  737MOL0     H97226   8.119   1.166   6.623 -2.9450  0.5093 -0.2792
  737MOL0     H97227   8.323   1.107   6.396  2.2573 -4.3655  0.6749
  737MOL0     H97228   8.357   1.123   6.566  0.4358 -0.4831  0.4511
  737MOL0     H97229   8.208   0.897   6.433 -1.9476 -2.4661  1.1578
  737MOL0     H97230   8.149   0.948   6.588  0.2443 -1.1862 -0.4286
  737MOL0     H97231   8.384   0.921   6.685 -1.3989 -2.5101  1.9732
  737MOL0     H97232   8.439   0.911   6.524 -0.5283  0.3342 -2.4891
  737MOL0     H97233   8.255   0.686   6.648  0.2742  0.0391 -0.8808
  737MOL0     H97234   8.333   0.687   6.494  0.0606 -1.8904  0.4540
  737MOL0     H97235   8.551   0.688   6.630 -1.1055  3.0756  0.3596
  737MOL0     H97236   8.453   0.544   6.660  0.9509  0.1670 -2.8839
  737MOL0     H97237   8.365   0.522   6.916  2.3020 -0.5454 -3.1933
  737MOL0     H97238   8.469   0.713   7.233 -2.0952 -0.1923  0.1246
  737MOL0     H97239   8.519   0.548   7.194  1.6892  1.9329  1.9812
  737MOL0     H97240   8.339   0.557   7.305 -0.5114  0.0140  0.2398
  737MOL0     H97241   8.313   0.469   7.154  1.4647 -0.1943  0.9134
  737MOL0     H97242   8.235   0.747   7.228 -1.5122  1.0840 -1.9162
  737MOL0     H97243   8.187   0.685   7.072 -1.8867  0.9988  0.4106
  737MOL0     H97244   8.048   0.510   7.184 -0.9084  2.6334 -3.4829
  737MOL0     H97245   7.982   0.668   7.217  0.9061  1.6791  2.6933
  737MOL0     H97246   8.158   0.616   7.621 -0.9107 -0.8159 -2.4423
  737MOL0     H97247   8.051   0.750   7.798  3.6586  0.7167 -0.8440
  737MOL0     H97248   7.604   1.182   7.681  2.4957  0.4868 -1.6795
  737MOL0     H97249   7.489   1.341   7.831  0.3961  2.6919 -0.3437
  737MOL0     H97250   7.694   1.444   8.242  1.2912 -3.3638 -0.2361
  737MOL0     H97251   7.578   1.309   8.218 -1.0556  0.2864  2.4024
  737MOL0     H97252   7.528   1.604   8.262 -0.5335  0.3833  0.2206
  737MOL0     H97253   7.525   1.483   8.391 -0.8245  1.6691  0.1298
  737MOL0     H97254   7.346   1.359   8.279  1.3837 -0.1284  2.2543
  737MOL0     H97255   7.345   1.478   8.145  1.1775 -0.0398  0.0055
  737MOL0     H97256   7.323   1.552   8.438 -2.8699  2.7263  0.9364
  737MOL0     H97257   7.289   1.662   8.304  0.8205  0.1503 -1.7366
  737MOL0     H97258   7.109   1.408   8.332  2.0076  0.2975 -0.5150
  737MOL0     H97259   7.080   1.558   8.248 -2.0003 -4.2259 -1.4289
  737MOL0     H97260   7.041   1.693   8.428  0.3244 -0.3808 -2.4942
  737MOL0     H97261   7.097   1.577   8.549 -0.0513 -0.3081 -0.1309
  737MOL0     H97262   6.901   1.442   8.380  1.2409 -2.0246  1.4886
  737MOL0     H97263   6.922   1.435   8.556  1.2438  1.6088  1.3661
  737MOL0     H97264   6.777   1.668   8.415 -0.3316  0.0121  0.4108
  737MOL0     H97265   6.820   1.676   8.569  0.7710 -0.1342 -0.2396
  737MOL0     H97266   7.833   1.351   8.095  0.8191 -1.0227  0.3480
  737MOL0     H97267   7.944   1.178   7.927  0.7472  1.1945 -2.7575
  737MOL0     H97268   7.807   0.941   7.486  3.0810  1.7501 -2.8414
  737MOL0     H97269   7.868   0.780   7.340 -1.7125 -0.6306  1.7779
  737MOL0     H97270   7.769   1.355   6.789  0.9703 -1.1883 -3.0643
  737MOL0     H97271   7.609   1.521   6.872 -0.1390  0.1443 -0.1195
  737MOL0     H97272   7.599   2.051   6.857 -2.0313 -0.5609 -1.5408
  737MOL0     H97273   7.483   2.258   6.937  2.0769 -0.0447  1.0751
  737MOL0     H97274   7.256   2.303   7.320 -0.8211  1.0943  0.1181
  737MOL0     H97275   7.145   2.196   7.221 -1.1868  1.1632  1.0393
  737MOL0     H97276   7.167   2.499   7.150 -2.8323  1.2763 -2.1022
  737MOL0     H97277   7.055   2.372   7.092 -0.1421 -0.4993  1.2345
  737MOL0     H97278   7.079   2.474   7.380 -1.5366 -1.4756  1.9475
  737MOL0     H97279   6.999   2.332   7.336  0.6220  1.1325  0.5230
  737MOL0     H97280   6.937   2.614   7.243  0.4612 -0.6360 -0.1743
  737MOL0     H97281   6.869   2.478   7.161  0.4063  1.6037 -0.7213
  737MOL0     H97282   6.723   2.499   7.566  2.0766  0.5452  0.5928
  737MOL0     H97283   7.265   2.029   7.233 -2.1092  1.3582 -1.6434
  737MOL0     H97284   7.402   1.847   7.190 -0.4822 -0.6497  0.3341
  738MOL0     O97285  10.550   9.251  11.014 -0.3469 -0.5886  0.4745
  738MOL0     C97286  10.572   9.356  10.949  0.2377 -0.3975  0.2451
  738MOL0     O97287  10.478   9.423  10.867 -0.0219  0.0017 -0.2086
  738MOL0     C97288  10.364   9.360  10.813 -0.7238  0.3948 -0.6787
  738MOL0     C97289  10.241   9.417  10.833  0.4245 -0.0458  0.1357
  738MOL0     C97290  10.128   9.352  10.793 -0.0001  0.2699  1.3047
  738MOL0     C97291  10.135   9.232  10.719 -0.5890  0.6558  0.0205
  738MOL0     O97292  10.031   9.163  10.660 -0.0886 -0.5969 -0.3615
  738MOL0     C97293   9.906   9.209  10.693 -0.2155  0.2183  0.6506
  738MOL0     C97294   9.817   9.100  10.658  0.0689 -0.0771  0.0753
  738MOL0     C97295   9.674   9.150  10.670  0.4335 -0.1027  0.5579
  738MOL0     C97296   9.569   9.046  10.617 -0.9263  0.0109  0.0192
  738MOL0     C97297   9.433   9.078  10.666  0.8755 -0.2002 -0.4459
  738MOL0     C97298   9.321   8.976  10.635 -0.3034  0.3214  0.8356
  738MOL0     C97299   9.291   8.954  10.485 -0.8261  0.2224 -1.4091
  738MOL0     C97300   9.140   8.973  10.458  0.4413  0.6101 -0.1478
  738MOL0     N97301   9.062   8.857  10.498 -0.3964  0.0311  0.5056
  738MOL0     C97302   9.077   8.738  10.441  0.4777 -0.8475  0.6059
  738MOL0     C97303   8.961   8.672  10.464  0.0237  0.0090 -0.7214
  738MOL0     C97304   8.917   8.541  10.393  0.5204 -0.8229 -0.5862
  738MOL0     C97305   8.767   8.533  10.383 -0.4617  0.2981  0.6783
  738MOL0     C97306   8.750   8.405  10.298  0.4084  0.4493  0.4477
  738MOL0     C97307   8.598   8.374  10.278  0.2883  0.7557 -0.1588
  738MOL0     O97308   8.526   8.485  10.235  0.2726 -0.0242  0.1024
  738MOL0     C97309   8.388   8.475  10.222 -0.0187  0.4156  0.8578
  738MOL0     C97310   8.332   8.552  10.120  0.1835  0.2726  0.3409
  738MOL0     C97311   8.196   8.532  10.080  0.3752 -0.1025  0.2796
  738MOL0     C97312   8.113   8.444  10.156 -0.6281  0.1273  0.4745
  738MOL0     C97313   7.977   8.423  10.119  0.6248  0.0942  0.0642
  738MOL0     O97314   7.909   8.308  10.174 -0.0019 -0.0224  0.0914
  738MOL0     C97315   7.780   8.285  10.126  0.4338 -0.1775  0.0562
  738MOL0     C97316   7.747   8.155  10.107  1.0211  0.1006  0.5607
  738MOL0     C97317   7.612   8.122  10.068 -0.4716  0.3080  0.3555
  738MOL0     C97318   7.515   8.224  10.060  0.1532 -0.6687  0.7357
  738MOL0     O97319   7.384   8.206  10.014 -0.1978 -0.1715 -0.6067
  738MOL0     C97320   7.284   8.250  10.111  0.3132  0.3402  0.6019
  738MOL0     C97321   7.148   8.217  10.047 -0.9403 -0.3623  0.0036
  738MOL0     C97322   7.038   8.275  10.140 -0.4001  0.0926 -0.9637
  738MOL0     C97323   6.908   8.225  10.103 -0.0069 -0.0174  0.4031
  738MOL0     C97324   6.800   8.288  10.190  0.0750  0.1272  0.1870
  738MOL0     C97325   6.681   8.193  10.204  0.0864  0.3772  0.5072
  738MOL0     C97326   6.571   8.260  10.277 -0.4340 -0.1319 -0.4707
  738MOL0     C97327   6.440   8.169  10.287 -0.2512 -0.6355 -0.9105
  738MOL0    Cl97328   6.368   8.143  10.126  0.5268  0.5051 -0.3289
  738MOL0     C97329   7.556   8.355  10.075  0.3411  0.3676  0.9003
  738MOL0     C97330   7.683   8.384  10.109 -0.2458  0.8270 -0.7729
  738MOL0     O97331   7.943   8.483  10.017  0.2622 -0.8921  0.4614
  738MOL0     C97332   8.170   8.380  10.263  0.4312  1.0768 -0.0458
  738MOL0     C97333   8.302   8.402  10.298 -0.3277 -0.6576 -1.1381
  738MOL0     N97334   8.885   8.754  10.548  0.6021  0.5213  0.2642
  738MOL0     N97335   8.958   8.857  10.572 -0.5400  0.0404  0.2648
  738MOL0     C97336  10.262   9.171  10.701 -0.2335  0.4965 -0.5524
  738MOL0     C97337  10.376   9.228  10.756  0.1311  0.0019 -1.0669
  738MOL0     C97338  10.696   9.433  10.974  0.7763  0.7813  0.6755
  738MOL0     C97339  10.721   9.539  10.875 -0.4153  0.2759  0.1970
  738MOL0     C97340  10.830   9.629  10.898  0.1934  0.5529  0.3865
  738MOL0     C97341  10.912   9.611  11.005  0.7210  0.9639 -0.0952
  738MOL0     O97342  11.016   9.702  11.024 -0.2419  0.0902  0.7221
  738MOL0     C97343  11.056   9.748  11.152 -0.7006 -0.8056  0.3382
  738MOL0     C97344  10.938   9.801  11.236  0.9754 -0.5154 -0.3899
  738MOL0     C97345  10.951   9.809  11.395 -0.2980 -0.3942 -0.7609
  738MOL0     C97346  10.959   9.671  11.461 -0.4604 -0.7176  0.4696
  738MOL0     C97347  10.832   9.606  11.438  0.0874  0.0825  0.2790
  738MOL0     C97348  10.720   9.563  11.417 -0.2003 -0.3962 -0.5405
  738MOL0     C97349  10.882   9.511  11.102 -0.4896 -0.0146  0.6213
  738MOL0     C97350  10.774   9.418  11.090 -0.1297 -0.2135  0.6192
  738MOL0     H97351  10.231   9.519  10.869 -1.0184 -0.4955  1.1131
  738MOL0     H97352  10.033   9.403  10.806 -0.2375 -0.1413  1.2172
  738MOL0     H97353   9.890   9.305  10.644  0.7097  0.6728  1.2092
  738MOL0     H97354   9.890   9.232  10.799  0.4906  1.8238  0.4344
  738MOL0     H97355   9.836   9.009  10.716  4.6279  2.3668  3.0410
  738MOL0     H97356   9.835   9.079  10.552  1.5239  2.8100 -0.3634
  738MOL0     H97357   9.668   9.239  10.607 -0.2325  0.6355  1.6202
  738MOL0     H97358   9.653   9.178  10.774  0.2359 -0.7191  0.6877
  738MOL0     H97359   9.579   9.049  10.509  0.7178 -0.7057  0.1257
  738MOL0     H97360   9.602   8.951  10.660  0.2390  1.0830  1.6434
  738MOL0     H97361   9.406   9.175  10.621  1.2220  0.5712  0.9562
  738MOL0     H97362   9.440   9.080  10.775  0.9930 -1.1200 -0.4287
  738MOL0     H97363   9.228   9.021  10.671  0.2836  2.5337 -0.2315
  738MOL0     H97364   9.355   8.884  10.685  0.5856  0.2526  0.1334
  738MOL0     H97365   9.348   9.030  10.431 -0.0276 -0.8096 -2.0428
  738MOL0     H97366   9.323   8.854  10.457 -1.7539 -0.2376 -0.8857
  738MOL0     H97367   9.116   8.982  10.351 -0.3818  0.1814 -0.0104
  738MOL0     H97368   9.108   9.068  10.500  0.8526  1.2880 -1.3192
  738MOL0     H97369   9.144   8.701  10.364  0.1758  0.1182 -0.1396
  738MOL0     H97370   8.962   8.453  10.439 -1.9993 -0.5184  2.8995
  738MOL0     H97371   8.956   8.553  10.292  3.2116  2.5815  0.6533
  738MOL0     H97372   8.727   8.618  10.328  0.6131  0.0928 -0.4758
  738MOL0     H97373   8.729   8.538  10.486  4.2861  4.9672  2.7342
  738MOL0     H97374   8.789   8.407  10.195 -0.7885 -2.9465 -0.2012
  738MOL0     H97375   8.795   8.316  10.342 -2.1479 -0.9549  0.4443
  738MOL0     H97376   8.560   8.334  10.373 -0.2085  0.9611 -0.2669
  738MOL0     H97377   8.587   8.289  10.209 -0.4500 -0.5637  1.4871
  738MOL0     H97378   8.403   8.598  10.052 -1.2871  0.7590 -0.9495
  738MOL0     H97379   8.156   8.575   9.989  0.5468 -0.5211 -0.0022
  738MOL0     H97380   7.811   8.068  10.117  0.5929 -0.0810  2.0918
  738MOL0     H97381   7.576   8.025  10.034  0.7740  0.5230 -1.7646
  738MOL0     H97382   7.284   8.359  10.122 -0.9756  0.3562  0.5020
  738MOL0     H97383   7.307   8.214  10.211 -0.0863 -1.4903  0.0634
  738MOL0     H97384   7.153   8.108  10.040  2.6995 -0.5461  2.3234
  738MOL0     H97385   7.136   8.271   9.952  0.2073 -2.0371 -1.1462
  738MOL0     H97386   7.043   8.385  10.146 -1.0437  0.0448  3.6871
  738MOL0     H97387   7.051   8.241  10.243 -2.0168  2.5199  0.1620
  738MOL0     H97388   6.883   8.241   9.997 -1.6544 -2.6398  0.2917
  738MOL0     H97389   6.900   8.117  10.121 -1.6089  0.0878  0.5484
  738MOL0     H97390   6.771   8.387  10.154 -0.4351 -0.0822  0.0166
  738MOL0     H97391   6.839   8.315  10.288 -0.2509  0.9400  0.0962
  738MOL0     H97392   6.732   8.106  10.248  2.8299  1.0288 -1.1269
  738MOL0     H97393   6.653   8.170  10.101 -0.8248  1.2879  0.5360
  738MOL0     H97394   6.611   8.289  10.375 -0.8958 -2.9775  0.6698
  738MOL0     H97395   6.541   8.353  10.228 -0.4993  0.1507  0.0908
  738MOL0     H97396   6.363   8.217  10.349 -0.3815 -3.8359  1.6759
  738MOL0     H97397   6.470   8.077  10.338 -0.0561 -0.6253 -1.0072
  738MOL0     H97398   7.484   8.434  10.063 -1.0687 -1.2648 -3.5017
  738MOL0     H97399   7.705   8.488  10.130 -1.4690  0.9485  0.0471
  738MOL0     H97400   8.105   8.314  10.320  0.3021  0.7521 -0.5572
  738MOL0     H97401   8.341   8.340  10.378  2.2964  2.6569  0.3876
  738MOL0     H97402  10.257   9.075  10.650 -2.5611 -0.6589  1.6397
  738MOL0     H97403  10.476   9.190  10.743  1.1264  3.3317 -5.9552
  738MOL0     H97404  10.660   9.554  10.787  0.2301  1.9389  0.0001
  738MOL0     H97405  10.844   9.712  10.830  0.2045 -1.4886 -2.3166
  738MOL0     H97406  11.132   9.827  11.151  0.1405 -1.4054  3.5294
  738MOL0     H97407  11.094   9.657  11.200 -0.0125 -0.6332  0.1338
  738MOL0     H97408  10.915   9.901  11.197 -1.5504 -1.0762 -0.5152
  738MOL0     H97409  10.846   9.750  11.207 -0.6670  1.3536  1.1960
  738MOL0     H97410  10.866   9.867  11.431  0.5997  0.9045 -0.6630
  738MOL0     H97411  11.040   9.869  11.417 -2.1275  0.9166  4.4579
  738MOL0     H97412  11.048   9.626  11.416  1.0953  1.3711  1.2686
  738MOL0     H97413  10.979   9.687  11.568  4.5703 -2.1334 -0.0128
  738MOL0     H97414  10.629   9.516  11.389 -0.8960  0.9132 -0.5531
  738MOL0     H97415  10.959   9.493  11.176 -0.4680 -1.8833  0.1971
  738MOL0     H97416  10.759   9.348  11.172  0.5750 -0.1456  0.8131
  739MOL0     O97417   7.903  10.798   4.634 -0.3956 -0.7630 -0.2208
  739MOL0     C97418   7.911  10.922   4.652 -0.1189  0.0182 -0.4121
  739MOL0     O97419   7.811  11.012   4.675 -0.3242  1.1430 -0.1052
  739MOL0     C97420   7.684  10.977   4.631 -0.9586  0.6207 -0.4309
  739MOL0     C97421   7.597  11.044   4.709 -0.9037  0.0626  1.2829
  739MOL0     C97422   7.466  11.011   4.704  0.9206  0.1020 -0.4187
  739MOL0     C97423   7.410  10.934   4.599 -0.3060  0.3821  0.0537
  739MOL0     O97424   7.272  10.920   4.586 -0.2221  0.3207  0.6109
  739MOL0     C97425   7.232  10.810   4.498  0.3615  0.0282  0.8290
  739MOL0     C97426   7.089  10.763   4.534 -0.6910  0.3746 -0.0801
  739MOL0     C97427   7.059  10.643   4.450 -0.3902 -0.7165  0.4532
  739MOL0     C97428   6.928  10.594   4.486 -0.6307 -0.1940 -1.4965
  739MOL0     C97429   6.907  10.451   4.439  0.0698  0.4172 -0.0844
  739MOL0     C97430   6.766  10.391   4.470  0.2591 -0.4036 -0.0545
  739MOL0     C97431   6.660  10.448   4.374  0.8355 -0.1572 -0.8463
  739MOL0     C97432   6.625  10.352   4.258 -0.2309  0.3965  0.7131
  739MOL0     N97433   6.517  10.383   4.171  0.4937  0.7814  0.0256
  739MOL0     C97434   6.391  10.335   4.170  0.0682  1.0441 -0.2718
  739MOL0     C97435   6.321  10.399   4.073 -0.5848  1.1092  0.5212
  739MOL0     C97436   6.175  10.377   4.041  0.3816  0.6111  0.3168
  739MOL0     C97437   6.157  10.229   4.009  0.2121  0.0375 -0.8298
  739MOL0     C97438   6.003  10.180   4.003 -0.1875 -0.5030 -0.2644
  739MOL0     C97439   5.896  10.303   3.984 -0.3387  0.0022  0.4115
  739MOL0     O97440   5.762  10.259   3.951 -0.6389  0.5258  0.9468
  739MOL0     C97441   5.732  10.234   3.818 -0.4379 -0.3778  0.2090
  739MOL0     C97442   5.601  10.212   3.775 -0.3296 -0.0874 -0.0690
  739MOL0     C97443   5.572  10.199   3.650  0.8226 -0.0703  0.9677
  739MOL0     C97444   5.665  10.201   3.544  0.8223 -0.2002 -1.3662
  739MOL0     C97445   5.637  10.201   3.400  0.0882 -0.3527  0.1015
  739MOL0     O97446   5.504  10.190   3.362  0.1511 -0.8084  0.0499
  739MOL0     C97447   5.482  10.178   3.219 -0.3369  0.3229  0.2162
  739MOL0     C97448   5.372  10.236   3.156 -0.3149 -0.2367 -0.1006
  739MOL0     C97449   5.337  10.224   3.019 -0.5045  0.2303 -0.4636
  739MOL0     C97450   5.420  10.146   2.940  0.3568  0.4961 -0.1181
  739MOL0     O97451   5.386  10.131   2.803 -0.5193 -0.0993 -0.7525
  739MOL0     C97452   5.488  10.092   2.713 -0.3139  0.1827 -0.2083
  739MOL0     C97453   5.430  10.153   2.587  0.0325  0.8045  0.3180
  739MOL0     C97454   5.511  10.123   2.459 -0.0321  1.8407 -0.3484
  739MOL0     C97455   5.658  10.169   2.471 -0.4716 -0.5720  0.8901
  739MOL0     C97456   5.740  10.166   2.337  0.9230  0.5942 -0.8661
  739MOL0     C97457   5.868  10.244   2.355  0.6268  0.1013  0.4755
  739MOL0     C97458   5.948  10.223   2.227 -0.0137  0.3941 -0.4254
  739MOL0     C97459   6.084  10.301   2.221  0.4248  0.1886 -0.4243
  739MOL0    Cl97460   6.192  10.245   2.344  0.0980 -0.7140  0.3627
  739MOL0     C97461   5.524  10.068   2.999 -0.2347  0.2962  0.1447
  739MOL0     C97462   5.559  10.090   3.137  0.0870  0.2055 -0.5299
  739MOL0     O97463   5.732  10.201   3.321 -0.4939 -0.4494  0.3946
  739MOL0     C97464   5.805  10.215   3.585  0.8316  0.2506 -0.5283
  739MOL0     C97465   5.840  10.230   3.720  0.3037 -0.4791  0.4589
  739MOL0     N97466   6.406  10.473   4.000 -0.2197  0.3845  0.0519
  739MOL0     N97467   6.521  10.465   4.061 -0.1294 -0.8262  0.4703
  739MOL0     C97468   7.493  10.874   4.511 -0.0933  0.1618  0.4289
  739MOL0     C97469   7.640  10.889   4.527 -0.1383 -0.0558  0.2898
  739MOL0     C97470   8.051  10.993   4.649 -0.1922  0.7164  0.7279
  739MOL0     C97471   8.066  11.121   4.698 -0.3892  0.7105  0.3451
  739MOL0     C97472   8.198  11.184   4.713  0.6750  0.6254 -0.2069
  739MOL0     C97473   8.303  11.111   4.673  0.1286  0.0373  0.2142
  739MOL0     O97474   8.419  11.182   4.687  0.2135  0.2886 -0.2185
  739MOL0     C97475   8.532  11.143   4.612 -0.1330  0.6300 -0.5893
  739MOL0     C97476   8.636  11.257   4.631 -0.6153  0.7530 -0.2649
  739MOL0     C97477   8.599  11.383   4.566  0.0180 -0.5225 -0.2338
  739MOL0     C97478   8.502  11.464   4.649  1.1254 -0.5280 -0.5324
  739MOL0     C97479   8.519  11.607   4.618 -0.0134  1.2449 -0.0597
  739MOL0     C97480   8.548  11.719   4.591  0.2092  0.5164 -0.6196
  739MOL0     C97481   8.291  10.979   4.620  0.2749 -0.4194  0.2732
  739MOL0     C97482   8.165  10.921   4.611  0.6232 -0.4730  0.8293
  739MOL0     H97483   7.633  11.119   4.778 -0.7920 -0.2705  1.5897
  739MOL0     H97484   7.402  11.062   4.776  0.1490 -4.3696  2.5248
  739MOL0     H97485   7.290  10.718   4.511  0.8475  0.2096  0.0145
  739MOL0     H97486   7.236  10.848   4.396  0.2061  5.3063  2.5097
  739MOL0     H97487   7.017  10.843   4.514 -1.0854 -0.0589 -0.4079
  739MOL0     H97488   7.087  10.739   4.641  0.6364 -1.5239 -0.4307
  739MOL0     H97489   7.131  10.562   4.462  0.6133  0.0119 -0.5353
  739MOL0     H97490   7.057  10.680   4.347  0.0047  0.4405  0.8369
  739MOL0     H97491   6.929  10.584   4.595  0.1918  1.3359 -1.3383
  739MOL0     H97492   6.840  10.655   4.462 -0.4672  1.0371  0.7617
  739MOL0     H97493   6.984  10.390   4.487 -1.7192 -1.8674  0.0212
  739MOL0     H97494   6.920  10.449   4.331  1.8953  0.9079  0.0947
  739MOL0     H97495   6.743  10.406   4.576  0.1703 -1.4203  0.0761
  739MOL0     H97496   6.767  10.282   4.462  2.4890 -0.4797  0.3915
  739MOL0     H97497   6.575  10.472   4.439  2.9204  1.6157  1.4225
  739MOL0     H97498   6.694  10.544   4.332 -0.7255 -0.5488 -3.1566
  739MOL0     H97499   6.601  10.255   4.303 -1.6717  0.5939  0.4305
  739MOL0     H97500   6.711  10.333   4.193 -0.9026 -0.3557  0.0098
  739MOL0     H97501   6.360  10.252   4.233  1.3233 -0.4885 -1.5732
  739MOL0     H97502   6.137  10.440   3.960 -1.1407  1.4147  1.6080
  739MOL0     H97503   6.111  10.402   4.126  0.1349 -0.9418  0.6171
  739MOL0     H97504   6.201  10.170   4.090  0.5676 -0.2984 -1.2602
  739MOL0     H97505   6.220  10.207   3.922  3.9736  2.3694  1.0299
  739MOL0     H97506   5.985  10.105   3.926  1.4951 -0.0704 -1.1367
  739MOL0     H97507   5.971  10.116   4.086  1.0056 -2.0623 -0.9595
  739MOL0     H97508   5.936  10.369   3.906 -0.0909 -0.4539  0.1460
  739MOL0     H97509   5.873  10.365   4.071 -3.7345 -0.1864 -0.2338
  739MOL0     H97510   5.515  10.218   3.841 -0.7318  0.0471 -0.5989
  739MOL0     H97511   5.468  10.186   3.620  1.0862  1.1387 -0.6542
  739MOL0     H97512   5.311  10.308   3.209  1.5815  2.2944 -1.1578
  739MOL0     H97513   5.256  10.282   2.974 -1.7452  0.7537  2.2471
  739MOL0     H97514   5.511   9.985   2.708  1.0220  0.3599  1.3067
  739MOL0     H97515   5.585  10.139   2.732 -1.6262  2.1409  2.3175
  739MOL0     H97516   5.411  10.261   2.597 -1.9521  0.2628  3.5287
  739MOL0     H97517   5.327  10.119   2.579  0.3335 -0.0565  0.0167
  739MOL0     H97518   5.466  10.178   2.376  1.5371  2.8990 -0.5447
  739MOL0     H97519   5.491  10.019   2.433 -2.3137  1.1559  3.4094
  739MOL0     H97520   5.666  10.269   2.513 -1.5766  0.2739 -0.7994
  739MOL0     H97521   5.710  10.108   2.546 -0.6496 -0.4466  1.1139
  739MOL0     H97522   5.681  10.216   2.260  1.4399  0.6490 -1.2277
  739MOL0     H97523   5.757  10.065   2.299 -0.6469 -0.2366  0.4769
  739MOL0     H97524   5.921  10.210   2.444  1.4822  2.0332  0.7361
  739MOL0     H97525   5.844  10.350   2.354  2.2607  0.5578 -2.6703
  739MOL0     H97526   5.968  10.117   2.207  1.9687  0.6537 -0.0510
  739MOL0     H97527   5.886  10.259   2.144 -1.4803  0.4482  0.6701
  739MOL0     H97528   6.069  10.408   2.237  0.9888 -0.0030  1.7065
  739MOL0     H97529   6.122  10.289   2.119 -1.8855  1.9851 -1.5926
  739MOL0     H97530   5.563   9.982   2.944 -1.8761  0.2018 -0.9254
  739MOL0     H97531   5.643  10.034   3.178  1.0338  1.3934 -0.7746
  739MOL0     H97532   5.881  10.211   3.508  0.4699 -4.1572 -0.9046
  739MOL0     H97533   5.943  10.248   3.745  0.6361  1.9765 -2.1693
  739MOL0     H97534   7.455  10.813   4.430  0.5063  1.2651 -0.7315
  739MOL0     H97535   7.708  10.829   4.469  1.1894 -0.1750  1.8970
  739MOL0     H97536   7.981  11.178   4.735 -0.7963 -0.1901  0.8226
  739MOL0     H97537   8.206  11.282   4.759  0.2778  1.1611 -1.2486
  739MOL0     H97538   8.505  11.125   4.508 -2.4213  1.1739 -0.1422
  739MOL0     H97539   8.581  11.052   4.648  1.9904  2.4154  1.3510
  739MOL0     H97540   8.654  11.266   4.738 -0.7216 -2.6814  0.1828
  739MOL0     H97541   8.731  11.218   4.592 -0.6785 -1.2288  1.3756
  739MOL0     H97542   8.550  11.371   4.469 -4.0181 -4.8824  1.9662
  739MOL0     H97543   8.696  11.434   4.560  0.2199 -1.0295 -1.7263
  739MOL0     H97544   8.403  11.425   4.622  1.3041 -2.7088  1.6134
  739MOL0     H97545   8.521  11.452   4.756  2.6724  1.4439 -0.5359
  739MOL0     H97546   8.581  11.820   4.574  0.7508  0.4839  0.2124
  739MOL0     H97547   8.382  10.934   4.584  0.8066  0.5896  0.3064
  739MOL0     H97548   8.152  10.820   4.572  3.1760 -1.0694  1.3261
  740MOL0     O97549   2.231   9.041   5.531 -0.1851  0.7409 -0.2690
  740MOL0     C97550   2.167   9.143   5.526  0.6004  0.9681  0.1877
  740MOL0     O97551   2.030   9.151   5.511 -0.0451 -0.9616 -0.0402
  740MOL0     C97552   1.933   9.050   5.517 -0.9046 -0.2675 -0.4135
  740MOL0     C97553   1.950   8.922   5.574  0.3796 -0.4321  0.0088
  740MOL0     C97554   1.847   8.828   5.556  0.0997 -0.4390  0.5293
  740MOL0     C97555   1.736   8.862   5.478  0.3164  0.3794  0.2466
  740MOL0     O97556   1.654   8.757   5.450  0.2441 -0.5445  0.4404
  740MOL0     C97557   1.533   8.787   5.383 -0.1166 -0.3161  0.5087
  740MOL0     C97558   1.432   8.697   5.447 -0.3601 -0.0938 -0.4886
  740MOL0     C97559   1.289   8.721   5.391 -0.6480  0.1091  0.1475
  740MOL0     C97560   1.178   8.659   5.478  0.1877  0.3358 -0.4621
  740MOL0     C97561   1.041   8.656   5.407 -0.0159  0.6300 -0.4548
  740MOL0     C97562   0.959   8.541   5.464  0.6079  0.0953  0.0735
  740MOL0     C97563   0.808   8.542   5.411 -0.7291  0.3368  1.0496
  740MOL0     C97564   0.786   8.483   5.271  0.0412 -0.0773 -0.8458
  740MOL0     N97565   0.647   8.486   5.231  0.3694 -0.7718 -0.1878
  740MOL0     C97566   0.540   8.421   5.286 -0.9411  0.2155 -0.0099
  740MOL0     C97567   0.433   8.469   5.212  0.7086  0.8980 -0.3511
  740MOL0     C97568   0.293   8.411   5.227 -0.0261 -0.0395 -0.0457
  740MOL0     C97569   0.243   8.416   5.375  0.3521  0.6849  0.2814
  740MOL0     C97570   0.253   8.572   5.411  0.3738  0.8713 -0.3176
  740MOL0     C97571   0.208   8.597   5.548  1.1718  0.5118  0.4505
  740MOL0     O97572   0.278   8.501   5.632  0.3023 -0.5823  0.0004
  740MOL0     C97573   0.406   8.529   5.670  0.6176  0.2589 -0.6096
  740MOL0     C97574   0.466   8.658   5.643  0.4226  0.8204 -0.1570
  740MOL0     C97575   0.594   8.678   5.697 -0.7664 -0.3977  0.5792
  740MOL0     C97576   0.666   8.584   5.773 -0.1074  0.3731  0.6267
  740MOL0     C97577   0.797   8.621   5.833 -0.2170  0.6416  0.1426
  740MOL0     O97578   0.845   8.744   5.810  0.1253  0.1021  0.3510
  740MOL0     C97579   0.979   8.780   5.832  0.3032  0.2281 -0.3361
  740MOL0     C97580   1.078   8.706   5.906 -0.9977 -0.2417 -0.3771
  740MOL0     C97581   1.204   8.760   5.943  0.2009 -0.1250 -0.4832
  740MOL0     C97582   1.246   8.883   5.897 -0.3898  0.0185 -0.5668
  740MOL0     O97583   1.371   8.935   5.905 -0.6470  0.2532 -0.0999
  740MOL0     C97584   1.450   8.906   5.789 -0.0864 -0.1757 -0.2404
  740MOL0     C97585   1.594   8.871   5.829 -0.3528  0.3808  0.0990
  740MOL0     C97586   1.688   8.988   5.866  0.1405  0.9176 -0.0691
  740MOL0     C97587   1.836   8.938   5.886 -0.0662  0.0285  0.1383
  740MOL0     C97588   1.939   9.043   5.885 -0.3612 -0.7812 -1.0715
  740MOL0     C97589   2.072   8.997   5.934 -0.2369 -0.0135 -0.4093
  740MOL0     C97590   2.180   9.100   5.928  0.2682 -0.1114 -0.0604
  740MOL0     C97591   2.314   9.033   5.946 -0.8024 -0.5474 -0.0913
  740MOL0    Cl97592   2.438   9.165   5.937 -0.1946  0.0829 -0.4377
  740MOL0     C97593   1.156   8.949   5.816  0.1847 -0.1312  0.0448
  740MOL0     C97594   1.027   8.902   5.789 -0.4087 -0.9235 -0.0405
  740MOL0     O97595   0.849   8.534   5.907 -0.1125 -0.2915 -0.2899
  740MOL0     C97596   0.601   8.460   5.795 -0.8062 -0.0961 -0.2344
  740MOL0     C97597   0.476   8.437   5.745 -0.5237  0.2283  0.6539
  740MOL0     N97598   0.485   8.563   5.124 -0.8583  0.0654 -0.6745
  740MOL0     N97599   0.613   8.579   5.141  0.8379  0.0589 -0.0543
  740MOL0     C97600   1.727   8.990   5.416 -0.5514  0.4320 -0.5859
  740MOL0     C97601   1.820   9.081   5.442  0.0665  0.6746  0.4112
  740MOL0     C97602   2.236   9.272   5.529  0.6561  0.1796 -0.6612
  740MOL0     C97603   2.169   9.395   5.492  0.4573  0.4795 -1.0973
  740MOL0     C97604   2.238   9.512   5.513 -0.6660 -0.1519  0.5849
  740MOL0     C97605   2.372   9.519   5.546  0.3746 -0.2153  0.3344
  740MOL0     O97606   2.421   9.647   5.563  0.1181  0.1370  0.2112
  740MOL0     C97607   2.565   9.661   5.542  0.7725 -0.0910  0.0042
  740MOL0     C97608   2.598   9.644   5.396 -0.4097 -0.1310 -0.2491
  740MOL0     C97609   2.741   9.696   5.370  0.1129  0.0370  0.0555
  740MOL0     C97610   2.776   9.670   5.224 -1.2516 -0.4934 -0.3978
  740MOL0     C97611   2.919   9.665   5.198 -0.2266 -0.8469  0.1549
  740MOL0     C97612   3.044   9.665   5.189 -0.4980  1.1200  0.2715
  740MOL0     C97613   2.439   9.403   5.577  0.9093 -0.1671 -0.2731
  740MOL0     C97614   2.369   9.281   5.578 -0.1338 -0.1183  0.7563
  740MOL0     H97615   2.044   8.905   5.625  1.0172  2.6605  0.0778
  740MOL0     H97616   1.854   8.729   5.600 -1.1744  0.1501  2.1561
  740MOL0     H97617   1.541   8.748   5.281  0.7519 -1.7153  1.0949
  740MOL0     H97618   1.503   8.892   5.375  0.2009 -0.2051  0.7537
  740MOL0     H97619   1.423   8.713   5.555 -0.7793 -2.2508 -0.1421
  740MOL0     H97620   1.460   8.591   5.439 -0.0099  0.0818 -1.7512
  740MOL0     H97621   1.285   8.686   5.288  0.6503  2.2738 -0.7011
  740MOL0     H97622   1.274   8.829   5.405 -2.9929 -0.4668  3.1967
  740MOL0     H97623   1.222   8.560   5.499 -0.3197  0.6123  2.1325
  740MOL0     H97624   1.175   8.705   5.577  0.0316 -3.1044  1.3104
  740MOL0     H97625   1.056   8.635   5.301  0.3970  0.9026 -0.4501
  740MOL0     H97626   0.997   8.754   5.426  1.1883  1.5069 -1.9989
  740MOL0     H97627   0.958   8.545   5.573 -0.1095  0.7594  0.0551
  740MOL0     H97628   1.007   8.450   5.428 -0.5989  0.2463 -2.1147
  740MOL0     H97629   0.736   8.490   5.474 -0.7562 -0.3517  0.4643
  740MOL0     H97630   0.776   8.647   5.407  0.2944  0.6204 -0.8543
  740MOL0     H97631   0.811   8.376   5.275 -3.2999 -0.9529  0.1087
  740MOL0     H97632   0.849   8.539   5.202 -1.5598  1.3627 -1.2069
  740MOL0     H97633   0.540   8.324   5.334 -1.5013 -2.2458 -4.4588
  740MOL0     H97634   0.300   8.306   5.199 -2.4262 -0.3489  0.2984
  740MOL0     H97635   0.215   8.456   5.164 -0.8491 -1.7239 -0.2698
  740MOL0     H97636   0.307   8.354   5.438  1.3658  0.2462 -1.1210
  740MOL0     H97637   0.139   8.386   5.383 -0.1479  2.1675 -0.2103
  740MOL0     H97638   0.354   8.608   5.393  0.5350  0.6187  0.0712
  740MOL0     H97639   0.199   8.637   5.341 -0.6942 -0.2534 -0.5882
  740MOL0     H97640   0.101   8.577   5.557  1.2629  0.5548  2.0358
  740MOL0     H97641   0.215   8.702   5.579 -1.9864  0.3650  2.0599
  740MOL0     H97642   0.415   8.743   5.599 -1.4813 -1.4647 -2.7313
  740MOL0     H97643   0.629   8.778   5.677  1.1264 -0.9322  1.0368
  740MOL0     H97644   1.066   8.611   5.958 -1.7920  0.0651  0.0356
  740MOL0     H97645   1.281   8.696   5.983  0.1423 -0.5016 -0.9739
  740MOL0     H97646   1.462   8.990   5.720  0.2767  1.2889  1.5446
  740MOL0     H97647   1.408   8.816   5.742 -1.0225  0.0423  0.1741
  740MOL0     H97648   1.647   8.815   5.751 -1.5664  0.7236 -1.0106
  740MOL0     H97649   1.593   8.801   5.914 -1.7431 -1.9515 -1.7144
  740MOL0     H97650   1.654   9.020   5.964 -3.2167 -2.9788  0.3165
  740MOL0     H97651   1.698   9.060   5.784 -0.8072  0.7431 -0.3477
  740MOL0     H97652   1.837   8.890   5.985 -2.8859  1.0979  0.7707
  740MOL0     H97653   1.855   8.864   5.808  0.3585  0.4104 -0.1316
  740MOL0     H97654   1.902   9.129   5.942  2.2166 -0.7792  0.7850
  740MOL0     H97655   1.964   9.081   5.786  1.9729 -2.5352 -1.2303
  740MOL0     H97656   2.103   8.912   5.873 -2.2314 -0.0526 -1.4616
  740MOL0     H97657   2.070   8.961   6.038 -0.8574 -1.6365 -0.9435
  740MOL0     H97658   2.190   9.155   5.834  0.1680 -2.3891 -1.4657
  740MOL0     H97659   2.175   9.174   6.008  1.6433 -0.8798  0.7806
  740MOL0     H97660   2.349   8.964   5.868 -0.2600  1.3475 -1.6102
  740MOL0     H97661   2.316   8.983   6.043 -0.7632  1.0764  0.7784
  740MOL0     H97662   1.193   9.042   5.773 -1.6094  2.2047  3.1177
  740MOL0     H97663   0.959   8.971   5.739  0.4320  1.0952  1.4396
  740MOL0     H97664   0.651   8.385   5.854 -1.2987 -1.0074 -0.9570
  740MOL0     H97665   0.427   8.341   5.760 -1.8386  0.6600 -0.6366
  740MOL0     H97666   1.651   9.009   5.341 -0.9843 -0.0680 -0.2764
  740MOL0     H97667   1.810   9.183   5.405 -1.8369  0.9395  1.5342
  740MOL0     H97668   2.065   9.392   5.461  0.7395 -3.0803 -2.2531
  740MOL0     H97669   2.185   9.607   5.502  1.6982  0.9874 -2.3322
  740MOL0     H97670   2.608   9.591   5.615 -0.1201  0.0027  0.6288
  740MOL0     H97671   2.588   9.762   5.577  0.8321 -0.4978  1.1884
  740MOL0     H97672   2.578   9.542   5.361  1.6100 -1.0020  0.9683
  740MOL0     H97673   2.513   9.693   5.347 -2.8916 -3.2045  0.6458
  740MOL0     H97674   2.809   9.647   5.441 -0.1809  0.2507  0.4851
  740MOL0     H97675   2.738   9.804   5.383  2.5556  0.1716 -0.0202
  740MOL0     H97676   2.727   9.576   5.199 -4.6718  0.2556  2.6031
  740MOL0     H97677   2.740   9.753   5.162  2.6791  1.2569 -0.5914
  740MOL0     H97678   3.151   9.669   5.180 -0.0382 -0.4818  3.6865
  740MOL0     H97679   2.535   9.397   5.627 -0.0867 -0.1871  1.7600
  740MOL0     H97680   2.410   9.188   5.616 -1.4464 -0.4913  1.3063
  741MOL0     O97681   1.153   2.964   8.357  0.5508 -0.3830 -0.6234
  741MOL0     C97682   1.104   2.858   8.379  0.9910  0.5302 -0.0711
  741MOL0     O97683   1.154   2.757   8.456 -0.6052 -0.1467 -0.0304
  741MOL0     C97684   1.258   2.782   8.538 -0.4136  0.0596 -0.8530
  741MOL0     C97685   1.279   2.899   8.614 -0.0173  0.3538 -0.3279
  741MOL0     C97686   1.397   2.918   8.692 -0.0503 -0.7369  0.5729
  741MOL0     C97687   1.499   2.822   8.687  0.5731  0.1297  0.0554
  741MOL0     O97688   1.621   2.835   8.745  0.2450  0.0626  0.0035
  741MOL0     C97689   1.624   2.903   8.876  0.3175 -0.4874  0.2250
  741MOL0     C97690   1.753   2.884   8.944 -0.1211  0.1297 -0.0409
  741MOL0     C97691   1.874   2.953   8.874  0.8344  0.0211 -0.3384
  741MOL0     C97692   2.011   2.903   8.923 -0.2884  0.8214  0.8186
  741MOL0     C97693   2.035   2.910   9.069  0.3787  0.3547  0.1459
  741MOL0     C97694   2.143   2.812   9.113  1.7194  0.2360 -0.0160
  741MOL0     C97695   2.122   2.789   9.263 -0.5228  0.1130  0.1240
  741MOL0     C97696   2.236   2.722   9.337 -0.4887 -0.0980 -0.4614
  741MOL0     N97697   2.188   2.655   9.458  0.3819 -0.4089 -0.0319
  741MOL0     C97698   2.182   2.723   9.579 -0.2069  0.0202 -0.7289
  741MOL0     C97699   2.166   2.633   9.673  0.2147 -0.4985  0.0121
  741MOL0     C97700   2.157   2.659   9.823  0.9760 -0.0743 -0.9819
  741MOL0     C97701   2.026   2.601   9.878  0.0527 -0.1406  0.2008
  741MOL0     C97702   1.902   2.697   9.887 -0.1998  0.7789 -0.1504
  741MOL0     C97703   1.791   2.609   9.945  0.4905  0.7908 -0.0437
  741MOL0     O97704   1.752   2.514   9.842  0.0605  0.3455 -0.0091
  741MOL0     C97705   1.617   2.506   9.816  0.0525 -1.8475 -0.6853
  741MOL0     C97706   1.526   2.495   9.923  0.2213  0.1574 -0.4112
  741MOL0     C97707   1.391   2.468   9.896 -0.1069  0.1941  0.0137
  741MOL0     C97708   1.340   2.458   9.768 -0.2992  0.1443 -0.4256
  741MOL0     C97709   1.193   2.432   9.751 -0.4520  0.7512 -0.1455
  741MOL0     O97710   1.112   2.453   9.858 -0.6033 -0.0847 -0.5662
  741MOL0     C97711   0.976   2.446   9.850  0.1185  0.9128 -0.4795
  741MOL0     C97712   0.914   2.321   9.848  0.4720 -0.8403  0.0825
  741MOL0     C97713   0.772   2.311   9.839  0.2112 -0.1581  0.3738
  741MOL0     C97714   0.688   2.419   9.840  0.1612  0.1123 -0.5010
  741MOL0     O97715   0.550   2.406   9.814  0.5510 -0.3935  0.7722
  741MOL0     C97716   0.500   2.307   9.721 -0.3548  0.1970 -0.6502
  741MOL0     C97717   0.352   2.310   9.697 -0.8171 -0.7068  0.2985
  741MOL0     C97718   0.296   2.187   9.626 -0.5959 -0.9134 -0.4794
  741MOL0     C97719   0.151   2.207   9.578 -0.6258  0.3546 -0.4173
  741MOL0     C97720   0.097   2.076   9.509 -0.2547 -0.7337  0.1981
  741MOL0     C97721  -0.044   2.093   9.465 -0.1906 -0.8653  1.4942
  741MOL0     C97722  -0.102   1.971   9.403 -0.2841  0.2838 -0.2303
  741MOL0     C97723  -0.250   2.000   9.384  0.2756 -0.5897 -0.9231
  741MOL0    Cl97724  -0.334   1.861   9.301  0.3420  0.0688  0.0495
  741MOL0     C97725   0.747   2.542   9.856 -1.1616  0.9992  0.8302
  741MOL0     C97726   0.889   2.556   9.864 -1.0725 -0.8258  0.9442
  741MOL0     O97727   1.156   2.393   9.641 -0.4214  0.5755  0.1434
  741MOL0     C97728   1.431   2.459   9.665 -0.7669 -1.3907 -0.2461
  741MOL0     C97729   1.568   2.491   9.682  0.3301  0.4412  0.7134
  741MOL0     N97730   2.165   2.512   9.609  0.1118 -0.4656  0.0261
  741MOL0     N97731   2.174   2.524   9.481 -0.7585  0.4980  0.1482
  741MOL0     C97732   1.471   2.704   8.624 -0.4843  0.0654 -0.4926
  741MOL0     C97733   1.358   2.676   8.553 -0.1786  0.6617  0.5446
  741MOL0     C97734   0.976   2.826   8.313  0.2319  0.0503 -0.3029
  741MOL0     C97735   0.907   2.923   8.242 -0.5094 -0.4087  0.1163
  741MOL0     C97736   0.804   2.892   8.163  0.0847 -0.2788 -0.2945
  741MOL0     C97737   0.740   2.768   8.167 -0.0920  0.1690 -0.5623
  741MOL0     O97738   0.616   2.761   8.101 -0.7291 -1.0545 -0.0848
  741MOL0     C97739   0.552   2.640   8.108 -0.7799 -0.6488 -0.2742
  741MOL0     C97740   0.429   2.617   8.023 -0.6082  0.5080  0.4243
  741MOL0     C97741   0.309   2.712   8.037 -0.8811  0.0699 -0.0966
  741MOL0     C97742   0.290   2.780   8.174 -0.2643 -0.3685  0.7754
  741MOL0     C97743   0.164   2.846   8.169 -0.0171  0.0044 -0.2425
  741MOL0     C97744   0.048   2.882   8.159 -0.1759  0.8301 -0.4303
  741MOL0     C97745   0.803   2.670   8.236  0.6983  0.5246  0.1190
  741MOL0     C97746   0.914   2.699   8.316 -0.4647  0.5365 -0.2160
  741MOL0     H97747   1.205   2.977   8.601  0.9845  1.1557 -1.4638
  741MOL0     H97748   1.406   3.015   8.741 -0.9643  0.0346 -0.7342
  741MOL0     H97749   1.544   2.854   8.933 -1.3589 -0.1277 -1.7220
  741MOL0     H97750   1.603   3.010   8.866 -0.8476 -0.6139  1.1295
  741MOL0     H97751   1.763   2.776   8.939  0.3947  0.1420  0.5300
  741MOL0     H97752   1.743   2.912   9.049  1.1571  1.6969 -0.2778
  741MOL0     H97753   1.866   3.061   8.887 -1.7777  0.2540 -2.8248
  741MOL0     H97754   1.884   2.924   8.769  2.1842  1.5963 -0.6832
  741MOL0     H97755   2.000   2.796   8.903  1.1670  0.9030 -0.5947
  741MOL0     H97756   2.091   2.942   8.859 -2.2926  0.0132 -2.4537
  741MOL0     H97757   1.945   2.877   9.121  0.1011  0.7583 -0.0720
  741MOL0     H97758   2.065   3.014   9.088 -0.1733  0.1129  2.6627
  741MOL0     H97759   2.247   2.838   9.092  1.1663  1.4682 -1.4431
  741MOL0     H97760   2.113   2.719   9.063 -0.0335 -0.2825  1.8794
  741MOL0     H97761   2.105   2.881   9.320  1.2249  0.9465 -0.6336
  741MOL0     H97762   2.030   2.731   9.261  1.1927 -2.8982  1.3325
  741MOL0     H97763   2.318   2.792   9.354 -0.8407  0.6905 -1.8822
  741MOL0     H97764   2.262   2.645   9.263 -2.6348  1.1003 -2.5708
  741MOL0     H97765   2.189   2.830   9.594 -1.8833 -0.0230  0.5791
  741MOL0     H97766   2.171   2.765   9.847  1.2247 -0.1299 -0.8805
  741MOL0     H97767   2.246   2.607   9.861  1.3689 -0.3998 -2.3039
  741MOL0     H97768   2.049   2.576   9.982  0.3508 -0.1330  0.1359
  741MOL0     H97769   1.999   2.511   9.822  1.2991 -0.2208 -0.3011
  741MOL0     H97770   1.926   2.769   9.965  2.8688  2.2136 -2.2139
  741MOL0     H97771   1.869   2.742   9.793  0.9779 -1.6236 -1.8438
  741MOL0     H97772   1.703   2.662   9.984 -1.1982 -2.3947  0.8982
  741MOL0     H97773   1.825   2.550  10.031  0.8528  1.1858  0.0819
  741MOL0     H97774   1.565   2.507  10.024 -2.7283 -0.5196  0.9267
  741MOL0     H97775   1.329   2.471   9.985 -1.4496 -0.3417 -0.8554
  741MOL0     H97776   0.985   2.240   9.855 -0.2947 -1.6772 -1.2612
  741MOL0     H97777   0.725   2.213   9.841 -0.0524 -0.0315  0.4414
  741MOL0     H97778   0.522   2.206   9.756 -0.3113  0.9801  1.7873
  741MOL0     H97779   0.547   2.334   9.626 -4.3766  0.6440 -2.6938
  741MOL0     H97780   0.333   2.392   9.628  2.1258 -1.1938 -1.2685
  741MOL0     H97781   0.296   2.336   9.787  0.2381  4.5419 -0.2789
  741MOL0     H97782   0.299   2.103   9.696  0.0630 -0.1967  0.3832
  741MOL0     H97783   0.355   2.169   9.536  1.5216 -1.7555  0.9981
  741MOL0     H97784   0.084   2.247   9.654 -1.1001 -1.3226  0.0943
  741MOL0     H97785   0.152   2.284   9.501  0.4912  0.8366  0.0595
  741MOL0     H97786   0.103   1.986   9.570  1.1311 -1.8599 -1.4999
  741MOL0     H97787   0.163   2.059   9.423  0.4305  0.5667  0.4356
  741MOL0     H97788  -0.051   2.172   9.390  0.3827 -2.0008  0.1854
  741MOL0     H97789  -0.107   2.132   9.544 -1.6278  1.0673 -0.4817
  741MOL0     H97790  -0.059   1.946   9.305 -1.2959  1.9318 -1.1311
  741MOL0     H97791  -0.094   1.889   9.475 -1.8362  0.1200 -0.2231
  741MOL0     H97792  -0.259   2.095   9.331 -2.0311 -1.4526 -2.1751
  741MOL0     H97793  -0.296   2.005   9.483  0.6471  1.4582 -0.8176
  741MOL0     H97794   0.684   2.630   9.857 -0.4789  1.5110  0.0357
  741MOL0     H97795   0.931   2.655   9.879  1.0301 -1.2287 -1.5646
  741MOL0     H97796   1.388   2.433   9.569 -4.3429 -1.5000  1.2336
  741MOL0     H97797   1.648   2.501   9.610  0.5993  1.2305  1.1024
  741MOL0     H97798   1.562   2.645   8.634  1.3280  2.8726  0.8232
  741MOL0     H97799   1.341   2.589   8.491 -3.2284  1.2065  0.4844
  741MOL0     H97800   0.942   3.026   8.243 -0.9694 -0.2514  0.8707
  741MOL0     H97801   0.755   2.973   8.109 -0.9944 -1.9428 -1.9430
  741MOL0     H97802   0.533   2.626   8.215 -1.5887  1.6573 -0.0652
  741MOL0     H97803   0.611   2.559   8.066 -2.4385 -0.3972 -3.3559
  741MOL0     H97804   0.464   2.625   7.919  1.8634 -0.2480  1.1314
  741MOL0     H97805   0.402   2.511   8.035  2.6666 -0.7406 -1.9350
  741MOL0     H97806   0.218   2.661   8.004  0.2408 -0.5588 -2.4001
  741MOL0     H97807   0.322   2.797   7.969 -0.7979  0.3003  0.2041
  741MOL0     H97808   0.276   2.709   8.256 -0.3276 -0.0608  1.0333
  741MOL0     H97809   0.365   2.856   8.200  0.3175  0.1318 -2.0127
  741MOL0     H97810  -0.049   2.916   8.128 -0.9578  0.5874  1.6011
  741MOL0     H97811   0.758   2.574   8.255  0.2164  0.6409 -0.4099
  741MOL0     H97812   0.964   2.616   8.364 -2.9721 -0.8863  0.1127
  742MOL0     O97813   1.192  10.428   6.689 -0.8647  0.4441 -0.3530
  742MOL0     C97814   1.206  10.534   6.736  0.0949  0.1926 -0.2590
  742MOL0     O97815   1.105  10.625   6.744  0.7159  0.1526  0.4246
  742MOL0     C97816   0.990  10.611   6.682  0.8502 -0.7014 -0.4370
  742MOL0     C97817   0.960  10.724   6.595  1.2813  0.8205 -0.4563
  742MOL0     C97818   0.847  10.713   6.512 -0.0780  0.1264 -0.0174
  742MOL0     C97819   0.784  10.590   6.498  0.2580  0.5996 -0.7442
  742MOL0     O97820   0.685  10.575   6.410  0.3626 -0.3749  0.2044
  742MOL0     C97821   0.555  10.524   6.451  0.7473  0.3231  0.0333
  742MOL0     C97822   0.455  10.637   6.490 -0.6924  0.7958 -0.2988
  742MOL0     C97823   0.311  10.594   6.494 -0.1970  0.8449  0.5708
  742MOL0     C97824   0.225  10.706   6.541 -0.0160 -0.7721  0.5105
  742MOL0     C97825   0.076  10.660   6.515 -0.4974  0.3081 -0.4242
  742MOL0     C97826  -0.029  10.759   6.555  0.0323  0.6201 -0.5568
  742MOL0     C97827  -0.170  10.722   6.501  0.8234  0.2072  0.5491
  742MOL0     C97828  -0.269  10.816   6.568 -0.0638  0.1606  0.1774
  742MOL0     N97829  -0.411  10.784   6.555 -0.1114 -0.3713 -0.2212
  742MOL0     C97830  -0.488  10.829   6.458  0.8217  0.1865  0.9213
  742MOL0     C97831  -0.616  10.803   6.493 -0.5566  0.3186 -1.1299
  742MOL0     C97832  -0.733  10.873   6.413 -0.2618 -0.2972  0.0645
  742MOL0     C97833  -0.864  10.812   6.460  0.3215 -0.3121  0.0201
  742MOL0     C97834  -0.971  10.888   6.379 -0.5315 -0.1636  0.6576
  742MOL0     C97835  -1.094  10.789   6.382  0.1968  0.5595 -0.2109
  742MOL0     O97836  -1.196  10.842   6.304  0.1956 -0.0705 -0.2008
  742MOL0     C97837  -1.325  10.795   6.312  0.5037  0.4292 -0.3586
  742MOL0     C97838  -1.380  10.704   6.409 -1.1881  0.4757 -1.0068
  742MOL0     C97839  -1.513  10.669   6.415  0.9246 -0.5094 -0.0253
  742MOL0     C97840  -1.601  10.717   6.312  0.1832 -0.3167  0.8812
  742MOL0     C97841  -1.745  10.690   6.316  0.2250 -0.1125  0.5579
  742MOL0     O97842  -1.794  10.640   6.435  0.1686 -0.1935 -0.3185
  742MOL0     C97843  -1.928  10.608   6.449 -0.5392 -0.0880  0.7006
  742MOL0     C97844  -2.012  10.575   6.348 -0.1541 -0.3157 -0.4124
  742MOL0     C97845  -2.142  10.528   6.379  0.0549  0.1263 -0.1414
  742MOL0     C97846  -2.184  10.519   6.509 -0.1407 -0.0620 -0.5560
  742MOL0     O97847  -2.314  10.482   6.546 -0.5111 -0.7619  0.5809
  742MOL0     C97848  -2.396  10.419   6.447 -0.0619  0.7797 -0.1180
  742MOL0     C97849  -2.500  10.334   6.514 -0.3974  0.4285  0.3183
  742MOL0     C97850  -2.599  10.416   6.589  0.9203  0.0186  0.1516
  742MOL0     C97851  -2.704  10.343   6.672 -0.1917 -0.2081 -0.7040
  742MOL0     C97852  -2.784  10.232   6.627 -0.1401 -0.0083  0.1924
  742MOL0     C97853  -2.892  10.263   6.520  0.2860 -0.0556  0.0591
  742MOL0     C97854  -2.985  10.142   6.499 -0.8286 -0.5458 -0.3810
  742MOL0     C97855  -3.080  10.157   6.386 -0.3844 -0.6533  0.0710
  742MOL0    Cl97856  -3.207  10.037   6.414  0.1782 -0.0376  0.4762
  742MOL0     C97857  -2.095  10.557   6.611 -0.2384  0.4135  0.5476
  742MOL0     C97858  -1.964  10.598   6.581  0.1668 -0.3967  0.4515
  742MOL0     O97859  -1.811  10.738   6.220  0.3243 -0.0561  0.2724
  742MOL0     C97860  -1.551  10.811   6.221  0.2261  0.0002 -0.6139
  742MOL0     C97861  -1.414  10.858   6.224  0.2156  0.2316 -0.1417
  742MOL0     N97862  -0.611  10.731   6.612  0.0926  0.1277 -0.8163
  742MOL0     N97863  -0.496  10.730   6.657  0.1886 -0.6563 -0.3907
  742MOL0     C97864   0.815  10.484   6.586  0.7786 -0.0221  0.6680
  742MOL0     C97865   0.921  10.495   6.675 -0.1150  0.3406 -0.2424
  742MOL0     C97866   1.333  10.571   6.806 -0.1797  0.6342 -0.0574
  742MOL0     C97867   1.413  10.464   6.861 -0.1123  0.3203 -0.5750
  742MOL0     C97868   1.530  10.492   6.931  0.1515 -0.4211 -0.5372
  742MOL0     C97869   1.574  10.617   6.954  0.0262  0.1419  0.7691
  742MOL0     O97870   1.680  10.635   7.033 -0.0218  0.8376 -0.4222
  742MOL0     C97871   1.735  10.765   7.054 -0.5559  0.5946 -0.0362
  742MOL0     C97872   1.861  10.765   7.141 -0.4677 -0.5351 -0.5818
  742MOL0     C97873   1.973  10.688   7.073 -0.4930  0.7652  0.0504
  742MOL0     C97874   2.107  10.684   7.145 -0.0259 -0.3673 -0.0192
  742MOL0     C97875   2.157  10.821   7.180 -0.2083  0.1626  0.2216
  742MOL0     C97876   2.202  10.924   7.210  0.0661 -0.5386  0.0136
  742MOL0     C97877   1.499  10.721   6.887  0.4387 -0.4661 -0.7632
  742MOL0     C97878   1.385  10.702   6.802  0.1149 -0.1560  0.0374
  742MOL0     H97879   1.016  10.817   6.600 -2.4558  3.2298  1.8267
  742MOL0     H97880   0.810  10.791   6.445 -1.3557 -2.3279 -2.3672
  742MOL0     H97881   0.567  10.454   6.534  1.5433 -2.7951 -2.5553
  742MOL0     H97882   0.513  10.459   6.374 -1.5889  2.4209 -0.6055
  742MOL0     H97883   0.465  10.722   6.422  1.2516  1.2060  0.4111
  742MOL0     H97884   0.478  10.667   6.593 -0.1098  1.0875 -0.5110
  742MOL0     H97885   0.285  10.507   6.555  1.2387 -0.8044 -1.0634
  742MOL0     H97886   0.300  10.559   6.392 -2.1270  1.4388  0.5441
  742MOL0     H97887   0.244  10.719   6.648 -0.2397 -2.4366  0.7794
  742MOL0     H97888   0.239  10.801   6.487  1.7143  0.2937  2.7076
  742MOL0     H97889   0.068  10.568   6.574  1.7803  0.4588  0.2220
  742MOL0     H97890   0.065  10.632   6.410 -2.8482 -3.1394  0.5582
  742MOL0     H97891  -0.007  10.855   6.507 -0.5515  1.8026  1.4167
  742MOL0     H97892  -0.031  10.773   6.663  3.8381 -0.5612 -0.1796
  742MOL0     H97893  -0.178  10.738   6.394 -0.2086  0.1086  0.6071
  742MOL0     H97894  -0.198  10.623   6.538  0.8855 -1.4501 -3.3386
  742MOL0     H97895  -0.242  10.917   6.534  0.4272  0.2498  0.8073
  742MOL0     H97896  -0.260  10.822   6.677  0.9651  2.8471  0.0218
  742MOL0     H97897  -0.469  10.889   6.370 -0.0490 -0.0566  0.5569
  742MOL0     H97898  -0.712  10.872   6.306 -3.3052 -0.2685 -0.6282
  742MOL0     H97899  -0.729  10.977   6.446  2.3206  0.4264 -2.2154
  742MOL0     H97900  -0.861  10.836   6.567  3.3056  1.2233 -0.3016
  742MOL0     H97901  -0.883  10.705   6.449 -0.6621 -0.0144 -1.4205
  742MOL0     H97902  -1.007  10.978   6.431 -0.6986 -0.7942  1.6621
  742MOL0     H97903  -0.940  10.921   6.280 -0.3948 -0.6674  0.5306
  742MOL0     H97904  -1.118  10.777   6.488  1.9705  1.0828  0.2745
  742MOL0     H97905  -1.062  10.692   6.342 -1.3030  0.3116 -0.8827
  742MOL0     H97906  -1.316  10.652   6.480 -1.6402  1.4778  0.1661
  742MOL0     H97907  -1.541  10.610   6.502 -1.2756  1.4690  0.7263
  742MOL0     H97908  -1.982  10.592   6.245 -2.9420  2.6532 -0.8890
  742MOL0     H97909  -2.204  10.499   6.295  1.0707 -0.5527 -0.6833
  742MOL0     H97910  -2.329  10.349   6.397 -3.5944 -1.9490 -1.4934
  742MOL0     H97911  -2.447  10.490   6.381  1.1523  3.3076  1.4941
  742MOL0     H97912  -2.456  10.256   6.577 -0.4024  0.9379  0.9639
  742MOL0     H97913  -2.545  10.276   6.434  1.0359  1.0535 -0.9924
  742MOL0     H97914  -2.649  10.455   6.500  0.4668 -2.4584 -0.7698
  742MOL0     H97915  -2.557  10.496   6.650 -0.7975  0.8465  0.3337
  742MOL0     H97916  -2.648  10.306   6.758 -0.6851  0.7981  0.0724
  742MOL0     H97917  -2.763  10.425   6.714  2.8595  0.1087  3.5682
  742MOL0     H97918  -2.827  10.193   6.719 -0.5841 -0.2572 -0.1143
  742MOL0     H97919  -2.724  10.149   6.591 -3.6622 -2.8979  0.3751
  742MOL0     H97920  -2.843  10.290   6.426  1.1878  0.6181  0.7069
  742MOL0     H97921  -2.952  10.346   6.556  3.3782  3.2739 -1.8066
  742MOL0     H97922  -2.926  10.050   6.496  0.9612  0.5564 -1.1186
  742MOL0     H97923  -3.050  10.138   6.586  0.1213 -0.3500  0.3454
  742MOL0     H97924  -3.020  10.150   6.295  1.7794  1.9598  1.1344
  742MOL0     H97925  -3.125  10.256   6.393 -1.5920 -1.2270  0.7431
  742MOL0     H97926  -2.125  10.532   6.712 -1.4647  0.3876  0.1890
  742MOL0     H97927  -1.884  10.622   6.650  1.4654 -0.4012 -0.9888
  742MOL0     H97928  -1.612  10.845   6.138 -0.8500 -0.8836 -0.2082
  742MOL0     H97929  -1.370  10.928   6.153 -1.3395  0.0037 -1.3802
  742MOL0     H97930   0.764  10.388   6.594  1.7512 -0.4699  1.8383
  742MOL0     H97931   0.939  10.411   6.742 -0.9324  0.2133 -0.1642
  742MOL0     H97932   1.374  10.364   6.845 -4.4643  1.9601 -1.5728
  742MOL0     H97933   1.579  10.410   6.982  1.4615  0.0185 -1.0218
  742MOL0     H97934   1.672  10.836   7.109  0.4699  1.9327 -0.5177
  742MOL0     H97935   1.748  10.813   6.957 -2.9772 -0.0863 -0.7718
  742MOL0     H97936   1.883  10.870   7.160 -1.4806 -0.2098 -1.0884
  742MOL0     H97937   1.836  10.710   7.232  0.7694  1.9244  1.3567
  742MOL0     H97938   1.982  10.721   6.969 -0.3252  0.2315 -0.1085
  742MOL0     H97939   1.931  10.587   7.067  2.5381 -0.6151  0.3497
  742MOL0     H97940   2.097  10.630   7.239  0.6868 -0.0717  0.2336
  742MOL0     H97941   2.177  10.627   7.085 -0.3482 -0.8702  0.0800
  742MOL0     H97942   2.237  11.020   7.242 -0.9345 -0.4568  0.9048
  742MOL0     H97943   1.551  10.816   6.893  0.9928 -0.8099  0.0903
  742MOL0     H97944   1.348  10.792   6.752 -1.1421  0.3970  1.8895
  743MOL0     O97945   3.286   8.582   0.823 -0.3840  0.4038 -0.4974
  743MOL0     C97946   3.268   8.626   0.934  0.6005  0.0933  0.3445
  743MOL0     O97947   3.167   8.584   1.008  0.2336 -0.0691 -0.4341
  743MOL0     C97948   3.064   8.504   0.961 -0.7362  0.6575  0.1081
  743MOL0     C97949   3.001   8.499   0.833  0.0814  0.0416 -0.4078
  743MOL0     C97950   2.901   8.413   0.803  0.7688  0.2374 -0.3767
  743MOL0     C97951   2.863   8.304   0.893 -0.6391  0.5983 -0.9842
  743MOL0     O97952   2.766   8.222   0.878  0.1035 -0.2763 -0.3981
  743MOL0     C97953   2.642   8.287   0.840 -0.7246 -0.5120  0.9983
  743MOL0     C97954   2.529   8.190   0.845 -0.5744  0.2070  0.9185
  743MOL0     C97955   2.516   8.134   0.991  0.1732 -0.2555 -0.4409
  743MOL0     C97956   2.422   8.011   0.989 -0.0425  0.3563  0.1148
  743MOL0     C97957   2.372   7.987   1.138  0.0316  0.4791 -0.3163
  743MOL0     C97958   2.282   7.864   1.148  0.9018  0.8672  0.3349
  743MOL0     C97959   2.139   7.897   1.115  0.2025 -0.7386 -0.0319
  743MOL0     C97960   2.071   7.762   1.076 -0.2348 -0.4483 -0.3594
  743MOL0     N97961   1.926   7.754   1.074  0.5802 -0.2549  0.2411
  743MOL0     C97962   1.859   7.645   1.125  0.2300 -0.0659 -0.6221
  743MOL0     C97963   1.725   7.671   1.118  0.0803  0.0452 -0.3758
  743MOL0     C97964   1.604   7.581   1.159 -0.6951 -0.4611  0.4305
  743MOL0     C97965   1.470   7.643   1.172 -0.0232  0.1269  0.5579
  743MOL0     C97966   1.402   7.714   1.048 -0.2582 -0.2572  0.3093
  743MOL0     C97967   1.250   7.723   1.065 -0.8301 -1.0361  0.1115
  743MOL0     O97968   1.196   7.830   0.991  0.7498  0.0817  0.3123
  743MOL0     C97969   1.057   7.846   0.978  0.5037  0.7801  0.6296
  743MOL0     C97970   1.016   7.965   0.923 -1.0240 -0.5668 -0.6264
  743MOL0     C97971   0.881   7.998   0.904  0.6051  0.0064  0.2237
  743MOL0     C97972   0.780   7.904   0.926  0.0282 -0.0344 -0.2990
  743MOL0     C97973   0.640   7.945   0.910  0.0541  0.1717  0.6874
  743MOL0     O97974   0.607   8.072   0.868  0.1659 -0.4382 -0.2835
  743MOL0     C97975   0.476   8.108   0.842 -0.1314  0.1093  0.4572
  743MOL0     C97976   0.418   8.206   0.933  0.2880  0.1412  0.8658
  743MOL0     C97977   0.295   8.261   0.899 -0.0748  0.4270 -0.0502
  743MOL0     C97978   0.218   8.196   0.801 -0.3310  0.4538  0.0825
  743MOL0     O97979   0.100   8.252   0.780  0.1857 -0.1059 -0.1209
  743MOL0     C97980   0.009   8.209   0.687 -0.4004 -0.1190  0.2228
  743MOL0     C97981  -0.133   8.264   0.703 -0.6216  0.3020 -0.5574
  743MOL0     C97982  -0.215   8.210   0.593  0.4876  0.0056 -0.7942
  743MOL0     C97983  -0.352   8.279   0.593  0.7732  0.6355  0.0096
  743MOL0     C97984  -0.448   8.238   0.708  0.1087 -0.0749 -0.1704
  743MOL0     C97985  -0.591   8.293   0.687  0.2451 -0.1797 -0.7048
  743MOL0     C97986  -0.675   8.267   0.811 -0.1337  0.3141  0.2304
  743MOL0     C97987  -0.818   8.321   0.803  0.1467  0.3665 -0.5162
  743MOL0    Cl97988  -0.907   8.250   0.668  0.2674  0.2532 -0.6814
  743MOL0     C97989   0.264   8.098   0.718  0.4142  0.2615 -0.0606
  743MOL0     C97990   0.398   8.052   0.735  0.0571  0.0361 -1.0285
  743MOL0     O97991   0.560   7.858   0.928 -1.1923  0.3764  1.0555
  743MOL0     C97992   0.818   7.783   0.991 -0.4316 -0.1757  0.8738
  743MOL0     C97993   0.957   7.765   1.018  0.0954 -0.0095 -0.2931
  743MOL0     N97994   1.717   7.795   1.050  0.0408  0.6298  0.1244
  743MOL0     N97995   1.830   7.846   1.028 -0.1711  0.2740 -0.0645
  743MOL0     C97996   2.919   8.306   1.020  0.1168 -0.3668  0.0109
  743MOL0     C97997   3.018   8.402   1.051 -0.1545 -0.5943 -0.4096
  743MOL0     C97998   3.376   8.705   0.989  0.0987 -0.1087  0.2891
  743MOL0     C97999   3.349   8.760   1.114 -0.6190  0.1159 -0.1861
  743MOL0     C98000   3.446   8.838   1.176 -0.6989 -0.7328 -0.9312
  743MOL0     C98001   3.573   8.860   1.107 -0.5201 -1.0152  0.0022
  743MOL0     O98002   3.677   8.932   1.151  0.2010  0.1747 -0.4008
  743MOL0     C98003   3.649   9.010   1.265  0.3083  0.4634 -0.6895
  743MOL0     C98004   3.770   9.091   1.298 -0.1233  0.6424  0.2116
  743MOL0     C98005   3.811   9.192   1.190  0.3821  0.2094 -0.3695
  743MOL0     C98006   3.949   9.264   1.218 -0.1646  0.3522  0.7798
  743MOL0     C98007   4.063   9.174   1.201  0.3234 -0.2111  0.0233
  743MOL0     C98008   4.158   9.103   1.193  0.1999  0.6862 -0.3308
  743MOL0     C98009   3.599   8.791   0.992  0.0963  0.5018 -0.6385
  743MOL0     C98010   3.499   8.715   0.928 -0.1920  0.3106 -0.1785
  743MOL0     H98011   3.053   8.555   0.757  2.5474 -0.8926  0.4978
  743MOL0     H98012   2.863   8.425   0.702 -0.7592 -1.0942 -0.0098
  743MOL0     H98013   2.643   8.340   0.744 -0.0332 -0.4355  1.0399
  743MOL0     H98014   2.615   8.368   0.908  1.0503  0.6471  0.4170
  743MOL0     H98015   2.549   8.107   0.777  2.1731  1.9021 -0.5363
  743MOL0     H98016   2.442   8.248   0.811 -1.3183 -1.1175  0.5178
  743MOL0     H98017   2.481   8.216   1.055 -0.1460 -0.6799 -0.0592
  743MOL0     H98018   2.613   8.100   1.029 -1.6313 -3.7606  1.6075
  743MOL0     H98019   2.338   8.026   0.920  1.4139 -0.7861 -2.0490
  743MOL0     H98020   2.472   7.921   0.952  2.8215  1.7181  0.4029
  743MOL0     H98021   2.328   8.079   1.178 -2.5614 -0.7224 -0.2394
  743MOL0     H98022   2.464   7.970   1.195  0.1010  0.7680 -0.3381
  743MOL0     H98023   2.278   7.822   1.249  0.4167  0.7132  0.2578
  743MOL0     H98024   2.328   7.792   1.079 -0.3863 -0.2480  0.5901
  743MOL0     H98025   2.093   7.943   1.203  0.8033  1.2172 -0.6842
  743MOL0     H98026   2.129   7.966   1.031  0.4960  1.1425  1.4302
  743MOL0     H98027   2.110   7.683   1.141 -1.7935  0.8998  2.3880
  743MOL0     H98028   2.103   7.742   0.973 -0.3948  0.4527 -0.5914
  743MOL0     H98029   1.901   7.547   1.143 -1.3955 -0.9164 -1.2672
  743MOL0     H98030   1.636   7.546   1.258 -0.6254 -0.4185  0.4227
  743MOL0     H98031   1.616   7.501   1.085  1.4139 -0.4724  0.7154
  743MOL0     H98032   1.462   7.710   1.257  1.0292  0.5735  0.3296
  743MOL0     H98033   1.398   7.564   1.196  1.1401 -1.0926  0.1901
  743MOL0     H98034   1.437   7.818   1.048  2.7356 -1.1533 -0.7872
  743MOL0     H98035   1.424   7.665   0.952 -1.7045 -0.5103  0.0792
  743MOL0     H98036   1.235   7.730   1.173 -0.6067 -1.4018  0.1666
  743MOL0     H98037   1.207   7.629   1.030 -2.9786  0.1906 -0.7811
  743MOL0     H98038   1.095   8.017   0.869 -0.2221 -0.2876  0.7805
  743MOL0     H98039   0.865   8.096   0.860  1.7237  0.7984  1.4892
  743MOL0     H98040   0.478   8.253   1.010 -1.0518 -1.2600  2.8752
  743MOL0     H98041   0.248   8.344   0.950 -2.7203  0.6948 -2.6407
  743MOL0     H98042   0.007   8.100   0.690  0.5310 -0.1310  1.2426
  743MOL0     H98043   0.039   8.233   0.585 -1.5788 -0.2957 -0.1772
  743MOL0     H98044  -0.139   8.373   0.717 -1.7002  0.0306  1.4718
  743MOL0     H98045  -0.171   8.224   0.797 -0.9506  0.2554 -0.7095
  743MOL0     H98046  -0.230   8.102   0.583  1.5749 -0.4208  1.4102
  743MOL0     H98047  -0.174   8.245   0.498 -0.2966  0.1366 -1.0883
  743MOL0     H98048  -0.347   8.388   0.608  0.2593  0.5594  0.7930
  743MOL0     H98049  -0.401   8.251   0.499 -0.3609  0.8441  0.5120
  743MOL0     H98050  -0.402   8.271   0.801 -2.9122  1.2562  0.9868
  743MOL0     H98051  -0.472   8.131   0.711 -2.6588  0.4774 -0.0768
  743MOL0     H98052  -0.633   8.243   0.599  2.2006  0.9032 -2.3539
  743MOL0     H98053  -0.586   8.401   0.670 -1.5953 -0.0589 -0.6388
  743MOL0     H98054  -0.685   8.161   0.836 -1.4798 -0.2539 -2.3815
  743MOL0     H98055  -0.615   8.332   0.874  0.5722  0.4970 -0.6132
  743MOL0     H98056  -0.823   8.430   0.791  1.8730  0.4376 -0.8407
  743MOL0     H98057  -0.848   8.292   0.904  1.9377  0.8765  0.1877
  743MOL0     H98058   0.205   8.068   0.632  0.6771 -1.7606  0.4282
  743MOL0     H98059   0.437   7.974   0.670 -1.1530 -0.4986 -1.1413
  743MOL0     H98060   0.739   7.718   1.026 -1.3779  0.9546  0.8621
  743MOL0     H98061   0.977   7.671   1.069  2.4141  0.8020  0.4361
  743MOL0     H98062   2.909   8.223   1.088 -1.0457 -1.5059 -1.4822
  743MOL0     H98063   3.076   8.391   1.142  0.5154  3.0547 -0.2784
  743MOL0     H98064   3.269   8.729   1.180  1.3566  0.6212  2.6307
  743MOL0     H98065   3.423   8.871   1.277  1.5652 -1.3637 -0.1653
  743MOL0     H98066   3.614   8.954   1.352 -1.9224 -0.8738 -2.3344
  743MOL0     H98067   3.570   9.076   1.227  0.8947 -0.1656 -3.2250
  743MOL0     H98068   3.751   9.155   1.384 -0.9646 -1.7349  1.8952
  743MOL0     H98069   3.849   9.019   1.322 -0.6831  0.6193  2.1373
  743MOL0     H98070   3.738   9.275   1.188  0.3006  0.1708  0.5659
  743MOL0     H98071   3.823   9.146   1.092  2.8641  1.9256 -0.9585
  743MOL0     H98072   3.977   9.354   1.162 -0.8802 -0.2937 -0.6675
  743MOL0     H98073   3.951   9.298   1.322 -0.4737  3.2083 -0.0725
  743MOL0     H98074   4.241   9.036   1.184  0.3333  0.8314 -0.1802
  743MOL0     H98075   3.700   8.799   0.954  1.4471  1.6821  2.7846
  743MOL0     H98076   3.522   8.667   0.833  1.3127  3.3348 -1.4817
  744MOL0     O98077   8.254  10.658  11.004 -0.5210  0.5850  0.1600
  744MOL0     C98078   8.354  10.586  11.022  0.1569  0.9376 -0.0065
  744MOL0     O98079   8.351  10.458  11.073 -0.4817 -0.2551 -0.4405
  744MOL0     C98080   8.235  10.382  11.110 -0.1974 -0.1754  0.5906
  744MOL0     C98081   8.258  10.247  11.137 -0.3118 -0.5594  1.0034
  744MOL0     C98082   8.158  10.161  11.165 -0.3784  0.4467  0.0184
  744MOL0     C98083   8.028  10.201  11.174  0.2525 -0.5158 -0.3675
  744MOL0     O98084   7.926  10.106  11.198  0.1256 -0.3842 -0.6402
  744MOL0     C98085   7.796  10.123  11.146  0.5438 -1.1143 -0.5183
  744MOL0     C98086   7.757   9.985  11.108 -0.2898  0.0705 -0.2697
  744MOL0     C98087   7.663   9.975  10.988  0.4631  0.0236  0.1189
  744MOL0     C98088   7.596   9.840  10.991  0.1439 -0.3804 -0.5693
  744MOL0     C98089   7.503   9.821  10.871 -1.0864  0.5908 -0.1358
  744MOL0     C98090   7.374   9.906  10.867  0.3962 -0.1130 -0.8569
  744MOL0     C98091   7.272   9.855  10.770  0.5860 -0.0174  0.3400
  744MOL0     C98092   7.213   9.714  10.800  0.1108 -0.2397  0.8477
  744MOL0     N98093   7.137   9.706  10.920  0.3155  0.4494  0.4161
  744MOL0     C98094   7.036   9.783  10.971  0.2656  0.2630  0.6527
  744MOL0     C98095   7.009   9.735  11.092 -0.1199  0.5554  0.1774
  744MOL0     C98096   6.909   9.793  11.185 -0.7735  0.2991  0.0099
  744MOL0     C98097   6.768   9.737  11.158 -0.0135 -0.4546 -0.0456
  744MOL0     C98098   6.734   9.599  11.223 -0.1543 -0.5054  0.0839
  744MOL0     C98099   6.592   9.593  11.277 -0.4253  0.0124 -0.1639
  744MOL0     O98100   6.498   9.633  11.174 -0.1943 -0.5619  0.5111
  744MOL0     C98101   6.370   9.652  11.223 -0.4875  0.0730 -0.8112
  744MOL0     C98102   6.325   9.637  11.354 -0.7667 -1.1976 -0.1073
  744MOL0     C98103   6.189   9.652  11.375 -0.2955  0.5115 -0.3682
  744MOL0     C98104   6.098   9.679  11.276  0.4075  0.7183  0.8103
  744MOL0     C98105   5.952   9.700  11.304 -1.0758  0.8655  0.4510
  744MOL0     O98106   5.910   9.664  11.433 -0.0579  0.0715  0.4265
  744MOL0     C98107   5.778   9.637  11.464  0.2477  0.4023  0.3463
  744MOL0     C98108   5.675   9.592  11.377 -0.7782 -0.2743 -0.0161
  744MOL0     C98109   5.550   9.558  11.440 -0.5179  0.0413 -0.0084
  744MOL0     C98110   5.532   9.577  11.580  0.6063  0.1966  1.1272
  744MOL0     O98111   5.413   9.544  11.639 -0.1293  0.1284 -0.5754
  744MOL0     C98112   5.317   9.441  11.593 -0.0140 -0.0984  0.0849
  744MOL0     C98113   5.217   9.399  11.693  0.2124 -0.2696 -0.7896
  744MOL0     C98114   5.283   9.300  11.802 -0.0428  0.6064 -1.0007
  744MOL0     C98115   5.235   9.305  11.951 -0.2399  0.1309 -0.1992
  744MOL0     C98116   5.319   9.403  12.032  0.1346 -0.3625 -0.5842
  744MOL0     C98117   5.261   9.408  12.184 -0.8198 -0.2021  0.5293
  744MOL0     C98118   5.346   9.502  12.263 -0.2614 -0.1376 -0.7655
  744MOL0     C98119   5.283   9.548  12.392 -0.4369  0.5864  0.0367
  744MOL0    Cl98120   5.261   9.430  12.526  0.1391 -0.0100 -0.2177
  744MOL0     C98121   5.627   9.636  11.659 -0.2214 -0.5339  0.0465
  744MOL0     C98122   5.750   9.670  11.602 -0.1072 -0.8880  0.5114
  744MOL0     O98123   5.876   9.729  11.208  0.1162  0.0281  0.3468
  744MOL0     C98124   6.146   9.708  11.148 -0.0209  0.0664 -0.5266
  744MOL0     C98125   6.281   9.696  11.126  0.1215 -0.0444  0.2021
  744MOL0     N98126   7.100   9.634  11.122 -0.6679 -0.4979 -0.0846
  744MOL0     N98127   7.170   9.621  11.022 -1.5822  0.0036  0.2143
  744MOL0     C98128   8.010  10.344  11.167 -0.3064 -0.0875 -0.5310
  744MOL0     C98129   8.108  10.429  11.130 -1.0266  0.2297 -0.3881
  744MOL0     C98130   8.487  10.624  10.964  0.6533 -0.6745 -0.5158
  744MOL0     C98131   8.591  10.538  10.954 -0.1679  0.4202 -0.1351
  744MOL0     C98132   8.716  10.575  10.917 -0.3398  0.8299  0.0230
  744MOL0     C98133   8.745  10.713  10.893 -0.6324  0.6924  0.1728
  744MOL0     O98134   8.870  10.760  10.860  0.3319  0.1337 -0.4363
  744MOL0     C98135   8.988  10.683  10.899  0.4238  0.2954 -0.2477
  744MOL0     C98136   9.101  10.783  10.926  0.6037 -0.6994 -0.5050
  744MOL0     C98137   9.140  10.859  10.795 -0.3847 -0.3793 -0.0102
  744MOL0     C98138   9.291  10.884  10.790  0.5915 -0.0199 -0.9558
  744MOL0     C98139   9.320  11.004  10.863 -0.3248  0.3729 -0.6627
  744MOL0     C98140   9.363  11.112  10.906  0.5463 -0.4937  0.4622
  744MOL0     C98141   8.638  10.803  10.889 -0.4476  0.3339  0.6700
  744MOL0     C98142   8.512  10.757  10.928 -0.3304  0.4785 -0.3354
  744MOL0     H98143   8.363  10.223  11.127 -0.2614  0.4745 -3.0426
  744MOL0     H98144   8.189  10.058  11.180  4.4229  1.4835 -1.2627
  744MOL0     H98145   7.794  10.190  11.059  0.3544 -1.3311 -0.6797
  744MOL0     H98146   7.731  10.172  11.219  1.1304  0.1690 -0.8174
  744MOL0     H98147   7.712   9.934  11.194 -0.4975 -1.4123 -1.2237
  744MOL0     H98148   7.838   9.920  11.074  0.2664  0.7680 -0.2989
  744MOL0     H98149   7.722   9.983  10.896  0.0971 -0.0675 -0.1253
  744MOL0     H98150   7.596  10.060  10.974  1.8237  1.0537 -0.3293
  744MOL0     H98151   7.673   9.763  11.000 -0.3405 -0.9368 -1.0602
  744MOL0     H98152   7.521   9.830  11.070 -0.4571  0.1098 -1.0664
  744MOL0     H98153   7.467   9.719  10.884 -0.4276  0.3649 -0.0631
  744MOL0     H98154   7.561   9.832  10.779 -1.2906 -3.7374 -0.9891
  744MOL0     H98155   7.388  10.014  10.854  1.3277  0.1268  1.5641
  744MOL0     H98156   7.326   9.897  10.965 -0.9548 -4.4880 -1.6923
  744MOL0     H98157   7.187   9.924  10.777 -0.0661 -0.9178  1.9776
  744MOL0     H98158   7.305   9.857  10.666 -2.5682  0.7258 -0.7453
  744MOL0     H98159   7.295   9.642  10.802  0.0884 -0.3040 -0.0576
  744MOL0     H98160   7.140   9.693  10.721  1.7309 -2.6401 -0.1337
  744MOL0     H98161   6.981   9.861  10.918  1.8822  0.6286 -0.5848
  744MOL0     H98162   6.905   9.900  11.162 -2.2159  0.3009  0.1536
  744MOL0     H98163   6.935   9.780  11.291 -1.1601 -2.2189 -0.1283
  744MOL0     H98164   6.754   9.752  11.051 -1.1044  0.7046  0.2286
  744MOL0     H98165   6.703   9.813  11.204  2.8080  2.0583  0.0729
  744MOL0     H98166   6.745   9.516  11.153  1.5148  0.9411 -1.4811
  744MOL0     H98167   6.804   9.581  11.306 -0.8577 -0.5454  0.6758
  744MOL0     H98168   6.586   9.662  11.362 -3.1102  0.7840 -0.8687
  744MOL0     H98169   6.565   9.493  11.312  0.4807 -0.5348 -0.9960
  744MOL0     H98170   6.388   9.599  11.435 -1.3528 -0.8850  0.5070
  744MOL0     H98171   6.154   9.638  11.477 -0.0729  0.3635 -0.3126
  744MOL0     H98172   5.694   9.573  11.272 -0.8717  0.0846 -0.1013
  744MOL0     H98173   5.463   9.525  11.384 -0.9843  1.1540  0.0301
  744MOL0     H98174   5.358   9.352  11.545 -0.9844 -0.8527  0.6179
  744MOL0     H98175   5.262   9.494  11.514  2.5774 -0.8287 -2.3917
  744MOL0     H98176   5.136   9.341  11.647 -0.0296  0.5602 -1.4318
  744MOL0     H98177   5.169   9.479  11.749 -0.2608  0.6703 -2.4769
  744MOL0     H98178   5.392   9.310  11.799 -0.0079  0.1958 -1.2330
  744MOL0     H98179   5.261   9.199  11.764  0.6852  0.2756 -0.5826
  744MOL0     H98180   5.135   9.349  11.952 -0.3742 -0.1379  1.7268
  744MOL0     H98181   5.227   9.213  12.010  2.5602  1.0726  1.8734
  744MOL0     H98182   5.313   9.498  11.977 -0.2438  0.6003  1.0691
  744MOL0     H98183   5.418   9.357  12.040 -0.2786 -1.5125 -1.7414
  744MOL0     H98184   5.258   9.307  12.225  1.7507 -0.6332 -0.1729
  744MOL0     H98185   5.158   9.445  12.194 -0.1251  1.5439  1.7591
  744MOL0     H98186   5.445   9.457  12.275 -0.5649 -1.2260 -2.1046
  744MOL0     H98187   5.370   9.594  12.208 -2.8938  3.0238  2.8205
  744MOL0     H98188   5.190   9.603  12.378  0.5512  2.6498  1.0932
  744MOL0     H98189   5.345   9.635  12.420 -0.7396  1.9291 -3.0162
  744MOL0     H98190   5.596   9.653  11.761 -1.9396 -2.6251 -0.0378
  744MOL0     H98191   5.832   9.723  11.649  2.6602 -2.1365 -2.5418
  744MOL0     H98192   6.084   9.734  11.062 -2.4361 -1.0422  0.7701
  744MOL0     H98193   6.334   9.718  11.033  0.6933 -0.1906  0.4899
  744MOL0     H98194   7.910  10.384  11.181 -0.5215 -0.9985  0.7890
  744MOL0     H98195   8.092  10.535  11.116 -2.1353  0.1965  0.5306
  744MOL0     H98196   8.579  10.432  10.976 -0.3265  0.4297 -0.1788
  744MOL0     H98197   8.800  10.507  10.909 -1.9444 -1.0121 -2.5668
  744MOL0     H98198   9.010  10.617  10.815 -0.6384  1.4873 -1.5336
  744MOL0     H98199   8.978  10.624  10.990 -2.3512 -0.1679 -0.7623
  744MOL0     H98200   9.060  10.855  10.997  0.0897 -2.0259  0.6042
  744MOL0     H98201   9.183  10.731  10.978  1.5299  1.6986  0.5944
  744MOL0     H98202   9.082  10.950  10.774  1.6902  1.4010  1.5334
  744MOL0     H98203   9.124  10.787  10.714  2.7474 -2.0079  0.6385
  744MOL0     H98204   9.343  10.794  10.823 -0.9923 -1.8240 -3.0366
  744MOL0     H98205   9.332  10.905  10.691  0.3441  0.0858 -1.0372
  744MOL0     H98206   9.391  11.208  10.942 -0.0352 -0.4602  0.8329
  744MOL0     H98207   8.653  10.910  10.878 -0.2991  0.4144  1.5926
  744MOL0     H98208   8.432  10.822  10.963  0.9236  1.7463  0.2822
  745MOL0     O98209   7.169   9.029   9.561 -0.4795 -0.1487  0.2452
  745MOL0     C98210   7.229   9.136   9.555  0.7353 -0.0949  0.3174
  745MOL0     O98211   7.174   9.257   9.606 -0.4332 -0.9215  0.3920
  745MOL0     C98212   7.043   9.269   9.633 -0.1055 -0.2953 -0.0171
  745MOL0     C98213   7.002   9.361   9.733  0.0230 -0.0183 -0.3199
  745MOL0     C98214   6.864   9.375   9.759  0.1454  0.2337  0.0692
  745MOL0     C98215   6.776   9.295   9.681  0.0526 -0.6491 -0.2402
  745MOL0     O98216   6.633   9.307   9.693  0.0331 -0.3632 -0.0372
  745MOL0     C98217   6.572   9.364   9.813 -0.4784  0.0204  0.7373
  745MOL0     C98218   6.418   9.326   9.800 -0.2533 -0.4517  0.4215
  745MOL0     C98219   6.339   9.408   9.911 -0.9454 -0.2677  0.3975
  745MOL0     C98220   6.205   9.349   9.933 -0.9183  0.0786 -0.4085
  745MOL0     C98221   6.109   9.448  10.018 -0.0376  0.3443 -0.3579
  745MOL0     C98222   5.983   9.377  10.062  0.4467  0.3255 -0.3652
  745MOL0     C98223   5.890   9.474  10.132 -1.0364  0.4617  0.8372
  745MOL0     C98224   5.759   9.413  10.194  0.9749 -0.3421  0.3859
  745MOL0     N98225   5.682   9.524  10.251 -0.0791 -0.8027 -0.7101
  745MOL0     C98226   5.592   9.520  10.347 -0.7440  0.0046 -0.0428
  745MOL0     C98227   5.543   9.646  10.367 -0.5197  0.6613  0.6830
  745MOL0     C98228   5.425   9.684  10.452  0.1946 -0.2428 -0.2966
  745MOL0     C98229   5.455   9.649  10.597 -0.3341 -0.3002  0.5438
  745MOL0     C98230   5.398   9.756  10.690  0.2784 -0.1319  0.1468
  745MOL0     C98231   5.241   9.773  10.677 -0.5990  0.7223  0.2821
  745MOL0     O98232   5.187   9.835  10.799  0.0629 -1.2050  0.4706
  745MOL0     C98233   5.051   9.824  10.825  0.0325 -0.9918 -0.0598
  745MOL0     C98234   5.013   9.861  10.955  0.6470  0.5882  0.2797
  745MOL0     C98235   4.879   9.861  10.997  1.2168  0.3534  0.0332
  745MOL0     C98236   4.776   9.816  10.912  0.6541 -0.0785 -0.2856
  745MOL0     C98237   4.642   9.817  10.960 -0.0111 -0.0810  0.0635
  745MOL0     O98238   4.622   9.813  11.099 -0.3660  0.7917  1.0736
  745MOL0     C98239   4.497   9.829  11.147 -0.2106  1.4121  0.7153
  745MOL0     C98240   4.463   9.753  11.260 -0.0970 -0.4113  0.4096
  745MOL0     C98241   4.338   9.750  11.319 -0.5248 -0.0862  0.8548
  745MOL0     C98242   4.238   9.840  11.272 -0.5798 -0.4264  0.0175
  745MOL0     O98243   4.121   9.854  11.344  0.5547 -0.3555 -0.2426
  745MOL0     C98244   4.017   9.954  11.304  0.0235  0.6823 -0.6034
  745MOL0     C98245   3.912   9.932  11.418 -0.1280  0.7983  0.4557
  745MOL0     C98246   3.788  10.027  11.397 -0.4016  0.2028 -0.1732
  745MOL0     C98247   3.688  10.007  11.516 -0.1203 -0.1615  0.2110
  745MOL0     C98248   3.578  10.112  11.511  0.1745  0.1053 -0.6172
  745MOL0     C98249   3.517  10.143  11.653  0.3215 -0.2828 -0.0720
  745MOL0     C98250   3.477  10.022  11.732 -0.2157 -1.1272  0.8942
  745MOL0     C98251   3.531  10.020  11.878  0.0239  0.1003  0.5315
  745MOL0    Cl98252   3.481  10.169  11.966 -0.2075  0.2232 -0.0110
  745MOL0     C98253   4.263   9.912  11.150 -0.3488  0.0417 -0.2805
  745MOL0     C98254   4.392   9.904  11.087 -0.1196 -0.0605  0.1245
  745MOL0     O98255   4.557   9.801  10.871 -0.5821  0.3666  0.2868
  745MOL0     C98256   4.820   9.775  10.779  1.2111 -0.3360 -0.3549
  745MOL0     C98257   4.944   9.795  10.732 -0.0260 -0.3321  0.1138
  745MOL0     N98258   5.613   9.727  10.279  0.7524 -0.7881  0.4032
  745MOL0     N98259   5.698   9.659  10.216  0.4401  1.4140 -0.1141
  745MOL0     C98260   6.817   9.216   9.578  0.3030  0.9628 -0.4478
  745MOL0     C98261   6.951   9.201   9.558  0.3012  0.4762  0.3888
  745MOL0     C98262   7.378   9.126   9.534  0.6636  0.3631  0.4317
  745MOL0     C98263   7.449   9.234   9.576 -0.0117  0.0806  0.3660
  745MOL0     C98264   7.591   9.229   9.581  0.6322 -0.2772 -0.1508
  745MOL0     C98265   7.671   9.117   9.533  0.4141  0.5849 -0.4822
  745MOL0     O98266   7.809   9.119   9.560 -0.2511  0.6362  0.4314
  745MOL0     C98267   7.896   9.010   9.519 -0.0413 -0.4403  0.3072
  745MOL0     C98268   8.035   9.020   9.568 -0.4996  0.0028  0.9815
  745MOL0     C98269   8.038   9.052   9.720  0.5157  0.1404  0.6977
  745MOL0     C98270   8.172   9.099   9.780  0.2741 -0.4139 -0.2771
  745MOL0     C98271   8.235   9.201   9.699 -0.5112 -0.1861  0.3426
  745MOL0     C98272   8.289   9.291   9.636  0.2974  0.6012  0.3927
  745MOL0     C98273   7.583   9.012   9.484 -0.7365 -0.2657 -0.6429
  745MOL0     C98274   7.443   9.011   9.490 -0.7443  0.3044 -0.0812
  745MOL0     H98275   7.075   9.432   9.771  1.6973 -1.3622 -0.8904
  745MOL0     H98276   6.826   9.449   9.829  1.5352 -0.3974  1.5462
  745MOL0     H98277   6.588   9.471   9.828 -2.1897  0.6087 -1.1672
  745MOL0     H98278   6.616   9.319   9.902 -0.3793 -0.6699  0.3490
  745MOL0     H98279   6.410   9.219   9.821 -0.5891 -0.8686 -1.6503
  745MOL0     H98280   6.374   9.356   9.705 -1.0008  1.8161  1.4103
  745MOL0     H98281   6.332   9.515   9.893 -3.2407 -0.0428  2.1582
  745MOL0     H98282   6.378   9.402  10.013 -0.8938 -0.2791  0.3771
  745MOL0     H98283   6.154   9.327   9.839 -1.7049  1.9917 -0.4815
  745MOL0     H98284   6.215   9.255   9.988  0.5723 -0.6995 -1.9044
  745MOL0     H98285   6.084   9.531   9.952  0.5507  2.0517  1.4642
  745MOL0     H98286   6.166   9.478  10.107  0.4547  0.0015 -0.5489
  745MOL0     H98287   6.007   9.292  10.126 -2.6847 -2.3636 -2.4219
  745MOL0     H98288   5.929   9.341   9.974 -0.5127 -0.9793  0.7137
  745MOL0     H98289   5.947   9.531  10.206 -0.7755 -0.5025  1.4025
  745MOL0     H98290   5.865   9.542  10.051 -1.1704 -0.6629 -0.0933
  745MOL0     H98291   5.781   9.343  10.275  0.3811  3.1465  3.8852
  745MOL0     H98292   5.709   9.368  10.108 -0.3510  0.8621  0.5017
  745MOL0     H98293   5.546   9.432  10.392  2.5844 -3.1271 -2.1994
  745MOL0     H98294   5.335   9.633  10.417  0.0457 -1.0676  1.2153
  745MOL0     H98295   5.404   9.790  10.434 -1.9929 -0.9786 -2.4813
  745MOL0     H98296   5.563   9.634  10.610 -0.2173  2.0811  3.4311
  745MOL0     H98297   5.401   9.555  10.610  0.8595 -1.5964 -2.8534
  745MOL0     H98298   5.415   9.732  10.795 -0.0764  3.7075  1.2091
  745MOL0     H98299   5.452   9.851  10.679 -1.1573  1.2684  3.8050
  745MOL0     H98300   5.196   9.675  10.663 -0.9222  1.0774 -1.3966
  745MOL0     H98301   5.214   9.834  10.590 -0.4196  1.3962  0.6932
  745MOL0     H98302   5.091   9.894  11.023 -2.2134  5.1639  1.8808
  745MOL0     H98303   4.853   9.889  11.099  0.4087  1.8968 -0.5694
  745MOL0     H98304   4.535   9.689  11.309 -0.7394 -0.7902  0.8653
  745MOL0     H98305   4.305   9.698  11.409 -0.5106  2.0730  2.1949
  745MOL0     H98306   3.971   9.917  11.212  2.9374 -0.6817 -1.6468
  745MOL0     H98307   4.044  10.058  11.288 -0.4037  0.7572 -0.8597
  745MOL0     H98308   3.956   9.944  11.518 -3.2039 -0.3561  2.1021
  745MOL0     H98309   3.874   9.830  11.412 -0.6408  0.9581  0.8756
  745MOL0     H98310   3.733   9.989  11.311  0.6105  1.1427 -1.2669
  745MOL0     H98311   3.831  10.128  11.390  0.5241  0.0178  2.0127
  745MOL0     H98312   3.641   9.909  11.523 -0.2562 -0.1258 -0.1601
  745MOL0     H98313   3.742  10.026  11.609  0.6260  0.3639 -0.3114
  745MOL0     H98314   3.499  10.091  11.438 -0.5104 -0.9377  0.3697
  745MOL0     H98315   3.630  10.199  11.472  2.6243 -1.0910 -0.1919
  745MOL0     H98316   3.427  10.204  11.645  0.7078  0.2182 -0.7218
  745MOL0     H98317   3.577  10.202  11.724 -2.7775  0.9086  1.7772
  745MOL0     H98318   3.369  10.029  11.750  0.0008 -0.8838  2.2429
  745MOL0     H98319   3.501   9.927  11.684  0.5598  0.6723 -2.6237
  745MOL0     H98320   3.639   9.999  11.877  0.2335  0.9782  2.1471
  745MOL0     H98321   3.487   9.939  11.937  1.3367 -0.1522  1.1962
  745MOL0     H98322   4.189   9.982  11.112 -1.2894 -1.3107 -1.0264
  745MOL0     H98323   4.406   9.966  11.000 -0.6407  0.2821  0.2807
  745MOL0     H98324   4.741   9.742  10.712  1.2889 -0.8237 -0.2032
  745MOL0     H98325   4.966   9.767  10.630 -0.1790 -0.3765  0.0932
  745MOL0     H98326   6.756   9.163   9.505  0.9172  0.9771 -0.9753
  745MOL0     H98327   6.969   9.147   9.466 -3.7557 -1.1075  0.3147
  745MOL0     H98328   7.397   9.316   9.625 -0.4006 -1.1330  2.0870
  745MOL0     H98329   7.629   9.308   9.644 -0.5515  0.1751  0.0215
  745MOL0     H98330   7.894   9.011   9.410  1.3682  3.4888  0.1821
  745MOL0     H98331   7.854   8.915   9.555 -1.0861 -0.8004 -1.7172
  745MOL0     H98332   8.085   8.923   9.554 -1.4859 -0.5588  1.2847
  745MOL0     H98333   8.090   9.098   9.515  0.7356 -2.6704 -2.0288
  745MOL0     H98334   8.003   8.973   9.788 -4.4813  1.9724  0.7012
  745MOL0     H98335   7.981   9.142   9.744  1.5077  0.1495  3.4806
  745MOL0     H98336   8.158   9.135   9.883 -0.6017  0.9729 -0.8449
  745MOL0     H98337   8.244   9.017   9.781  2.0852  1.0980 -0.4074
  745MOL0     H98338   8.333   9.367   9.576  2.0750 -2.2078 -2.0973
  745MOL0     H98339   7.630   8.923   9.443  1.0130 -0.5759  1.8480
  745MOL0     H98340   7.393   8.918   9.467  0.1736 -0.3283  0.4247
  746MOL0     O98341   3.927   7.229   9.212 -0.1477  0.1191 -0.3553
  746MOL0     C98342   3.955   7.118   9.262 -0.6272 -0.3450  0.8217
  746MOL0     O98343   3.879   7.015   9.246  0.2854  0.7287 -0.6109
  746MOL0     C98344   3.773   7.032   9.163 -0.0590  0.0828 -0.1929
  746MOL0     C98345   3.650   6.976   9.206 -0.5076 -0.7438 -0.5055
  746MOL0     C98346   3.540   6.960   9.128 -0.2836 -0.5416  0.1248
  746MOL0     C98347   3.554   6.988   8.993 -0.0653 -0.0800 -0.5801
  746MOL0     O98348   3.454   6.969   8.902 -0.1696  0.4448 -0.2633
  746MOL0     C98349   3.372   6.849   8.928  0.1115  0.7034 -0.4350
  746MOL0     C98350   3.260   6.846   8.824  0.9445 -0.3036 -0.5605
  746MOL0     C98351   3.234   6.706   8.766  0.2577  0.0660 -0.1992
  746MOL0     C98352   3.168   6.618   8.875 -0.6197 -0.2868 -1.0138
  746MOL0     C98353   3.167   6.469   8.836 -0.6572 -0.8710 -0.2251
  746MOL0     C98354   3.094   6.435   8.706  0.0450 -0.2280 -0.6848
  746MOL0     C98355   2.945   6.475   8.719 -0.3858  0.8712 -0.1734
  746MOL0     C98356   2.872   6.426   8.597  0.3800 -0.2170  0.2534
  746MOL0     N98357   2.723   6.430   8.601 -0.1239  0.4999  0.2548
  746MOL0     C98358   2.643   6.326   8.643 -0.2177 -0.6162 -0.1931
  746MOL0     C98359   2.520   6.374   8.627 -0.4521 -0.4335  0.4552
  746MOL0     C98360   2.405   6.295   8.689 -0.5796 -0.6118 -0.3733
  746MOL0     C98361   2.327   6.388   8.780  0.8997  0.0738 -0.1500
  746MOL0     C98362   2.184   6.322   8.813 -0.9795  0.0164  0.3432
  746MOL0     C98363   2.114   6.408   8.917  0.1307 -0.1279  0.5708
  746MOL0     O98364   2.030   6.507   8.858 -0.2416  0.2231  0.0216
  746MOL0     C98365   1.892   6.518   8.871  0.3378  0.7529  0.0567
  746MOL0     C98366   1.823   6.570   8.760 -0.5902 -0.3519  0.1474
  746MOL0     C98367   1.685   6.597   8.763 -0.3933  0.3633  0.4919
  746MOL0     C98368   1.616   6.573   8.884  0.4298 -0.4947  0.2270
  746MOL0     C98369   1.478   6.622   8.904 -0.1915  0.8407 -0.5530
  746MOL0     O98370   1.416   6.663   8.794  0.9216 -0.8697  0.3218
  746MOL0     C98371   1.273   6.678   8.788 -0.6220 -0.2209 -0.2719
  746MOL0     C98372   1.179   6.628   8.878  0.2689  0.4183 -0.2386
  746MOL0     C98373   1.036   6.641   8.856 -0.8967  0.5480  1.2972
  746MOL0     C98374   0.994   6.709   8.740  0.4226  0.1094 -1.0345
  746MOL0     O98375   0.859   6.724   8.717  0.1459  1.1377 -0.7079
  746MOL0     C98376   0.807   6.856   8.738  0.9761  0.0114  0.5212
  746MOL0     C98377   0.665   6.851   8.789  0.6130  0.1534  0.6204
  746MOL0     C98378   0.558   6.805   8.688  1.1542  0.6366  0.4539
  746MOL0     C98379   0.416   6.802   8.753 -0.0688  0.7151 -0.6407
  746MOL0     C98380   0.311   6.788   8.643 -0.2290  0.5588 -0.0529
  746MOL0     C98381   0.170   6.808   8.701  0.3488 -0.8338  0.1341
  746MOL0     C98382   0.062   6.815   8.595  0.3197  0.6902 -0.2396
  746MOL0     C98383  -0.018   6.686   8.569  0.3341 -0.6045 -1.1373
  746MOL0    Cl98384   0.071   6.556   8.494 -0.2305  0.1077 -0.1678
  746MOL0     C98385   1.085   6.758   8.655 -0.7224 -0.8268  0.6128
  746MOL0     C98386   1.219   6.746   8.683 -0.9671 -0.0769 -0.4866
  746MOL0     O98387   1.435   6.629   9.019  0.1404  0.4751  0.0258
  746MOL0     C98388   1.688   6.526   8.996  0.1179 -0.9451 -0.9463
  746MOL0     C98389   1.824   6.495   8.991 -1.2297  0.1892 -0.6966
  746MOL0     N98390   2.520   6.495   8.564 -0.4232 -0.4316  0.2994
  746MOL0     N98391   2.643   6.534   8.561 -0.5301  0.3416 -0.2228
  746MOL0     C98392   3.674   7.041   8.941 -0.0258 -0.4148  0.0832
  746MOL0     C98393   3.783   7.062   9.026 -0.1421  0.0134 -0.4157
  746MOL0     C98394   4.077   7.089   9.334  0.5934 -0.0688 -0.4050
  746MOL0     C98395   4.098   6.955   9.384  0.1444 -1.1942  0.7182
  746MOL0     C98396   4.204   6.941   9.472  0.1858 -0.3301  0.3530
  746MOL0     C98397   4.297   7.041   9.503  0.0265  0.1489  0.1066
  746MOL0     O98398   4.396   7.009   9.592  0.4696  0.1973  0.1174
  746MOL0     C98399   4.534   7.043   9.570 -0.0971  0.5502 -0.1865
  746MOL0     C98400   4.575   7.154   9.656 -0.6665  0.0908 -0.4575
  746MOL0     C98401   4.711   7.224   9.632 -0.0538 -0.0855 -0.6267
  746MOL0     C98402   4.745   7.244   9.488  0.3987  0.2233  0.0646
  746MOL0     C98403   4.647   7.332   9.412  0.0926  1.0383 -0.0238
  746MOL0     C98404   4.556   7.388   9.359 -0.3849 -1.2090 -0.5524
  746MOL0     C98405   4.280   7.164   9.443 -0.3460  0.5259 -0.1603
  746MOL0     C98406   4.174   7.186   9.351 -0.5273  0.6567  0.2519
  746MOL0     H98407   3.643   6.946   9.310  2.3300 -1.0338 -0.2998
  746MOL0     H98408   3.445   6.937   9.175  0.3821 -1.8210  0.8984
  746MOL0     H98409   3.321   6.851   9.025  0.4538 -0.9680 -0.1879
  746MOL0     H98410   3.425   6.753   8.920 -1.7976 -0.2299 -3.3557
  746MOL0     H98411   3.289   6.902   8.734  0.5186 -0.3318 -0.7194
  746MOL0     H98412   3.167   6.892   8.860 -0.1180 -1.1221 -2.1011
  746MOL0     H98413   3.322   6.658   8.723  0.1359 -0.3055 -0.0341
  746MOL0     H98414   3.155   6.711   8.690 -0.5296  1.1511  0.6431
  746MOL0     H98415   3.217   6.630   8.972  1.5708 -0.4866 -2.0293
  746MOL0     H98416   3.065   6.654   8.883 -0.7445 -0.6374 -1.0276
  746MOL0     H98417   3.128   6.414   8.922 -1.1149  1.7811  1.3897
  746MOL0     H98418   3.272   6.436   8.831 -1.4990 -3.7840 -0.5681
  746MOL0     H98419   3.098   6.328   8.681 -1.0409 -0.4422 -0.0410
  746MOL0     H98420   3.147   6.486   8.626  2.3687  1.1895  1.5898
  746MOL0     H98421   2.896   6.433   8.808 -0.8752  2.1284  0.1801
  746MOL0     H98422   2.938   6.584   8.727  0.2421  0.9975 -1.1895
  746MOL0     H98423   2.920   6.335   8.561  4.0342  2.1974 -1.6590
  746MOL0     H98424   2.894   6.503   8.523 -2.7366  0.0779 -0.4952
  746MOL0     H98425   2.668   6.225   8.674 -2.0680 -1.4591 -1.2541
  746MOL0     H98426   2.443   6.207   8.742  0.6450  0.8701  1.3166
  746MOL0     H98427   2.342   6.262   8.606 -0.6398 -1.2112 -0.0925
  746MOL0     H98428   2.303   6.483   8.731  0.1919 -0.4643 -0.8803
  746MOL0     H98429   2.388   6.419   8.865 -0.9645  3.2027  0.2194
  746MOL0     H98430   2.120   6.303   8.726  0.4714 -1.2392 -0.4879
  746MOL0     H98431   2.217   6.228   8.859 -2.6789 -1.2833 -0.9179
  746MOL0     H98432   2.186   6.476   8.964 -1.0030  3.9306 -2.9304
  746MOL0     H98433   2.074   6.340   8.993  1.4647  0.1686  1.5861
  746MOL0     H98434   1.884   6.594   8.673 -1.1970 -1.1754 -0.5233
  746MOL0     H98435   1.639   6.638   8.674 -1.4250  0.6382  1.1352
  746MOL0     H98436   1.211   6.573   8.966 -1.5651 -3.4252 -1.7571
  746MOL0     H98437   0.964   6.592   8.921 -0.6203 -1.9412 -0.1537
  746MOL0     H98438   0.804   6.901   8.638  0.3107  0.8798  0.9197
  746MOL0     H98439   0.871   6.912   8.806  2.5350 -1.1364  0.0653
  746MOL0     H98440   0.630   6.953   8.807  1.4448  1.2379 -2.9760
  746MOL0     H98441   0.670   6.785   8.875  0.1642 -1.1737 -0.3431
  746MOL0     H98442   0.583   6.715   8.630 -1.5957 -0.3737  0.6750
  746MOL0     H98443   0.546   6.880   8.609  2.5393  1.5980  1.1164
  746MOL0     H98444   0.412   6.712   8.816  0.5542  0.3058 -1.1715
  746MOL0     H98445   0.406   6.895   8.809 -1.1113  0.0705  0.2851
  746MOL0     H98446   0.323   6.702   8.577 -3.4522 -0.8789  1.0177
  746MOL0     H98447   0.328   6.875   8.578  1.0915 -2.3418 -3.9954
  746MOL0     H98448   0.165   6.911   8.738 -0.8147 -0.7012 -0.3478
  746MOL0     H98449   0.151   6.744   8.788 -1.4345  1.1218  1.2965
  746MOL0     H98450  -0.016   6.880   8.635 -3.0220 -3.8149  1.4034
  746MOL0     H98451   0.100   6.861   8.503  0.1751  0.5708 -0.3604
  746MOL0     H98452  -0.112   6.714   8.519 -0.9816  2.3515  2.4972
  746MOL0     H98453  -0.055   6.663   8.669  2.9498  0.9167  0.2857
  746MOL0     H98454   1.040   6.807   8.569 -1.9864 -1.6191  0.7967
  746MOL0     H98455   1.294   6.780   8.612 -1.0901  0.2109 -0.4768
  746MOL0     H98456   1.638   6.516   9.092 -0.1030 -0.7452 -1.0371
  746MOL0     H98457   1.881   6.458   9.076 -0.3983  0.2119 -1.2347
  746MOL0     H98458   3.683   7.067   8.836 -1.6061 -0.9070 -0.2067
  746MOL0     H98459   3.875   7.087   8.975 -0.2456  0.7409 -0.2466
  746MOL0     H98460   4.030   6.873   9.366 -2.4328  0.7789  0.8200
  746MOL0     H98461   4.226   6.848   9.524  2.7478  0.6271  1.1326
  746MOL0     H98462   4.547   7.060   9.462 -0.7309 -1.0570 -0.5545
  746MOL0     H98463   4.593   6.955   9.599 -1.0611 -0.2716 -0.6545
  746MOL0     H98464   4.497   7.231   9.658 -0.7702 -0.0095 -0.6300
  746MOL0     H98465   4.582   7.112   9.757 -1.0964  2.0101  0.4262
  746MOL0     H98466   4.788   7.163   9.678 -2.1194  0.0437  3.4181
  746MOL0     H98467   4.723   7.320   9.684  0.2835  1.2247 -2.9689
  746MOL0     H98468   4.838   7.299   9.508  0.7287  0.1048 -1.1081
  746MOL0     H98469   4.766   7.148   9.441  0.3126 -0.6250  1.6647
  746MOL0     H98470   4.495   7.449   9.295 -0.2201  0.2946  0.6650
  746MOL0     H98471   4.354   7.243   9.455  0.4204 -0.3611  1.2879
  746MOL0     H98472   4.179   7.281   9.299  0.3565  0.7445  0.4843
  747MOL0     O98473   7.172   3.683   9.622  0.2646 -0.7660  0.5996
  747MOL0     C98474   7.210   3.794   9.665  0.0997  0.8924 -0.1907
  747MOL0     O98475   7.193   3.915   9.612  1.2233  0.2840 -0.1106
  747MOL0     C98476   7.153   3.923   9.482 -0.0503 -0.2126  0.6361
  747MOL0     C98477   7.020   3.946   9.445  0.0369  0.6725  0.7527
  747MOL0     C98478   6.981   3.956   9.307  0.9240  0.8648 -1.0090
  747MOL0     C98479   7.084   3.927   9.213 -0.1752  0.2999  0.0230
  747MOL0     O98480   7.063   3.925   9.079  0.0111 -0.1596 -0.6781
  747MOL0     C98481   6.940   3.952   9.017 -0.5945  0.1114  0.3496
  747MOL0     C98482   6.905   4.102   9.007  0.1814  0.3389 -0.3761
  747MOL0     C98483   6.783   4.131   8.922  0.3828 -0.9374 -0.9950
  747MOL0     C98484   6.759   4.279   8.900  0.0209 -0.4972  0.0999
  747MOL0     C98485   6.641   4.297   8.805 -0.5129 -0.1586 -0.2879
  747MOL0     C98486   6.500   4.257   8.865  0.7459  0.0484 -0.5361
  747MOL0     C98487   6.394   4.271   8.755 -0.9731  0.2198  0.3731
  747MOL0     C98488   6.253   4.252   8.807  0.1523 -0.3598  0.2891
  747MOL0     N98489   6.138   4.268   8.707  0.0531 -0.9058  0.5920
  747MOL0     C98490   6.076   4.182   8.620  0.2719 -1.2276  0.2368
  747MOL0     C98491   5.991   4.249   8.547  0.7115  0.1210 -0.2953
  747MOL0     C98492   5.916   4.187   8.427  0.4317  0.0259  0.1310
  747MOL0     C98493   5.771   4.236   8.420 -0.1090  0.1216  1.1500
  747MOL0     C98494   5.713   4.155   8.306 -0.1013 -0.6973 -0.2852
  747MOL0     C98495   5.573   4.216   8.280  0.2939  0.7859 -0.5678
  747MOL0     O98496   5.481   4.178   8.386 -0.2427  0.2688 -0.1531
  747MOL0     C98497   5.345   4.198   8.358 -0.2719  0.3285  0.5507
  747MOL0     C98498   5.249   4.143   8.444  0.0282  0.2688 -0.1682
  747MOL0     C98499   5.110   4.171   8.433  0.5053 -0.9559  0.3102
  747MOL0     C98500   5.051   4.243   8.330 -0.2167 -0.1204  0.3386
  747MOL0     C98501   4.903   4.257   8.312  0.3394 -0.1092 -0.3797
  747MOL0     O98502   4.821   4.176   8.388  0.3663  0.4275 -0.1613
  747MOL0     C98503   4.685   4.196   8.392 -0.9688  0.2350  0.0668
  747MOL0     C98504   4.607   4.218   8.282  0.9061 -0.1662  0.2745
  747MOL0     C98505   4.471   4.227   8.287  1.2047  0.2453  0.2256
  747MOL0     C98506   4.406   4.212   8.407 -0.4380  0.1082  0.1827
  747MOL0     O98507   4.272   4.224   8.395  0.1203 -0.5542  0.2069
  747MOL0     C98508   4.194   4.217   8.519  0.2143 -0.5640 -0.6502
  747MOL0     C98509   4.056   4.221   8.489  0.1241  0.5053  0.9514
  747MOL0     C98510   4.003   4.351   8.421 -0.0189 -0.1288  0.4945
  747MOL0     C98511   3.999   4.462   8.525 -0.2027 -0.1645  0.2509
  747MOL0     C98512   3.939   4.579   8.451 -0.3083  0.5043 -0.2121
  747MOL0     C98513   3.917   4.705   8.540 -0.3259  0.1063 -0.2515
  747MOL0     C98514   4.055   4.768   8.580 -0.2351  0.6053  0.5779
  747MOL0     C98515   4.040   4.910   8.627  0.9692  0.4051 -0.3576
  747MOL0    Cl98516   3.907   4.910   8.750  0.5124 -0.0255 -0.6519
  747MOL0     C98517   4.479   4.182   8.528 -0.6975  0.2409 -0.0204
  747MOL0     C98518   4.622   4.173   8.519 -0.2624  0.0880  0.3146
  747MOL0     O98519   4.868   4.335   8.223  0.3855  0.5591  0.1549
  747MOL0     C98520   5.144   4.300   8.236  0.3644  1.0045 -0.4236
  747MOL0     C98521   5.295   4.284   8.263  0.9527 -0.4111  0.3902
  747MOL0     N98522   6.000   4.387   8.584  0.2908 -1.3060  0.4480
  747MOL0     N98523   6.087   4.397   8.676 -0.4381  0.7844  0.1672
  747MOL0     C98524   7.216   3.902   9.255  0.0227 -0.4687  0.4803
  747MOL0     C98525   7.247   3.911   9.392 -0.6839  0.3641  0.2898
  747MOL0     C98526   7.272   3.789   9.799 -0.2381  0.2240  0.4302
  747MOL0     C98527   7.290   3.664   9.868  0.1491 -0.5688  0.3042
  747MOL0     C98528   7.348   3.655   9.990  1.0182 -0.3542  0.0567
  747MOL0     C98529   7.368   3.767  10.064 -0.0760 -0.7579 -0.1747
  747MOL0     O98530   7.401   3.749  10.192 -0.0034  0.3858 -0.3624
  747MOL0     C98531   7.524   3.677  10.213 -0.6196  0.5503  0.0924
  747MOL0     C98532   7.624   3.752  10.300  0.6735 -0.0550 -0.9001
  747MOL0     C98533   7.587   3.762  10.452  0.7355 -0.4865 -0.8898
  747MOL0     C98534   7.441   3.808  10.481  0.8897  0.1787  0.2655
  747MOL0     C98535   7.419   3.800  10.623  0.0836 -0.4161  0.7689
  747MOL0     C98536   7.400   3.812  10.739  0.8665  0.5615  0.0874
  747MOL0     C98537   7.341   3.891  10.008  0.3992  0.2062 -1.2750
  747MOL0     C98538   7.295   3.905   9.876 -0.8466  0.4989 -0.3771
  747MOL0     H98539   6.934   3.969   9.507 -1.0649  0.0328 -0.4875
  747MOL0     H98540   6.880   3.981   9.276  0.5819  0.2052 -0.4430
  747MOL0     H98541   6.859   3.901   9.069 -0.6062 -0.4710 -0.2267
  747MOL0     H98542   6.951   3.919   8.913  2.1819  0.4094  0.4621
  747MOL0     H98543   6.986   4.152   8.954  1.3652 -1.1292 -0.0090
  747MOL0     H98544   6.894   4.125   9.114 -0.0401 -4.0831  0.7791
  747MOL0     H98545   6.695   4.085   8.969  1.1151 -0.5385  0.8203
  747MOL0     H98546   6.806   4.092   8.822  1.5775  3.6589 -2.7910
  747MOL0     H98547   6.737   4.337   8.990  0.6254 -1.8646  1.1616
  747MOL0     H98548   6.844   4.326   8.850 -1.3777  2.4425  0.2675
  747MOL0     H98549   6.650   4.229   8.720  0.4115  0.2153 -0.4981
  747MOL0     H98550   6.628   4.402   8.776 -0.3463  0.8132  2.7560
  747MOL0     H98551   6.462   4.321   8.945 -0.0296 -1.0985  0.0513
  747MOL0     H98552   6.504   4.150   8.892 -0.9727  0.1406  0.2096
  747MOL0     H98553   6.401   4.367   8.705  1.0618 -1.3267 -2.6157
  747MOL0     H98554   6.407   4.189   8.683 -0.2498  1.3059 -0.7638
  747MOL0     H98555   6.232   4.333   8.877  1.2848  0.2210 -0.0267
  747MOL0     H98556   6.253   4.152   8.853 -0.8929 -0.5057 -0.0237
  747MOL0     H98557   6.098   4.076   8.612  1.0505 -0.9781 -1.2420
  747MOL0     H98558   5.912   4.078   8.437  0.1290  0.1557  1.6882
  747MOL0     H98559   5.969   4.211   8.335 -1.3424  2.4980 -0.3305
  747MOL0     H98560   5.764   4.344   8.402 -0.5973 -0.3298 -1.8250
  747MOL0     H98561   5.718   4.219   8.515 -0.9813  0.6225  0.7663
  747MOL0     H98562   5.778   4.159   8.218 -1.6052  0.0228 -1.4085
  747MOL0     H98563   5.699   4.049   8.331  0.2491 -0.2157  2.1159
  747MOL0     H98564   5.542   4.165   8.188  1.8510 -0.9832 -0.1732
  747MOL0     H98565   5.575   4.322   8.252 -1.3358  0.5093 -1.8925
  747MOL0     H98566   5.289   4.085   8.527 -0.5028 -1.4978 -1.1166
  747MOL0     H98567   5.036   4.128   8.500 -0.6878 -1.8738 -1.4994
  747MOL0     H98568   4.652   4.230   8.184 -0.2634  2.1870 -0.0566
  747MOL0     H98569   4.415   4.252   8.197  0.8464  1.5316  0.7836
  747MOL0     H98570   4.227   4.295   8.589  3.8946 -1.3157 -1.3769
  747MOL0     H98571   4.222   4.120   8.561 -2.3908 -0.7071  0.9736
  747MOL0     H98572   3.994   4.213   8.578 -2.1027 -0.3797 -0.6033
  747MOL0     H98573   4.029   4.131   8.433 -1.8975  0.4935  1.8561
  747MOL0     H98574   3.898   4.345   8.392 -0.0105 -0.9867  0.6329
  747MOL0     H98575   4.073   4.381   8.342  0.1569  0.2998  0.8037
  747MOL0     H98576   3.940   4.442   8.615 -0.4100 -0.3161  0.0802
  747MOL0     H98577   4.097   4.492   8.563 -0.4433 -1.2437  1.8441
  747MOL0     H98578   3.836   4.553   8.424 -1.0042  3.9108 -1.3201
  747MOL0     H98579   3.990   4.604   8.357  1.5065  1.8632  1.0784
  747MOL0     H98580   3.851   4.675   8.622 -0.9374 -1.1475 -1.1586
  747MOL0     H98581   3.853   4.767   8.477 -1.9797  0.4435  1.6474
  747MOL0     H98582   4.115   4.708   8.649  1.8059 -1.4321 -2.6724
  747MOL0     H98583   4.118   4.767   8.490 -1.8820 -0.2261 -0.6199
  747MOL0     H98584   4.020   4.982   8.547 -1.0345 -0.1496 -0.4248
  747MOL0     H98585   4.139   4.935   8.666  0.3835  1.3766  0.5651
  747MOL0     H98586   4.435   4.161   8.625  1.4431  1.4065  1.2909
  747MOL0     H98587   4.670   4.139   8.610 -0.2821  1.2024  0.7546
  747MOL0     H98588   5.114   4.379   8.168 -0.6241  1.7230  0.7921
  747MOL0     H98589   5.359   4.343   8.198 -2.2779  0.4897 -2.2499
  747MOL0     H98590   7.284   3.884   9.173  0.6251  1.6759  0.4612
  747MOL0     H98591   7.350   3.900   9.425 -0.9599 -0.1356  1.0255
  747MOL0     H98592   7.270   3.573   9.813 -1.6104 -1.2322  1.9550
  747MOL0     H98593   7.364   3.559  10.038 -1.0200  0.2199  2.1063
  747MOL0     H98594   7.578   3.657  10.120  2.0721  3.4882  0.8254
  747MOL0     H98595   7.506   3.579  10.259  1.0456 -0.2555 -0.8601
  747MOL0     H98596   7.720   3.701  10.288  0.8782 -0.2453  1.1472
  747MOL0     H98597   7.634   3.859  10.283  3.1205  1.0350  4.8344
  747MOL0     H98598   7.650   3.842  10.492  0.4842 -0.3495 -0.7663
  747MOL0     H98599   7.622   3.675  10.509  1.8012 -1.1017 -2.4249
  747MOL0     H98600   7.418   3.904  10.435 -0.9625 -0.3720 -0.0110
  747MOL0     H98601   7.377   3.733  10.435  1.1983 -0.2886  0.5890
  747MOL0     H98602   7.388   3.822  10.845 -2.4042 -1.1099 -0.0276
  747MOL0     H98603   7.347   3.974  10.077 -0.5654 -3.2895  3.6221
  747MOL0     H98604   7.276   4.005   9.840 -0.4579  0.4307 -0.7798
  748MOL0     O98605   2.615  10.291   8.901  0.3193 -0.4419  0.8518
  748MOL0     C98606   2.609  10.301   8.780 -0.5441  0.9246  0.2501
  748MOL0     O98607   2.496  10.333   8.709  0.4990  0.5076 -1.1570
  748MOL0     C98608   2.389  10.382   8.791  0.0034 -0.3233 -0.6106
  748MOL0     C98609   2.262  10.317   8.782 -0.0394  0.7902 -0.2120
  748MOL0     C98610   2.162  10.369   8.854 -0.5428 -0.2988  0.0693
  748MOL0     C98611   2.179  10.483   8.939 -0.8314 -0.1807 -0.0403
  748MOL0     O98612   2.080  10.536   9.016 -0.8231 -0.2047 -0.2381
  748MOL0     C98613   2.090  10.517   9.161 -0.1241 -0.4232  0.7390
  748MOL0     C98614   2.053  10.367   9.203 -1.1645 -0.4028 -0.0743
  748MOL0     C98615   1.914  10.339   9.164 -0.2316  0.9861 -0.4972
  748MOL0     C98616   1.874  10.195   9.204 -0.1220  0.3884 -0.6300
  748MOL0     C98617   1.733  10.164   9.158 -0.0987 -0.3742 -0.7745
  748MOL0     C98618   1.688  10.039   9.234  0.1050  0.1020 -0.9647
  748MOL0     C98619   1.785   9.916   9.243  0.9592 -0.4940  1.3206
  748MOL0     C98620   1.801   9.863   9.104 -0.6291  1.0300  0.2923
  748MOL0     N98621   1.697   9.767   9.053  0.3971  0.2546  0.6162
  748MOL0     C98622   1.608   9.787   8.947 -0.9966 -0.0896  0.3714
  748MOL0     C98623   1.545   9.665   8.932 -0.5431 -0.1492  0.3824
  748MOL0     C98624   1.430   9.641   8.826  0.1829  0.6087  0.3919
  748MOL0     C98625   1.297   9.709   8.860  0.1448  0.0219 -0.5409
  748MOL0     C98626   1.214   9.617   8.960  0.6833 -0.0461 -0.0687
  748MOL0     C98627   1.066   9.677   8.953 -0.0545 -0.7932 -0.8518
  748MOL0     O98628   1.064   9.797   9.031  0.1946 -0.5966  0.7324
  748MOL0     C98629   0.938   9.868   9.017 -0.2194  0.6747 -0.2881
  748MOL0     C98630   0.907   9.908   8.881  0.8549 -0.1801 -0.4243
  748MOL0     C98631   0.775   9.964   8.857 -0.1911  1.1691  0.0523
  748MOL0     C98632   0.691   9.985   8.967  0.0790  0.2885 -0.0374
  748MOL0     C98633   0.557  10.039   8.940  0.1982  0.1277 -0.1270
  748MOL0     O98634   0.509  10.024   8.813  0.2620  0.1201  0.1640
  748MOL0     C98635   0.409  10.105   8.771 -0.2516  0.1013  0.0700
  748MOL0     C98636   0.374  10.079   8.641  0.0248 -0.6085  0.8027
  748MOL0     C98637   0.293  10.157   8.566  0.9131  0.0510 -0.9417
  748MOL0     C98638   0.251  10.287   8.622  0.1184 -0.4252 -0.7092
  748MOL0     O98639   0.175  10.378   8.564  0.0488  0.1065 -0.9372
  748MOL0     C98640   0.117  10.356   8.433 -0.2961 -0.7328 -0.4269
  748MOL0     C98641  -0.005  10.277   8.443 -0.5292 -0.2534  1.0052
  748MOL0     C98642  -0.087  10.306   8.318 -0.6464  0.9042  0.3163
  748MOL0     C98643  -0.225  10.248   8.351 -0.3003  0.4296  0.2765
  748MOL0     C98644  -0.329  10.271   8.240 -0.5054 -0.3438  0.7910
  748MOL0     C98645  -0.480  10.259   8.296 -1.2098 -0.6560 -0.1455
  748MOL0     C98646  -0.584  10.236   8.177  0.2815 -0.2662 -0.3309
  748MOL0     C98647  -0.586  10.353   8.073  0.3574  0.9172  0.2876
  748MOL0    Cl98648  -0.722  10.329   7.951 -0.1604  0.2420 -0.1563
  748MOL0     C98649   0.290  10.315   8.752  0.2191  0.2263 -0.1318
  748MOL0     C98650   0.361  10.224   8.833 -0.4360 -0.0312  0.3864
  748MOL0     O98651   0.502  10.092   9.035  0.0174 -0.2195  0.2138
  748MOL0     C98652   0.736   9.964   9.103  1.0429 -0.0379 -0.6239
  748MOL0     C98653   0.863   9.909   9.124 -0.3848 -0.0658 -0.7716
  748MOL0     N98654   1.586   9.585   9.044 -0.4636 -0.4472 -0.0635
  748MOL0     N98655   1.681   9.644   9.110  0.1253  0.7491 -0.7500
  748MOL0     C98656   2.304  10.555   8.944 -0.6564 -1.4791  0.5460
  748MOL0     C98657   2.404  10.502   8.863 -0.1563  0.1489 -1.1881
  748MOL0     C98658   2.732  10.264   8.707 -0.3722 -0.0656 -0.6318
  748MOL0     C98659   2.857  10.254   8.767  0.2480  0.1331 -1.0871
  748MOL0     C98660   2.969  10.223   8.695 -0.3273 -0.3098  0.0096
  748MOL0     C98661   2.970  10.205   8.554 -0.5527 -0.1043 -0.7866
  748MOL0     O98662   3.076  10.173   8.479 -0.4240  0.0074  0.0501
  748MOL0     C98663   3.207  10.182   8.541  0.0306 -0.4635 -0.1508
  748MOL0     C98664   3.307  10.119   8.451  0.0118  0.9379  0.8678
  748MOL0     C98665   3.339  10.207   8.333 -0.6570  0.3542 -0.2151
  748MOL0     C98666   3.452  10.167   8.235 -0.2332  0.6931 -0.3199
  748MOL0     C98667   3.587  10.174   8.286 -0.2726 -0.5150  1.0365
  748MOL0     C98668   3.706  10.163   8.306  0.4096 -0.3620 -0.3295
  748MOL0     C98669   2.849  10.226   8.489  0.4605  0.3148  0.0647
  748MOL0     C98670   2.740  10.257   8.565  0.7394  0.4186  0.1918
  748MOL0     H98671   2.249  10.238   8.708  1.4325  0.3356 -0.0296
  748MOL0     H98672   2.069  10.314   8.849  0.3404 -1.9622  0.9384
  748MOL0     H98673   2.021  10.579   9.219  0.2974  0.6550  0.1078
  748MOL0     H98674   2.193  10.545   9.186  0.5592  1.3262 -3.2300
  748MOL0     H98675   2.058  10.363   9.313 -3.8377  2.7447  0.3246
  748MOL0     H98676   2.128  10.292   9.176  1.4041 -0.1537  5.0596
  748MOL0     H98677   1.908  10.351   9.056 -2.5399  1.3415 -0.3770
  748MOL0     H98678   1.839  10.405   9.208 -2.0364 -0.6686 -0.9341
  748MOL0     H98679   1.948  10.121   9.174 -0.8220  0.6270 -3.1255
  748MOL0     H98680   1.876  10.205   9.313 -0.6686  2.4005 -0.7529
  748MOL0     H98681   1.734  10.149   9.050 -0.9472  1.0747 -1.0129
  748MOL0     H98682   1.666  10.245   9.187 -1.7063 -1.7547 -0.4550
  748MOL0     H98683   1.592  10.015   9.187 -1.7534  3.0441  0.9602
  748MOL0     H98684   1.649  10.070   9.331 -3.1205 -0.5933 -1.9071
  748MOL0     H98685   1.877   9.951   9.289  1.5385 -0.3822  0.1199
  748MOL0     H98686   1.734   9.848   9.313  1.5765  0.1234  2.3855
  748MOL0     H98687   1.888   9.801   9.125 -2.0782 -0.1809  3.3280
  748MOL0     H98688   1.819   9.940   9.028 -0.5386  1.0704  0.3546
  748MOL0     H98689   1.602   9.877   8.887  1.4371 -0.2776 -0.2778
  748MOL0     H98690   1.423   9.533   8.814  2.0746  0.6216 -1.4202
  748MOL0     H98691   1.455   9.671   8.724 -0.8755 -0.0051 -0.0543
  748MOL0     H98692   1.248   9.733   8.765 -0.1526  0.4460 -0.2856
  748MOL0     H98693   1.309   9.805   8.912  0.9314 -0.5506  0.3729
  748MOL0     H98694   1.202   9.520   8.911  2.7036  0.0695 -0.8867
  748MOL0     H98695   1.263   9.612   9.057  2.8540  0.6440 -1.0641
  748MOL0     H98696   0.990   9.603   8.981  0.0090  0.3020  2.6508
  748MOL0     H98697   1.050   9.698   8.847  0.7946  1.4254 -0.5946
  748MOL0     H98698   0.982   9.902   8.803  1.1019  0.5342 -0.2499
  748MOL0     H98699   0.747   9.977   8.753  1.7892  3.1247 -0.2989
  748MOL0     H98700   0.407   9.983   8.604  1.0277  0.0429 -0.0446
  748MOL0     H98701   0.251  10.106   8.480 -2.6048 -3.0943  2.2755
  748MOL0     H98702   0.185  10.303   8.366  0.5976  1.2817 -1.1846
  748MOL0     H98703   0.105  10.457   8.393  2.4844 -0.0224  0.2766
  748MOL0     H98704  -0.062  10.304   8.533 -1.6835 -1.4031  0.6393
  748MOL0     H98705   0.022  10.172   8.462  0.2948 -0.2872 -0.2528
  748MOL0     H98706  -0.037  10.258   8.233 -3.3638  1.9825 -2.0379
  748MOL0     H98707  -0.096  10.410   8.287 -1.2313 -0.1212 -3.3747
  748MOL0     H98708  -0.221  10.141   8.376 -2.7253 -0.6936 -3.3668
  748MOL0     H98709  -0.269  10.304   8.435 -0.8495  0.0283  0.2636
  748MOL0     H98710  -0.304  10.202   8.158  2.0694 -0.5796  1.7119
  748MOL0     H98711  -0.323  10.369   8.193 -1.3164  1.0715  3.4445
  748MOL0     H98712  -0.508  10.346   8.356 -1.4237 -1.0458  0.3369
  748MOL0     H98713  -0.476  10.175   8.367 -2.3607  1.2685  2.3501
  748MOL0     H98714  -0.556  10.141   8.133  0.7200 -0.3271  0.0651
  748MOL0     H98715  -0.682  10.217   8.223 -2.0063  3.2197 -3.1836
  748MOL0     H98716  -0.489  10.356   8.022  0.2797 -2.2117 -0.2294
  748MOL0     H98717  -0.605  10.441   8.136 -3.9905  0.6108 -0.3364
  748MOL0     H98718   0.259  10.410   8.794 -4.1301 -0.6048 -1.0035
  748MOL0     H98719   0.406  10.271   8.920 -0.2194  2.8466 -1.1348
  748MOL0     H98720   0.665   9.977   9.184  0.0049  0.1230 -1.5390
  748MOL0     H98721   0.906   9.880   9.219 -0.8437  1.3247 -0.1075
  748MOL0     H98722   2.319  10.645   9.004  1.6258 -1.9523  0.7690
  748MOL0     H98723   2.504  10.544   8.873 -0.4174  0.2534  2.3680
  748MOL0     H98724   2.873  10.279   8.871  2.4502  0.0885 -1.3726
  748MOL0     H98725   3.069  10.240   8.733 -0.5523  2.8766 -0.5162
  748MOL0     H98726   3.206  10.137   8.641 -0.6619  0.4848  0.2828
  748MOL0     H98727   3.236  10.286   8.559 -2.8254  0.3101  0.5259
  748MOL0     H98728   3.397  10.099   8.510  2.1122 -0.4051 -2.5041
  748MOL0     H98729   3.271  10.019   8.426  4.3413 -0.9015  1.0143
  748MOL0     H98730   3.362  10.305   8.377  0.3635 -1.4744  3.7045
  748MOL0     H98731   3.246  10.214   8.275 -1.0571  1.3376  0.5136
  748MOL0     H98732   3.444  10.059   8.220  0.0812  0.7052 -0.5873
  748MOL0     H98733   3.451  10.217   8.138 -1.7023 -2.1453 -1.9081
  748MOL0     H98734   3.811  10.156   8.327  0.2357 -2.1460  0.1602
  748MOL0     H98735   2.855  10.219   8.381  0.0530 -0.3298  0.0786
  748MOL0     H98736   2.649  10.268   8.507  0.8614  0.1592 -0.0512
  749MOL0     O98737   9.840   8.678   8.945 -0.3833 -0.3122  0.4392
  749MOL0     C98738   9.902   8.665   9.047 -0.0889 -0.4124 -0.0416
  749MOL0     O98739   9.844   8.637   9.171  0.0427  0.2823  0.2238
  749MOL0     C98740   9.702   8.634   9.167 -0.0929 -0.7302 -0.7267
  749MOL0     C98741   9.623   8.513   9.174 -0.3649 -0.3453 -0.2847
  749MOL0     C98742   9.487   8.510   9.147 -0.1451 -0.6832  0.1178
  749MOL0     C98743   9.426   8.635   9.125  0.7181 -0.3860 -0.6952
  749MOL0     O98744   9.292   8.628   9.091 -0.1823  0.0181 -0.5543
  749MOL0     C98745   9.235   8.745   9.037 -0.5727 -0.0073 -0.0399
  749MOL0     C98746   9.085   8.718   9.008 -0.1446  0.6999  0.1667
  749MOL0     C98747   9.070   8.601   8.913  0.3089 -0.2324  0.6760
  749MOL0     C98748   8.920   8.599   8.863  0.0052  0.0605  0.1119
  749MOL0     C98749   8.835   8.493   8.941 -0.0424 -0.1038 -0.0242
  749MOL0     C98750   8.865   8.355   8.893  0.6515  0.6294  0.4662
  749MOL0     C98751   8.748   8.258   8.932  0.4321  0.7437  0.6020
  749MOL0     C98752   8.751   8.134   8.839  0.7312  0.4422  0.3980
  749MOL0     N98753   8.633   8.044   8.851 -0.5901 -0.2714  0.1977
  749MOL0     C98754   8.548   8.023   8.745  0.9334  0.7077 -0.0384
  749MOL0     C98755   8.459   7.931   8.799  1.2423  0.7928  0.5358
  749MOL0     C98756   8.335   7.870   8.740  0.5719 -1.8028  0.0445
  749MOL0     C98757   8.209   7.956   8.773 -0.1988 -0.4035  0.0098
  749MOL0     C98758   8.087   7.895   8.684  0.9166 -0.1901  0.7166
  749MOL0     C98759   7.961   7.983   8.699 -0.9306  1.3960  0.2228
  749MOL0     O98760   7.833   7.934   8.646 -0.3151  0.3252  0.4723
  749MOL0     C98761   7.714   8.000   8.679  0.2262 -0.3159  0.4511
  749MOL0     C98762   7.599   7.928   8.658  0.4556  0.0761  0.3938
  749MOL0     C98763   7.475   7.989   8.687  0.5046  0.0040  0.1849
  749MOL0     C98764   7.464   8.120   8.728 -0.5924  0.2297 -0.4381
  749MOL0     C98765   7.321   8.164   8.756  0.6016 -0.1698 -0.4390
  749MOL0     O98766   7.309   8.286   8.820  0.1149 -0.1743  0.5309
  749MOL0     C98767   7.188   8.354   8.826  0.5551 -0.1888  0.0939
  749MOL0     C98768   7.183   8.499   8.818 -0.0533  0.0798 -0.0172
  749MOL0     C98769   7.062   8.573   8.832 -0.3260  0.6594 -0.8764
  749MOL0     C98770   6.948   8.510   8.863 -0.9993  0.2814  0.0348
  749MOL0     O98771   6.824   8.566   8.867  0.5987 -0.0607  0.6054
  749MOL0     C98772   6.811   8.706   8.829 -0.0078 -0.4137  0.2331
  749MOL0     C98773   6.665   8.750   8.834 -0.0126 -0.1497  0.0949
  749MOL0     C98774   6.618   8.851   8.726 -0.1732 -0.0756  0.7666
  749MOL0     C98775   6.479   8.900   8.754  0.4854  0.2397 -0.0545
  749MOL0     C98776   6.466   9.045   8.680  0.6789  0.1317 -0.3055
  749MOL0     C98777   6.322   9.073   8.644  0.6029 -0.1864  0.1143
  749MOL0     C98778   6.239   9.106   8.773  0.2787 -0.5168 -0.2725
  749MOL0     C98779   6.103   9.145   8.727 -0.3622  0.0546  1.2435
  749MOL0    Cl98780   6.015   9.197   8.874 -0.4231 -0.2732 -0.0782
  749MOL0     C98781   6.945   8.372   8.873 -0.3388 -0.5561 -0.7572
  749MOL0     C98782   7.060   8.293   8.854 -0.2791  0.8449  0.2631
  749MOL0     O98783   7.228   8.098   8.712 -0.5050  0.6440  0.4294
  749MOL0     C98784   7.591   8.193   8.754 -0.0122  1.2704 -0.0006
  749MOL0     C98785   7.715   8.133   8.721  0.4831 -0.2247 -0.2996
  749MOL0     N98786   8.494   7.903   8.926  0.6844  0.5633  0.1350
  749MOL0     N98787   8.609   7.958   8.960  0.5466  0.3056 -0.6753
  749MOL0     C98788   9.500   8.754   9.126  0.6386 -0.0235  0.9341
  749MOL0     C98789   9.633   8.756   9.147 -0.3167  0.1948 -0.1255
  749MOL0     C98790  10.048   8.672   9.035  0.9639  0.6978  0.3273
  749MOL0     C98791  10.101   8.742   8.921  0.0631  0.9732 -0.3609
  749MOL0     C98792  10.245   8.722   8.903  0.5396 -0.4598 -0.7981
  749MOL0     C98793  10.331   8.642   8.985  0.8137 -0.8027  0.0021
  749MOL0     O98794  10.460   8.646   8.955  0.0525  0.5898  0.1498
  749MOL0     C98795  10.547   8.607   9.063  0.3150 -0.1593  0.0546
  749MOL0     C98796  10.627   8.734   9.104  0.3619 -0.5126 -0.0917
  749MOL0     C98797  10.703   8.783   8.990 -0.8763  0.0470  0.5375
  749MOL0     C98798  10.789   8.907   9.035  0.5174 -0.1598  0.2966
  749MOL0     C98799  10.701   9.026   9.041 -0.4166 -0.2501 -0.0547
  749MOL0     C98800  10.646   9.131   9.064  0.0574 -0.4725 -0.6926
  749MOL0     C98801  10.264   8.573   9.100  0.1479 -0.3037  0.5225
  749MOL0     C98802  10.121   8.591   9.123 -0.9983  0.0015  0.2816
  749MOL0     H98803   9.672   8.421   9.202  0.5547 -0.3326 -1.7248
  749MOL0     H98804   9.436   8.414   9.151 -0.8573 -0.4798 -2.3961
  749MOL0     H98805   9.284   8.773   8.943 -0.0322 -0.1744  0.1933
  749MOL0     H98806   9.238   8.835   9.099 -2.0977  0.7872 -1.0548
  749MOL0     H98807   9.054   8.816   8.969  0.3657  0.5551 -0.6264
  749MOL0     H98808   9.032   8.710   9.103 -1.2963 -3.4828 -0.6477
  749MOL0     H98809   9.094   8.504   8.958  2.1454 -0.6268 -1.0196
  749MOL0     H98810   9.133   8.611   8.824  0.2682 -3.2032  0.2264
  749MOL0     H98811   8.878   8.697   8.889  0.1005 -0.0661  0.7764
  749MOL0     H98812   8.917   8.602   8.754  1.2340  1.2459  0.0750
  749MOL0     H98813   8.730   8.519   8.924 -0.1431  0.8781  1.8621
  749MOL0     H98814   8.860   8.506   9.046 -0.1867  0.8056 -0.0973
  749MOL0     H98815   8.963   8.322   8.930 -0.4398  0.0536  3.0374
  749MOL0     H98816   8.867   8.346   8.784 -2.0720  0.0555  0.3887
  749MOL0     H98817   8.771   8.231   9.035  3.3556 -2.8663 -0.7583
  749MOL0     H98818   8.648   8.300   8.916 -1.0173 -1.5077  2.9670
  749MOL0     H98819   8.840   8.084   8.879 -0.9808 -3.0974  0.1411
  749MOL0     H98820   8.756   8.166   8.735 -1.5634  0.7995  0.3408
  749MOL0     H98821   8.547   8.059   8.643  0.3380 -0.4630 -0.4644
  749MOL0     H98822   8.322   7.769   8.779  0.8462 -2.0069 -0.3745
  749MOL0     H98823   8.347   7.868   8.631  0.7452  0.2585 -0.0196
  749MOL0     H98824   8.227   8.060   8.745  3.1318 -0.1697  2.3615
  749MOL0     H98825   8.188   7.962   8.881  0.6711 -2.0690  0.3091
  749MOL0     H98826   8.108   7.886   8.577  0.9647 -1.1258  0.7959
  749MOL0     H98827   8.077   7.795   8.727  4.7517 -2.6533 -3.2525
  749MOL0     H98828   7.979   8.068   8.633 -2.3761  0.8918 -0.8898
  749MOL0     H98829   7.950   8.018   8.802 -2.6886  0.1808  0.4907
  749MOL0     H98830   7.585   7.828   8.617 -2.1268  0.6665 -0.3394
  749MOL0     H98831   7.386   7.930   8.666  2.2560 -2.5228 -0.5786
  749MOL0     H98832   7.276   8.552   8.800 -0.8441  0.9334 -1.7476
  749MOL0     H98833   7.066   8.681   8.822 -0.1704  0.8910  1.1608
  749MOL0     H98834   6.856   8.717   8.730  0.2417 -0.1096  0.3807
  749MOL0     H98835   6.864   8.772   8.898  1.3372 -0.2492 -0.9009
  749MOL0     H98836   6.649   8.792   8.934 -0.5984  2.4517 -1.0311
  749MOL0     H98837   6.605   8.658   8.829 -1.0894  0.5591 -0.6801
  749MOL0     H98838   6.625   8.798   8.631  0.4444 -0.2857  0.9306
  749MOL0     H98839   6.688   8.935   8.726  1.8342 -1.5920 -2.0132
  749MOL0     H98840   6.415   8.829   8.700  0.8313  1.6841 -2.5260
  749MOL0     H98841   6.458   8.909   8.861 -0.0787  2.0034 -0.2774
  749MOL0     H98842   6.531   9.052   8.593 -1.2165 -0.4705 -1.8440
  749MOL0     H98843   6.498   9.119   8.755  2.1842  2.1326 -2.7727
  749MOL0     H98844   6.286   8.985   8.590 -0.6715  0.6180 -0.4129
  749MOL0     H98845   6.323   9.156   8.573 -0.9567 -4.0689 -5.0476
  749MOL0     H98846   6.227   9.023   8.843  0.9261  1.9070  2.9454
  749MOL0     H98847   6.282   9.192   8.824 -2.6760  1.1347 -0.3456
  749MOL0     H98848   6.043   9.066   8.680 -1.3230  0.8994  1.0072
  749MOL0     H98849   6.106   9.226   8.654  0.1147 -1.1252 -0.1020
  749MOL0     H98850   6.850   8.321   8.882 -0.7596 -0.1499 -2.4267
  749MOL0     H98851   7.050   8.187   8.874 -3.3455  0.7714 -1.1135
  749MOL0     H98852   7.590   8.294   8.794  0.2171  0.3135  2.6107
  749MOL0     H98853   7.801   8.197   8.740 -0.8997  1.7810 -0.4415
  749MOL0     H98854   9.470   8.855   9.100 -2.1526 -0.6910  1.1966
  749MOL0     H98855   9.672   8.854   9.121 -3.3354  1.0768 -1.7655
  749MOL0     H98856  10.038   8.785   8.844 -1.9820 -1.0219  0.0727
  749MOL0     H98857  10.280   8.774   8.814 -0.0029  1.4725  0.0833
  749MOL0     H98858  10.622   8.539   9.020  1.5475 -0.1514  2.0688
  749MOL0     H98859  10.506   8.567   9.156  0.5187  2.2332  1.2501
  749MOL0     H98860  10.560   8.813   9.141  0.6873 -0.0411 -0.4876
  749MOL0     H98861  10.697   8.725   9.187  0.1367  3.7970  0.7947
  749MOL0     H98862  10.644   8.804   8.900 -1.8512 -3.5462  0.1707
  749MOL0     H98863  10.768   8.705   8.947 -0.5304  1.2096 -1.1777
  749MOL0     H98864  10.844   8.885   9.127 -0.6005 -2.2454  0.5256
  749MOL0     H98865  10.861   8.934   8.958 -0.6455  1.1541 -0.3707
  749MOL0     H98866  10.592   9.220   9.089  1.9476  0.3617  0.6537
  749MOL0     H98867  10.311   8.495   9.159  0.1661 -2.3976 -2.0720
  749MOL0     H98868  10.072   8.535   9.201  0.7945 -2.0620  0.0210
  750MOL0     O98869   1.290   1.903   6.413  0.3593  0.1898 -0.2427
  750MOL0     C98870   1.394   1.956   6.377 -0.6803 -0.3295  0.4249
  750MOL0     O98871   1.454   1.939   6.265 -0.2351  0.1208  0.9861
  750MOL0     C98872   1.373   1.872   6.171 -0.7614 -0.6322 -0.5611
  750MOL0     C98873   1.321   1.935   6.061 -0.2968 -0.2443  0.1152
  750MOL0     C98874   1.263   1.862   5.962  0.1018 -0.8923  0.1442
  750MOL0     C98875   1.244   1.729   5.967 -0.4308 -0.1943 -0.3394
  750MOL0     O98876   1.180   1.659   5.867  0.1068 -0.0026  0.2089
  750MOL0     C98877   1.097   1.720   5.771  0.8523 -0.6097  0.1912
  750MOL0     C98878   1.012   1.613   5.699  0.7759  0.6678 -0.0245
  750MOL0     C98879   0.939   1.675   5.569 -1.0407 -1.1488 -0.0135
  750MOL0     C98880   0.831   1.783   5.600  0.6166 -0.4091  0.4096
  750MOL0     C98881   0.771   1.847   5.476 -0.4916  0.0170  0.3181
  750MOL0     C98882   0.687   1.967   5.500  0.2145 -0.1813  0.9056
  750MOL0     C98883   0.623   2.023   5.366 -0.3086  0.0966 -0.4974
  750MOL0     C98884   0.534   2.145   5.397 -0.2355 -1.2465 -1.5828
  750MOL0     N98885   0.478   2.179   5.268  0.1076 -0.3176  0.4655
  750MOL0     C98886   0.345   2.154   5.229 -0.7713  0.4074 -0.0816
  750MOL0     C98887   0.327   2.215   5.105 -0.2068  0.4382 -0.6708
  750MOL0     C98888   0.208   2.204   5.015  1.5759 -0.0149 -0.0530
  750MOL0     C98889   0.121   2.326   5.019  0.3034 -0.6665 -1.1020
  750MOL0     C98890   0.042   2.330   5.156  0.0789  0.3539 -0.0440
  750MOL0     C98891  -0.040   2.459   5.175  0.0974 -0.4298  0.3629
  750MOL0     O98892  -0.162   2.450   5.106  0.3165  0.0668 -0.5055
  750MOL0     C98893  -0.269   2.392   5.166  0.6463  0.0434 -0.0945
  750MOL0     C98894  -0.382   2.379   5.087 -0.3487  0.7337  0.1857
  750MOL0     C98895  -0.498   2.319   5.136 -0.2517 -0.2710 -0.8077
  750MOL0     C98896  -0.497   2.248   5.263  0.4826  0.2701 -0.9701
  750MOL0     C98897  -0.617   2.172   5.306  0.3420 -0.8539  0.3175
  750MOL0     O98898  -0.726   2.206   5.238  0.2608 -0.8072 -0.1167
  750MOL0     C98899  -0.852   2.164   5.263 -0.0964  0.6817 -0.7746
  750MOL0     C98900  -0.895   2.087   5.369 -0.2110  0.0595 -0.7860
  750MOL0     C98901  -1.031   2.051   5.365  0.1074 -0.7109  0.1658
  750MOL0     C98902  -1.125   2.102   5.271 -0.3700  1.5132 -0.3130
  750MOL0     O98903  -1.259   2.062   5.273  0.2091 -0.2757  0.0998
  750MOL0     C98904  -1.290   1.962   5.363  0.0277 -0.1574  0.2252
  750MOL0     C98905  -1.440   1.916   5.348 -0.3333 -0.0421 -1.0423
  750MOL0     C98906  -1.534   2.020   5.408 -0.2626  0.5556  0.4581
  750MOL0     C98907  -1.675   1.960   5.405 -0.4141  1.0643 -0.0671
  750MOL0     C98908  -1.787   2.054   5.423  0.4604 -0.4868  0.3718
  750MOL0     C98909  -1.765   2.168   5.529  0.4431 -0.3250 -0.2909
  750MOL0     C98910  -1.890   2.250   5.562 -0.3231 -0.5517 -0.2031
  750MOL0     C98911  -1.890   2.322   5.697  0.7725 -0.1958 -0.2347
  750MOL0    Cl98912  -2.040   2.428   5.718 -0.2054 -0.1803 -0.1765
  750MOL0     C98913  -1.073   2.192   5.172  0.1442  0.4095 -0.6655
  750MOL0     C98914  -0.941   2.223   5.174 -0.1754 -0.4876  0.1800
  750MOL0     O98915  -0.608   2.081   5.392  0.1223 -0.0764 -0.7340
  750MOL0     C98916  -0.373   2.236   5.331  0.2539 -0.5967  0.1502
  750MOL0     C98917  -0.264   2.316   5.285 -0.4574 -0.2117 -0.8878
  750MOL0     N98918   0.442   2.289   5.086  1.0811 -0.6451 -0.5576
  750MOL0     N98919   0.532   2.259   5.174 -0.6034  0.1712 -0.7856
  750MOL0     C98920   1.296   1.659   6.080  0.0222 -0.8194 -0.3869
  750MOL0     C98921   1.365   1.734   6.180  0.2824  0.0356  0.4438
  750MOL0     C98922   1.465   2.027   6.484  0.2882 -1.4613 -0.6485
  750MOL0     C98923   1.406   2.056   6.608 -0.1586  0.7296  0.3235
  750MOL0     C98924   1.483   2.120   6.704  0.6780  0.3538 -0.6652
  750MOL0     C98925   1.608   2.174   6.678 -0.0850 -0.8947  0.0762
  750MOL0     O98926   1.671   2.252   6.772  0.0685 -0.1732 -0.0540
  750MOL0     C98927   1.795   2.317   6.741  0.1151  0.1067 -0.6725
  750MOL0     C98928   1.887   2.291   6.851 -0.5019 -0.0641  0.2085
  750MOL0     C98929   2.037   2.315   6.823  0.6036  0.7207  0.5064
  750MOL0     C98930   2.121   2.310   6.953 -1.5351 -0.2258 -0.0735
  750MOL0     C98931   2.115   2.442   7.027 -0.2745  0.5650  0.9667
  750MOL0     C98932   2.089   2.547   7.081 -0.2643 -0.7471 -0.1434
  750MOL0     C98933   1.664   2.156   6.542  0.6440  0.1567 -0.3701
  750MOL0     C98934   1.589   2.080   6.454 -0.5676 -1.4566  0.6732
  750MOL0     H98935   1.341   2.042   6.065 -2.2779  0.1227  2.0887
  750MOL0     H98936   1.238   1.907   5.866  2.1276 -3.0985 -1.5331
  750MOL0     H98937   1.146   1.784   5.698 -1.8827  0.3499 -0.9477
  750MOL0     H98938   1.031   1.789   5.825  0.3456 -1.1872  0.3257
  750MOL0     H98939   0.933   1.569   5.761  1.1423  0.2492  0.1505
  750MOL0     H98940   1.074   1.532   5.658 -0.7816 -0.8463  0.4920
  750MOL0     H98941   0.902   1.589   5.514  1.1325 -0.7517 -2.2612
  750MOL0     H98942   1.008   1.712   5.493  0.4237  1.1969  2.2948
  750MOL0     H98943   0.751   1.730   5.651 -0.9430 -0.1597 -1.6702
  750MOL0     H98944   0.873   1.854   5.673  2.2342  0.8063 -1.5642
  750MOL0     H98945   0.722   1.763   5.425  2.8725 -0.5216 -2.3764
  750MOL0     H98946   0.845   1.877   5.401 -1.3260 -1.0025 -0.9690
  750MOL0     H98947   0.747   2.041   5.553 -2.4667  0.7123  2.9570
  750MOL0     H98948   0.606   1.944   5.570 -2.2608  0.8998 -1.4048
  750MOL0     H98949   0.710   2.051   5.307  1.9331 -3.5040  0.7829
  750MOL0     H98950   0.573   1.941   5.313  0.1283 -0.3947 -0.1664
  750MOL0     H98951   0.591   2.229   5.440  0.8266 -3.7427  2.3643
  750MOL0     H98952   0.452   2.122   5.465 -0.1744 -2.4977 -1.9209
  750MOL0     H98953   0.270   2.103   5.289 -1.7897  0.9484 -0.8710
  750MOL0     H98954   0.151   2.114   5.039  1.7131  0.2495  1.3461
  750MOL0     H98955   0.246   2.188   4.914  4.4662 -1.3018  1.1034
  750MOL0     H98956   0.050   2.334   4.936 -0.0016 -1.1033 -0.8843
  750MOL0     H98957   0.190   2.410   5.004 -1.8123  1.2706 -0.5214
  750MOL0     H98958  -0.014   2.236   5.170 -0.9755  1.2589  2.3878
  750MOL0     H98959   0.118   2.320   5.234  0.3758 -5.1448 -0.6430
  750MOL0     H98960   0.010   2.549   5.139 -0.4620 -1.7327 -4.3083
  750MOL0     H98961  -0.065   2.465   5.282 -1.9434 -1.2045 -0.0306
  750MOL0     H98962  -0.381   2.434   4.993 -0.5144  0.3970 -0.0112
  750MOL0     H98963  -0.589   2.328   5.079 -0.2098  0.0752 -0.8256
  750MOL0     H98964  -0.838   2.063   5.458 -1.3823  1.2825  0.3379
  750MOL0     H98965  -1.065   1.982   5.441  2.3885 -2.8801 -0.6201
  750MOL0     H98966  -1.273   1.993   5.466 -1.7427 -2.1251  1.1921
  750MOL0     H98967  -1.232   1.872   5.341  1.1894  1.1919 -2.7765
  750MOL0     H98968  -1.442   1.821   5.403  1.1894  0.9600  0.8842
  750MOL0     H98969  -1.463   1.903   5.242  2.5824 -1.9146 -1.5691
  750MOL0     H98970  -1.528   2.113   5.351 -1.4656  2.0980  2.6882
  750MOL0     H98971  -1.517   2.030   5.515  2.2009  0.4541  0.1429
  750MOL0     H98972  -1.681   1.885   5.326 -2.9984  0.5003  0.5957
  750MOL0     H98973  -1.678   1.903   5.498  1.7185 -0.2174 -0.6945
  750MOL0     H98974  -1.877   2.003   5.457  0.0091  0.5029  0.6883
  750MOL0     H98975  -1.812   2.092   5.324  1.3992 -1.1333 -0.1250
  750MOL0     H98976  -1.692   2.238   5.487  0.7988 -0.6375 -0.2084
  750MOL0     H98977  -1.737   2.125   5.626 -2.5548  1.0847  1.3221
  750MOL0     H98978  -1.902   2.334   5.494 -0.4731 -0.1140  0.3580
  750MOL0     H98979  -1.982   2.190   5.564 -0.2996 -0.7057 -1.8850
  750MOL0     H98980  -1.801   2.387   5.689 -0.7670  1.9678 -0.6951
  750MOL0     H98981  -1.883   2.248   5.777 -3.2550 -0.6859 -0.1516
  750MOL0     H98982  -1.135   2.229   5.091  0.0510  1.2655 -0.2132
  750MOL0     H98983  -0.898   2.289   5.099  2.1254 -0.5654  1.3713
  750MOL0     H98984  -0.373   2.175   5.420  1.8952  0.4052  0.8667
  750MOL0     H98985  -0.171   2.321   5.340 -0.1748  2.5949 -1.4443
  750MOL0     H98986   1.290   1.551   6.088 -0.2509 -0.9670 -2.2010
  750MOL0     H98987   1.403   1.692   6.273 -3.2235  1.1696  2.5893
  750MOL0     H98988   1.306   2.017   6.627  0.2238 -1.1193 -1.0858
  750MOL0     H98989   1.448   2.111   6.807  0.7475 -1.4244 -0.7539
  750MOL0     H98990   1.783   2.425   6.735  0.7874  0.2120 -0.2512
  750MOL0     H98991   1.844   2.274   6.653  1.1893 -2.0840  0.8909
  750MOL0     H98992   1.847   2.344   6.938 -1.8395  0.0665 -0.4575
  750MOL0     H98993   1.871   2.188   6.884 -0.3700 -0.4402 -0.8735
  750MOL0     H98994   2.057   2.408   6.770  3.6749 -1.4321 -2.4791
  750MOL0     H98995   2.084   2.243   6.756  0.3809  1.7794 -0.8372
  750MOL0     H98996   2.094   2.237   7.030 -0.5289  1.9061  2.4819
  750MOL0     H98997   2.227   2.286   6.939 -1.6150  0.2447 -1.6070
  750MOL0     H98998   2.055   2.625   7.146 -0.9024 -0.8263 -0.3761
  750MOL0     H98999   1.763   2.181   6.506  0.9604  0.0467  0.4148
  750MOL0     H99000   1.650   2.062   6.367  0.6546 -0.7709  1.3554
  751MOL0     O99001   6.162   3.604   9.566 -0.4374 -1.2645 -0.8021
  751MOL0     C99002   6.207   3.498   9.600 -0.4872  0.2307  0.9307
  751MOL0     O99003   6.135   3.393   9.660  0.3725  0.1734 -0.4661
  751MOL0     C99004   6.006   3.416   9.695  0.2947  0.4391  0.6269
  751MOL0     C99005   5.969   3.421   9.824  0.3106 -0.4762 -0.5210
  751MOL0     C99006   5.834   3.447   9.861 -0.0052  0.4129 -0.6665
  751MOL0     C99007   5.745   3.462   9.755  0.2947  0.1124  0.8376
  751MOL0     O99008   5.608   3.462   9.787  0.1994  0.2675 -0.1676
  751MOL0     C99009   5.503   3.448   9.691 -0.2801 -0.3665 -0.3452
  751MOL0     C99010   5.376   3.453   9.771  0.1940 -0.0951  0.7519
  751MOL0     C99011   5.337   3.322   9.826 -0.1333  0.7171  0.2680
  751MOL0     C99012   5.197   3.331   9.888 -0.1813  0.4660 -0.3262
  751MOL0     C99013   5.085   3.293   9.799  0.0374 -0.8008 -0.7865
  751MOL0     C99014   5.037   3.150   9.813  0.6889  0.1760  0.0066
  751MOL0     C99015   4.926   3.126   9.711  0.3216 -0.2454  0.6525
  751MOL0     C99016   4.969   3.047   9.585  0.3849 -0.5491 -0.3613
  751MOL0     N99017   4.871   3.062   9.475  0.2188  0.3113 -0.4132
  751MOL0     C99018   4.740   3.011   9.483  0.5371 -0.3372  0.0508
  751MOL0     C99019   4.689   3.037   9.364 -0.9121  0.1996 -0.7490
  751MOL0     C99020   4.542   3.020   9.324 -0.1167 -0.1110 -0.3632
  751MOL0     C99021   4.483   3.140   9.247  0.5329  0.2098 -0.6929
  751MOL0     C99022   4.491   3.270   9.325 -0.6575  0.2286  0.1774
  751MOL0     C99023   4.370   3.362   9.311 -0.3241  0.8901 -0.2704
  751MOL0     O99024   4.259   3.274   9.351 -0.0845 -0.0304  1.0055
  751MOL0     C99025   4.132   3.319   9.329  0.0529  0.1495  0.3121
  751MOL0     C99026   4.044   3.221   9.288  0.2678 -0.1864 -0.1025
  751MOL0     C99027   3.908   3.257   9.253  0.5927 -0.0213 -0.3601
  751MOL0     C99028   3.873   3.396   9.264  0.1150  0.8030 -0.6268
  751MOL0     C99029   3.745   3.451   9.230 -0.2582  0.4039 -1.0257
  751MOL0     O99030   3.644   3.353   9.251  0.4959 -0.1182 -0.0032
  751MOL0     C99031   3.526   3.386   9.213  0.4645 -0.3916  0.1419
  751MOL0     C99032   3.442   3.471   9.288 -0.9047 -0.2859 -0.1026
  751MOL0     C99033   3.310   3.478   9.253  0.2412 -0.5253  0.4702
  751MOL0     C99034   3.248   3.405   9.147 -0.7695 -0.1205 -0.4189
  751MOL0     O99035   3.115   3.410   9.138  0.2068  0.4615  0.0586
  751MOL0     C99036   3.053   3.302   9.070  0.1963 -0.6593 -0.0792
  751MOL0     C99037   2.891   3.313   9.070 -0.3484  0.6126 -0.0198
  751MOL0     C99038   2.834   3.459   9.059  0.4498 -0.0175 -0.1809
  751MOL0     C99039   2.682   3.445   9.069 -0.4394  0.6650  0.4919
  751MOL0     C99040   2.629   3.430   8.933 -0.8972  0.5442  0.2361
  751MOL0     C99041   2.479   3.426   8.923  0.9487  0.3333  0.1604
  751MOL0     C99042   2.404   3.326   9.012 -0.4452 -0.1334  0.0509
  751MOL0     C99043   2.437   3.177   8.985  0.0480  0.5720  0.2574
  751MOL0    Cl99044   2.394   3.060   9.112  0.2239  0.0792 -0.3052
  751MOL0     C99045   3.339   3.323   9.073 -0.7277 -0.8591 -1.0359
  751MOL0     C99046   3.474   3.306   9.114 -0.0471 -0.3907 -0.0320
  751MOL0     O99047   3.729   3.567   9.190  0.8632 -0.1143 -0.5485
  751MOL0     C99048   3.977   3.488   9.298  0.0898  0.8405  0.2083
  751MOL0     C99049   4.100   3.452   9.343  0.3301  0.1245  0.7413
  751MOL0     N99050   4.777   3.102   9.279  0.2331  0.0907 -0.4063
  751MOL0     N99051   4.883   3.123   9.356 -0.0716 -0.7355  0.1371
  751MOL0     C99052   5.783   3.473   9.620 -1.0381 -0.7514  0.8982
  751MOL0     C99053   5.916   3.449   9.596  0.1793 -0.0584  0.3128
  751MOL0     C99054   6.349   3.477   9.560  0.2774  0.5813 -0.6351
  751MOL0     C99055   6.405   3.344   9.569 -0.6459  1.0097 -0.3357
  751MOL0     C99056   6.533   3.328   9.527 -0.7917 -0.0952  0.3465
  751MOL0     C99057   6.616   3.423   9.487 -0.6946  0.3994  0.7732
  751MOL0     O99058   6.744   3.383   9.442  0.1849 -0.8954 -0.2844
  751MOL0     C99059   6.808   3.470   9.356  0.2362  0.1389  0.1296
  751MOL0     C99060   6.942   3.400   9.316  0.2318  0.6395  0.3251
  751MOL0     C99061   7.026   3.409   9.442  0.1762 -0.0856  0.0011
  751MOL0     C99062   7.152   3.319   9.443  0.0260 -0.0452  0.1457
  751MOL0     C99063   7.227   3.316   9.322 -0.4340 -0.5542  0.7745
  751MOL0     C99064   7.295   3.319   9.226  0.2573  0.4505  0.0165
  751MOL0     C99065   6.570   3.553   9.485  0.5499 -0.3542 -0.6233
  751MOL0     C99066   6.436   3.580   9.526  1.2174  0.8903  0.2484
  751MOL0     H99067   6.046   3.406   9.899  1.2520  4.0139 -0.2957
  751MOL0     H99068   5.804   3.428   9.964  2.4669  1.5169  0.3195
  751MOL0     H99069   5.512   3.352   9.639 -0.9618 -0.4979 -0.2250
  751MOL0     H99070   5.499   3.522   9.611 -0.4512 -1.3478 -1.2614
  751MOL0     H99071   5.300   3.493   9.704 -2.2550 -0.8808  2.9153
  751MOL0     H99072   5.375   3.521   9.857 -1.1275  0.5177  0.2760
  751MOL0     H99073   5.417   3.294   9.896  0.8354 -0.8608 -1.3748
  751MOL0     H99074   5.337   3.245   9.748 -1.2275  0.4953  0.4666
  751MOL0     H99075   5.200   3.271   9.979  0.9864  0.6389 -0.2301
  751MOL0     H99076   5.184   3.435   9.917  0.5542  0.5025 -0.0950
  751MOL0     H99077   5.113   3.311   9.695  0.5969 -0.5339 -0.5912
  751MOL0     H99078   4.999   3.350   9.836 -0.2676 -1.7297 -0.0297
  751MOL0     H99079   5.012   3.149   9.920  0.5197 -1.0373 -0.0407
  751MOL0     H99080   5.112   3.071   9.800  0.5789 -0.2037  1.4336
  751MOL0     H99081   4.860   3.053   9.759  0.7972 -1.2993 -0.2407
  751MOL0     H99082   4.869   3.218   9.693 -1.4650 -1.6712 -1.6110
  751MOL0     H99083   4.983   2.941   9.611  4.2992  0.1086  0.9152
  751MOL0     H99084   5.069   3.082   9.555 -0.7127 -0.6842 -4.9763
  751MOL0     H99085   4.681   2.981   9.569 -2.3678  0.8490 -1.4099
  751MOL0     H99086   4.482   3.003   9.414 -0.0504  0.2687 -0.2457
  751MOL0     H99087   4.533   2.941   9.249 -2.2072  1.2503 -1.6444
  751MOL0     H99088   4.382   3.106   9.223  1.5271 -1.7756 -2.4094
  751MOL0     H99089   4.533   3.152   9.151 -1.4503  0.5752 -1.7273
  751MOL0     H99090   4.507   3.243   9.429 -3.3068 -1.8378  0.1456
  751MOL0     H99091   4.574   3.331   9.286 -2.0564  3.1786  1.4790
  751MOL0     H99092   4.352   3.393   9.208 -0.9717  1.9212  0.1468
  751MOL0     H99093   4.384   3.455   9.366  1.3584  1.3271 -1.3350
  751MOL0     H99094   4.080   3.120   9.278 -2.9886 -1.3634 -1.5155
  751MOL0     H99095   3.833   3.182   9.233 -2.0625  2.1079  0.9990
  751MOL0     H99096   3.488   3.529   9.367 -0.8027 -0.3385 -0.1237
  751MOL0     H99097   3.241   3.545   9.304  0.9403 -1.0582  2.1979
  751MOL0     H99098   3.092   3.209   9.112 -1.0169 -1.1210  0.0827
  751MOL0     H99099   3.076   3.301   8.963 -1.6736  4.2498 -0.8026
  751MOL0     H99100   2.868   3.274   9.169 -0.1534  3.4426  1.2444
  751MOL0     H99101   2.853   3.246   8.992  0.4306  0.7417 -0.5315
  751MOL0     H99102   2.873   3.512   8.972 -0.0272 -1.7811 -1.5367
  751MOL0     H99103   2.868   3.510   9.150  0.1501 -1.6514  0.8998
  751MOL0     H99104   2.654   3.365   9.138  0.7046  1.9679  2.5729
  751MOL0     H99105   2.650   3.539   9.113  0.5981  1.2694 -0.0061
  751MOL0     H99106   2.668   3.338   8.887 -2.0588  0.9849 -1.7085
  751MOL0     H99107   2.663   3.506   8.862 -4.2559 -1.2607 -3.6711
  751MOL0     H99108   2.452   3.413   8.818 -4.9577  1.7047  1.1255
  751MOL0     H99109   2.448   3.529   8.944  0.1438 -0.2169  1.8337
  751MOL0     H99110   2.429   3.342   9.117  0.7097  2.0357 -0.5048
  751MOL0     H99111   2.298   3.348   8.993 -0.4450 -1.9280 -2.6053
  751MOL0     H99112   2.542   3.175   8.955 -0.3950 -0.6214 -1.3176
  751MOL0     H99113   2.382   3.156   8.893 -0.8406  1.4160  0.5810
  751MOL0     H99114   3.306   3.243   9.008  1.3120 -0.6895 -2.3712
  751MOL0     H99115   3.539   3.228   9.077 -0.7646 -0.8870 -0.2780
  751MOL0     H99116   3.951   3.594   9.297  0.7112  1.0702 -3.2904
  751MOL0     H99117   4.170   3.529   9.373 -0.0105  1.2063 -1.0723
  751MOL0     H99118   5.716   3.486   9.536 -0.4210 -0.2701  0.4751
  751MOL0     H99119   5.955   3.467   9.496  1.0222  0.1917  0.6764
  751MOL0     H99120   6.349   3.257   9.601 -1.7337  1.5101 -0.8270
  751MOL0     H99121   6.567   3.225   9.522 -0.5255 -0.0838  1.5954
  751MOL0     H99122   6.841   3.569   9.388  4.1829 -0.1454 -2.3778
  751MOL0     H99123   6.755   3.486   9.262 -1.5512 -0.1655  1.0445
  751MOL0     H99124   6.916   3.299   9.286 -0.7318  0.6914  0.9464
  751MOL0     H99125   6.991   3.464   9.242 -2.6035  1.9604 -0.5384
  751MOL0     H99126   6.960   3.376   9.522  0.2470 -2.1272 -0.7147
  751MOL0     H99127   7.057   3.512   9.460  0.4038 -0.2969  0.8645
  751MOL0     H99128   7.209   3.352   9.530 -0.0210 -2.0674  0.9957
  751MOL0     H99129   7.106   3.221   9.462 -0.6215 -0.1317 -1.7087
  751MOL0     H99130   7.372   3.306   9.153  1.0080 -4.9410  1.3718
  751MOL0     H99131   6.628   3.644   9.469 -1.8442  1.6632  1.2544
  751MOL0     H99132   6.407   3.684   9.531 -1.0126  0.2495  2.5368
  752MOL0     O99133   0.037   4.201   9.534 -0.0366  0.3343 -0.3176
  752MOL0     C99134   0.098   4.299   9.483  0.0395  0.1425  0.1994
  752MOL0     O99135   0.053   4.385   9.381  0.7088  0.0385  0.2003
  752MOL0     C99136  -0.081   4.382   9.341 -0.1338  0.4869  1.3089
  752MOL0     C99137  -0.152   4.267   9.322 -0.1639 -0.5261  0.3953
  752MOL0     C99138  -0.285   4.269   9.301 -0.2428  0.2175 -1.0680
  752MOL0     C99139  -0.353   4.400   9.287  0.1186  0.1693  0.1851
  752MOL0     O99140  -0.485   4.417   9.276  0.1708 -0.3751 -0.0778
  752MOL0     C99141  -0.574   4.307   9.296 -0.1085 -0.5037 -0.3824
  752MOL0     C99142  -0.715   4.354   9.297  0.0926  0.3886  0.9499
  752MOL0     C99143  -0.809   4.237   9.319 -0.2857 -0.5838  0.3963
  752MOL0     C99144  -0.960   4.273   9.288 -0.7715  0.3410 -0.2886
  752MOL0     C99145  -1.056   4.153   9.303 -0.4066 -0.1549 -0.5174
  752MOL0     C99146  -1.199   4.182   9.267  0.0981  0.4970  0.6559
  752MOL0     C99147  -1.293   4.073   9.312  1.3850 -0.6316 -0.3380
  752MOL0     C99148  -1.437   4.096   9.253  0.3842 -0.3933 -0.0629
  752MOL0     N99149  -1.516   3.989   9.306  1.4082  0.7111 -0.3678
  752MOL0     C99150  -1.605   3.985   9.419  0.5619 -0.5870  0.9713
  752MOL0     C99151  -1.658   3.865   9.432 -0.3043 -0.8840  0.2754
  752MOL0     C99152  -1.769   3.832   9.534  0.2282  0.3434  0.2120
  752MOL0     C99153  -1.913   3.809   9.477 -0.4886  0.6279 -0.0337
  752MOL0     C99154  -1.971   3.921   9.386 -0.6474  0.7198  0.1297
  752MOL0     C99155  -2.120   3.906   9.361 -0.2529  0.7697  0.1925
  752MOL0     O99156  -2.128   3.772   9.311  0.1870  0.1012  0.4680
  752MOL0     C99157  -2.237   3.754   9.221  0.1943  0.0421 -0.6189
  752MOL0     C99158  -2.215   3.737   9.085 -0.3397  0.1761 -0.1264
  752MOL0     C99159  -2.325   3.734   8.992 -0.7691 -0.7059  0.3730
  752MOL0     C99160  -2.455   3.758   9.038 -0.0914 -0.5764 -1.2241
  752MOL0     C99161  -2.559   3.751   8.938  0.0910  0.3985  0.2929
  752MOL0     O99162  -2.667   3.830   8.958  0.4203  0.0871 -1.0248
  752MOL0     C99163  -2.772   3.847   8.869  0.4536  0.2334 -0.3157
  752MOL0     C99164  -2.812   3.974   8.816 -0.2519  0.8929  0.6425
  752MOL0     C99165  -2.934   3.986   8.746 -0.2445 -0.6179 -0.0658
  752MOL0     C99166  -3.010   3.873   8.729  0.2240  0.9932 -0.0574
  752MOL0     O99167  -3.113   3.889   8.641  0.2380  0.2778 -0.1357
  752MOL0     C99168  -3.242   3.818   8.662 -0.6005 -0.1562 -0.2801
  752MOL0     C99169  -3.337   3.853   8.546  0.3484 -0.0011 -0.0291
  752MOL0     C99170  -3.484   3.822   8.578 -0.6267 -0.0282  0.1345
  752MOL0     C99171  -3.563   3.804   8.446 -0.3922  0.4323 -0.1506
  752MOL0     C99172  -3.707   3.814   8.475 -0.3285 -0.5435 -0.8387
  752MOL0     C99173  -3.793   3.757   8.367  0.0030 -0.0909  0.6685
  752MOL0     C99174  -3.802   3.846   8.240  0.2030  0.3628 -0.4107
  752MOL0     C99175  -3.919   3.801   8.146  0.3586  0.3112 -0.6657
  752MOL0    Cl99176  -3.921   3.912   8.002  0.0623 -0.2653  0.1315
  752MOL0     C99177  -2.965   3.741   8.778 -0.1567 -0.5949 -0.7078
  752MOL0     C99178  -2.851   3.735   8.846  0.0025 -0.0583 -0.2449
  752MOL0     O99179  -2.534   3.696   8.831 -0.3087 -0.4712  0.6004
  752MOL0     C99180  -2.470   3.789   9.178  0.3566 -0.2509  0.0629
  752MOL0     C99181  -2.367   3.784   9.270 -0.2893 -0.1400 -0.1511
  752MOL0     N99182  -1.606   3.789   9.322  0.6410  0.1952  0.5542
  752MOL0     N99183  -1.525   3.861   9.250  0.0292 -0.0653 -0.3004
  752MOL0     C99184  -0.279   4.520   9.303  0.3623 -0.3560  0.2680
  752MOL0     C99185  -0.141   4.512   9.328 -0.0895  0.1779 -0.0621
  752MOL0     C99186   0.234   4.322   9.530 -0.5412  0.2303 -0.6737
  752MOL0     C99187   0.312   4.221   9.600 -0.2009  0.7758  0.5071
  752MOL0     C99188   0.445   4.252   9.643  0.0257  0.0564  0.3629
  752MOL0     C99189   0.498   4.389   9.630  0.9311  0.4544 -0.1016
  752MOL0     O99190   0.622   4.425   9.672 -0.0635  0.0427  0.0665
  752MOL0     C99191   0.689   4.543   9.605  0.7097  0.2863  0.2734
  752MOL0     C99192   0.831   4.526   9.640  0.3213 -0.0085  0.2991
  752MOL0     C99193   0.935   4.580   9.538 -0.1295 -0.3393 -0.3175
  752MOL0     C99194   1.075   4.532   9.569  0.4814  0.3394  0.3501
  752MOL0     C99195   1.126   4.579   9.701 -0.1037  0.2007 -0.4522
  752MOL0     C99196   1.156   4.601   9.814 -0.4860 -1.0498 -0.1670
  752MOL0     C99197   0.414   4.485   9.572 -0.5111  0.3256 -0.0039
  752MOL0     C99198   0.285   4.461   9.524  0.2193 -0.0180 -0.3260
  752MOL0     H99199  -0.100   4.174   9.341  0.5256  0.3392  3.2139
  752MOL0     H99200  -0.348   4.183   9.322  0.1150  0.9566  4.2693
  752MOL0     H99201  -0.538   4.256   9.386 -0.6580  0.0653  0.1659
  752MOL0     H99202  -0.564   4.238   9.212  2.9904  0.7903 -1.2328
  752MOL0     H99203  -0.739   4.404   9.203 -2.2231 -1.4711  0.4479
  752MOL0     H99204  -0.732   4.428   9.376  0.2805  2.0124 -0.4751
  752MOL0     H99205  -0.792   4.209   9.423 -0.7197  2.3935  1.3813
  752MOL0     H99206  -0.786   4.161   9.244 -1.1711 -1.0364  0.5735
  752MOL0     H99207  -1.001   4.358   9.345 -0.6669  0.0588  0.2168
  752MOL0     H99208  -0.963   4.296   9.182 -0.1909 -0.8460 -0.5824
  752MOL0     H99209  -1.036   4.117   9.405 -2.1043  0.0448 -0.0863
  752MOL0     H99210  -1.015   4.071   9.244  1.3528  0.2421  0.0867
  752MOL0     H99211  -1.192   4.200   9.160  1.7820 -1.7559  0.3182
  752MOL0     H99212  -1.233   4.279   9.305 -1.7771  0.9712 -1.9719
  752MOL0     H99213  -1.263   3.977   9.269  0.1061 -1.0639 -0.3229
  752MOL0     H99214  -1.306   4.066   9.420 -1.3264 -0.2889 -0.5627
  752MOL0     H99215  -1.434   4.105   9.144 -0.5585  0.6914 -0.0183
  752MOL0     H99216  -1.473   4.195   9.281  3.2169  0.2929  1.5042
  752MOL0     H99217  -1.625   4.070   9.483  0.7496 -0.9122  1.4674
  752MOL0     H99218  -1.774   3.907   9.613 -0.2714  0.5940 -0.0516
  752MOL0     H99219  -1.732   3.746   9.589  1.4360  0.8870  0.2825
  752MOL0     H99220  -1.980   3.784   9.559 -0.7618 -1.5610 -0.8490
  752MOL0     H99221  -1.900   3.718   9.418 -2.0186 -1.2955  2.4179
  752MOL0     H99222  -1.954   4.003   9.456 -2.3638  0.3394  1.0526
  752MOL0     H99223  -1.910   3.939   9.297 -2.0435  2.4189 -0.5501
  752MOL0     H99224  -2.146   3.985   9.291 -0.4013  1.9861  1.5753
  752MOL0     H99225  -2.180   3.915   9.452  0.2327 -0.1375  0.6175
  752MOL0     H99226  -2.120   3.731   9.033 -0.5907 -1.9624 -0.4731
  752MOL0     H99227  -2.307   3.711   8.888  1.9064 -0.9485  0.8285
  752MOL0     H99228  -2.760   4.063   8.849  0.0302  0.9543  0.0576
  752MOL0     H99229  -2.952   4.085   8.705 -0.0862 -0.7529 -0.4595
  752MOL0     H99230  -3.284   3.867   8.751 -0.1298 -2.9018  1.5613
  752MOL0     H99231  -3.233   3.709   8.668  0.6247 -0.0071  2.1137
  752MOL0     H99232  -3.298   3.789   8.466  1.8127  1.2650 -0.3819
  752MOL0     H99233  -3.331   3.960   8.522  0.8749  0.4223  1.8495
  752MOL0     H99234  -3.525   3.905   8.636  3.0541  0.3336  2.5524
  752MOL0     H99235  -3.496   3.724   8.626  1.1302  1.3355  3.7501
  752MOL0     H99236  -3.534   3.885   8.379 -2.1746  3.6523  2.6514
  752MOL0     H99237  -3.554   3.708   8.394 -3.2839  0.4658 -0.9079
  752MOL0     H99238  -3.733   3.919   8.493 -0.1420 -0.5024 -0.8042
  752MOL0     H99239  -3.732   3.762   8.567 -0.8919  1.8928  0.4577
  752MOL0     H99240  -3.895   3.745   8.405 -0.9666 -2.4921 -2.3598
  752MOL0     H99241  -3.761   3.654   8.349  0.8490  0.4622 -1.2981
  752MOL0     H99242  -3.825   3.948   8.272 -2.4496 -0.0261 -0.8444
  752MOL0     H99243  -3.711   3.830   8.182  1.5766  2.2481  1.0717
  752MOL0     H99244  -4.017   3.813   8.194  0.5461 -1.8048  0.3558
  752MOL0     H99245  -3.918   3.697   8.115 -1.0672 -0.5084  1.7649
  752MOL0     H99246  -3.030   3.654   8.778  1.0677 -1.6068  1.8796
  752MOL0     H99247  -2.827   3.637   8.886  0.4077  1.0641  2.4046
  752MOL0     H99248  -2.566   3.827   9.210  0.3886  0.1300 -0.2815
  752MOL0     H99249  -2.386   3.821   9.370  0.4671  0.4519 -0.2252
  752MOL0     H99250  -0.320   4.620   9.300 -2.7701 -1.5561 -1.7527
  752MOL0     H99251  -0.083   4.602   9.346 -1.9677  1.0903  1.7170
  752MOL0     H99252   0.271   4.121   9.609  0.3912  0.6136  1.4150
  752MOL0     H99253   0.505   4.182   9.700  0.5568  0.4759  0.3335
  752MOL0     H99254   0.658   4.645   9.630  1.6495  0.1617  2.1588
  752MOL0     H99255   0.676   4.537   9.497 -2.1701 -1.9787  0.6354
  752MOL0     H99256   0.848   4.561   9.743 -3.1609 -0.8690  1.3069
  752MOL0     H99257   0.845   4.419   9.658  2.1235  0.4648  2.2783
  752MOL0     H99258   0.921   4.688   9.544 -1.7822 -0.5617  0.1805
  752MOL0     H99259   0.908   4.546   9.438 -2.2840 -0.9105  0.4153
  752MOL0     H99260   1.076   4.423   9.572 -1.3482  0.2903  0.3563
  752MOL0     H99261   1.136   4.566   9.485  1.5114 -2.6820 -0.2491
  752MOL0     H99262   1.209   4.627   9.903  0.4504 -0.6988 -0.8152
  752MOL0     H99263   0.442   4.589   9.559 -2.4998  1.3744  2.9901
  752MOL0     H99264   0.224   4.546   9.495  1.2529  0.5342 -0.9190
  753MOL0     O99265   0.225   0.525  10.922 -0.2830  0.3813  0.5579
  753MOL0     C99266   0.265   0.591  10.825  0.3940  0.4583 -0.3569
  753MOL0     O99267   0.397   0.610  10.784  0.0900 -0.1963  0.2920
  753MOL0     C99268   0.495   0.558  10.867 -0.7937 -0.0955 -0.6134
  753MOL0     C99269   0.526   0.419  10.867 -0.6077  1.0787  0.4359
  753MOL0     C99270   0.616   0.375  10.967  0.5022  0.8173 -0.1066
  753MOL0     C99271   0.676   0.452  11.070 -0.6004  0.0204  0.8474
  753MOL0     O99272   0.751   0.402  11.178 -0.5127 -0.1976  0.5276
  753MOL0     C99273   0.791   0.260  11.185  0.0371  0.0102 -0.3302
  753MOL0     C99274   0.893   0.229  11.298  0.2545 -0.4425  0.0716
  753MOL0     C99275   0.935   0.080  11.314  0.5075 -0.6542 -0.9257
  753MOL0     C99276   1.089   0.073  11.346  0.3775 -0.0884 -0.4804
  753MOL0     C99277   1.140  -0.070  11.355 -0.2564  0.7310 -0.2226
  753MOL0     C99278   1.292  -0.088  11.354  0.0560  0.3813  0.1600
  753MOL0     C99279   1.330  -0.079  11.206  0.3837 -0.0584 -0.0352
  753MOL0     C99280   1.478  -0.086  11.182 -0.8733  0.5469 -0.5445
  753MOL0     N99281   1.517  -0.056  11.045  0.0304  0.5607 -0.1477
  753MOL0     C99282   1.489   0.066  10.988  0.1598 -0.3395  0.1038
  753MOL0     C99283   1.549   0.079  10.867 -0.6406  0.7832 -1.1691
  753MOL0     C99284   1.520   0.183  10.766  0.2551  0.1143  0.1465
  753MOL0     C99285   1.457   0.117  10.640  0.4759 -0.4853  0.2683
  753MOL0     C99286   1.430   0.236  10.533 -0.4988  0.4057 -0.5055
  753MOL0     C99287   1.321   0.331  10.587 -0.3448 -0.5192  0.0749
  753MOL0     O99288   1.287   0.431  10.487 -0.3571 -0.1736 -0.1133
  753MOL0     C99289   1.195   0.398  10.396 -0.3748  1.2139 -0.2457
  753MOL0     C99290   1.112   0.286  10.398  0.7402  0.7975  0.5818
  753MOL0     C99291   0.997   0.271  10.313 -0.0990 -0.9842 -0.4611
  753MOL0     C99292   0.978   0.370  10.216  0.2277  0.9964  0.0173
  753MOL0     C99293   0.871   0.355  10.112  1.4357 -0.2118 -0.6408
  753MOL0     O99294   0.828   0.476  10.041  0.0136  0.1978 -0.4266
  753MOL0     C99295   0.724   0.475   9.944 -0.2041  0.2116  0.2887
  753MOL0     C99296   0.697   0.364   9.868  0.4543  0.8645  0.8046
  753MOL0     C99297   0.591   0.368   9.771 -0.7560 -0.2691  0.0757
  753MOL0     C99298   0.502   0.474   9.759  0.3143 -0.6054 -0.0898
  753MOL0     O99299   0.409   0.490   9.661  0.3426  0.9589 -0.4561
  753MOL0     C99300   0.321   0.377   9.648  0.1621  0.2437 -0.8310
  753MOL0     C99301   0.279   0.368   9.503 -0.5878 -0.6014 -0.1562
  753MOL0     C99302   0.185   0.484   9.450  0.4250 -0.2200  0.0492
  753MOL0     C99303   0.049   0.441   9.494  0.5296 -0.6004 -0.2652
  753MOL0     C99304  -0.061   0.543   9.453  0.0923  0.0469  0.1563
  753MOL0     C99305  -0.087   0.525   9.296  0.1546  0.6454 -0.3452
  753MOL0     C99306  -0.202   0.612   9.231 -0.4910 -0.6571 -0.6910
  753MOL0     C99307  -0.344   0.555   9.242 -0.4814 -0.3487  0.8327
  753MOL0    Cl99308  -0.390   0.564   9.409 -0.2947  0.4002 -0.3631
  753MOL0     C99309   0.529   0.588   9.836 -0.2207  0.6914  0.0787
  753MOL0     C99310   0.645   0.592   9.918  0.3334 -0.2024 -0.8289
  753MOL0     O99311   0.822   0.240  10.098  0.3471 -0.3272 -0.0682
  753MOL0     C99312   1.076   0.474  10.200  0.2949 -0.3955 -0.2363
  753MOL0     C99313   1.176   0.484  10.293  0.6372  0.3524 -0.4804
  753MOL0     N99314   1.618  -0.043  10.852  0.0046 -0.1463  0.3756
  753MOL0     N99315   1.600  -0.115  10.958 -0.3617 -0.7944  0.6559
  753MOL0     C99316   0.642   0.588  11.071 -0.0583 -0.2687  0.8608
  753MOL0     C99317   0.554   0.637  10.967 -0.1860 -0.4197 -0.0412
  753MOL0     C99318   0.162   0.642  10.739  0.4092  0.1684 -0.3301
  753MOL0     C99319   0.188   0.654  10.601 -0.3090 -0.1094 -0.8706
  753MOL0     C99320   0.075   0.695  10.516 -0.6730 -0.3646 -0.5886
  753MOL0     C99321  -0.049   0.730  10.575  0.2780  0.4265 -0.5848
  753MOL0     O99322  -0.153   0.754  10.493 -0.3082 -0.1566 -0.3810
  753MOL0     C99323  -0.199   0.628  10.443  0.7173 -0.8196 -0.2813
  753MOL0     C99324  -0.303   0.652  10.324 -0.0688 -0.2162 -0.1602
  753MOL0     C99325  -0.280   0.775  10.240  0.1595  0.2863 -0.1044
  753MOL0     C99326  -0.399   0.808  10.154  0.1623  0.0958  0.1728
  753MOL0     C99327  -0.528   0.831  10.217 -0.4194  0.1753 -0.5268
  753MOL0     C99328  -0.639   0.852  10.251  0.7132 -1.3016 -0.3756
  753MOL0     C99329  -0.069   0.713  10.714 -0.4199  0.3613 -0.3150
  753MOL0     C99330   0.033   0.676  10.794 -0.5103  0.0597 -0.3836
  753MOL0     H99331   0.469   0.354  10.802 -1.1180  1.0554  0.9031
  753MOL0     H99332   0.640   0.269  10.964  2.8105  1.2883 -0.4894
  753MOL0     H99333   0.831   0.217  11.093  0.2055 -3.6319  1.2655
  753MOL0     H99334   0.702   0.197  11.197  1.1980 -1.5474  0.4886
  753MOL0     H99335   0.856   0.268  11.393 -0.7001 -0.4425 -0.2921
  753MOL0     H99336   0.983   0.290  11.287  1.0377 -1.4494  0.7384
  753MOL0     H99337   0.911   0.031  11.219 -0.2006  2.9624 -2.7633
  753MOL0     H99338   0.871   0.040  11.393  0.3461 -0.0383 -0.7420
  753MOL0     H99339   1.140   0.122  11.262 -0.8086  2.1308  0.0123
  753MOL0     H99340   1.099   0.111  11.448  1.7463 -1.0906 -0.2137
  753MOL0     H99341   1.088  -0.132  11.282 -0.4506 -0.1310  0.6222
  753MOL0     H99342   1.114  -0.126  11.446  1.8776 -0.2825 -0.1744
  753MOL0     H99343   1.313  -0.188  11.393  2.2522 -0.2887 -2.4383
  753MOL0     H99344   1.347  -0.024  11.424 -0.4472  1.2334 -0.2127
  753MOL0     H99345   1.275  -0.153  11.147  1.0556  0.6968 -1.7024
  753MOL0     H99346   1.298   0.020  11.171  0.1841  0.4852  1.6360
  753MOL0     H99347   1.519  -0.183  11.212 -1.8515 -0.1158 -1.2894
  753MOL0     H99348   1.537  -0.020  11.247  3.8856 -2.0281 -1.7710
  753MOL0     H99349   1.426   0.147  11.022  3.4490  2.1601  0.6593
  753MOL0     H99350   1.609   0.240  10.735  0.3448 -0.7256 -1.2321
  753MOL0     H99351   1.459   0.259  10.815  0.2072 -1.0401  1.9383
  753MOL0     H99352   1.366   0.064  10.667  0.2252 -0.0936  0.2137
  753MOL0     H99353   1.519   0.042  10.591  0.1868  1.0486 -2.6905
  753MOL0     H99354   1.524   0.290  10.523 -0.9522  1.3988  0.4357
  753MOL0     H99355   1.413   0.207  10.429  0.6431  2.9847 -1.4872
  753MOL0     H99356   1.355   0.381  10.678  1.3056 -2.4175  0.5759
  753MOL0     H99357   1.237   0.271  10.624  0.2583 -0.8679  0.8897
  753MOL0     H99358   1.113   0.209  10.475  1.5508  1.2639  1.0545
  753MOL0     H99359   0.925   0.192  10.333 -1.0000 -0.3374 -1.0480
  753MOL0     H99360   0.744   0.266   9.864 -2.3618 -0.5925 -2.3266
  753MOL0     H99361   0.584   0.281   9.706  2.6128 -2.1499  1.9453
  753MOL0     H99362   0.240   0.375   9.721 -0.0328  0.5122 -1.0375
  753MOL0     H99363   0.368   0.283   9.676 -1.9177 -1.2219 -2.0130
  753MOL0     H99364   0.246   0.264   9.500  1.6623 -1.3908  0.9148
  753MOL0     H99365   0.374   0.370   9.448 -0.9311  0.6060 -0.7437
  753MOL0     H99366   0.181   0.487   9.340 -0.9956  3.3368  0.0767
  753MOL0     H99367   0.218   0.578   9.495 -0.7039 -0.5156  1.5553
  753MOL0     H99368   0.006   0.349   9.452 -0.1543  0.6554 -2.5247
  753MOL0     H99369   0.049   0.425   9.602  0.7376 -0.7431 -0.2870
  753MOL0     H99370  -0.045   0.648   9.480  0.2450  0.4434 -1.3701
  753MOL0     H99371  -0.151   0.512   9.507  0.7931 -2.7416 -0.1386
  753MOL0     H99372  -0.101   0.421   9.267  2.3640  0.3266 -0.4452
  753MOL0     H99373   0.007   0.553   9.248  1.6791 -1.9608  0.9107
  753MOL0     H99374  -0.200   0.712   9.276  2.4939 -0.7241 -0.4714
  753MOL0     H99375  -0.175   0.618   9.126  1.2296 -3.2380 -0.4848
  753MOL0     H99376  -0.336   0.451   9.209 -0.8336 -0.9899  2.6789
  753MOL0     H99377  -0.403   0.622   9.178  2.7044  2.7128  0.7736
  753MOL0     H99378   0.463   0.673   9.822  1.5663  2.7183  2.8035
  753MOL0     H99379   0.668   0.679   9.980 -0.8515  0.2682 -1.0064
  753MOL0     H99380   1.072   0.552  10.125  0.2591  0.2030  0.3839
  753MOL0     H99381   1.230   0.578  10.300  2.3370 -0.4049 -2.3792
  753MOL0     H99382   0.684   0.650  11.150 -2.9588  1.0372  1.5179
  753MOL0     H99383   0.528   0.743  10.962 -1.7889 -0.7101  1.5727
  753MOL0     H99384   0.285   0.634  10.555  1.1999  4.4459 -0.1537
  753MOL0     H99385   0.090   0.696  10.409 -3.1331  0.3536 -0.9873
  753MOL0     H99386  -0.258   0.583  10.523  0.1309  3.0750  1.6618
  753MOL0     H99387  -0.117   0.563  10.411  2.6579  1.2686  0.1965
  753MOL0     H99388  -0.292   0.566  10.258 -1.6194 -2.1453  1.9694
  753MOL0     H99389  -0.401   0.658  10.372 -0.9877  0.4482 -2.0475
  753MOL0     H99390  -0.195   0.756  10.174 -0.0207  0.1980 -0.3170
  753MOL0     H99391  -0.253   0.869  10.289  1.2400 -0.0722 -0.0072
  753MOL0     H99392  -0.371   0.900  10.102  0.2843  0.6864  1.2616
  753MOL0     H99393  -0.407   0.722  10.086 -0.9875 -1.4591  2.1447
  753MOL0     H99394  -0.741   0.864  10.282  0.8963  0.8455 -0.4021
  753MOL0     H99395  -0.173   0.730  10.740 -0.7896 -1.3679 -0.5197
  753MOL0     H99396   0.004   0.656  10.897 -1.1627 -1.7846 -0.8662
  754MOL0     O99397  10.833   6.270   8.949 -0.7697  0.4366  0.2359
  754MOL0     C99398  10.926   6.276   9.036  0.6599  0.1766  0.8366
  754MOL0     O99399  10.910   6.215   9.167  1.1735  0.2626  0.6770
  754MOL0     C99400  10.778   6.173   9.206  0.0853 -0.4086  0.3598
  754MOL0     C99401  10.758   6.066   9.295  0.2354  0.3777  0.7701
  754MOL0     C99402  10.633   6.032   9.348 -0.1362 -0.9482  0.0411
  754MOL0     C99403  10.513   6.089   9.302 -0.4432 -0.3868  0.0422
  754MOL0     O99404  10.395   6.043   9.368 -0.3210 -0.1370 -0.0026
  754MOL0     C99405  10.280   6.047   9.282 -0.3602  0.1648  0.1318
  754MOL0     C99406  10.190   5.929   9.319  0.1186 -0.0259 -0.9195
  754MOL0     C99407  10.141   5.942   9.466  0.6341  0.3815  0.0115
  754MOL0     C99408  10.063   5.824   9.525 -0.4338 -0.3479  0.7739
  754MOL0     C99409  10.040   5.806   9.674  0.1817 -0.4144  0.7441
  754MOL0     C99410   9.957   5.664   9.688  0.3681 -0.4668  0.2092
  754MOL0     C99411   9.910   5.650   9.834 -0.8075 -0.2706  0.2344
  754MOL0     C99412   9.800   5.754   9.875  0.2247  0.3622  0.1011
  754MOL0     N99413   9.712   5.711   9.985  0.5000  0.2042 -0.3585
  754MOL0     C99414   9.592   5.644   9.968 -0.4703 -0.2803  0.0071
  754MOL0     C99415   9.520   5.654  10.076 -0.8614 -0.3894 -0.0323
  754MOL0     C99416   9.390   5.596  10.116  0.9570 -0.1184 -0.1127
  754MOL0     C99417   9.286   5.707  10.149  0.0594 -0.1350 -0.7353
  754MOL0     C99418   9.151   5.634  10.190 -0.2513 -0.2173 -0.4345
  754MOL0     C99419   9.040   5.733  10.231 -0.3807 -0.0373  0.4324
  754MOL0     O99420   9.007   5.817  10.122  0.9495  0.1612  0.3762
  754MOL0     C99421   8.935   5.932  10.149  0.2841 -0.8030  1.0148
  754MOL0     C99422   8.871   5.961  10.275  1.3294 -0.0813  0.4483
  754MOL0     C99423   8.788   6.078  10.286  1.0167  0.7179  0.0223
  754MOL0     C99424   8.774   6.174  10.178 -0.0435 -0.1516 -0.2927
  754MOL0     C99425   8.691   6.295  10.190  0.0488  0.5594 -0.0376
  754MOL0     O99426   8.662   6.353  10.074 -0.6284  0.7089 -0.5288
  754MOL0     C99427   8.552   6.437  10.067  0.8783 -0.7115 -0.8112
  754MOL0     C99428   8.429   6.392  10.113 -0.3221  0.9118  0.1332
  754MOL0     C99429   8.317   6.476  10.114  0.4706  0.2088  0.4606
  754MOL0     C99430   8.329   6.613  10.074  0.5941 -0.2768 -0.2534
  754MOL0     O99431   8.205   6.673  10.092  0.3661 -0.4979  1.0303
  754MOL0     C99432   8.196   6.811  10.122  0.6034 -0.6227  0.6099
  754MOL0     C99433   8.262   6.836  10.258  0.6294 -0.2823  0.5080
  754MOL0     C99434   8.234   6.977  10.321  0.9551  0.4471  1.1126
  754MOL0     C99435   8.285   6.993  10.466 -0.6078  0.5647  0.8795
  754MOL0     C99436   8.250   7.126  10.534 -0.3306 -0.0351  0.2553
  754MOL0     C99437   8.315   7.139  10.682 -0.1766 -1.3296  0.7950
  754MOL0     C99438   8.289   7.027  10.781  0.4076  0.0534  0.4075
  754MOL0     C99439   8.145   6.979  10.808 -0.2460 -0.0600  0.3338
  754MOL0    Cl99440   8.039   7.101  10.885  0.0540  0.1125  0.1726
  754MOL0     C99441   8.449   6.658  10.023 -0.1372 -0.3979  0.0381
  754MOL0     C99442   8.555   6.568  10.020 -0.9451 -0.6669 -0.2656
  754MOL0     O99443   8.643   6.321  10.297 -0.5978 -0.2342  0.1043
  754MOL0     C99444   8.841   6.143  10.062  0.7986 -0.9041 -0.1261
  754MOL0     C99445   8.916   6.028  10.048 -0.1652  0.5173  0.3192
  754MOL0     N99446   9.607   5.718  10.170 -0.8427 -0.1893 -0.2437
  754MOL0     N99447   9.722   5.754  10.113 -0.7313  0.1206  0.2629
  754MOL0     C99448  10.529   6.194   9.206 -0.7458  0.2712  0.8750
  754MOL0     C99449  10.661   6.242   9.168  0.0599  0.9121  0.7798
  754MOL0     C99450  11.049   6.350   9.008  0.3329  0.7730 -0.3181
  754MOL0     C99451  11.089   6.397   8.885 -0.3356 -0.2961 -0.1526
  754MOL0     C99452  11.219   6.434   8.858  0.1044  0.4354 -0.5559
  754MOL0     C99453  11.312   6.441   8.958  0.1137  0.2568  0.2296
  754MOL0     O99454  11.427   6.494   8.915 -0.4847  0.2992 -0.3204
  754MOL0     C99455  11.543   6.456   8.985  0.1654  0.4525  0.0290
  754MOL0     C99456  11.645   6.414   8.883 -0.0862 -0.2241 -0.2865
  754MOL0     C99457  11.765   6.351   8.947 -0.2080 -0.4145 -0.5499
  754MOL0     C99458  11.870   6.451   8.994  0.6031 -0.4562  1.1885
  754MOL0     C99459  11.974   6.373   9.052 -0.6382  0.0226 -0.9783
  754MOL0     C99460  12.070   6.332   9.114  0.4592  0.1549  0.2738
  754MOL0     C99461  11.272   6.408   9.088  0.4255 -0.1200  0.8064
  754MOL0     C99462  11.144   6.363   9.114 -0.0223  0.2065  0.4386
  754MOL0     H99463  10.842   6.022   9.348 -0.9929 -1.3038  1.3940
  754MOL0     H99464  10.630   5.949   9.418 -2.6646 -1.8367 -1.0133
  754MOL0     H99465  10.302   6.055   9.176  1.2963  0.0114  0.4323
  754MOL0     H99466  10.226   6.141   9.294  0.1492  0.6434 -1.2646
  754MOL0     H99467  10.241   5.834   9.300 -0.3292  0.1280 -3.0759
  754MOL0     H99468  10.099   5.919   9.259  0.5891 -2.2324 -1.3629
  754MOL0     H99469  10.089   6.037   9.482  1.6364  0.6612  1.9909
  754MOL0     H99470  10.231   5.949   9.529  1.3745 -3.2319 -0.4544
  754MOL0     H99471   9.971   5.817   9.467  1.7742 -3.2302 -2.8457
  754MOL0     H99472  10.112   5.735   9.485 -2.5141 -0.3769 -2.0099
  754MOL0     H99473   9.981   5.890   9.712 -1.7710 -1.2993 -0.1903
  754MOL0     H99474  10.135   5.811   9.727  1.1944 -1.3226 -0.8974
  754MOL0     H99475  10.021   5.576   9.684 -0.6110 -1.4459  3.4858
  754MOL0     H99476   9.870   5.670   9.621  1.2934 -0.1753 -1.0201
  754MOL0     H99477   9.866   5.550   9.842 -0.9442 -0.4249 -1.9536
  754MOL0     H99478   9.994   5.652   9.904 -0.8655  2.7081  0.3398
  754MOL0     H99479   9.741   5.779   9.786  1.1663  3.3790  0.2124
  754MOL0     H99480   9.851   5.849   9.897  1.4980 -0.2206 -0.2535
  754MOL0     H99481   9.575   5.584   9.879 -0.9197  2.5840 -1.9786
  754MOL0     H99482   9.391   5.523  10.198  1.3419  1.5396  1.4127
  754MOL0     H99483   9.349   5.542  10.030 -0.3939  0.0392  0.4164
  754MOL0     H99484   9.251   5.769  10.066 -0.7323  1.6097  0.8399
  754MOL0     H99485   9.318   5.773  10.229  2.1669 -0.3961 -1.2960
  754MOL0     H99486   9.110   5.566  10.115  0.8872 -3.2028  1.4439
  754MOL0     H99487   9.188   5.579  10.278  3.2930  0.8858 -1.0623
  754MOL0     H99488   9.080   5.795  10.311  1.4385 -2.8669  1.8596
  754MOL0     H99489   8.947   5.683  10.262  0.0332 -0.7424  0.5578
  754MOL0     H99490   8.883   5.887  10.354 -0.3448 -0.9707 -0.0868
  754MOL0     H99491   8.736   6.103  10.377 -2.4834  1.5626 -2.0225
  754MOL0     H99492   8.426   6.286  10.135  1.3465  0.6501 -0.7679
  754MOL0     H99493   8.217   6.439  10.136 -0.0427  2.1194  1.5097
  754MOL0     H99494   8.089   6.831  10.134  0.3557 -0.5434 -1.3772
  754MOL0     H99495   8.241   6.879  10.049 -1.6879  2.0397  1.5040
  754MOL0     H99496   8.370   6.821  10.255  0.6939  0.1622 -2.2429
  754MOL0     H99497   8.226   6.761  10.329  1.4916 -0.3400  0.8956
  754MOL0     H99498   8.126   6.991  10.330  0.5582  0.8259 -2.5923
  754MOL0     H99499   8.283   7.040  10.247  2.2996 -2.8460 -1.0579
  754MOL0     H99500   8.225   6.918  10.519 -2.7654  1.9608  0.5603
  754MOL0     H99501   8.391   6.969  10.473 -0.9042 -0.8179  1.0386
  754MOL0     H99502   8.142   7.131  10.552 -0.3991  0.4682 -0.2635
  754MOL0     H99503   8.274   7.214  10.473 -1.8369  0.7604  0.7527
  754MOL0     H99504   8.288   7.233  10.731 -0.7076 -1.4289  0.6965
  754MOL0     H99505   8.423   7.143  10.668 -0.0019  2.1728  2.1358
  754MOL0     H99506   8.341   6.935  10.754 -2.7724 -1.7714  0.0415
  754MOL0     H99507   8.335   7.058  10.875  0.0446  0.9058  0.3177
  754MOL0     H99508   8.158   6.896  10.879  0.4568  1.7624  2.4579
  754MOL0     H99509   8.097   6.948  10.714  1.1883  0.8653 -0.7389
  754MOL0     H99510   8.466   6.759   9.988  1.4041 -0.0243  1.7307
  754MOL0     H99511   8.649   6.606   9.980 -1.4878  1.5295  0.4372
  754MOL0     H99512   8.851   6.213   9.979 -0.5673 -1.7893 -1.0791
  754MOL0     H99513   8.973   6.031   9.956  0.3230  1.6305  0.6387
  754MOL0     H99514  10.450   6.255   9.163  1.2290  1.4497 -1.3799
  754MOL0     H99515  10.668   6.328   9.102 -0.6286  0.0950 -0.3908
  754MOL0     H99516  11.015   6.402   8.806  0.0430 -1.3640 -0.5957
  754MOL0     H99517  11.237   6.455   8.754  1.9007 -0.6008 -0.4903
  754MOL0     H99518  11.530   6.381   9.063  0.7636 -0.4221 -0.6855
  754MOL0     H99519  11.575   6.545   9.039  1.7868 -1.2038  1.9793
  754MOL0     H99520  11.594   6.339   8.823  0.1051 -0.7414  0.1888
  754MOL0     H99521  11.665   6.500   8.819 -3.8192  1.0976  0.0741
  754MOL0     H99522  11.820   6.283   8.882  2.2491  0.3594  0.5800
  754MOL0     H99523  11.728   6.302   9.037 -0.4644 -0.1115 -0.4874
  754MOL0     H99524  11.899   6.514   8.910 -1.6212  1.8239  2.0001
  754MOL0     H99525  11.831   6.515   9.074  0.2078 -0.7216  1.2128
  754MOL0     H99526  12.143   6.283   9.176 -0.7420  1.2841  2.7581
  754MOL0     H99527  11.331   6.423   9.178 -0.4784  4.5063  0.9224
  754MOL0     H99528  11.123   6.322   9.212 -2.0126  0.7567  0.2869
  755MOL0     O99529   1.039   3.378   9.838 -0.7630 -0.0966  0.2966
  755MOL0     C99530   1.042   3.484   9.775 -0.6969 -0.9956  0.1172
  755MOL0     O99531   0.950   3.534   9.687 -0.0358  0.3554 -0.1906
  755MOL0     C99532   0.838   3.465   9.659  0.6104  0.3071  0.6309
  755MOL0     C99533   0.730   3.540   9.613 -0.2021 -0.0345 -0.8701
  755MOL0     C99534   0.619   3.473   9.558  0.2569  0.2549 -0.2167
  755MOL0     C99535   0.617   3.336   9.533 -0.2111  0.2319 -0.2036
  755MOL0     O99536   0.523   3.269   9.455  0.2001  0.5417 -0.5318
  755MOL0     C99537   0.439   3.348   9.365 -0.1153 -0.3460  0.1087
  755MOL0     C99538   0.341   3.261   9.290  0.1644 -0.7226 -0.8889
  755MOL0     C99539   0.211   3.332   9.243  0.1656 -0.1602  0.0493
  755MOL0     C99540   0.121   3.231   9.171 -0.1730 -0.0322 -0.5115
  755MOL0     C99541  -0.017   3.281   9.137 -0.5837 -0.2963 -0.4209
  755MOL0     C99542  -0.128   3.181   9.143  0.7675  0.6174 -0.1748
  755MOL0     C99543  -0.253   3.229   9.056  0.3805  0.1418  0.2647
  755MOL0     C99544  -0.322   3.351   9.124 -0.4706 -0.3112  0.6974
  755MOL0     N99545  -0.466   3.358   9.096 -0.3427 -0.8527 -0.1208
  755MOL0     C99546  -0.543   3.304   8.994 -0.0860  0.0882  0.3998
  755MOL0     C99547  -0.669   3.308   9.043 -0.5726 -0.3287  0.0943
  755MOL0     C99548  -0.787   3.290   8.957 -0.2677  1.4524  0.3242
  755MOL0     C99549  -0.827   3.433   8.912 -0.0635 -0.0226 -0.4929
  755MOL0     C99550  -0.948   3.434   8.819  0.7572  0.4582  0.2557
  755MOL0     C99551  -1.080   3.385   8.889 -1.0083  0.2432 -0.2425
  755MOL0     O99552  -1.174   3.390   8.788  0.8661 -0.0292  0.0538
  755MOL0     C99553  -1.287   3.308   8.794 -0.9005  1.2251  0.4288
  755MOL0     C99554  -1.364   3.309   8.682  0.5454  0.0132  0.2707
  755MOL0     C99555  -1.482   3.237   8.673 -0.5696  0.4319 -0.2743
  755MOL0     C99556  -1.534   3.166   8.785 -0.3829  0.9108  1.0167
  755MOL0     C99557  -1.669   3.103   8.790 -0.2655 -0.1400  0.0216
  755MOL0     O99558  -1.672   2.986   8.859 -0.3851  0.3882  0.8881
  755MOL0     C99559  -1.783   2.907   8.873 -0.0853 -0.3189 -0.6083
  755MOL0     C99560  -1.783   2.772   8.837  0.6706 -0.6127 -0.1533
  755MOL0     C99561  -1.881   2.677   8.872 -0.0560 -0.5606  0.2385
  755MOL0     C99562  -1.992   2.734   8.934 -0.1286  0.0284 -0.1483
  755MOL0     O99563  -2.105   2.665   8.983  0.0851  0.3809  0.4330
  755MOL0     C99564  -2.102   2.526   8.966  0.2424 -0.2557 -0.8537
  755MOL0     C99565  -2.225   2.471   9.032  1.2876  0.3295  0.5529
  755MOL0     C99566  -2.349   2.516   8.959  0.3188  0.2177  0.1935
  755MOL0     C99567  -2.481   2.432   8.994  0.2594 -0.7379  0.0731
  755MOL0     C99568  -2.601   2.467   8.912 -1.1552 -0.1097 -0.1812
  755MOL0     C99569  -2.729   2.383   8.942 -0.0931  0.5082 -0.3235
  755MOL0     C99570  -2.851   2.426   8.867  0.1620  1.0570  0.1781
  755MOL0     C99571  -2.917   2.548   8.944 -0.7255  0.7784  0.8455
  755MOL0    Cl99572  -3.067   2.587   8.861 -0.0338 -0.0698 -0.4115
  755MOL0     C99573  -1.996   2.874   8.961 -0.7674 -0.0727  0.9108
  755MOL0     C99574  -1.888   2.959   8.943  0.7379 -0.0253  0.7339
  755MOL0     O99575  -1.745   3.141   8.703  0.2049 -1.1196 -0.6490
  755MOL0     C99576  -1.457   3.163   8.898  0.6840 -0.6147  0.2384
  755MOL0     C99577  -1.329   3.230   8.902  0.0316 -0.2418  0.0837
  755MOL0     N99578  -0.671   3.344   9.175 -0.5216  0.0935  0.4963
  755MOL0     N99579  -0.544   3.371   9.202  0.0054 -0.5283 -0.1639
  755MOL0     C99580   0.723   3.265   9.591  0.8398  0.5702  0.8662
  755MOL0     C99581   0.828   3.326   9.652 -0.1131 -0.2321 -0.3294
  755MOL0     C99582   1.166   3.549   9.789 -0.8493  1.1686  0.4367
  755MOL0     C99583   1.279   3.473   9.831  0.3920 -1.0432  0.3283
  755MOL0     C99584   1.399   3.540   9.867  0.5348 -1.2007  0.1283
  755MOL0     C99585   1.400   3.686   9.861 -0.1728  0.1401 -0.5491
  755MOL0     O99586   1.515   3.766   9.882 -0.6476 -0.3066  0.0722
  755MOL0     C99587   1.634   3.708   9.933 -0.0579 -0.9973 -1.2641
  755MOL0     C99588   1.749   3.813   9.941  0.3890  0.4918 -0.2191
  755MOL0     C99589   1.875   3.758  10.014 -0.1889  1.3482 -0.7034
  755MOL0     C99590   1.988   3.854  10.001 -0.1991  0.0801  0.2732
  755MOL0     C99591   2.118   3.787  10.034  1.3941 -0.0478 -0.3109
  755MOL0     C99592   2.217   3.733  10.070 -0.6429 -0.0334 -0.8252
  755MOL0     C99593   1.291   3.752   9.816  0.2269  0.1597 -0.1826
  755MOL0     C99594   1.172   3.684   9.786 -0.1286  0.1801  0.6023
  755MOL0     H99595   0.733   3.648   9.618  0.0855 -0.0286 -1.1520
  755MOL0     H99596   0.534   3.527   9.516 -0.1958  0.0030  0.3575
  755MOL0     H99597   0.507   3.400   9.297  1.9116 -0.5696  1.8688
  755MOL0     H99598   0.387   3.427   9.419  0.5183  0.9105 -1.0367
  755MOL0     H99599   0.310   3.178   9.355  0.7092 -1.4958 -1.6097
  755MOL0     H99600   0.383   3.203   9.208  0.8281  0.8435 -1.6854
  755MOL0     H99601   0.223   3.418   9.177 -1.2840 -2.1786 -3.0734
  755MOL0     H99602   0.162   3.374   9.331 -0.1973  0.8601 -0.6283
  755MOL0     H99603   0.172   3.188   9.084 -0.7555 -1.1757 -0.3133
  755MOL0     H99604   0.100   3.152   9.243 -1.6049  1.4032  0.7285
  755MOL0     H99605  -0.008   3.328   9.038  3.0527 -0.3546 -0.2613
  755MOL0     H99606  -0.051   3.355   9.210 -0.6955 -0.8128  0.0549
  755MOL0     H99607  -0.160   3.179   9.247  2.0181  3.2367  0.3457
  755MOL0     H99608  -0.103   3.080   9.109  0.1414  0.2115  0.5496
  755MOL0     H99609  -0.223   3.256   8.954  0.7651 -0.3166  0.2527
  755MOL0     H99610  -0.326   3.149   9.046  1.7832 -0.9494 -2.5116
  755MOL0     H99611  -0.273   3.439   9.083  2.5368 -0.9358  2.6223
  755MOL0     H99612  -0.316   3.342   9.233 -4.6779 -0.4470  1.0947
  755MOL0     H99613  -0.510   3.290   8.892  0.5045  2.9243  0.1259
  755MOL0     H99614  -0.869   3.241   9.011  0.5337 -1.9212 -1.2632
  755MOL0     H99615  -0.752   3.235   8.870 -0.8828  1.3807  0.1190
  755MOL0     H99616  -0.743   3.483   8.864  1.1969 -0.7055  0.9001
  755MOL0     H99617  -0.854   3.490   9.002  2.7353 -1.1873  1.2552
  755MOL0     H99618  -0.976   3.528   8.769  0.2866  0.3321  0.2713
  755MOL0     H99619  -0.928   3.371   8.732  0.6813  0.5979  0.1351
  755MOL0     H99620  -1.115   3.460   8.960  0.8526 -0.6893  1.8148
  755MOL0     H99621  -1.075   3.288   8.940  0.6249  0.2888 -0.2641
  755MOL0     H99622  -1.341   3.361   8.590 -0.2081  1.1339  0.6971
  755MOL0     H99623  -1.540   3.242   8.581  0.1079 -0.3377 -0.7585
  755MOL0     H99624  -1.699   2.724   8.788  0.1792 -1.5524 -0.1016
  755MOL0     H99625  -1.881   2.574   8.838 -0.8425  0.7193 -4.2914
  755MOL0     H99626  -2.012   2.489   9.015 -0.2049  1.2642  1.2709
  755MOL0     H99627  -2.108   2.501   8.859 -2.1942 -1.0747 -0.5937
  755MOL0     H99628  -2.235   2.504   9.136 -0.0856 -4.1883  2.0922
  755MOL0     H99629  -2.223   2.362   9.037  0.9536  0.1790 -1.6761
  755MOL0     H99630  -2.334   2.507   8.851 -0.7107  0.5018  0.0135
  755MOL0     H99631  -2.355   2.623   8.979 -0.3726  0.0843  0.7684
  755MOL0     H99632  -2.476   2.323   8.989 -1.0940 -0.7869 -0.5456
  755MOL0     H99633  -2.501   2.451   9.100  1.0661 -1.3740  0.3501
  755MOL0     H99634  -2.580   2.449   8.806  1.8357  0.1701  0.2968
  755MOL0     H99635  -2.622   2.574   8.925 -2.5887 -0.5301  1.4267
  755MOL0     H99636  -2.745   2.377   9.050 -0.2900  0.7713 -0.3380
  755MOL0     H99637  -2.719   2.282   8.901 -1.2674  1.2848 -2.7237
  755MOL0     H99638  -2.826   2.447   8.763 -0.8670 -1.6443 -0.7226
  755MOL0     H99639  -2.927   2.347   8.870 -0.7177  1.8985  0.4517
  755MOL0     H99640  -2.839   2.624   8.933 -0.8929  0.9648  0.9486
  755MOL0     H99641  -2.923   2.522   9.050 -1.6360 -3.2359 -0.0173
  755MOL0     H99642  -2.087   2.919   9.000 -1.3815 -1.2017  0.8483
  755MOL0     H99643  -1.886   3.066   8.958 -2.7768  0.0200  1.6152
  755MOL0     H99644  -1.501   3.114   8.984 -1.7046  1.2560  0.1890
  755MOL0     H99645  -1.271   3.220   8.993  1.3986  1.1885 -0.5899
  755MOL0     H99646   0.727   3.157   9.579  1.9224  0.7920 -1.1794
  755MOL0     H99647   0.903   3.255   9.687 -3.5365 -2.7211  2.7737
  755MOL0     H99648   1.274   3.365   9.837 -1.1166 -1.0453 -0.4772
  755MOL0     H99649   1.485   3.499   9.920 -1.9640 -3.1467  3.0055
  755MOL0     H99650   1.665   3.629   9.864 -1.2122 -2.0581 -0.6000
  755MOL0     H99651   1.613   3.669  10.033  0.4421  1.2699 -0.2067
  755MOL0     H99652   1.780   3.842   9.841  0.7528 -1.7641 -0.8280
  755MOL0     H99653   1.706   3.891  10.004  0.3379  0.7898 -0.6255
  755MOL0     H99654   1.914   3.666   9.970  1.0770  1.5682 -0.0907
  755MOL0     H99655   1.852   3.742  10.119  0.0540  0.4840 -0.7801
  755MOL0     H99656   1.993   3.892   9.898  0.6896  3.3097  1.4140
  755MOL0     H99657   1.981   3.943  10.063 -0.4969  0.8976 -0.8978
  755MOL0     H99658   2.310   3.693  10.105 -0.8005  1.5367  1.6737
  755MOL0     H99659   1.294   3.860   9.800  2.3242  0.3869  1.3471
  755MOL0     H99660   1.081   3.731   9.752 -0.9050 -0.6342  1.4849
  756MOL0     O99661   9.899   1.731   5.635 -0.7322 -0.6784  0.4249
  756MOL0     C99662   9.970   1.639   5.591  0.2136  0.2155 -0.1031
  756MOL0     O99663   9.919   1.521   5.524 -0.1302 -0.4197 -0.3061
  756MOL0     C99664   9.788   1.516   5.496 -0.3109  0.2190  0.8788
  756MOL0     C99665   9.737   1.553   5.368 -0.4103 -0.1185  0.9514
  756MOL0     C99666   9.605   1.549   5.348 -0.1610 -1.2112 -1.0154
  756MOL0     C99667   9.512   1.514   5.455 -0.1706  0.5792 -0.5337
  756MOL0     O99668   9.375   1.516   5.438 -0.2075 -0.8626  0.1521
  756MOL0     C99669   9.326   1.651   5.427 -0.1888  0.2353  0.5953
  756MOL0     C99670   9.187   1.652   5.349 -1.8074  0.0998 -0.4665
  756MOL0     C99671   9.101   1.768   5.381  0.4580 -0.4538  0.3868
  756MOL0     C99672   8.973   1.739   5.305  0.3846  0.1547 -0.3034
  756MOL0     C99673   8.876   1.857   5.322  0.2054  0.6224 -0.3846
  756MOL0     C99674   8.743   1.817   5.383 -0.4450 -0.3399  0.0527
  756MOL0     C99675   8.651   1.936   5.412 -0.5293  0.9001 -0.2070
  756MOL0     C99676   8.679   2.015   5.541  0.7546  0.3021 -0.2900
  756MOL0     N99677   8.558   2.106   5.559  0.2655 -0.0666 -0.3135
  756MOL0     C99678   8.442   2.059   5.612 -0.0041  0.8459 -0.0327
  756MOL0     C99679   8.361   2.170   5.609  0.0952 -0.6543  0.3743
  756MOL0     C99680   8.215   2.177   5.659 -0.8251 -0.4332  0.8867
  756MOL0     C99681   8.170   2.320   5.717 -0.1419  0.7414 -1.0988
  756MOL0     C99682   8.147   2.429   5.616  0.2388  0.1312 -0.1462
  756MOL0     C99683   7.998   2.418   5.563 -0.4895  0.1727 -0.1096
  756MOL0     O99684   7.913   2.510   5.629  0.3415  0.2687 -0.0546
  756MOL0     C99685   7.775   2.494   5.628 -0.6550  0.0564  0.1337
  756MOL0     C99686   7.701   2.548   5.738 -0.0290 -0.3526 -0.2749
  756MOL0     C99687   7.562   2.529   5.739 -0.8572  0.2105 -0.2565
  756MOL0     C99688   7.494   2.476   5.629 -0.1815 -0.0288 -0.0078
  756MOL0     C99689   7.342   2.471   5.630 -0.4173 -0.3387 -0.4447
  756MOL0     O99690   7.285   2.451   5.751  0.3614  0.7785 -0.0136
  756MOL0     C99691   7.149   2.435   5.760  0.5321 -0.8727 -0.8005
  756MOL0     C99692   7.078   2.335   5.691  0.2618  0.0529  0.3664
  756MOL0     C99693   6.941   2.314   5.713 -0.0290  0.9658 -0.7307
  756MOL0     C99694   6.866   2.397   5.803  0.6526 -0.2226  0.7654
  756MOL0     O99695   6.734   2.371   5.826 -0.4186 -0.1862 -0.0994
  756MOL0     C99696   6.643   2.475   5.877 -0.6290  0.5825  1.0690
  756MOL0     C99697   6.634   2.481   6.028  0.2279  0.9055  0.2598
  756MOL0     C99698   6.550   2.596   6.085  0.1595  0.4488  0.6035
  756MOL0     C99699   6.397   2.591   6.053 -0.3146 -0.1224 -0.5090
  756MOL0     C99700   6.313   2.699   6.127  0.4895  0.1918  0.5771
  756MOL0     C99701   6.172   2.709   6.051  0.3785 -0.6933  0.2233
  756MOL0     C99702   6.182   2.772   5.917  0.2392  0.0448 -0.2302
  756MOL0     C99703   6.049   2.825   5.853  0.0912  0.4437 -0.4647
  756MOL0    Cl99704   6.089   2.948   5.734 -0.3496 -0.5185  0.2996
  756MOL0     C99705   6.941   2.498   5.864 -0.2116  0.0206  1.4293
  756MOL0     C99706   7.075   2.513   5.841 -1.1933  0.5041  0.2489
  756MOL0     O99707   7.280   2.476   5.529 -0.1178 -0.0106  0.4007
  756MOL0     C99708   7.564   2.422   5.521  0.7629  0.2570  0.9256
  756MOL0     C99709   7.701   2.428   5.518  0.2577  0.4413 -0.1001
  756MOL0     N99710   8.432   2.276   5.552  0.0759  0.0985  0.2341
  756MOL0     N99711   8.543   2.229   5.521 -0.5628  0.6270  0.3650
  756MOL0     C99712   9.565   1.471   5.584 -0.3371 -0.6412  0.3306
  756MOL0     C99713   9.699   1.472   5.600 -0.3517 -0.2784  0.1893
  756MOL0     C99714  10.121   1.649   5.582  0.7437 -0.5684 -0.0071
  756MOL0     C99715  10.183   1.775   5.603 -0.0658 -0.1234 -0.5545
  756MOL0     C99716  10.325   1.784   5.590  0.3459 -0.2373  0.3269
  756MOL0     C99717  10.402   1.675   5.563 -0.3452 -0.3411  0.8875
  756MOL0     O99718  10.543   1.680   5.540 -0.1986 -0.2438 -0.4445
  756MOL0     C99719  10.628   1.792   5.593  1.1002  0.2308 -0.5239
  756MOL0     C99720  10.751   1.731   5.646 -0.5809  0.2290  0.4805
  756MOL0     C99721  10.837   1.691   5.524  1.3196  0.5523 -0.1897
  756MOL0     C99722  10.957   1.613   5.565  0.3704  0.7039  0.1332
  756MOL0     C99723  11.012   1.539   5.449  0.0903  0.5507 -0.0075
  756MOL0     C99724  11.046   1.482   5.348  0.3370 -0.1585  1.2720
  756MOL0     C99725  10.336   1.555   5.552 -0.2209  1.0459  0.0567
  756MOL0     C99726  10.201   1.539   5.551  1.4085 -1.0291 -0.3678
  756MOL0     H99727   9.806   1.594   5.295  1.3794  1.0137  3.1547
  756MOL0     H99728   9.579   1.583   5.248  1.5456  2.2881 -0.4110
  756MOL0     H99729   9.387   1.712   5.360 -2.6373  0.0112 -2.0606
  756MOL0     H99730   9.323   1.697   5.526  1.5381  0.4392  0.5759
  756MOL0     H99731   9.141   1.557   5.376 -1.0086  0.2535  1.5547
  756MOL0     H99732   9.200   1.651   5.240 -0.4722 -2.9742 -0.3904
  756MOL0     H99733   9.145   1.865   5.356 -0.0366  0.2562  2.1209
  756MOL0     H99734   9.074   1.767   5.487 -0.7507 -0.4140  0.0948
  756MOL0     H99735   8.986   1.734   5.197  1.6375  1.3159 -0.2308
  756MOL0     H99736   8.932   1.643   5.339  0.6618  0.5368  1.1833
  756MOL0     H99737   8.859   1.903   5.225  0.8171  0.6937 -0.4621
  756MOL0     H99738   8.917   1.930   5.393 -0.9028  0.7778  0.1222
  756MOL0     H99739   8.765   1.780   5.483 -0.5398  0.8370  0.5267
  756MOL0     H99740   8.699   1.736   5.323  0.3081 -2.5436  2.2838
  756MOL0     H99741   8.652   2.003   5.326  1.5244 -0.0648 -1.0148
  756MOL0     H99742   8.548   1.898   5.416 -1.1859  2.5643 -0.6912
  756MOL0     H99743   8.768   2.079   5.536  1.0370 -0.1812 -2.3139
  756MOL0     H99744   8.698   1.944   5.621  1.1146  2.4944  1.6849
  756MOL0     H99745   8.414   1.958   5.640  0.1846  0.1110 -2.2566
  756MOL0     H99746   8.188   2.104   5.736 -1.1096 -0.1372  1.0691
  756MOL0     H99747   8.150   2.145   5.576  0.3301 -1.0780  0.2106
  756MOL0     H99748   8.244   2.347   5.794  0.8018  0.7641 -1.9905
  756MOL0     H99749   8.074   2.308   5.767  0.1414  0.1109 -0.6880
  756MOL0     H99750   8.164   2.530   5.654  0.0248  0.8378 -1.8551
  756MOL0     H99751   8.215   2.415   5.532  1.7956  0.8317  0.9367
  756MOL0     H99752   7.955   2.319   5.576  3.1416 -1.3419  1.7969
  756MOL0     H99753   7.998   2.441   5.456  0.9745 -0.1865 -0.2049
  756MOL0     H99754   7.757   2.593   5.819 -0.7467 -0.7401  0.4548
  756MOL0     H99755   7.502   2.554   5.826 -0.3574  1.3931 -0.2445
  756MOL0     H99756   7.129   2.276   5.615  1.1183  1.9422 -0.6194
  756MOL0     H99757   6.892   2.232   5.661 -0.9644  0.3272  1.0561
  756MOL0     H99758   6.546   2.463   5.827  0.1058 -0.4361 -0.1743
  756MOL0     H99759   6.676   2.571   5.837 -1.5133 -0.0148 -1.2811
  756MOL0     H99760   6.735   2.484   6.071 -0.4173  1.0394  1.8298
  756MOL0     H99761   6.591   2.382   6.048  0.6338  0.3126 -1.6060
  756MOL0     H99762   6.584   2.694   6.051 -1.2057  0.7168 -0.0526
  756MOL0     H99763   6.571   2.596   6.193  3.0062 -1.0973  0.1566
  756MOL0     H99764   6.385   2.616   5.947 -0.2024 -0.3444 -0.5740
  756MOL0     H99765   6.357   2.491   6.072  0.1111 -0.1130  0.5333
  756MOL0     H99766   6.358   2.798   6.134  0.7294  0.0523  0.9949
  756MOL0     H99767   6.280   2.657   6.222 -1.0779  0.1090  0.0334
  756MOL0     H99768   6.106   2.769   6.114 -0.0626 -1.0886  0.1465
  756MOL0     H99769   6.124   2.610   6.053  1.0979 -1.0787 -0.7295
  756MOL0     H99770   6.252   2.855   5.925 -1.0282  1.0173  1.6832
  756MOL0     H99771   6.214   2.692   5.849  0.3958 -0.0572 -0.0361
  756MOL0     H99772   5.989   2.865   5.935  2.9754 -1.4448  2.8712
  756MOL0     H99773   5.993   2.748   5.798 -0.4336  0.9590 -0.6607
  756MOL0     H99774   6.876   2.567   5.917 -2.1885 -1.5069  1.1207
  756MOL0     H99775   7.126   2.595   5.891  1.2057  0.5326 -2.0801
  756MOL0     H99776   7.516   2.374   5.437  1.1750 -0.7182  1.2227
  756MOL0     H99777   7.768   2.407   5.436  1.9334  2.5040  0.6218
  756MOL0     H99778   9.500   1.431   5.660  2.3625 -2.7501  1.6893
  756MOL0     H99779   9.746   1.440   5.692  3.2861  0.7599 -1.1247
  756MOL0     H99780  10.116   1.859   5.615 -0.2480 -0.1123 -1.5772
  756MOL0     H99781  10.367   1.882   5.609 -1.0139  0.3434  0.4984
  756MOL0     H99782  10.578   1.819   5.686  0.1923 -3.2601  0.1754
  756MOL0     H99783  10.646   1.879   5.529  1.6081  0.9943  0.6222
  756MOL0     H99784  10.801   1.803   5.713 -2.8406  3.5159 -1.0995
  756MOL0     H99785  10.722   1.641   5.701 -0.7878 -0.0608 -0.0976
  756MOL0     H99786  10.886   1.780   5.484  2.4080 -0.8105 -2.0279
  756MOL0     H99787  10.778   1.635   5.452  0.5386 -0.3188  1.0786
  756MOL0     H99788  11.035   1.669   5.617  0.1952  1.9808 -0.9547
  756MOL0     H99789  10.916   1.547   5.643 -3.2747  1.8498 -0.6269
  756MOL0     H99790  11.060   1.430   5.256  0.0710 -1.9673  2.1991
  756MOL0     H99791  10.399   1.467   5.540 -2.8170 -0.7109 -1.5379
  756MOL0     H99792  10.159   1.439   5.547 -2.3327  0.3468  0.3523
  757MOL0     O99793   2.450   1.299   0.563  0.2271 -0.1460  0.0719
  757MOL0     C99794   2.463   1.352   0.672  0.5983  0.2575 -0.2051
  757MOL0     O99795   2.356   1.399   0.754  0.7145 -0.1251 -0.2167
  757MOL0     C99796   2.218   1.391   0.727 -0.2743 -0.1498  0.2989
  757MOL0     C99797   2.131   1.491   0.789  0.6182  0.0376 -0.0695
  757MOL0     C99798   1.994   1.474   0.797  0.4789 -0.2781  0.9034
  757MOL0     C99799   1.934   1.365   0.725 -0.5949  0.0678 -0.3012
  757MOL0     O99800   1.796   1.364   0.711  0.1349 -0.1155  0.0758
  757MOL0     C99801   1.712   1.382   0.830 -0.4097 -0.2016 -0.2404
  757MOL0     C99802   1.625   1.499   0.806  0.2080 -1.1401  1.0169
  757MOL0     C99803   1.548   1.539   0.930 -0.1616 -0.6869  0.2080
  757MOL0     C99804   1.431   1.618   0.898  0.1158 -0.3184 -0.0717
  757MOL0     C99805   1.361   1.683   1.023  0.1443  0.6749 -0.1617
  757MOL0     C99806   1.243   1.768   0.979  0.3161  0.3326 -0.2089
  757MOL0     C99807   1.208   1.883   1.073  0.6038  0.9484  0.2851
  757MOL0     C99808   1.071   1.944   1.031 -0.2067 -0.1521  0.0033
  757MOL0     N99809   0.963   1.849   1.014  0.5966  0.1593  1.0527
  757MOL0     C99810   0.895   1.794   1.118  0.5161 -0.2451 -0.1313
  757MOL0     C99811   0.795   1.731   1.052 -0.0072 -1.1345 -0.2969
  757MOL0     C99812   0.676   1.657   1.105 -0.0710 -0.4010  0.3812
  757MOL0     C99813   0.681   1.511   1.068  0.3085  0.0361 -0.2542
  757MOL0     C99814   0.582   1.422   1.157  0.2271 -0.2295  0.1141
  757MOL0     C99815   0.433   1.456   1.141  0.2115  0.4233  0.1763
  757MOL0     O99816   0.355   1.373   1.232  0.0189 -0.5190  0.1733
  757MOL0     C99817   0.212   1.383   1.226  0.1943  0.8739  0.1162
  757MOL0     C99818   0.144   1.309   1.329  0.6861 -0.8991 -0.4941
  757MOL0     C99819   0.005   1.312   1.344 -0.2579  0.4187 -0.8808
  757MOL0     C99820  -0.067   1.376   1.241  0.0937 -0.3179 -0.6176
  757MOL0     C99821  -0.215   1.374   1.237  0.1341 -0.4861  0.6779
  757MOL0     O99822  -0.271   1.415   1.123  0.5448  0.5167 -0.9699
  757MOL0     C99823  -0.411   1.415   1.114 -0.6218  0.8298  0.2592
  757MOL0     C99824  -0.471   1.523   1.076  0.7340 -0.1629  0.4910
  757MOL0     C99825  -0.608   1.522   1.056  0.8007  0.0266  0.5513
  757MOL0     C99826  -0.686   1.412   1.055 -0.3531 -0.0585  0.0767
  757MOL0     O99827  -0.822   1.410   1.055 -0.7961  0.8152  0.0458
  757MOL0     C99828  -0.900   1.535   1.033 -0.2327 -0.0734  0.3909
  757MOL0     C99829  -1.046   1.509   1.082  0.9536 -0.1277 -0.0965
  757MOL0     C99830  -1.130   1.633   1.048  0.1017  0.0605  0.0033
  757MOL0     C99831  -1.273   1.621   1.106 -0.0689 -0.3172  0.6579
  757MOL0     C99832  -1.363   1.752   1.081  1.1546 -0.3663  0.0685
  757MOL0     C99833  -1.506   1.713   1.125 -0.2669  0.7685  0.1884
  757MOL0     C99834  -1.615   1.812   1.082 -0.0995 -0.4733  0.2240
  757MOL0     C99835  -1.649   1.792   0.933 -0.2158 -1.0023 -0.5051
  757MOL0    Cl99836  -1.763   1.654   0.912  0.5771  0.1544 -0.0691
  757MOL0     C99837  -0.620   1.290   1.089 -0.5260  0.5327  0.4478
  757MOL0     C99838  -0.478   1.291   1.116  0.1250  0.6303  0.8550
  757MOL0     O99839  -0.277   1.353   1.338 -0.5471  0.0672  0.3287
  757MOL0     C99840   0.000   1.445   1.137  0.9976  0.6792 -0.1697
  757MOL0     C99841   0.134   1.455   1.133 -0.1208 -0.1162 -0.3103
  757MOL0     N99842   0.825   1.722   0.915  0.0410 -0.8044  0.0263
  757MOL0     N99843   0.913   1.816   0.887  0.1552  0.0514 -0.1399
  757MOL0     C99844   2.019   1.274   0.654 -0.2205  0.3948  0.2083
  757MOL0     C99845   2.160   1.280   0.663 -1.3974 -0.0183 -0.0110
  757MOL0     C99846   2.600   1.368   0.734 -0.5703  0.0301  0.4655
  757MOL0     C99847   2.705   1.286   0.693 -0.2958  0.1823 -0.0202
  757MOL0     C99848   2.837   1.311   0.724 -0.0898 -0.6742 -0.0085
  757MOL0     C99849   2.865   1.410   0.819  0.1082 -0.2601 -0.2697
  757MOL0     O99850   3.000   1.431   0.839  0.6079 -0.3176 -0.1438
  757MOL0     C99851   3.037   1.489   0.962 -1.0587  0.1169  0.2533
  757MOL0     C99852   3.185   1.530   0.946 -0.5063 -0.1806 -0.4889
  757MOL0     C99853   3.296   1.424   0.943 -1.0188 -0.1346  0.4354
  757MOL0     C99854   3.259   1.294   1.014 -0.0513 -0.3271  0.5232
  757MOL0     C99855   3.259   1.331   1.154  0.8306  0.7719 -0.0441
  757MOL0     C99856   3.249   1.356   1.272  0.3736 -0.3317 -0.6197
  757MOL0     C99857   2.756   1.482   0.874 -0.4119 -0.5535 -0.1463
  757MOL0     C99858   2.626   1.468   0.827 -0.1726  0.1265  0.5176
  757MOL0     H99859   2.176   1.574   0.843  0.2099 -0.6072  1.2916
  757MOL0     H99860   1.940   1.551   0.851 -0.6451  0.6570 -1.3951
  757MOL0     H99861   1.760   1.382   0.928  0.6883  0.5091 -0.7569
  757MOL0     H99862   1.646   1.295   0.832  2.0696 -2.1938  2.0282
  757MOL0     H99863   1.556   1.472   0.726 -1.0455 -1.4205  2.1585
  757MOL0     H99864   1.689   1.583   0.778  0.0468 -0.4914  2.5372
  757MOL0     H99865   1.611   1.596   0.998 -0.5670 -1.0254  0.8787
  757MOL0     H99866   1.519   1.450   0.986 -1.0773  0.5652  1.7975
  757MOL0     H99867   1.463   1.697   0.829  1.8147 -1.8923 -1.1612
  757MOL0     H99868   1.356   1.569   0.835 -0.6331  1.7785 -0.9150
  757MOL0     H99869   1.433   1.746   1.075 -0.0887  0.2532  0.6883
  757MOL0     H99870   1.330   1.608   1.096 -1.1828  2.2962  1.0264
  757MOL0     H99871   1.160   1.700   0.957 -0.5771  1.9499 -2.2555
  757MOL0     H99872   1.257   1.826   0.888 -1.7920  1.1415 -0.0704
  757MOL0     H99873   1.201   1.858   1.179  0.1213  0.9984  0.2658
  757MOL0     H99874   1.283   1.958   1.048 -2.0473  2.5933 -3.8842
  757MOL0     H99875   1.085   2.014   0.949 -0.0410  2.1765  1.8817
  757MOL0     H99876   1.029   2.008   1.110  1.2654 -0.2506  0.9073
  757MOL0     H99877   0.907   1.818   1.223 -0.9175  1.7737 -0.3884
  757MOL0     H99878   0.579   1.697   1.074 -0.7953 -2.8623 -0.7649
  757MOL0     H99879   0.692   1.666   1.212  2.6967  3.4911 -0.1612
  757MOL0     H99880   0.783   1.485   1.097  0.6242  2.9873  1.7725
  757MOL0     H99881   0.665   1.499   0.960 -0.1401 -1.2058 -0.0630
  757MOL0     H99882   0.591   1.317   1.127  2.4505 -1.0281  3.0785
  757MOL0     H99883   0.597   1.414   1.265 -2.5848  1.5248  0.7216
  757MOL0     H99884   0.407   1.423   1.040  0.6743 -2.9120  0.9936
  757MOL0     H99885   0.412   1.560   1.164 -1.2698 -0.0212  0.9688
  757MOL0     H99886   0.205   1.246   1.393  1.1074  0.1588  0.1917
  757MOL0     H99887  -0.041   1.263   1.430 -1.3534  0.1786 -1.5843
  757MOL0     H99888  -0.413   1.614   1.071 -3.0917  2.4656 -1.3937
  757MOL0     H99889  -0.655   1.618   1.035  1.7121  0.0476 -1.6299
  757MOL0     H99890  -0.907   1.561   0.926 -0.7386  1.4119  0.7638
  757MOL0     H99891  -0.858   1.625   1.078 -2.9165  0.8337  1.2581
  757MOL0     H99892  -1.028   1.508   1.190 -0.0115 -3.3231  0.1213
  757MOL0     H99893  -1.081   1.412   1.046  1.6823  0.9604 -4.1760
  757MOL0     H99894  -1.143   1.655   0.941 -0.4253  0.3068  0.1153
  757MOL0     H99895  -1.083   1.726   1.081 -0.7491  1.0352 -1.4294
  757MOL0     H99896  -1.322   1.535   1.059 -1.0423  1.0395 -0.9375
  757MOL0     H99897  -1.266   1.607   1.214  0.5350  0.6526  0.7612
  757MOL0     H99898  -1.378   1.775   0.975 -3.3477  2.0369  0.9852
  757MOL0     H99899  -1.325   1.843   1.128  2.5259 -1.1016  0.4174
  757MOL0     H99900  -1.504   1.711   1.234 -1.3058  2.9347  0.2998
  757MOL0     H99901  -1.539   1.617   1.084  0.3764  0.7967 -0.4112
  757MOL0     H99902  -1.701   1.797   1.149 -2.5674  1.1572 -2.3484
  757MOL0     H99903  -1.592   1.916   1.106  1.4605 -0.3464 -1.6627
  757MOL0     H99904  -1.564   1.767   0.869  0.3223  2.5156 -1.3794
  757MOL0     H99905  -1.700   1.879   0.890  2.6938  0.3264 -1.5529
  757MOL0     H99906  -0.668   1.193   1.098 -0.9210  0.6783 -0.0398
  757MOL0     H99907  -0.425   1.200   1.140  1.6271  0.6881 -1.8761
  757MOL0     H99908  -0.064   1.479   1.056  0.4242  1.3627  0.5488
  757MOL0     H99909   0.189   1.507   1.055  0.7989  1.7927  1.5176
  757MOL0     H99910   1.985   1.193   0.590  2.8108 -1.2062  0.4297
  757MOL0     H99911   2.220   1.201   0.620  0.7864  1.4686  0.1332
  757MOL0     H99912   2.687   1.216   0.612 -2.0126  1.4145 -0.7778
  757MOL0     H99913   2.915   1.259   0.669  1.7653  2.7763 -0.9250
  757MOL0     H99914   3.018   1.429   1.051  1.0195 -0.3686  0.4087
  757MOL0     H99915   2.985   1.584   0.975  1.0144  1.1329  1.5103
  757MOL0     H99916   3.192   1.595   0.858  0.0082 -0.5142 -0.7008
  757MOL0     H99917   3.209   1.592   1.033  1.3610 -1.6381  0.0909
  757MOL0     H99918   3.388   1.467   0.983  1.1853 -1.9291 -2.2609
  757MOL0     H99919   3.329   1.408   0.840 -2.3900  1.9791 -0.3993
  757MOL0     H99920   3.160   1.258   0.984  0.1585  0.6862 -1.5354
  757MOL0     H99921   3.326   1.213   0.984 -0.2378 -0.9204  1.6699
  757MOL0     H99922   3.233   1.391   1.372  1.3407 -1.3401 -0.0891
  757MOL0     H99923   2.777   1.561   0.945 -0.1528 -1.8150  1.2319
  757MOL0     H99924   2.542   1.529   0.859 -0.3060  0.9345 -1.2327
  758MOL0     O99925   7.804   2.994   1.567 -0.7384  0.7021 -0.8702
  758MOL0     C99926   7.865   3.075   1.636  0.4394  0.3209  0.1640
  758MOL0     O99927   7.810   3.192   1.689 -0.3737 -0.5016 -0.8439
  758MOL0     C99928   7.673   3.220   1.665  0.5606 -0.4627 -0.5692
  758MOL0     C99929   7.624   3.273   1.544  0.4879  0.0966 -0.5273
  758MOL0     C99930   7.483   3.301   1.537 -0.4936 -0.3766  0.6417
  758MOL0     C99931   7.408   3.287   1.646  0.6077 -0.2832 -0.2323
  758MOL0     O99932   7.274   3.326   1.645  0.2699 -0.6176  0.4959
  758MOL0     C99933   7.242   3.440   1.728 -0.3128  0.2749 -0.7223
  758MOL0     C99934   7.152   3.545   1.655  0.2491  0.1095  0.1342
  758MOL0     C99935   7.009   3.505   1.664 -0.2163 -0.5308  0.3562
  758MOL0     C99936   6.919   3.603   1.589  0.0460 -0.5681 -0.3865
  758MOL0     C99937   6.778   3.545   1.604 -0.0354 -0.9083  0.5272
  758MOL0     C99938   6.666   3.642   1.575 -0.4627  0.4846 -0.0085
  758MOL0     C99939   6.531   3.572   1.579  1.2361 -0.2369 -0.4111
  758MOL0     C99940   6.415   3.671   1.562  0.2558  1.0847  0.0977
  758MOL0     N99941   6.398   3.735   1.433 -0.3611 -0.2639  0.1294
  758MOL0     C99942   6.275   3.752   1.371 -0.6673  0.1637 -0.2084
  758MOL0     C99943   6.305   3.841   1.269  0.8859  0.3060 -0.4935
  758MOL0     C99944   6.197   3.903   1.179  0.1104  0.1819  0.0384
  758MOL0     C99945   6.084   3.962   1.260  0.0928 -0.0546  0.5852
  758MOL0     C99946   6.022   4.075   1.183  0.5092 -0.3393  0.8343
  758MOL0     C99947   5.883   4.088   1.239 -0.2608 -0.2701 -0.1871
  758MOL0     O99948   5.832   4.217   1.202 -0.7087  0.3906 -0.2277
  758MOL0     C99949   5.699   4.231   1.193  0.0893 -0.0306  0.3375
  758MOL0     C99950   5.647   4.325   1.107  0.6436 -0.6409  1.0459
  758MOL0     C99951   5.506   4.337   1.092  0.4690 -0.2027 -0.0413
  758MOL0     C99952   5.415   4.270   1.175 -1.0622 -0.2754  0.2761
  758MOL0     C99953   5.274   4.282   1.151  0.1818  0.7225  0.4643
  758MOL0     O99954   5.230   4.388   1.072  0.1907 -0.3529  0.5148
  758MOL0     C99955   5.094   4.392   1.051  0.0446  0.4825  0.3436
  758MOL0     C99956   5.010   4.464   1.139  0.9395 -0.1372 -0.1200
  758MOL0     C99957   4.871   4.468   1.121  0.0127 -0.0772  0.4449
  758MOL0     C99958   4.807   4.378   1.026 -0.5829 -0.4347  0.3209
  758MOL0     O99959   4.670   4.370   1.014 -0.2108  0.5894  0.4864
  758MOL0     C99960   4.622   4.289   0.905 -0.3551 -0.0473  0.1431
  758MOL0     C99961   4.475   4.308   0.875  0.2137  0.7294  0.1273
  758MOL0     C99962   4.387   4.310   0.997 -0.0989  0.1894 -0.3594
  758MOL0     C99963   4.248   4.363   0.972  0.7113 -0.0962 -0.5167
  758MOL0     C99964   4.152   4.372   1.089  0.6447 -0.1380 -0.3340
  758MOL0     C99965   4.124   4.231   1.146  0.3682  0.1891  0.1264
  758MOL0     C99966   4.208   4.223   1.274  0.1470  0.1453  0.1574
  758MOL0     C99967   4.226   4.078   1.326  0.6718  0.0031  0.2930
  758MOL0    Cl99968   4.321   3.971   1.212  0.1326  0.3237  0.1873
  758MOL0     C99969   4.897   4.312   0.940  0.8354 -0.6911 -0.6631
  758MOL0     C99970   5.035   4.318   0.956 -0.1223  0.1427 -0.1616
  758MOL0     O99971   5.203   4.188   1.196 -0.5502 -0.9896  0.0807
  758MOL0     C99972   5.473   4.176   1.264 -0.2562  0.2058 -0.7796
  758MOL0     C99973   5.610   4.161   1.274  0.7490  0.2404 -0.4193
  758MOL0     N99974   6.429   3.900   1.290  0.9408 -0.8407 -0.6134
  758MOL0     N99975   6.481   3.829   1.389 -0.0976 -0.2487 -0.5952
  758MOL0     C99976   7.461   3.238   1.764 -0.4802 -0.5344  0.4576
  758MOL0     C99977   7.587   3.196   1.772 -0.7711  0.4351  0.4814
  758MOL0     C99978   8.008   3.067   1.627  0.1763  0.2874  0.6118
  758MOL0     C99979   8.093   3.164   1.675 -0.2311  0.3053 -0.7201
  758MOL0     C99980   8.239   3.146   1.669 -0.5555  0.7980 -0.2405
  758MOL0     C99981   8.293   3.029   1.607  0.3089  0.1620 -0.8508
  758MOL0     O99982   8.428   2.991   1.603  0.0694  0.0813  0.3814
  758MOL0     C99983   8.529   3.097   1.588  0.8638 -0.2959 -0.2639
  758MOL0     C99984   8.607   3.078   1.463 -1.0212  0.3319 -0.2364
  758MOL0     C99985   8.708   2.965   1.462  0.2103 -0.6059 -0.1611
  758MOL0     C99986   8.829   2.991   1.560  0.7009  0.3150  0.0352
  758MOL0     C99987   8.954   2.944   1.500  0.8783 -0.1619 -0.3102
  758MOL0     C99988   9.059   2.901   1.471  0.4865  0.9590  0.1318
  758MOL0     C99989   8.206   2.929   1.563 -0.4754  0.0238 -0.5029
  758MOL0     C99990   8.065   2.945   1.574 -0.4059 -0.4084  0.3058
  758MOL0     H99991   7.701   3.280   1.468  1.1268  0.4325  0.1386
  758MOL0     H99992   7.438   3.357   1.455  0.5433  0.4416  0.6022
  758MOL0     H99993   7.329   3.502   1.753 -2.5586  2.3324  2.7096
  758MOL0     H99994   7.201   3.411   1.825 -0.0108  1.1052 -0.3339
  758MOL0     H99995   7.176   3.526   1.550 -2.5327 -3.1763 -0.0955
  758MOL0     H99996   7.168   3.651   1.678  0.1118 -0.0122  0.7969
  758MOL0     H99997   6.972   3.513   1.767 -1.9483 -0.9237 -0.1895
  758MOL0     H99998   7.000   3.404   1.623 -0.3030 -0.6087  0.5671
  758MOL0     H99999   6.922   3.700   1.638  0.0735 -0.5864 -0.3519
  758MOL0     H    0   6.944   3.622   1.484 -0.7807 -0.9164 -0.6599
  758MOL0     H    1   6.762   3.506   1.705 -0.8446 -0.2760  0.6624
  758MOL0     H    2   6.775   3.462   1.533  1.8207  0.4918 -1.3255
  758MOL0     H    3   6.689   3.696   1.482  0.3521  0.7954  0.3648
  758MOL0     H    4   6.673   3.710   1.660  1.7592 -1.6414  1.6591
  758MOL0     H    5   6.529   3.500   1.496  1.0858 -1.9448  1.0107
  758MOL0     H    6   6.521   3.515   1.672  3.0319  0.6896  0.3927
  758MOL0     H    7   6.416   3.746   1.641  3.7329  4.5935 -2.8873
  758MOL0     H    8   6.329   3.608   1.586  2.4218 -1.6424  1.3242
  758MOL0     H    9   6.185   3.693   1.383  0.4958 -1.3209  1.6183
  758MOL0     H   10   6.175   3.820   1.111  0.7351  0.8778 -1.0578
  758MOL0     H   11   6.235   3.976   1.106 -0.2909  1.1159  0.7493
  758MOL0     H   12   6.128   4.011   1.347 -0.6370  2.2553 -0.2921
  758MOL0     H   13   6.016   3.882   1.291  0.5955 -0.6645  0.1350
  758MOL0     H   14   6.076   4.170   1.195 -0.5239  0.6027 -1.3949
  758MOL0     H   15   6.003   4.059   1.076 -0.6575 -2.8100  1.3569
  758MOL0     H   16   5.874   4.066   1.345  0.3452  0.9867  0.1403
  758MOL0     H   17   5.815   4.019   1.188 -1.7850  1.8145 -1.1564
  758MOL0     H   18   5.718   4.377   1.044 -1.9820  1.0179 -0.7743
  758MOL0     H   19   5.472   4.413   1.022  1.8555  0.0432 -0.4783
  758MOL0     H   20   5.062   4.533   1.204  1.8919  2.8702 -3.7108
  758MOL0     H   21   4.812   4.537   1.181  2.3396  1.1177  1.5210
  758MOL0     H   22   4.650   4.185   0.924  0.3438 -0.1195 -1.1537
  758MOL0     H   23   4.671   4.311   0.809  0.3850  1.3359  0.8061
  758MOL0     H   24   4.446   4.230   0.803  0.9500 -0.7479  1.3714
  758MOL0     H   25   4.462   4.404   0.825  3.8810  1.5447  0.4357
  758MOL0     H   26   4.418   4.383   1.073  2.1491 -0.2995 -0.7395
  758MOL0     H   27   4.388   4.211   1.045  0.7231  0.3340 -0.0487
  758MOL0     H   28   4.246   4.464   0.930 -3.1589 -0.3658 -1.3638
  758MOL0     H   29   4.197   4.298   0.900  0.1996 -0.7749  0.4323
  758MOL0     H   30   4.058   4.418   1.058  0.5074 -0.7129 -0.7993
  758MOL0     H   31   4.196   4.434   1.167  0.1541  0.0664 -0.2119
  758MOL0     H   32   4.151   4.158   1.070  0.4301  0.1013  0.2323
  758MOL0     H   33   4.021   4.207   1.175  0.0900  1.0432 -0.1225
  758MOL0     H   34   4.306   4.270   1.262 -0.4674  1.5871  0.6407
  758MOL0     H   35   4.156   4.289   1.343 -1.6224  0.6678 -1.5858
  758MOL0     H   36   4.122   4.045   1.332  0.1849  1.3224 -0.4780
  758MOL0     H   37   4.276   4.075   1.423  0.2523 -1.1873  0.4941
  758MOL0     H   38   4.853   4.257   0.858 -1.0466  0.7720 -0.7160
  758MOL0     H   39   5.089   4.257   0.884  4.0276 -1.2763  3.6734
  758MOL0     H   40   5.398   4.123   1.322 -0.6331  1.2455 -0.2873
  758MOL0     H   41   5.652   4.094   1.348 -0.3525  0.9631  0.8985
  758MOL0     H   42   7.395   3.240   1.850 -1.1832 -0.1423 -0.0801
  758MOL0     H   43   7.620   3.167   1.872 -0.5775 -2.9176 -0.4496
  758MOL0     H   44   8.053   3.253   1.723 -2.1918 -0.0436 -1.6110
  758MOL0     H   45   8.308   3.215   1.716  1.1091 -1.0499  0.1529
  758MOL0     H   46   8.595   3.105   1.675 -1.2141  4.4352  1.2710
  758MOL0     H   47   8.485   3.198   1.581  1.8036  0.1438  0.0348
  758MOL0     H   48   8.534   3.065   1.382 -2.1170 -0.1798  0.8044
  758MOL0     H   49   8.670   3.166   1.450 -0.6243 -0.0734 -1.1408
  758MOL0     H   50   8.746   2.952   1.360 -2.1034  1.4967 -1.3788
  758MOL0     H   51   8.667   2.870   1.496  1.6377 -1.8758 -1.8137
  758MOL0     H   52   8.839   3.097   1.587  2.7105  0.4254 -0.9881
  758MOL0     H   53   8.813   2.936   1.653 -0.1544 -0.2676 -0.4493
  758MOL0     H   54   9.154   2.859   1.445  0.1274  0.5573 -0.5426
  758MOL0     H   55   8.258   2.834   1.554 -0.3822 -0.1449  1.3328
  758MOL0     H   56   8.007   2.858   1.546 -0.1326  0.1885 -2.2928
  759MOL0     O   57   1.755   0.457   7.998  0.4579  0.1869 -0.3452
  759MOL0     C   58   1.771   0.370   8.083  0.4415 -0.0622 -0.7565
  759MOL0     O   59   1.677   0.280   8.117  0.6236  0.1676 -0.0641
  759MOL0     C   60   1.551   0.295   8.066  0.4340 -0.3687 -0.6559
  759MOL0     C   61   1.519   0.260   7.936 -0.0754  0.7394 -0.7674
  759MOL0     C   62   1.385   0.261   7.900  0.6735  0.3179  0.4081
  759MOL0     C   63   1.281   0.292   7.984  0.2412  0.6027 -0.3499
  759MOL0     O   64   1.155   0.286   7.928 -0.1131 -0.6301 -0.7565
  759MOL0     C   65   1.053   0.234   8.008 -0.0253 -0.4976  0.1553
  759MOL0     C   66   0.915   0.225   7.934 -0.5275 -0.3588  0.1178
  759MOL0     C   67   0.808   0.150   8.009 -0.3863  0.8311  0.3982
  759MOL0     C   68   0.787   0.193   8.159 -0.4852 -1.2308 -0.1850
  759MOL0     C   69   0.682   0.117   8.242  0.2978  0.3315  0.1973
  759MOL0     C   70   0.533   0.163   8.209 -0.2975 -0.2387 -0.2764
  759MOL0     C   71   0.422   0.109   8.311 -0.3244  0.0868 -0.1721
  759MOL0     C   72   0.438   0.150   8.461 -0.0604 -0.1813  0.4772
  759MOL0     N   73   0.320   0.112   8.538 -0.2701 -1.5761 -0.1890
  759MOL0     C   74   0.280  -0.019   8.527 -0.4544  0.3946 -0.1139
  759MOL0     C   75   0.156  -0.018   8.585  0.6565 -1.0072  1.3251
  759MOL0     C   76   0.059  -0.133   8.615  0.5163 -0.4615 -0.6623
  759MOL0     C   77   0.077  -0.186   8.756  0.5993 -0.0994 -0.0001
  759MOL0     C   78  -0.012  -0.104   8.850 -0.2812 -0.1479 -0.2733
  759MOL0     C   79   0.027  -0.133   8.999  0.9337 -0.2695  0.6549
  759MOL0     O   80  -0.028  -0.265   9.036  0.2046 -0.8902  0.0717
  759MOL0     C   81  -0.156  -0.275   9.077  0.6672  0.1936 -0.6275
  759MOL0     C   82  -0.204  -0.407   9.067  0.5514  0.3960  0.0517
  759MOL0     C   83  -0.325  -0.437   9.108 -0.0204  0.3685  0.1136
  759MOL0     C   84  -0.410  -0.338   9.166  0.2628  1.4050  0.0949
  759MOL0     C   85  -0.550  -0.364   9.204 -0.6633 -0.3156 -0.6776
  759MOL0     O   86  -0.602  -0.492   9.197  0.1854 -0.2326 -0.7610
  759MOL0     C   87  -0.728  -0.514   9.238  0.7940  0.7869  0.0916
  759MOL0     C   88  -0.838  -0.515   9.147 -0.5554 -0.0583 -0.9408
  759MOL0     C   89  -0.970  -0.555   9.192  0.2929 -0.0890 -0.4787
  759MOL0     C   90  -0.997  -0.597   9.324  0.4595 -0.7859  0.0775
  759MOL0     O   91  -1.123  -0.616   9.386 -0.0923  0.4091  0.5135
  759MOL0     C   92  -1.236  -0.619   9.296  1.0064  0.2192  0.1569
  759MOL0     C   93  -1.374  -0.648   9.366 -0.0169 -0.1614 -0.5933
  759MOL0     C   94  -1.491  -0.671   9.267  0.2928 -0.3197  0.1099
  759MOL0     C   95  -1.631  -0.628   9.329  0.1124  0.3748  0.1266
  759MOL0     C   96  -1.750  -0.645   9.237 -0.2719  0.2514 -0.0468
  759MOL0     C   97  -1.888  -0.609   9.293  0.3208 -0.2066 -0.6401
  759MOL0     C   98  -1.966  -0.717   9.358  0.8803 -0.8619 -0.2999
  759MOL0     C   99  -2.103  -0.656   9.384  0.4657  0.4098  0.3443
  759MOL0    Cl  100  -2.167  -0.537   9.266  0.2759  0.1327  0.2544
  759MOL0     C  101  -0.892  -0.583   9.423  0.1882 -0.1274  0.8687
  759MOL0     C  102  -0.764  -0.543   9.374 -0.6082 -0.0830  0.3692
  759MOL0     O  103  -0.613  -0.262   9.238 -0.0481  0.8339 -0.0637
  759MOL0     C  104  -0.365  -0.205   9.167 -0.3521  0.7882 -0.1338
  759MOL0     C  105  -0.235  -0.171   9.125 -0.3601  0.5213  0.6505
  759MOL0     N  106   0.132   0.112   8.633  1.0861 -0.0547  0.9055
  759MOL0     N  107   0.226   0.194   8.586  0.4642 -0.2818  0.1160
  759MOL0     C  108   1.314   0.321   8.118  0.0115 -0.0392 -0.1008
  759MOL0     C  109   1.447   0.330   8.158 -0.3570 -0.1967  0.4408
  759MOL0     C  110   1.899   0.376   8.161  0.4334  0.5287 -0.4230
  759MOL0     C  111   1.945   0.253   8.211 -0.1383  0.3248  0.0135
  759MOL0     C  112   2.069   0.240   8.282  0.1231  0.2937 -0.1004
  759MOL0     C  113   2.149   0.362   8.296 -0.0356  0.0539  0.9334
  759MOL0     O  114   2.267   0.364   8.360 -0.1987 -0.7395  0.2901
  759MOL0     C  115   2.337   0.235   8.390  0.0430 -0.1090  0.3292
  759MOL0     C  116   2.468   0.280   8.449  0.1245 -0.0726 -0.3128
  759MOL0     C  117   2.561   0.337   8.337 -0.0696 -0.3067 -1.2485
  759MOL0     C  118   2.676   0.426   8.386  0.2469 -0.0536 -0.2414
  759MOL0     C  119   2.764   0.360   8.480 -0.2073 -0.0461  0.2238
  759MOL0     C  120   2.851   0.302   8.545 -0.0675 -0.3918  0.4862
  759MOL0     C  121   2.097   0.489   8.252  0.2418  1.1439 -0.8225
  759MOL0     C  122   1.974   0.498   8.183 -0.2580  0.3001  0.4140
  759MOL0     H  123   1.593   0.224   7.866 -0.6113  0.3023 -1.1136
  759MOL0     H  124   1.368   0.236   7.795  1.7139  5.6956 -1.3714
  759MOL0     H  125   1.043   0.305   8.091  1.1227 -1.1877  0.9089
  759MOL0     H  126   1.063   0.131   8.044 -1.9681 -0.0977  2.0743
  759MOL0     H  127   0.927   0.172   7.840  0.5327 -2.8536  1.5570
  759MOL0     H  128   0.877   0.326   7.913 -0.5064 -0.5000 -0.6119
  759MOL0     H  129   0.838   0.045   8.002 -1.4700  0.5994 -1.6450
  759MOL0     H  130   0.708   0.165   7.966 -1.4305  2.0302  3.0330
  759MOL0     H  131   0.881   0.186   8.215 -0.5533  1.3331  0.3568
  759MOL0     H  132   0.760   0.299   8.151  1.3187 -0.8948 -4.8385
  759MOL0     H  133   0.689   0.143   8.348 -0.4145 -0.9930  0.6028
  759MOL0     H  134   0.696   0.009   8.227  0.9923  0.7104 -2.2638
  759MOL0     H  135   0.503   0.147   8.105 -2.5294  3.3931 -0.3740
  759MOL0     H  136   0.533   0.272   8.215 -1.3276 -0.2206 -0.4596
  759MOL0     H  137   0.325   0.148   8.280 -0.5552 -0.7952 -0.5892
  759MOL0     H  138   0.409   0.001   8.302 -0.1187  0.1798 -1.9692
  759MOL0     H  139   0.450   0.258   8.462 -1.0805 -0.0443 -0.4912
  759MOL0     H  140   0.526   0.098   8.501  0.5999 -0.4592 -1.2423
  759MOL0     H  141   0.338  -0.101   8.486  1.6612  0.4376  2.4966
  759MOL0     H  142   0.076  -0.223   8.557  2.5286 -1.5738  1.4740
  759MOL0     H  143  -0.041  -0.090   8.610  1.7581  2.8485  0.1953
  759MOL0     H  144   0.180  -0.179   8.793  0.4572  0.9367  0.2293
  759MOL0     H  145   0.043  -0.290   8.749  1.6158 -0.4636  0.1779
  759MOL0     H  146   0.018  -0.002   8.827  0.4065  0.0921  1.4859
  759MOL0     H  147  -0.116  -0.126   8.828 -0.3192 -0.7916  0.4921
  759MOL0     H  148  -0.011  -0.049   9.057  1.0769  1.2226 -1.3171
  759MOL0     H  149   0.136  -0.135   9.007  0.9871 -1.1011 -0.0643
  759MOL0     H  150  -0.132  -0.487   9.049 -0.7479 -1.1217  1.2541
  759MOL0     H  151  -0.359  -0.540   9.099  0.4824  0.2658 -0.8157
  759MOL0     H  152  -0.819  -0.490   9.043 -1.3753  2.4437 -0.5731
  759MOL0     H  153  -1.051  -0.552   9.119 -0.0739 -0.6967 -0.1067
  759MOL0     H  154  -1.214  -0.697   9.224  0.4726  1.2112 -1.1192
  759MOL0     H  155  -1.250  -0.524   9.243 -0.9046 -0.9587 -1.5630
  759MOL0     H  156  -1.403  -0.562   9.427 -2.6337 -0.3819 -1.3625
  759MOL0     H  157  -1.364  -0.730   9.437  0.2527  0.4971  0.1346
  759MOL0     H  158  -1.500  -0.775   9.234 -0.3635 -0.8004  1.7266
  759MOL0     H  159  -1.488  -0.604   9.180 -2.2865  1.2537  1.1221
  759MOL0     H  160  -1.650  -0.670   9.429 -1.0045  4.9405  2.1112
  759MOL0     H  161  -1.624  -0.522   9.357  1.2644  0.1376  0.8215
  759MOL0     H  162  -1.753  -0.748   9.201  1.5632  0.8155 -2.0236
  759MOL0     H  163  -1.739  -0.580   9.150  4.6723 -1.3540 -0.9215
  759MOL0     H  164  -1.941  -0.587   9.200 -2.7235 -0.4746  0.8950
  759MOL0     H  165  -1.880  -0.524   9.362 -0.0911  0.8364 -1.8573
  759MOL0     H  166  -1.975  -0.802   9.291  0.0839  0.4174 -1.8867
  759MOL0     H  167  -1.925  -0.748   9.454  2.1199 -0.7475 -0.7800
  759MOL0     H  168  -2.110  -0.609   9.483 -1.2918 -0.5971  0.7483
  759MOL0     H  169  -2.180  -0.735   9.386 -1.0403  1.7585 -1.1466
  759MOL0     H  170  -0.907  -0.621   9.523  0.4962  0.5207  1.1683
  759MOL0     H  171  -0.686  -0.520   9.445 -1.0708 -1.1282  1.2459
  759MOL0     H  172  -0.429  -0.122   9.199  1.1357  1.8408  0.2363
  759MOL0     H  173  -0.193  -0.071   9.121  0.0302  0.3155 -1.0686
  759MOL0     H  174   1.237   0.342   8.192  0.6999 -0.7957  0.8492
  759MOL0     H  175   1.468   0.360   8.260 -2.0034  0.9141  0.4970
  759MOL0     H  176   1.879   0.167   8.204 -3.2630  2.6219 -1.0688
  759MOL0     H  177   2.104   0.145   8.323 -1.9306 -0.3200  0.3679
  759MOL0     H  178   2.356   0.190   8.292 -0.5705  3.6437 -1.7428
  759MOL0     H  179   2.274   0.173   8.454 -2.0698  1.9091  0.3410
  759MOL0     H  180   2.446   0.345   8.534  1.5421 -1.8974  1.5480
  759MOL0     H  181   2.515   0.196   8.501  2.9133  0.2358 -2.1190
  759MOL0     H  182   2.497   0.392   8.267  0.8319  2.3613 -0.0794
  759MOL0     H  183   2.598   0.247   8.287  1.2117 -1.3307  1.3860
  759MOL0     H  184   2.735   0.457   8.299  4.5642 -3.4438  1.1079
  759MOL0     H  185   2.624   0.510   8.433  2.4450  0.1714  1.9594
  759MOL0     H  186   2.933   0.252   8.592  0.4726  0.6822  0.7140
  759MOL0     H  187   2.158   0.576   8.272  1.1731  0.7186 -1.7095
  759MOL0     H  188   1.939   0.596   8.150 -0.5934 -0.2917 -1.0628
  760MOL0     O  189   1.198   3.969  10.097  0.2282  0.7418 -0.2172
  760MOL0     C  190   1.257   3.883  10.163  0.1392 -0.2521  0.7104
  760MOL0     O  191   1.208   3.758  10.198  0.0722  0.8618 -0.1381
  760MOL0     C  192   1.077   3.721  10.168 -0.4951 -0.5568  0.2443
  760MOL0     C  193   1.042   3.595  10.112 -0.4911 -0.1375  0.3037
  760MOL0     C  194   0.903   3.568  10.091 -0.8552 -0.8905 -0.0770
  760MOL0     C  195   0.803   3.667  10.104  1.3056  0.0407 -0.0988
  760MOL0     O  196   0.678   3.649  10.056  0.5619  0.3804  0.5640
  760MOL0     C  197   0.641   3.521  10.002  0.3552 -0.6861 -0.8905
  760MOL0     C  198   0.500   3.538   9.944 -0.4792 -0.6524 -0.1693
  760MOL0     C  199   0.433   3.413   9.886 -0.2134 -0.8071  0.2875
  760MOL0     C  200   0.298   3.440   9.823 -0.7157 -0.3923  0.4073
  760MOL0     C  201   0.235   3.298   9.792  1.1940 -0.0032  0.5306
  760MOL0     C  202   0.088   3.307   9.740 -0.2180 -0.4179  0.1929
  760MOL0     C  203   0.061   3.387   9.613  0.4036  0.2163 -0.0682
  760MOL0     C  204  -0.034   3.320   9.513 -0.7018 -0.2140  0.3013
  760MOL0     N  205  -0.173   3.317   9.557  0.2526 -0.5944 -0.3086
  760MOL0     C  206  -0.237   3.233   9.645  0.0139 -0.1015 -0.2530
  760MOL0     C  207  -0.355   3.298   9.677 -0.8840  0.5848 -0.0916
  760MOL0     C  208  -0.462   3.271   9.784 -0.1598  1.3396 -0.9180
  760MOL0     C  209  -0.600   3.297   9.734 -0.6348  0.3875 -0.0809
  760MOL0     C  210  -0.643   3.202   9.619 -0.0437  0.0933 -0.0003
  760MOL0     C  211  -0.780   3.228   9.561  0.3466 -0.2696  0.2677
  760MOL0     O  212  -0.872   3.154   9.637 -0.3595 -0.0536 -0.2871
  760MOL0     C  213  -1.004   3.180   9.648  1.6782  0.0208  0.3294
  760MOL0     C  214  -1.081   3.075   9.685  0.1050  1.0379  0.5195
  760MOL0     C  215  -1.214   3.077   9.703  0.4453 -0.0214  0.8084
  760MOL0     C  216  -1.288   3.197   9.673 -1.0187  0.3223  0.2720
  760MOL0     C  217  -1.432   3.208   9.678 -0.1541 -0.5156  0.5150
  760MOL0     O  218  -1.486   3.331   9.641  0.3466  0.4554 -0.4067
  760MOL0     C  219  -1.619   3.353   9.646  0.0645 -1.0874 -0.5444
  760MOL0     C  220  -1.708   3.297   9.740 -0.2098 -0.2442  0.1952
  760MOL0     C  221  -1.845   3.314   9.723 -0.4893  0.2920 -0.0404
  760MOL0     C  222  -1.901   3.389   9.616 -1.2832  0.0060  0.6807
  760MOL0     O  223  -2.035   3.412   9.598  0.4370  0.4063  0.4026
  760MOL0     C  224  -2.126   3.318   9.655  0.3928 -0.0718  0.2004
  760MOL0     C  225  -2.259   3.325   9.576  0.5672 -0.1311  0.6911
  760MOL0     C  226  -2.242   3.268   9.434  0.1966  0.3366  0.0620
  760MOL0     C  227  -2.368   3.178   9.392 -0.7590  0.3794 -0.4394
  760MOL0     C  228  -2.505   3.243   9.391  0.6364 -0.2538 -0.1140
  760MOL0     C  229  -2.493   3.387   9.333 -0.0549 -0.4568  0.6825
  760MOL0     C  230  -2.624   3.435   9.254  0.3923 -0.5759 -0.7763
  760MOL0     C  231  -2.754   3.426   9.343  0.1695 -0.9571  0.1127
  760MOL0    Cl  232  -2.744   3.530   9.492  0.2032  0.4679  0.5687
  760MOL0     C  233  -1.808   3.463   9.541  0.3707 -0.3412  0.3938
  760MOL0     C  234  -1.665   3.434   9.551  0.1581 -0.4505  0.0252
  760MOL0     O  235  -1.489   3.108   9.705 -0.1199 -0.2843  0.4844
  760MOL0     C  236  -1.210   3.310   9.632 -0.5956 -0.7360  0.3611
  760MOL0     C  237  -1.069   3.305   9.627 -0.1773  0.2837 -0.7205
  760MOL0     N  238  -0.362   3.410   9.599 -0.0275 -0.1027  0.5472
  760MOL0     N  239  -0.257   3.417   9.529 -0.3742 -0.0113 -0.1562
  760MOL0     C  240   0.840   3.789  10.166  0.1057 -0.2257 -0.2613
  760MOL0     C  241   0.966   3.810  10.200  0.2746  0.6518 -0.2895
  760MOL0     C  242   1.398   3.910  10.198  0.5221 -0.1041  0.9610
  760MOL0     C  243   1.477   3.807  10.254  0.8787 -1.3108  0.1866
  760MOL0     C  244   1.614   3.829  10.277 -0.0080 -0.2400 -0.6028
  760MOL0     C  245   1.672   3.961  10.267 -0.9677  0.3972 -0.0054
  760MOL0     O  246   1.814   3.978  10.290 -0.5421  0.2210 -0.3561
  760MOL0     C  247   1.853   3.970  10.420  0.3091  0.0124 -0.7011
  760MOL0     C  248   1.997   4.010  10.433  0.1754 -0.0450  0.2042
  760MOL0     C  249   2.092   3.890  10.415  0.8583  0.1165 -0.1724
  760MOL0     C  250   2.242   3.914  10.432 -0.6331  1.3688  0.5247
  760MOL0     C  251   2.269   3.981  10.556 -0.7928  0.2676 -0.2210
  760MOL0     C  252   2.288   4.064  10.644 -0.5170  0.7808  0.1109
  760MOL0     C  253   1.588   4.060  10.207  0.2789  0.1777  0.1803
  760MOL0     C  254   1.459   4.037  10.175  0.1924  0.3011 -0.1895
  760MOL0     H  255   1.111   3.516  10.085  0.7287  0.5214  1.4053
  760MOL0     H  256   0.877   3.468  10.060  2.0599 -1.0507 -2.5073
  760MOL0     H  257   0.649   3.444  10.079  0.8100  1.9870  1.9628
  760MOL0     H  258   0.708   3.491   9.921  0.3744 -3.3630  0.0261
  760MOL0     H  259   0.489   3.621   9.873 -0.8772  0.8484  1.5505
  760MOL0     H  260   0.436   3.580  10.023  0.1477 -1.6216  0.8845
  760MOL0     H  261   0.441   3.332   9.959  2.1095 -0.0253  0.9889
  760MOL0     H  262   0.490   3.387   9.796  0.4015  1.8180 -0.1741
  760MOL0     H  263   0.225   3.498   9.881  1.1031  0.8691  1.5363
  760MOL0     H  264   0.303   3.505   9.735 -1.2369  2.0546  2.0787
  760MOL0     H  265   0.226   3.242   9.886  0.4621  1.9080  1.6763
  760MOL0     H  266   0.295   3.237   9.725  1.6036  1.3969 -0.4221
  760MOL0     H  267   0.028   3.365   9.810  0.9381  1.2373 -0.1204
  760MOL0     H  268   0.046   3.206   9.736  0.0081 -0.5121  0.1632
  760MOL0     H  269   0.026   3.487   9.639  2.1121  0.8543 -0.0807
  760MOL0     H  270   0.156   3.394   9.558  1.2057 -0.9808  1.0812
  760MOL0     H  271  -0.003   3.219   9.487 -0.0416  0.5004 -1.9168
  760MOL0     H  272  -0.035   3.379   9.421  1.6057  2.1222  1.6302
  760MOL0     H  273  -0.193   3.141   9.683  1.1243 -0.3537 -2.0277
  760MOL0     H  274  -0.450   3.328   9.877  2.0948  2.3667 -1.7653
  760MOL0     H  275  -0.456   3.165   9.810 -0.2843  2.2408  3.6154
  760MOL0     H  276  -0.590   3.399   9.694  2.3975  1.0088  1.8869
  760MOL0     H  277  -0.669   3.307   9.818 -1.1057  2.0325 -0.6123
  760MOL0     H  278  -0.567   3.219   9.542  0.1695  0.2657  0.2456
  760MOL0     H  279  -0.637   3.096   9.646  0.5493  0.2231  0.3998
  760MOL0     H  280  -0.787   3.206   9.454  1.0614 -0.3103  0.2255
  760MOL0     H  281  -0.790   3.336   9.563 -0.0237 -0.1576 -2.8502
  760MOL0     H  282  -1.037   2.976   9.690 -1.4874  0.3016  0.6339
  760MOL0     H  283  -1.263   2.984   9.728 -2.7631  1.9737  2.5538
  760MOL0     H  284  -1.663   3.245   9.824  2.2035 -1.4538 -1.7245
  760MOL0     H  285  -1.913   3.272   9.797  1.3576 -0.9793  1.0093
  760MOL0     H  286  -2.151   3.359   9.753 -0.5713  1.7520 -0.7512
  760MOL0     H  287  -2.099   3.212   9.662 -1.9422 -0.9846 -2.4543
  760MOL0     H  288  -2.295   3.428   9.571 -2.4236 -1.1295 -0.1006
  760MOL0     H  289  -2.335   3.267   9.629 -1.3267 -1.0913 -2.8123
  760MOL0     H  290  -2.158   3.199   9.437  1.3119  1.6801  1.3231
  760MOL0     H  291  -2.213   3.341   9.357  1.3621  1.7039  1.7245
  760MOL0     H  292  -2.353   3.135   9.293 -1.4609  0.5273 -0.6111
  760MOL0     H  293  -2.372   3.093   9.460  1.2170  0.5473 -0.0359
  760MOL0     H  294  -2.547   3.254   9.492  2.0278  1.5546  0.3297
  760MOL0     H  295  -2.575   3.175   9.341  0.2329  0.9091 -1.1577
  760MOL0     H  296  -2.405   3.401   9.270  0.3496  1.3961  1.5758
  760MOL0     H  297  -2.477   3.455   9.417 -1.1053 -2.8331  2.9548
  760MOL0     H  298  -2.604   3.532   9.207 -0.4222  0.9916  1.8583
  760MOL0     H  299  -2.654   3.373   9.170 -1.9821 -1.2180  0.4529
  760MOL0     H  300  -2.763   3.322   9.375 -2.8167 -1.2038 -1.1402
  760MOL0     H  301  -2.848   3.448   9.292  0.7727 -0.9204 -1.0095
  760MOL0     H  302  -1.850   3.529   9.465 -1.1196  1.8492  2.9535
  760MOL0     H  303  -1.593   3.483   9.486 -1.1540  1.4290 -0.1010
  760MOL0     H  304  -1.260   3.403   9.605  0.5498  0.1126  1.0670
  760MOL0     H  305  -1.005   3.384   9.589 -0.5222 -0.4398 -2.9657
  760MOL0     H  306   0.758   3.858  10.184  0.0898 -0.2616 -0.1921
  760MOL0     H  307   0.994   3.901  10.253  4.1829 -0.6136  0.1402
  760MOL0     H  308   1.445   3.704  10.266 -1.3335 -0.4450  2.4815
  760MOL0     H  309   1.678   3.751  10.318 -0.3331 -0.6414 -0.8463
  760MOL0     H  310   1.837   3.868  10.457  1.1289  0.6349  1.5902
  760MOL0     H  311   1.792   4.037  10.481  2.0501  3.0112 -2.0748
  760MOL0     H  312   2.027   4.085  10.359 -0.0772 -0.8044 -0.6922
  760MOL0     H  313   2.006   4.057  10.531 -0.4270 -2.2573  1.4009
  760MOL0     H  314   2.075   3.867  10.309 -0.9624  2.9258 -0.6084
  760MOL0     H  315   2.070   3.806  10.482 -0.3542  0.6137  0.0722
  760MOL0     H  316   2.295   3.818  10.429 -1.8356  0.7041 -1.2077
  760MOL0     H  317   2.272   3.973  10.344  2.6568  2.6473  2.3112
  760MOL0     H  318   2.322   4.144  10.707 -0.3709  0.4903  0.4039
  760MOL0     H  319   1.639   4.153  10.183  0.9190  0.2655  1.7984
  760MOL0     H  320   1.420   4.128  10.131  3.7949  2.7853  1.2955
  761MOL0     O  321   5.262   1.593   2.274 -0.3700  1.0670 -0.2223
  761MOL0     C  322   5.353   1.550   2.201  0.1647 -0.6066  0.6748
  761MOL0     O  323   5.332   1.498   2.079 -0.2705 -0.7423  0.3493
  761MOL0     C  324   5.207   1.487   2.027 -0.2373 -0.1699 -0.6784
  761MOL0     C  325   5.145   1.364   2.020  0.2964 -0.2914  0.5761
  761MOL0     C  326   5.012   1.349   1.957  0.8638 -0.4369 -0.1816
  761MOL0     C  327   4.947   1.463   1.912 -0.1142 -0.7561  0.6552
  761MOL0     O  328   4.822   1.464   1.859  0.0615 -0.2717 -0.4282
  761MOL0     C  329   4.726   1.374   1.901 -0.0685 -0.5939  0.0191
  761MOL0     C  330   4.590   1.430   1.854  0.6095 -0.6197  0.3156
  761MOL0     C  331   4.579   1.414   1.707 -0.1034  0.5139 -0.7625
  761MOL0     C  332   4.445   1.474   1.654 -0.6618 -0.1828 -0.3184
  761MOL0     C  333   4.444   1.533   1.516 -0.8589 -0.2568  0.9533
  761MOL0     C  334   4.446   1.429   1.402 -0.2673  0.5411  0.8020
  761MOL0     C  335   4.316   1.348   1.389 -0.0722  0.9935  0.6974
  761MOL0     C  336   4.311   1.248   1.268 -0.3879 -0.4819  1.0023
  761MOL0     N  337   4.259   1.313   1.145 -0.1532  0.3615  0.4393
  761MOL0     C  338   4.341   1.383   1.055  0.0073 -0.0090 -0.3774
  761MOL0     C  339   4.256   1.430   0.968 -0.2497  0.1712  0.2071
  761MOL0     C  340   4.299   1.524   0.859 -0.5757 -0.0630  0.2545
  761MOL0     C  341   4.296   1.444   0.726 -0.3323 -0.7675 -0.2289
  761MOL0     C  342   4.318   1.526   0.600  0.9844 -0.2041  0.4721
  761MOL0     C  343   4.457   1.575   0.581 -0.2635 -0.7112  0.4937
  761MOL0     O  344   4.541   1.461   0.553  0.4796  0.3188 -0.3651
  761MOL0     C  345   4.677   1.464   0.550  0.5241 -0.6090 -0.0494
  761MOL0     C  346   4.745   1.356   0.517  0.2430  0.3695  0.1076
  761MOL0     C  347   4.882   1.353   0.518 -0.2077 -0.5257  0.0774
  761MOL0     C  348   4.954   1.465   0.551  0.6245  0.0824 -1.0166
  761MOL0     C  349   5.106   1.463   0.551  0.5330 -0.0372 -0.0550
  761MOL0     O  350   5.169   1.361   0.487 -0.5605  0.5614  0.6665
  761MOL0     C  351   5.303   1.318   0.518 -0.6586  0.8625 -0.6645
  761MOL0     C  352   5.404   1.305   0.418 -0.1947  0.2257 -0.1797
  761MOL0     C  353   5.530   1.255   0.458 -0.0306  1.0594 -0.1989
  761MOL0     C  354   5.556   1.193   0.576 -0.6484 -0.0593 -0.1481
  761MOL0     O  355   5.680   1.138   0.600  0.3255  1.1179  0.2040
  761MOL0     C  356   5.715   1.097   0.729 -0.7115  0.4404  0.6674
  761MOL0     C  357   5.835   1.005   0.719 -0.7607  0.0169  0.3405
  761MOL0     C  358   5.966   1.069   0.663  0.3573  0.4965 -0.0987
  761MOL0     C  359   6.046   0.969   0.579 -0.0273 -0.0173 -0.4486
  761MOL0     C  360   6.140   0.884   0.668 -0.7256 -0.0215 -0.6433
  761MOL0     C  361   6.252   0.962   0.740 -0.5428 -0.3640 -0.5066
  761MOL0     C  362   6.370   0.869   0.781  0.7254 -1.1581  0.2560
  761MOL0     C  363   6.483   0.947   0.841  0.3076  0.7312  0.7246
  761MOL0    Cl  364   6.613   0.847   0.909 -0.3308  0.4345  0.1389
  761MOL0     C  365   5.460   1.218   0.678  0.2294  0.0016 -0.0782
  761MOL0     C  366   5.336   1.279   0.652 -0.5809  0.0129  0.2228
  761MOL0     O  367   5.165   1.558   0.594  1.7518 -0.4327 -0.5631
  761MOL0     C  368   4.881   1.575   0.598  0.5106 -1.4693  0.2565
  761MOL0     C  369   4.744   1.583   0.590  0.5047 -0.0547  0.4646
  761MOL0     N  370   4.124   1.393   0.998 -0.3531 -0.4431 -0.2146
  761MOL0     N  371   4.126   1.323   1.110  0.0054 -0.7808 -0.0147
  761MOL0     C  372   5.010   1.587   1.919 -1.2439  0.1676  0.5658
  761MOL0     C  373   5.140   1.598   1.974 -0.5351  0.0736  0.3128
  761MOL0     C  374   5.491   1.583   2.247  0.8776 -0.6682 -0.6627
  761MOL0     C  375   5.510   1.646   2.365 -0.2158 -0.2773 -0.0493
  761MOL0     C  376   5.638   1.687   2.405 -0.9898  0.0420 -0.0298
  761MOL0     C  377   5.750   1.661   2.329 -0.8524 -0.5028 -0.2437
  761MOL0     O  378   5.883   1.695   2.361 -0.0839 -0.1669 -0.7103
  761MOL0     C  379   5.895   1.791   2.468 -0.0213  0.6726  0.3292
  761MOL0     C  380   6.038   1.848   2.470 -0.6433 -0.1991 -0.0134
  761MOL0     C  381   6.122   1.806   2.597 -0.5715 -0.5125 -0.2691
  761MOL0     C  382   6.258   1.882   2.594 -0.5578 -0.4763 -0.2945
  761MOL0     C  383   6.344   1.833   2.700 -0.6546 -0.1499 -0.2945
  761MOL0     C  384   6.405   1.804   2.800  0.1918  0.3975 -0.0397
  761MOL0     C  385   5.733   1.594   2.201 -0.0139  0.1571  0.0282
  761MOL0     C  386   5.601   1.558   2.157  0.1026  0.1122 -0.7292
  761MOL0     H  387   5.187   1.270   2.055  0.7507 -0.9157 -1.4642
  761MOL0     H  388   4.969   1.250   1.953 -0.4506  0.0206  1.5908
  761MOL0     H  389   4.717   1.363   2.010  1.6072 -2.6633  0.0188
  761MOL0     H  390   4.731   1.277   1.850  0.8820 -0.0280 -0.9949
  761MOL0     H  391   4.578   1.534   1.886  2.6044 -0.9970  2.6016
  761MOL0     H  392   4.513   1.370   1.904 -0.4913  0.7933  0.3798
  761MOL0     H  393   4.591   1.309   1.679  0.4370  0.0096  1.1859
  761MOL0     H  394   4.661   1.473   1.666  0.2885  0.3439 -0.2317
  761MOL0     H  395   4.372   1.393   1.658 -0.6731 -0.3408 -2.6621
  761MOL0     H  396   4.413   1.555   1.720  0.0664  1.6126 -2.0617
  761MOL0     H  397   4.537   1.590   1.506 -0.5945 -0.6267  1.2835
  761MOL0     H  398   4.357   1.596   1.497 -3.1925 -2.4852  3.4188
  761MOL0     H  399   4.524   1.354   1.418  1.5198  2.3935  1.1867
  761MOL0     H  400   4.458   1.473   1.302 -0.8091  0.3207  0.6324
  761MOL0     H  401   4.301   1.281   1.475  2.6290 -2.0413 -0.9556
  761MOL0     H  402   4.230   1.415   1.376  0.8944  2.0089 -0.6908
  761MOL0     H  403   4.239   1.170   1.294 -2.8764  1.3463 -0.1124
  761MOL0     H  404   4.413   1.209   1.255 -0.6374 -0.6796 -0.5958
  761MOL0     H  405   4.449   1.397   1.048 -0.0162 -0.0341 -0.7932
  761MOL0     H  406   4.399   1.564   0.876  0.3677 -1.8975 -0.7067
  761MOL0     H  407   4.233   1.611   0.854  1.3372  1.5051  0.8516
  761MOL0     H  408   4.200   1.391   0.721 -2.2382  1.7890  3.9758
  761MOL0     H  409   4.383   1.378   0.727  0.5596  0.3113 -1.9383
  761MOL0     H  410   4.298   1.474   0.506 -0.1906 -0.5303  0.8851
  761MOL0     H  411   4.248   1.609   0.610 -1.3272 -1.5971 -2.5918
  761MOL0     H  412   4.493   1.619   0.675  2.0958 -1.4464 -0.0095
  761MOL0     H  413   4.466   1.657   0.509  0.6832 -1.1339  0.1189
  761MOL0     H  414   4.680   1.273   0.490  0.2515 -0.0847  1.4000
  761MOL0     H  415   4.918   1.265   0.467 -3.1429 -1.8307  0.0378
  761MOL0     H  416   5.382   1.337   0.317 -2.4784 -0.5716  0.0176
  761MOL0     H  417   5.598   1.226   0.379 -0.1778 -1.4189  0.5107
  761MOL0     H  418   5.642   1.027   0.771 -1.3201  0.5309 -0.2225
  761MOL0     H  419   5.751   1.170   0.802  0.8869 -0.6128  0.9716
  761MOL0     H  420   5.800   0.928   0.650 -2.4083  1.9584 -1.1005
  761MOL0     H  421   5.851   0.958   0.817 -3.2986  1.2086  1.4197
  761MOL0     H  422   6.029   1.109   0.743 -2.3504  0.4812  2.1920
  761MOL0     H  423   5.940   1.155   0.600  1.8166  1.3183  0.3715
  761MOL0     H  424   5.977   0.897   0.533 -0.5342  1.1346 -1.5518
  761MOL0     H  425   6.115   1.014   0.507  2.2313  0.3403  1.7863
  761MOL0     H  426   6.186   0.803   0.611 -0.1301  0.1376 -0.3927
  761MOL0     H  427   6.092   0.838   0.755 -1.7745  0.9597 -0.6677
  761MOL0     H  428   6.213   1.011   0.830 -0.7170 -3.2127  1.0814
  761MOL0     H  429   6.291   1.038   0.672 -2.3951  1.8555  0.7562
  761MOL0     H  430   6.329   0.794   0.850 -0.2500 -0.1266  0.8334
  761MOL0     H  431   6.394   0.820   0.686 -2.3540  0.1514 -1.3544
  761MOL0     H  432   6.437   1.012   0.916  1.7208 -0.4027  2.6527
  761MOL0     H  433   6.529   1.018   0.771 -1.5033  1.5131  0.2727
  761MOL0     H  434   5.476   1.194   0.782  2.1031  3.7493  0.6588
  761MOL0     H  435   5.255   1.292   0.724  0.9372 -0.7133  2.1437
  761MOL0     H  436   4.940   1.662   0.623  1.0482 -1.9164  0.5521
  761MOL0     H  437   4.701   1.681   0.606  2.0567  0.3130  2.7308
  761MOL0     H  438   4.958   1.676   1.887 -1.5611  0.0908  0.8579
  761MOL0     H  439   5.188   1.695   1.976 -1.2354  0.4121  1.4194
  761MOL0     H  440   5.427   1.674   2.429 -0.9482  2.6143 -2.0908
  761MOL0     H  441   5.651   1.737   2.501 -3.5726  1.0329 -0.1104
  761MOL0     H  442   5.862   1.744   2.561  0.5723 -0.9809 -0.2488
  761MOL0     H  443   5.828   1.870   2.435 -1.2044 -0.7079 -0.7278
  761MOL0     H  444   6.088   1.805   2.383  0.7418  0.5845  0.3625
  761MOL0     H  445   6.032   1.957   2.464 -3.5733 -0.2812 -0.2993
  761MOL0     H  446   6.142   1.698   2.594  0.4722 -0.3163 -2.0543
  761MOL0     H  447   6.077   1.839   2.691 -0.5923 -0.4800 -0.2908
  761MOL0     H  448   6.312   1.861   2.501  0.3179  0.0681  0.0778
  761MOL0     H  449   6.240   1.989   2.606  1.9085 -0.0066 -0.3718
  761MOL0     H  450   6.452   1.790   2.896  0.7909  0.3452 -0.3349
  761MOL0     H  451   5.813   1.560   2.137 -0.8961  0.7072 -1.4047
  761MOL0     H  452   5.580   1.523   2.056 -0.0881 -1.9256 -0.0142
  762MOL0     O  453   3.889   9.841   1.487 -0.6567  0.1030  0.3081
  762MOL0     C  454   3.964   9.924   1.448  1.0672 -0.0486  0.5008
  762MOL0     O  455   3.932  10.031   1.364  0.4335  0.3449 -0.3899
  762MOL0     C  456   3.810  10.021   1.293  0.8785  0.2138  0.9664
  762MOL0     C  457   3.805  10.010   1.156 -0.2129 -0.2940 -0.2334
  762MOL0     C  458   3.688  10.018   1.080  0.1058 -0.0052 -0.3085
  762MOL0     C  459   3.568  10.031   1.152  0.3528 -0.5659  0.0650
  762MOL0     O  460   3.450  10.045   1.078 -0.2689  0.0089  0.5519
  762MOL0     C  461   3.340  10.119   1.134  0.0351  0.7108  0.1709
  762MOL0     C  462   3.240  10.153   1.026 -0.1830 -0.3602  0.1084
  762MOL0     C  463   3.219  10.025   0.929 -0.0188  0.0159  0.4259
  762MOL0     C  464   3.096  10.033   0.835  0.0818  0.8857 -0.5075
  762MOL0     C  465   2.967  10.085   0.915 -0.0197  0.5457 -0.6455
  762MOL0     C  466   2.855  10.096   0.815  0.2539  0.1813 -0.5463
  762MOL0     C  467   2.732  10.154   0.884 -0.4601  0.2022 -0.7476
  762MOL0     C  468   2.603  10.153   0.804  0.3010  0.9048  0.4789
  762MOL0     N  469   2.485  10.160   0.886 -0.0141 -0.4369  0.5040
  762MOL0     C  470   2.361  10.115   0.857  0.4326 -0.2038  0.7194
  762MOL0     C  471   2.276  10.168   0.944 -0.5879 -0.5965 -0.7610
  762MOL0     C  472   2.127  10.145   0.966  0.4379 -0.4156  0.3454
  762MOL0     C  473   2.057  10.061   0.849 -0.8892  0.0412  0.1373
  762MOL0     C  474   1.906  10.078   0.860 -0.6442  0.5868 -0.4368
  762MOL0     C  475   1.840   9.978   0.950 -0.6561 -0.1534  0.2917
  762MOL0     O  476   1.706  10.004   0.969  0.2156 -0.0546 -0.7203
  762MOL0     C  477   1.624   9.915   1.025  0.0588  0.2782 -0.3192
  762MOL0     C  478   1.493   9.959   1.041  0.6655  0.2970 -0.1620
  762MOL0     C  479   1.385   9.874   1.068 -0.4943  1.0263 -0.1915
  762MOL0     C  480   1.415   9.740   1.089 -0.3030  0.7994  0.4514
  762MOL0     C  481   1.305   9.645   1.100 -0.6214  0.3058 -0.3043
  762MOL0     O  482   1.341   9.514   1.122 -0.1499  0.4917  0.3068
  762MOL0     C  483   1.234   9.423   1.101 -0.4447  0.2950  0.6529
  762MOL0     C  484   1.235   9.339   0.988 -0.7481  0.1696 -0.2322
  762MOL0     C  485   1.136   9.242   0.963  1.0071 -0.2809 -0.4239
  762MOL0     C  486   1.028   9.227   1.057 -0.3131 -0.5671  0.3648
  762MOL0     O  487   0.920   9.141   1.031  0.3444 -0.6560  0.3071
  762MOL0     C  488   0.953   9.005   0.989  0.7737  0.1187  0.1234
  762MOL0     C  489   0.848   8.898   1.042  0.1478 -0.5719 -0.6271
  762MOL0     C  490   0.703   8.957   1.012  0.2610  0.3028 -0.1609
  762MOL0     C  491   0.664   8.967   0.863 -0.2644 -1.4329  0.0550
  762MOL0     C  492   0.519   8.991   0.851  0.0722 -0.2577 -0.3240
  762MOL0     C  493   0.476   9.019   0.707 -0.9287  0.4401  0.0246
  762MOL0     C  494   0.325   9.027   0.704  0.8152 -0.8038 -0.3090
  762MOL0     C  495   0.280   9.082   0.563 -0.5268  0.1644  1.3830
  762MOL0    Cl  496   0.110   9.032   0.541  0.2474  0.0773 -0.3599
  762MOL0     C  497   1.025   9.307   1.166  0.1270 -0.0285 -0.6435
  762MOL0     C  498   1.122   9.411   1.186 -0.9035 -0.1476  0.0027
  762MOL0     O  499   1.189   9.676   1.090 -0.6658  0.0732 -0.2454
  762MOL0     C  500   1.544   9.689   1.071  0.5583  0.1263 -0.3629
  762MOL0     C  501   1.649   9.778   1.038 -0.3037  1.1062  0.0892
  762MOL0     N  502   2.351  10.251   1.031 -0.1036 -0.7832 -0.4028
  762MOL0     N  503   2.476  10.243   0.989  0.3831  0.4765  0.6928
  762MOL0     C  504   3.570  10.040   1.292  0.5733  0.4114  0.7736
  762MOL0     C  505   3.685  10.038   1.355  0.0435  0.2354 -0.5767
  762MOL0     C  506   4.102   9.928   1.491  1.4672  0.4710  0.4881
  762MOL0     C  507   4.141   9.893   1.618 -0.1546  0.0213  0.0348
  762MOL0     C  508   4.272   9.896   1.660 -0.7400 -0.0887 -0.1041
  762MOL0     C  509   4.374   9.945   1.574 -0.9475 -0.3286 -1.0968
  762MOL0     O  510   4.505   9.939   1.618 -0.3149  0.0199 -0.0882
  762MOL0     C  511   4.614   9.950   1.528 -0.0933  0.0468 -0.4891
  762MOL0     C  512   4.617   9.820   1.454 -0.1651  0.4521 -0.2136
  762MOL0     C  513   4.750   9.792   1.388  0.0666  0.2483 -0.7077
  762MOL0     C  514   4.830   9.712   1.487 -0.2508  0.1398  0.3466
  762MOL0     C  515   4.964   9.718   1.439 -0.9496 -0.7999 -0.3388
  762MOL0     C  516   5.077   9.726   1.385  0.1124  0.6634 -1.0435
  762MOL0     C  517   4.334   9.993   1.447  0.3366 -0.2317  0.1577
  762MOL0     C  518   4.201   9.988   1.404 -0.7445  0.6942  0.0309
  762MOL0     H  519   3.897   9.992   1.101  0.3934  0.2090  0.6031
  762MOL0     H  520   3.685  10.002   0.973 -0.9931  2.2623 -0.6733
  762MOL0     H  521   3.369  10.208   1.191  0.1506  0.6117  0.2672
  762MOL0     H  522   3.293  10.059   1.212  0.6919 -0.9805 -0.6918
  762MOL0     H  523   3.279  10.239   0.971 -1.1339 -0.8342 -1.3555
  762MOL0     H  524   3.148  10.173   1.082  0.0254  1.7814 -0.2347
  762MOL0     H  525   3.185   9.942   0.991 -3.6272  1.1175  0.1787
  762MOL0     H  526   3.304   9.996   0.866 -0.3177 -0.6530  0.3154
  762MOL0     H  527   3.121  10.094   0.748  0.1356  0.3241 -0.8977
  762MOL0     H  528   3.081   9.931   0.797  0.4869  0.5861  0.1130
  762MOL0     H  529   2.981  10.188   0.951 -4.1809  0.3519  2.1252
  762MOL0     H  530   2.943  10.023   1.001  0.8122  2.4185  1.0273
  762MOL0     H  531   2.828  10.008   0.757 -2.3564  1.0371 -0.7828
  762MOL0     H  532   2.892  10.177   0.751  0.7547  1.9681  1.8214
  762MOL0     H  533   2.719  10.101   0.979 -0.0494  0.0983 -0.7491
  762MOL0     H  534   2.744  10.259   0.915 -0.2634  0.3178 -1.2152
  762MOL0     H  535   2.605  10.055   0.756 -0.4991  1.0637  0.1087
  762MOL0     H  536   2.608  10.220   0.718  4.7662 -1.7316 -1.6716
  762MOL0     H  537   2.329  10.050   0.777  1.4549  0.6898 -0.4496
  762MOL0     H  538   2.077  10.242   0.970 -0.0905 -0.6795  0.1515
  762MOL0     H  539   2.106  10.098   1.063 -1.0098  0.8130  0.6642
  762MOL0     H  540   2.094   9.958   0.845  1.9938  0.8920  1.9282
  762MOL0     H  541   2.091  10.108   0.756  0.4194  0.5361  0.8379
  762MOL0     H  542   1.895  10.181   0.896  1.3482  0.9950 -0.9164
  762MOL0     H  543   1.851  10.078   0.766 -2.0663 -0.8613  0.3401
  762MOL0     H  544   1.879   9.963   1.051 -0.0474 -0.8912 -0.0392
  762MOL0     H  545   1.867   9.885   0.898  0.8111 -1.8000  3.6792
  762MOL0     H  546   1.476  10.060   1.005 -1.2556  1.4460  3.3951
  762MOL0     H  547   1.284   9.914   1.079 -1.8275 -1.7230 -1.3804
  762MOL0     H  548   1.313   9.350   0.913 -1.0797  0.1425 -0.5840
  762MOL0     H  549   1.135   9.186   0.869 -2.5603 -0.2601 -0.5514
  762MOL0     H  550   1.052   8.980   1.030  1.3522  1.7327 -0.2075
  762MOL0     H  551   0.952   9.002   0.880 -2.0661  1.5507  0.0282
  762MOL0     H  552   0.862   8.893   1.150 -1.3555 -1.1442 -0.4287
  762MOL0     H  553   0.868   8.799   1.002  1.0281 -0.6587 -0.0015
  762MOL0     H  554   0.688   9.057   1.055 -2.6582  0.1915 -0.7595
  762MOL0     H  555   0.631   8.886   1.053  0.0889  2.3491  3.5109
  762MOL0     H  556   0.728   9.040   0.813  0.3390 -1.7585  0.3397
  762MOL0     H  557   0.687   8.872   0.813 -0.1289  0.8575 -4.8249
  762MOL0     H  558   0.481   9.072   0.914 -1.3410 -1.3277  0.2705
  762MOL0     H  559   0.469   8.897   0.877 -2.1277  0.4987 -1.5520
  762MOL0     H  560   0.524   8.955   0.633 -3.6398  1.1463 -2.5912
  762MOL0     H  561   0.522   9.113   0.672  0.9320  0.4765  2.3552
  762MOL0     H  562   0.289   8.925   0.720  1.4169 -0.7065  2.0960
  762MOL0     H  563   0.285   9.084   0.789 -1.4182 -0.0863 -1.7592
  762MOL0     H  564   0.336   9.021   0.492 -1.1737 -1.1220  1.9424
  762MOL0     H  565   0.301   9.189   0.549  1.3796 -0.2108  1.1469
  762MOL0     H  566   0.939   9.296   1.231  1.6953 -0.2920  1.5232
  762MOL0     H  567   1.112   9.464   1.281  0.8905 -1.2394  0.8751
  762MOL0     H  568   1.562   9.582   1.080  0.0367  0.1296  1.0529
  762MOL0     H  569   1.753   9.747   1.036 -0.9457 -1.6850  2.8188
  762MOL0     H  570   3.476  10.026   1.344  1.2159 -0.7624  1.6741
  762MOL0     H  571   3.664  10.037   1.461 -1.7052  0.0535 -0.8809
  762MOL0     H  572   4.071   9.864   1.696 -0.3056  0.6577  0.1400
  762MOL0     H  573   4.303   9.867   1.760 -4.4078  0.5738  1.3796
  762MOL0     H  574   4.703   9.971   1.587 -0.3369 -0.1007 -0.0617
  762MOL0     H  575   4.595  10.031   1.457 -2.0940 -0.7999 -0.9918
  762MOL0     H  576   4.593   9.745   1.530  0.3651  3.8676  3.7022
  762MOL0     H  577   4.547   9.817   1.370  0.5589  0.0204 -0.8157
  762MOL0     H  578   4.803   9.881   1.352 -0.2406 -0.2679 -2.5444
  762MOL0     H  579   4.738   9.732   1.298 -0.5029  0.2123 -0.6116
  762MOL0     H  580   4.812   9.774   1.575 -1.1111 -0.5517  0.6692
  762MOL0     H  581   4.805   9.606   1.493  0.1430  0.1080  2.0338
  762MOL0     H  582   5.173   9.725   1.338  0.1713 -2.6996 -1.0329
  762MOL0     H  583   4.401  10.010   1.363 -1.2273 -0.6840 -1.2545
  762MOL0     H  584   4.177  10.021   1.304  0.1728  2.5229  0.3774
  763MOL0     O  585   2.297   9.060   8.347 -0.1005  0.4157 -0.2364
  763MOL0     C  586   2.346   8.945   8.337 -0.3149 -0.4533 -0.3265
  763MOL0     O  587   2.281   8.824   8.347 -0.9900  0.0985 -0.7229
  763MOL0     C  588   2.144   8.820   8.367  0.8927  0.0644  0.3988
  763MOL0     C  589   2.070   8.909   8.449  0.1239  0.0255 -0.0479
  763MOL0     C  590   1.935   8.889   8.470  0.7253 -0.5059 -0.3890
  763MOL0     C  591   1.855   8.781   8.415  0.0497 -0.5986  0.6837
  763MOL0     O  592   1.721   8.761   8.446  0.5138 -0.4239 -0.3550
  763MOL0     C  593   1.650   8.855   8.526 -0.5725 -0.6067 -0.8039
  763MOL0     C  594   1.503   8.813   8.539  0.1218  0.3257 -0.9579
  763MOL0     C  595   1.422   8.899   8.623  0.6403  0.3223  0.5632
  763MOL0     C  596   1.473   8.930   8.764  0.8538  0.3148 -0.4544
  763MOL0     C  597   1.369   8.994   8.856  0.0689  0.3535  0.4511
  763MOL0     C  598   1.441   9.078   8.957 -0.4528  0.1437 -0.7100
  763MOL0     C  599   1.335   9.148   9.046 -0.1137  0.5308 -0.4802
  763MOL0     C  600   1.372   9.296   9.085 -0.6370  0.9790  0.7782
  763MOL0     N  601   1.291   9.343   9.191  0.4849  0.1366  0.6524
  763MOL0     C  602   1.153   9.339   9.183  0.2590  0.2953  0.0726
  763MOL0     C  603   1.112   9.407   9.295  0.3883  0.3943  0.6887
  763MOL0     C  604   0.975   9.426   9.355  0.2941  0.8883 -0.7808
  763MOL0     C  605   0.888   9.537   9.282  0.0979  0.2146 -0.3562
  763MOL0     C  606   0.755   9.545   9.364  0.6768 -0.3713 -0.0551
  763MOL0     C  607   0.647   9.652   9.309 -1.0502  1.2240  0.4278
  763MOL0     O  608   0.613   9.623   9.175  0.0066 -0.5152  0.2529
  763MOL0     C  609   0.490   9.683   9.125  0.8554 -0.2719  0.1968
  763MOL0     C  610   0.450   9.641   8.989  0.0787 -0.4819 -0.2283
  763MOL0     C  611   0.338   9.713   8.933  0.0981 -0.1514  0.3691
  763MOL0     C  612   0.261   9.809   8.998 -0.5609  0.1392 -0.4624
  763MOL0     C  613   0.147   9.880   8.931  0.8589  0.1890 -0.3392
  763MOL0     O  614   0.125   9.874   8.797 -0.6165 -0.0324 -0.1937
  763MOL0     C  615  -0.001   9.901   8.742  1.0510  0.6676 -0.1346
  763MOL0     C  616  -0.086   9.803   8.699 -0.8160  0.1445 -0.5689
  763MOL0     C  617  -0.213   9.834   8.652 -1.0842 -0.2469  0.2834
  763MOL0     C  618  -0.262   9.961   8.638 -0.0985 -0.2255 -0.0882
  763MOL0     O  619  -0.385   9.997   8.587 -0.6653  0.3988 -0.5100
  763MOL0     C  620  -0.500   9.922   8.633  0.6647  0.6020  0.3767
  763MOL0     C  621  -0.629  10.005   8.607  0.7237 -0.0737  0.4574
  763MOL0     C  622  -0.753   9.932   8.653 -0.1175 -0.5153  0.2661
  763MOL0     C  623  -0.885  10.007   8.633  0.9890  0.1439  0.5344
  763MOL0     C  624  -1.004   9.923   8.564 -0.2166  0.3782 -0.0062
  763MOL0     C  625  -1.144   9.987   8.554  0.1736  0.6122 -0.0186
  763MOL0     C  626  -1.234   9.896   8.469  0.0441  0.6696 -0.7224
  763MOL0     C  627  -1.357   9.984   8.440 -0.4298  0.3472 -1.2276
  763MOL0    Cl  628  -1.479  10.011   8.579 -0.0245  0.0633  0.3534
  763MOL0     C  629  -0.177  10.068   8.681 -0.5686 -0.0686  0.0501
  763MOL0     C  630  -0.048  10.033   8.732  0.2388 -0.1037 -0.2135
  763MOL0     O  631   0.070   9.928   9.014  0.0240 -0.5468  0.1541
  763MOL0     C  632   0.290   9.831   9.132 -1.0147 -0.5779  0.4551
  763MOL0     C  633   0.406   9.783   9.190 -0.3808 -0.1890 -1.0624
  763MOL0     N  634   1.225   9.442   9.366 -0.6338  0.2345 -0.6598
  763MOL0     N  635   1.333   9.395   9.311 -0.1749 -0.3617 -0.1435
  763MOL0     C  636   1.932   8.692   8.340  0.0538  0.2231 -0.1639
  763MOL0     C  637   2.070   8.709   8.321 -0.4000 -0.0043 -0.0969
  763MOL0     C  638   2.493   8.947   8.305  0.6671 -0.3095 -0.6452
  763MOL0     C  639   2.557   8.830   8.267  0.3251  0.1837 -0.1812
  763MOL0     C  640   2.695   8.828   8.248  0.0538  0.1053  0.4721
  763MOL0     C  641   2.770   8.942   8.250 -0.0155 -0.3440 -0.4852
  763MOL0     O  642   2.903   8.915   8.230  1.1124  0.0116  0.8679
  763MOL0     C  643   2.991   9.022   8.249 -0.1574  0.0123  0.9032
  763MOL0     C  644   3.140   8.965   8.260 -0.3376 -0.0566  0.1360
  763MOL0     C  645   3.149   8.890   8.395 -0.6177 -0.0611 -0.1994
  763MOL0     C  646   3.280   8.796   8.374  0.3812 -0.4223  0.6267
  763MOL0     C  647   3.330   8.742   8.495  0.0803  0.3859 -0.1192
  763MOL0     C  648   3.372   8.695   8.598  0.0750  0.4661  0.0428
  763MOL0     C  649   2.707   9.061   8.283  0.2940 -0.4301 -0.5101
  763MOL0     C  650   2.573   9.060   8.312  0.8209  0.0695  0.1785
  763MOL0     H  651   2.118   8.985   8.508  0.8794 -0.9489  0.6311
  763MOL0     H  652   1.895   8.959   8.543 -1.4957 -4.4883  2.6510
  763MOL0     H  653   1.649   8.948   8.468 -0.5223 -0.8315 -1.1733
  763MOL0     H  654   1.696   8.857   8.625  2.4152 -0.0290 -2.0989
  763MOL0     H  655   1.502   8.711   8.577  0.1900  1.6073  2.8347
  763MOL0     H  656   1.456   8.816   8.440 -0.0716 -1.2517 -0.9444
  763MOL0     H  657   1.323   8.855   8.633 -0.8525  3.2738  0.1085
  763MOL0     H  658   1.420   8.999   8.578  2.6195  0.3525  0.4278
  763MOL0     H  659   1.506   8.834   8.804  1.7458 -0.0726 -2.0343
  763MOL0     H  660   1.563   8.991   8.751  0.8308 -0.1296 -3.1651
  763MOL0     H  661   1.318   8.914   8.911 -1.3421  1.9636  1.5477
  763MOL0     H  662   1.293   9.045   8.796 -1.3319  0.2833  2.0778
  763MOL0     H  663   1.514   9.148   8.913  1.0766 -2.5632 -2.7823
  763MOL0     H  664   1.497   9.023   9.033 -1.5025  0.8842  0.6552
  763MOL0     H  665   1.241   9.150   8.989 -0.1810  0.4879 -0.3698
  763MOL0     H  666   1.311   9.089   9.134 -0.7460 -3.0406 -2.8425
  763MOL0     H  667   1.370   9.353   8.992  2.8346 -0.1956 -0.1616
  763MOL0     H  668   1.473   9.297   9.128 -1.2218 -0.3974  2.3197
  763MOL0     H  669   1.088   9.300   9.105 -0.9449  2.5795 -0.1534
  763MOL0     H  670   0.985   9.466   9.456  1.2367  2.6387 -1.5147
  763MOL0     H  671   0.937   9.324   9.368  1.7821  0.3223 -0.6318
  763MOL0     H  672   0.871   9.515   9.176 -0.4862 -0.1825 -0.1851
  763MOL0     H  673   0.950   9.626   9.270  0.0346  0.0308 -2.4013
  763MOL0     H  674   0.707   9.446   9.362 -0.1214  0.0227 -0.8429
  763MOL0     H  675   0.785   9.575   9.465  0.7946 -0.1285 -0.1621
  763MOL0     H  676   0.688   9.753   9.316 -0.6349  1.1272 -0.4575
  763MOL0     H  677   0.564   9.636   9.379 -0.8749 -0.9612  0.2115
  763MOL0     H  678   0.493   9.559   8.932 -0.4535  0.5542 -2.1923
  763MOL0     H  679   0.331   9.709   8.825 -1.8512 -1.7708  0.5091
  763MOL0     H  680  -0.058   9.699   8.712 -1.8761  0.0345  1.0603
  763MOL0     H  681  -0.281   9.753   8.631  1.4631 -2.6343  0.6520
  763MOL0     H  682  -0.492   9.898   8.740  0.9776 -3.4202 -0.3841
  763MOL0     H  683  -0.510   9.827   8.580 -3.8812  1.1275 -0.1591
  763MOL0     H  684  -0.641  10.042   8.504 -2.9520 -1.9709  0.0486
  763MOL0     H  685  -0.627  10.097   8.666 -4.3548 -2.1651  4.5713
  763MOL0     H  686  -0.742   9.893   8.755  1.5180 -0.6150  0.0740
  763MOL0     H  687  -0.763   9.840   8.595  2.4157 -0.5699 -0.1923
  763MOL0     H  688  -0.924  10.039   8.730 -2.3365 -1.0701 -0.2733
  763MOL0     H  689  -0.876  10.094   8.568 -2.0165  1.0394  1.1786
  763MOL0     H  690  -1.007   9.829   8.620  0.3041 -0.0569 -0.6910
  763MOL0     H  691  -0.970   9.906   8.461  3.0647  3.4147  0.4179
  763MOL0     H  692  -1.130  10.086   8.511  0.4356  0.7446  0.3733
  763MOL0     H  693  -1.182  10.003   8.655 -3.5189 -0.3857 -1.0628
  763MOL0     H  694  -1.180   9.863   8.380  0.4047 -0.5240 -0.0708
  763MOL0     H  695  -1.262   9.810   8.529  0.8747  2.3175  2.2329
  763MOL0     H  696  -1.401   9.926   8.358 -0.4989 -3.0268  1.0169
  763MOL0     H  697  -1.324  10.084   8.410 -1.1942  1.5733  1.6656
  763MOL0     H  698  -0.212  10.171   8.677  1.6721  1.0192  3.4290
  763MOL0     H  699   0.024  10.107   8.767  2.0144 -2.0807  0.5559
  763MOL0     H  700   0.231   9.904   9.185  1.4489  0.8542  1.4255
  763MOL0     H  701   0.437   9.814   9.290  1.7438  1.9833 -2.2903
  763MOL0     H  702   1.869   8.609   8.311  0.2349  0.7413 -2.1507
  763MOL0     H  703   2.119   8.627   8.271 -1.8464 -1.7997  1.2820
  763MOL0     H  704   2.505   8.735   8.264  0.6852 -0.0030 -0.5496
  763MOL0     H  705   2.741   8.731   8.232 -1.1168 -0.4847  0.5770
  763MOL0     H  706   2.971   9.092   8.331 -0.9773  2.5600 -1.3357
  763MOL0     H  707   2.993   9.090   8.163  0.5833 -3.7953 -2.3575
  763MOL0     H  708   3.167   8.907   8.172  0.2092  0.0848  0.2098
  763MOL0     H  709   3.208   9.051   8.259 -0.7296  0.2549 -0.5044
  763MOL0     H  710   3.065   8.821   8.406 -0.6674  0.2376  1.4930
  763MOL0     H  711   3.152   8.967   8.473  0.8077  1.0031 -1.2335
  763MOL0     H  712   3.244   8.716   8.308 -2.2004  0.9877  0.1982
  763MOL0     H  713   3.354   8.852   8.317  0.2404 -1.7972 -0.9833
  763MOL0     H  714   3.430   8.649   8.676 -1.7794 -0.3449  0.9901
  763MOL0     H  715   2.774   9.146   8.294  0.2824 -0.4986  0.1265
  763MOL0     H  716   2.526   9.154   8.341 -2.1021 -1.6088  1.2305
  764MOL0     O  717   6.997  11.044   3.297  0.2147 -0.2745  0.3771
  764MOL0     C  718   7.001  11.163   3.283 -0.1380 -1.5003 -0.3190
  764MOL0     O  719   6.901  11.256   3.302  0.1001 -0.0738 -0.5715
  764MOL0     C  720   6.779  11.210   3.339  1.0657  0.3485 -0.8755
  764MOL0     C  721   6.703  11.279   3.433  0.6817  0.2655 -0.3835
  764MOL0     C  722   6.567  11.241   3.463 -0.0238 -0.0690 -0.4073
  764MOL0     C  723   6.506  11.135   3.402  0.1038  0.0326 -0.0067
  764MOL0     O  724   6.384  11.096   3.448  0.4367 -0.3792  0.6544
  764MOL0     C  725   6.283  11.195   3.457  0.0739 -0.2923  0.4867
  764MOL0     C  726   6.160  11.126   3.529  0.5542  1.0434  0.0967
  764MOL0     C  727   6.078  11.040   3.438  0.3408  0.1274  0.4206
  764MOL0     C  728   5.939  10.997   3.484  0.2885  0.0335  0.9892
  764MOL0     C  729   5.877  10.908   3.379  0.3177 -0.4665 -0.3554
  764MOL0     C  730   5.728  10.901   3.410 -0.7065  0.6812  0.0135
  764MOL0     C  731   5.654  10.846   3.283  0.3712  0.3553 -0.1846
  764MOL0     C  732   5.592  10.942   3.183  0.1210 -0.7350 -0.1059
  764MOL0     N  733   5.476  10.875   3.124  0.5355 -0.3248 -0.1291
  764MOL0     C  734   5.449  10.743   3.100 -0.1717 -0.2792  0.2152
  764MOL0     C  735   5.322  10.740   3.060  0.3803 -0.2007  0.3146
  764MOL0     C  736   5.240  10.614   3.028  0.7621  0.2969 -0.2807
  764MOL0     C  737   5.174  10.626   2.888 -0.1055  0.0604  0.0469
  764MOL0     C  738   5.089  10.503   2.857 -0.0083  0.2414  0.6315
  764MOL0     C  739   4.969  10.471   2.952 -0.2931  0.7329  0.0240
  764MOL0     O  740   4.865  10.576   2.941 -0.2397  0.0879 -0.3224
  764MOL0     C  741   4.740  10.530   2.970  0.2963 -0.1694 -0.1692
  764MOL0     C  742   4.684  10.565   3.093  0.0563 -0.0891  0.1523
  764MOL0     C  743   4.558  10.507   3.136 -1.0736 -0.0754  0.8018
  764MOL0     C  744   4.484  10.440   3.038  0.5285  0.3697 -0.1247
  764MOL0     C  745   4.338  10.410   3.062 -1.0199  0.8329 -0.5209
  764MOL0     O  746   4.281  10.440   3.188 -0.0919  0.2393  0.0863
  764MOL0     C  747   4.164  10.393   3.238 -0.2566 -0.1106  0.2698
  764MOL0     C  748   4.146  10.353   3.374 -0.0310 -0.0399  0.3707
  764MOL0     C  749   4.016  10.316   3.425 -0.4943  0.6316 -0.0373
  764MOL0     C  750   3.904  10.306   3.344 -1.1102  0.1935 -0.0708
  764MOL0     O  751   3.790  10.269   3.411 -0.5305 -0.0975  0.0492
  764MOL0     C  752   3.675  10.233   3.340  0.0544 -0.1187  0.7423
  764MOL0     C  753   3.578  10.170   3.432  0.5361  0.2557  0.1117
  764MOL0     C  754   3.449  10.136   3.348 -0.0942 -0.6546 -0.1055
  764MOL0     C  755   3.332  10.122   3.446 -1.0474 -0.0409 -0.0075
  764MOL0     C  756   3.211  10.055   3.373  0.4330 -0.0606 -0.1392
  764MOL0     C  757   3.081  10.071   3.462  0.3944 -0.4246 -0.3886
  764MOL0     C  758   2.971  10.017   3.371  0.1367 -0.6863 -0.4107
  764MOL0     C  759   2.856   9.990   3.464  0.5688 -0.7505  0.3592
  764MOL0    Cl  760   2.732   9.908   3.374 -0.5490 -0.1142  0.1921
  764MOL0     C  761   3.923  10.344   3.216  0.0675 -0.4636 -0.4551
  764MOL0     C  762   4.048  10.386   3.160  0.7462  0.0994 -0.5346
  764MOL0     O  763   4.279  10.346   2.977  0.5461 -0.4332 -0.1252
  764MOL0     C  764   4.541  10.411   2.911 -0.3351  0.2313 -0.0280
  764MOL0     C  765   4.668  10.455   2.878 -0.0750 -0.0376  0.4955
  764MOL0     N  766   5.271  10.867   3.043  0.5167  0.2941  0.3430
  764MOL0     N  767   5.370  10.949   3.086 -0.1904  0.3922  0.7128
  764MOL0     C  768   6.575  11.075   3.300 -0.6064  1.0363  0.0833
  764MOL0     C  769   6.711  11.110   3.276 -0.1351  0.1637  0.6082
  764MOL0     C  770   7.137  11.209   3.259 -0.0896 -0.5259 -0.0248
  764MOL0     C  771   7.148  11.342   3.210  0.2861 -0.5537  0.4471
  764MOL0     C  772   7.277  11.397   3.191  0.4507  0.6746  0.5558
  764MOL0     C  773   7.389  11.321   3.208 -0.1418 -0.4187  0.3119
  764MOL0     O  774   7.518  11.381   3.178 -0.6560 -0.0099 -0.3814
  764MOL0     C  775   7.615  11.281   3.125  0.3370  0.6658 -0.2650
  764MOL0     C  776   7.712  11.348   3.028  0.6482  0.2352  0.2597
  764MOL0     C  777   7.641  11.363   2.890  0.3976 -0.3629  0.2747
  764MOL0     C  778   7.707  11.456   2.779 -0.0314  0.3155 -0.0060
  764MOL0     C  779   7.826  11.385   2.725  0.5444 -0.7160 -0.3287
  764MOL0     C  780   7.919  11.313   2.700 -0.1769 -0.4539  0.5483
  764MOL0     C  781   7.380  11.186   3.256 -0.0399  0.0199  0.2440
  764MOL0     C  782   7.253  11.136   3.285  0.0491  0.1780  0.1033
  764MOL0     H  783   6.753  11.361   3.484  0.7485  0.1002 -0.1819
  764MOL0     H  784   6.518  11.285   3.549  1.4482 -2.7129  1.9733
  764MOL0     H  785   6.260  11.242   3.361  2.6024 -1.7605 -0.9474
  764MOL0     H  786   6.308  11.268   3.534  1.0936 -0.6898  0.5440
  764MOL0     H  787   6.088  11.201   3.564  0.2371  0.0029  1.7931
  764MOL0     H  788   6.189  11.068   3.617  1.5979  1.0723 -0.2062
  764MOL0     H  789   6.138  10.951   3.418  0.2482  0.2906 -0.6241
  764MOL0     H  790   6.072  11.088   3.340 -0.3612  1.4300  1.0691
  764MOL0     H  791   5.948  10.943   3.579  2.2861 -4.7077 -1.5678
  764MOL0     H  792   5.881  11.089   3.494  1.8964  1.8980 -3.7839
  764MOL0     H  793   5.924  10.811   3.360 -0.3601 -0.4000 -2.7028
  764MOL0     H  794   5.894  10.966   3.287  0.9645 -0.1597 -0.0450
  764MOL0     H  795   5.674  10.992   3.436 -3.2807 -1.0679  1.1827
  764MOL0     H  796   5.729  10.821   3.485  0.6314  0.8719  0.2192
  764MOL0     H  797   5.713  10.766   3.237  1.5724  2.5614 -2.7400
  764MOL0     H  798   5.570  10.789   3.324  1.2042 -2.9283 -2.5938
  764MOL0     H  799   5.661  10.981   3.108 -1.0915  0.2454 -0.7458
  764MOL0     H  800   5.564  11.035   3.234  3.0489 -1.3310  2.9068
  764MOL0     H  801   5.488  10.651   3.141 -3.0823 -0.3241  3.3855
  764MOL0     H  802   5.159  10.608   3.101 -0.5211  1.9835 -1.4677
  764MOL0     H  803   5.296  10.521   3.033  2.5743  1.3834  4.1309
  764MOL0     H  804   5.253  10.636   2.813  1.6620 -0.2008  1.7863
  764MOL0     H  805   5.109  10.714   2.891 -1.8101 -1.1809  1.4470
  764MOL0     H  806   5.042  10.512   2.759 -0.2700 -3.4141  0.2747
  764MOL0     H  807   5.149  10.412   2.848 -0.7019 -0.0481 -1.9315
  764MOL0     H  808   5.007  10.458   3.054 -0.7031  0.1575  0.1089
  764MOL0     H  809   4.927  10.374   2.922 -0.5256  0.8422 -0.0033
  764MOL0     H  810   4.759  10.614   3.154  2.3458 -3.2975  0.1601
  764MOL0     H  811   4.525  10.533   3.236  1.8048  0.5521  1.6726
  764MOL0     H  812   4.231  10.359   3.440  0.7378  4.7769 -0.7018
  764MOL0     H  813   4.020  10.293   3.531  1.3975  0.3871 -0.1246
  764MOL0     H  814   3.704  10.174   3.253  0.3656  0.2298  0.6052
  764MOL0     H  815   3.631  10.327   3.306  1.1127  0.3120  0.5244
  764MOL0     H  816   3.549  10.230   3.519  0.3870 -0.0577  0.2764
  764MOL0     H  817   3.616  10.084   3.487  1.9585  0.8546  0.0916
  764MOL0     H  818   3.467  10.047   3.287  1.1712 -0.4441 -0.0618
  764MOL0     H  819   3.433  10.209   3.269 -1.6075 -0.8686 -0.0280
  764MOL0     H  820   3.378  10.069   3.530  1.2608  1.6071 -0.1479
  764MOL0     H  821   3.316  10.226   3.474  3.7910  1.1468 -0.8592
  764MOL0     H  822   3.231   9.953   3.339  0.9698  0.9403 -3.1230
  764MOL0     H  823   3.203  10.113   3.281  1.7353  1.8345  0.8820
  764MOL0     H  824   3.057  10.173   3.494 -3.7846 -1.3138 -0.2363
  764MOL0     H  825   3.087  10.029   3.562 -2.6930 -1.2629 -0.4774
  764MOL0     H  826   2.934  10.088   3.295  1.3443  4.9891  3.6554
  764MOL0     H  827   3.011   9.932   3.315  1.2356  0.2334 -1.0818
  764MOL0     H  828   2.813  10.081   3.506  0.1987 -1.0417  0.6231
  764MOL0     H  829   2.889   9.934   3.552 -0.0729 -1.2982  0.2645
  764MOL0     H  830   3.836  10.338   3.151 -0.2080  0.8829 -0.2277
  764MOL0     H  831   4.041  10.424   3.058  0.5879  2.5626  0.3251
  764MOL0     H  832   4.477  10.361   2.839 -1.5670  3.2615 -1.2115
  764MOL0     H  833   4.712  10.436   2.781  1.0160  0.5113  0.8669
  764MOL0     H  834   6.524  10.998   3.243  1.2007  0.0737 -0.3170
  764MOL0     H  835   6.754  11.054   3.193 -0.2107  0.1964  0.5460
  764MOL0     H  836   7.061  11.406   3.199  1.8385  1.5238 -0.4160
  764MOL0     H  837   7.291  11.495   3.146  0.6124  0.2909 -0.2448
  764MOL0     H  838   7.574  11.197   3.068  0.0881  1.7332 -1.7190
  764MOL0     H  839   7.681  11.240   3.201  0.7058  0.7459 -0.5424
  764MOL0     H  840   7.744  11.447   3.064 -1.7688  1.9252 -1.8656
  764MOL0     H  841   7.796  11.281   3.010 -0.3071 -1.0612  0.4838
  764MOL0     H  842   7.545  11.409   2.914 -0.5440 -1.4495 -1.1965
  764MOL0     H  843   7.622  11.262   2.853 -0.2439 -0.8133  1.7789
  764MOL0     H  844   7.629  11.468   2.704  1.3014 -1.4176 -1.7714
  764MOL0     H  845   7.740  11.554   2.812 -0.9853  0.6822 -0.1134
  764MOL0     H  846   8.003  11.261   2.660  0.3915  1.5520 -1.0256
  764MOL0     H  847   7.471  11.137   3.290  0.4263  0.5695 -0.1713
  764MOL0     H  848   7.254  11.033   3.318  0.8303  0.3394  0.5999
  765MOL0     O  849   2.513   3.819   7.738 -0.0453 -0.0822 -0.2481
  765MOL0     C  850   2.518   3.758   7.847  0.6144 -0.9019  0.8191
  765MOL0     O  851   2.439   3.651   7.879 -0.6762 -0.2392 -0.2451
  765MOL0     C  852   2.329   3.614   7.806 -0.9036  0.8282 -0.3555
  765MOL0     C  853   2.253   3.699   7.712 -0.4315 -0.6547  0.4564
  765MOL0     C  854   2.137   3.648   7.653  0.2437  0.0618 -0.6677
  765MOL0     C  855   2.099   3.515   7.671  0.5175  0.6256  0.2676
  765MOL0     O  856   2.011   3.452   7.589  0.1534  0.1939 -0.0406
  765MOL0     C  857   1.896   3.538   7.555  0.9890 -0.3102 -0.2876
  765MOL0     C  858   1.773   3.463   7.500 -0.0154 -0.9144  0.0912
  765MOL0     C  859   1.799   3.394   7.365  0.5925  0.1324 -0.6066
  765MOL0     C  860   1.671   3.325   7.315 -0.6503  0.3978  0.4081
  765MOL0     C  861   1.614   3.228   7.420 -0.3408  0.1899 -0.1109
  765MOL0     C  862   1.533   3.105   7.368 -0.0956 -0.1144  0.4701
  765MOL0     C  863   1.388   3.142   7.315  0.5428  0.0930 -0.4424
  765MOL0     C  864   1.318   3.014   7.269 -0.9300 -0.4456 -0.3817
  765MOL0     N  865   1.181   3.038   7.212 -0.6267 -0.0682  0.1320
  765MOL0     C  866   1.144   3.106   7.099  0.4539 -0.6267 -0.9585
  765MOL0     C  867   1.006   3.096   7.100 -0.1175 -0.4609 -0.1571
  765MOL0     C  868   0.913   3.149   6.989 -0.0751  0.9481  0.4643
  765MOL0     C  869   0.866   3.034   6.895 -0.3726 -0.0733 -0.2724
  765MOL0     C  870   0.716   3.013   6.916 -0.8374  0.5011 -0.4601
  765MOL0     C  871   0.686   2.941   7.052 -0.1116  0.2050  0.3751
  765MOL0     O  872   0.546   2.924   7.067  0.2405 -0.0619  0.0544
  765MOL0     C  873   0.486   2.867   7.169 -0.6565 -0.0409  0.1159
  765MOL0     C  874   0.351   2.889   7.179 -0.1801  0.2010 -0.1824
  765MOL0     C  875   0.274   2.833   7.283 -0.3126 -0.6308  0.0521
  765MOL0     C  876   0.336   2.749   7.380  0.0831 -0.9417 -0.3375
  765MOL0     C  877   0.251   2.693   7.495  0.0960  0.1553  0.3088
  765MOL0     O  878   0.119   2.730   7.497 -0.3795  0.3646 -0.3286
  765MOL0     C  879   0.047   2.679   7.603  0.1398  0.9184  0.2280
  765MOL0     C  880  -0.068   2.611   7.575 -0.1002  0.1932 -0.0293
  765MOL0     C  881  -0.146   2.564   7.684  0.9202 -0.3226  0.0927
  765MOL0     C  882  -0.124   2.600   7.814  0.2993  0.5905  0.1570
  765MOL0     O  883  -0.224   2.557   7.900 -0.2839  0.3813  0.3797
  765MOL0     C  884  -0.184   2.572   8.042 -0.0164  0.7900 -0.5470
  765MOL0     C  885  -0.280   2.541   8.158 -0.1010 -0.3269 -0.2551
  765MOL0     C  886  -0.329   2.398   8.153 -0.1944  0.2663  0.7002
  765MOL0     C  887  -0.386   2.339   8.283 -0.3350 -0.6564 -0.5401
  765MOL0     C  888  -0.484   2.438   8.360 -0.1249  0.2170 -0.1737
  765MOL0     C  889  -0.540   2.374   8.486 -1.2620  0.2340  0.0823
  765MOL0     C  890  -0.641   2.266   8.452 -0.1262 -0.4491 -0.5845
  765MOL0     C  891  -0.694   2.184   8.568  0.6784 -0.0741 -0.1082
  765MOL0    Cl  892  -0.566   2.094   8.661 -0.2692 -0.3338 -0.2449
  765MOL0     C  893  -0.010   2.670   7.844  0.2398  0.1972 -0.6535
  765MOL0     C  894   0.076   2.699   7.738  0.5416  0.4966 -0.3492
  765MOL0     O  895   0.301   2.614   7.571  0.4046 -0.3429 -0.5081
  765MOL0     C  896   0.472   2.726   7.368  0.4343  0.4068  0.5455
  765MOL0     C  897   0.546   2.784   7.272  0.3553 -0.0442 -0.3221
  765MOL0     N  898   0.961   3.024   7.216  0.2124  0.2218  0.6170
  765MOL0     N  899   1.071   2.982   7.272 -0.5788 -0.5180  0.4834
  765MOL0     C  900   2.170   3.429   7.754 -0.1039 -0.1743 -0.4776
  765MOL0     C  901   2.288   3.475   7.820  0.3765 -0.0518 -0.7169
  765MOL0     C  902   2.604   3.811   7.952  0.1101 -1.3069 -0.0125
  765MOL0     C  903   2.716   3.891   7.925 -0.0173 -1.1880 -0.4808
  765MOL0     C  904   2.813   3.925   8.029 -0.3606  0.6809  0.4718
  765MOL0     C  905   2.796   3.870   8.159 -0.0060  1.0800 -0.1056
  765MOL0     O  906   2.875   3.879   8.265 -0.4770 -0.0524  0.0078
  765MOL0     C  907   3.008   3.927   8.238 -0.4446  0.4029  0.5837
  765MOL0     C  908   3.103   3.895   8.356  0.6365 -0.1741 -0.2836
  765MOL0     C  909   3.091   3.961   8.496  0.7301  0.4868  0.2992
  765MOL0     C  910   3.194   3.884   8.577 -0.2706  0.8077 -0.2371
  765MOL0     C  911   3.189   3.931   8.716  0.1090 -0.2740 -0.3718
  765MOL0     C  912   3.178   3.974   8.826 -0.0742 -0.6189  0.1284
  765MOL0     C  913   2.682   3.796   8.182  0.0694 -1.0043 -0.6868
  765MOL0     C  914   2.588   3.772   8.087 -0.6989  0.8447  0.3234
  765MOL0     H  915   2.289   3.799   7.692 -1.2845 -0.6118 -1.0238
  765MOL0     H  916   2.087   3.714   7.583  0.0208  1.0017  0.3526
  765MOL0     H  917   1.923   3.618   7.486  0.3645  0.2426  0.0979
  765MOL0     H  918   1.857   3.596   7.639 -0.3850  0.5882 -1.4862
  765MOL0     H  919   1.703   3.546   7.491  3.5505  2.5082  0.8803
  765MOL0     H  920   1.737   3.389   7.572 -1.0416 -0.3658  0.1623
  765MOL0     H  921   1.883   3.325   7.375 -1.5326 -2.5933 -0.2048
  765MOL0     H  922   1.820   3.481   7.303  1.6248  1.2445  1.2136
  765MOL0     H  923   1.599   3.405   7.298  0.2551  2.0062  3.4223
  765MOL0     H  924   1.701   3.269   7.226 -0.9022 -0.5834  0.9247
  765MOL0     H  925   1.550   3.278   7.493 -0.2372 -1.1528  0.9366
  765MOL0     H  926   1.693   3.183   7.482  0.3641  1.9939  0.3487
  765MOL0     H  927   1.527   3.036   7.453  3.0985  1.3750  2.0873
  765MOL0     H  928   1.585   3.045   7.292 -1.3713  1.4444 -1.7650
  765MOL0     H  929   1.333   3.205   7.387 -2.1453  0.3181 -2.5396
  765MOL0     H  930   1.404   3.204   7.226  2.3736 -0.9748 -0.9093
  765MOL0     H  931   1.319   2.935   7.345  0.0600 -2.8821 -2.7497
  765MOL0     H  932   1.385   2.971   7.194 -1.6408 -0.3867 -1.0661
  765MOL0     H  933   1.210   3.157   7.030  1.6667  1.5580  1.5800
  765MOL0     H  934   0.971   3.227   6.937 -2.1071  0.5526 -2.6611
  765MOL0     H  935   0.828   3.193   7.041  0.2735 -0.8366  2.6916
  765MOL0     H  936   0.911   2.936   6.911 -4.3187 -2.3736 -1.8194
  765MOL0     H  937   0.873   3.052   6.788 -1.0345  2.1486  0.0076
  765MOL0     H  938   0.654   3.102   6.924 -0.2029  0.7714  2.5970
  765MOL0     H  939   0.673   2.956   6.833  1.0627  0.3950 -1.4316
  765MOL0     H  940   0.723   3.008   7.131  1.8764  0.8023 -0.9524
  765MOL0     H  941   0.737   2.845   7.060  0.3815  0.4673  0.4581
  765MOL0     H  942   0.312   2.970   7.118 -0.1441  0.4674  0.1473
  765MOL0     H  943   0.167   2.843   7.297 -0.0191 -0.6583  2.8431
  765MOL0     H  944  -0.097   2.607   7.471  3.8760 -0.1251 -1.2583
  765MOL0     H  945  -0.239   2.516   7.657  0.8980  0.5575 -1.5071
  765MOL0     H  946  -0.161   2.679   8.045  2.3001  0.6352 -4.8070
  765MOL0     H  947  -0.088   2.522   8.058 -0.1958  0.8343  0.7769
  765MOL0     H  948  -0.370   2.602   8.151 -0.4225 -0.9748 -2.3120
  765MOL0     H  949  -0.235   2.561   8.256 -0.6401 -0.0296 -0.0653
  765MOL0     H  950  -0.244   2.330   8.140 -1.0498 -1.2001  2.3243
  765MOL0     H  951  -0.402   2.381   8.074 -0.3537  1.7579  0.5075
  765MOL0     H  952  -0.430   2.242   8.257 -0.6434 -0.6460 -0.0635
  765MOL0     H  953  -0.305   2.318   8.353 -1.3408  0.2338  0.9444
  765MOL0     H  954  -0.575   2.468   8.307 -0.8529  0.4959  1.1703
  765MOL0     H  955  -0.432   2.529   8.391 -0.1636 -0.2659  1.4206
  765MOL0     H  956  -0.589   2.440   8.559 -3.0739  0.0249 -0.9011
  765MOL0     H  957  -0.457   2.324   8.536 -1.8070 -0.5456  0.2232
  765MOL0     H  958  -0.715   2.325   8.397 -0.3269 -0.1078  0.0331
  765MOL0     H  959  -0.593   2.196   8.383  1.0756 -1.5283  1.2621
  765MOL0     H  960  -0.764   2.112   8.525  0.3611  0.6793 -0.8877
  765MOL0     H  961  -0.740   2.251   8.642  2.7734  4.3020 -2.3427
  765MOL0     H  962   0.017   2.703   7.944  1.9430 -0.9128 -0.7036
  765MOL0     H  963   0.169   2.752   7.756  0.3342  1.2754 -1.4511
  765MOL0     H  964   0.509   2.655   7.442  0.7442 -0.9364 -0.8444
  765MOL0     H  965   0.654   2.771   7.268  0.4345  0.8409 -2.2187
  765MOL0     H  966   2.148   3.324   7.767  1.7612 -0.5477 -0.1041
  765MOL0     H  967   2.335   3.403   7.885 -0.1565  0.5161  0.3253
  765MOL0     H  968   2.730   3.927   7.824 -1.1120  2.1100  0.4061
  765MOL0     H  969   2.892   3.997   8.011 -1.5637  1.2027 -3.8088
  765MOL0     H  970   3.003   4.035   8.221 -0.0847  0.0354 -2.3599
  765MOL0     H  971   3.047   3.890   8.143 -1.6011 -4.7126  1.8081
  765MOL0     H  972   3.096   3.786   8.363  1.2894 -0.1056  3.6776
  765MOL0     H  973   3.203   3.922   8.320  0.2729  0.8332 -0.5528
  765MOL0     H  974   2.997   3.944   8.549  1.1893 -1.3992  0.5601
  765MOL0     H  975   3.111   4.069   8.494 -2.3121  1.1390 -0.1592
  765MOL0     H  976   3.176   3.776   8.580  1.1100  0.4197 -2.9448
  765MOL0     H  977   3.287   3.897   8.522 -1.4257  0.2961 -2.4561
  765MOL0     H  978   3.182   3.998   8.930 -1.1860 -3.3403  0.9116
  765MOL0     H  979   2.661   3.753   8.280 -1.0297 -1.5382 -1.1423
  765MOL0     H  980   2.509   3.702   8.115 -1.0821  0.6659 -1.1313
  766MOL0     O  981   9.110  10.283   9.662  0.0841 -0.0531 -0.1099
  766MOL0     C  982   9.158  10.177   9.692 -0.4373  0.1128 -0.3375
  766MOL0     O  983   9.091  10.058   9.704 -0.2952 -0.6837  0.1089
  766MOL0     C  984   8.951  10.049   9.702  0.1021  0.0698 -0.0408
  766MOL0     C  985   8.869  10.148   9.739  0.1525 -0.5396 -0.0498
  766MOL0     C  986   8.732  10.139   9.733  0.1767  0.5049  0.5049
  766MOL0     C  987   8.669  10.024   9.697 -0.8871 -0.0468  0.0677
  766MOL0     O  988   8.540   9.997   9.722  0.5615 -0.8866 -0.3538
  766MOL0     C  989   8.445  10.108   9.718 -0.3788  0.3735  0.7612
  766MOL0     C  990   8.316  10.046   9.690  0.0201  0.4937 -0.7768
  766MOL0     C  991   8.218  10.157   9.658  0.3565  0.5525 -0.8932
  766MOL0     C  992   8.073  10.104   9.638  0.1036 -0.0375  0.5602
  766MOL0     C  993   7.972  10.216   9.614  0.1055  0.1734 -0.2015
  766MOL0     C  994   7.963  10.320   9.729 -0.8482  0.7204 -0.2741
  766MOL0     C  995   7.844  10.405   9.709  0.4228  0.0429 -0.8401
  766MOL0     C  996   7.859  10.534   9.798 -0.5024  0.0027  0.0667
  766MOL0     N  997   7.835  10.498   9.936 -0.4939  0.7043 -0.1442
  766MOL0     C  998   7.704  10.461   9.979  0.4645  0.6144  0.2537
  766MOL0     C  999   7.708  10.464  10.112 -0.0892  0.6740 -0.2958
  766MOL0     C 1000   7.600  10.432  10.213  0.1109 -0.2794  0.9150
  766MOL0     C 1001   7.461  10.460  10.168 -0.1249  0.4647 -0.2383
  766MOL0     C 1002   7.355  10.426  10.277  0.4481  0.3337  0.8071
  766MOL0     C 1003   7.212  10.431  10.223  0.8394 -0.5776  0.0445
  766MOL0     O 1004   7.144  10.558  10.242 -0.0594 -0.0976 -0.2558
  766MOL0     C 1005   7.037  10.572  10.158 -0.1650 -0.5920 -0.2832
  766MOL0     C 1006   7.022  10.704  10.098  0.5732 -0.0611 -0.6978
  766MOL0     C 1007   6.904  10.732  10.029 -0.1843  0.3949  0.1760
  766MOL0     C 1008   6.810  10.633  10.009  0.4524 -1.0291 -0.3063
  766MOL0     C 1009   6.679  10.664   9.937 -0.9973 -0.0388 -0.8115
  766MOL0     O 1010   6.628  10.558   9.877  0.3889  0.4330  0.6078
  766MOL0     C 1011   6.488  10.538   9.856  0.0274  0.0237 -0.9036
  766MOL0     C 1012   6.401  10.614   9.931  0.1130 -0.0347  0.9684
  766MOL0     C 1013   6.264  10.596   9.940  0.1536 -0.3401  0.2348
  766MOL0     C 1014   6.212  10.500   9.851  0.2020  0.3440  1.0027
  766MOL0     O 1015   6.074  10.484   9.835  0.2073 -0.1759 -0.6151
  766MOL0     C 1016   6.023  10.522   9.707 -0.3582 -1.0128  0.3833
  766MOL0     C 1017   5.912  10.428   9.676  0.8666 -0.1062  0.6023
  766MOL0     C 1018   5.795  10.432   9.785  0.3033  0.2853 -0.2055
  766MOL0     C 1019   5.666  10.372   9.742  0.1849 -0.0790 -0.6157
  766MOL0     C 1020   5.560  10.365   9.855  0.0127  0.8266  0.0752
  766MOL0     C 1021   5.544  10.224   9.923 -0.2367 -0.4832 -0.2160
  766MOL0     C 1022   5.469  10.242  10.054  0.5759  0.4917 -0.3165
  766MOL0     C 1023   5.473  10.108  10.130 -0.5185 -0.4477 -0.5774
  766MOL0    Cl 1024   5.377  10.118  10.282  0.0042  0.2466 -0.1422
  766MOL0     C 1025   6.296  10.419   9.765 -0.0413  0.5984  0.2316
  766MOL0     C 1026   6.439  10.437   9.773  0.3247 -0.1722 -0.0913
  766MOL0     O 1027   6.650  10.783   9.925 -0.3185 -0.3662 -0.3676
  766MOL0     C 1028   6.828  10.504  10.058 -0.1283 -0.3660  0.7556
  766MOL0     C 1029   6.940  10.467  10.130 -0.3214 -0.7340 -0.0112
  766MOL0     N 1030   7.831  10.495  10.152 -0.6990  0.0438  1.0086
  766MOL0     N 1031   7.904  10.522  10.048  0.0235 -0.7981 -0.3962
  766MOL0     C 1032   8.748   9.913   9.659 -0.9202  0.0709  0.0027
  766MOL0     C 1033   8.893   9.928   9.669  0.1429 -0.1335  0.1298
  766MOL0     C 1034   9.300  10.189   9.725 -0.2765 -0.1615 -0.0789
  766MOL0     C 1035   9.365  10.315   9.714 -0.4229  0.7866  0.1979
  766MOL0     C 1036   9.504  10.324   9.743  0.3174  0.4037  0.0070
  766MOL0     C 1037   9.585  10.206   9.776 -0.1158  0.3305  1.2609
  766MOL0     O 1038   9.717  10.213   9.809  0.4726 -0.2626 -0.9932
  766MOL0     C 1039   9.789  10.334   9.791  0.5476 -0.1792  0.9553
  766MOL0     C 1040   9.943  10.317   9.801 -0.4499  0.1244 -0.6766
  766MOL0     C 1041  10.016  10.451   9.780  0.2736  0.8258  0.6799
  766MOL0     C 1042  10.155  10.433   9.720 -0.2595  0.1303  0.5315
  766MOL0     C 1043  10.242  10.349   9.803 -0.0620 -0.2142  0.3794
  766MOL0     C 1044  10.329  10.287   9.862 -0.6903  0.1061  0.3991
  766MOL0     C 1045   9.516  10.083   9.762 -0.6965 -0.1646 -0.1734
  766MOL0     C 1046   9.381  10.071   9.743 -0.4861 -0.4607 -0.6097
  766MOL0     H 1047   8.905  10.249   9.756 -1.1360  0.1113 -1.0553
  766MOL0     H 1048   8.670  10.213   9.784  0.7767 -0.3332  2.5648
  766MOL0     H 1049   8.464  10.184   9.642  1.9324  1.2855  2.1321
  766MOL0     H 1050   8.448  10.159   9.815 -1.2008  4.0369 -0.9572
  766MOL0     H 1051   8.273   9.985   9.769 -0.3815  1.5779 -0.1456
  766MOL0     H 1052   8.322   9.987   9.597 -1.7327 -0.0154 -0.5946
  766MOL0     H 1053   8.237  10.213   9.566 -3.0982 -0.8570 -2.6556
  766MOL0     H 1054   8.217  10.232   9.739 -3.0964  0.2049 -0.4594
  766MOL0     H 1055   8.063  10.050   9.543 -0.0381  0.3962  0.3224
  766MOL0     H 1056   8.029  10.037   9.712 -1.7489  0.8464  0.3389
  766MOL0     H 1057   7.874  10.169   9.601  1.5218 -2.8865 -0.7015
  766MOL0     H 1058   8.005  10.260   9.519  0.0838 -0.8942 -0.7240
  766MOL0     H 1059   8.055  10.376   9.715  1.2934 -2.8331 -1.6688
  766MOL0     H 1060   7.959  10.263   9.822 -0.4871 -1.0483 -1.2920
  766MOL0     H 1061   7.839  10.443   9.607 -1.5114  0.0203 -0.7872
  766MOL0     H 1062   7.752  10.347   9.724 -0.1072  0.9047 -0.6989
  766MOL0     H 1063   7.788  10.610   9.763 -1.7568 -1.8422 -1.6013
  766MOL0     H 1064   7.962  10.567   9.788 -0.0613  0.4268  4.2015
  766MOL0     H 1065   7.616  10.423   9.928 -0.3899  2.0480  0.6020
  766MOL0     H 1066   7.623  10.490  10.303  0.7815  0.5330  0.2377
  766MOL0     H 1067   7.607  10.328  10.244 -0.9536 -0.6245  0.1039
  766MOL0     H 1068   7.447  10.409  10.072  0.7207  1.9607 -1.2067
  766MOL0     H 1069   7.447  10.563  10.131  1.4981 -0.2459 -3.1758
  766MOL0     H 1070   7.367  10.322  10.307 -2.3722 -0.7192 -1.2600
  766MOL0     H 1071   7.365  10.501  10.355 -0.2788  1.2152  0.0807
  766MOL0     H 1072   7.162  10.347  10.271 -0.4284 -0.8801 -1.7111
  766MOL0     H 1073   7.212  10.417  10.115 -0.5451  2.8297 -0.5445
  766MOL0     H 1074   7.098  10.779  10.114  0.2025  0.4551 -1.3186
  766MOL0     H 1075   6.895  10.825   9.975  4.5128  1.0915  0.1966
  766MOL0     H 1076   6.428  10.695   9.998  0.4694  0.8495 -0.2109
  766MOL0     H 1077   6.203  10.664   9.997 -0.3253  0.3351 -1.0543
  766MOL0     H 1078   6.098  10.515   9.629 -0.0374  0.6541  0.4968
  766MOL0     H 1079   5.979  10.623   9.704  0.4670 -0.6688 -0.7432
  766MOL0     H 1080   5.952  10.327   9.660  1.8314  0.0531  1.8023
  766MOL0     H 1081   5.877  10.459   9.578  4.2778  2.6548  0.0701
  766MOL0     H 1082   5.777  10.534   9.820  2.5737  0.5806  0.2570
  766MOL0     H 1083   5.836  10.383   9.874  0.4409  1.7942  0.5773
  766MOL0     H 1084   5.620  10.438   9.667  1.3839  0.2544 -1.0747
  766MOL0     H 1085   5.689  10.279   9.689  0.4727  0.5186 -1.5610
  766MOL0     H 1086   5.462  10.388   9.811  0.8737  3.0963 -0.8686
  766MOL0     H 1087   5.580  10.443   9.930  0.5882  0.3910  0.3815
  766MOL0     H 1088   5.643  10.183   9.946 -0.0881 -0.7122 -1.2347
  766MOL0     H 1089   5.492  10.158   9.854  0.0993 -0.0720 -0.8652
  766MOL0     H 1090   5.514  10.320  10.117  1.8911 -1.3123  1.0657
  766MOL0     H 1091   5.363  10.262  10.035 -0.3287 -0.2770  3.2633
  766MOL0     H 1092   5.579  10.084  10.144  0.1555 -0.1314 -4.2000
  766MOL0     H 1093   5.441  10.033  10.058  2.2206  1.3405 -3.9748
  766MOL0     H 1094   6.249  10.344   9.703  3.7813 -0.0985 -2.1467
  766MOL0     H 1095   6.512  10.378   9.717 -0.2238  0.0968 -1.1099
  766MOL0     H 1096   6.750  10.437  10.024 -2.1316  1.5095  1.4756
  766MOL0     H 1097   6.945  10.369  10.176  3.0203  0.3430  2.2665
  766MOL0     H 1098   8.703   9.823   9.617 -3.6163  0.9909  0.6920
  766MOL0     H 1099   8.960   9.845   9.651  0.0817  0.1932 -1.7749
  766MOL0     H 1100   9.318  10.402   9.668 -2.5875 -0.8826 -0.9629
  766MOL0     H 1101   9.560  10.416   9.730  0.4925  0.3663  0.4670
  766MOL0     H 1102   9.766  10.405   9.871  1.0825 -0.3439  1.2586
  766MOL0     H 1103   9.778  10.389   9.697  3.3358  1.4860  1.4966
  766MOL0     H 1104   9.964  10.296   9.907 -0.1777  0.4013 -0.6750
  766MOL0     H 1105   9.980  10.235   9.740  1.4416  0.1113  0.4185
  766MOL0     H 1106  10.027  10.507   9.873  0.1895 -0.1754  1.3032
  766MOL0     H 1107   9.957  10.515   9.713  1.4225  2.6146  1.3050
  766MOL0     H 1108  10.155  10.385   9.622 -0.9603 -3.4054  2.1290
  766MOL0     H 1109  10.203  10.528   9.693 -1.1995  0.2079 -0.9690
  766MOL0     H 1110  10.420  10.246   9.903 -1.1947 -1.6011 -0.0966
  766MOL0     H 1111   9.578   9.997   9.783 -1.9878 -0.5808  2.2017
  766MOL0     H 1112   9.340   9.971   9.748 -2.2358  0.2698  0.8531
  767MOL0     O 1113   4.746   5.808   0.481  0.0223  0.2142 -0.5199
  767MOL0     C 1114   4.773   5.929   0.505  0.0083  0.5565 -0.3184
  767MOL0     O 1115   4.694   6.036   0.478  0.3644 -0.2623 -0.2789
  767MOL0     C 1116   4.557   6.024   0.447  0.4360  1.2775 -0.0984
  767MOL0     C 1117   4.477   5.934   0.508  0.1508 -0.5083 -0.1088
  767MOL0     C 1118   4.345   5.945   0.479 -0.4820  0.4206  0.2492
  767MOL0     C 1119   4.292   6.025   0.382 -0.4420 -0.7923  0.2569
  767MOL0     O 1120   4.163   6.023   0.347 -0.1869  0.2724  0.5551
  767MOL0     C 1121   4.061   5.982   0.435 -0.5323 -0.5241  0.3872
  767MOL0     C 1122   3.927   6.024   0.365 -0.4436  0.4860 -0.6574
  767MOL0     C 1123   3.801   5.942   0.418 -0.1658 -0.8587  0.7021
  767MOL0     C 1124   3.670   5.980   0.347 -0.1005 -0.2654 -0.3990
  767MOL0     C 1125   3.557   5.898   0.413 -0.2709  0.5731 -0.3094
  767MOL0     C 1126   3.427   5.946   0.349  0.4016  0.4258  0.6568
  767MOL0     C 1127   3.299   5.912   0.425 -0.1516  0.0792  1.0409
  767MOL0     C 1128   3.175   5.983   0.365  0.0379  0.7458 -0.3688
  767MOL0     N 1129   3.050   5.947   0.441  0.0447  0.0376  0.3116
  767MOL0     C 1130   3.033   5.944   0.577  0.3803  0.2495  0.1059
  767MOL0     C 1131   2.907   5.890   0.602 -0.5385 -0.0080 -0.2366
  767MOL0     C 1132   2.834   5.877   0.738  0.1165 -0.3728  1.2327
  767MOL0     C 1133   2.816   6.009   0.804  1.3064 -0.3389 -0.9752
  767MOL0     C 1134   2.742   6.001   0.942  0.4204  0.5178 -0.0213
  767MOL0     C 1135   2.599   5.943   0.939 -0.0090  0.0770 -0.5751
  767MOL0     O 1136   2.541   5.985   1.071  0.7352  0.4310 -0.1304
  767MOL0     C 1137   2.401   5.991   1.062  0.0972 -0.3321 -0.7056
  767MOL0     C 1138   2.339   6.101   0.994  0.3702  0.7283  0.0337
  767MOL0     C 1139   2.198   6.110   0.988  0.6501  0.5739 -0.7245
  767MOL0     C 1140   2.122   6.010   1.067 -0.1162  0.0692  0.2540
  767MOL0     C 1141   1.973   6.020   1.074  0.1900  0.1751  0.5717
  767MOL0     O 1142   1.905   5.917   1.139 -0.5633  0.8400 -0.3408
  767MOL0     C 1143   1.768   5.912   1.117 -0.0678 -0.8464 -1.5060
  767MOL0     C 1144   1.707   5.882   0.998 -0.0787 -0.8754  0.8031
  767MOL0     C 1145   1.567   5.878   0.985 -0.4585  0.5042  0.2361
  767MOL0     C 1146   1.486   5.895   1.092  0.3840 -0.1558  0.5367
  767MOL0     O 1147   1.357   5.891   1.089  0.3998  0.0867 -0.0091
  767MOL0     C 1148   1.309   5.999   0.996  1.1223  0.3923 -0.0336
  767MOL0     C 1149   1.147   5.991   1.014  0.1009 -0.6675 -1.1840
  767MOL0     C 1150   1.088   5.874   0.936  0.5577 -1.3045  0.1484
  767MOL0     C 1151   0.933   5.893   0.937 -0.4757 -0.4281 -0.5281
  767MOL0     C 1152   0.861   5.810   1.038 -0.1911  0.1897 -0.4253
  767MOL0     C 1153   0.708   5.831   1.047 -0.4706  0.3145 -0.1292
  767MOL0     C 1154   0.661   5.730   1.155 -0.2226  0.3697 -0.2931
  767MOL0     C 1155   0.512   5.706   1.162 -0.0084  0.5010 -0.6585
  767MOL0    Cl 1156   0.430   5.865   1.177 -0.4943 -0.4969 -0.2858
  767MOL0     C 1157   1.545   5.915   1.220 -0.5421 -1.1073 -0.5608
  767MOL0     C 1158   1.690   5.938   1.232 -0.1908  0.0479  1.1679
  767MOL0     O 1159   1.912   6.123   1.032 -0.2353  0.2814 -0.6397
  767MOL0     C 1160   2.190   5.913   1.149 -0.1186 -0.5696  0.1055
  767MOL0     C 1161   2.324   5.896   1.133 -0.5589 -0.5179 -0.3381
  767MOL0     N 1162   2.854   5.867   0.481 -0.1904  0.0143  0.5699
  767MOL0     N 1163   2.937   5.901   0.387 -0.2230  1.1240 -0.5224
  767MOL0     C 1164   4.374   6.117   0.320  0.0034  0.6034 -0.2189
  767MOL0     C 1165   4.512   6.118   0.351 -0.1212 -0.5722 -0.2326
  767MOL0     C 1166   4.916   5.961   0.549  0.1500 -0.6720 -0.2326
  767MOL0     C 1167   5.007   5.866   0.589 -0.3774 -0.0882  0.2388
  767MOL0     C 1168   5.132   5.901   0.631  0.6399 -0.4215 -0.3581
  767MOL0     C 1169   5.173   6.041   0.638 -0.0716  0.0172 -0.6788
  767MOL0     O 1170   5.300   6.083   0.675 -0.5277 -0.1967 -0.5868
  767MOL0     C 1171   5.412   6.001   0.707  0.0764  0.5216 -0.3495
  767MOL0     C 1172   5.398   5.946   0.844  0.9930  0.2895  0.5332
  767MOL0     C 1173   5.435   6.041   0.950  0.6287  0.2665 -0.0661
  767MOL0     C 1174   5.459   5.958   1.079 -1.0141 -1.0778  0.4038
  767MOL0     C 1175   5.524   6.044   1.182  0.0112 -0.2797  0.1245
  767MOL0     C 1176   5.558   6.116   1.274 -0.3585  0.1722  0.2106
  767MOL0     C 1177   5.090   6.138   0.588 -0.1650  0.4742 -0.0518
  767MOL0     C 1178   4.961   6.096   0.535  0.5669 -0.4102 -0.9517
  767MOL0     H 1179   4.505   5.859   0.581 -2.2605 -2.9623 -1.5426
  767MOL0     H 1180   4.287   5.873   0.536  0.9889 -0.5654  0.5729
  767MOL0     H 1181   4.067   6.042   0.527  0.2075 -0.7053  0.4646
  767MOL0     H 1182   4.057   5.875   0.458 -0.7590 -0.3327  1.3071
  767MOL0     H 1183   3.925   6.019   0.256 -0.8918  0.3584 -0.6436
  767MOL0     H 1184   3.910   6.128   0.395 -2.9547  0.0926 -0.4980
  767MOL0     H 1185   3.780   5.958   0.524 -1.2122 -1.0652  0.5330
  767MOL0     H 1186   3.829   5.836   0.413  0.6433 -0.6196 -0.0804
  767MOL0     H 1187   3.666   6.088   0.331  2.2788  0.0429  0.7052
  767MOL0     H 1188   3.668   5.938   0.246  1.8493 -0.0899 -0.5361
  767MOL0     H 1189   3.561   5.925   0.519 -2.5578 -3.8274  1.1751
  767MOL0     H 1190   3.572   5.790   0.409 -0.9834  0.4913 -3.7816
  767MOL0     H 1191   3.416   5.887   0.258 -2.2901 -1.4281  2.0392
  767MOL0     H 1192   3.425   6.053   0.326 -0.3974  0.3591  0.3750
  767MOL0     H 1193   3.287   5.803   0.427 -2.2922  0.2608  0.5650
  767MOL0     H 1194   3.313   5.951   0.526  2.0487  2.2120  0.0181
  767MOL0     H 1195   3.171   5.948   0.262  1.5684  0.7537 -0.4476
  767MOL0     H 1196   3.191   6.091   0.370  1.7877  0.5457 -0.9736
  767MOL0     H 1197   3.099   5.987   0.652  2.0611  0.3808 -1.3784
  767MOL0     H 1198   2.888   5.802   0.797  1.7932 -0.0910  0.1204
  767MOL0     H 1199   2.734   5.842   0.712 -1.8840  3.8093  2.4168
  767MOL0     H 1200   2.747   6.062   0.739  1.3504  0.6988 -0.2030
  767MOL0     H 1201   2.909   6.062   0.827  0.5773  1.1218 -1.2565
  767MOL0     H 1202   2.805   5.957   1.019 -0.3418 -0.0071  0.3194
  767MOL0     H 1203   2.729   6.097   0.992 -0.7413 -0.0665  0.8550
  767MOL0     H 1204   2.605   5.835   0.923 -0.2668  0.0103 -0.2228
  767MOL0     H 1205   2.547   5.990   0.855  3.2716  0.4022 -2.6090
  767MOL0     H 1206   2.383   6.167   0.921  0.7525  1.0820  0.5784
  767MOL0     H 1207   2.153   6.182   0.920  0.9332  1.2526 -0.2035
  767MOL0     H 1208   1.772   5.850   0.917 -0.6902  0.4513 -0.2623
  767MOL0     H 1209   1.539   5.861   0.881  2.7660 -1.3947 -0.4538
  767MOL0     H 1210   1.346   5.996   0.893 -0.3857 -1.4637 -0.5749
  767MOL0     H 1211   1.334   6.099   1.033 -3.3699  0.6457  3.0051
  767MOL0     H 1212   1.120   6.088   0.973  3.7151 -0.1465 -2.7611
  767MOL0     H 1213   1.111   6.006   1.116 -1.2305 -3.1582 -1.1934
  767MOL0     H 1214   1.105   5.772   0.971 -1.8991 -1.5076  0.9359
  767MOL0     H 1215   1.122   5.871   0.832  1.9564 -0.6061  0.5480
  767MOL0     H 1216   0.901   5.998   0.940 -1.6178 -0.7775  1.0118
  767MOL0     H 1217   0.906   5.853   0.839  1.8553  2.2853 -2.4641
  767MOL0     H 1218   0.902   5.831   1.138 -0.3325 -1.1296 -0.0703
  767MOL0     H 1219   0.888   5.706   1.022 -1.1485  0.1948 -2.3146
  767MOL0     H 1220   0.664   5.808   0.950  1.2144 -1.5401 -0.5109
  767MOL0     H 1221   0.688   5.936   1.074 -1.8465  0.2743 -0.8982
  767MOL0     H 1222   0.698   5.631   1.129  1.3130  0.3395  1.7037
  767MOL0     H 1223   0.704   5.756   1.252  0.8660  0.0422 -0.6736
  767MOL0     H 1224   0.502   5.659   1.261  1.0013  2.9066  0.6721
  767MOL0     H 1225   0.483   5.648   1.074  0.6247  0.0465 -0.5755
  767MOL0     H 1226   1.487   5.932   1.310 -0.4223 -2.4353 -0.2082
  767MOL0     H 1227   1.748   5.951   1.323  5.1019 -1.0431 -1.6560
  767MOL0     H 1228   2.127   5.854   1.214 -0.3048  0.7952  1.1902
  767MOL0     H 1229   2.375   5.817   1.187 -2.3348 -1.9403 -0.6398
  767MOL0     H 1230   4.336   6.186   0.245  1.0845  2.3829  0.7939
  767MOL0     H 1231   4.579   6.190   0.307  0.6583 -1.2995 -0.2697
  767MOL0     H 1232   4.970   5.765   0.592  0.8032 -0.6013 -1.2279
  767MOL0     H 1233   5.203   5.824   0.661  0.2632 -0.1770  1.2585
  767MOL0     H 1234   5.510   6.046   0.686 -0.3748  1.2389 -0.9782
  767MOL0     H 1235   5.406   5.919   0.635  0.2968 -1.0610  1.3861
  767MOL0     H 1236   5.292   5.919   0.853  0.9094 -0.2121 -1.4650
  767MOL0     H 1237   5.455   5.854   0.855  1.1219  0.5736  2.6271
  767MOL0     H 1238   5.356   6.113   0.973  1.0357  0.2300  1.5287
  767MOL0     H 1239   5.529   6.093   0.934  2.4131 -3.0147 -1.1793
  767MOL0     H 1240   5.358   5.932   1.112 -2.1843  1.1771 -1.1292
  767MOL0     H 1241   5.506   5.862   1.059 -2.7515 -1.5204 -1.9369
  767MOL0     H 1242   5.593   6.190   1.343  2.5583 -1.4511  0.6527
  767MOL0     H 1243   5.123   6.240   0.576 -2.1731  1.0334 -1.3447
  767MOL0     H 1244   4.905   6.178   0.491  1.0976  1.1878  1.1859
  768MOL0     O 1245   3.370  10.290   4.456  0.4477  0.5045 -0.3590
  768MOL0     C 1246   3.426  10.282   4.348  0.0954  0.7974  0.3914
  768MOL0     O 1247   3.423  10.170   4.267  0.7641  0.3183  0.3494
  768MOL0     C 1248   3.318  10.083   4.297 -0.1833 -0.9355  0.5072
  768MOL0     C 1249   3.334   9.960   4.362  0.0604  0.1591  0.1506
  768MOL0     C 1250   3.225   9.877   4.357  0.0549 -0.0847  0.2414
  768MOL0     C 1251   3.094   9.905   4.301 -0.0919 -0.7600  0.3707
  768MOL0     O 1252   2.983   9.824   4.293 -0.6466  0.3573  0.1873
  768MOL0     C 1253   2.974   9.708   4.379 -0.8336  0.0010  0.1427
  768MOL0     C 1254   2.831   9.656   4.380 -0.1669 -0.8482 -0.5856
  768MOL0     C 1255   2.720   9.775   4.397 -0.6456  0.5066  0.4026
  768MOL0     C 1256   2.581   9.717   4.409 -0.3088  0.4624  1.0740
  768MOL0     C 1257   2.479   9.824   4.426  0.2589  0.5733  0.0960
  768MOL0     C 1258   2.333   9.780   4.379 -0.2389 -0.1839 -0.1484
  768MOL0     C 1259   2.265   9.667   4.454 -0.5514 -0.1745 -0.6557
  768MOL0     C 1260   2.146   9.618   4.374  0.1192  0.4487  0.1232
  768MOL0     N 1261   2.050   9.725   4.339  0.3912 -0.7582  0.4965
  768MOL0     C 1262   1.977   9.796   4.435  0.3308  0.2557  0.3781
  768MOL0     C 1263   1.876   9.866   4.374 -0.5681  0.3452 -0.5875
  768MOL0     C 1264   1.772   9.926   4.465  0.0607  0.4368 -0.0133
  768MOL0     C 1265   1.656   9.828   4.484 -0.0118 -0.3833  0.2060
  768MOL0     C 1266   1.563   9.864   4.598  0.7512  1.0281 -0.0500
  768MOL0     C 1267   1.439   9.784   4.601 -0.1912  0.6116  0.5219
  768MOL0     O 1268   1.356   9.827   4.495 -0.0044  0.6664 -0.5039
  768MOL0     C 1269   1.220   9.828   4.501  0.8911 -0.0546 -0.2907
  768MOL0     C 1270   1.156   9.831   4.382 -0.1745 -0.5136 -0.1601
  768MOL0     C 1271   1.013   9.828   4.369 -0.1380  0.3375 -0.1002
  768MOL0     C 1272   0.939   9.803   4.490 -0.4205  0.1191  0.0362
  768MOL0     C 1273   0.794   9.780   4.488  0.0309  0.5251 -0.1064
  768MOL0     O 1274   0.723   9.785   4.609 -0.0599 -0.4695  0.2301
  768MOL0     C 1275   0.588   9.802   4.615  0.0026  0.1428  0.4976
  768MOL0     C 1276   0.521   9.913   4.564 -0.6820 -0.0474  0.0826
  768MOL0     C 1277   0.391   9.927   4.594  0.5101 -0.1476 -0.0416
  768MOL0     C 1278   0.320   9.847   4.679  0.2564  0.3071 -0.9294
  768MOL0     O 1279   0.191   9.891   4.714  0.3338  0.4713 -0.0163
  768MOL0     C 1280   0.141   9.843   4.841  0.3191 -0.8460  0.5340
  768MOL0     C 1281   0.002   9.780   4.807 -0.8670  1.1363  0.7079
  768MOL0     C 1282  -0.089   9.765   4.926 -0.2159  0.0871  0.4439
  768MOL0     C 1283  -0.198   9.657   4.906  0.4441  0.7231 -0.3718
  768MOL0     C 1284  -0.312   9.678   5.014  0.0733  0.2992  0.8076
  768MOL0     C 1285  -0.398   9.806   5.018  0.3872  0.7625 -0.4538
  768MOL0     C 1286  -0.509   9.761   5.112  0.2019  0.2670 -0.2727
  768MOL0     C 1287  -0.599   9.877   5.142  0.9377 -0.6753 -0.0258
  768MOL0    Cl 1288  -0.743   9.824   5.236  0.4057  0.4100  0.3555
  768MOL0     C 1289   0.374   9.734   4.720 -0.9541  0.4535 -0.5282
  768MOL0     C 1290   0.509   9.705   4.690 -0.7236  0.0774 -0.5675
  768MOL0     O 1291   0.743   9.771   4.378  0.5829 -0.1077 -0.4721
  768MOL0     C 1292   1.004   9.791   4.611 -0.0575 -0.0390  0.2378
  768MOL0     C 1293   1.141   9.812   4.617 -0.2876 -0.4960 -0.4158
  768MOL0     N 1294   1.892   9.847   4.242  0.6335 -0.0945  1.1105
  768MOL0     N 1295   1.991   9.767   4.218 -0.0764 -0.1113 -0.9249
  768MOL0     C 1296   3.077  10.041   4.258 -0.2075  0.7392  0.1370
  768MOL0     C 1297   3.190  10.128   4.255  0.1748  0.1976  0.9766
  768MOL0     C 1298   3.516  10.388   4.310 -0.3017 -0.3060 -0.3508
  768MOL0     C 1299   3.570  10.387   4.178  0.0003  0.7812 -0.7508
  768MOL0     C 1300   3.662  10.486   4.139  0.2585 -1.0313 -1.0950
  768MOL0     C 1301   3.689  10.597   4.227 -0.1646 -0.4844  0.3585
  768MOL0     O 1302   3.774  10.693   4.180 -0.6453 -0.7563 -0.5253
  768MOL0     C 1303   3.723  10.775   4.076 -0.1750  0.0730  0.3871
  768MOL0     C 1304   3.768  10.914   4.092 -0.6127  0.2091 -0.8064
  768MOL0     C 1305   3.916  10.922   4.065  0.5958 -0.0054 -0.2704
  768MOL0     C 1306   3.971  11.063   4.085  0.7425  0.7391  0.0830
  768MOL0     C 1307   3.964  11.105   4.225 -0.4801 -0.6241  0.5389
  768MOL0     C 1308   3.958  11.131   4.342 -0.2076  0.3730  0.3112
  768MOL0     C 1309   3.643  10.601   4.352  0.3386 -0.0547 -0.4820
  768MOL0     C 1310   3.553  10.498   4.393  0.0774  0.2839  0.3895
  768MOL0     H 1311   3.420   9.920   4.414 -0.8732 -0.2317  1.4305
  768MOL0     H 1312   3.233   9.782   4.409 -0.4030 -0.2536  0.0167
  768MOL0     H 1313   3.011   9.741   4.476 -0.2111 -0.6575  0.1359
  768MOL0     H 1314   3.034   9.627   4.337  0.4399  1.0527 -0.1006
  768MOL0     H 1315   2.830   9.589   4.467 -0.4369  2.9393  2.5966
  768MOL0     H 1316   2.806   9.598   4.291 -1.7108  1.0062 -1.4222
  768MOL0     H 1317   2.721   9.857   4.325 -0.5912  1.1422  1.1218
  768MOL0     H 1318   2.740   9.829   4.490  2.2734  1.1632 -0.4871
  768MOL0     H 1319   2.565   9.659   4.318  1.6350  0.4450  0.7114
  768MOL0     H 1320   2.572   9.648   4.493 -0.3498 -1.2559 -0.2933
  768MOL0     H 1321   2.505   9.921   4.382  1.1481  0.5982  0.6592
  768MOL0     H 1322   2.470   9.845   4.533  1.9469 -1.2263  0.6551
  768MOL0     H 1323   2.338   9.749   4.274 -2.9397 -2.6435  0.3297
  768MOL0     H 1324   2.279   9.875   4.389  0.3138  0.0399  0.8087
  768MOL0     H 1325   2.331   9.582   4.475 -1.2113 -0.6249 -0.3498
  768MOL0     H 1326   2.228   9.700   4.551  0.3674  2.5060 -1.1380
  768MOL0     H 1327   2.085   9.545   4.428  2.2396 -1.5355  0.0180
  768MOL0     H 1328   2.190   9.572   4.285  0.2566  1.8559 -0.5584
  768MOL0     H 1329   1.993   9.782   4.542 -0.1042 -2.3790  0.1721
  768MOL0     H 1330   1.740  10.020   4.421 -1.1324  0.9983  1.9260
  768MOL0     H 1331   1.816   9.959   4.559 -0.9818  2.6092 -0.2292
  768MOL0     H 1332   1.685   9.726   4.509 -2.0182 -1.5700 -1.8547
  768MOL0     H 1333   1.602   9.827   4.389 -0.7167  0.9900  0.5699
  768MOL0     H 1334   1.625   9.846   4.687 -0.8365  1.3905  1.1692
  768MOL0     H 1335   1.525   9.967   4.604 -1.8590  0.0513  2.2050
  768MOL0     H 1336   1.398   9.794   4.701  0.4123 -2.3235  1.1605
  768MOL0     H 1337   1.470   9.680   4.587 -0.7914  0.8298 -3.9854
  768MOL0     H 1338   1.205   9.861   4.290  2.0650  1.7262  1.6213
  768MOL0     H 1339   0.976   9.841   4.268  1.4070 -0.4197 -0.7955
  768MOL0     H 1340   0.569   9.986   4.500  1.2336 -0.0686  1.4121
  768MOL0     H 1341   0.336  10.011   4.553 -0.0312 -0.2687  0.4228
  768MOL0     H 1342   0.119   9.925   4.910 -1.3622  0.0951 -1.0148
  768MOL0     H 1343   0.203   9.776   4.900 -2.2416 -3.9044  0.0588
  768MOL0     H 1344   0.023   9.675   4.782  1.3601  1.5097  0.7893
  768MOL0     H 1345  -0.063   9.827   4.733 -2.1402 -0.5586  0.6783
  768MOL0     H 1346  -0.137   9.861   4.946  0.4770  0.8252 -1.2132
  768MOL0     H 1347  -0.029   9.736   5.013  1.8493 -2.0405 -1.5548
  768MOL0     H 1348  -0.235   9.677   4.805  3.1449  3.4292 -0.9827
  768MOL0     H 1349  -0.162   9.555   4.918 -3.8332 -1.0393 -0.7662
  768MOL0     H 1350  -0.252   9.673   5.106  0.8631 -3.4743  0.2634
  768MOL0     H 1351  -0.381   9.594   5.003 -1.2061  0.9809  3.1147
  768MOL0     H 1352  -0.427   9.838   4.918 -1.9292 -0.0171 -0.0852
  768MOL0     H 1353  -0.344   9.893   5.058 -2.4658  2.7087 -0.5302
  768MOL0     H 1354  -0.559   9.670   5.077  1.4360  0.1205 -1.7913
  768MOL0     H 1355  -0.473   9.723   5.208 -1.3263 -2.2325 -0.6121
  768MOL0     H 1356  -0.643   9.925   5.054  0.3122 -0.2937  0.4864
  768MOL0     H 1357  -0.534   9.950   5.192 -0.4002  0.5890 -0.0845
  768MOL0     H 1358   0.325   9.669   4.792  0.7319 -0.9004 -0.5630
  768MOL0     H 1359   0.560   9.629   4.747  0.9213  1.6285  0.1370
  768MOL0     H 1360   0.955   9.751   4.699 -0.5487 -1.9753 -0.8597
  768MOL0     H 1361   1.184   9.796   4.715 -0.1225 -1.6460 -0.6665
  768MOL0     H 1362   2.984  10.086   4.225 -0.8350  0.9423  2.0158
  768MOL0     H 1363   3.175  10.228   4.214 -0.3520  0.2237  1.2260
  768MOL0     H 1364   3.543  10.306   4.110 -0.0626 -1.5638  1.8741
  768MOL0     H 1365   3.707  10.493   4.041 -0.3488  2.1274 -1.2537
  768MOL0     H 1366   3.614  10.784   4.081 -0.0123  1.5253  2.8000
  768MOL0     H 1367   3.758  10.732   3.982  0.7312 -0.2545  0.8539
  768MOL0     H 1368   3.717  10.984   4.025  1.5751  2.5587 -0.2027
  768MOL0     H 1369   3.752  10.948   4.195  1.5234 -1.2432  0.0820
  768MOL0     H 1370   3.936  10.888   3.963 -1.1945 -1.3883 -0.2000
  768MOL0     H 1371   3.964  10.850   4.132 -1.0701  0.0519  1.0393
  768MOL0     H 1372   4.066  11.071   4.031 -0.2702 -0.6904 -2.0334
  768MOL0     H 1373   3.903  11.121   4.022  4.0785  2.8695 -1.8797
  768MOL0     H 1374   3.937  11.154   4.445 -1.1690 -3.0346  1.0328
  768MOL0     H 1375   3.662  10.678   4.425 -0.0098 -0.5056  0.0950
  768MOL0     H 1376   3.509  10.509   4.492  0.4150  0.7542  0.4890
  769MOL0     O 1377   7.531   6.515   9.234 -0.6647  0.0016 -0.7154
  769MOL0     C 1378   7.569   6.482   9.116  0.1262  0.4863  0.1589
  769MOL0     O 1379   7.496   6.438   9.016  0.2141  0.1824 -0.2865
  769MOL0     C 1380   7.361   6.444   9.031 -0.2662 -0.2557  0.2697
  769MOL0     C 1381   7.293   6.328   9.049 -0.7254  0.2699 -0.7887
  769MOL0     C 1382   7.153   6.328   9.055 -0.1240 -0.1753 -0.8076
  769MOL0     C 1383   7.073   6.451   9.037 -0.5557 -0.5668  0.2270
  769MOL0     O 1384   6.936   6.456   9.020  0.0202 -0.0118 -0.4634
  769MOL0     C 1385   6.853   6.338   9.061 -0.7308 -0.4242 -0.0258
  769MOL0     C 1386   6.706   6.366   9.041  0.1559 -0.3648 -0.0254
  769MOL0     C 1387   6.684   6.383   8.898 -0.5317  0.3972  0.8091
  769MOL0     C 1388   6.538   6.405   8.848  0.3041  0.0184  0.1234
  769MOL0     C 1389   6.447   6.287   8.869 -0.5932  0.5909 -0.2217
  769MOL0     C 1390   6.331   6.277   8.757  0.0886 -0.5160 -0.5817
  769MOL0     C 1391   6.202   6.354   8.794 -0.3614  0.5855 -0.1686
  769MOL0     C 1392   6.087   6.314   8.698 -0.1232 -0.0085 -0.4514
  769MOL0     N 1393   6.104   6.330   8.551 -0.9552 -0.2216  0.0017
  769MOL0     C 1394   6.052   6.430   8.470 -0.6750  0.5009  0.5862
  769MOL0     C 1395   6.057   6.380   8.345  0.4592 -0.6951  0.4048
  769MOL0     C 1396   5.992   6.462   8.237  0.9639 -0.3433 -0.6009
  769MOL0     C 1397   5.849   6.420   8.201  0.4435  0.6074  0.6938
  769MOL0     C 1398   5.783   6.533   8.115 -0.0906 -0.8703 -0.3415
  769MOL0     C 1399   5.652   6.484   8.057  0.4133  0.0398  0.8755
  769MOL0     O 1400   5.581   6.600   8.006 -0.6778 -0.6093  0.0871
  769MOL0     C 1401   5.464   6.566   7.940  1.0160 -0.5441 -0.2521
  769MOL0     C 1402   5.402   6.661   7.859  0.1194  0.7201  0.1400
  769MOL0     C 1403   5.284   6.629   7.782 -1.5240  0.2134 -0.6807
  769MOL0     C 1404   5.228   6.509   7.809 -0.7370 -0.4259  0.3209
  769MOL0     C 1405   5.116   6.475   7.724 -0.8363  0.4185  0.3354
  769MOL0     O 1406   5.012   6.411   7.780  0.5758 -0.3198  0.3254
  769MOL0     C 1407   4.894   6.403   7.713 -0.0467 -1.0470  0.5841
  769MOL0     C 1408   4.788   6.497   7.740 -0.4498  0.3058 -0.2621
  769MOL0     C 1409   4.669   6.490   7.674  0.1951  0.4912 -0.2464
  769MOL0     C 1410   4.652   6.385   7.579  1.1042  1.0186 -0.2657
  769MOL0     O 1411   4.532   6.384   7.511  0.4893 -0.4276 -0.2421
  769MOL0     C 1412   4.467   6.258   7.481 -0.1390 -0.3343 -0.7033
  769MOL0     C 1413   4.317   6.304   7.466 -0.4342  0.5129 -0.8941
  769MOL0     C 1414   4.260   6.274   7.609 -0.2751 -0.2804  0.0184
  769MOL0     C 1415   4.109   6.293   7.600 -0.4507  0.1542  0.2101
  769MOL0     C 1416   4.019   6.255   7.721  0.2063 -0.4470  0.0340
  769MOL0     C 1417   3.869   6.240   7.690 -0.6365 -0.2616  0.0886
  769MOL0     C 1418   3.846   6.090   7.666  0.7602 -0.2610 -0.3540
  769MOL0     C 1419   3.703   6.059   7.625 -0.1174  0.4381 -0.3134
  769MOL0    Cl 1420   3.693   5.900   7.539  0.3213 -0.2267 -0.0801
  769MOL0     C 1421   4.746   6.287   7.558  0.8424 -0.1333  0.2766
  769MOL0     C 1422   4.869   6.303   7.614 -0.0589  0.4743  0.0065
  769MOL0     O 1423   5.129   6.509   7.612 -0.1063 -0.0024  0.5827
  769MOL0     C 1424   5.281   6.409   7.891  0.5472  0.8416  0.1359
  769MOL0     C 1425   5.407   6.435   7.951 -0.0130  0.6176  0.2603
  769MOL0     N 1426   6.107   6.250   8.343 -0.2024  0.2297 -0.1584
  769MOL0     N 1427   6.138   6.232   8.469 -0.4321  0.0959  0.3063
  769MOL0     C 1428   7.152   6.566   9.010  0.4199  0.1024  0.3163
  769MOL0     C 1429   7.288   6.560   9.015  0.6236  0.0274  0.3119
  769MOL0     C 1430   7.714   6.463   9.093 -0.2349  0.0297  0.2813
  769MOL0     C 1431   7.807   6.565   9.123  0.1061 -0.2386 -0.2530
  769MOL0     C 1432   7.944   6.554   9.083  0.9083 -0.3994  0.0607
  769MOL0     C 1433   7.992   6.440   9.027  0.3123  0.4825 -0.4953
  769MOL0     O 1434   8.128   6.424   8.985  0.2652 -0.9326 -0.0596
  769MOL0     C 1435   8.238   6.497   9.034  0.1830 -0.2343 -0.1717
  769MOL0     C 1436   8.242   6.486   9.189 -0.5771  0.0707  0.3489
  769MOL0     C 1437   8.387   6.517   9.240 -0.0336 -0.5309 -0.5839
  769MOL0     C 1438   8.413   6.478   9.385 -0.2281 -0.9740  0.5607
  769MOL0     C 1439   8.561   6.472   9.397 -0.1233  0.1024  0.6120
  769MOL0     C 1440   8.685   6.480   9.406  0.3249  0.0995 -0.1984
  769MOL0     C 1441   7.902   6.333   8.997  0.1233 -0.1078 -0.1529
  769MOL0     C 1442   7.761   6.344   9.036 -0.3136 -0.2560  0.2099
  769MOL0     H 1443   7.351   6.239   9.072 -2.5569 -1.0818 -1.1222
  769MOL0     H 1444   7.095   6.239   9.074  0.1557  0.0086  1.0086
  769MOL0     H 1445   6.873   6.314   9.166 -1.3669 -1.6264 -0.1683
  769MOL0     H 1446   6.883   6.250   9.003 -3.5257 -1.8539  0.5512
  769MOL0     H 1447   6.691   6.452   9.107  2.1644 -1.0352  1.4438
  769MOL0     H 1448   6.642   6.282   9.071 -0.0360  0.0788  0.8505
  769MOL0     H 1449   6.722   6.286   8.863 -1.6761 -0.0107  0.6619
  769MOL0     H 1450   6.743   6.469   8.866  1.0810 -0.8740  0.1964
  769MOL0     H 1451   6.497   6.485   8.909  1.2148 -0.4975  1.4660
  769MOL0     H 1452   6.546   6.434   8.742  0.1756  0.2568  0.1786
  769MOL0     H 1453   6.404   6.287   8.969  3.0965  1.3968  1.5346
  769MOL0     H 1454   6.502   6.194   8.852 -2.6946 -0.5809 -0.9535
  769MOL0     H 1455   6.305   6.171   8.746 -2.3789 -0.4968  3.2847
  769MOL0     H 1456   6.359   6.319   8.660 -2.1859 -0.1935 -1.1794
  769MOL0     H 1457   6.166   6.331   8.895  0.8517  1.2315  0.4372
  769MOL0     H 1458   6.213   6.462   8.791 -1.5695  0.7098 -0.5935
  769MOL0     H 1459   5.991   6.353   8.734  0.0539  0.4445 -0.4612
  769MOL0     H 1460   6.073   6.208   8.720 -0.5407  0.3234  1.0473
  769MOL0     H 1461   6.020   6.527   8.505 -1.7789  0.0599  0.8336
  769MOL0     H 1462   6.055   6.462   8.147 -1.8060  3.2731 -2.8776
  769MOL0     H 1463   6.002   6.567   8.267  1.0489 -0.0679 -1.5470
  769MOL0     H 1464   5.775   6.391   8.277 -0.8671  0.3100 -0.6395
  769MOL0     H 1465   5.861   6.336   8.133  0.7472  1.3464 -0.1799
  769MOL0     H 1466   5.756   6.623   8.170 -1.2581 -1.1982 -0.3490
  769MOL0     H 1467   5.853   6.571   8.040  1.1248  3.1503  2.4927
  769MOL0     H 1468   5.589   6.447   8.138  0.6177 -1.4757  0.3642
  769MOL0     H 1469   5.673   6.407   7.982  1.5954 -0.1744  1.3997
  769MOL0     H 1470   5.455   6.755   7.848  1.0346  0.1072 -1.0203
  769MOL0     H 1471   5.245   6.694   7.705 -0.3719 -0.1970 -1.6518
  769MOL0     H 1472   4.807   6.582   7.804 -2.6492  1.3187 -0.8599
  769MOL0     H 1473   4.581   6.549   7.698 -0.5557  0.1487 -1.9827
  769MOL0     H 1474   4.482   6.190   7.565  0.2215 -0.3466 -0.7731
  769MOL0     H 1475   4.490   6.217   7.382 -2.5692  2.4157 -2.5758
  769MOL0     H 1476   4.267   6.243   7.390 -0.0125 -1.1653  0.1248
  769MOL0     H 1477   4.307   6.409   7.434  0.1015  0.7216 -0.3955
  769MOL0     H 1478   4.302   6.345   7.681 -0.1526  1.3124 -1.5336
  769MOL0     H 1479   4.288   6.177   7.649 -1.5606 -1.4667 -1.8033
  769MOL0     H 1480   4.092   6.399   7.577 -1.0589  0.2454  1.0451
  769MOL0     H 1481   4.074   6.234   7.515 -0.3303 -0.7305  0.7643
  769MOL0     H 1482   4.036   6.339   7.788  0.0729  0.2918 -0.8379
  769MOL0     H 1483   4.065   6.167   7.767  2.4005  1.1677  1.1033
  769MOL0     H 1484   3.846   6.302   7.602  0.6664 -0.9692 -0.7824
  769MOL0     H 1485   3.796   6.263   7.768 -1.1020 -1.8069  0.1289
  769MOL0     H 1486   3.920   6.060   7.592  3.4402  1.0817  1.5904
  769MOL0     H 1487   3.859   6.033   7.759  2.6858 -2.1588 -1.6945
  769MOL0     H 1488   3.664   6.141   7.563  0.9545  2.8707  2.0084
  769MOL0     H 1489   3.641   6.053   7.715  0.6104 -1.6464  0.1077
  769MOL0     H 1490   4.730   6.206   7.487  3.1017 -2.3250  2.0997
  769MOL0     H 1491   4.952   6.238   7.586  0.4957  1.4450 -0.6352
  769MOL0     H 1492   5.230   6.315   7.908  1.4928  0.5111  1.2863
  769MOL0     H 1493   5.443   6.352   8.010 -1.1366  0.9601  1.4843
  769MOL0     H 1494   7.099   6.658   8.987  2.0718  1.5395  1.9482
  769MOL0     H 1495   7.342   6.655   9.011  3.5490 -1.4884  0.7840
  769MOL0     H 1496   7.765   6.650   9.176  1.6484  1.5370 -1.7393
  769MOL0     H 1497   8.009   6.640   9.099  1.3535 -0.8232  0.5414
  769MOL0     H 1498   8.227   6.602   9.004 -2.5407 -1.1455 -2.8878
  769MOL0     H 1499   8.334   6.463   8.994 -0.1150  0.1000 -1.2216
  769MOL0     H 1500   8.166   6.553   9.231  0.7312  0.4330  2.3136
  769MOL0     H 1501   8.223   6.385   9.227  0.3078  0.1453  1.0319
  769MOL0     H 1502   8.407   6.624   9.230  0.5854 -0.7187 -1.5040
  769MOL0     H 1503   8.460   6.479   9.168 -0.2678  0.5824 -1.4414
  769MOL0     H 1504   8.371   6.550   9.456 -2.3774  0.7760 -2.2849
  769MOL0     H 1505   8.386   6.376   9.415  1.1007 -1.9408 -1.3230
  769MOL0     H 1506   8.789   6.494   9.427  0.2621 -1.2599  1.2247
  769MOL0     H 1507   7.941   6.250   8.938 -0.3981  0.1331 -0.8535
  769MOL0     H 1508   7.694   6.265   9.005 -0.4866  0.7579 -2.2541
  770MOL0     O 1509   3.606  10.432   4.846  1.1292  0.0384  0.0988
  770MOL0     C 1510   3.666  10.356   4.916  0.1866  0.0377 -0.0151
  770MOL0     O 1511   3.613  10.314   5.042 -0.1787 -0.3890  0.1062
  770MOL0     C 1512   3.494  10.381   5.082 -0.0971  0.3899 -0.7677
  770MOL0     C 1513   3.370  10.345   5.043  0.0260 -0.4050 -0.1978
  770MOL0     C 1514   3.262  10.418   5.108 -0.0315  0.3248  0.1722
  770MOL0     C 1515   3.277  10.516   5.199 -1.2560 -0.2213  0.1574
  770MOL0     O 1516   3.162  10.562   5.255 -0.1002  0.2008 -0.2413
  770MOL0     C 1517   3.171  10.643   5.379 -0.5149  0.4361  0.0610
  770MOL0     C 1518   3.047  10.709   5.411  0.2948  0.2011  0.2398
  770MOL0     C 1519   2.930  10.610   5.409  0.6154  0.0022  0.3645
  770MOL0     C 1520   2.828  10.641   5.518 -0.0984 -0.8268  0.8455
  770MOL0     C 1521   2.701  10.541   5.494 -0.0353 -0.7280 -0.2367
  770MOL0     C 1522   2.730  10.396   5.537 -1.2359 -0.4517 -0.1736
  770MOL0     C 1523   2.606  10.310   5.549  1.0972 -0.5958  0.7067
  770MOL0     C 1524   2.572  10.265   5.405  0.0830 -0.7947  0.2906
  770MOL0     N 1525   2.474  10.155   5.388  0.8879  0.1980 -0.3678
  770MOL0     C 1526   2.370  10.131   5.477  0.5152 -0.1032 -0.6219
  770MOL0     C 1527   2.346  10.000   5.470  0.7581 -0.3390 -0.7804
  770MOL0     C 1528   2.251   9.919   5.552  0.2674 -1.0657  0.3410
  770MOL0     C 1529   2.138  10.005   5.611 -0.2637  0.0401  0.4431
  770MOL0     C 1530   2.055   9.921   5.710 -0.0096 -0.2739 -0.1606
  770MOL0     C 1531   1.943   9.846   5.636 -0.5431  0.5432  0.7140
  770MOL0     O 1532   1.838   9.937   5.603 -0.6762  0.2310  1.0585
  770MOL0     C 1533   1.720   9.879   5.565 -0.3915 -0.2253  0.6709
  770MOL0     C 1534   1.714   9.756   5.497 -0.5358  0.7600 -0.3919
  770MOL0     C 1535   1.595   9.694   5.456 -0.7596  0.1122  0.7997
  770MOL0     C 1536   1.481   9.764   5.478  0.8086  0.1809 -0.3000
  770MOL0     C 1537   1.348   9.696   5.436 -0.5589 -0.2450 -0.5341
  770MOL0     O 1538   1.242   9.744   5.506  1.0140  0.5068  0.8101
  770MOL0     C 1539   1.114   9.700   5.480  0.4313  0.1110 -1.0335
  770MOL0     C 1540   1.032   9.739   5.372 -1.2082  0.1754 -0.0789
  770MOL0     C 1541   0.906   9.682   5.356  1.1965  0.1011  0.2127
  770MOL0     C 1542   0.844   9.593   5.444 -0.1288  0.9059  0.4702
  770MOL0     O 1543   0.724   9.540   5.401  0.0916 -0.5946 -0.5649
  770MOL0     C 1544   0.647   9.467   5.508 -0.6503 -1.1175  0.8421
  770MOL0     C 1545   0.531   9.390   5.468  0.4331  0.1825 -0.3985
  770MOL0     C 1546   0.412   9.402   5.571 -0.3088  0.7308 -0.0009
  770MOL0     C 1547   0.305   9.304   5.554 -0.6234 -1.1651  0.0086
  770MOL0     C 1548   0.174   9.319   5.630  0.0547 -0.3456 -0.2695
  770MOL0     C 1549   0.094   9.447   5.608  0.4645 -1.1696  0.1386
  770MOL0     C 1550  -0.031   9.471   5.708  0.1023 -0.2328 -0.4790
  770MOL0     C 1551  -0.094   9.608   5.691 -0.5442  0.3013 -0.2760
  770MOL0    Cl 1552  -0.240   9.645   5.793 -0.0271 -0.0880  0.1116
  770MOL0     C 1553   0.936   9.542   5.535 -0.8818 -0.4133 -1.6407
  770MOL0     C 1554   1.056   9.609   5.563  0.0334  0.1141  0.7113
  770MOL0     O 1555   1.349   9.596   5.370  1.0013 -0.0036  0.2294
  770MOL0     C 1556   1.479   9.891   5.532  0.1063 -0.0135 -0.5253
  770MOL0     C 1557   1.597   9.956   5.572 -0.5885 -0.3327  0.5181
  770MOL0     N 1558   2.434   9.937   5.380  0.5250 -0.9447  1.2376
  770MOL0     N 1559   2.510  10.035   5.333 -0.2877  0.9154 -0.5481
  770MOL0     C 1560   3.414  10.546   5.239 -0.2572 -0.2179  0.7247
  770MOL0     C 1561   3.520  10.476   5.176  0.0560  0.3777  0.5701
  770MOL0     C 1562   3.807  10.316   4.860  0.4029 -0.8010 -0.0307
  770MOL0     C 1563   3.867  10.369   4.747  0.8738 -0.1428 -0.0638
  770MOL0     C 1564   3.984  10.317   4.704  0.2779 -0.5219 -0.7505
  770MOL0     C 1565   4.042  10.204   4.756  0.3620  0.5921 -0.7400
  770MOL0     O 1566   4.146  10.130   4.703  0.5575 -0.7206 -0.6171
  770MOL0     C 1567   4.229  10.192   4.607 -0.0333 -0.1227  0.4329
  770MOL0     C 1568   4.223  10.120   4.477  0.1212 -0.8765 -0.1108
  770MOL0     C 1569   4.273   9.979   4.491 -0.0592  0.3459 -0.4580
  770MOL0     C 1570   4.264   9.897   4.363  0.8419 -0.1438  0.8532
  770MOL0     C 1571   4.358   9.943   4.260  0.2006  0.3345  0.0714
  770MOL0     C 1572   4.423   9.983   4.161  0.2204 -0.8194  0.1657
  770MOL0     C 1573   3.992  10.152   4.873  0.1040 -0.2872 -0.5083
  770MOL0     C 1574   3.878  10.215   4.937  0.2157  0.7213  0.7178
  770MOL0     H 1575   3.340  10.270   4.971 -0.9729 -0.5874  0.3806
  770MOL0     H 1576   3.158  10.394   5.089  0.8468 -3.2236 -0.8013
  770MOL0     H 1577   3.241  10.727   5.370  1.7639 -1.4380 -0.4726
  770MOL0     H 1578   3.209  10.588   5.466 -1.9309  0.7737  0.9285
  770MOL0     H 1579   3.022  10.787   5.338 -0.4248  0.4743  0.7672
  770MOL0     H 1580   3.043  10.752   5.512  1.9569  1.4080 -0.1562
  770MOL0     H 1581   2.956  10.505   5.424 -0.5417 -0.0434  2.2139
  770MOL0     H 1582   2.881  10.622   5.311  0.3217 -0.9679  0.3838
  770MOL0     H 1583   2.874  10.643   5.617  0.7429 -0.5497  0.4612
  770MOL0     H 1584   2.780  10.738   5.507 -0.8339 -1.0339  2.0339
  770MOL0     H 1585   2.671  10.532   5.390  3.2353 -1.3635 -1.2343
  770MOL0     H 1586   2.614  10.570   5.554  0.8586 -0.7675  1.1456
  770MOL0     H 1587   2.781  10.406   5.634  0.9392 -0.4729 -1.2545
  770MOL0     H 1588   2.797  10.358   5.459 -0.9491  3.5307 -2.1250
  770MOL0     H 1589   2.614  10.227   5.620  1.0843 -0.8912  0.3637
  770MOL0     H 1590   2.515  10.362   5.579 -1.9873 -3.1425 -3.1949
  770MOL0     H 1591   2.660  10.234   5.348  0.2393 -0.4642  0.3487
  770MOL0     H 1592   2.519  10.348   5.357  0.4306 -0.7793 -0.0751
  770MOL0     H 1593   2.317  10.198   5.544  0.1345 -2.3295  1.4221
  770MOL0     H 1594   2.301   9.867   5.634 -0.1966  1.0001  2.0328
  770MOL0     H 1595   2.218   9.836   5.490  0.8048 -0.4668 -0.7796
  770MOL0     H 1596   2.070  10.049   5.537 -0.2002 -1.4296 -0.5402
  770MOL0     H 1597   2.182  10.090   5.663  1.0892 -0.8661  0.8607
  770MOL0     H 1598   2.120   9.854   5.766 -0.2213 -0.0104  0.4075
  770MOL0     H 1599   2.016   9.990   5.786  2.5302  1.5302 -0.3804
  770MOL0     H 1600   1.895   9.786   5.714 -2.4710 -0.7034 -1.3390
  770MOL0     H 1601   1.968   9.782   5.552 -1.0185  1.3200 -0.0342
  770MOL0     H 1602   1.804   9.699   5.479  0.0709  1.3267  0.7760
  770MOL0     H 1603   1.599   9.605   5.394  0.4056  1.9296 -1.9453
  770MOL0     H 1604   1.069   9.799   5.290 -1.0792  1.8690  1.1813
  770MOL0     H 1605   0.855   9.702   5.262 -1.8959 -0.0532  1.7312
  770MOL0     H 1606   0.610   9.539   5.581  1.2791 -2.0715  2.8935
  770MOL0     H 1607   0.708   9.395   5.565 -0.6489 -1.0641  0.9095
  770MOL0     H 1608   0.553   9.284   5.463  0.5420  0.2576 -2.5180
  770MOL0     H 1609   0.497   9.421   5.368 -1.2470  3.9945  1.1466
  770MOL0     H 1610   0.372   9.504   5.567  1.0648  1.3286  0.6467
  770MOL0     H 1611   0.464   9.387   5.667  2.2570 -0.8074 -1.4999
  770MOL0     H 1612   0.276   9.305   5.448  0.7828 -0.5747 -0.3928
  770MOL0     H 1613   0.338   9.202   5.575 -0.3569 -1.2493 -0.7802
  770MOL0     H 1614   0.204   9.311   5.735 -2.9934 -2.1930  0.5690
  770MOL0     H 1615   0.121   9.224   5.621  4.2693 -3.0083  0.2769
  770MOL0     H 1616   0.062   9.458   5.504  0.2808 -0.4459  0.2662
  770MOL0     H 1617   0.166   9.528   5.624 -0.2534 -0.3982 -0.4856
  770MOL0     H 1618  -0.106   9.395   5.685 -0.8835  1.2750 -2.5421
  770MOL0     H 1619   0.010   9.458   5.808  2.3693  1.0847 -1.1624
  770MOL0     H 1620  -0.116   9.628   5.586 -2.0777  0.6335  0.0788
  770MOL0     H 1621  -0.028   9.689   5.724 -2.7258  1.6836  0.9495
  770MOL0     H 1622   0.908   9.464   5.605 -1.3785  1.5811  0.5387
  770MOL0     H 1623   1.112   9.585   5.653 -0.6768  0.5152  1.2697
  770MOL0     H 1624   1.392   9.955   5.538  1.4960  1.7973  2.5318
  770MOL0     H 1625   1.595  10.059   5.605 -0.9884  1.0666 -3.2860
  770MOL0     H 1626   3.441  10.611   5.322 -0.0706  1.5498 -0.6662
  770MOL0     H 1627   3.623  10.503   5.196 -0.1693  0.7771  1.2298
  770MOL0     H 1628   3.804  10.442   4.697  1.4082 -0.1612 -0.7875
  770MOL0     H 1629   4.019  10.365   4.613  0.5227  0.0008 -0.3896
  770MOL0     H 1630   4.327  10.187   4.656 -0.2839 -1.6035  0.8543
  770MOL0     H 1631   4.210  10.297   4.585  0.9258 -0.1522 -0.6355
  770MOL0     H 1632   4.125  10.122   4.428  0.0177  0.0361  0.1168
  770MOL0     H 1633   4.286  10.172   4.404  1.1358 -1.3710  0.3977
  770MOL0     H 1634   4.222   9.930   4.574  1.0943  0.4320  0.3281
  770MOL0     H 1635   4.380   9.980   4.517 -0.0864 -1.8853 -0.1128
  770MOL0     H 1636   4.271   9.788   4.376 -5.9165 -1.3388 -1.3376
  770MOL0     H 1637   4.163   9.903   4.322  1.2163  1.8078  0.0891
  770MOL0     H 1638   4.484  10.011   4.078 -2.5373  2.2123 -1.0273
  770MOL0     H 1639   4.047  10.080   4.934 -0.2965  0.3732  0.6584
  770MOL0     H 1640   3.842  10.171   5.030 -2.9731  0.2171 -0.6484
  771MOL0     O 1641  10.403   9.763  10.758 -0.0972 -0.0946 -0.3592
  771MOL0     C 1642  10.380   9.836  10.856 -0.3095  0.2754 -0.2229
  771MOL0     O 1643  10.265   9.827  10.942 -0.2969 -0.1270 -0.2376
  771MOL0     C 1644  10.148   9.769  10.908  0.7768  0.2374 -0.3781
  771MOL0     C 1645  10.087   9.789  10.785 -0.3380  0.7481  0.4607
  771MOL0     C 1646   9.961   9.735  10.762  1.2309 -0.2032 -0.0549
  771MOL0     C 1647   9.891   9.674  10.861 -0.2000  0.0093 -0.2767
  771MOL0     O 1648   9.764   9.624  10.823  0.0522 -0.1610 -0.3565
  771MOL0     C 1649   9.702   9.536  10.918  1.1584 -0.1030  0.7440
  771MOL0     C 1650   9.582   9.469  10.847 -0.1709  0.2578 -0.2339
  771MOL0     C 1651   9.453   9.559  10.857 -0.8553  0.4880  0.0006
  771MOL0     C 1652   9.333   9.499  10.784  0.7133  0.5314  0.4451
  771MOL0     C 1653   9.253   9.411  10.880 -0.1028 -0.2231 -0.3137
  771MOL0     C 1654   9.159   9.315  10.813  0.3119 -0.2222  0.6958
  771MOL0     C 1655   9.050   9.400  10.740  0.3106  0.1542  0.2564
  771MOL0     C 1656   8.949   9.299  10.663 -0.6099  0.1144  0.3879
  771MOL0     N 1657   8.846   9.244  10.750  0.1327  0.4059  0.7612
  771MOL0     C 1658   8.828   9.109  10.783  0.5686 -0.4574 -0.3334
  771MOL0     C 1659   8.706   9.109  10.843 -0.3768 -0.0853  0.2517
  771MOL0     C 1660   8.650   8.993  10.931  0.3752 -0.1632  0.2810
  771MOL0     C 1661   8.491   8.991  10.917 -0.2572 -0.1129 -0.1960
  771MOL0     C 1662   8.447   8.878  10.998 -0.1754  0.5955  0.5205
  771MOL0     C 1663   8.312   8.834  10.945  0.5150 -0.0273  0.0461
  771MOL0     O 1664   8.323   8.781  10.811  0.1786 -0.1750  0.2157
  771MOL0     C 1665   8.205   8.747  10.745 -0.4740  0.0238 -0.4992
  771MOL0     C 1666   8.214   8.686  10.620 -0.5999  0.6028  0.0108
  771MOL0     C 1667   8.096   8.643  10.553 -0.2026 -0.7346 -0.1182
  771MOL0     C 1668   7.966   8.671  10.596  0.7987 -0.3884  0.2263
  771MOL0     C 1669   7.840   8.634  10.530 -0.4085  0.4506  0.8996
  771MOL0     O 1670   7.725   8.625  10.600 -0.2174 -0.0763  0.3473
  771MOL0     C 1671   7.605   8.595  10.535 -0.1541  0.2303 -0.5950
  771MOL0     C 1672   7.572   8.598  10.392  0.1802 -0.2174 -0.9200
  771MOL0     C 1673   7.446   8.561  10.350  0.4307  0.5510  0.5527
  771MOL0     C 1674   7.339   8.527  10.439 -0.1516 -1.8089  0.2070
  771MOL0     O 1675   7.219   8.478  10.399  0.3427 -0.4437 -0.2834
  771MOL0     C 1676   7.096   8.555  10.420 -0.5503  0.6814 -0.0773
  771MOL0     C 1677   6.990   8.482  10.505  0.4552 -0.4014 -0.2236
  771MOL0     C 1678   6.852   8.569  10.472 -0.6315  0.5952 -0.0734
  771MOL0     C 1679   6.734   8.513  10.547 -0.3709  0.5140 -0.1374
  771MOL0     C 1680   6.605   8.582  10.501  0.3121  1.7055 -0.8433
  771MOL0     C 1681   6.484   8.554  10.600  0.5360 -0.0533  0.1250
  771MOL0     C 1682   6.374   8.657  10.575 -0.1330 -0.2992 -0.7835
  771MOL0     C 1683   6.288   8.680  10.706  0.3999  0.1828  0.0161
  771MOL0    Cl 1684   6.191   8.534  10.737  0.0839 -0.6648 -0.2414
  771MOL0     C 1685   7.366   8.548  10.577 -0.9934 -0.0660  0.1037
  771MOL0     C 1686   7.500   8.566  10.619 -0.4267  0.1573  0.3239
  771MOL0     O 1687   7.858   8.596  10.413  0.6128  0.2222  0.1476
  771MOL0     C 1688   7.966   8.733  10.720  0.4790  0.8974 -0.2211
  771MOL0     C 1689   8.075   8.759  10.798 -0.0857  0.5736  0.0330
  771MOL0     N 1690   8.648   9.242  10.845 -0.3839  1.1585  0.1285
  771MOL0     N 1691   8.744   9.317  10.794  0.5561 -0.0694  0.5939
  771MOL0     C 1692   9.940   9.666  10.990 -0.0841  0.1101  0.7988
  771MOL0     C 1693  10.071   9.708  11.010 -0.7221 -0.7312 -0.0329
  771MOL0     C 1694  10.493   9.921  10.896  0.2277  0.6646 -0.5522
  771MOL0     C 1695  10.611   9.926  10.822 -0.2796 -0.3694 -0.2947
  771MOL0     C 1696  10.719   9.985  10.881 -0.3115 -0.1470 -0.6619
  771MOL0     C 1697  10.731  10.046  11.008  0.2336  0.3260 -0.2200
  771MOL0     O 1698  10.845  10.086  11.072 -0.1706  0.4420  0.3522
  771MOL0     C 1699  10.974  10.067  11.007 -1.2847 -0.8848 -0.3770
  771MOL0     C 1700  10.994  10.187  10.911  0.4859  0.1274 -0.2880
  771MOL0     C 1701  11.017  10.319  10.984 -0.5605 -1.0502  0.5257
  771MOL0     C 1702  11.044  10.428  10.877 -0.3321 -0.4697  0.6330
  771MOL0     C 1703  11.147  10.520  10.912  0.6774  0.7148  0.6347
  771MOL0     C 1704  11.225  10.606  10.946  0.1288 -0.4291  0.6521
  771MOL0     C 1705  10.612  10.033  11.080 -0.5179 -0.6661 -0.1388
  771MOL0     C 1706  10.495   9.971  11.026  0.1113  0.4061 -0.0546
  771MOL0     H 1707  10.132   9.841  10.702 -0.3424 -2.0016 -1.4011
  771MOL0     H 1708   9.924   9.757  10.663  0.7402  0.4007  0.2521
  771MOL0     H 1709   9.660   9.573  11.012  2.6434 -2.0354  2.2561
  771MOL0     H 1710   9.769   9.456  10.950  0.5436 -1.0060 -0.1629
  771MOL0     H 1711   9.567   9.369  10.889 -4.0396 -0.5929 -3.0406
  771MOL0     H 1712   9.610   9.453  10.742  0.0337  2.2801 -0.5422
  771MOL0     H 1713   9.482   9.653  10.809 -0.3546  0.4748  0.2724
  771MOL0     H 1714   9.427   9.581  10.961 -2.0470 -0.4936 -0.0730
  771MOL0     H 1715   9.274   9.582  10.742  0.1971  0.4545  0.9973
  771MOL0     H 1716   9.364   9.441  10.697 -1.2788  1.0141 -0.6683
  771MOL0     H 1717   9.203   9.472  10.956 -0.5067 -2.2810  1.1635
  771MOL0     H 1718   9.327   9.350  10.932 -0.3370 -0.5173 -0.3243
  771MOL0     H 1719   9.117   9.255  10.894  0.3527  1.7798  2.3044
  771MOL0     H 1720   9.215   9.255  10.741  0.5144 -0.3558  0.9655
  771MOL0     H 1721   8.994   9.473  10.799 -1.6689 -1.4866  0.5232
  771MOL0     H 1722   9.101   9.454  10.660 -0.6791 -1.8413 -1.8441
  771MOL0     H 1723   9.007   9.220  10.614  2.8780  0.7640  3.1152
  771MOL0     H 1724   8.897   9.353  10.583 -0.7639  1.9653  1.6880
  771MOL0     H 1725   8.891   9.021  10.772  0.1961 -0.4511 -3.4721
  771MOL0     H 1726   8.681   9.017  11.034  3.3666 -0.5152 -0.4395
  771MOL0     H 1727   8.699   8.900  10.900  1.9024  0.3520  1.0698
  771MOL0     H 1728   8.461   8.976  10.813 -0.3189  0.6617 -0.2982
  771MOL0     H 1729   8.447   9.089  10.941 -3.9967 -1.3807 -1.1935
  771MOL0     H 1730   8.512   8.792  10.980 -1.5972 -0.5231  0.5447
  771MOL0     H 1731   8.449   8.894  11.106 -0.8773 -0.5990  0.7283
  771MOL0     H 1732   8.242   8.916  10.929 -1.4300 -2.0472 -2.7436
  771MOL0     H 1733   8.269   8.756  11.008 -1.3413  1.2105  0.4054
  771MOL0     H 1734   8.310   8.672  10.572 -1.4712  1.1880 -2.0108
  771MOL0     H 1735   8.107   8.590  10.459 -1.0594 -0.1192 -0.5826
  771MOL0     H 1736   7.641   8.617  10.310  0.5006 -2.8407 -1.3401
  771MOL0     H 1737   7.415   8.564  10.246 -1.0028  0.2019  0.9358
  771MOL0     H 1738   7.044   8.568  10.325  1.8456 -0.3986 -1.6437
  771MOL0     H 1739   7.117   8.655  10.460 -0.3008 -0.7515  3.7468
  771MOL0     H 1740   7.014   8.482  10.612 -1.8467 -0.7604  0.3420
  771MOL0     H 1741   6.985   8.377  10.477  0.2431 -0.7666  1.1214
  771MOL0     H 1742   6.832   8.558  10.365 -3.2031 -1.5310  0.5231
  771MOL0     H 1743   6.855   8.677  10.491 -2.4852  0.9017 -1.2392
  771MOL0     H 1744   6.724   8.409  10.518  1.0376  0.1196  0.6655
  771MOL0     H 1745   6.739   8.528  10.656 -1.3583  0.7134 -0.1100
  771MOL0     H 1746   6.585   8.568  10.395  0.2898 -0.6661 -0.5790
  771MOL0     H 1747   6.622   8.690  10.513 -1.2410  1.7495  1.6646
  771MOL0     H 1748   6.520   8.549  10.703  1.4729  0.5982 -0.1544
  771MOL0     H 1749   6.458   8.449  10.587  1.6234 -0.4986  1.3324
  771MOL0     H 1750   6.412   8.757  10.551 -0.3156  0.0262  0.2409
  771MOL0     H 1751   6.306   8.626  10.495 -3.1486 -1.0682  1.8420
  771MOL0     H 1752   6.223   8.766  10.687 -2.4990 -1.5533  1.3108
  771MOL0     H 1753   6.352   8.698  10.793  1.8088  0.5554 -1.0667
  771MOL0     H 1754   7.290   8.506  10.641  0.9699 -3.3826  0.5431
  771MOL0     H 1755   7.537   8.561  10.721 -1.9908  0.1905  0.9111
  771MOL0     H 1756   7.874   8.760  10.772 -2.2498 -0.5898 -3.8064
  771MOL0     H 1757   8.076   8.789  10.902 -3.2295 -0.4566  0.4683
  771MOL0     H 1758   9.892   9.617  11.073 -2.3973 -0.6737 -0.8966
  771MOL0     H 1759  10.119   9.686  11.105  1.4148 -2.2443 -1.3693
  771MOL0     H 1760  10.625   9.891  10.720 -1.0573 -0.5124 -0.3592
  771MOL0     H 1761  10.804   9.988  10.814  1.6695 -0.3436  1.7119
  771MOL0     H 1762  10.982   9.979  10.942 -0.0422 -0.1170 -1.3173
  771MOL0     H 1763  11.046  10.041  11.085 -0.4070  0.1203 -0.8388
  771MOL0     H 1764  11.072  10.171  10.836  1.9219 -0.3595  1.2415
  771MOL0     H 1765  10.897  10.193  10.861  1.6234  1.1982 -2.4780
  771MOL0     H 1766  11.092  10.309  11.063 -0.1232 -0.7525  0.1548
  771MOL0     H 1767  10.927  10.364  11.025  2.1182  3.2832  2.3746
  771MOL0     H 1768  11.074  10.384  10.782  2.5457  0.8521  0.8228
  771MOL0     H 1769  10.947  10.471  10.852 -0.1846 -1.1999 -1.3690
  771MOL0     H 1770  11.286  10.683  10.988 -0.3736  0.5063 -0.2842
  771MOL0     H 1771  10.622  10.077  11.179 -1.9151 -1.6070  0.4410
  771MOL0     H 1772  10.414   9.961  11.097 -0.4131 -0.4645 -0.7634
  772MOL0     O 1773   7.702  10.609   6.121  1.2520 -0.5941 -0.0397
  772MOL0     C 1774   7.695  10.550   6.012 -1.5218  0.3602 -0.2417
  772MOL0     O 1775   7.595  10.539   5.931 -0.0118 -0.3524 -0.7307
  772MOL0     C 1776   7.470  10.592   5.953 -0.0599  0.3437 -0.6212
  772MOL0     C 1777   7.441  10.722   6.009 -0.1661  0.5691 -0.0065
  772MOL0     C 1778   7.310  10.774   6.020  0.2520  1.0417 -0.0452
  772MOL0     C 1779   7.205  10.700   5.972  0.6017  0.0030  0.5047
  772MOL0     O 1780   7.084  10.766   5.959 -0.2089  0.0248 -0.0389
  772MOL0     C 1781   6.984  10.694   6.038 -0.1011 -0.2510  0.2687
  772MOL0     C 1782   6.848  10.775   6.045 -0.2078 -0.2276  0.1961
  772MOL0     C 1783   6.761  10.772   5.921  0.4491 -0.2753  0.4166
  772MOL0     C 1784   6.627  10.845   5.927  0.5114  0.4411  0.7210
  772MOL0     C 1785   6.560  10.860   5.790 -1.0638 -0.3828  0.4915
  772MOL0     C 1786   6.428  10.945   5.810 -0.5701 -0.5597 -0.0040
  772MOL0     C 1787   6.457  11.094   5.842 -0.0493 -0.4744  0.2390
  772MOL0     C 1788   6.330  11.180   5.823  0.0205  0.1128  0.1493
  772MOL0     N 1789   6.225  11.172   5.934  0.3662 -0.0911  0.7106
  772MOL0     C 1790   6.094  11.207   5.908 -0.8684 -0.2617  0.3679
  772MOL0     C 1791   6.033  11.196   6.029 -0.4189  0.1223  0.3611
  772MOL0     C 1792   5.891  11.222   6.076  0.1605  0.1842 -0.0003
  772MOL0     C 1793   5.783  11.151   5.997 -0.5342 -0.1782 -0.6870
  772MOL0     C 1794   5.829  11.020   5.928  0.3533  0.7515 -0.2072
  772MOL0     C 1795   5.715  10.921   5.900 -0.4002  0.4804 -0.2675
  772MOL0     O 1796   5.618  10.976   5.807 -0.0299 -0.2308 -0.3337
  772MOL0     C 1797   5.484  10.944   5.803 -0.1140 -0.0065  0.0317
  772MOL0     C 1798   5.437  10.823   5.847 -0.3808 -0.6999  0.4203
  772MOL0     C 1799   5.304  10.792   5.815 -0.1443 -0.1915 -0.2309
  772MOL0     C 1800   5.220  10.868   5.727 -0.5644  0.0333 -0.2241
  772MOL0     C 1801   5.085  10.829   5.687  0.1108 -0.1301  0.0976
  772MOL0     O 1802   4.996  10.930   5.678  0.0537 -0.7427 -0.3499
  772MOL0     C 1803   4.865  10.905   5.633 -0.6274  0.7607 -1.0445
  772MOL0     C 1804   4.773  10.997   5.676 -0.1135 -0.0712  0.4264
  772MOL0     C 1805   4.644  11.008   5.622  0.3040  0.6812 -0.8983
  772MOL0     C 1806   4.598  10.904   5.541  0.0786 -0.7963  0.0822
  772MOL0     O 1807   4.468  10.899   5.508  0.2623  0.1609 -0.1386
  772MOL0     C 1808   4.424  10.763   5.475  1.1231 -0.3923  0.2014
  772MOL0     C 1809   4.275  10.776   5.447  0.4408 -0.5185 -0.8902
  772MOL0     C 1810   4.264  10.851   5.312 -0.1029 -0.5795  0.2863
  772MOL0     C 1811   4.309  10.769   5.187 -0.5694  0.3460  1.1397
  772MOL0     C 1812   4.307  10.859   5.060  0.1316  0.3879 -0.2629
  772MOL0     C 1813   4.161  10.919   5.026  0.3593 -0.9494 -0.1253
  772MOL0     C 1814   4.169  11.000   4.897  0.2008 -1.9025  0.7142
  772MOL0     C 1815   4.029  11.062   4.868 -0.4772 -0.7709  0.6159
  772MOL0    Cl 1816   4.041  11.164   4.719  0.3424 -0.1703  0.4003
  772MOL0     C 1817   4.689  10.803   5.510 -0.1325  0.4554 -0.6975
  772MOL0     C 1818   4.826  10.803   5.541  0.3568  0.0553  0.0620
  772MOL0     O 1819   5.060  10.708   5.680  0.1195  0.9371 -0.2785
  772MOL0     C 1820   5.274  10.989   5.683  0.6552 -0.7335 -0.0725
  772MOL0     C 1821   5.400  11.027   5.732 -1.0874 -0.1430  0.6640
  772MOL0     N 1822   6.132  11.151   6.124  0.2719  0.6645  0.4743
  772MOL0     N 1823   6.243  11.142   6.064 -0.0346  0.1732 -0.0767
  772MOL0     C 1824   7.231  10.572   5.912 -0.9673 -0.1093 -0.5686
  772MOL0     C 1825   7.361  10.518   5.911  0.0295  0.0117 -0.3339
  772MOL0     C 1826   7.834  10.499   5.969  0.6808  0.9415 -0.2974
  772MOL0     C 1827   7.948  10.534   6.042  0.3903  0.4244 -0.5132
  772MOL0     C 1828   8.064  10.485   6.002 -0.7027 -0.3272 -0.5901
  772MOL0     C 1829   8.074  10.399   5.883 -0.2590 -0.1229 -0.2650
  772MOL0     O 1830   8.203  10.363   5.860  0.2112 -0.9495 -0.3534
  772MOL0     C 1831   8.247  10.379   5.730 -0.0828  0.1050  0.5505
  772MOL0     C 1832   8.393  10.445   5.700 -0.5170 -0.2219  0.1735
  772MOL0     C 1833   8.513  10.398   5.796  0.8243 -0.2132  0.0111
  772MOL0     C 1834   8.622  10.315   5.720 -0.2910 -0.5409 -0.2244
  772MOL0     C 1835   8.730  10.265   5.806 -0.2662  0.2380 -0.1080
  772MOL0     C 1836   8.823  10.247   5.883 -0.2274  0.6416 -0.3632
  772MOL0     C 1837   7.960  10.366   5.811 -0.2075  0.0986 -1.5965
  772MOL0     C 1838   7.843  10.415   5.857 -0.4489 -0.3082  0.4986
  772MOL0     H 1839   7.522  10.790   6.033  0.9247 -0.5449 -0.3777
  772MOL0     H 1840   7.316  10.874   6.061 -2.9848  0.9951  0.8462
  772MOL0     H 1841   7.022  10.673   6.139 -0.7977  0.7078  0.7523
  772MOL0     H 1842   6.952  10.603   5.987  1.0912 -0.4988 -0.0520
  772MOL0     H 1843   6.872  10.880   6.060  1.0574 -0.5905  0.9392
  772MOL0     H 1844   6.786  10.738   6.128 -0.3857  0.1222  0.2213
  772MOL0     H 1845   6.731  10.669   5.898 -1.4525  0.6860 -1.8735
  772MOL0     H 1846   6.818  10.799   5.831 -0.6031  0.5985 -0.0174
  772MOL0     H 1847   6.567  10.783   5.995  2.0784 -3.4734 -1.1210
  772MOL0     H 1848   6.652  10.941   5.971 -0.4777  0.7257  0.6882
  772MOL0     H 1849   6.528  10.766   5.743  2.1787  0.0398 -3.1624
  772MOL0     H 1850   6.615  10.912   5.710 -4.2264 -2.1164 -3.1451
  772MOL0     H 1851   6.366  10.891   5.882 -1.9048 -2.0445 -2.1694
  772MOL0     H 1852   6.380  10.934   5.713  0.2172  2.2878 -0.8255
  772MOL0     H 1853   6.515  11.103   5.934  1.4156 -1.0148 -0.5849
  772MOL0     H 1854   6.528  11.142   5.774 -2.7033  2.6176 -0.6222
  772MOL0     H 1855   6.281  11.170   5.726  1.5060 -0.9518 -0.5229
  772MOL0     H 1856   6.364  11.282   5.841  0.0199  0.3146 -0.9685
  772MOL0     H 1857   6.060  11.246   5.813 -0.0082  0.0604  0.1783
  772MOL0     H 1858   5.859  11.325   6.063 -0.4542 -0.0234 -0.2011
  772MOL0     H 1859   5.890  11.198   6.183  3.9887 -0.4488  0.0406
  772MOL0     H 1860   5.747  11.217   5.918 -2.1239  1.9522  1.6827
  772MOL0     H 1861   5.698  11.133   6.063 -0.0116  0.0731  0.0618
  772MOL0     H 1862   5.873  11.047   5.832  1.0157  0.0935 -0.1038
  772MOL0     H 1863   5.905  10.969   5.988  1.5771 -0.1696 -2.4579
  772MOL0     H 1864   5.668  10.902   5.997 -0.3232  0.4360 -0.2384
  772MOL0     H 1865   5.750  10.823   5.865 -0.8498  0.6729 -1.2892
  772MOL0     H 1866   5.494  10.764   5.918  2.6248  1.2140 -0.1857
  772MOL0     H 1867   5.248  10.713   5.864 -3.3569  0.4974 -2.4658
  772MOL0     H 1868   4.816  11.074   5.740  2.1738  0.1274 -1.2063
  772MOL0     H 1869   4.592  11.099   5.650 -0.5463  0.1337 -0.6519
  772MOL0     H 1870   4.436  10.688   5.554 -0.8269 -0.7934  0.1855
  772MOL0     H 1871   4.478  10.724   5.388  0.7901 -3.4201  1.2376
  772MOL0     H 1872   4.218  10.835   5.520 -0.7867 -2.0265 -0.5804
  772MOL0     H 1873   4.222  10.681   5.439 -1.4181 -0.0820  3.3799
  772MOL0     H 1874   4.322  10.943   5.315  1.0604 -1.1660 -1.9542
  772MOL0     H 1875   4.156  10.866   5.298 -0.4768 -3.1022 -0.0570
  772MOL0     H 1876   4.409  10.727   5.200 -0.6289  0.2636  1.3441
  772MOL0     H 1877   4.241  10.684   5.187 -0.2828  0.0941 -0.1503
  772MOL0     H 1878   4.338  10.801   4.972  1.7334  2.0772 -0.8711
  772MOL0     H 1879   4.378  10.942   5.071 -0.5062  0.9417 -0.2855
  772MOL0     H 1880   4.128  10.991   5.101  1.6728 -0.8317  0.3670
  772MOL0     H 1881   4.087  10.842   5.002 -0.3946 -0.4121  0.4350
  772MOL0     H 1882   4.224  11.094   4.904 -0.0167 -1.6829 -0.3901
  772MOL0     H 1883   4.202  10.954   4.804 -0.3354  2.2735 -1.7954
  772MOL0     H 1884   3.998  11.134   4.943 -1.4678 -0.2006 -0.3133
  772MOL0     H 1885   3.952  10.985   4.855 -2.0834  0.9247 -0.3700
  772MOL0     H 1886   4.656  10.712   5.461 -2.0036  1.5235 -1.5375
  772MOL0     H 1887   4.896  10.728   5.508 -2.5588 -2.9430  0.2245
  772MOL0     H 1888   5.223  11.055   5.613  0.6140  1.7702  2.1309
  772MOL0     H 1889   5.440  11.126   5.714 -0.2870 -0.4361  0.8195
  772MOL0     H 1890   7.142  10.518   5.881  0.1714 -1.0050 -2.4510
  772MOL0     H 1891   7.394  10.419   5.882  2.3916  0.3165  1.0577
  772MOL0     H 1892   7.942  10.595   6.132 -3.6015 -0.1493 -0.2122
  772MOL0     H 1893   8.145  10.503   6.072 -1.6137  1.7622  0.0423
  772MOL0     H 1894   8.183  10.449   5.675  0.7920 -0.0408 -0.7186
  772MOL0     H 1895   8.238  10.277   5.691  0.1669 -0.1443  1.1360
  772MOL0     H 1896   8.426  10.413   5.600 -0.8920  3.5031 -1.2908
  772MOL0     H 1897   8.390  10.554   5.708 -0.7536 -0.2968  1.2224
  772MOL0     H 1898   8.475  10.344   5.883  0.1709  0.7202  0.3158
  772MOL0     H 1899   8.563  10.490   5.828 -0.6211  0.7914 -0.5392
  772MOL0     H 1900   8.583  10.237   5.653  2.0413 -1.6285 -0.4140
  772MOL0     H 1901   8.669  10.377   5.644 -3.0631 -0.3390 -1.9393
  772MOL0     H 1902   8.900  10.232   5.956 -2.3278  0.4376  1.9689
  772MOL0     H 1903   7.975  10.285   5.741  1.8442  1.1015 -2.3758
  772MOL0     H 1904   7.750  10.404   5.801 -0.6317  1.9109  0.2815
  773MOL0     O 1905   3.813   8.259   0.077 -0.3399 -0.3437 -0.3277
  773MOL0     C 1906   3.897   8.215   0.154 -0.9275 -0.2321  0.0946
  773MOL0     O 1907   3.916   8.081   0.183  0.0849 -0.9036 -0.8858
  773MOL0     C 1908   3.813   8.000   0.147  0.0714  0.1275 -0.2354
  773MOL0     C 1909   3.801   7.952   0.015  0.2335  0.0061  0.1741
  773MOL0     C 1910   3.682   7.895  -0.027 -0.6907  0.2942  0.4662
  773MOL0     C 1911   3.581   7.869   0.061  0.3140 -0.3925 -0.6318
  773MOL0     O 1912   3.467   7.803   0.026  0.0310 -0.6692  0.2126
  773MOL0     C 1913   3.426   7.770  -0.114 -0.2292 -0.0737 -0.6530
  773MOL0     C 1914   3.294   7.700  -0.112 -0.0224  0.1503 -0.0208
  773MOL0     C 1915   3.186   7.762  -0.029  0.2394  0.1056  0.5628
  773MOL0     C 1916   3.067   7.669  -0.021  0.6623 -0.5284 -0.4996
  773MOL0     C 1917   2.947   7.739   0.038 -0.7687  0.3681 -0.8564
  773MOL0     C 1918   2.843   7.649   0.110  0.0540 -0.1972  0.4693
  773MOL0     C 1919   2.776   7.546   0.019 -0.8920  0.4609  0.6461
  773MOL0     C 1920   2.697   7.602  -0.088 -0.3580  0.2109 -0.5978
  773MOL0     N 1921   2.587   7.687  -0.041 -0.4416  0.5605 -0.3292
  773MOL0     C 1922   2.480   7.629   0.032 -0.0739 -0.4382 -0.3758
  773MOL0     C 1923   2.402   7.743   0.055  1.6452  0.1450  0.4340
  773MOL0     C 1924   2.268   7.734   0.139 -0.9847  0.3252 -0.4933
  773MOL0     C 1925   2.284   7.800   0.273 -0.6396 -0.0527 -1.0138
  773MOL0     C 1926   2.146   7.814   0.349 -0.1201  0.2015 -0.4803
  773MOL0     C 1927   2.026   7.863   0.262 -0.6797  0.5654  0.4166
  773MOL0     O 1928   1.920   7.908   0.352 -0.7952 -0.0157 -0.6258
  773MOL0     C 1929   1.802   7.953   0.296 -0.2883 -0.0352  0.4609
  773MOL0     C 1930   1.715   8.019   0.374 -0.3782  0.6756 -0.9491
  773MOL0     C 1931   1.589   8.058   0.331  0.6855 -0.2807 -0.6835
  773MOL0     C 1932   1.557   8.053   0.199 -0.0560  0.0017 -0.3168
  773MOL0     C 1933   1.439   8.114   0.149  0.3454  0.5081  0.4269
  773MOL0     O 1934   1.366   8.178   0.248  0.0009 -0.4373  0.0769
  773MOL0     C 1935   1.226   8.185   0.223 -0.3017 -0.9283  0.8813
  773MOL0     C 1936   1.174   8.287   0.142  0.0698 -1.2044  0.5006
  773MOL0     C 1937   1.036   8.297   0.126 -0.1260  0.4507  0.0043
  773MOL0     C 1938   0.950   8.199   0.191 -0.0876 -0.2084 -0.3963
  773MOL0     O 1939   0.813   8.215   0.195  0.4252 -0.1839 -0.7412
  773MOL0     C 1940   0.755   8.340   0.155  0.1135  0.6341 -0.0938
  773MOL0     C 1941   0.611   8.345   0.222 -0.6385  0.2350 -0.2557
  773MOL0     C 1942   0.526   8.471   0.201  0.1423  0.6785  0.0008
  773MOL0     C 1943   0.598   8.599   0.256 -0.4448  0.8879  0.6233
  773MOL0     C 1944   0.494   8.713   0.274 -0.4992  0.2688 -0.4553
  773MOL0     C 1945   0.489   8.804   0.164 -1.0641  1.3086  0.5526
  773MOL0     C 1946   0.393   8.915   0.212 -1.1218 -0.1147  0.3882
  773MOL0     C 1947   0.389   9.028   0.112  0.5382  0.0465  0.9987
  773MOL0    Cl 1948   0.339   8.973  -0.055  0.0241 -0.1901 -0.1259
  773MOL0     C 1949   1.003   8.088   0.260 -0.6707 -0.2675  0.2306
  773MOL0     C 1950   1.144   8.088   0.280 -0.2656 -0.1001  0.1478
  773MOL0     O 1951   1.400   8.099   0.033 -0.1252  0.5191 -0.5274
  773MOL0     C 1952   1.652   7.993   0.116 -0.8214  0.0111 -0.7173
  773MOL0     C 1953   1.776   7.944   0.157  0.2090  0.5895 -0.5803
  773MOL0     N 1954   2.456   7.857  -0.007  0.6546 -0.9375 -0.3429
  773MOL0     N 1955   2.563   7.814  -0.066  0.4903  0.0208  0.0718
  773MOL0     C 1956   3.596   7.908   0.200 -0.6422 -0.1197  0.2291
  773MOL0     C 1957   3.714   7.978   0.239  0.3569 -0.3276 -0.0603
  773MOL0     C 1958   4.000   8.319   0.198  0.0803  0.1019 -0.5038
  773MOL0     C 1959   4.083   8.280   0.309 -0.3804  0.0168  0.2730
  773MOL0     C 1960   4.164   8.379   0.375 -0.3080  1.1357 -0.5480
  773MOL0     C 1961   4.165   8.510   0.326  0.3376 -0.6223 -0.2137
  773MOL0     O 1962   4.246   8.613   0.371 -0.2580 -0.2805 -0.1411
  773MOL0     C 1963   4.332   8.593   0.482 -0.2885  0.7811 -0.4170
  773MOL0     C 1964   4.280   8.664   0.609 -0.1264 -0.0772 -1.1458
  773MOL0     C 1965   4.401   8.702   0.698 -0.0351 -0.3020 -0.8493
  773MOL0     C 1966   4.355   8.762   0.843 -0.2201 -0.8594  0.7561
  773MOL0     C 1967   4.449   8.862   0.888  0.1362 -0.1293  0.1412
  773MOL0     C 1968   4.515   8.961   0.912  0.2777 -0.2414  0.4430
  773MOL0     C 1969   4.086   8.546   0.215  0.2337 -0.7081 -0.3034
  773MOL0     C 1970   3.998   8.453   0.163  0.0077 -0.4828  0.3441
  773MOL0     H 1971   3.891   7.951  -0.045 -0.2200  3.0999 -0.6913
  773MOL0     H 1972   3.668   7.858  -0.128 -0.0789 -0.0384  0.4975
  773MOL0     H 1973   3.495   7.695  -0.152  0.8408  0.8952 -0.7119
  773MOL0     H 1974   3.419   7.855  -0.184 -0.6478  1.4782  1.1790
  773MOL0     H 1975   3.311   7.601  -0.068 -0.9844  0.7302  1.7516
  773MOL0     H 1976   3.252   7.682  -0.211  0.4918 -2.6173  0.1664
  773MOL0     H 1977   3.164   7.862  -0.068  0.3314  0.0806  0.4471
  773MOL0     H 1978   3.216   7.779   0.075  2.3099  1.8130 -0.2266
  773MOL0     H 1979   3.035   7.639  -0.121  4.0423  3.0989 -2.9815
  773MOL0     H 1980   3.081   7.590   0.053 -0.3688  1.0182  1.4682
  773MOL0     H 1981   2.905   7.817  -0.025  1.3176  3.2418  1.0688
  773MOL0     H 1982   2.990   7.795   0.121  0.8004 -0.4572 -1.0749
  773MOL0     H 1983   2.765   7.711   0.154  1.1615  0.5609  1.4433
  773MOL0     H 1984   2.886   7.596   0.196  0.0665  2.4775  2.2170
  773MOL0     H 1985   2.847   7.478  -0.028 -0.7655  0.2754  1.1040
  773MOL0     H 1986   2.715   7.483   0.084 -1.2642  0.6721  0.5050
  773MOL0     H 1987   2.650   7.536  -0.161 -3.2824  1.6235 -0.1626
  773MOL0     H 1988   2.769   7.667  -0.138 -0.7906 -0.5054 -2.1868
  773MOL0     H 1989   2.456   7.527   0.059 -2.8940  0.0325 -0.7944
  773MOL0     H 1990   2.228   7.633   0.154  0.4419 -0.1553  0.3792
  773MOL0     H 1991   2.189   7.785   0.083 -1.2484 -0.5296 -0.9174
  773MOL0     H 1992   2.324   7.898   0.246  1.8092 -0.7333 -0.1079
  773MOL0     H 1993   2.363   7.751   0.331 -1.6953  0.0274  0.5374
  773MOL0     H 1994   2.117   7.718   0.394 -1.9173  0.6412 -0.6308
  773MOL0     H 1995   2.166   7.887   0.428  1.0826  0.3437 -0.8979
  773MOL0     H 1996   1.997   7.787   0.188  1.8492  0.1051 -0.2218
  773MOL0     H 1997   2.058   7.953   0.210  2.1586  0.5184  1.8777
  773MOL0     H 1998   1.739   8.030   0.479 -3.8275 -0.6633  0.1179
  773MOL0     H 1999   1.519   8.096   0.405  0.7834 -2.3429  0.5327
  773MOL0     H 2000   1.240   8.357   0.092 -1.5167  1.5481  2.0028
  773MOL0     H 2001   0.993   8.378   0.068 -0.0862  1.0722  0.8203
  773MOL0     H 2002   0.751   8.349   0.046 -2.1185  3.6982  0.1051
  773MOL0     H 2003   0.800   8.426   0.204  0.4812 -0.0876  0.8675
  773MOL0     H 2004   0.626   8.325   0.328  0.7056 -1.2961 -0.6827
  773MOL0     H 2005   0.555   8.263   0.177 -0.5819  1.0110 -1.8158
  773MOL0     H 2006   0.444   8.461   0.272  1.9902  2.5109  2.5780
  773MOL0     H 2007   0.497   8.485   0.096  3.0362 -0.8929 -1.1287
  773MOL0     H 2008   0.648   8.580   0.352 -1.4241 -0.3634  0.9189
  773MOL0     H 2009   0.679   8.623   0.187 -2.9947  0.8216 -2.5939
  773MOL0     H 2010   0.528   8.763   0.365  1.4850  0.8026 -1.4445
  773MOL0     H 2011   0.397   8.664   0.284  0.4049 -1.1219  2.6683
  773MOL0     H 2012   0.464   8.758   0.068  3.4259 -1.6096  0.5068
  773MOL0     H 2013   0.588   8.848   0.155 -0.6090  0.5022  1.4518
  773MOL0     H 2014   0.292   8.873   0.221 -1.2363 -0.5088 -2.0769
  773MOL0     H 2015   0.430   8.956   0.307  2.6631  1.1017 -1.4201
  773MOL0     H 2016   0.482   9.086   0.114  0.0197  0.9396  0.1945
  773MOL0     H 2017   0.311   9.097   0.146 -2.2615 -1.7684 -1.2746
  773MOL0     H 2018   0.934   8.014   0.300 -2.5077  0.9506 -0.5478
  773MOL0     H 2019   1.191   8.006   0.335 -1.4198 -1.9622 -1.4845
  773MOL0     H 2020   1.621   7.991   0.012 -3.1725  1.2689 -0.1190
  773MOL0     H 2021   1.839   7.898   0.082  0.9178 -1.1601  0.9895
  773MOL0     H 2022   3.524   7.890   0.279  0.1571 -1.5845  0.6721
  773MOL0     H 2023   3.720   8.014   0.341 -1.2456  0.8196 -0.3470
  773MOL0     H 2024   4.072   8.180   0.350 -0.4977 -0.5351 -1.0564
  773MOL0     H 2025   4.215   8.354   0.467  1.3918  1.6463 -1.3142
  773MOL0     H 2026   4.424   8.641   0.449  1.1148 -1.2134  0.3551
  773MOL0     H 2027   4.362   8.494   0.520 -0.2180  0.9482 -0.0286
  773MOL0     H 2028   4.229   8.756   0.579 -2.3339 -1.2918 -1.3338
  773MOL0     H 2029   4.203   8.608   0.664  1.0238 -2.7558 -2.0993
  773MOL0     H 2030   4.441   8.784   0.638 -0.8485  0.9491  0.2546
  773MOL0     H 2031   4.478   8.628   0.723 -2.1681 -1.8733  1.6895
  773MOL0     H 2032   4.252   8.799   0.834 -0.1932 -1.1867 -1.6967
  773MOL0     H 2033   4.351   8.682   0.917  1.4847 -2.2724 -0.5912
  773MOL0     H 2034   4.582   9.038   0.943  0.5867  0.0818 -0.9376
  773MOL0     H 2035   4.080   8.644   0.167 -1.3943 -0.0531  1.1453
  773MOL0     H 2036   3.931   8.481   0.082  0.2038 -0.4328  0.1990
  774MOL0     O 2037   1.444   8.986   5.017 -0.3535  0.5418  0.0832
  774MOL0     C 2038   1.405   9.074   5.099  0.2439 -0.1713  0.7111
  774MOL0     O 2039   1.277   9.105   5.128 -0.1537  0.2669 -0.1638
  774MOL0     C 2040   1.184   9.038   5.065 -0.1953 -0.1917  0.3674
  774MOL0     C 2041   1.145   9.074   4.940 -0.0414 -0.4378  0.7818
  774MOL0     C 2042   1.044   9.014   4.868 -0.6306 -0.0266  0.4603
  774MOL0     C 2043   0.975   8.903   4.924 -0.3453  0.2118 -0.2334
  774MOL0     O 2044   0.867   8.841   4.867  0.4015 -0.1262  0.0199
  774MOL0     C 2045   0.860   8.846   4.724 -0.6356 -0.5559 -1.2688
  774MOL0     C 2046   0.762   8.741   4.686  0.3236 -0.6250 -0.4993
  774MOL0     C 2047   0.625   8.757   4.751  0.1801  0.6890 -0.2312
  774MOL0     C 2048   0.530   8.647   4.703  0.5869  0.7536 -0.1683
  774MOL0     C 2049   0.379   8.675   4.759 -0.1287  0.2730  0.8880
  774MOL0     C 2050   0.290   8.539   4.749  0.7337 -1.2201  0.4127
  774MOL0     C 2051   0.142   8.583   4.752  0.4145 -0.1468 -0.3221
  774MOL0     C 2052   0.082   8.644   4.622  0.7564  0.1699 -0.4247
  774MOL0     N 2053  -0.049   8.702   4.643  0.0583 -0.0827  0.1612
  774MOL0     C 2054  -0.168   8.636   4.682 -0.0900 -0.0023  0.4685
  774MOL0     C 2055  -0.263   8.739   4.701 -0.7193 -0.3047 -0.3647
  774MOL0     C 2056  -0.415   8.725   4.730 -0.4135 -0.2435 -0.3452
  774MOL0     C 2057  -0.438   8.620   4.829  0.5972  0.4279  0.2143
  774MOL0     C 2058  -0.586   8.562   4.827 -0.6521 -0.2366  0.1147
  774MOL0     C 2059  -0.696   8.636   4.892  0.6131 -0.3174  0.2624
  774MOL0     O 2060  -0.652   8.708   5.013 -0.1966  0.3475  0.0816
  774MOL0     C 2061  -0.750   8.778   5.085 -0.9801 -0.2585  0.2558
  774MOL0     C 2062  -0.716   8.829   5.213 -0.7181  0.4189 -0.1432
  774MOL0     C 2063  -0.808   8.881   5.300 -0.2748 -0.0167 -0.2429
  774MOL0     C 2064  -0.938   8.888   5.258  0.6376  0.2694  0.7476
  774MOL0     C 2065  -1.043   8.936   5.347 -0.0979 -0.2895  1.1020
  774MOL0     O 2066  -1.168   8.956   5.302 -0.0062  0.3097  1.2176
  774MOL0     C 2067  -1.268   8.995   5.392  0.0109  0.4949  0.6689
  774MOL0     C 2068  -1.268   9.106   5.479  0.1183  0.8524 -0.0090
  774MOL0     C 2069  -1.385   9.150   5.537  0.1911  0.0988 -0.2957
  774MOL0     C 2070  -1.498   9.069   5.529  0.3033  0.1498 -0.0591
  774MOL0     O 2071  -1.605   9.123   5.587  0.4011  0.4316  0.4517
  774MOL0     C 2072  -1.736   9.080   5.531 -0.1711  0.3056  0.1065
  774MOL0     C 2073  -1.846   9.188   5.573  0.0466 -0.4593 -0.3691
  774MOL0     C 2074  -1.990   9.149   5.549 -0.2179  0.5376  0.0682
  774MOL0     C 2075  -2.033   9.094   5.407 -0.2930 -0.2518  0.7604
  774MOL0     C 2076  -2.182   9.075   5.414 -0.4133 -0.1395  0.1582
  774MOL0     C 2077  -2.237   9.032   5.286 -0.0842 -1.0137  0.9590
  774MOL0     C 2078  -2.384   8.992   5.298  0.1903 -0.0532 -0.5037
  774MOL0     C 2079  -2.453   8.932   5.171 -0.3211 -0.4239  0.4562
  774MOL0    Cl 2080  -2.391   8.766   5.158 -0.2769 -0.1783  0.0646
  774MOL0     C 2081  -1.499   8.952   5.456 -0.2390 -0.5929  0.1284
  774MOL0     C 2082  -1.386   8.923   5.378  0.3221 -0.1050 -0.0666
  774MOL0     O 2083  -1.006   8.956   5.456 -0.4981 -0.3668 -0.2360
  774MOL0     C 2084  -0.978   8.840   5.130  0.7302 -0.6656  0.8146
  774MOL0     C 2085  -0.889   8.794   5.040 -0.3139 -0.5010  0.1720
  774MOL0     N 2086  -0.196   8.858   4.673  0.2842 -0.1053 -0.0426
  774MOL0     N 2087  -0.072   8.835   4.652 -0.5114  0.3137 -0.4070
  774MOL0     C 2088   1.020   8.863   5.048  0.1792  0.3158 -0.1487
  774MOL0     C 2089   1.120   8.929   5.119 -0.0153  0.2096 -0.1572
  774MOL0     C 2090   1.510   9.166   5.151  0.0453 -0.1566 -0.2844
  774MOL0     C 2091   1.483   9.253   5.260 -0.5723 -0.0412 -0.1266
  774MOL0     C 2092   1.582   9.337   5.304  0.2309  0.6103  0.2546
  774MOL0     C 2093   1.703   9.347   5.238  0.6578  0.4203  0.3134
  774MOL0     O 2094   1.779   9.447   5.287  0.1195 -0.4254  0.4756
  774MOL0     C 2095   1.900   9.467   5.220 -0.3280  0.6618  0.6086
  774MOL0     C 2096   1.986   9.583   5.276  0.2975  0.4551 -0.2925
  774MOL0     C 2097   1.930   9.710   5.201 -0.3254  0.0726 -0.8669
  774MOL0     C 2098   2.016   9.828   5.240 -0.3060  0.3702  0.9509
  774MOL0     C 2099   2.147   9.808   5.171  0.1780 -0.2668 -0.5279
  774MOL0     C 2100   2.264   9.781   5.148 -0.1954  0.5751 -0.5751
  774MOL0     C 2101   1.732   9.264   5.134  0.1161  0.4100  0.0201
  774MOL0     C 2102   1.633   9.173   5.089  0.9454  0.3191  1.2477
  774MOL0     H 2103   1.204   9.154   4.897 -0.6680 -0.5693 -0.3673
  774MOL0     H 2104   1.018   9.050   4.769  0.5995  0.7614  0.3966
  774MOL0     H 2105   0.962   8.826   4.691  1.0815  2.5246  1.5678
  774MOL0     H 2106   0.828   8.940   4.679 -1.4882 -0.7410 -1.0770
  774MOL0     H 2107   0.800   8.649   4.731  1.4437  1.3843  3.0700
  774MOL0     H 2108   0.746   8.727   4.579  1.4507 -0.9640 -0.6369
  774MOL0     H 2109   0.589   8.852   4.709  0.9268 -0.1158 -2.8947
  774MOL0     H 2110   0.639   8.760   4.859  1.3423  0.9571 -0.3637
  774MOL0     H 2111   0.523   8.635   4.594  1.6205  2.1779 -0.4125
  774MOL0     H 2112   0.570   8.552   4.740  1.3583 -0.0486 -2.8482
  774MOL0     H 2113   0.349   8.766   4.706  3.3287  0.5402 -0.9262
  774MOL0     H 2114   0.387   8.694   4.867  0.9243 -1.2852  1.1177
  774MOL0     H 2115   0.316   8.473   4.832 -0.6251 -1.6561  0.5204
  774MOL0     H 2116   0.319   8.484   4.659 -3.1044 -0.5550 -1.4517
  774MOL0     H 2117   0.086   8.494   4.781 -0.7286  0.2315 -1.2635
  774MOL0     H 2118   0.126   8.659   4.829  5.5823  3.4499 -2.2129
  774MOL0     H 2119   0.086   8.576   4.536  1.3794  1.3121 -1.3227
  774MOL0     H 2120   0.147   8.728   4.596  0.0834  1.0597  0.6865
  774MOL0     H 2121  -0.185   8.529   4.689  2.1421 -0.6504 -2.3708
  774MOL0     H 2122  -0.462   8.697   4.636 -0.0160 -0.2728 -0.5374
  774MOL0     H 2123  -0.472   8.814   4.760 -3.5205 -2.9434  2.5790
  774MOL0     H 2124  -0.425   8.670   4.926  2.7043  1.0411 -0.3293
  774MOL0     H 2125  -0.366   8.538   4.820  0.5914  0.1039  2.4534
  774MOL0     H 2126  -0.612   8.556   4.721 -1.7562 -0.4706  0.3846
  774MOL0     H 2127  -0.592   8.458   4.861  0.8298 -0.3506  0.0967
  774MOL0     H 2128  -0.773   8.564   4.918  0.3554  0.1287  0.7516
  774MOL0     H 2129  -0.744   8.704   4.821 -1.3342  0.0393  1.8426
  774MOL0     H 2130  -0.610   8.835   5.239 -0.1259  4.6773 -2.5522
  774MOL0     H 2131  -0.777   8.892   5.404 -1.7173  0.7169  0.1307
  774MOL0     H 2132  -1.169   9.150   5.486  0.6576 -0.1076 -1.0469
  774MOL0     H 2133  -1.376   9.241   5.596  1.6923  0.9694 -1.8137
  774MOL0     H 2134  -1.764   8.984   5.575 -0.4965  0.0556 -0.6323
  774MOL0     H 2135  -1.736   9.067   5.422 -1.5196 -1.3268  0.2558
  774MOL0     H 2136  -1.833   9.284   5.523  0.7090 -1.4027 -2.0885
  774MOL0     H 2137  -1.824   9.208   5.679  0.0586  1.1271 -0.6464
  774MOL0     H 2138  -2.065   9.219   5.586 -0.8626 -0.0285 -0.1357
  774MOL0     H 2139  -2.005   9.057   5.607 -1.2507 -0.8193 -2.1930
  774MOL0     H 2140  -2.007   9.158   5.322 -1.2965  1.1887  1.4865
  774MOL0     H 2141  -1.984   9.001   5.378 -2.4629 -1.1784 -0.0906
  774MOL0     H 2142  -2.226   9.169   5.449  0.1942 -0.3102  1.4183
  774MOL0     H 2143  -2.195   8.989   5.480  1.6771 -0.8477 -0.2659
  774MOL0     H 2144  -2.190   8.951   5.229  0.7535 -1.3631  2.1177
  774MOL0     H 2145  -2.220   9.118   5.221  0.8202 -0.7863  1.4737
  774MOL0     H 2146  -2.399   8.929   5.387 -0.6063  0.9566  0.1108
  774MOL0     H 2147  -2.440   9.080   5.333  2.8858  1.4902  0.2954
  774MOL0     H 2148  -2.423   8.991   5.084 -0.7446  2.7541  2.3224
  774MOL0     H 2149  -2.563   8.934   5.169 -0.4035 -2.4682 -1.6087
  774MOL0     H 2150  -1.590   8.894   5.442 -0.9648  0.5048  0.1918
  774MOL0     H 2151  -1.385   8.842   5.305 -1.8856  1.8079 -2.4459
  774MOL0     H 2152  -1.083   8.845   5.103  0.7574 -0.1759  0.7749
  774MOL0     H 2153  -0.926   8.757   4.945  3.7021  0.2605 -1.9051
  774MOL0     H 2154   0.974   8.771   5.085 -0.0461  0.5625  0.1878
  774MOL0     H 2155   1.161   8.901   5.216  0.5347  3.6073  0.6957
  774MOL0     H 2156   1.393   9.257   5.321  0.5286  3.2611  1.4741
  774MOL0     H 2157   1.556   9.409   5.381  0.9432  3.1257 -1.7073
  774MOL0     H 2158   1.875   9.479   5.115  1.8057  0.4864  0.0350
  774MOL0     H 2159   1.963   9.378   5.211 -2.7280 -0.9499 -1.4869
  774MOL0     H 2160   1.984   9.592   5.385 -1.2700  0.7535 -0.3090
  774MOL0     H 2161   2.081   9.554   5.231 -2.6049 -3.5127 -4.8523
  774MOL0     H 2162   1.832   9.738   5.241  0.9605  5.4970 -0.7819
  774MOL0     H 2163   1.932   9.701   5.092  0.9942  3.1712 -1.2057
  774MOL0     H 2164   1.977   9.925   5.209  0.6084  1.2835  2.5645
  774MOL0     H 2165   2.036   9.824   5.347 -1.4319 -2.8534  1.1690
  774MOL0     H 2166   2.367   9.754   5.134 -0.5979  0.1898 -3.3694
  774MOL0     H 2167   1.822   9.280   5.076 -0.1111 -0.9796 -0.7482
  774MOL0     H 2168   1.646   9.123   4.994  1.3216  0.1302  1.3938
  775MOL0     O 2169   0.270   3.802   5.907  0.0920  0.2320 -0.3573
  775MOL0     C 2170   0.381   3.817   5.859 -0.3237  1.0879 -0.6859
  775MOL0     O 2171   0.410   3.816   5.726  0.0276 -0.0877 -0.3838
  775MOL0     C 2172   0.313   3.781   5.635  0.0044  0.1804  0.7591
  775MOL0     C 2173   0.218   3.874   5.589  0.3238  0.1131 -0.4314
  775MOL0     C 2174   0.115   3.827   5.496 -0.3262 -0.1070  0.0108
  775MOL0     C 2175   0.107   3.697   5.459 -0.2469 -0.1228  0.2490
  775MOL0     O 2176  -0.009   3.666   5.386 -0.6494  0.1113  0.0573
  775MOL0     C 2177  -0.034   3.530   5.348 -0.1440 -0.4124  0.5818
  775MOL0     C 2178  -0.150   3.524   5.262  0.3255  0.2794 -0.2735
  775MOL0     C 2179  -0.198   3.380   5.222 -0.1698 -0.4224 -0.5458
  775MOL0     C 2180  -0.290   3.388   5.101  0.4874 -0.4491  0.4689
  775MOL0     C 2181  -0.410   3.490   5.107 -0.5367  0.6399  0.4928
  775MOL0     C 2182  -0.525   3.427   5.189  0.3625 -0.1376 -0.9538
  775MOL0     C 2183  -0.621   3.538   5.248 -0.4241 -0.6875  0.4264
  775MOL0     C 2184  -0.714   3.598   5.141 -0.2943  0.6310  0.0894
  775MOL0     N 2185  -0.838   3.658   5.189 -0.3793 -0.1911  0.4968
  775MOL0     C 2186  -0.847   3.717   5.314 -0.1817  0.8633 -0.0047
  775MOL0     C 2187  -0.977   3.723   5.345  0.1846  0.1191 -0.2277
  775MOL0     C 2188  -1.044   3.746   5.476 -0.0216 -0.4609 -0.9861
  775MOL0     C 2189  -1.060   3.611   5.556 -0.6118  0.1878 -0.0123
  775MOL0     C 2190  -1.162   3.514   5.478 -0.6376  0.5881 -0.1837
  775MOL0     C 2191  -1.288   3.583   5.422 -0.7293 -0.6646  0.2672
  775MOL0     O 2192  -1.367   3.660   5.510  0.0127 -0.3283  0.1107
  775MOL0     C 2193  -1.506   3.639   5.505 -0.2105 -0.0341  0.4623
  775MOL0     C 2194  -1.582   3.749   5.481  1.2711  0.2773 -1.2761
  775MOL0     C 2195  -1.727   3.745   5.495 -0.4914 -0.9036  0.4014
  775MOL0     C 2196  -1.790   3.618   5.522 -0.1192 -0.1336 -1.4025
  775MOL0     C 2197  -1.937   3.612   5.544  1.2077  0.0098 -0.6562
  775MOL0     O 2198  -2.015   3.719   5.515  0.5422  0.5314 -0.2250
  775MOL0     C 2199  -2.151   3.698   5.551  0.3109 -0.1002 -0.5112
  775MOL0     C 2200  -2.232   3.653   5.448  0.1376  0.7522  0.4514
  775MOL0     C 2201  -2.370   3.639   5.471 -2.3595  0.4139  1.1280
  775MOL0     C 2202  -2.420   3.648   5.606  0.7149  0.6035  0.5164
  775MOL0     O 2203  -2.556   3.640   5.618 -0.6833  0.5634 -0.2048
  775MOL0     C 2204  -2.611   3.589   5.735  0.0438 -0.0991 -0.1627
  775MOL0     C 2205  -2.760   3.568   5.727  0.2955 -0.0436  0.0039
  775MOL0     C 2206  -2.828   3.696   5.752  0.3226  0.4432 -0.0823
  775MOL0     C 2207  -2.987   3.690   5.748 -0.4110  0.3972 -0.5960
  775MOL0     C 2208  -3.041   3.824   5.714  1.3516 -0.3623  0.4659
  775MOL0     C 2209  -3.191   3.811   5.690 -0.2672 -0.4130 -0.7322
  775MOL0     C 2210  -3.254   3.948   5.656 -0.2004 -0.1013 -0.1930
  775MOL0     C 2211  -3.270   3.966   5.511  0.4050 -0.1091  0.7685
  775MOL0    Cl 2212  -3.109   3.945   5.430  0.2303 -0.1737  0.0899
  775MOL0     C 2213  -2.333   3.688   5.708  0.6414  0.0118  0.0078
  775MOL0     C 2214  -2.197   3.705   5.679 -0.1976 -0.1131  0.3432
  775MOL0     O 2215  -1.979   3.509   5.597  0.7991  0.8884 -0.3623
  775MOL0     C 2216  -1.703   3.508   5.549 -0.3765 -0.6346  0.1685
  775MOL0     C 2217  -1.566   3.525   5.545 -0.5865  0.0382 -0.0082
  775MOL0     N 2218  -1.047   3.686   5.228 -0.4205  0.5361  0.5741
  775MOL0     N 2219  -0.962   3.639   5.144  1.0732  0.5822  0.0563
  775MOL0     C 2220   0.207   3.610   5.506  0.6829  0.6733  0.1820
  775MOL0     C 2221   0.311   3.650   5.601  0.6862 -0.4799  0.3972
  775MOL0     C 2222   0.503   3.835   5.948  0.3673 -0.0808 -0.6118
  775MOL0     C 2223   0.630   3.844   5.903  0.4160  0.0727  0.5933
  775MOL0     C 2224   0.741   3.871   5.988  0.1610 -0.5081  0.5491
  775MOL0     C 2225   0.710   3.913   6.119 -0.3714 -0.5552  0.4600
  775MOL0     O 2226   0.807   3.962   6.207  0.0589 -0.4442  1.0033
  775MOL0     C 2227   0.900   4.051   6.146 -0.0038 -0.1205 -0.3869
  775MOL0     C 2228   1.011   4.099   6.246 -0.4961 -0.2746  0.5597
  775MOL0     C 2229   1.133   4.162   6.164 -0.5604 -0.2437  0.0271
  775MOL0     C 2230   1.193   4.289   6.237 -0.2250 -0.2750 -0.4873
  775MOL0     C 2231   1.338   4.295   6.205  0.2800  0.6128 -0.1013
  775MOL0     C 2232   1.461   4.300   6.201  0.0467  0.3431 -0.3109
  775MOL0     C 2233   0.585   3.899   6.171  0.0237 -0.1768 -0.6747
  775MOL0     C 2234   0.482   3.847   6.086  0.0850 -0.0494  0.4169
  775MOL0     H 2235   0.204   3.974   5.629  0.4101  0.5192 -1.3898
  775MOL0     H 2236   0.049   3.906   5.460 -1.3439 -1.5983 -1.5630
  775MOL0     H 2237  -0.068   3.482   5.440 -1.4781 -2.6006 -0.9440
  775MOL0     H 2238   0.051   3.475   5.307 -0.5996 -0.9204  0.2991
  775MOL0     H 2239  -0.128   3.583   5.173 -1.5533 -0.8373 -1.5580
  775MOL0     H 2240  -0.234   3.573   5.312 -0.5312  0.3514 -1.7226
  775MOL0     H 2241  -0.265   3.334   5.295 -1.0271  0.4878 -0.7404
  775MOL0     H 2242  -0.115   3.318   5.186  2.5238  3.2936 -1.3717
  775MOL0     H 2243  -0.228   3.422   5.017  0.9486  0.1830  1.0488
  775MOL0     H 2244  -0.322   3.287   5.074 -0.0147  0.6763 -3.9714
  775MOL0     H 2245  -0.443   3.510   5.005  1.3792 -0.6664 -0.4626
  775MOL0     H 2246  -0.365   3.584   5.141 -1.1836  1.2190 -0.2196
  775MOL0     H 2247  -0.493   3.377   5.281 -0.3519 -1.6233 -1.4817
  775MOL0     H 2248  -0.574   3.352   5.128 -1.0220  0.7505 -0.9744
  775MOL0     H 2249  -0.679   3.490   5.327  3.1013 -2.2046  2.3166
  775MOL0     H 2250  -0.552   3.613   5.287  2.2079 -1.5388 -2.1971
  775MOL0     H 2251  -0.737   3.518   5.069 -0.5496  1.4870 -0.8110
  775MOL0     H 2252  -0.660   3.670   5.079 -0.6111  1.4165  0.7050
  775MOL0     H 2253  -0.764   3.726   5.384 -0.7312 -0.5990  0.8632
  775MOL0     H 2254  -1.127   3.815   5.467  1.0563  1.6484  2.8275
  775MOL0     H 2255  -0.978   3.811   5.533  0.8277 -1.6676 -0.5328
  775MOL0     H 2256  -1.113   3.646   5.645 -4.9503 -2.6731 -1.1445
  775MOL0     H 2257  -0.965   3.559   5.576  0.3757  0.9580 -2.3706
  775MOL0     H 2258  -1.114   3.462   5.394  0.8060  0.0319  0.9605
  775MOL0     H 2259  -1.187   3.443   5.558  3.4785 -5.7064 -3.6252
  775MOL0     H 2260  -1.352   3.500   5.390  1.1322 -1.6491 -1.0796
  775MOL0     H 2261  -1.269   3.636   5.328 -1.7298  1.0196  0.9599
  775MOL0     H 2262  -1.538   3.846   5.461  1.2223  0.4381 -0.6213
  775MOL0     H 2263  -1.780   3.839   5.483  2.2653  0.5125 -1.8253
  775MOL0     H 2264  -2.183   3.650   5.351  1.5741  0.1892  1.1639
  775MOL0     H 2265  -2.444   3.604   5.399  1.9830 -0.3909 -3.4823
  775MOL0     H 2266  -2.596   3.652   5.823  2.4072 -1.0596  0.1847
  775MOL0     H 2267  -2.565   3.492   5.752  0.0792  0.0091  0.3777
  775MOL0     H 2268  -2.788   3.489   5.798  1.7866  0.6652  1.4330
  775MOL0     H 2269  -2.777   3.519   5.631  0.9292 -0.1727 -0.0434
  775MOL0     H 2270  -2.795   3.772   5.680 -1.2210  0.7437 -0.5069
  775MOL0     H 2271  -2.804   3.735   5.851  1.6348 -0.2261 -0.1079
  775MOL0     H 2272  -3.017   3.618   5.672 -0.6899  0.7047 -0.7761
  775MOL0     H 2273  -3.021   3.657   5.847  1.3254  1.2567  0.3357
  775MOL0     H 2274  -2.989   3.860   5.625 -3.3788  0.6537 -2.2093
  775MOL0     H 2275  -3.025   3.885   5.804  1.0726  2.1649 -1.1129
  775MOL0     H 2276  -3.244   3.767   5.775 -1.4017  0.1913 -1.0950
  775MOL0     H 2277  -3.205   3.745   5.604  2.3832 -1.1149 -0.7045
  775MOL0     H 2278  -3.357   3.940   5.693  0.2833 -1.3709  0.9695
  775MOL0     H 2279  -3.201   4.032   5.703  0.2659  0.1191 -1.0997
  775MOL0     H 2280  -3.308   4.067   5.489  2.0600 -0.1511 -2.9502
  775MOL0     H 2281  -3.339   3.895   5.465 -0.5994  0.4139  1.4188
  775MOL0     H 2282  -2.362   3.706   5.811  1.4237 -2.5074  0.7363
  775MOL0     H 2283  -2.133   3.743   5.759 -1.2363 -1.7795  2.0519
  775MOL0     H 2284  -1.746   3.414   5.583 -3.2819 -0.1081 -1.6720
  775MOL0     H 2285  -1.498   3.443   5.568  0.5669  1.2153  0.9378
  775MOL0     H 2286   0.203   3.505   5.476  2.2189  0.5202  0.4202
  775MOL0     H 2287   0.391   3.586   5.638 -0.0645  0.4851  4.0906
  775MOL0     H 2288   0.658   3.832   5.799  1.0249  0.9391  0.6462
  775MOL0     H 2289   0.837   3.860   5.938  0.8619  0.0398  1.7300
  775MOL0     H 2290   0.855   4.144   6.111  0.6632  0.7726  1.0342
  775MOL0     H 2291   0.961   4.004   6.068  2.3939 -0.6117  1.6665
  775MOL0     H 2292   0.963   4.183   6.297 -0.1398 -0.3806  1.0805
  775MOL0     H 2293   1.041   4.021   6.317 -1.3391 -0.9684  0.1772
  775MOL0     H 2294   1.104   4.183   6.061  0.9480  3.1691  0.1747
  775MOL0     H 2295   1.217   4.093   6.153  0.1646  0.7865 -1.1260
  775MOL0     H 2296   1.142   4.378   6.200 -0.0898 -0.2936 -0.7233
  775MOL0     H 2297   1.189   4.285   6.346  2.0050  1.7598 -0.2329
  775MOL0     H 2298   1.566   4.317   6.206 -0.0474  1.1100 -0.7139
  775MOL0     H 2299   0.551   3.909   6.274 -0.3060  0.1610 -0.8196
  775MOL0     H 2300   0.377   3.833   6.113 -1.3869  4.3553 -2.1279
  776MOL0     O 2301   0.177   4.187   1.803  0.4517 -0.4157 -0.3579
  776MOL0     C 2302   0.246   4.279   1.753 -0.8993 -0.3145 -0.8713
  776MOL0     O 2303   0.209   4.414   1.743 -0.2492  0.0962  0.2299
  776MOL0     C 2304   0.081   4.452   1.759  0.3023  0.1507 -0.5056
  776MOL0     C 2305   0.059   4.592   1.750  0.5932  0.7766  0.0940
  776MOL0     C 2306  -0.068   4.650   1.749 -0.0783 -0.2423 -0.2029
  776MOL0     C 2307  -0.180   4.563   1.766 -0.1821 -0.7338 -0.4542
  776MOL0     O 2308  -0.301   4.623   1.768  0.1229  0.1872 -0.4103
  776MOL0     C 2309  -0.423   4.549   1.768 -0.2427  0.7306  0.3086
  776MOL0     C 2310  -0.465   4.546   1.620  0.2858 -0.3393 -0.3720
  776MOL0     C 2311  -0.604   4.468   1.602 -0.2980 -0.3625 -0.2518
  776MOL0     C 2312  -0.735   4.556   1.640 -1.0171 -0.3883  0.2626
  776MOL0     C 2313  -0.870   4.511   1.582  0.6286  0.7840  0.0786
  776MOL0     C 2314  -0.988   4.592   1.637  0.6948  0.7129  1.1864
  776MOL0     C 2315  -1.126   4.527   1.620 -0.2394 -0.8058  0.3446
  776MOL0     C 2316  -1.171   4.545   1.475 -0.4302 -0.6847 -0.9313
  776MOL0     N 2317  -1.315   4.517   1.462  0.5879 -0.1564 -0.0592
  776MOL0     C 2318  -1.365   4.389   1.481  0.2321 -0.4716  0.4391
  776MOL0     C 2319  -1.496   4.403   1.513 -0.1882  0.6077  0.1358
  776MOL0     C 2320  -1.597   4.291   1.542 -0.1218 -0.3006 -0.5420
  776MOL0     C 2321  -1.639   4.219   1.413  0.4207 -0.0104 -0.8916
  776MOL0     C 2322  -1.704   4.303   1.312  1.2778  0.2996  0.5541
  776MOL0     C 2323  -1.758   4.225   1.190  0.4421 -0.4684 -0.7883
  776MOL0     O 2324  -1.877   4.149   1.232 -0.2718 -0.7559  0.7929
  776MOL0     C 2325  -1.998   4.193   1.195  0.1918  0.3319 -0.1300
  776MOL0     C 2326  -2.038   4.320   1.154 -0.0741 -0.3853 -0.4614
  776MOL0     C 2327  -2.168   4.359   1.127  1.2575  0.5352 -0.2566
  776MOL0     C 2328  -2.272   4.263   1.137  0.2882 -0.5201 -0.4746
  776MOL0     C 2329  -2.412   4.293   1.101 -0.3564 -0.0748  0.6799
  776MOL0     O 2330  -2.493   4.184   1.083  0.6245 -1.0363  0.0036
  776MOL0     C 2331  -2.627   4.218   1.057  0.1949  0.2013 -0.2608
  776MOL0     C 2332  -2.694   4.208   0.935  0.2832 -0.1677  0.2791
  776MOL0     C 2333  -2.832   4.236   0.918 -0.8981 -0.1950 -0.0277
  776MOL0     C 2334  -2.914   4.248   1.030  0.7563  0.3287  0.6527
  776MOL0     O 2335  -3.052   4.246   1.023 -0.1059 -0.3614  0.2220
  776MOL0     C 2336  -3.117   4.345   0.947 -0.9990  0.1548  0.5489
  776MOL0     C 2337  -3.270   4.329   0.930  0.2718 -0.5670  0.6922
  776MOL0     C 2338  -3.314   4.202   0.859 -0.1868  0.2929  1.0243
  776MOL0     C 2339  -3.451   4.218   0.786  0.4968  0.0895  0.5729
  776MOL0     C 2340  -3.479   4.086   0.716 -0.2934 -0.2819 -0.8118
  776MOL0     C 2341  -3.634   4.066   0.681 -0.0076 -0.0742  0.1136
  776MOL0     C 2342  -3.678   4.195   0.606  0.3475 -0.1391  0.2408
  776MOL0     C 2343  -3.813   4.162   0.545  0.4358  0.0560  0.6700
  776MOL0    Cl 2344  -3.820   4.042   0.416 -0.2084 -0.5071  0.0973
  776MOL0     C 2345  -2.855   4.256   1.155 -0.2512 -0.2052  1.1471
  776MOL0     C 2346  -2.710   4.249   1.169  0.2098 -0.8824  0.2163
  776MOL0     O 2347  -2.437   4.412   1.099 -0.1977 -0.6182 -0.0837
  776MOL0     C 2348  -2.236   4.134   1.174 -0.4419  0.1345 -0.5667
  776MOL0     C 2349  -2.105   4.099   1.201 -1.1666 -0.4076  0.4058
  776MOL0     N 2350  -1.521   4.541   1.529  0.0656  0.5112 -0.3944
  776MOL0     N 2351  -1.412   4.600   1.500 -1.0540  0.6117 -0.2547
  776MOL0     C 2352  -0.165   4.425   1.771 -0.2263  0.1141  0.1895
  776MOL0     C 2353  -0.031   4.366   1.766 -0.1202  0.3247 -0.6417
  776MOL0     C 2354   0.390   4.237   1.719 -0.8036  1.0873  0.2246
  776MOL0     C 2355   0.425   4.103   1.729 -0.3663  0.8442 -0.3019
  776MOL0     C 2356   0.553   4.059   1.691  0.0220 -0.1777  0.2010
  776MOL0     C 2357   0.653   4.142   1.648  0.1896  0.6241  0.7929
  776MOL0     O 2358   0.784   4.115   1.627  0.2936  0.1376  1.0365
  776MOL0     C 2359   0.847   3.986   1.649  0.1336  0.6365 -0.0577
  776MOL0     C 2360   0.992   3.984   1.597 -0.0654 -0.3646  1.3281
  776MOL0     C 2361   1.033   3.834   1.554 -1.2119 -1.3399 -0.5552
  776MOL0     C 2362   1.171   3.837   1.477  0.0017 -0.1184 -0.0324
  776MOL0     C 2363   1.276   3.866   1.571  0.7228 -0.3814 -0.3515
  776MOL0     C 2364   1.374   3.888   1.641 -0.2581 -0.1309 -0.0379
  776MOL0     C 2365   0.609   4.271   1.631 -0.3361 -0.3284  0.1859
  776MOL0     C 2366   0.487   4.325   1.667 -0.3102 -0.0120  0.0481
  776MOL0     H 2367   0.145   4.658   1.754  0.7892  0.5010  0.7284
  776MOL0     H 2368  -0.086   4.753   1.722  1.7287 -0.1309 -1.1272
  776MOL0     H 2369  -0.496   4.602   1.830  0.7846  2.3090  0.2312
  776MOL0     H 2370  -0.409   4.446   1.802 -1.4842  0.0910 -1.0158
  776MOL0     H 2371  -0.386   4.500   1.559 -0.2588 -0.3364 -1.0928
  776MOL0     H 2372  -0.484   4.645   1.578 -4.4885 -0.4698  0.9041
  776MOL0     H 2373  -0.600   4.374   1.656 -0.8145 -0.4456 -0.3512
  776MOL0     H 2374  -0.621   4.449   1.495  2.7518  3.0387 -1.5689
  776MOL0     H 2375  -0.748   4.550   1.749  5.3776 -4.3775  1.3032
  776MOL0     H 2376  -0.717   4.663   1.622  1.1766 -0.5388  1.2679
  776MOL0     H 2377  -0.868   4.403   1.598  1.3239  0.7819  0.0078
  776MOL0     H 2378  -0.870   4.520   1.473  3.5303  3.0665  0.1353
  776MOL0     H 2379  -0.985   4.695   1.599  0.3502  0.4799  0.5198
  776MOL0     H 2380  -0.976   4.604   1.745  0.6909  0.4328  1.2167
  776MOL0     H 2381  -1.124   4.421   1.647  1.6164 -1.4547 -2.0288
  776MOL0     H 2382  -1.202   4.578   1.680 -0.9584 -2.4692  0.9054
  776MOL0     H 2383  -1.114   4.491   1.400 -1.8178  0.2970 -2.7570
  776MOL0     H 2384  -1.158   4.651   1.448 -0.5836 -1.0519 -2.5278
  776MOL0     H 2385  -1.305   4.299   1.465  5.1312  2.4415  0.3328
  776MOL0     H 2386  -1.687   4.327   1.592 -0.1294  2.9457 -2.6094
  776MOL0     H 2387  -1.557   4.216   1.611 -2.0099 -0.4155  0.4900
  776MOL0     H 2388  -1.709   4.146   1.455  1.2792  0.3075  1.2400
  776MOL0     H 2389  -1.546   4.174   1.377 -0.6345  0.3402 -4.3089
  776MOL0     H 2390  -1.793   4.355   1.350  0.6753 -0.3879  0.0904
  776MOL0     H 2391  -1.642   4.383   1.270 -1.6168  1.5725 -1.6152
  776MOL0     H 2392  -1.689   4.148   1.154  0.2039 -1.0449 -0.0341
  776MOL0     H 2393  -1.767   4.290   1.102  2.2999 -0.6002 -1.1104
  776MOL0     H 2394  -1.966   4.400   1.160 -0.2339 -0.2041 -0.8645
  776MOL0     H 2395  -2.183   4.463   1.097 -0.3283  0.2763 -0.4477
  776MOL0     H 2396  -2.634   4.170   0.853  2.5600 -1.2307  2.3314
  776MOL0     H 2397  -2.878   4.230   0.820 -0.9406 -0.9901  0.0305
  776MOL0     H 2398  -3.086   4.337   0.842 -4.4595  0.0885 -0.6222
  776MOL0     H 2399  -3.096   4.446   0.982 -0.5036  0.5373 -0.7721
  776MOL0     H 2400  -3.306   4.414   0.872  1.3192 -2.0371 -2.3018
  776MOL0     H 2401  -3.318   4.320   1.028 -1.8979 -1.3351 -0.3995
  776MOL0     H 2402  -3.320   4.114   0.923  1.6222  0.2272  1.1548
  776MOL0     H 2403  -3.245   4.187   0.775  1.1534 -1.8962  2.3888
  776MOL0     H 2404  -3.526   4.230   0.865 -0.0786 -0.9682  0.1956
  776MOL0     H 2405  -3.455   4.305   0.719  0.2841 -0.0524  0.4025
  776MOL0     H 2406  -3.441   4.007   0.782  1.7627  2.9371  2.2452
  776MOL0     H 2407  -3.421   4.081   0.624  3.0160 -1.8273  1.1553
  776MOL0     H 2408  -3.695   4.057   0.772 -0.2889 -0.0166 -0.0669
  776MOL0     H 2409  -3.651   3.985   0.610 -1.3236  0.8975 -0.7339
  776MOL0     H 2410  -3.702   4.270   0.681  0.4466  2.7804 -2.4582
  776MOL0     H 2411  -3.611   4.235   0.529 -1.3476  2.2225 -0.1242
  776MOL0     H 2412  -3.860   4.255   0.514  0.3498 -0.0869  0.3648
  776MOL0     H 2413  -3.878   4.124   0.624  0.9525  0.3872  1.2617
  776MOL0     H 2414  -2.917   4.288   1.238 -1.0217 -0.3292  0.6269
  776MOL0     H 2415  -2.664   4.253   1.267 -1.0809  0.1621  0.7997
  776MOL0     H 2416  -2.307   4.053   1.186  0.7327 -1.1161 -1.6600
  776MOL0     H 2417  -2.067   4.001   1.231 -1.4499  0.1418  2.7405
  776MOL0     H 2418  -0.237   4.344   1.762  1.2642 -1.4033  1.3995
  776MOL0     H 2419  -0.043   4.259   1.755 -0.3215  0.4279 -1.5367
  776MOL0     H 2420   0.351   4.032   1.765  0.0497  1.3745  1.7110
  776MOL0     H 2421   0.597   3.962   1.710  1.8913  0.6834  0.5105
  776MOL0     H 2422   0.789   3.898   1.619  1.0308  0.2000 -0.5794
  776MOL0     H 2423   0.847   3.967   1.757 -0.4998 -3.4361 -0.6096
  776MOL0     H 2424   0.988   4.042   1.505 -1.7575  0.1021  1.6527
  776MOL0     H 2425   1.060   4.035   1.665  3.6246  0.6673 -2.7022
  776MOL0     H 2426   0.969   3.790   1.477 -1.5850 -0.0100 -1.0314
  776MOL0     H 2427   1.051   3.773   1.643 -2.4107 -1.2517 -0.2326
  776MOL0     H 2428   1.190   3.739   1.432  2.0324 -0.3151  1.1425
  776MOL0     H 2429   1.170   3.914   1.399  0.3341 -0.5244 -0.4344
  776MOL0     H 2430   1.459   3.919   1.698 -2.4988  3.8030  1.5704
  776MOL0     H 2431   0.684   4.342   1.599  0.3482 -1.2034 -0.1797
  776MOL0     H 2432   0.465   4.430   1.652  1.8597  0.0071 -5.3542
  777MOL0     O 2433   3.445   5.610  10.889  0.5649 -0.0942  0.5166
  777MOL0     C 2434   3.540   5.556  10.828 -0.3358  0.2367 -0.6501
  777MOL0     O 2435   3.524   5.475  10.727  0.1817  0.1284  0.2443
  777MOL0     C 2436   3.412   5.434  10.663 -0.2951 -0.1285  0.1316
  777MOL0     C 2437   3.418   5.364  10.538 -1.1325  0.0866 -0.8443
  777MOL0     C 2438   3.309   5.308  10.477  0.0674  0.4233 -0.6238
  777MOL0     C 2439   3.179   5.319  10.534 -0.5352 -0.7880  0.3616
  777MOL0     O 2440   3.075   5.265  10.472  0.7091 -0.8181 -0.2041
  777MOL0     C 2441   2.944   5.240  10.532  1.2310  0.1962 -0.7193
  777MOL0     C 2442   2.873   5.124  10.469 -0.1339 -0.1958 -0.2094
  777MOL0     C 2443   2.724   5.129  10.506  0.4518 -0.6026  0.1930
  777MOL0     C 2444   2.635   5.201  10.403 -0.2959 -0.2051 -0.0086
  777MOL0     C 2445   2.481   5.161  10.410 -0.5283 -0.1079  0.4814
  777MOL0     C 2446   2.388   5.258  10.339  0.2321  0.2428 -0.0908
  777MOL0     C 2447   2.254   5.184  10.312 -0.0607  0.4456 -1.0202
  777MOL0     C 2448   2.165   5.163  10.433 -0.4749  0.6366  0.5526
  777MOL0     N 2449   2.043   5.086  10.402 -0.3138  0.0773 -0.6533
  777MOL0     C 2450   1.917   5.132  10.352 -0.5066  0.0681 -0.9023
  777MOL0     C 2451   1.844   5.021  10.338  0.3612  1.2691 -0.5052
  777MOL0     C 2452   1.690   5.017  10.313 -0.2988  0.2555  0.1914
  777MOL0     C 2453   1.616   4.938  10.422  0.5908 -1.0719  0.1103
  777MOL0     C 2454   1.469   4.912  10.401 -0.4556  0.5106  0.2186
  777MOL0     C 2455   1.428   4.812  10.510 -0.4308  0.7809  0.0584
  777MOL0     O 2456   1.290   4.791  10.495 -0.3417 -0.2783 -0.0297
  777MOL0     C 2457   1.230   4.678  10.547 -0.3478 -0.5405  0.5096
  777MOL0     C 2458   1.274   4.546  10.542  0.2364  0.7156  0.2615
  777MOL0     C 2459   1.197   4.446  10.613  1.0839  0.4709 -0.4763
  777MOL0     C 2460   1.071   4.475  10.682  0.8776  0.7136  0.0001
  777MOL0     C 2461   0.996   4.373  10.757  0.1793  0.0876 -0.3433
  777MOL0     O 2462   0.862   4.387  10.763 -0.5528 -0.2028 -0.1643
  777MOL0     C 2463   0.790   4.308  10.842  1.1005  0.6943 -0.1134
  777MOL0     C 2464   0.827   4.231  10.955 -0.0606  0.9430 -0.1839
  777MOL0     C 2465   0.740   4.149  11.021 -0.2043  0.1262  0.0580
  777MOL0     C 2466   0.607   4.132  10.980 -0.7535  0.2432  0.9727
  777MOL0     O 2467   0.516   4.049  11.037 -0.2805  0.3731 -0.1333
  777MOL0     C 2468   0.555   3.963  11.142 -0.1307 -0.3556 -0.5392
  777MOL0     C 2469   0.461   3.847  11.157  0.4420 -0.3964  0.0755
  777MOL0     C 2470   0.318   3.895  11.178 -0.3249 -0.0658 -0.2550
  777MOL0     C 2471   0.228   3.778  11.209  0.3871  0.0301 -0.5855
  777MOL0     C 2472   0.081   3.823  11.255 -0.0633  0.8644 -0.1727
  777MOL0     C 2473  -0.002   3.860  11.137  0.5037  0.4602  0.2231
  777MOL0     C 2474  -0.145   3.883  11.180  0.1137 -0.7717 -0.7334
  777MOL0     C 2475  -0.224   3.967  11.084  0.7903 -0.0674 -0.3970
  777MOL0    Cl 2476  -0.159   4.137  11.102 -0.2844  0.3848  0.0962
  777MOL0     C 2477   0.569   4.199  10.863  0.4526  0.4120 -0.5572
  777MOL0     C 2478   0.652   4.296  10.801  0.2402  0.1501  0.2162
  777MOL0     O 2479   1.060   4.282  10.810 -0.0555 -0.0169 -0.1823
  777MOL0     C 2480   1.024   4.612  10.665 -0.2644 -0.5099 -0.2117
  777MOL0     C 2481   1.103   4.708  10.604  0.3409  0.3371  0.3660
  777MOL0     N 2482   1.917   4.919  10.383 -0.3097 -0.4000 -0.6292
  777MOL0     N 2483   2.039   4.953  10.419  0.4738  0.8039  0.3107
  777MOL0     C 2484   3.164   5.389  10.654  0.3879 -0.0863 -0.5947
  777MOL0     C 2485   3.278   5.434  10.715 -0.6457 -0.7814  0.0857
  777MOL0     C 2486   3.675   5.594  10.862 -0.3384  0.3241 -0.2043
  777MOL0     C 2487   3.776   5.550  10.779  0.0959  0.0200 -0.5553
  777MOL0     C 2488   3.910   5.568  10.811 -0.3999 -0.4439  0.1135
  777MOL0     C 2489   3.943   5.638  10.925 -0.6279  1.4237 -1.1401
  777MOL0     O 2490   4.075   5.661  10.968 -0.0104 -0.3055  0.3256
  777MOL0     C 2491   4.139   5.535  10.996 -0.9017 -0.4862  0.2590
  777MOL0     C 2492   4.282   5.555  11.040 -0.3853  0.0647 -1.0001
  777MOL0     C 2493   4.361   5.623  10.924  1.1156  0.0238  0.1606
  777MOL0     C 2494   4.514   5.639  10.950  0.0239  0.1819 -0.4321
  777MOL0     C 2495   4.586   5.518  10.940 -0.4513  0.1661 -0.3372
  777MOL0     C 2496   4.647   5.414  10.919 -1.3223 -0.0848 -0.1579
  777MOL0     C 2497   3.836   5.683  11.016 -0.1429  0.1810  0.4106
  777MOL0     C 2498   3.705   5.655  10.985  0.6145 -0.1506  0.1816
  777MOL0     H 2499   3.514   5.357  10.487 -0.9121 -3.4805 -0.1645
  777MOL0     H 2500   3.314   5.276  10.374 -1.4945  3.1345 -1.6507
  777MOL0     H 2501   2.887   5.333  10.520  2.4050  1.0027 -0.2268
  777MOL0     H 2502   2.948   5.219  10.639 -3.4305 -2.0851 -0.7611
  777MOL0     H 2503   2.924   5.030  10.494 -0.3025 -0.0008  0.9364
  777MOL0     H 2504   2.884   5.132  10.361  0.2385  1.4035 -0.0820
  777MOL0     H 2505   2.705   5.173  10.604  2.2067  3.0000 -0.9083
  777MOL0     H 2506   2.698   5.024  10.523  2.9084 -1.1439  0.9349
  777MOL0     H 2507   2.636   5.308  10.430 -4.6780  0.2926 -1.0914
  777MOL0     H 2508   2.690   5.193  10.309  0.0929 -1.1862  0.2898
  777MOL0     H 2509   2.447   5.172  10.514 -2.4239  1.7825 -0.2572
  777MOL0     H 2510   2.471   5.059  10.374 -1.0711  0.2906 -0.5361
  777MOL0     H 2511   2.431   5.296  10.246 -0.9256  0.0478 -0.7286
  777MOL0     H 2512   2.375   5.353  10.392 -4.1330  1.2465 -2.4835
  777MOL0     H 2513   2.200   5.240  10.234  0.3368  0.9049 -0.9738
  777MOL0     H 2514   2.287   5.086  10.276  2.9305  1.1390 -0.3974
  777MOL0     H 2515   2.142   5.261  10.476 -1.9626  0.2917  0.6115
  777MOL0     H 2516   2.219   5.097  10.502 -1.7373 -1.1365 -0.0590
  777MOL0     H 2517   1.883   5.234  10.334 -0.3734  0.0521 -1.2664
  777MOL0     H 2518   1.681   4.958  10.221  0.0736  1.1984 -0.4741
  777MOL0     H 2519   1.649   5.118  10.301 -0.3208  0.2729  0.4240
  777MOL0     H 2520   1.632   4.993  10.515  2.0811  0.3028 -0.9174
  777MOL0     H 2521   1.675   4.846  10.418  1.5303 -0.4588 -0.6438
  777MOL0     H 2522   1.402   4.998  10.404 -3.3679 -1.3075 -3.4168
  777MOL0     H 2523   1.445   4.871  10.302 -2.0680  1.2122  0.2792
  777MOL0     H 2524   1.455   4.855  10.607  2.7119 -1.1868  0.2117
  777MOL0     H 2525   1.490   4.724  10.490  2.0011  1.2884  4.2038
  777MOL0     H 2526   1.366   4.509  10.498  0.8277  0.9373  1.2694
  777MOL0     H 2527   1.246   4.350  10.614 -0.3695 -0.3095 -0.7941
  777MOL0     H 2528   0.929   4.225  10.991  0.2770  0.2291 -1.2115
  777MOL0     H 2529   0.783   4.093  11.104 -1.5647 -0.3855  0.4470
  777MOL0     H 2530   0.555   4.022  11.234 -0.5471 -3.0024  1.2860
  777MOL0     H 2531   0.653   3.915  11.131  0.2254  0.1213  0.4310
  777MOL0     H 2532   0.487   3.775  11.235  1.5260 -0.7436 -0.5898
  777MOL0     H 2533   0.461   3.795  11.061 -0.6774  2.1117 -1.3712
  777MOL0     H 2534   0.293   3.944  11.084 -2.2889  0.8511  0.6854
  777MOL0     H 2535   0.306   3.967  11.259  0.4312 -0.3781  0.1540
  777MOL0     H 2536   0.202   3.713  11.124 -2.0316 -0.0090  0.1098
  777MOL0     H 2537   0.275   3.727  11.294  1.7229  0.6532 -0.9250
  777MOL0     H 2538   0.092   3.910  11.321  2.6353  0.3599  0.1582
  777MOL0     H 2539   0.032   3.750  11.319  0.9004  1.3583  1.1823
  777MOL0     H 2540   0.008   3.797  11.048 -3.7876  0.2237 -0.2714
  777MOL0     H 2541   0.042   3.958  11.114 -0.5158  1.1308  1.0506
  777MOL0     H 2542  -0.195   3.788  11.197  1.0900 -1.1331  0.2655
  777MOL0     H 2543  -0.145   3.931  11.278  0.9932 -3.0592  0.4625
  777MOL0     H 2544  -0.330   3.961  11.108  0.2710  1.4535 -2.1335
  777MOL0     H 2545  -0.207   3.933  10.981  0.2457  0.3635 -0.6334
  777MOL0     H 2546   0.466   4.193  10.828 -0.1298 -0.5547  1.1472
  777MOL0     H 2547   0.615   4.350  10.714 -0.3841  1.8972  1.4953
  777MOL0     H 2548   0.927   4.646  10.699 -0.6750  2.3737 -3.6642
  777MOL0     H 2549   1.075   4.813  10.605  1.2902  0.6076 -0.1678
  777MOL0     H 2550   3.074   5.413  10.711  2.4639 -0.1082  2.9653
  777MOL0     H 2551   3.249   5.470  10.813 -1.5954  0.7149 -0.6886
  777MOL0     H 2552   3.754   5.497  10.687  0.9800 -0.1564 -0.6755
  777MOL0     H 2553   3.987   5.542  10.739 -0.1271 -2.3454  1.0221
  777MOL0     H 2554   4.130   5.461  10.916 -2.1705 -0.6653  0.5434
  777MOL0     H 2555   4.074   5.490  11.072 -2.6593  0.3104 -0.7255
  777MOL0     H 2556   4.269   5.632  11.117 -1.8824 -0.5949 -0.5642
  777MOL0     H 2557   4.327   5.464  11.079 -0.9991  0.3322  0.4003
  777MOL0     H 2558   4.318   5.717  10.888  0.0704 -0.5836 -0.2015
  777MOL0     H 2559   4.352   5.558  10.837 -3.9614 -2.4378  2.1302
  777MOL0     H 2560   4.554   5.712  10.878  0.1802 -0.3965 -0.9398
  777MOL0     H 2561   4.533   5.686  11.047 -0.5191 -2.5226  1.0682
  777MOL0     H 2562   4.697   5.322  10.895  0.4441  1.2397 -1.9385
  777MOL0     H 2563   3.867   5.735  11.106  0.6868  3.4838 -1.6079
  777MOL0     H 2564   3.622   5.679  11.051 -0.0214 -0.4394 -0.4985
  778MOL0     O 2565   2.835   1.819   0.673 -0.5009  0.0526 -0.1533
  778MOL0     C 2566   2.847   1.749   0.572  0.0499  1.0453  0.2057
  778MOL0     O 2567   2.960   1.714   0.514  0.2827  0.8470 -0.5372
  778MOL0     C 2568   3.082   1.722   0.584  0.3670  0.2899  0.4717
  778MOL0     C 2569   3.114   1.806   0.694 -0.0569 -0.6076  0.5670
  778MOL0     C 2570   3.250   1.812   0.734  1.0762 -0.1777  0.3545
  778MOL0     C 2571   3.339   1.718   0.680 -0.6852 -0.3822 -0.6413
  778MOL0     O 2572   3.457   1.702   0.760 -0.4120 -0.5432  0.3494
  778MOL0     C 2573   3.581   1.722   0.685 -0.1478 -0.4759 -0.0313
  778MOL0     C 2574   3.682   1.783   0.783 -0.5991 -0.6961 -0.9924
  778MOL0     C 2575   3.823   1.795   0.711  0.8538  0.0653  0.6669
  778MOL0     C 2576   3.931   1.819   0.822 -0.1967  0.8261 -0.8616
  778MOL0     C 2577   4.058   1.866   0.753 -0.4561 -0.6634  0.0463
  778MOL0     C 2578   4.168   1.895   0.852 -0.6684 -0.4310  0.2976
  778MOL0     C 2579   4.305   1.916   0.788  0.4581  0.8177 -0.0935
  778MOL0     C 2580   4.414   1.929   0.886 -0.0657  0.5854  0.3964
  778MOL0     N 2581   4.532   1.958   0.812 -0.3223  0.8223  0.0380
  778MOL0     C 2582   4.595   2.073   0.821 -1.0545 -0.2611 -0.7193
  778MOL0     C 2583   4.684   2.075   0.721 -0.6921  0.5341 -0.4046
  778MOL0     C 2584   4.792   2.169   0.689  0.7351  0.2473 -0.2036
  778MOL0     C 2585   4.745   2.266   0.592 -0.3716 -0.0217  0.1748
  778MOL0     C 2586   4.756   2.217   0.449  0.3566  0.2641  0.0286
  778MOL0     C 2587   4.759   2.328   0.340 -1.2061 -0.7789  0.2627
  778MOL0     O 2588   4.661   2.432   0.358 -0.1831 -0.1978 -0.6533
  778MOL0     C 2589   4.529   2.415   0.312 -0.4322  1.1898  0.0023
  778MOL0     C 2590   4.466   2.301   0.244 -0.0655 -0.0157 -0.2188
  778MOL0     C 2591   4.340   2.307   0.190 -0.7890 -0.0080 -0.4963
  778MOL0     C 2592   4.261   2.420   0.216 -0.6205 -0.2190  0.6847
  778MOL0     C 2593   4.117   2.418   0.172 -0.0976  0.2669  0.1284
  778MOL0     O 2594   4.089   2.334   0.078  0.1588  1.7216  0.1604
  778MOL0     C 2595   3.961   2.301   0.031 -0.1984 -0.0204 -0.5331
  778MOL0     C 2596   3.942   2.174  -0.017  0.4209 -0.7477 -0.4320
  778MOL0     C 2597   3.823   2.144  -0.066 -1.2289 -0.2348  0.1978
  778MOL0     C 2598   3.715   2.234  -0.080 -0.2793 -0.5376  0.3188
  778MOL0     O 2599   3.593   2.199  -0.113 -0.0100 -0.1790  0.1776
  778MOL0     C 2600   3.565   2.075  -0.183 -0.0635 -0.9789  0.5785
  778MOL0     C 2601   3.421   2.041  -0.142 -0.2373  0.2534 -0.7253
  778MOL0     C 2602   3.305   2.139  -0.192 -0.9003 -0.1789  0.4622
  778MOL0     C 2603   3.175   2.072  -0.162  0.1298  0.1973 -0.0516
  778MOL0     C 2604   3.061   2.169  -0.184 -0.5567  0.0287 -0.0030
  778MOL0     C 2605   2.939   2.080  -0.185 -0.5474  0.4734  0.3357
  778MOL0     C 2606   2.817   2.165  -0.199 -0.2245  0.2222 -0.2160
  778MOL0     C 2607   2.687   2.087  -0.180 -0.3665 -0.3807 -0.0258
  778MOL0    Cl 2608   2.660   1.975  -0.316  0.3753  0.5514 -0.5251
  778MOL0     C 2609   3.742   2.370  -0.056  0.3858  0.8586  0.5479
  778MOL0     C 2610   3.863   2.402   0.006 -0.1470 -0.3087  0.2743
  778MOL0     O 2611   4.035   2.497   0.219  0.3664  0.3043  0.1656
  778MOL0     C 2612   4.318   2.529   0.283 -1.1719 -0.2186 -0.1051
  778MOL0     C 2613   4.447   2.526   0.330 -0.8403 -1.1977  0.3073
  778MOL0     N 2614   4.677   1.952   0.658 -0.3836  0.3668 -0.6028
  778MOL0     N 2615   4.588   1.884   0.720  0.9550  0.1953 -0.3402
  778MOL0     C 2616   3.311   1.640   0.577 -0.7467  0.7315  1.2359
  778MOL0     C 2617   3.180   1.643   0.525  0.8188 -0.5493  0.1915
  778MOL0     C 2618   2.717   1.710   0.514  0.1062 -0.0874 -0.2158
  778MOL0     C 2619   2.604   1.727   0.589 -0.2858 -0.1426 -0.2401
  778MOL0     C 2620   2.477   1.691   0.532  0.3892  0.2429  0.3581
  778MOL0     C 2621   2.465   1.643   0.397  0.8087 -0.5855 -0.2377
  778MOL0     O 2622   2.334   1.635   0.347 -0.4018  0.3193  0.8726
  778MOL0     C 2623   2.309   1.569   0.218 -0.4540 -0.9028 -0.9379
  778MOL0     C 2624   2.162   1.526   0.215 -0.0452 -0.0478 -0.1035
  778MOL0     C 2625   2.128   1.419   0.311  0.7408 -0.0042 -0.6377
  778MOL0     C 2626   1.978   1.393   0.312  0.7908 -1.6402 -0.1304
  778MOL0     C 2627   1.943   1.326   0.189  0.8785  0.5038 -0.5831
  778MOL0     C 2628   1.901   1.274   0.088  0.3483  0.3925 -0.1742
  778MOL0     C 2629   2.584   1.629   0.326  0.0705  0.1450 -0.4684
  778MOL0     C 2630   2.707   1.661   0.389 -0.5759 -0.2192  0.0661
  778MOL0     H 2631   3.047   1.880   0.735 -0.6544 -0.8242  0.0057
  778MOL0     H 2632   3.265   1.869   0.825 -2.2350 -2.6075  2.6881
  778MOL0     H 2633   3.562   1.789   0.602  0.4199 -1.7392 -1.2143
  778MOL0     H 2634   3.624   1.626   0.655  0.7650  0.4757 -1.8615
  778MOL0     H 2635   3.692   1.711   0.864  4.7912 -0.3688 -1.0140
  778MOL0     H 2636   3.644   1.881   0.813  0.2311 -0.2736 -1.2963
  778MOL0     H 2637   3.818   1.878   0.640  1.1580  0.5926  1.2506
  778MOL0     H 2638   3.845   1.700   0.662 -2.0657 -0.7029  0.6259
  778MOL0     H 2639   3.884   1.903   0.874 -3.2701  1.0831 -3.6999
  778MOL0     H 2640   3.951   1.730   0.883 -1.6231  1.4639  0.5939
  778MOL0     H 2641   4.039   1.957   0.696  2.4605 -0.7403 -1.2168
  778MOL0     H 2642   4.087   1.785   0.686 -2.2179 -1.0082 -0.3406
  778MOL0     H 2643   4.166   1.829   0.940 -1.7881 -1.6529 -0.5908
  778MOL0     H 2644   4.161   1.992   0.901  3.0451 -0.1640  0.5594
  778MOL0     H 2645   4.332   1.837   0.718  2.5626 -0.1858  1.7189
  778MOL0     H 2646   4.290   2.010   0.734 -1.1997  0.0581 -1.0356
  778MOL0     H 2647   4.420   1.837   0.946  0.8669  1.0524  1.0379
  778MOL0     H 2648   4.384   2.013   0.949 -1.3363 -0.3776  1.1191
  778MOL0     H 2649   4.584   2.145   0.902 -0.7305 -0.7389 -0.2365
  778MOL0     H 2650   4.875   2.105   0.657  0.3027 -0.3973 -0.0585
  778MOL0     H 2651   4.817   2.217   0.784 -1.3124 -3.1396  2.2827
  778MOL0     H 2652   4.808   2.355   0.590  1.0367 -0.9901 -0.1424
  778MOL0     H 2653   4.640   2.291   0.609 -0.5371  0.4974 -1.4375
  778MOL0     H 2654   4.849   2.162   0.435  0.3300  0.5502 -1.5057
  778MOL0     H 2655   4.668   2.157   0.426 -0.1345  0.9924 -0.0337
  778MOL0     H 2656   4.735   2.263   0.255  0.4194  1.4453 -2.0335
  778MOL0     H 2657   4.860   2.365   0.321 -1.7990 -0.1925 -2.1000
  778MOL0     H 2658   4.520   2.208   0.237  0.9618  0.5329  0.1750
  778MOL0     H 2659   4.287   2.225   0.141 -0.9004  0.1009 -0.5574
  778MOL0     H 2660   4.028   2.111  -0.000  1.4051  0.8374  0.7434
  778MOL0     H 2661   3.808   2.039  -0.091 -0.7579 -0.2996  0.1648
  778MOL0     H 2662   3.630   1.989  -0.165  0.5769 -0.5024  0.5886
  778MOL0     H 2663   3.572   2.096  -0.291 -2.0311 -0.7493  0.4741
  778MOL0     H 2664   3.407   2.035  -0.034 -1.7027  0.5488 -0.8816
  778MOL0     H 2665   3.408   1.939  -0.181  4.4393 -1.4413  1.3466
  778MOL0     H 2666   3.314   2.149  -0.301  2.8599 -0.5132  0.5993
  778MOL0     H 2667   3.319   2.236  -0.144 -1.3421 -0.7960  1.8822
  778MOL0     H 2668   3.178   1.985  -0.228  0.9712  0.3715 -0.2619
  778MOL0     H 2669   3.182   2.035  -0.059  0.5407 -1.2512 -0.5735
  778MOL0     H 2670   3.069   2.213  -0.284  2.9889  0.6982  0.4470
  778MOL0     H 2671   3.065   2.243  -0.104  2.2053  0.1366 -0.1723
  778MOL0     H 2672   2.934   2.030  -0.088 -2.9109 -1.5642 -0.7301
  778MOL0     H 2673   2.947   2.009  -0.268 -0.3714  1.2696 -0.3468
  778MOL0     H 2674   2.822   2.238  -0.118 -2.6789 -0.7237  0.8966
  778MOL0     H 2675   2.815   2.215  -0.296  0.2658  2.4502  0.8722
  778MOL0     H 2676   2.603   2.157  -0.169  0.8278  0.8613  1.9272
  778MOL0     H 2677   2.691   2.034  -0.084  2.5699  2.2927  1.5368
  778MOL0     H 2678   3.657   2.435  -0.072 -1.7553 -1.9906 -0.6309
  778MOL0     H 2679   3.885   2.502   0.042  1.5261 -0.2437 -0.8427
  778MOL0     H 2680   4.254   2.613   0.307 -0.6496  0.0491  0.3859
  778MOL0     H 2681   4.496   2.613   0.372  0.9986 -1.0433 -1.9024
  778MOL0     H 2682   3.394   1.584   0.534 -0.4332  1.8440  0.3298
  778MOL0     H 2683   3.167   1.584   0.435  0.1347 -0.0023 -0.0789
  778MOL0     H 2684   2.605   1.774   0.687  1.6330  0.4240 -0.5000
  778MOL0     H 2685   2.384   1.693   0.589 -0.8381  0.2677 -1.5545
  778MOL0     H 2686   2.376   1.489   0.186 -0.5785 -0.3863 -2.5784
  778MOL0     H 2687   2.321   1.660   0.158  2.2855 -0.7009 -0.2456
  778MOL0     H 2688   2.107   1.612   0.252 -0.4414 -1.6272  3.3813
  778MOL0     H 2689   2.128   1.502   0.114 -2.6267 -0.8164  0.8795
  778MOL0     H 2690   2.156   1.447   0.413  0.9626 -1.1914 -0.3501
  778MOL0     H 2691   2.172   1.320   0.295  0.1368 -0.1832 -1.2931
  778MOL0     H 2692   1.956   1.323   0.393  1.4304 -0.4267  1.1241
  778MOL0     H 2693   1.925   1.488   0.321  1.1892 -1.1716 -2.2093
  778MOL0     H 2694   1.869   1.206   0.012 -0.0216  1.1533 -0.7141
  778MOL0     H 2695   2.588   1.598   0.222 -1.0858 -0.3870 -0.3720
  778MOL0     H 2696   2.804   1.645   0.341 -1.0394  0.5248 -1.1637
  779MOL0     O 2697   6.269   4.167   3.680  0.1133 -0.0923  0.5306
  779MOL0     C 2698   6.320   4.077   3.618  0.2448 -0.0689  0.2421
  779MOL0     O 2699   6.260   3.971   3.552  0.6329 -0.1543  0.0315
  779MOL0     C 2700   6.128   3.941   3.586  0.3217  0.7514 -0.1055
  779MOL0     C 2701   6.016   3.985   3.513 -0.1917  0.4034 -0.1789
  779MOL0     C 2702   5.886   3.940   3.527 -0.2348 -0.1818  0.0659
  779MOL0     C 2703   5.858   3.834   3.618 -0.2718  1.0173  0.1662
  779MOL0     O 2704   5.726   3.787   3.629 -0.4901 -0.0367  0.3088
  779MOL0     C 2705   5.702   3.654   3.687  0.1540 -0.3966  0.3196
  779MOL0     C 2706   5.554   3.623   3.677  0.1140 -0.0879  0.5697
  779MOL0     C 2707   5.518   3.490   3.759  0.5019 -0.3658  0.4272
  779MOL0     C 2708   5.396   3.408   3.711 -0.0079 -0.0178  0.4664
  779MOL0     C 2709   5.365   3.295   3.812  0.7997  0.8726 -0.0137
  779MOL0     C 2710   5.242   3.222   3.767 -0.3381 -1.0009  0.5108
  779MOL0     C 2711   5.184   3.129   3.881 -0.4960  0.1728  0.7076
  779MOL0     C 2712   5.246   2.983   3.871 -0.3011  0.4439  0.3578
  779MOL0     N 2713   5.182   2.892   3.963  0.0040  0.2251  0.3697
  779MOL0     C 2714   5.156   2.922   4.100  1.2525 -0.1051  0.0041
  779MOL0     C 2715   5.063   2.833   4.140  0.6517  0.0793 -0.7912
  779MOL0     C 2716   4.997   2.834   4.277 -0.2424  0.0886 -0.0625
  779MOL0     C 2717   4.849   2.803   4.279  1.2747 -0.3820  0.1323
  779MOL0     C 2718   4.781   2.813   4.419 -0.8275 -0.4480 -0.2768
  779MOL0     C 2719   4.632   2.783   4.404 -0.0360  0.1827 -0.5876
  779MOL0     O 2720   4.584   2.754   4.538  0.4760  0.0040 -0.6148
  779MOL0     C 2721   4.444   2.754   4.565 -0.4644 -0.0814  0.1658
  779MOL0     C 2722   4.347   2.762   4.463  0.4651  0.8818  0.9865
  779MOL0     C 2723   4.212   2.765   4.492 -0.5777  0.2875  0.8867
  779MOL0     C 2724   4.164   2.767   4.628 -0.6499 -0.4738  0.0867
  779MOL0     C 2725   4.023   2.776   4.665  0.2032  0.3502 -0.2170
  779MOL0     O 2726   3.939   2.774   4.556  0.1879 -1.0082 -0.3896
  779MOL0     C 2727   3.807   2.770   4.575  0.3097 -0.1305  0.7239
  779MOL0     C 2728   3.722   2.827   4.673  0.3845 -1.1207 -0.0356
  779MOL0     C 2729   3.583   2.822   4.661  0.2530  0.0806  0.3457
  779MOL0     C 2730   3.514   2.757   4.556 -0.2387 -0.7371 -0.1569
  779MOL0     O 2731   3.380   2.730   4.551 -0.4517  0.5182 -1.0629
  779MOL0     C 2732   3.295   2.819   4.618 -0.3665 -0.1876  0.6087
  779MOL0     C 2733   3.150   2.796   4.569  0.0641  0.6792 -0.1143
  779MOL0     C 2734   3.070   2.705   4.672 -0.1893  0.0733 -0.0430
  779MOL0     C 2735   2.923   2.742   4.672  0.2548  0.1016  0.1191
  779MOL0     C 2736   2.849   2.654   4.763  0.2530 -0.1500  0.5486
  779MOL0     C 2737   2.720   2.717   4.819  0.2607 -0.1187  0.2486
  779MOL0     C 2738   2.605   2.721   4.715 -0.1215  0.1980 -0.0660
  779MOL0     C 2739   2.470   2.714   4.785 -0.7173  0.5477  0.8903
  779MOL0    Cl 2740   2.467   2.859   4.894  0.0903  0.0062  0.0194
  779MOL0     C 2741   3.596   2.697   4.463 -0.2160 -0.0666 -0.2956
  779MOL0     C 2742   3.735   2.708   4.472  0.2707 -0.0424 -0.3683
  779MOL0     O 2743   3.994   2.780   4.782  0.4274  0.9458 -0.1851
  779MOL0     C 2744   4.263   2.749   4.726  0.7930  0.4971  0.2583
  779MOL0     C 2745   4.396   2.742   4.697 -0.8635 -0.2073  0.1609
  779MOL0     N 2746   5.043   2.746   4.030  0.3772  0.1164  0.1098
  779MOL0     N 2747   5.107   2.786   3.930 -0.1505 -0.0217  0.5371
  779MOL0     C 2748   5.971   3.784   3.695  0.0789 -0.2203  0.6811
  779MOL0     C 2749   6.099   3.839   3.684 -0.5737  0.4086  0.6211
  779MOL0     C 2750   6.469   4.085   3.598  0.3202  0.2366 -1.0798
  779MOL0     C 2751   6.550   4.160   3.688 -0.4448  0.0126  0.1690
  779MOL0     C 2752   6.691   4.165   3.675  0.3315 -0.1119 -0.3321
  779MOL0     C 2753   6.759   4.080   3.584  0.2868 -0.3773 -0.3800
  779MOL0     O 2754   6.886   4.077   3.555  0.6634  0.0130  0.1127
  779MOL0     C 2755   6.980   4.144   3.637  0.0588  0.1807 -0.4203
  779MOL0     C 2756   7.115   4.109   3.578 -0.8835  0.2282 -0.4439
  779MOL0     C 2757   7.244   4.132   3.657  0.0841 -0.4618 -0.1935
  779MOL0     C 2758   7.290   4.278   3.652 -0.6594  0.3409 -0.0001
  779MOL0     C 2759   7.399   4.295   3.749 -0.2580  0.2045  0.4598
  779MOL0     C 2760   7.492   4.310   3.828  0.6946 -0.6455  0.2824
  779MOL0     C 2761   6.676   3.994   3.505  0.1808 -0.7735  0.2549
  779MOL0     C 2762   6.537   3.995   3.515 -0.0291 -0.4313  0.2993
  779MOL0     H 2763   6.033   4.064   3.440 -1.1447 -1.7917 -2.9627
  779MOL0     H 2764   5.802   3.981   3.472 -1.9854  0.6375  3.1257
  779MOL0     H 2765   5.731   3.645   3.792  1.2555  1.3866  0.2174
  779MOL0     H 2766   5.744   3.576   3.623 -0.3745  1.2979 -2.2366
  779MOL0     H 2767   5.527   3.612   3.572  2.7950 -1.4722 -0.0541
  779MOL0     H 2768   5.493   3.698   3.729  1.7183  0.7991  1.2546
  779MOL0     H 2769   5.488   3.509   3.863 -2.8315  0.4350 -0.5606
  779MOL0     H 2770   5.612   3.434   3.761  1.0054  0.4400  0.0293
  779MOL0     H 2771   5.309   3.473   3.706  0.8496  1.0803 -1.0281
  779MOL0     H 2772   5.408   3.357   3.615 -1.0214  0.6430 -0.0269
  779MOL0     H 2773   5.364   3.338   3.912  2.6278  1.7894 -0.3527
  779MOL0     H 2774   5.450   3.225   3.806  1.3713  1.6365 -1.1072
  779MOL0     H 2775   5.263   3.147   3.690 -1.7291  0.1071 -1.0204
  779MOL0     H 2776   5.162   3.288   3.733 -0.9399 -0.5738  2.6195
  779MOL0     H 2777   5.185   3.182   3.976 -0.0670  2.0516 -0.2923
  779MOL0     H 2778   5.077   3.118   3.862 -0.2165 -0.9505 -0.4445
  779MOL0     H 2779   5.355   2.987   3.884 -0.4854  0.4806  2.0450
  779MOL0     H 2780   5.243   2.939   3.771 -2.8472 -2.1349  1.4514
  779MOL0     H 2781   5.199   3.003   4.157  1.4853  0.5523 -1.0811
  779MOL0     H 2782   5.040   2.920   4.329  0.4083  0.4180 -1.1253
  779MOL0     H 2783   5.042   2.751   4.333 -3.4199 -2.0160 -0.3789
  779MOL0     H 2784   4.827   2.699   4.255 -0.8665 -0.3720  1.7712
  779MOL0     H 2785   4.801   2.869   4.205  0.5864  1.4227  2.1080
  779MOL0     H 2786   4.831   2.749   4.492  1.7507 -1.2688 -2.5790
  779MOL0     H 2787   4.795   2.914   4.456 -0.0391  0.5289 -2.9758
  779MOL0     H 2788   4.618   2.703   4.330  2.6832 -0.5964 -0.3562
  779MOL0     H 2789   4.581   2.872   4.368  1.1340  0.9432 -0.4226
  779MOL0     H 2790   4.379   2.772   4.360 -0.2168 -0.1285  0.6625
  779MOL0     H 2791   4.139   2.787   4.416 -0.6084 -1.4113  0.3686
  779MOL0     H 2792   3.767   2.882   4.755 -0.6842 -2.1293  1.2789
  779MOL0     H 2793   3.525   2.862   4.743  0.2313 -0.5976  0.6651
  779MOL0     H 2794   3.318   2.922   4.590 -0.5714 -0.8098 -2.2007
  779MOL0     H 2795   3.296   2.815   4.727  0.1486  1.5148  0.6969
  779MOL0     H 2796   3.158   2.738   4.477  0.0493  1.9305 -0.9242
  779MOL0     H 2797   3.097   2.891   4.556 -1.0173  0.2971  1.2267
  779MOL0     H 2798   3.098   2.721   4.777 -4.8537 -0.7008  1.5374
  779MOL0     H 2799   3.070   2.597   4.653  0.9275 -0.5760  3.0455
  779MOL0     H 2800   2.916   2.839   4.722 -1.5162  0.2285 -0.2988
  779MOL0     H 2801   2.875   2.745   4.573 -3.0611 -0.0206  1.5691
  779MOL0     H 2802   2.913   2.633   4.849  0.6874  0.5272  0.3919
  779MOL0     H 2803   2.830   2.559   4.712  0.5373  0.4051 -0.6193
  779MOL0     H 2804   2.757   2.816   4.848  1.2759  0.0350 -1.4177
  779MOL0     H 2805   2.687   2.663   4.908 -1.0457  1.0835  0.5234
  779MOL0     H 2806   2.618   2.810   4.652  0.3199 -0.0451 -0.3249
  779MOL0     H 2807   2.609   2.629   4.656  1.4195  0.5786 -0.6057
  779MOL0     H 2808   2.451   2.625   4.846  3.5223  0.1920  2.0612
  779MOL0     H 2809   2.388   2.707   4.714  0.8886 -2.9544 -0.8673
  779MOL0     H 2810   3.539   2.662   4.377 -3.6390  0.1553  1.7062
  779MOL0     H 2811   3.793   2.670   4.389  1.8819 -1.3143  1.2665
  779MOL0     H 2812   4.242   2.729   4.830 -2.7032 -1.1947 -0.6369
  779MOL0     H 2813   4.463   2.724   4.780  0.2451 -1.9288 -1.0372
  779MOL0     H 2814   5.955   3.707   3.770  2.3994 -0.1417  1.3234
  779MOL0     H 2815   6.172   3.802   3.756  0.3121  1.3482  0.2405
  779MOL0     H 2816   6.515   4.235   3.758  1.5073  0.2781  0.9369
  779MOL0     H 2817   6.742   4.239   3.737 -0.1696  0.5549 -0.6950
  779MOL0     H 2818   6.958   4.096   3.733  0.3609  4.4023  2.0085
  779MOL0     H 2819   6.965   4.252   3.649  0.7489  0.0557  2.2619
  779MOL0     H 2820   7.124   4.000   3.567  3.2625  0.1756  1.3618
  779MOL0     H 2821   7.132   4.157   3.481  0.4778 -0.9777 -0.8418
  779MOL0     H 2822   7.323   4.063   3.625 -0.9508 -1.3102 -0.9998
  779MOL0     H 2823   7.220   4.098   3.758 -1.4869 -2.2120 -1.0804
  779MOL0     H 2824   7.324   4.309   3.552  0.4136 -2.8473 -0.7374
  779MOL0     H 2825   7.202   4.339   3.677 -0.2079  1.3259 -0.7241
  779MOL0     H 2826   7.578   4.333   3.888  1.6775  2.1944 -1.9803
  779MOL0     H 2827   6.724   3.932   3.430  3.1397 -0.5579  1.8047
  779MOL0     H 2828   6.480   3.934   3.445  2.2012 -0.5024 -1.5762
  780MOL0     O 2829   4.194   4.812   7.699  0.0978 -0.0361  0.2754
  780MOL0     C 2830   4.306   4.802   7.743 -0.2656  0.0189 -0.1673
  780MOL0     O 2831   4.424   4.804   7.657  1.2939 -0.1592  0.1700
  780MOL0     C 2832   4.403   4.842   7.527  0.6836  0.2238  0.5799
  780MOL0     C 2833   4.393   4.731   7.436  0.3800 -0.8129 -0.4142
  780MOL0     C 2834   4.356   4.749   7.299  0.5828 -0.0105  0.0376
  780MOL0     C 2835   4.333   4.879   7.251  0.4095 -0.2842  0.0334
  780MOL0     O 2836   4.283   4.899   7.127  0.8615 -0.2287 -0.0739
  780MOL0     C 2837   4.270   5.025   7.066 -0.1440  0.8325 -0.0390
  780MOL0     C 2838   4.217   5.007   6.930  0.3879  0.9039  0.4980
  780MOL0     C 2839   4.208   5.137   6.849  0.2523  0.1767 -0.0451
  780MOL0     C 2840   4.097   5.229   6.887 -0.0431 -0.8117  0.3742
  780MOL0     C 2841   4.060   5.319   6.764  1.2095 -0.1055 -0.0151
  780MOL0     C 2842   3.936   5.387   6.814  0.1186  0.7732 -0.7623
  780MOL0     C 2843   3.852   5.461   6.706 -1.1567  0.7322 -0.5429
  780MOL0     C 2844   3.749   5.374   6.633  0.3035  0.7043  0.5169
  780MOL0     N 2845   3.647   5.331   6.722  0.2745  0.3542 -0.0192
  780MOL0     C 2846   3.545   5.407   6.768  1.0354  1.2978  0.3660
  780MOL0     C 2847   3.466   5.328   6.851 -0.6484 -0.0963  0.7774
  780MOL0     C 2848   3.345   5.379   6.924 -0.3665 -0.8856  1.7412
  780MOL0     C 2849   3.245   5.273   6.968  0.0509  0.4828  0.3407
  780MOL0     C 2850   3.149   5.338   7.073 -0.8836 -0.1256 -0.6222
  780MOL0     C 2851   3.052   5.236   7.129  1.0032  0.0225 -0.2429
  780MOL0     O 2852   2.962   5.307   7.219  0.0436 -0.6046 -0.1225
  780MOL0     C 2853   2.852   5.372   7.168  0.1443 -1.1595 -0.1251
  780MOL0     C 2854   2.761   5.427   7.254 -0.3627  0.6167 -0.3246
  780MOL0     C 2855   2.645   5.487   7.210 -0.1981  0.1481 -0.3666
  780MOL0     C 2856   2.602   5.491   7.077  0.4492  0.8644  0.4266
  780MOL0     C 2857   2.471   5.537   7.025  0.3927 -0.0146  0.2930
  780MOL0     O 2858   2.386   5.591   7.117 -0.1668  0.5851 -0.6405
  780MOL0     C 2859   2.269   5.662   7.103  0.2288  0.4809 -0.6493
  780MOL0     C 2860   2.158   5.635   7.194  0.2980  0.4447  0.7095
  780MOL0     C 2861   2.040   5.709   7.172  0.5418  0.2718 -0.7655
  780MOL0     C 2862   2.025   5.813   7.084  0.5136 -0.2182 -0.0722
  780MOL0     O 2863   1.919   5.892   7.066  0.2939 -0.2433 -0.1191
  780MOL0     C 2864   1.893   5.984   7.175  1.3438 -0.4321 -0.7274
  780MOL0     C 2865   1.807   6.099   7.138  0.3382  0.4257  0.1256
  780MOL0     C 2866   1.871   6.199   7.050 -0.1021 -0.7954 -0.4535
  780MOL0     C 2867   2.000   6.265   7.113 -0.3946 -0.5588  0.0067
  780MOL0     C 2868   2.021   6.412   7.084  0.3908  0.1857  0.9840
  780MOL0     C 2869   2.153   6.465   7.145 -0.5690 -0.0622  0.7072
  780MOL0     C 2870   2.153   6.617   7.119 -0.2059  0.6545  0.0250
  780MOL0     C 2871   2.284   6.672   7.072 -0.8414  0.5290 -0.2403
  780MOL0    Cl 2872   2.338   6.592   6.920  0.3949 -0.3489  0.4080
  780MOL0     C 2873   2.137   5.839   7.004 -0.1436 -0.0931 -0.2983
  780MOL0     C 2874   2.248   5.763   7.012 -0.5170  0.2137 -0.7716
  780MOL0     O 2875   2.442   5.528   6.906  0.0981 -0.1760  0.4593
  780MOL0     C 2876   2.696   5.441   6.986  0.0328 -0.9242 -0.1862
  780MOL0     C 2877   2.818   5.385   7.029 -0.3701 -0.4494 -0.9106
  780MOL0     N 2878   3.529   5.208   6.850 -0.6557  0.1696 -0.1443
  780MOL0     N 2879   3.637   5.206   6.776  0.5230 -0.2781  0.4316
  780MOL0     C 2880   4.336   4.983   7.354 -0.3663 -0.5420  0.9558
  780MOL0     C 2881   4.370   4.968   7.480  0.1933  0.4529  0.5036
  780MOL0     C 2882   4.325   4.782   7.884  0.2757 -0.0340 -0.4947
  780MOL0     C 2883   4.213   4.752   7.963  0.1641 -0.1612  0.0796
  780MOL0     C 2884   4.232   4.728   8.091  0.1119 -0.0676  0.1203
  780MOL0     C 2885   4.357   4.730   8.154 -0.2247 -0.8581 -0.2308
  780MOL0     O 2886   4.356   4.717   8.286 -0.1886 -0.7375 -0.0374
  780MOL0     C 2887   4.482   4.677   8.350  0.3621  0.2053 -0.1259
  780MOL0     C 2888   4.455   4.655   8.495 -0.4046  0.4512  0.7324
  780MOL0     C 2889   4.455   4.801   8.567  0.3210  0.2197  0.6459
  780MOL0     C 2890   4.601   4.846   8.606  0.0687 -0.6057 -0.0904
  780MOL0     C 2891   4.593   4.966   8.686 -0.0689  0.0926  0.0231
  780MOL0     C 2892   4.590   5.075   8.731  0.1836  0.0033  0.5541
  780MOL0     C 2893   4.466   4.765   8.077 -0.4572  0.6200  0.9828
  780MOL0     C 2894   4.455   4.793   7.939 -0.3073  0.4439  0.0807
  780MOL0     H 2895   4.428   4.634   7.470 -3.0651 -1.9171  0.3456
  780MOL0     H 2896   4.344   4.666   7.231 -0.1056  1.2116 -1.4079
  780MOL0     H 2897   4.371   5.067   7.060  0.0759  0.3995  0.4944
  780MOL0     H 2898   4.219   5.105   7.121  0.6336  2.5120 -1.6730
  780MOL0     H 2899   4.122   4.954   6.941  0.3667  1.0416  0.9854
  780MOL0     H 2900   4.288   4.939   6.882  0.0932  1.3228 -0.5574
  780MOL0     H 2901   4.194   5.108   6.744 -0.9651  0.7012 -0.0487
  780MOL0     H 2902   4.307   5.183   6.852 -0.4271  1.6663  2.2670
  780MOL0     H 2903   4.014   5.159   6.901 -0.2033 -0.6501  0.2327
  780MOL0     H 2904   4.115   5.288   6.977 -0.1727 -0.8325  0.4137
  780MOL0     H 2905   4.030   5.258   6.679 -0.0089  2.6690 -1.7163
  780MOL0     H 2906   4.143   5.382   6.731 -0.4382  1.0059 -2.2767
  780MOL0     H 2907   3.973   5.462   6.884 -0.1125 -0.4221  0.6839
  780MOL0     H 2908   3.872   5.321   6.874  1.7951  0.7600  1.1094
  780MOL0     H 2909   3.794   5.535   6.763 -3.6667 -2.0662  0.8533
  780MOL0     H 2910   3.921   5.504   6.634  1.7259  2.0762  2.7244
  780MOL0     H 2911   3.799   5.282   6.600  1.4634  1.3361  0.4424
  780MOL0     H 2912   3.716   5.424   6.542  1.4854 -2.0512 -1.5882
  780MOL0     H 2913   3.513   5.508   6.743 -1.0960  0.9961  1.6960
  780MOL0     H 2914   3.286   5.447   6.863 -1.7393 -1.1555  2.7226
  780MOL0     H 2915   3.368   5.448   7.006 -1.8143  2.0318 -0.1485
  780MOL0     H 2916   3.299   5.190   7.014  0.2511  0.6225  0.3580
  780MOL0     H 2917   3.180   5.242   6.886  1.4434 -0.6415 -0.3733
  780MOL0     H 2918   3.205   5.384   7.155 -2.0424 -3.3286  2.1631
  780MOL0     H 2919   3.099   5.417   7.015 -1.4464 -1.4517 -1.9948
  780MOL0     H 2920   3.104   5.164   7.192  1.7372  2.3329  1.9491
  780MOL0     H 2921   2.988   5.183   7.058  2.0663  0.9831 -2.0042
  780MOL0     H 2922   2.794   5.434   7.357 -2.0180  0.6938  0.2324
  780MOL0     H 2923   2.588   5.529   7.291  0.8128  1.2075 -0.1688
  780MOL0     H 2924   2.164   5.549   7.262 -1.5710 -1.6425 -1.5790
  780MOL0     H 2925   1.952   5.687   7.233  0.5857  0.7623 -0.5198
  780MOL0     H 2926   1.987   6.008   7.224  2.1727 -1.6226 -1.6602
  780MOL0     H 2927   1.844   5.927   7.255  2.6498 -1.6917 -0.7881
  780MOL0     H 2928   1.761   6.135   7.230 -0.3589  0.2693 -0.1534
  780MOL0     H 2929   1.729   6.051   7.077  0.1045 -1.2719  1.6649
  780MOL0     H 2930   1.794   6.270   7.019 -0.1900 -0.5199  0.3717
  780MOL0     H 2931   1.906   6.144   6.963  0.0002 -0.8869 -0.3548
  780MOL0     H 2932   1.997   6.265   7.222  2.0608 -0.0219  0.1395
  780MOL0     H 2933   2.084   6.207   7.074 -0.7603 -1.7919  0.9865
  780MOL0     H 2934   1.942   6.480   7.116  1.7788  2.4766 -0.1740
  780MOL0     H 2935   2.029   6.424   6.975 -0.3813 -2.3248  0.5885
  780MOL0     H 2936   2.239   6.408   7.110 -0.3471 -0.2535  1.5531
  780MOL0     H 2937   2.143   6.449   7.252 -1.2539 -0.4090  0.6023
  780MOL0     H 2938   2.084   6.634   7.036  0.4961  0.7625 -0.5442
  780MOL0     H 2939   2.129   6.672   7.211  1.7230  1.8408 -0.1378
  780MOL0     H 2940   2.364   6.661   7.147 -1.5033 -1.5066  0.2383
  780MOL0     H 2941   2.280   6.780   7.058  1.3830  1.0679  2.4205
  780MOL0     H 2942   2.137   5.924   6.937 -0.8409 -0.0638 -0.2748
  780MOL0     H 2943   2.336   5.779   6.950 -0.7494 -0.7907 -1.3694
  780MOL0     H 2944   2.672   5.445   6.880 -0.3263 -1.3056 -0.1258
  780MOL0     H 2945   2.885   5.360   6.947  2.2029  1.8673  0.3190
  780MOL0     H 2946   4.321   5.085   7.321  1.4161 -0.4906  0.1650
  780MOL0     H 2947   4.384   5.053   7.547  1.3321  0.3727  0.3991
  780MOL0     H 2948   4.116   4.763   7.916  0.7403 -1.9989 -1.6783
  780MOL0     H 2949   4.145   4.711   8.153 -0.2693 -2.6707 -1.0107
  780MOL0     H 2950   4.559   4.754   8.340 -0.6498  1.4793  1.4525
  780MOL0     H 2951   4.508   4.583   8.298 -1.4904  0.1942 -1.1175
  780MOL0     H 2952   4.360   4.602   8.505  0.7223 -2.5861 -2.5333
  780MOL0     H 2953   4.529   4.585   8.535  1.3599  0.9314 -1.4308
  780MOL0     H 2954   4.402   4.784   8.661 -0.7679  2.4791  0.5253
  780MOL0     H 2955   4.404   4.879   8.510  0.6281  1.8684  2.5218
  780MOL0     H 2956   4.655   4.772   8.666  2.4140  2.3967  1.7816
  780MOL0     H 2957   4.653   4.864   8.512 -1.2501 -3.1867 -1.4442
  780MOL0     H 2958   4.573   5.173   8.770 -0.8613 -1.4475  4.1288
  780MOL0     H 2959   4.566   4.775   8.119  1.9628  0.0468 -3.8986
  780MOL0     H 2960   4.535   4.835   7.879  0.8986  0.9687  1.9774
  781MOL0     O 2961   2.350   7.131  10.967 -0.3740 -0.1816 -0.1275
  781MOL0     C 2962   2.460   7.189  10.981 -0.1318  0.1736  0.7581
  781MOL0     O 2963   2.485   7.284  11.081  0.0088  0.2194  0.2630
  781MOL0     C 2964   2.376   7.319  11.161 -0.1497  0.5634  0.3085
  781MOL0     C 2965   2.253   7.376  11.122 -0.9383  0.3618  1.0380
  781MOL0     C 2966   2.150   7.402  11.206 -0.1861 -0.6721 -0.8851
  781MOL0     C 2967   2.162   7.366  11.341  1.0036  0.1608 -0.2659
  781MOL0     O 2968   2.059   7.370  11.432  0.6878 -0.0989 -0.0203
  781MOL0     C 2969   1.939   7.423  11.381 -0.0522  0.3940  1.0216
  781MOL0     C 2970   1.826   7.418  11.482  0.1745 -0.5065 -0.3291
  781MOL0     C 2971   1.693   7.491  11.439 -0.8859 -0.3662 -0.3651
  781MOL0     C 2972   1.613   7.553  11.554 -0.0281 -0.2173 -0.2160
  781MOL0     C 2973   1.501   7.643  11.507 -0.3324 -0.6006 -0.1036
  781MOL0     C 2974   1.406   7.557  11.420  0.0810  1.0136  0.4348
  781MOL0     C 2975   1.275   7.625  11.370  0.6392 -0.6506  0.5821
  781MOL0     C 2976   1.316   7.713  11.250  0.6782 -0.2589  0.4684
  781MOL0     N 2977   1.200   7.779  11.182 -0.4963  0.6032  0.6174
  781MOL0     C 2978   1.129   7.893  11.211 -0.2696 -0.7197 -0.0512
  781MOL0     C 2979   1.011   7.885  11.139 -0.3668  0.2387 -0.6736
  781MOL0     C 2980   0.903   7.985  11.126  0.1979  0.2730 -0.1208
  781MOL0     C 2981   0.775   7.937  11.061 -0.2054  0.1963  0.5726
  781MOL0     C 2982   0.664   8.038  11.077  0.4777 -0.3835  1.1445
  781MOL0     C 2983   0.532   7.971  11.031 -1.0643  0.8502 -0.2594
  781MOL0     O 2984   0.421   8.046  11.090  0.0756 -0.7466  0.2239
  781MOL0     C 2985   0.297   7.989  11.073  0.0058  0.2284  0.0537
  781MOL0     C 2986   0.271   7.846  11.067  0.2285 -0.0224 -0.1851
  781MOL0     C 2987   0.139   7.799  11.063 -0.0214 -0.2372  0.4449
  781MOL0     C 2988   0.029   7.888  11.064 -0.3216  0.2998 -0.2360
  781MOL0     C 2989  -0.100   7.826  11.056 -0.1656 -0.2197 -1.1784
  781MOL0     O 2990  -0.194   7.911  11.109  0.4464  0.0466 -0.1604
  781MOL0     C 2991  -0.323   7.867  11.115  0.1596  1.1228  0.0777
  781MOL0     C 2992  -0.366   7.807  11.234 -1.1372  0.3681  0.4206
  781MOL0     C 2993  -0.489   7.745  11.238  0.4382 -0.1257  0.3580
  781MOL0     C 2994  -0.579   7.748  11.125  1.2511  0.1725 -0.7544
  781MOL0     O 2995  -0.706   7.699  11.145  0.4216 -0.1886  0.2152
  781MOL0     C 2996  -0.793   7.689  11.038 -0.0499 -0.2509  0.7906
  781MOL0     C 2997  -0.903   7.601  11.078  0.3626  0.4267  0.6393
  781MOL0     C 2998  -0.991   7.673  11.175  1.0369  0.3372 -0.8207
  781MOL0     C 2999  -1.129   7.593  11.190  0.2960  0.0055 -0.3799
  781MOL0     C 3000  -1.219   7.637  11.307 -0.3800 -0.7784  0.6403
  781MOL0     C 3001  -1.334   7.540  11.327  0.0349  0.4475 -0.0058
  781MOL0     C 3002  -1.299   7.401  11.374 -0.1860 -1.3590 -0.6343
  781MOL0     C 3003  -1.407   7.299  11.371  0.6519 -0.8268  0.1575
  781MOL0    Cl 3004  -1.545   7.322  11.491  0.3033 -0.3132  0.1493
  781MOL0     C 3005  -0.535   7.823  11.017  0.7953 -0.3451  0.2372
  781MOL0     C 3006  -0.410   7.881  11.012 -0.2783 -0.1479  0.7427
  781MOL0     O 3007  -0.123   7.710  11.013  0.5616  0.5639  0.5154
  781MOL0     C 3008   0.055   8.024  11.062 -0.0912 -0.8857 -0.5559
  781MOL0     C 3009   0.187   8.078  11.064  0.6342 -0.9113 -0.1659
  781MOL0     N 3010   1.009   7.766  11.074 -0.3474 -0.2089  0.6770
  781MOL0     N 3011   1.120   7.708  11.101  0.0492 -0.1797 -0.6998
  781MOL0     C 3012   2.279   7.303  11.387  0.8426  1.1208 -1.3188
  781MOL0     C 3013   2.383   7.276  11.294  0.3051 -0.1534 -0.2334
  781MOL0     C 3014   2.560   7.173  10.883 -0.4472 -0.4371  0.6111
  781MOL0     C 3015   2.694   7.228  10.892  0.4080  0.0098 -0.3615
  781MOL0     C 3016   2.790   7.207  10.788 -0.3613  0.6681 -0.3291
  781MOL0     C 3017   2.756   7.135  10.678  0.4622  0.1242 -0.2193
  781MOL0     O 3018   2.848   7.093  10.590  0.0632 -0.2685  0.9486
  781MOL0     C 3019   2.899   7.204  10.514  0.2796 -0.7615  0.8883
  781MOL0     C 3020   2.831   7.189  10.370  0.5867  0.3159 -0.1211
  781MOL0     C 3021   2.671   7.211  10.373 -0.9075  0.3965  0.0920
  781MOL0     C 3022   2.633   7.323  10.270  0.2046  0.0572  0.1722
  781MOL0     C 3023   2.504   7.372  10.310 -0.6765  0.8278  0.2921
  781MOL0     C 3024   2.402   7.421  10.340  0.5078 -0.6174  0.5572
  781MOL0     C 3025   2.630   7.071  10.673  0.6757  0.0920  0.0696
  781MOL0     C 3026   2.529   7.096  10.769 -0.4250  0.1684 -0.2906
  781MOL0     H 3027   2.246   7.399  11.016  0.3531 -3.2623  0.0267
  781MOL0     H 3028   2.069   7.453  11.153  0.8961  1.0735 -0.9382
  781MOL0     H 3029   1.914   7.373  11.287 -2.0357  2.1806  0.5248
  781MOL0     H 3030   1.955   7.528  11.356 -0.3633  0.7164  2.1144
  781MOL0     H 3031   1.861   7.469  11.571  1.4948  0.1503 -1.1979
  781MOL0     H 3032   1.808   7.315  11.514  2.7062 -0.5959  1.0028
  781MOL0     H 3033   1.634   7.413  11.392 -0.6672  0.3656 -1.9330
  781MOL0     H 3034   1.724   7.561  11.361 -0.4391 -1.4384 -1.1685
  781MOL0     H 3035   1.574   7.477  11.623 -0.9052 -0.8386 -1.3743
  781MOL0     H 3036   1.687   7.614  11.607  1.8157 -1.4059 -1.3464
  781MOL0     H 3037   1.554   7.721  11.451  2.2013 -1.4486  0.9417
  781MOL0     H 3038   1.454   7.684  11.597 -0.3932  0.4406 -0.5972
  781MOL0     H 3039   1.371   7.470  11.476  2.5790  0.2553  0.9605
  781MOL0     H 3040   1.447   7.502  11.334 -3.7213 -1.8249  0.1647
  781MOL0     H 3041   1.205   7.545  11.345  2.4177 -1.9559 -0.4683
  781MOL0     H 3042   1.228   7.687  11.447  0.9271  1.5026 -0.8812
  781MOL0     H 3043   1.369   7.655  11.173 -0.4025 -0.0094 -0.5034
  781MOL0     H 3044   1.383   7.788  11.293  0.9382 -1.0804  1.5430
  781MOL0     H 3045   1.159   7.983  11.264 -2.7358  0.6197 -0.7911
  781MOL0     H 3046   0.950   8.064  11.067  2.4159 -1.3724 -0.6946
  781MOL0     H 3047   0.884   8.020  11.228  0.0482  0.3592 -0.1782
  781MOL0     H 3048   0.750   7.837  11.098  2.1437  0.0849  2.1059
  781MOL0     H 3049   0.808   7.915  10.959  0.2979 -2.2222  1.1960
  781MOL0     H 3050   0.668   8.075  11.179  1.5095 -2.7349  2.0425
  781MOL0     H 3051   0.671   8.124  11.010 -0.1032  1.4051  3.2714
  781MOL0     H 3052   0.535   7.868  11.068 -2.0477 -0.2812 -3.0142
  781MOL0     H 3053   0.524   7.958  10.922  1.6342 -2.9173 -0.1910
  781MOL0     H 3054   0.352   7.774  11.069  2.6704  2.5533 -0.0927
  781MOL0     H 3055   0.127   7.691  11.063 -1.3952 -0.2308 -3.2882
  781MOL0     H 3056  -0.300   7.798  11.319 -1.2001  0.6914  0.5058
  781MOL0     H 3057  -0.530   7.697  11.326 -1.0251 -1.2986 -0.8971
  781MOL0     H 3058  -0.749   7.648  10.947 -0.2937  0.0279  0.5436
  781MOL0     H 3059  -0.828   7.791  11.016  1.2443 -0.6198 -4.1320
  781MOL0     H 3060  -0.858   7.511  11.120  2.4548  1.1639  0.0782
  781MOL0     H 3061  -0.957   7.577  10.986 -0.3319  4.0141 -0.0298
  781MOL0     H 3062  -1.014   7.766  11.120 -1.8267 -1.1926 -2.4545
  781MOL0     H 3063  -0.945   7.700  11.270  2.1686  2.0416 -1.7944
  781MOL0     H 3064  -1.189   7.602  11.098  0.5813  3.1638 -0.3629
  781MOL0     H 3065  -1.092   7.491  11.205 -1.3559 -0.8274 -1.5548
  781MOL0     H 3066  -1.252   7.741  11.302 -0.5911 -0.8441  0.6836
  781MOL0     H 3067  -1.154   7.637  11.395  0.4129  0.8729  0.0958
  781MOL0     H 3068  -1.396   7.534  11.237  0.2173  0.5673 -0.1391
  781MOL0     H 3069  -1.400   7.590  11.399  0.7370 -2.6624  3.1131
  781MOL0     H 3070  -1.217   7.363  11.313 -1.2032 -1.2161 -2.1275
  781MOL0     H 3071  -1.267   7.401  11.479  2.1536 -1.9711 -1.2825
  781MOL0     H 3072  -1.358   7.205  11.395  1.1972 -0.3195  1.1104
  781MOL0     H 3073  -1.451   7.283  11.273 -1.5113 -2.8863  1.3573
  781MOL0     H 3074  -0.604   7.844  10.935  1.1161 -2.8107 -0.7398
  781MOL0     H 3075  -0.381   7.926  10.918 -2.3237  0.5604  0.4166
  781MOL0     H 3076  -0.022   8.101  11.060  0.4506 -0.0608  2.8264
  781MOL0     H 3077   0.198   8.184  11.080 -0.7702 -0.6712 -0.5998
  781MOL0     H 3078   2.296   7.262  11.486 -1.9111 -1.9121 -1.9534
  781MOL0     H 3079   2.475   7.226  11.322  0.5344  1.4054  2.0177
  781MOL0     H 3080   2.730   7.268  10.986 -0.5225  0.9646 -0.3826
  781MOL0     H 3081   2.884   7.260  10.799 -1.0799  1.8651  0.2641
  781MOL0     H 3082   3.007   7.215  10.506 -0.0441  3.1778 -0.7757
  781MOL0     H 3083   2.865   7.302  10.550  1.3467 -0.7947  2.0229
  781MOL0     H 3084   2.871   7.263  10.300 -4.1796  1.3210 -2.1714
  781MOL0     H 3085   2.864   7.089  10.340 -0.3591 -0.2954  0.7951
  781MOL0     H 3086   2.643   7.253  10.470  1.1131 -0.5042  1.1188
  781MOL0     H 3087   2.615   7.121  10.345  0.0921 -0.1792 -0.1050
  781MOL0     H 3088   2.706   7.404  10.276  0.1564  0.0305  1.1844
  781MOL0     H 3089   2.628   7.289  10.166  0.9075  0.1852  0.0926
  781MOL0     H 3090   2.304   7.452  10.370  0.6833 -0.8539  1.3764
  781MOL0     H 3091   2.614   7.008  10.585  2.7637  2.2266 -1.9931
  781MOL0     H 3092   2.428   7.063  10.747 -0.4748 -0.0558  0.2495
  782MOL0     O 3093   0.215   7.416   9.867 -0.3006  0.3969 -0.2902
  782MOL0     C 3094   0.185   7.364   9.976  0.3275  0.2917  0.0175
  782MOL0     O 3095   0.263   7.347  10.087  0.0448  0.0167  0.3160
  782MOL0     C 3096   0.380   7.420  10.087 -0.2065  0.0168 -0.0846
  782MOL0     C 3097   0.397   7.517  10.186  0.2654  0.4186  0.1534
  782MOL0     C 3098   0.518   7.579  10.209  0.3565 -0.3029  0.2039
  782MOL0     C 3099   0.621   7.565  10.113 -0.1555 -1.0056  0.3920
  782MOL0     O 3100   0.742   7.622  10.128 -0.0901 -0.1016  0.4413
  782MOL0     C 3101   0.768   7.704  10.239 -0.9042  0.5368 -0.1800
  782MOL0     C 3102   0.906   7.772  10.234 -0.4297 -0.1736  0.3794
  782MOL0     C 3103   1.019   7.690  10.297  0.5799  0.1338  0.3816
  782MOL0     C 3104   1.142   7.774  10.309 -0.1342 -0.3340  0.0134
  782MOL0     C 3105   1.262   7.705  10.362  0.7530 -0.4715 -0.3363
  782MOL0     C 3106   1.385   7.801  10.363  0.3598  0.0103 -0.4386
  782MOL0     C 3107   1.525   7.741  10.418 -0.5586 -0.6174 -0.1944
  782MOL0     C 3108   1.569   7.602  10.391 -0.0243  0.0080  0.4610
  782MOL0     N 3109   1.711   7.568  10.418 -0.7122 -0.4779 -0.5053
  782MOL0     C 3110   1.814   7.649  10.467  0.5822  0.3683  0.2558
  782MOL0     C 3111   1.933   7.586  10.452  0.6617  0.2085  0.0581
  782MOL0     C 3112   2.067   7.631  10.494 -1.2317 -0.2153  1.0940
  782MOL0     C 3113   2.107   7.760  10.423  0.3248 -0.0933 -0.0274
  782MOL0     C 3114   2.129   7.763  10.272  0.0669  0.6525 -0.2270
  782MOL0     C 3115   1.999   7.760  10.191 -0.3675 -0.5653  0.2965
  782MOL0     O 3116   1.937   7.888  10.218 -0.2058 -0.1975 -0.5462
  782MOL0     C 3117   1.813   7.929  10.172 -0.6919 -0.1526  0.4088
  782MOL0     C 3118   1.731   7.847  10.097  0.6956 -0.0570  0.2487
  782MOL0     C 3119   1.610   7.893  10.049 -0.1114  0.0217  0.6821
  782MOL0     C 3120   1.572   8.025  10.066  0.2334 -0.3315  0.8063
  782MOL0     C 3121   1.437   8.069  10.004 -0.7364  0.0740  0.1318
  782MOL0     O 3122   1.364   7.974   9.937 -0.2161 -0.4022  0.1009
  782MOL0     C 3123   1.228   8.003   9.933  0.2062  0.0756  0.5699
  782MOL0     C 3124   1.156   8.079  10.026  0.2518  0.5868 -0.7494
  782MOL0     C 3125   1.025   8.117  10.011 -0.4469  0.7098 -0.1583
  782MOL0     C 3126   0.950   8.057   9.905  0.1153 -1.2604 -0.4535
  782MOL0     O 3127   0.823   8.103   9.872 -0.3946 -0.3941 -1.2724
  782MOL0     C 3128   0.716   8.127   9.975 -0.8231 -0.1680  0.6627
  782MOL0     C 3129   0.574   8.140   9.899  0.1642  0.3315 -0.2799
  782MOL0     C 3130   0.531   8.287   9.873  0.3002  0.0731  0.0169
  782MOL0     C 3131   0.403   8.295   9.792  0.1620  0.1308  0.4124
  782MOL0     C 3132   0.274   8.262   9.869 -0.0119 -0.1467 -0.7856
  782MOL0     C 3133   0.150   8.283   9.785 -0.0480  0.2718 -0.9839
  782MOL0     C 3134   0.019   8.242   9.846  0.4854 -0.7961 -1.8199
  782MOL0     C 3135  -0.001   8.093   9.858  0.3798 -0.0433  0.0621
  782MOL0    Cl 3136  -0.037   8.017   9.685  0.5365  0.4516 -0.5776
  782MOL0     C 3137   1.021   7.969   9.819 -0.0112  0.0009  0.2599
  782MOL0     C 3138   1.150   7.947   9.831 -0.8664 -0.6413  0.6538
  782MOL0     O 3139   1.405   8.185  10.022  0.0886  0.0500 -0.5600
  782MOL0     C 3140   1.652   8.108  10.157  0.2388  0.0928  0.7135
  782MOL0     C 3141   1.774   8.054  10.212 -0.1149 -0.3560 -0.4032
  782MOL0     N 3142   1.907   7.463  10.401 -0.2469 -0.2074  0.4810
  782MOL0     N 3143   1.774   7.453  10.379  0.1102  0.1626 -0.0949
  782MOL0     C 3144   0.612   7.477  10.008  0.5091  0.4851  0.0667
  782MOL0     C 3145   0.493   7.400  10.002 -0.5328 -0.8349 -1.1505
  782MOL0     C 3146   0.043   7.340  10.003  0.6866  0.8311 -0.1367
  782MOL0     C 3147  -0.052   7.414   9.927 -0.1007 -0.0053  0.1401
  782MOL0     C 3148  -0.188   7.381   9.938 -0.1664  0.8024 -0.7793
  782MOL0     C 3149  -0.232   7.288  10.030 -0.4556 -0.2738 -0.6745
  782MOL0     O 3150  -0.367   7.275  10.055  0.8021  0.1064  0.1616
  782MOL0     C 3151  -0.414   7.183  10.150 -0.8905 -0.3674 -0.6327
  782MOL0     C 3152  -0.439   7.045  10.088 -0.1886  0.1392 -0.9752
  782MOL0     C 3153  -0.513   6.946  10.182  0.1310 -0.1470  0.1720
  782MOL0     C 3154  -0.652   6.985  10.225  1.1457  0.8874 -0.7079
  782MOL0     C 3155  -0.722   6.882  10.303  0.3864  0.5470  0.5462
  782MOL0     C 3156  -0.772   6.785  10.361 -0.0025  0.5333  0.7464
  782MOL0     C 3157  -0.140   7.214  10.107 -0.0151  0.5421  0.3043
  782MOL0     C 3158  -0.002   7.233  10.090  0.4637  0.0017 -0.2584
  782MOL0     H 3159   0.307   7.512  10.247 -0.4279 -2.9869 -0.9324
  782MOL0     H 3160   0.527   7.649  10.291 -1.1856  2.3322 -1.7214
  782MOL0     H 3161   0.776   7.651  10.334  3.7491 -0.1870 -0.7271
  782MOL0     H 3162   0.700   7.789  10.243  1.2568  2.3203  0.7778
  782MOL0     H 3163   0.898   7.862  10.296  1.0052  0.0549  0.2601
  782MOL0     H 3164   0.934   7.795  10.131  1.7666 -4.2935 -0.1366
  782MOL0     H 3165   1.037   7.591  10.253  0.3546  0.6044 -0.7977
  782MOL0     H 3166   0.978   7.668  10.396 -2.2538  0.6148 -0.5716
  782MOL0     H 3167   1.169   7.815  10.211 -0.0576  3.1943  1.3473
  782MOL0     H 3168   1.109   7.856  10.374  3.0521  1.3833 -0.3513
  782MOL0     H 3169   1.283   7.613  10.308  0.3974  0.5451 -2.2954
  782MOL0     H 3170   1.247   7.676  10.466  2.4445 -4.1248 -0.9411
  782MOL0     H 3171   1.368   7.889  10.426 -0.2561 -1.8807  2.2226
  782MOL0     H 3172   1.388   7.843  10.262 -0.9589  0.3258 -0.3713
  782MOL0     H 3173   1.606   7.805  10.383  0.1792 -0.9503  0.8729
  782MOL0     H 3174   1.524   7.752  10.527 -0.1903 -1.1395 -0.1341
  782MOL0     H 3175   1.548   7.590  10.284 -3.3464 -0.8414  1.0728
  782MOL0     H 3176   1.508   7.527  10.442 -1.2549 -0.2575 -1.3013
  782MOL0     H 3177   1.796   7.747  10.509  0.0937 -0.4241  2.0205
  782MOL0     H 3178   2.146   7.562  10.464  0.4559  2.0011  0.1465
  782MOL0     H 3179   2.073   7.652  10.602  1.6463  0.2785  0.9195
  782MOL0     H 3180   2.202   7.795  10.464  1.0678 -0.8221 -1.0911
  782MOL0     H 3181   2.022   7.826  10.444 -2.2885 -2.3251 -2.5827
  782MOL0     H 3182   2.168   7.862  10.244 -0.1112  1.5907  2.5122
  782MOL0     H 3183   2.198   7.683  10.244 -3.1094 -1.7075 -1.9660
  782MOL0     H 3184   1.931   7.680  10.221  1.6266 -2.7427 -0.7342
  782MOL0     H 3185   2.029   7.748  10.086 -1.3033  0.2959 -0.0906
  782MOL0     H 3186   1.751   7.744  10.069 -1.1076  0.2936 -2.7999
  782MOL0     H 3187   1.558   7.825   9.982  0.1990 -0.4015  0.8683
  782MOL0     H 3188   1.214   8.105  10.114  3.1382  1.6348 -2.7853
  782MOL0     H 3189   0.980   8.174  10.091 -3.7454  1.0711 -2.1146
  782MOL0     H 3190   0.743   8.216  10.033  3.9503  0.4907 -2.0546
  782MOL0     H 3191   0.715   8.036  10.036 -1.4597 -0.3202  0.4318
  782MOL0     H 3192   0.498   8.080   9.951 -1.0948  2.5982  0.6008
  782MOL0     H 3193   0.600   8.090   9.805  0.0846 -1.4339  0.5809
  782MOL0     H 3194   0.612   8.333   9.815 -0.0478  0.9960  0.2508
  782MOL0     H 3195   0.520   8.346   9.964 -2.8879 -2.2166  1.2953
  782MOL0     H 3196   0.391   8.398   9.758  0.9820  0.2740  0.5174
  782MOL0     H 3197   0.404   8.223   9.710  0.7949 -0.0961  0.6110
  782MOL0     H 3198   0.273   8.315   9.965  1.4978 -4.5640  2.0393
  782MOL0     H 3199   0.269   8.157   9.901  1.4025  0.1546  0.6020
  782MOL0     H 3200   0.164   8.239   9.686  2.6337  0.9459 -0.9738
  782MOL0     H 3201   0.144   8.392   9.770  0.0429  0.1455 -1.9862
  782MOL0     H 3202   0.012   8.275   9.950 -0.9361 -3.3878 -1.0010
  782MOL0     H 3203  -0.067   8.280   9.790 -1.3766 -1.6562  0.2845
  782MOL0     H 3204  -0.092   8.078   9.917  0.6224  3.0938  1.4140
  782MOL0     H 3205   0.086   8.046   9.903  0.9223  0.2992 -0.6105
  782MOL0     H 3206   0.974   7.921   9.733  0.6904 -0.7474  0.2928
  782MOL0     H 3207   1.202   7.879   9.765 -1.4521 -0.3946 -0.0685
  782MOL0     H 3208   1.622   8.207  10.191 -2.0884 -1.3420  3.2230
  782MOL0     H 3209   1.829   8.114  10.284  1.8302  0.8314 -2.7414
  782MOL0     H 3210   0.685   7.465   9.929 -0.6239  1.3933 -1.1780
  782MOL0     H 3211   0.488   7.327   9.922  1.5231  0.8936 -3.0002
  782MOL0     H 3212  -0.039   7.497   9.857 -0.3893 -0.7724 -0.8390
  782MOL0     H 3213  -0.260   7.445   9.887 -0.5732  0.8665 -0.1400
  782MOL0     H 3214  -0.505   7.234  10.184 -0.7539 -1.0014  0.7381
  782MOL0     H 3215  -0.351   7.170  10.238 -1.4982  2.4197  0.3199
  782MOL0     H 3216  -0.496   7.054   9.994 -0.9969  1.5943 -0.3849
  782MOL0     H 3217  -0.338   7.014  10.058  0.2159 -2.0387  2.1462
  782MOL0     H 3218  -0.462   6.923  10.276 -1.5337 -1.3343  0.8444
  782MOL0     H 3219  -0.525   6.851  10.129 -0.2561 -1.2492  2.1124
  782MOL0     H 3220  -0.652   7.080  10.279 -1.4511  1.1905 -1.1351
  782MOL0     H 3221  -0.715   7.000  10.137 -3.4081 -2.3507  1.6061
  782MOL0     H 3222  -0.807   6.699  10.414 -0.7920 -0.1082 -0.7624
  782MOL0     H 3223  -0.151   7.138  10.183  1.0374  1.1470  1.1037
  782MOL0     H 3224   0.072   7.172  10.141 -0.8280 -1.0512  0.4333
  783MOL0     O 3225   2.588   6.607   3.016 -0.3686  0.1200  0.6006
  783MOL0     C 3226   2.527   6.504   2.994 -0.0393 -0.4547  0.3895
  783MOL0     O 3227   2.583   6.383   2.977  0.1660 -0.2681  0.3388
  783MOL0     C 3228   2.715   6.347   2.976 -0.2608 -0.5601  0.4769
  783MOL0     C 3229   2.739   6.219   2.923 -1.6321  0.7423 -0.4998
  783MOL0     C 3230   2.873   6.173   2.907  1.4475 -0.0019  0.9369
  783MOL0     C 3231   2.982   6.251   2.956  0.7305  0.0688  0.4578
  783MOL0     O 3232   3.115   6.219   2.946  0.3020 -0.3238 -1.2400
  783MOL0     C 3233   3.151   6.082   2.912  0.6298 -0.0019  0.5824
  783MOL0     C 3234   3.305   6.073   2.890 -0.4894 -0.3709 -0.0921
  783MOL0     C 3235   3.351   6.154   2.773 -0.6365  0.0640  0.6977
  783MOL0     C 3236   3.502   6.164   2.763 -1.1277 -0.1449 -0.6950
  783MOL0     C 3237   3.573   6.026   2.752  0.1909 -0.4911 -0.5181
  783MOL0     C 3238   3.532   5.950   2.629 -0.4913 -0.0397 -0.0844
  783MOL0     C 3239   3.599   5.811   2.615  0.1293 -0.0326  0.3266
  783MOL0     C 3240   3.522   5.716   2.516  0.7177  0.0328 -0.5397
  783MOL0     N 3241   3.381   5.682   2.563 -0.1034  0.4459  0.2696
  783MOL0     C 3242   3.266   5.670   2.481 -1.4943 -0.6724 -0.1046
  783MOL0     C 3243   3.179   5.620   2.569  0.0064  0.6254  0.4363
  783MOL0     C 3244   3.048   5.556   2.530  0.1620 -0.0462  0.2545
  783MOL0     C 3245   3.025   5.421   2.587  0.3375  0.0034 -0.4689
  783MOL0     C 3246   3.123   5.314   2.524  0.4284 -0.8326 -0.0501
  783MOL0     C 3247   3.093   5.169   2.549  0.2554 -0.1850  0.6334
  783MOL0     O 3248   2.957   5.143   2.567 -0.1872  0.4472  0.7022
  783MOL0     C 3249   2.896   5.029   2.528 -0.5353 -0.6213  0.1094
  783MOL0     C 3250   2.944   4.919   2.465 -0.8292  0.2346  0.5204
  783MOL0     C 3251   2.863   4.813   2.441 -0.0213  0.1391  0.0151
  783MOL0     C 3252   2.732   4.812   2.491 -1.0909  0.2587  0.4236
  783MOL0     C 3253   2.652   4.695   2.468  0.1919  0.1601  0.1573
  783MOL0     O 3254   2.567   4.658   2.576 -0.3801 -0.1479  0.5305
  783MOL0     C 3255   2.476   4.554   2.566  0.2265 -0.4341 -0.4047
  783MOL0     C 3256   2.349   4.565   2.622 -0.2101  0.1812  0.4777
  783MOL0     C 3257   2.248   4.479   2.598  0.4539  0.3895 -0.0010
  783MOL0     C 3258   2.272   4.373   2.525  0.2412  0.4599 -0.7883
  783MOL0     O 3259   2.185   4.271   2.511 -0.1215  0.5510 -0.4831
  783MOL0     C 3260   2.070   4.248   2.590  0.8178 -0.1824 -0.2456
  783MOL0     C 3261   2.007   4.111   2.538  0.1022 -0.2176 -0.6290
  783MOL0     C 3262   1.919   4.127   2.404 -0.8954  1.7108  0.0932
  783MOL0     C 3263   1.858   3.986   2.368 -0.1514 -0.3313 -0.3412
  783MOL0     C 3264   1.743   4.016   2.266 -0.0492  0.5744 -0.1582
  783MOL0     C 3265   1.653   3.897   2.230 -0.1253 -0.1480 -0.0672
  783MOL0     C 3266   1.551   3.863   2.339 -0.6861  0.0311  0.1285
  783MOL0     C 3267   1.531   3.717   2.323 -0.2598  0.8375 -0.5259
  783MOL0    Cl 3268   1.661   3.619   2.402  0.1359 -0.1264 -0.5840
  783MOL0     C 3269   2.393   4.358   2.466  0.2613  0.1165 -0.7037
  783MOL0     C 3270   2.497   4.446   2.489 -0.0969 -0.3220  0.3688
  783MOL0     O 3271   2.658   4.642   2.353  0.2916 -0.0634 -1.2545
  783MOL0     C 3272   2.679   4.927   2.552 -0.4416  0.7084  0.6110
  783MOL0     C 3273   2.763   5.031   2.562 -1.0593 -0.1161 -0.1349
  783MOL0     N 3274   3.229   5.629   2.693 -0.3288 -0.0633 -0.5280
  783MOL0     N 3275   3.345   5.675   2.693  0.0227  0.3752  0.0197
  783MOL0     C 3276   2.956   6.380   2.998  0.8931 -0.1949  0.4089
  783MOL0     C 3277   2.828   6.417   3.020 -0.4238 -0.0019  0.1964
  783MOL0     C 3278   2.381   6.531   2.980 -0.1878 -0.1348  0.3472
  783MOL0     C 3279   2.311   6.439   2.900 -0.3552  0.2411  0.3527
  783MOL0     C 3280   2.177   6.450   2.876  0.4108  1.0081 -0.4028
  783MOL0     C 3281   2.104   6.550   2.933  0.2311 -0.4002 -1.1468
  783MOL0     O 3282   1.969   6.550   2.904  0.5521  0.8689 -0.1200
  783MOL0     C 3283   1.884   6.655   2.964  0.4642 -0.7104  0.6173
  783MOL0     C 3284   1.750   6.670   2.895 -0.1429 -0.2634  0.2988
  783MOL0     C 3285   1.633   6.570   2.922  1.2180  0.5911 -0.0760
  783MOL0     C 3286   1.556   6.627   3.033 -0.3460 -0.6044 -0.9676
  783MOL0     C 3287   1.451   6.545   3.082  0.2045  0.1502  0.0090
  783MOL0     C 3288   1.352   6.501   3.129 -0.3194  1.1326 -0.3093
  783MOL0     C 3289   2.171   6.641   3.015 -0.5363  0.2093 -1.1305
  783MOL0     C 3290   2.311   6.634   3.039  0.7073 -1.6929 -0.0180
  783MOL0     H 3291   2.656   6.157   2.891  0.2170 -1.1787 -1.8249
  783MOL0     H 3292   2.883   6.077   2.859  1.6068 -0.7210  2.3595
  783MOL0     H 3293   3.102   6.058   2.817 -0.0810  3.6420 -0.1366
  783MOL0     H 3294   3.124   6.013   2.992  2.0257 -1.0920  0.1660
  783MOL0     H 3295   3.327   5.969   2.867  0.7714 -0.3342  0.8405
  783MOL0     H 3296   3.357   6.087   2.985 -0.6813 -1.3099  0.1581
  783MOL0     H 3297   3.308   6.254   2.783 -0.2781  0.4800 -1.4306
  783MOL0     H 3298   3.316   6.107   2.680  0.6990  0.3434  0.0261
  783MOL0     H 3299   3.533   6.236   2.686 -1.3311  1.1175  0.3672
  783MOL0     H 3300   3.534   6.212   2.856  0.9388 -0.0223 -1.4055
  783MOL0     H 3301   3.545   5.962   2.836  0.6717 -0.2337 -0.1587
  783MOL0     H 3302   3.681   6.039   2.740 -0.0897  0.1666 -2.8773
  783MOL0     H 3303   3.553   6.008   2.538 -0.5853 -1.6047 -1.1475
  783MOL0     H 3304   3.423   5.939   2.632 -0.7350  2.0246  2.9404
  783MOL0     H 3305   3.700   5.817   2.573  0.0222 -1.4838 -0.1771
  783MOL0     H 3306   3.602   5.769   2.715 -1.8115 -0.3848  0.2750
  783MOL0     H 3307   3.575   5.620   2.507  1.3832  0.5732 -3.1337
  783MOL0     H 3308   3.505   5.761   2.418  0.8045  0.3105 -0.4273
  783MOL0     H 3309   3.260   5.688   2.374 -0.3236 -0.7994 -0.2079
  783MOL0     H 3310   3.045   5.545   2.421  1.8778 -1.7823  0.3439
  783MOL0     H 3311   2.956   5.613   2.547  0.0658 -0.9920  3.4222
  783MOL0     H 3312   2.921   5.392   2.565  0.9490 -1.5776 -1.4464
  783MOL0     H 3313   3.046   5.437   2.693  2.8147  0.2254 -0.9421
  783MOL0     H 3314   3.117   5.334   2.417  0.6601  0.2443  0.1285
  783MOL0     H 3315   3.225   5.338   2.554  0.1772 -0.8395  0.8409
  783MOL0     H 3316   3.133   5.141   2.646 -1.0823 -2.3686  0.6334
  783MOL0     H 3317   3.140   5.111   2.469 -5.3068 -0.7066 -2.8090
  783MOL0     H 3318   3.049   4.905   2.445 -1.0767  0.6562 -1.2234
  783MOL0     H 3319   2.908   4.723   2.401 -0.5126 -0.4544  0.7536
  783MOL0     H 3320   2.323   4.654   2.679  0.9747  1.5243 -0.9604
  783MOL0     H 3321   2.151   4.491   2.646 -0.1990  1.1303 -1.4454
  783MOL0     H 3322   2.002   4.333   2.575  1.6992  0.6475  0.3709
  783MOL0     H 3323   2.099   4.251   2.696  3.1540 -0.4653 -0.8192
  783MOL0     H 3324   1.944   4.069   2.617 -1.4470 -1.0446 -2.2297
  783MOL0     H 3325   2.088   4.039   2.527  2.0323  1.4268  1.7226
  783MOL0     H 3326   1.988   4.150   2.322 -0.8382  2.5562  0.3735
  783MOL0     H 3327   1.840   4.202   2.416 -0.6437  2.1688 -0.9407
  783MOL0     H 3328   1.936   3.918   2.335  0.5976  0.2640  0.1782
  783MOL0     H 3329   1.802   3.948   2.454 -0.3406  1.6815  0.4853
  783MOL0     H 3330   1.785   4.055   2.173 -1.0460  0.8154 -0.5259
  783MOL0     H 3331   1.679   4.089   2.317 -0.0153  1.4936 -1.3817
  783MOL0     H 3332   1.718   3.812   2.206 -2.3789 -2.0562  0.2883
  783MOL0     H 3333   1.604   3.929   2.138 -0.3962  1.5069  0.6193
  783MOL0     H 3334   1.594   3.896   2.434 -0.5905  0.6075 -0.1095
  783MOL0     H 3335   1.462   3.925   2.325 -0.1490  0.8800  0.3776
  783MOL0     H 3336   1.522   3.691   2.217  2.5418 -0.9252 -0.4353
  783MOL0     H 3337   1.443   3.696   2.383  1.5949 -1.3580  1.6779
  783MOL0     H 3338   2.416   4.265   2.415  1.2410 -2.4312  3.8076
  783MOL0     H 3339   2.592   4.410   2.449 -0.6805  0.8683 -2.3288
  783MOL0     H 3340   2.578   4.929   2.591 -1.4100  2.2287 -1.7785
  783MOL0     H 3341   2.722   5.121   2.606 -1.5853 -0.3359 -0.1635
  783MOL0     H 3342   3.027   6.458   3.026  1.2267 -0.5475  0.5584
  783MOL0     H 3343   2.824   6.517   3.063  2.2578  0.4596 -0.4286
  783MOL0     H 3344   2.361   6.353   2.858 -0.6379  0.4268 -0.3687
  783MOL0     H 3345   2.130   6.380   2.807 -1.2054  1.1056  0.5725
  783MOL0     H 3346   1.937   6.749   2.948  1.6902 -1.7597 -2.1633
  783MOL0     H 3347   1.870   6.626   3.068 -0.3489  1.2254  1.0921
  783MOL0     H 3348   1.717   6.773   2.910 -2.0886 -0.5664 -1.4693
  783MOL0     H 3349   1.764   6.662   2.787  0.5154 -1.1192  0.4334
  783MOL0     H 3350   1.681   6.477   2.952  0.3661  0.3805  0.6799
  783MOL0     H 3351   1.565   6.571   2.836  2.2454  3.4123 -0.9835
  783MOL0     H 3352   1.626   6.651   3.114 -0.5620  0.1959 -1.0132
  783MOL0     H 3353   1.524   6.722   2.990  1.3555  0.3103 -0.3023
  783MOL0     H 3354   1.267   6.460   3.180  1.2788 -0.1996  1.4182
  783MOL0     H 3355   2.112   6.719   3.062  1.9913  0.2249  2.4401
  783MOL0     H 3356   2.346   6.710   3.108 -2.2982 -3.1118  3.4498
  784MOL0     O 3357   7.663   5.915   6.190  0.6192 -0.3862  0.6744
  784MOL0     C 3358   7.743   5.991   6.245 -0.0166  0.0536  0.0079
  784MOL0     O 3359   7.746   6.016   6.379  0.3721  0.5258 -0.1265
  784MOL0     C 3360   7.640   5.961   6.455  0.0864 -0.4210  0.3030
  784MOL0     C 3361   7.669   5.873   6.559 -0.2935 -0.2990 -1.1097
  784MOL0     C 3362   7.569   5.825   6.646 -0.0244  0.5448  0.0851
  784MOL0     C 3363   7.432   5.847   6.613 -0.1540  0.4735  0.0575
  784MOL0     O 3364   7.330   5.806   6.699 -0.4113 -0.4681  0.8636
  784MOL0     C 3365   7.352   5.685   6.770 -0.0996 -0.3198 -0.1696
  784MOL0     C 3366   7.236   5.665   6.856 -0.1668  0.6497  0.2554
  784MOL0     C 3367   7.111   5.634   6.780 -0.4561  0.1860  0.3778
  784MOL0     C 3368   7.014   5.540   6.859  0.2723 -0.5122  0.2839
  784MOL0     C 3369   6.896   5.496   6.773  0.1116 -0.1542 -0.2613
  784MOL0     C 3370   6.791   5.603   6.766  0.7091  0.8513  0.3949
  784MOL0     C 3371   6.659   5.561   6.695 -0.3237 -0.0723  0.3723
  784MOL0     C 3372   6.558   5.674   6.714  0.4082  0.4512  0.8777
  784MOL0     N 3373   6.444   5.650   6.619 -0.0363  0.6483  0.5223
  784MOL0     C 3374   6.369   5.533   6.597 -0.1253  0.9806  0.1030
  784MOL0     C 3375   6.298   5.548   6.489  0.7638 -0.0193  0.6343
  784MOL0     C 3376   6.206   5.450   6.424  0.7669 -0.1786 -0.0440
  784MOL0     C 3377   6.159   5.496   6.287  0.0114 -0.2486 -0.2420
  784MOL0     C 3378   6.047   5.403   6.226 -0.2360 -0.3670  0.4334
  784MOL0     C 3379   6.011   5.428   6.082 -0.8388  0.4603  0.6252
  784MOL0     O 3380   5.918   5.537   6.059 -0.2350 -1.2825  0.4533
  784MOL0     C 3381   5.780   5.522   6.084  0.6028 -0.1979 -0.9005
  784MOL0     C 3382   5.711   5.400   6.056  0.0380  0.1655 -0.1396
  784MOL0     C 3383   5.582   5.379   6.076  0.0925 -0.1889 -0.4762
  784MOL0     C 3384   5.510   5.485   6.138 -0.0412  0.0778 -0.1288
  784MOL0     C 3385   5.367   5.458   6.151  0.6318  0.3252 -0.7245
  784MOL0     O 3386   5.324   5.331   6.163 -0.4471  0.7535 -0.4359
  784MOL0     C 3387   5.194   5.302   6.141  0.3564  0.2444 -0.1696
  784MOL0     C 3388   5.107   5.243   6.234 -0.2549  0.4795 -0.1064
  784MOL0     C 3389   4.983   5.207   6.190 -0.0312  0.0606  0.1497
  784MOL0     C 3390   4.942   5.220   6.060  0.3711  0.0342  0.5055
  784MOL0     O 3391   4.819   5.180   6.004  0.5946 -0.8100  0.0076
  784MOL0     C 3392   4.725   5.143   6.104  0.4139  0.7499 -0.1073
  784MOL0     C 3393   4.592   5.123   6.028  0.9279 -0.2794  0.5394
  784MOL0     C 3394   4.492   5.047   6.113 -0.2633  0.2698 -0.2799
  784MOL0     C 3395   4.356   5.035   6.037  0.4092  0.9226  0.1836
  784MOL0     C 3396   4.249   4.933   6.103  0.3228  0.1189 -0.5480
  784MOL0     C 3397   4.112   4.952   6.039  0.1987  0.8271  0.7980
  784MOL0     C 3398   4.013   4.846   6.097 -0.0026  0.2094 -0.3758
  784MOL0     C 3399   3.866   4.856   6.042  0.8506  0.2764  0.5365
  784MOL0    Cl 3400   3.864   4.823   5.867  0.1523  0.3407  0.0324
  784MOL0     C 3401   5.030   5.277   5.973  0.8009 -0.2960  1.0724
  784MOL0     C 3402   5.148   5.320   6.009 -0.5733 -0.1334 -0.0749
  784MOL0     O 3403   5.293   5.554   6.179  0.3200  0.0235  1.2873
  784MOL0     C 3404   5.576   5.604   6.166  0.2418 -0.8707 -0.1349
  784MOL0     C 3405   5.715   5.618   6.150  0.3233  0.0980 -0.1512
  784MOL0     N 3406   6.316   5.678   6.447  0.1056 -0.1662  0.1283
  784MOL0     N 3407   6.408   5.740   6.524 -0.1985 -0.3295  0.6783
  784MOL0     C 3408   7.404   5.944   6.511  0.1915 -0.0787 -0.5733
  784MOL0     C 3409   7.507   6.006   6.443 -0.0057 -0.0947  0.4922
  784MOL0     C 3410   7.852   6.055   6.169  0.1632 -0.6935  0.5183
  784MOL0     C 3411   7.970   6.095   6.238 -0.4848  0.2873  0.8563
  784MOL0     C 3412   8.077   6.144   6.166 -0.2961 -0.1409  0.5427
  784MOL0     C 3413   8.067   6.162   6.028  0.5635 -0.1245 -0.3265
  784MOL0     O 3414   8.178   6.224   5.966  0.5267  0.5200  0.6715
  784MOL0     C 3415   8.176   6.263   5.823 -0.0105 -0.0446 -0.6368
  784MOL0     C 3416   8.284   6.367   5.807 -0.3381 -0.1710 -0.2587
  784MOL0     C 3417   8.429   6.317   5.836  0.0742 -1.0123  0.2607
  784MOL0     C 3418   8.473   6.197   5.754 -0.6259 -0.0157  0.9425
  784MOL0     C 3419   8.457   6.229   5.611  0.2510  0.1479 -0.6592
  784MOL0     C 3420   8.448   6.249   5.493 -0.1216 -0.4499  0.0541
  784MOL0     C 3421   7.951   6.122   5.962 -0.8433  0.6308  0.4386
  784MOL0     C 3422   7.850   6.066   6.033  0.5874  0.2013  0.3511
  784MOL0     H 3423   7.769   5.832   6.570 -0.3181 -0.1648 -0.3286
  784MOL0     H 3424   7.584   5.749   6.722 -2.0923 -0.9766 -0.9307
  784MOL0     H 3425   7.419   5.694   6.856 -3.9269  1.2545  2.9845
  784MOL0     H 3426   7.365   5.597   6.707  0.4737  0.1769 -0.7597
  784MOL0     H 3427   7.219   5.755   6.916 -2.6185 -0.6063  1.5831
  784MOL0     H 3428   7.259   5.580   6.920  0.6794  0.2936 -0.4969
  784MOL0     H 3429   7.140   5.575   6.693 -0.4322 -1.4367  1.4352
  784MOL0     H 3430   7.059   5.727   6.757 -1.9403 -0.2754  1.6987
  784MOL0     H 3431   7.062   5.444   6.883  0.4009 -0.6714 -0.5774
  784MOL0     H 3432   6.972   5.592   6.945 -1.5064  0.7571 -1.2518
  784MOL0     H 3433   6.849   5.403   6.806 -0.7063  0.4314  0.2861
  784MOL0     H 3434   6.941   5.471   6.677 -1.1397 -0.3413 -0.8252
  784MOL0     H 3435   6.832   5.692   6.716  1.6499  1.7193  2.5991
  784MOL0     H 3436   6.762   5.628   6.868 -0.6711  1.0121 -0.0170
  784MOL0     H 3437   6.665   5.546   6.586  0.1636  0.3414  0.3401
  784MOL0     H 3438   6.615   5.478   6.751 -2.5528  1.5456  1.1192
  784MOL0     H 3439   6.598   5.775   6.699 -1.8931  1.1962 -0.8455
  784MOL0     H 3440   6.529   5.676   6.820 -0.4560  1.7299  0.6467
  784MOL0     H 3441   6.364   5.441   6.655 -3.3758  0.5339 -0.7210
  784MOL0     H 3442   6.120   5.444   6.491  1.4998 -0.0676  0.9337
  784MOL0     H 3443   6.248   5.349   6.420 -0.8430 -0.8547 -0.5255
  784MOL0     H 3444   6.248   5.508   6.224  3.9081  1.4882  4.8384
  784MOL0     H 3445   6.102   5.588   6.294 -2.8851 -1.4936 -4.0292
  784MOL0     H 3446   6.091   5.303   6.221  1.3871  0.3102  0.5206
  784MOL0     H 3447   5.953   5.413   6.280 -1.5029  3.4009 -2.0485
  784MOL0     H 3448   5.970   5.341   6.032  3.0507 -0.8916 -0.5862
  784MOL0     H 3449   6.098   5.460   6.023 -1.1925  2.3528  1.0626
  784MOL0     H 3450   5.757   5.325   5.992  1.1699 -0.8225  1.7535
  784MOL0     H 3451   5.529   5.297   6.028 -0.8899 -1.6073  2.7993
  784MOL0     H 3452   5.148   5.242   6.334 -2.2163  1.9565  0.7624
  784MOL0     H 3453   4.915   5.151   6.254 -0.5754 -1.1271 -1.4101
  784MOL0     H 3454   4.706   5.219   6.180  0.8807 -0.3234  1.1341
  784MOL0     H 3455   4.755   5.047   6.147  0.2561 -0.0101 -1.6075
  784MOL0     H 3456   4.608   5.075   5.931 -1.1874 -0.8869  0.4474
  784MOL0     H 3457   4.550   5.220   5.999  0.8378  0.1185  1.9439
  784MOL0     H 3458   4.482   5.101   6.208 -0.8924 -1.0080  0.4024
  784MOL0     H 3459   4.525   4.946   6.137 -0.1877  0.8731  2.4583
  784MOL0     H 3460   4.308   5.132   6.020 -1.0647  0.8604  3.2311
  784MOL0     H 3461   4.385   4.990   5.942  0.4223 -2.1300  1.5157
  784MOL0     H 3462   4.241   4.964   6.208 -1.2023  0.4687 -0.7410
  784MOL0     H 3463   4.283   4.830   6.092 -0.5757 -0.0814 -1.6874
  784MOL0     H 3464   4.117   4.921   5.934 -0.5222 -1.0870  1.2753
  784MOL0     H 3465   4.063   5.048   6.056 -2.2763  0.3851 -2.7628
  784MOL0     H 3466   4.048   4.747   6.067 -0.9956 -0.2093 -0.2127
  784MOL0     H 3467   4.010   4.861   6.205 -3.9072  2.1137 -0.5750
  784MOL0     H 3468   3.827   4.956   6.063 -0.1388  0.0901 -0.3474
  784MOL0     H 3469   3.815   4.774   6.093  1.5144  0.4457  1.5136
  784MOL0     H 3470   5.007   5.291   5.868  1.0679  0.3865  1.1053
  784MOL0     H 3471   5.215   5.363   5.936 -1.8360  1.9755 -0.0798
  784MOL0     H 3472   5.529   5.693   6.208  3.0549  2.1472 -2.7507
  784MOL0     H 3473   5.767   5.697   6.204  0.1396  0.5488 -0.6377
  784MOL0     H 3474   7.301   5.970   6.487 -0.2447 -0.7887  0.4417
  784MOL0     H 3475   7.485   6.075   6.362 -1.1055  1.1618  1.8137
  784MOL0     H 3476   7.966   6.092   6.347 -2.8697  0.9011  0.8484
  784MOL0     H 3477   8.160   6.180   6.226  0.2553 -0.6508  0.1060
  784MOL0     H 3478   8.077   6.295   5.790 -1.0208  0.1001  2.2177
  784MOL0     H 3479   8.207   6.180   5.759 -0.4427 -0.1914 -0.6564
  784MOL0     H 3480   8.275   6.406   5.705 -2.4661 -0.7094 -0.3188
  784MOL0     H 3481   8.268   6.461   5.860  0.4801  1.5791 -2.8913
  784MOL0     H 3482   8.441   6.300   5.943  0.0949  0.0017  0.4289
  784MOL0     H 3483   8.494   6.404   5.819 -1.7954  0.9777  2.5072
  784MOL0     H 3484   8.580   6.192   5.776 -0.0953  3.7549 -0.0642
  784MOL0     H 3485   8.405   6.113   5.773 -0.5338 -0.3731 -0.2332
  784MOL0     H 3486   8.462   6.272   5.389  2.5545  0.2475  0.4716
  784MOL0     H 3487   7.928   6.147   5.859  1.6840  1.3694 -0.0308
  784MOL0     H 3488   7.760   6.036   5.981  2.1108 -1.4509 -1.4944
  785MOL0     O 3489   4.024   4.935   0.802 -0.2939 -0.2905 -0.0232
  785MOL0     C 3490   4.053   5.034   0.734  0.0167 -0.1210 -0.2321
  785MOL0     O 3491   3.959   5.126   0.700 -0.3213  0.6211 -0.3908
  785MOL0     C 3492   3.837   5.124   0.775 -0.0597 -0.0065  0.2417
  785MOL0     C 3493   3.826   5.180   0.906  0.4647  0.5662 -0.0766
  785MOL0     C 3494   3.697   5.187   0.964  0.4266  0.1607  0.1127
  785MOL0     C 3495   3.579   5.132   0.902 -0.2053  0.3583 -0.1895
  785MOL0     O 3496   3.460   5.142   0.969 -0.6484  0.7807  0.1308
  785MOL0     C 3497   3.344   5.118   0.893 -0.1684  0.0338 -0.1476
  785MOL0     C 3498   3.224   5.149   0.980 -1.1165  0.2299 -0.0899
  785MOL0     C 3499   3.091   5.122   0.910  0.0340  0.0081  0.3831
  785MOL0     C 3500   2.977   5.189   0.986 -0.3123  0.2841  0.0737
  785MOL0     C 3501   2.859   5.180   0.897 -0.0486 -0.3439  0.3879
  785MOL0     C 3502   2.733   5.228   0.972  0.6254 -0.0476 -0.2108
  785MOL0     C 3503   2.737   5.365   1.037  0.3030  1.4605  0.0069
  785MOL0     C 3504   2.747   5.479   0.939 -0.1888 -0.2271  0.4943
  785MOL0     N 3505   2.624   5.501   0.864 -0.3688 -0.0887  0.3223
  785MOL0     C 3506   2.519   5.576   0.912  0.3494  0.0094 -0.1096
  785MOL0     C 3507   2.434   5.594   0.812 -0.4213  0.0388 -0.3252
  785MOL0     C 3508   2.301   5.664   0.817  0.1233 -0.7272 -0.4901
  785MOL0     C 3509   2.192   5.591   0.909 -0.3894  0.1817 -0.4076
  785MOL0     C 3510   2.056   5.595   0.834  0.2494 -0.2323  0.6214
  785MOL0     C 3511   1.941   5.541   0.918  1.0017 -0.2883  0.1170
  785MOL0     O 3512   1.815   5.597   0.872 -0.4317  0.3101  0.1916
  785MOL0     C 3513   1.697   5.552   0.925 -0.8494 -0.2510 -0.2895
  785MOL0     C 3514   1.588   5.601   0.858  0.1448  0.0581 -0.7747
  785MOL0     C 3515   1.459   5.565   0.908 -0.7912 -0.6308 -0.8783
  785MOL0     C 3516   1.447   5.488   1.024 -0.0753 -0.2598 -0.3573
  785MOL0     C 3517   1.309   5.444   1.072 -0.8187 -0.7880  0.2352
  785MOL0     O 3518   1.195   5.457   1.000 -0.3124 -0.3938  0.0911
  785MOL0     C 3519   1.086   5.417   1.065  0.3963 -0.0723  0.1223
  785MOL0     C 3520   1.017   5.494   1.164  0.5502  0.0466  0.0296
  785MOL0     C 3521   0.893   5.452   1.212  0.4479  0.2077 -0.0233
  785MOL0     C 3522   0.835   5.338   1.159 -0.1574 -0.3505 -0.6218
  785MOL0     O 3523   0.706   5.307   1.195  1.0604  0.0442 -0.2297
  785MOL0     C 3524   0.677   5.285   1.333 -0.2327  0.3774  0.2687
  785MOL0     C 3525   0.526   5.257   1.351 -0.4120 -0.1673  0.0714
  785MOL0     C 3526   0.437   5.353   1.282 -0.6960 -0.2725  0.4179
  785MOL0     C 3527   0.293   5.323   1.308 -0.7719 -0.6667 -0.3164
  785MOL0     C 3528   0.201   5.420   1.246 -0.1948  0.0113  0.4897
  785MOL0     C 3529   0.054   5.380   1.224 -0.6301  0.0636  0.4002
  785MOL0     C 3530  -0.025   5.485   1.133 -0.1221  0.3448 -0.4697
  785MOL0     C 3531  -0.170   5.433   1.103 -0.9217 -0.5197  1.0463
  785MOL0    Cl 3532  -0.270   5.409   1.263 -0.1704 -0.5342  0.2134
  785MOL0     C 3533   0.897   5.263   1.056 -0.0642 -0.8314 -0.5666
  785MOL0     C 3534   1.010   5.312   1.004  0.3189  0.3231 -0.4611
  785MOL0     O 3535   1.315   5.398   1.185 -0.1555  0.3256 -0.0893
  785MOL0     C 3536   1.553   5.448   1.100  0.0105  0.7907  0.8791
  785MOL0     C 3537   1.679   5.477   1.042  0.3963 -0.6282  0.5300
  785MOL0     N 3538   2.498   5.540   0.701 -0.1736 -0.4268  0.1112
  785MOL0     N 3539   2.608   5.481   0.729  1.2444  0.4542 -0.0870
  785MOL0     C 3540   3.598   5.077   0.776  0.2079  0.0446  0.2148
  785MOL0     C 3541   3.719   5.073   0.709 -0.3759 -0.3905  0.6001
  785MOL0     C 3542   4.188   5.067   0.670 -0.0480 -0.1377 -0.0274
  785MOL0     C 3543   4.198   5.106   0.539 -0.2881  0.3080 -0.0508
  785MOL0     C 3544   4.324   5.122   0.481  0.0238 -0.8557 -0.4391
  785MOL0     C 3545   4.444   5.111   0.559 -0.6434 -0.4323  0.6668
  785MOL0     O 3546   4.565   5.121   0.495  0.3230 -0.0077 -0.2900
  785MOL0     C 3547   4.654   5.012   0.513 -0.2611 -0.0684  0.0365
  785MOL0     C 3548   4.768   5.051   0.420 -0.6037 -0.1814 -0.4551
  785MOL0     C 3549   4.880   4.952   0.399  0.1971 -0.1853 -0.5131
  785MOL0     C 3550   4.975   4.985   0.285 -0.2354 -0.7007 -0.2908
  785MOL0     C 3551   5.080   4.890   0.288 -0.9320  0.9359 -0.2109
  785MOL0     C 3552   5.175   4.817   0.291 -0.1759 -0.4375 -0.0607
  785MOL0     C 3553   4.428   5.086   0.695  0.5942  0.5304 -1.1261
  785MOL0     C 3554   4.303   5.059   0.749  0.8970  0.5486 -0.3635
  785MOL0     H 3555   3.913   5.231   0.946 -0.0561  0.1218  1.7195
  785MOL0     H 3556   3.686   5.232   1.062 -2.3279 -1.8148  0.8627
  785MOL0     H 3557   3.350   5.014   0.859 -0.9423  0.2385 -0.9354
  785MOL0     H 3558   3.339   5.175   0.800 -0.2426  0.6424  0.2178
  785MOL0     H 3559   3.226   5.253   1.015 -0.1930  0.6842 -1.4044
  785MOL0     H 3560   3.218   5.085   1.069  0.7630 -0.0828 -0.1562
  785MOL0     H 3561   3.073   5.014   0.896  2.6292 -0.4350  0.0344
  785MOL0     H 3562   3.090   5.160   0.808  0.7732 -0.5101  0.1720
  785MOL0     H 3563   2.967   5.128   1.076 -2.2544 -2.7291 -2.0014
  785MOL0     H 3564   2.998   5.294   1.009 -1.7666  0.8771 -1.1733
  785MOL0     H 3565   2.844   5.077   0.864 -0.7099 -0.6047  1.4615
  785MOL0     H 3566   2.878   5.250   0.815  0.2810 -0.5601  0.2794
  785MOL0     H 3567   2.709   5.163   1.056 -0.3719  1.9111  1.1162
  785MOL0     H 3568   2.648   5.227   0.903  1.6636  0.9843 -1.5694
  785MOL0     H 3569   2.645   5.386   1.093 -0.9129  3.9641 -2.6427
  785MOL0     H 3570   2.809   5.381   1.117 -3.3029  1.9500  3.4640
  785MOL0     H 3571   2.831   5.453   0.874 -0.0898 -0.2303  0.6231
  785MOL0     H 3572   2.783   5.571   0.985 -0.2275  0.5926 -1.0465
  785MOL0     H 3573   2.510   5.619   1.012  1.5919 -0.6724  0.3253
  785MOL0     H 3574   2.263   5.664   0.715  1.4378  0.0186 -1.0011
  785MOL0     H 3575   2.322   5.764   0.856  1.6769 -1.6633  1.2564
  785MOL0     H 3576   2.187   5.630   1.011 -0.4698 -0.2997 -0.2226
  785MOL0     H 3577   2.210   5.483   0.922 -0.9213  0.3688  2.6418
  785MOL0     H 3578   2.028   5.699   0.819  0.2356 -0.5110 -1.7502
  785MOL0     H 3579   2.060   5.553   0.733  0.2009 -0.8520  0.8669
  785MOL0     H 3580   1.952   5.572   1.022  2.1106  0.2007 -0.1378
  785MOL0     H 3581   1.936   5.431   0.922  1.2034 -0.2880  0.4137
  785MOL0     H 3582   1.584   5.660   0.767 -3.4577 -1.5351 -1.8430
  785MOL0     H 3583   1.367   5.595   0.857  0.2230  2.0068 -1.3422
  785MOL0     H 3584   1.066   5.583   1.202 -0.0047 -0.1090  1.1569
  785MOL0     H 3585   0.835   5.506   1.286  1.0453 -0.0171  0.6195
  785MOL0     H 3586   0.701   5.374   1.392  3.1837 -1.0172  1.2103
  785MOL0     H 3587   0.739   5.201   1.365 -1.7314 -0.9697 -0.2640
  785MOL0     H 3588   0.505   5.264   1.458  1.0815  0.2371  0.3687
  785MOL0     H 3589   0.504   5.155   1.319  0.6353 -0.9040  1.5423
  785MOL0     H 3590   0.445   5.356   1.173  0.1540  0.2681  0.4913
  785MOL0     H 3591   0.469   5.450   1.321 -3.6880  0.4447  1.3484
  785MOL0     H 3592   0.280   5.222   1.268  2.2835 -1.7043  1.0318
  785MOL0     H 3593   0.274   5.318   1.415  0.5284 -3.8402 -0.1133
  785MOL0     H 3594   0.250   5.445   1.151 -2.1860  2.3324 -0.0472
  785MOL0     H 3595   0.204   5.516   1.300 -3.2045  0.5937 -0.1840
  785MOL0     H 3596   0.001   5.354   1.317  0.4965 -0.1791  0.9922
  785MOL0     H 3597   0.055   5.284   1.172 -2.2718 -0.3647  1.0950
  785MOL0     H 3598  -0.039   5.577   1.191 -0.7630 -0.4122  0.6180
  785MOL0     H 3599   0.033   5.508   1.043 -0.7256 -0.4688 -1.0811
  785MOL0     H 3600  -0.154   5.339   1.050  3.6822 -0.8619  2.6395
  785MOL0     H 3601  -0.227   5.501   1.038  0.3211 -0.0257  0.4386
  785MOL0     H 3602   0.847   5.178   1.011 -0.8586  0.5206 -2.3426
  785MOL0     H 3603   1.055   5.272   0.914  2.0467 -2.2067  1.3694
  785MOL0     H 3604   1.547   5.388   1.190  3.4453 -1.0685  0.0508
  785MOL0     H 3605   1.764   5.443   1.101  2.3335  1.6076 -0.7951
  785MOL0     H 3606   3.507   5.050   0.724  1.2990  0.4326 -1.9736
  785MOL0     H 3607   3.720   5.049   0.603 -0.3821  1.5251  0.1308
  785MOL0     H 3608   4.113   5.114   0.473 -0.8170 -2.1910  0.2214
  785MOL0     H 3609   4.335   5.140   0.375 -2.8372 -0.1835 -0.7119
  785MOL0     H 3610   4.622   4.913   0.480  2.9299 -1.5624  0.9561
  785MOL0     H 3611   4.690   4.990   0.614  3.3726 -0.2105 -1.1369
  785MOL0     H 3612   4.721   5.080   0.325 -3.4933  3.5870  1.8414
  785MOL0     H 3613   4.815   5.144   0.454  1.1534 -0.6947 -1.3296
  785MOL0     H 3614   4.834   4.853   0.390 -0.9584 -0.1747  3.3911
  785MOL0     H 3615   4.933   4.963   0.494 -0.1241 -0.6066 -0.2770
  785MOL0     H 3616   4.925   4.968   0.189 -0.7122 -0.4198 -0.0939
  785MOL0     H 3617   5.024   5.081   0.302  2.0267 -2.1025  1.8753
  785MOL0     H 3618   5.273   4.773   0.291  0.6109  1.1984  1.2215
  785MOL0     H 3619   4.503   5.076   0.772  0.4476 -1.5959 -1.2132
  785MOL0     H 3620   4.281   5.036   0.852  1.3020  0.9113 -0.1933
  786MOL0     O 3621   7.923   5.995   0.820 -0.4137 -0.3447  0.6249
  786MOL0     C 3622   7.914   6.088   0.900  0.0936 -0.0680  1.5281
  786MOL0     O 3623   7.795   6.155   0.926 -0.2908  0.1149  0.5610
  786MOL0     C 3624   7.674   6.133   0.861  0.4366 -0.6320  1.2539
  786MOL0     C 3625   7.638   6.027   0.778 -0.1915 -1.0304 -0.2228
  786MOL0     C 3626   7.509   6.006   0.730  0.4005 -0.9551  0.6776
  786MOL0     C 3627   7.412   6.106   0.738 -0.3425  0.4076  0.0994
  786MOL0     O 3628   7.290   6.090   0.674 -0.0133 -0.1317  0.5309
  786MOL0     C 3629   7.224   6.215   0.631  0.8284 -0.3410  0.2438
  786MOL0     C 3630   7.101   6.158   0.550  0.0100  0.1998  0.1402
  786MOL0     C 3631   7.019   6.269   0.475  0.1333  0.0477  0.1547
  786MOL0     C 3632   6.904   6.216   0.387  0.1933 -0.2126  0.3514
  786MOL0     C 3633   6.788   6.317   0.358  1.6215 -0.7243 -0.5629
  786MOL0     C 3634   6.683   6.256   0.245  0.0464 -1.0331 -0.0546
  786MOL0     C 3635   6.586   6.150   0.310 -0.3143 -0.4689 -0.6595
  786MOL0     C 3636   6.496   6.110   0.193 -0.4028  0.0245 -0.1517
  786MOL0     N 3637   6.390   6.025   0.240  0.4315  0.6799 -0.7845
  786MOL0     C 3638   6.365   5.897   0.205  0.5652  0.5491  0.6179
  786MOL0     C 3639   6.247   5.867   0.266 -0.1959 -0.5926 -0.0539
  786MOL0     C 3640   6.192   5.733   0.272 -0.4023 -0.4810  0.1117
  786MOL0     C 3641   6.071   5.730   0.178 -0.1869 -1.0372  0.4705
  786MOL0     C 3642   5.940   5.716   0.250  0.8642 -0.6711 -0.2302
  786MOL0     C 3643   5.812   5.709   0.158  0.8155  0.6237 -0.1499
  786MOL0     O 3644   5.700   5.709   0.251 -0.2004  0.2118  0.6479
  786MOL0     C 3645   5.592   5.790   0.213  0.1117 -0.0989  0.8297
  786MOL0     C 3646   5.560   5.813   0.082  0.3322 -0.7074 -0.3916
  786MOL0     C 3647   5.453   5.905   0.046 -0.8981 -0.3400  0.3944
  786MOL0     C 3648   5.359   5.947   0.146 -0.2874 -1.0986 -0.3380
  786MOL0     C 3649   5.244   6.043   0.115 -0.0583  0.0047 -0.9517
  786MOL0     O 3650   5.211   6.145   0.200  0.0068  0.3365  0.1802
  786MOL0     C 3651   5.092   6.225   0.199 -0.4692  0.3767 -0.2666
  786MOL0     C 3652   5.102   6.350   0.268  0.6286 -0.1922 -1.0209
  786MOL0     C 3653   4.981   6.426   0.291  0.2557 -0.2676  0.3262
  786MOL0     C 3654   4.851   6.382   0.243  0.2252 -0.3297  0.5367
  786MOL0     O 3655   4.726   6.433   0.268  0.4168 -0.4066  0.2297
  786MOL0     C 3656   4.718   6.559   0.328 -0.5606  0.4032  0.1077
  786MOL0     C 3657   4.582   6.626   0.315 -0.1802 -0.2248  0.0806
  786MOL0     C 3658   4.472   6.521   0.350 -1.0920  0.5152  0.4910
  786MOL0     C 3659   4.334   6.581   0.372 -0.7450  0.3607 -0.0983
  786MOL0     C 3660   4.236   6.460   0.393 -0.1121 -0.4719  0.5684
  786MOL0     C 3661   4.098   6.514   0.447  0.0139  0.3330 -0.0334
  786MOL0     C 3662   4.000   6.397   0.452 -0.2950  0.0347 -0.2761
  786MOL0     C 3663   3.853   6.445   0.481  0.0965 -0.3885 -1.2554
  786MOL0    Cl 3664   3.811   6.610   0.425 -0.0522 -0.3860  0.3794
  786MOL0     C 3665   4.854   6.268   0.166  0.7204 -0.2345 -0.8340
  786MOL0     C 3666   4.971   6.193   0.138  0.7750 -0.0478 -1.0136
  786MOL0     O 3667   5.174   6.004   0.019  0.2000 -0.0672  0.0640
  786MOL0     C 3668   5.395   5.914   0.278  0.8155 -1.1065 -0.1406
  786MOL0     C 3669   5.509   5.841   0.314 -0.2605  0.0243  0.5976
  786MOL0     N 3670   6.199   5.983   0.322 -0.1880  0.4963 -0.1544
  786MOL0     N 3671   6.275   6.079   0.291 -0.5341  0.4599 -0.4372
  786MOL0     C 3672   7.448   6.221   0.808  1.1920 -0.6375  0.7241
  786MOL0     C 3673   7.577   6.238   0.868 -0.5396  0.5193 -0.2478
  786MOL0     C 3674   8.036   6.144   0.967 -0.0413  0.2536  0.6148
  786MOL0     C 3675   8.140   6.059   0.988  0.4196 -0.0250 -0.5528
  786MOL0     C 3676   8.260   6.098   1.061 -0.6301 -0.7429 -0.0472
  786MOL0     C 3677   8.266   6.229   1.116 -0.5740 -0.1220  0.1307
  786MOL0     O 3678   8.381   6.266   1.185  0.4430  0.3203  0.1405
  786MOL0     C 3679   8.501   6.274   1.105  0.8124 -0.3778 -0.2622
  786MOL0     C 3680   8.487   6.375   0.988  0.1865  0.9028  0.0057
  786MOL0     C 3681   8.615   6.427   0.937 -0.3487 -0.3080 -0.1383
  786MOL0     C 3682   8.624   6.455   0.788  0.3782 -0.6551 -0.7111
  786MOL0     C 3683   8.547   6.565   0.736  0.0215 -0.7657 -0.3969
  786MOL0     C 3684   8.476   6.657   0.711  0.3374  1.1227  0.1927
  786MOL0     C 3685   8.161   6.316   1.095  0.1538  0.6234 -0.8328
  786MOL0     C 3686   8.042   6.279   1.027  0.8259  0.4072 -0.7459
  786MOL0     H 3687   7.697   5.936   0.775 -0.4152 -1.1790 -0.1286
  786MOL0     H 3688   7.481   5.911   0.686  1.3574 -0.3008 -1.4992
  786MOL0     H 3689   7.285   6.282   0.571 -0.0082 -1.4406 -1.9601
  786MOL0     H 3690   7.190   6.264   0.723 -4.1143 -0.2049 -1.3587
  786MOL0     H 3691   7.034   6.101   0.615 -1.2881  3.1577  1.6155
  786MOL0     H 3692   7.145   6.095   0.473  2.6776  1.2473  0.7167
  786MOL0     H 3693   7.084   6.326   0.408  0.4377 -1.2270 -0.6590
  786MOL0     H 3694   6.982   6.336   0.553 -1.4996 -0.4388 -0.1573
  786MOL0     H 3695   6.946   6.184   0.292  1.1536  0.4567  0.5372
  786MOL0     H 3696   6.869   6.133   0.450  1.5767  1.2017  3.1916
  786MOL0     H 3697   6.814   6.411   0.310 -0.5416 -0.1640 -0.7432
  786MOL0     H 3698   6.736   6.346   0.449  2.5338 -1.8019  0.3261
  786MOL0     H 3699   6.744   6.214   0.164  1.8754  0.0988  0.6794
  786MOL0     H 3700   6.632   6.342   0.201 -2.3063 -2.5549 -0.4688
  786MOL0     H 3701   6.626   6.055   0.347 -2.8318 -0.7822  1.5209
  786MOL0     H 3702   6.523   6.191   0.390 -0.3541 -1.1170 -0.3536
  786MOL0     H 3703   6.549   6.052   0.118 -0.7992 -2.0639  1.1017
  786MOL0     H 3704   6.460   6.200   0.142 -1.7758 -0.3119  0.1882
  786MOL0     H 3705   6.426   5.820   0.159  0.4606  1.5384 -1.3090
  786MOL0     H 3706   6.176   5.718   0.379  1.8420  1.3900  0.8086
  786MOL0     H 3707   6.267   5.660   0.241  0.7710  1.3928 -1.7408
  786MOL0     H 3708   6.081   5.651   0.104 -1.1047  0.3001 -1.1550
  786MOL0     H 3709   6.071   5.825   0.123  2.9236 -0.7990  0.7217
  786MOL0     H 3710   5.949   5.624   0.308 -1.6667 -0.1775  1.0752
  786MOL0     H 3711   5.930   5.803   0.316  2.2394 -0.1517 -0.6608
  786MOL0     H 3712   5.810   5.617   0.100 -0.6010 -0.3497  1.3311
  786MOL0     H 3713   5.817   5.794   0.089 -0.0234  1.3911  0.6970
  786MOL0     H 3714   5.622   5.782  -0.002  2.1323  0.7404  0.3299
  786MOL0     H 3715   5.443   5.918  -0.061  1.9156 -2.2072 -0.2264
  786MOL0     H 3716   5.198   6.376   0.310  1.7886 -3.4316 -1.4071
  786MOL0     H 3717   4.975   6.514   0.355 -0.0279 -0.4189  0.5072
  786MOL0     H 3718   4.786   6.631   0.281 -0.1839  0.4308  0.6812
  786MOL0     H 3719   4.750   6.563   0.433 -0.7556  3.8974  0.1730
  786MOL0     H 3720   4.566   6.672   0.217 -0.3326 -0.0156  0.2018
  786MOL0     H 3721   4.568   6.703   0.392  0.3783  0.6598 -0.6736
  786MOL0     H 3722   4.491   6.470   0.445 -4.1165  0.3966  1.1466
  786MOL0     H 3723   4.473   6.447   0.269  2.8858 -0.5422  1.2901
  786MOL0     H 3724   4.328   6.652   0.454 -1.0988  1.2759 -0.8926
  786MOL0     H 3725   4.308   6.641   0.284 -2.3637 -0.1719 -0.0130
  786MOL0     H 3726   4.283   6.393   0.465  1.4123  2.7908  2.8506
  786MOL0     H 3727   4.226   6.410   0.296  2.1485 -0.2379  0.1653
  786MOL0     H 3728   4.062   6.589   0.376 -0.9847 -0.6932 -0.6543
  786MOL0     H 3729   4.122   6.564   0.541  2.0133 -0.0792 -0.2811
  786MOL0     H 3730   4.010   6.339   0.359  1.0651 -1.9896  1.0450
  786MOL0     H 3731   4.030   6.325   0.529 -2.2219 -0.6160 -0.0981
  786MOL0     H 3732   3.839   6.457   0.589  1.7282 -0.0254 -1.0655
  786MOL0     H 3733   3.783   6.362   0.464 -0.6856 -1.0362  3.7257
  786MOL0     H 3734   4.756   6.243   0.126  0.0530  1.0059 -0.0145
  786MOL0     H 3735   4.955   6.115   0.064 -0.5543  2.6823 -3.8412
  786MOL0     H 3736   5.327   5.936   0.360 -1.6630 -2.4311 -1.7062
  786MOL0     H 3737   5.532   5.811   0.416  2.6632 -2.3610 -0.6170
  786MOL0     H 3738   7.371   6.291   0.839  0.6428 -0.8257 -0.1731
  786MOL0     H 3739   7.584   6.319   0.941  1.5874  0.0060  0.1948
  786MOL0     H 3740   8.138   5.954   0.961 -2.2175 -1.1238  3.1179
  786MOL0     H 3741   8.344   6.033   1.081 -0.9089 -0.6297  1.6956
  786MOL0     H 3742   8.524   6.171   1.076  1.2405 -0.4784  0.4064
  786MOL0     H 3743   8.572   6.320   1.174  0.5186 -0.7855  0.3220
  786MOL0     H 3744   8.432   6.331   0.904  1.4408 -0.2151 -0.2841
  786MOL0     H 3745   8.422   6.458   1.017 -0.0483  1.1226 -1.0920
  786MOL0     H 3746   8.694   6.363   0.975 -0.4041 -0.8907 -0.9642
  786MOL0     H 3747   8.635   6.525   0.981 -3.9698  0.1344  0.8699
  786MOL0     H 3748   8.730   6.473   0.769  0.3592 -0.9092 -1.0441
  786MOL0     H 3749   8.593   6.370   0.727 -2.2024 -0.0034 -0.4209
  786MOL0     H 3750   8.405   6.728   0.675  0.2718  2.0360  2.0206
  786MOL0     H 3751   8.163   6.408   1.152 -1.4249  0.4944 -0.5451
  786MOL0     H 3752   7.963   6.353   1.041 -1.1154 -1.4285 -1.5088
  787MOL0     O 3753   2.372   0.816   9.940 -0.3567 -0.5286 -0.3390
  787MOL0     C 3754   2.427   0.726   9.879 -1.3844 -0.3420  0.6811
  787MOL0     O 3755   2.558   0.666   9.895 -1.1022  1.0335  0.3342
  787MOL0     C 3756   2.634   0.725   9.995 -0.3073 -0.4534 -0.3134
  787MOL0     C 3757   2.580   0.736  10.125 -0.2133 -0.0888  0.0499
  787MOL0     C 3758   2.661   0.786  10.228  0.2307  0.0181  0.2257
  787MOL0     C 3759   2.798   0.825  10.206 -0.3503 -0.7702 -0.4616
  787MOL0     O 3760   2.863   0.866  10.319  0.0192  0.2099  0.4451
  787MOL0     C 3761   3.010   0.884  10.316  1.0858 -0.1417  0.2449
  787MOL0     C 3762   3.058   0.929  10.454 -0.4843 -0.3917  0.5053
  787MOL0     C 3763   3.021   0.833  10.571 -0.7582  0.2897  0.7076
  787MOL0     C 3764   3.070   0.905  10.698 -0.4389  0.0697  0.5710
  787MOL0     C 3765   3.223   0.893  10.728 -0.0421 -0.6471 -0.2518
  787MOL0     C 3766   3.269   0.998  10.829 -0.1488 -0.1772 -0.1245
  787MOL0     C 3767   3.404   0.955  10.896  0.0557 -0.9924  0.0270
  787MOL0     C 3768   3.402   0.843  11.006  0.6742 -0.4696  0.4686
  787MOL0     N 3769   3.536   0.818  11.066 -0.8142 -0.1456  0.5395
  787MOL0     C 3770   3.638   0.921  11.084  0.3645 -0.1433 -0.6618
  787MOL0     C 3771   3.750   0.842  11.098  0.1286  0.1101 -0.0801
  787MOL0     C 3772   3.889   0.897  11.123 -0.9006  0.4857  0.3638
  787MOL0     C 3773   3.945   0.866  11.262 -0.1849  0.1449 -0.1137
  787MOL0     C 3774   3.866   0.913  11.375  0.0627 -0.4659 -0.2672
  787MOL0     C 3775   3.874   0.823  11.495  0.6619 -0.8455  0.1317
  787MOL0     O 3776   3.776   0.874  11.593  0.1508  0.2209 -0.2180
  787MOL0     C 3777   3.646   0.836  11.596 -0.8425  0.5861 -0.2427
  787MOL0     C 3778   3.567   0.864  11.699  0.4476  0.8958 -0.6590
  787MOL0     C 3779   3.434   0.841  11.714 -0.7853  0.8080  0.0257
  787MOL0     C 3780   3.369   0.779  11.606  0.4804  0.0737 -0.0950
  787MOL0     C 3781   3.219   0.753  11.612 -0.1496 -0.3356  0.1947
  787MOL0     O 3782   3.154   0.824  11.704  0.6469  0.1960  0.3787
  787MOL0     C 3783   3.015   0.824  11.718 -0.9630  0.7802 -0.5601
  787MOL0     C 3784   2.961   0.873  11.840  0.3765  0.5517 -0.2747
  787MOL0     C 3785   2.824   0.889  11.855 -0.3901  0.6614 -0.1688
  787MOL0     C 3786   2.732   0.849  11.760 -0.4575 -0.0800 -0.0643
  787MOL0     O 3787   2.595   0.862  11.787 -0.8183  0.2163  0.4566
  787MOL0     C 3788   2.513   0.889  11.667  0.0532 -0.0020  0.0898
  787MOL0     C 3789   2.379   0.951  11.710  0.3149  0.7090  0.2385
  787MOL0     C 3790   2.266   0.911  11.606 -0.5845  0.4652  1.1207
  787MOL0     C 3791   2.134   0.988  11.626 -0.3335 -0.5936 -0.2273
  787MOL0     C 3792   2.022   0.942  11.537  0.5203  1.5387  0.0880
  787MOL0     C 3793   1.882   0.987  11.579 -0.7279  0.2871  0.2731
  787MOL0     C 3794   1.782   0.942  11.479 -0.7557  0.9006  0.2138
  787MOL0     C 3795   1.640   0.983  11.520 -0.6072  0.1462 -0.0036
  787MOL0    Cl 3796   1.630   1.159  11.494  0.2033  0.0743 -0.2147
  787MOL0     C 3797   2.786   0.771  11.648  0.3754 -1.2232 -1.0381
  787MOL0     C 3798   2.924   0.771  11.619 -0.3160  0.4567  0.2381
  787MOL0     O 3799   3.173   0.673  11.528 -0.0711 -0.2383 -0.0276
  787MOL0     C 3800   3.444   0.750  11.492  0.5019  0.5870  0.2315
  787MOL0     C 3801   3.585   0.769  11.490  0.6454  0.5358 -0.3423
  787MOL0     N 3802   3.719   0.700  11.100 -0.5317  0.1881 -0.4594
  787MOL0     N 3803   3.588   0.700  11.087 -0.4974 -0.0938 -0.3878
  787MOL0     C 3804   2.844   0.800  10.081 -0.0960 -0.3234  0.5910
  787MOL0     C 3805   2.765   0.760   9.973 -0.9493 -0.2404  0.5907
  787MOL0     C 3806   2.362   0.689   9.750 -0.0406 -0.2499 -1.0667
  787MOL0     C 3807   2.227   0.726   9.717 -0.9070  0.4314  0.7090
  787MOL0     C 3808   2.171   0.709   9.585  0.2761  0.1210 -0.0740
  787MOL0     C 3809   2.240   0.633   9.490 -0.1147  0.0168  0.4123
  787MOL0     O 3810   2.197   0.603   9.362  0.3189  0.3739 -0.7201
  787MOL0     C 3811   2.062   0.632   9.322 -0.6431 -0.4196  0.3248
  787MOL0     C 3812   2.060   0.667   9.169  0.6674 -0.1110  1.1479
  787MOL0     C 3813   1.918   0.689   9.118  0.4474  0.3173  0.1116
  787MOL0     C 3814   1.843   0.559   9.081 -0.3784 -0.2350 -0.1402
  787MOL0     C 3815   1.741   0.595   8.980  0.1815 -0.0893 -0.7903
  787MOL0     C 3816   1.659   0.622   8.895 -0.0024 -0.1109 -0.3527
  787MOL0     C 3817   2.376   0.596   9.521  0.7871  0.6248 -0.0538
  787MOL0     C 3818   2.434   0.626   9.646 -0.7651  0.1983 -0.1760
  787MOL0     H 3819   2.480   0.700  10.145 -0.7083  0.7282 -0.8479
  787MOL0     H 3820   2.620   0.828  10.319 -2.0735  1.5112 -1.3810
  787MOL0     H 3821   3.044   0.950  10.236  2.3104 -3.2490 -1.9893
  787MOL0     H 3822   3.049   0.783  10.297  0.3479 -1.0254  2.9653
  787MOL0     H 3823   3.010   1.025  10.473 -1.2667 -0.1797 -2.0659
  787MOL0     H 3824   3.167   0.934  10.450 -0.5534  0.9618 -0.2097
  787MOL0     H 3825   3.065   0.734  10.556  0.3173  0.7340  0.7744
  787MOL0     H 3826   2.913   0.823  10.565 -0.4996 -2.2593 -2.0019
  787MOL0     H 3827   3.045   1.012  10.702 -1.4588 -0.1453  0.1655
  787MOL0     H 3828   3.022   0.855  10.783 -1.5605 -0.0706 -0.1303
  787MOL0     H 3829   3.290   0.906  10.642  2.2445 -0.2199  1.4863
  787MOL0     H 3830   3.234   0.790  10.765  1.4366 -0.7561 -0.8926
  787MOL0     H 3831   3.192   1.018  10.905 -1.7831 -1.2176 -1.4402
  787MOL0     H 3832   3.288   1.096  10.783  1.1870  0.5693  1.8836
  787MOL0     H 3833   3.469   0.923  10.814  0.2424  0.1064 -0.2666
  787MOL0     H 3834   3.452   1.042  10.942 -2.3733  1.4096 -1.6424
  787MOL0     H 3835   3.361   0.755  10.956  3.3014 -1.3786 -0.2346
  787MOL0     H 3836   3.333   0.873  11.085 -0.9784  2.6684 -1.9447
  787MOL0     H 3837   3.631   1.030  11.084  0.9836 -0.0831 -2.0961
  787MOL0     H 3838   3.903   1.005  11.113 -0.7471  0.3001 -1.7270
  787MOL0     H 3839   3.952   0.859  11.042 -0.2475  0.8566  0.6899
  787MOL0     H 3840   4.044   0.911  11.270 -0.7076  1.3167 -0.0406
  787MOL0     H 3841   3.960   0.757  11.269  2.0764  0.3936 -0.3207
  787MOL0     H 3842   3.904   1.010  11.407  1.2281 -0.8421 -0.4425
  787MOL0     H 3843   3.764   0.927  11.338 -0.3534 -1.7133  0.3603
  787MOL0     H 3844   3.969   0.827  11.549  1.7923  1.7095 -1.7976
  787MOL0     H 3845   3.847   0.720  11.472 -1.5928 -0.1098 -0.7770
  787MOL0     H 3846   3.601   0.922  11.784 -2.0154  0.8288  0.4443
  787MOL0     H 3847   3.382   0.879  11.801 -1.7487  2.6369 -1.2839
  787MOL0     H 3848   3.016   0.915  11.924  0.6650  1.5293 -0.9418
  787MOL0     H 3849   2.787   0.930  11.948 -1.6635  0.5335 -0.5993
  787MOL0     H 3850   2.496   0.795  11.613 -0.4325  0.3112 -0.3068
  787MOL0     H 3851   2.572   0.947  11.595 -1.5848 -1.0488 -2.2211
  787MOL0     H 3852   2.406   1.057  11.709  1.5499  0.4550  1.9225
  787MOL0     H 3853   2.351   0.925  11.812  0.0234  1.0169  0.2384
  787MOL0     H 3854   2.252   0.803  11.611 -1.9011  0.2599 -3.3777
  787MOL0     H 3855   2.302   0.925  11.504 -1.6027  1.6424  0.8919
  787MOL0     H 3856   2.098   0.968  11.727  0.4519  0.5740  0.3082
  787MOL0     H 3857   2.142   1.097  11.615  0.2646 -0.5682  0.4267
  787MOL0     H 3858   2.030   0.834  11.552 -5.1993  0.5854 -1.3666
  787MOL0     H 3859   2.055   0.980  11.439  2.2944 -0.3063 -0.1139
  787MOL0     H 3860   1.885   1.096  11.587  0.8287  0.4995 -2.2010
  787MOL0     H 3861   1.855   0.940  11.674 -3.3777  1.6699  0.2881
  787MOL0     H 3862   1.800   0.982  11.379  0.6549 -1.5033 -0.5819
  787MOL0     H 3863   1.773   0.833  11.467 -4.1899  1.2475 -1.5114
  787MOL0     H 3864   1.620   0.949  11.622 -0.7778  2.2447  0.7092
  787MOL0     H 3865   1.573   0.929  11.453 -1.1538  0.0339  0.6183
  787MOL0     H 3866   2.726   0.736  11.566  0.9319 -0.7422 -1.6640
  787MOL0     H 3867   2.943   0.724  11.523 -1.3381  0.4032  0.0516
  787MOL0     H 3868   3.390   0.722  11.402  0.3620  1.1107  0.1509
  787MOL0     H 3869   3.647   0.734  11.408  1.8055  1.3076  0.1870
  787MOL0     H 3870   2.952   0.814  10.077 -0.3274  1.4864 -0.5810
  787MOL0     H 3871   2.816   0.740   9.879  0.0888  0.4668  0.9856
  787MOL0     H 3872   2.169   0.774   9.795  0.3334  1.9221  0.7584
  787MOL0     H 3873   2.073   0.753   9.572 -0.8908 -1.2861  2.9182
  787MOL0     H 3874   2.019   0.719   9.373 -1.9991 -1.3196  0.7454
  787MOL0     H 3875   1.995   0.552   9.353 -0.1283 -0.3230  1.7524
  787MOL0     H 3876   2.112   0.762   9.153  2.6833 -1.3501 -0.1337
  787MOL0     H 3877   2.111   0.591   9.109  2.2166  2.1579 -0.5732
  787MOL0     H 3878   1.912   0.765   9.039 -1.3624 -3.2233 -3.5748
  787MOL0     H 3879   1.854   0.731   9.196  1.8102 -0.8171  1.9076
  787MOL0     H 3880   1.913   0.492   9.032 -2.7849 -2.0516 -1.2950
  787MOL0     H 3881   1.795   0.509   9.166  0.1089  2.2396  1.7270
  787MOL0     H 3882   1.593   0.647   8.814  1.7336  1.4892 -1.3379
  787MOL0     H 3883   2.425   0.547   9.438 -0.4174  0.2663 -0.5722
  787MOL0     H 3884   2.538   0.598   9.656 -0.6023  0.1201 -1.8317
  788MOL0     O 3885   6.658   6.207   9.455 -0.3274 -0.4139 -0.1259
  788MOL0     C 3886   6.678   6.122   9.370 -0.6498 -0.0305  0.2959
  788MOL0     O 3887   6.578   6.056   9.296 -0.2397 -0.5236 -0.6193
  788MOL0     C 3888   6.450   6.105   9.307  0.7561 -0.0648 -0.0636
  788MOL0     C 3889   6.386   6.134   9.196  0.2579 -0.8430 -0.3177
  788MOL0     C 3890   6.246   6.171   9.189 -0.1125 -0.2454  0.4374
  788MOL0     C 3891   6.183   6.191   9.306 -0.1316  0.5740  0.0118
  788MOL0     O 3892   6.053   6.229   9.298  0.8522 -0.4861 -0.2843
  788MOL0     C 3893   5.974   6.135   9.369 -0.1960  0.5360  0.4842
  788MOL0     C 3894   5.881   6.079   9.266 -0.0226  1.9064  0.1082
  788MOL0     C 3895   5.795   6.181   9.186 -0.9926  0.2213  0.4061
  788MOL0     C 3896   5.700   6.098   9.102 -0.3173  0.0951 -0.6581
  788MOL0     C 3897   5.616   6.192   9.005  0.1458  0.6363 -1.8000
  788MOL0     C 3898   5.704   6.273   8.913 -0.9169 -0.2479 -0.0438
  788MOL0     C 3899   5.640   6.339   8.792 -0.7502 -0.2601  0.1690
  788MOL0     C 3900   5.724   6.440   8.721  0.3693  0.1996  0.0585
  788MOL0     N 3901   5.650   6.519   8.620 -0.4512 -0.2166  0.1320
  788MOL0     C 3902   5.575   6.629   8.636  0.2225 -0.1386 -0.3577
  788MOL0     C 3903   5.547   6.665   8.509 -0.0482 -0.0678  0.5552
  788MOL0     C 3904   5.457   6.777   8.477  0.4765  0.8346 -0.6212
  788MOL0     C 3905   5.427   6.821   8.328  0.0124 -0.4280 -0.6831
  788MOL0     C 3906   5.320   6.922   8.342  0.7787 -0.3766  0.2477
  788MOL0     C 3907   5.308   6.999   8.215 -0.2573  0.3239 -0.1730
  788MOL0     O 3908   5.241   6.914   8.115  0.0318 -0.3384  0.0332
  788MOL0     C 3909   5.114   6.900   8.112  1.9086 -0.4845 -1.2298
  788MOL0     C 3910   5.067   6.787   8.039 -0.1648  0.2229 -0.0526
  788MOL0     C 3911   4.931   6.751   8.027 -1.0555  0.2285 -0.3290
  788MOL0     C 3912   4.839   6.844   8.085 -0.3006 -1.3335 -0.2414
  788MOL0     C 3913   4.697   6.815   8.063  0.9272  0.8544  0.0966
  788MOL0     O 3914   4.673   6.715   7.968  0.1646 -0.3487 -0.7316
  788MOL0     C 3915   4.541   6.683   7.937  0.0088 -0.0466 -0.2815
  788MOL0     C 3916   4.474   6.759   7.848 -0.3786 -1.6543  0.6469
  788MOL0     C 3917   4.339   6.736   7.819 -0.4133  0.7884  0.4892
  788MOL0     C 3918   4.276   6.626   7.872  0.1550  0.0328  1.0768
  788MOL0     O 3919   4.145   6.595   7.845  0.3166 -0.4101  0.3237
  788MOL0     C 3920   4.050   6.711   7.842  0.1813  0.5938 -0.3656
  788MOL0     C 3921   3.910   6.672   7.808  0.2916  0.5931  0.1461
  788MOL0     C 3922   3.890   6.666   7.657 -0.0376  0.4475 -0.3876
  788MOL0     C 3923   3.750   6.615   7.628  0.5694 -0.0818  0.4145
  788MOL0     C 3924   3.708   6.605   7.481 -0.6616  0.0691 -0.4083
  788MOL0     C 3925   3.561   6.580   7.498 -0.7444 -0.3764  0.1523
  788MOL0     C 3926   3.497   6.546   7.362  0.6827  0.1836  0.4748
  788MOL0     C 3927   3.345   6.507   7.366  0.3791 -0.1527  0.8238
  788MOL0    Cl 3928   3.249   6.653   7.392  0.2504  0.0781 -0.3223
  788MOL0     C 3929   4.347   6.545   7.961  0.3509 -0.5981 -0.0096
  788MOL0     C 3930   4.481   6.572   7.994  0.4760 -0.2649  0.6239
  788MOL0     O 3931   4.607   6.871   8.125 -0.0215  0.8357 -0.1053
  788MOL0     C 3932   4.885   6.949   8.167  0.4740 -0.6937  0.3896
  788MOL0     C 3933   5.020   6.975   8.182 -0.0712 -0.2219  0.4494
  788MOL0     N 3934   5.594   6.578   8.421  0.0508  0.7372 -0.5176
  788MOL0     N 3935   5.654   6.485   8.486 -0.1146  0.2999  0.5525
  788MOL0     C 3936   6.245   6.158   9.430  0.8416 -0.7198  0.9066
  788MOL0     C 3937   6.380   6.120   9.432 -0.1107  0.4206 -0.0587
  788MOL0     C 3938   6.817   6.103   9.334  1.1950  0.3838  1.4004
  788MOL0     C 3939   6.926   6.177   9.376  0.5622 -0.2367 -0.3552
  788MOL0     C 3940   7.062   6.151   9.340  0.5247  0.6268 -0.1337
  788MOL0     C 3941   7.083   6.041   9.258 -0.7209  0.5067  0.0678
  788MOL0     O 3942   7.207   6.010   9.206  0.0632 -0.2728 -0.6770
  788MOL0     C 3943   7.266   5.897   9.271 -0.8677  0.6022  0.2602
  788MOL0     C 3944   7.413   5.887   9.242 -0.2617  0.0011 -0.9301
  788MOL0     C 3945   7.475   6.024   9.300 -0.1842  0.8345 -0.3650
  788MOL0     C 3946   7.630   6.017   9.300  0.2756 -1.1276  0.2025
  788MOL0     C 3947   7.690   5.933   9.404 -0.5942 -0.8190  0.1705
  788MOL0     C 3948   7.755   5.882   9.496  0.8870 -0.8284 -0.0397
  788MOL0     C 3949   6.981   5.953   9.226  0.2572 -0.5656 -0.4384
  788MOL0     C 3950   6.849   5.988   9.263 -0.2620  0.5663  0.5465
  788MOL0     H 3951   6.437   6.125   9.101  1.7567 -1.6599  0.5345
  788MOL0     H 3952   6.203   6.182   9.090  3.7389  0.5712 -1.3365
  788MOL0     H 3953   5.914   6.188   9.444  1.5169  3.0967  0.1464
  788MOL0     H 3954   6.030   6.055   9.420  0.5362  1.4093  1.0759
  788MOL0     H 3955   5.815   6.013   9.323  2.5018 -0.3560  0.6363
  788MOL0     H 3956   5.934   6.017   9.193 -0.6321  2.4203 -0.8006
  788MOL0     H 3957   5.866   6.233   9.121 -0.1011 -0.5918  0.7059
  788MOL0     H 3958   5.747   6.258   9.247  0.8378  4.1263 -2.6001
  788MOL0     H 3959   5.755   6.019   9.050  0.8451  0.3220  0.1895
  788MOL0     H 3960   5.639   6.045   9.177  2.7030 -1.1216  1.0988
  788MOL0     H 3961   5.541   6.253   9.055 -0.4102  0.0309 -1.8766
  788MOL0     H 3962   5.544   6.139   8.942 -1.4567  1.3116 -0.5970
  788MOL0     H 3963   5.775   6.201   8.872  0.0276 -0.2704  1.5516
  788MOL0     H 3964   5.760   6.345   8.973 -0.3567 -0.8435  0.1594
  788MOL0     H 3965   5.597   6.264   8.725  2.7394 -0.5887 -1.9958
  788MOL0     H 3966   5.558   6.391   8.840 -0.4755  1.1204 -0.8034
  788MOL0     H 3967   5.810   6.405   8.663  0.0361  0.2938 -0.4888
  788MOL0     H 3968   5.778   6.497   8.797 -0.8867  0.6348  0.6557
  788MOL0     H 3969   5.532   6.680   8.721  2.0280  0.5104  0.1974
  788MOL0     H 3970   5.479   6.863   8.540 -1.5808  1.4418 -0.6636
  788MOL0     H 3971   5.364   6.735   8.518 -0.4681  2.4512 -1.0239
  788MOL0     H 3972   5.395   6.739   8.264 -3.2698  1.3153 -1.5345
  788MOL0     H 3973   5.519   6.870   8.297 -0.3340  1.8079  1.5017
  788MOL0     H 3974   5.224   6.881   8.376  1.6366 -0.6493  2.5113
  788MOL0     H 3975   5.353   6.988   8.423  1.9976 -2.8390  1.8707
  788MOL0     H 3976   5.408   7.028   8.180  0.0464 -3.2459 -2.8535
  788MOL0     H 3977   5.259   7.097   8.222 -2.2547 -0.3026 -3.3701
  788MOL0     H 3978   5.143   6.723   7.997  0.5642 -0.1859  1.7701
  788MOL0     H 3979   4.905   6.671   7.959 -0.9275 -0.5635  0.5291
  788MOL0     H 3980   4.521   6.848   7.806 -0.3865 -1.3263  1.3098
  788MOL0     H 3981   4.294   6.797   7.741 -0.4910 -0.5500 -0.5599
  788MOL0     H 3982   4.080   6.791   7.774  0.1154 -1.5222 -3.0926
  788MOL0     H 3983   4.050   6.735   7.948  1.3707  0.5640 -0.3425
  788MOL0     H 3984   3.842   6.750   7.842 -1.1234 -0.4142 -0.2631
  788MOL0     H 3985   3.882   6.583   7.866 -0.2918  0.4376 -0.3625
  788MOL0     H 3986   3.955   6.600   7.598  1.3472  0.9822  0.4765
  788MOL0     H 3987   3.903   6.769   7.621  1.1668  0.6262  0.4978
  788MOL0     H 3988   3.739   6.516   7.673 -1.4422  0.9482  2.4098
  788MOL0     H 3989   3.684   6.689   7.673 -1.4204 -1.2217 -0.4990
  788MOL0     H 3990   3.756   6.527   7.421 -0.0762 -0.5362  0.8030
  788MOL0     H 3991   3.720   6.703   7.435 -1.4825 -0.1938 -1.1956
  788MOL0     H 3992   3.514   6.665   7.548 -0.2407 -0.2183  0.3671
  788MOL0     H 3993   3.553   6.495   7.567  0.1640  0.6585  1.6025
  788MOL0     H 3994   3.503   6.630   7.293 -2.2107  0.7669  0.8090
  788MOL0     H 3995   3.544   6.453   7.328  0.5240 -0.2720  1.4501
  788MOL0     H 3996   3.310   6.438   7.443 -1.6617 -0.8736 -0.6462
  788MOL0     H 3997   3.314   6.459   7.272  0.1657  1.8095 -0.1513
  788MOL0     H 3998   4.284   6.469   8.006 -1.0869 -0.6477 -1.9970
  788MOL0     H 3999   4.532   6.526   8.078 -1.0496 -1.0036  1.1687
  788MOL0     H 4000   4.814   7.014   8.218 -0.4489 -0.9774 -0.5095
  788MOL0     H 4001   5.054   7.054   8.248 -0.2341 -1.6320  2.2949
  788MOL0     H 4002   6.203   6.162   9.530  0.2461  1.7440  0.6384
  788MOL0     H 4003   6.439   6.091   9.518 -1.7169  0.3650  1.0789
  788MOL0     H 4004   6.909   6.264   9.438 -1.2735  1.4227 -3.0235
  788MOL0     H 4005   7.143   6.215   9.375 -2.3299  3.3486  2.1358
  788MOL0     H 4006   7.223   5.805   9.229  3.0811 -0.2307 -2.5808
  788MOL0     H 4007   7.245   5.907   9.378  0.3398  0.4113  0.5347
  788MOL0     H 4008   7.466   5.808   9.295 -0.4804  0.5765  0.1574
  788MOL0     H 4009   7.427   5.879   9.133  3.8656  2.3448 -0.7832
  788MOL0     H 4010   7.434   6.051   9.398 -0.3348  1.6838 -0.6502
  788MOL0     H 4011   7.446   6.102   9.229 -0.6914 -1.0035 -2.2886
  788MOL0     H 4012   7.662   6.001   9.197 -1.1648 -0.6874 -0.3313
  788MOL0     H 4013   7.670   6.117   9.323  0.2002 -0.2909 -2.8137
  788MOL0     H 4014   7.810   5.839   9.578  2.0616  1.4658  0.4571
  788MOL0     H 4015   7.001   5.857   9.178  0.0175 -1.5433  1.3432
  788MOL0     H 4016   6.770   5.923   9.227  1.0822 -1.0691  0.4058
  789MOL0     O 4017   3.938  10.107   9.320 -0.4831  0.2381  0.6145
  789MOL0     C 4018   3.945  10.095   9.445  0.0381 -0.5500 -0.0567
  789MOL0     O 4019   4.061  10.110   9.519 -0.1925 -0.2787 -0.1032
  789MOL0     C 4020   4.181  10.080   9.462 -0.2979 -0.1014  0.6243
  789MOL0     C 4021   4.297  10.145   9.513 -0.3547  0.3699  0.1860
  789MOL0     C 4022   4.420  10.106   9.477 -0.3871  0.3770 -0.3608
  789MOL0     C 4023   4.448   9.998   9.388 -0.1040  0.2939 -0.7674
  789MOL0     O 4024   4.574   9.974   9.335 -0.3897  0.2844 -0.1835
  789MOL0     C 4025   4.586   9.865   9.243  0.2513  0.2534  1.2345
  789MOL0     C 4026   4.547   9.906   9.099  0.1457  0.1008 -0.2265
  789MOL0     C 4027   4.638  10.021   9.055  0.2724 -1.1633  0.2830
  789MOL0     C 4028   4.595  10.064   8.919 -0.0264  0.1256 -0.4097
  789MOL0     C 4029   4.701  10.143   8.846 -0.1575  0.3418 -0.3496
  789MOL0     C 4030   4.694  10.289   8.889 -0.0239  0.4694  0.3616
  789MOL0     C 4031   4.826  10.352   8.833  0.4215  0.1181  0.3708
  789MOL0     C 4032   4.814  10.508   8.831 -0.7796  0.0583 -0.2884
  789MOL0     N 4033   4.796  10.571   8.965 -0.8377 -0.2186 -0.1226
  789MOL0     C 4034   4.734  10.691   8.988  0.8994  1.1154 -0.3442
  789MOL0     C 4035   4.764  10.711   9.119 -0.4358  0.2629  0.0121
  789MOL0     C 4036   4.726  10.827   9.205  0.0528  0.1163 -0.2163
  789MOL0     C 4037   4.580  10.835   9.237  0.5568  0.1050  0.3248
  789MOL0     C 4038   4.545  10.951   9.326 -0.1796  0.1945  0.0551
  789MOL0     C 4039   4.396  10.986   9.318 -0.1925  0.4780 -0.1140
  789MOL0     O 4040   4.352  11.049   9.440 -0.2553  0.2698  0.2763
  789MOL0     C 4041   4.218  11.084   9.442 -0.0130  0.2279  0.5238
  789MOL0     C 4042   4.110  10.993   9.465  0.3257 -0.2087 -0.1263
  789MOL0     C 4043   3.980  11.048   9.454  0.7171 -0.3111 -0.0390
  789MOL0     C 4044   3.958  11.182   9.414 -0.0632 -0.0655  0.3892
  789MOL0     C 4045   3.816  11.230   9.380 -0.5467 -0.0803  0.0385
  789MOL0     O 4046   3.726  11.126   9.368  0.3511 -0.3197  0.0579
  789MOL0     C 4047   3.599  11.167   9.333 -0.8221 -0.2800 -0.6350
  789MOL0     C 4048   3.515  11.233   9.425  0.6308  0.0125 -0.3417
  789MOL0     C 4049   3.386  11.282   9.393  1.3734  0.5095  1.3132
  789MOL0     C 4050   3.340  11.256   9.264  0.8531  0.1426  0.1694
  789MOL0     O 4051   3.229  11.307   9.212 -0.5518  0.1700 -0.4213
  789MOL0     C 4052   3.116  11.223   9.241  0.3006 -0.5066  0.3332
  789MOL0     C 4053   2.975  11.277   9.207 -0.0654  1.2634 -0.4798
  789MOL0     C 4054   2.962  11.325   9.057  0.3695  0.7945  0.3469
  789MOL0     C 4055   2.829  11.401   9.043  0.8145  0.7209  1.0066
  789MOL0     C 4056   2.825  11.452   8.893 -1.1529 -0.2811  0.5892
  789MOL0     C 4057   2.693  11.524   8.863  0.0583  0.3192  0.0231
  789MOL0     C 4058   2.574  11.430   8.847 -0.2836  0.1569 -0.7947
  789MOL0     C 4059   2.453  11.478   8.926 -0.5385  0.2695 -0.2347
  789MOL0    Cl 4060   2.392  11.623   8.847  0.2278 -0.1318  0.5376
  789MOL0     C 4061   3.425  11.181   9.179 -0.1442 -0.9291  0.4832
  789MOL0     C 4062   3.551  11.137   9.206 -0.8406 -0.3858  0.1616
  789MOL0     O 4063   3.791  11.347   9.360 -0.3162 -0.7704 -0.0837
  789MOL0     C 4064   4.065  11.270   9.394  0.2756 -0.2649  0.9759
  789MOL0     C 4065   4.192  11.214   9.403 -0.3026 -0.0931  0.1586
  789MOL0     N 4066   4.844  10.612   9.173  0.0520  0.4385 -0.2301
  789MOL0     N 4067   4.867  10.529   9.074 -0.3184  0.1535  0.1194
  789MOL0     C 4068   4.340   9.934   9.343  1.1570  0.1686 -0.3651
  789MOL0     C 4069   4.205   9.974   9.378  1.1216  1.1151  0.0198
  789MOL0     C 4070   3.813  10.093   9.524  0.0596  0.5232  0.0314
  789MOL0     C 4071   3.821  10.083   9.666 -0.5858  0.4982 -0.2333
  789MOL0     C 4072   3.707  10.085   9.746  0.2168 -0.2245  0.2050
  789MOL0     C 4073   3.579  10.105   9.690  0.5092 -0.0881  0.1825
  789MOL0     O 4074   3.478  10.117   9.783 -0.0481  0.0975  0.5888
  789MOL0     C 4075   3.368  10.032   9.755 -0.6278 -0.0906 -0.3110
  789MOL0     C 4076   3.408   9.885   9.792  0.7713 -0.7840  0.0661
  789MOL0     C 4077   3.441   9.863   9.943  0.0405  0.7519 -0.2037
  789MOL0     C 4078   3.580   9.817   9.978 -0.2494  0.0411 -0.4809
  789MOL0     C 4079   3.622   9.706   9.893  1.0162 -0.4258  0.6316
  789MOL0     C 4080   3.664   9.605   9.825  0.8471  0.3685 -0.2575
  789MOL0     C 4081   3.575  10.133   9.549  0.3602  0.0376 -0.5293
  789MOL0     C 4082   3.694  10.117   9.470  0.2560 -0.1394  0.0376
  789MOL0     H 4083   4.276  10.224   9.585 -1.2311  0.8978 -0.6329
  789MOL0     H 4084   4.504  10.173   9.495  0.1461 -0.5203  0.5992
  789MOL0     H 4085   4.541   9.772   9.279  0.5164  0.4458  2.0729
  789MOL0     H 4086   4.691   9.836   9.232  1.0064  3.5688 -4.2076
  789MOL0     H 4087   4.442   9.937   9.102  0.1703  0.1436  0.9342
  789MOL0     H 4088   4.555   9.823   9.029  2.0785 -1.2925  1.5195
  789MOL0     H 4089   4.736   9.971   9.057  2.2819  2.3990 -0.0148
  789MOL0     H 4090   4.635  10.111   9.117  2.2138  1.2321 -2.7946
  789MOL0     H 4091   4.574   9.977   8.856 -3.6455  0.9929 -0.6236
  789MOL0     H 4092   4.499  10.115   8.926  1.8843  4.0195  0.3566
  789MOL0     H 4093   4.687  10.160   8.739  2.6139  0.0744 -0.8212
  789MOL0     H 4094   4.800  10.100   8.862  0.2641  1.2237 -0.5261
  789MOL0     H 4095   4.701  10.294   8.998 -3.0731  0.6775  0.6389
  789MOL0     H 4096   4.604  10.347   8.865 -1.0242  0.0531  2.7497
  789MOL0     H 4097   4.915  10.312   8.881  0.8455 -0.8274 -1.1540
  789MOL0     H 4098   4.834  10.317   8.730 -1.0132  0.4794  0.1102
  789MOL0     H 4099   4.737  10.533   8.756 -1.6582 -1.8675 -0.0855
  789MOL0     H 4100   4.909  10.537   8.786 -0.0518 -1.9972 -0.1771
  789MOL0     H 4101   4.676  10.755   8.923  1.5590  3.8457  1.5727
  789MOL0     H 4102   4.737  10.913   9.137 -1.6014 -0.0625 -0.7635
  789MOL0     H 4103   4.788  10.833   9.295 -0.6842  3.5767  0.2359
  789MOL0     H 4104   4.538  10.742   9.278  2.2648 -0.4067  0.9860
  789MOL0     H 4105   4.526  10.840   9.141  2.1382 -0.2606 -0.6122
  789MOL0     H 4106   4.563  10.911   9.426 -0.3013 -1.8536 -0.6966
  789MOL0     H 4107   4.608  11.038   9.304  0.9746 -1.0882 -2.1442
  789MOL0     H 4108   4.341  10.894   9.295  0.0595 -0.3610  2.3261
  789MOL0     H 4109   4.382  11.060   9.238  3.2367  2.4395  0.9094
  789MOL0     H 4110   4.131  10.888   9.482  1.0348 -0.1015 -0.2994
  789MOL0     H 4111   3.892  10.985   9.470 -0.8491  0.6673 -3.7207
  789MOL0     H 4112   3.553  11.263   9.523  0.5177  0.4991 -0.4433
  789MOL0     H 4113   3.337  11.335   9.473  2.1433  0.4375  1.8430
  789MOL0     H 4114   3.123  11.186   9.343 -2.3253 -0.1809  0.6869
  789MOL0     H 4115   3.121  11.137   9.173 -0.7329  0.0782 -0.5281
  789MOL0     H 4116   2.955  11.364   9.270 -1.9683  1.6743 -1.5737
  789MOL0     H 4117   2.896  11.203   9.225  0.4383  0.4098 -1.6908
  789MOL0     H 4118   2.962  11.230   9.002  1.0059  1.1120 -0.2075
  789MOL0     H 4119   3.051  11.384   9.032  0.8548 -0.7014 -1.7991
  789MOL0     H 4120   2.742  11.339   9.063  0.9190  0.3452  0.3478
  789MOL0     H 4121   2.835  11.486   9.112 -3.9496  0.2957  2.2516
  789MOL0     H 4122   2.843  11.368   8.825 -1.3334  2.3836 -3.0182
  789MOL0     H 4123   2.907  11.522   8.872  0.3221 -1.8942  0.7138
  789MOL0     H 4124   2.694  11.587   8.774 -0.7335  0.0458 -0.1795
  789MOL0     H 4125   2.672  11.592   8.946  0.3522  0.1553  0.2357
  789MOL0     H 4126   2.553  11.415   8.741  0.6411 -0.3056 -0.9245
  789MOL0     H 4127   2.603  11.329   8.879  3.7780  1.0437 -1.2109
  789MOL0     H 4128   2.473  11.490   9.033 -1.2299  2.1042 -0.2665
  789MOL0     H 4129   2.373  11.404   8.917  1.5823 -2.2162  0.1443
  789MOL0     H 4130   3.374  11.165   9.084 -0.4877  0.3999  0.4359
  789MOL0     H 4131   3.607  11.086   9.128 -0.6546 -1.3057  0.8848
  789MOL0     H 4132   4.050  11.372   9.359  0.6955  0.2860  2.3385
  789MOL0     H 4133   4.284  11.268   9.381  2.0665 -3.2978  1.2787
  789MOL0     H 4134   4.324   9.838   9.295 -4.1675  0.6524 -0.1071
  789MOL0     H 4135   4.117   9.912   9.362 -0.5969  3.0274  1.4775
  789MOL0     H 4136   3.919  10.061   9.708 -1.1867  0.1552  1.0510
  789MOL0     H 4137   3.705  10.086   9.854  2.1750  1.0240  0.2756
  789MOL0     H 4138   3.337  10.015   9.652  1.5822 -5.0085 -0.4292
  789MOL0     H 4139   3.280  10.067   9.810  0.1518 -0.3294  1.1506
  789MOL0     H 4140   3.325   9.819   9.767  0.0294 -0.2186  0.9619
  789MOL0     H 4141   3.496   9.863   9.731  1.6852  3.9926 -0.7438
  789MOL0     H 4142   3.380   9.779   9.978  2.7471 -0.4370  2.0827
  789MOL0     H 4143   3.396   9.942  10.004  1.4109  1.6457 -0.3060
  789MOL0     H 4144   3.644   9.904   9.960  0.0700 -0.2177 -0.6021
  789MOL0     H 4145   3.590   9.799  10.085  1.0472  3.1849  0.0438
  789MOL0     H 4146   3.703   9.525   9.765 -0.3413 -0.4438  0.0163
  789MOL0     H 4147   3.483  10.162   9.500 -1.4228 -0.3715  2.3623
  789MOL0     H 4148   3.691  10.131   9.362 -1.0963 -0.2939  0.0370
  790MOL0     O 4149   7.753   0.833   8.569  0.9263  0.1429  0.4934
  790MOL0     C 4150   7.810   0.775   8.469  0.1462 -0.1433 -0.0364
  790MOL0     O 4151   7.769   0.778   8.341 -0.7631 -0.4353 -0.7482
  790MOL0     C 4152   7.654   0.857   8.306  0.5227  0.6209 -0.3620
  790MOL0     C 4153   7.647   0.920   8.180  0.1612 -0.4552 -0.4071
  790MOL0     C 4154   7.537   0.984   8.134 -0.0915 -0.4010  0.9198
  790MOL0     C 4155   7.429   1.002   8.217  0.4675  0.9408 -1.0563
  790MOL0     O 4156   7.320   1.076   8.176  0.0186 -0.2963 -0.8405
  790MOL0     C 4157   7.258   1.056   8.054  0.0615 -0.1485 -0.5784
  790MOL0     C 4158   7.131   1.134   8.042 -0.0599  0.8506 -0.3930
  790MOL0     C 4159   7.009   1.094   8.121  0.0675 -0.4598 -0.9131
  790MOL0     C 4160   6.914   1.219   8.128 -0.4493 -0.2845 -0.5669
  790MOL0     C 4161   6.785   1.184   8.202 -0.1754  0.5802  0.2340
  790MOL0     C 4162   6.692   1.309   8.203 -0.6947 -0.2923  0.5885
  790MOL0     C 4163   6.576   1.288   8.294 -0.9666 -0.4726  0.3544
  790MOL0     C 4164   6.453   1.207   8.238  0.5392 -0.2817 -0.3634
  790MOL0     N 4165   6.342   1.212   8.332 -0.4911 -0.2727  0.3345
  790MOL0     C 4166   6.350   1.148   8.453  0.2227  0.2620  0.0423
  790MOL0     C 4167   6.225   1.154   8.499 -0.0414  0.8125  0.0966
  790MOL0     C 4168   6.211   1.107   8.644  0.2082  0.7514  0.0123
  790MOL0     C 4169   6.080   1.027   8.671  0.6419 -0.3088  0.7659
  790MOL0     C 4170   5.954   1.112   8.638  0.3065  0.1920  0.1421
  790MOL0     C 4171   5.851   1.115   8.757  0.6960 -0.2426  1.5177
  790MOL0     O 4172   5.740   1.207   8.716 -0.6235  0.5469  0.6353
  790MOL0     C 4173   5.616   1.167   8.754 -0.0421 -0.2378 -0.3737
  790MOL0     C 4174   5.514   1.135   8.654  0.5940 -0.7155  0.4708
  790MOL0     C 4175   5.387   1.092   8.685 -0.4906 -0.3891 -0.0612
  790MOL0     C 4176   5.358   1.080   8.825 -0.3711  0.0429 -0.5022
  790MOL0     C 4177   5.222   1.021   8.858  1.1906 -0.0988  0.2365
  790MOL0     O 4178   5.192   0.999   8.990  0.0486 -0.2064 -0.3612
  790MOL0     C 4179   5.093   0.910   9.027  0.0807 -0.0436  0.7673
  790MOL0     C 4180   4.969   0.956   9.081 -0.0372 -0.0150  0.5221
  790MOL0     C 4181   4.874   0.861   9.120 -0.3588 -0.0251 -0.2279
  790MOL0     C 4182   4.894   0.725   9.100  0.0666  0.9928 -0.6402
  790MOL0     O 4183   4.806   0.623   9.129 -0.6900  0.3205  1.1233
  790MOL0     C 4184   4.681   0.638   9.055 -0.2360  0.5117 -0.8938
  790MOL0     C 4185   4.608   0.501   9.080 -0.2676 -0.2605 -0.1223
  790MOL0     C 4186   4.681   0.387   8.998 -0.3246  0.3486  0.1570
  790MOL0     C 4187   4.788   0.314   9.082  0.3056  0.7732 -0.2801
  790MOL0     C 4188   4.841   0.178   9.035  0.4886  0.2249 -0.1695
  790MOL0     C 4189   4.934   0.185   8.923 -0.1121  0.0325 -0.2179
  790MOL0     C 4190   5.052   0.288   8.934 -0.2628 -0.1427  0.9305
  790MOL0     C 4191   5.166   0.257   8.829 -0.5052  0.4262  0.3761
  790MOL0    Cl 4192   5.278   0.127   8.875 -0.0305 -0.1790  0.0805
  790MOL0     C 4193   5.018   0.685   9.052 -0.6679  0.3144  0.9382
  790MOL0     C 4194   5.122   0.776   9.008 -0.2255  0.5131 -0.0277
  790MOL0     O 4195   5.159   0.973   8.762  0.4398  0.1668 -0.1051
  790MOL0     C 4196   5.453   1.094   8.925  0.0122 -0.2902  0.6107
  790MOL0     C 4197   5.583   1.137   8.892  0.4696 -0.5642 -0.8764
  790MOL0     N 4198   6.147   1.213   8.407  0.3489  0.1930 -0.3603
  790MOL0     N 4199   6.219   1.250   8.305  0.2895 -0.0376 -0.1052
  790MOL0     C 4200   7.423   0.935   8.339  0.2955 -0.4455 -0.6588
  790MOL0     C 4201   7.532   0.861   8.382  1.1786 -0.0947  0.1276
  790MOL0     C 4202   7.944   0.714   8.491  0.3760  0.0828 -0.3748
  790MOL0     C 4203   8.024   0.690   8.374  0.8681 -0.0215  0.0188
  790MOL0     C 4204   8.161   0.662   8.380  0.0513 -0.0589  0.7895
  790MOL0     C 4205   8.216   0.646   8.505 -0.4672 -0.3138 -0.4803
  790MOL0     O 4206   8.347   0.604   8.500  0.3662  0.4670  0.1856
  790MOL0     C 4207   8.430   0.605   8.616 -0.1292 -0.6642 -1.2982
  790MOL0     C 4208   8.567   0.558   8.592 -0.0844 -0.0844  0.1853
  790MOL0     C 4209   8.651   0.553   8.726  0.6230  0.3385  0.1196
  790MOL0     C 4210   8.601   0.444   8.820  0.1450  1.1169  0.2479
  790MOL0     C 4211   8.691   0.444   8.940 -0.6604 -0.5696 -0.3269
  790MOL0     C 4212   8.751   0.451   9.044 -0.7437  0.1085  0.3652
  790MOL0     C 4213   8.133   0.657   8.619 -0.0174 -0.4909  0.1912
  790MOL0     C 4214   7.999   0.708   8.613  1.1218 -0.1818  0.7785
  790MOL0     H 4215   7.728   0.912   8.108  0.5515 -0.2601  0.0075
  790MOL0     H 4216   7.541   1.024   8.034  0.1710 -1.0541  0.6628
  790MOL0     H 4217   7.250   0.947   8.051  1.5999 -0.3784  1.8140
  790MOL0     H 4218   7.325   1.086   7.973 -0.3472  1.0355 -0.5022
  790MOL0     H 4219   7.100   1.135   7.938  1.5823  3.6997 -0.9631
  790MOL0     H 4220   7.157   1.236   8.073 -0.8776  0.1562  3.1018
  790MOL0     H 4221   7.035   1.063   8.222 -0.3823  0.3513 -0.5415
  790MOL0     H 4222   6.949   1.015   8.074 -1.0594 -1.0252  1.3280
  790MOL0     H 4223   6.976   1.297   8.174  1.7364 -0.3866 -3.0940
  790MOL0     H 4224   6.885   1.264   8.032  0.2832  0.1265 -0.6075
  790MOL0     H 4225   6.813   1.126   8.290 -0.8030 -2.7204 -1.5765
  790MOL0     H 4226   6.733   1.103   8.151  0.2078 -0.4049  1.3641
  790MOL0     H 4227   6.662   1.321   8.098 -1.0719 -2.6806  0.3680
  790MOL0     H 4228   6.760   1.390   8.232  1.2272 -2.0099  1.1116
  790MOL0     H 4229   6.609   1.238   8.386  0.9644 -0.1706 -0.1344
  790MOL0     H 4230   6.559   1.390   8.328  4.2498  0.3525  1.3073
  790MOL0     H 4231   6.472   1.103   8.211 -0.9511  0.0468 -2.9676
  790MOL0     H 4232   6.418   1.263   8.151 -0.1732 -0.0723  0.0490
  790MOL0     H 4233   6.437   1.119   8.512 -0.8945 -0.9244  1.1964
  790MOL0     H 4234   6.220   1.196   8.708  1.4506  0.8669 -0.2920
  790MOL0     H 4235   6.295   1.042   8.669 -0.8658 -0.0032  1.8503
  790MOL0     H 4236   6.081   0.989   8.773  4.4775  0.5179  1.2017
  790MOL0     H 4237   6.067   0.949   8.595 -1.5890  1.2244 -0.5443
  790MOL0     H 4238   5.992   1.213   8.621 -1.9503  0.7867 -2.1497
  790MOL0     H 4239   5.917   1.085   8.538  2.7285  0.1206 -0.7939
  790MOL0     H 4240   5.898   1.148   8.850 -0.9153  1.1093  1.8736
  790MOL0     H 4241   5.821   1.010   8.771  0.0546 -0.5013 -1.3039
  790MOL0     H 4242   5.550   1.147   8.552  3.9056  0.1388  1.6262
  790MOL0     H 4243   5.315   1.064   8.609  0.5001 -0.2378 -1.0832
  790MOL0     H 4244   4.951   1.061   9.099  1.6330 -0.0749  2.8611
  790MOL0     H 4245   4.777   0.903   9.147  0.1113  1.0552 -0.1524
  790MOL0     H 4246   4.716   0.661   8.954 -3.2575 -1.0797 -2.4225
  790MOL0     H 4247   4.628   0.718   9.107  0.9855  0.4499  0.5347
  790MOL0     H 4248   4.508   0.506   9.036 -0.0443  0.1794 -0.5853
  790MOL0     H 4249   4.601   0.471   9.185 -0.8277 -2.2183 -0.6672
  790MOL0     H 4250   4.738   0.440   8.920 -0.7247  1.8895  0.8718
  790MOL0     H 4251   4.607   0.322   8.952  0.2613 -1.2666  1.3988
  790MOL0     H 4252   4.871   0.385   9.080  0.5282  0.6621  2.2286
  790MOL0     H 4253   4.754   0.290   9.183 -0.9508 -1.1279 -1.0797
  790MOL0     H 4254   4.752   0.118   9.012 -1.8451  3.2755  0.2653
  790MOL0     H 4255   4.899   0.141   9.120 -1.7413 -0.3473  1.1853
  790MOL0     H 4256   4.882   0.211   8.830  1.4364 -1.1481 -1.4668
  790MOL0     H 4257   4.967   0.086   8.891 -4.5422 -0.1968 -5.7241
  790MOL0     H 4258   5.013   0.388   8.914 -0.3573 -0.0244  1.6495
  790MOL0     H 4259   5.103   0.290   9.031  2.4588  1.3776 -0.4020
  790MOL0     H 4260   5.231   0.343   8.813  1.4041 -0.7808  1.2963
  790MOL0     H 4261   5.120   0.228   8.734  1.9815 -2.2672 -0.1551
  790MOL0     H 4262   5.031   0.579   9.033 -1.0959  0.5804 -1.0904
  790MOL0     H 4263   5.220   0.738   8.979  0.7017  2.7413 -0.0247
  790MOL0     H 4264   5.429   1.056   9.024 -0.9887 -3.2882 -0.6630
  790MOL0     H 4265   5.660   1.160   8.964  0.4717 -1.3313 -0.6258
  790MOL0     H 4266   7.330   0.935   8.394 -0.4325  1.1912 -1.8215
  790MOL0     H 4267   7.534   0.797   8.470  0.7815 -0.7299 -0.3219
  790MOL0     H 4268   7.978   0.692   8.275 -0.0264  0.2746  0.4290
  790MOL0     H 4269   8.218   0.655   8.288  0.8334  2.9835  0.9511
  790MOL0     H 4270   8.390   0.553   8.703  3.4355  2.2408  2.5132
  790MOL0     H 4271   8.432   0.711   8.645 -0.4350 -0.9006 -0.3846
  790MOL0     H 4272   8.564   0.453   8.559 -1.6515 -1.3808  3.9002
  790MOL0     H 4273   8.617   0.606   8.508 -0.6438  0.9990  0.4540
  790MOL0     H 4274   8.646   0.647   8.781  0.9166 -0.0156  0.7655
  790MOL0     H 4275   8.758   0.536   8.711  0.8332 -0.0970  1.8796
  790MOL0     H 4276   8.503   0.455   8.868  0.0882  0.2931  0.3454
  790MOL0     H 4277   8.614   0.345   8.776 -0.3467  2.1537 -2.4316
  790MOL0     H 4278   8.788   0.439   9.144 -3.3292  1.3434  1.5669
  790MOL0     H 4279   8.176   0.631   8.715  1.5277 -0.7410 -0.5325
  790MOL0     H 4280   7.952   0.742   8.705 -0.2333  0.8590 -0.2733
  791MOL0     O 4281   6.526   9.351   3.722 -0.3357  0.9696  0.3778
  791MOL0     C 4282   6.533   9.473   3.725  0.1837  0.9790  0.6589
  791MOL0     O 4283   6.432   9.562   3.695  0.1322 -0.4818  0.2214
  791MOL0     C 4284   6.311   9.514   3.664  0.6449  0.1172  0.4656
  791MOL0     C 4285   6.238   9.437   3.762  0.3109 -0.8803  0.0365
  791MOL0     C 4286   6.113   9.388   3.736 -0.1095  0.0056  0.4015
  791MOL0     C 4287   6.052   9.421   3.611  0.8398 -0.2411  0.1305
  791MOL0     O 4288   5.925   9.386   3.579  0.0261 -0.2238 -0.0749
  791MOL0     C 4289   5.915   9.295   3.464  1.2516 -0.1704  0.3116
  791MOL0     C 4290   5.778   9.229   3.474  0.4457 -0.5113  0.6287
  791MOL0     C 4291   5.661   9.322   3.506 -0.5466  0.4666 -0.2223
  791MOL0     C 4292   5.524   9.253   3.501  0.1251  0.2336 -0.4786
  791MOL0     C 4293   5.405   9.339   3.486 -0.0245  0.7498  0.4143
  791MOL0     C 4294   5.268   9.268   3.513 -0.5898 -0.0011 -0.1988
  791MOL0     C 4295   5.154   9.359   3.458 -0.0970  0.1932  0.4318
  791MOL0     C 4296   5.026   9.346   3.542 -0.4088  0.8751  1.1505
  791MOL0     N 4297   4.905   9.412   3.482  0.6356 -0.1248  0.9527
  791MOL0     C 4298   4.893   9.544   3.447 -0.3399 -0.0646 -0.5711
  791MOL0     C 4299   4.774   9.545   3.371  0.5321  0.5167 -0.3769
  791MOL0     C 4300   4.703   9.669   3.325  0.3667  0.7975  0.0086
  791MOL0     C 4301   4.703   9.663   3.173  0.2788 -0.3123  0.0243
  791MOL0     C 4302   4.631   9.784   3.124 -0.2631 -0.5651  0.3380
  791MOL0     C 4303   4.621   9.780   2.969  0.2290  0.7153  0.9746
  791MOL0     O 4304   4.536   9.888   2.923  0.1764 -0.0131  0.1500
  791MOL0     C 4305   4.402   9.894   2.965 -0.2087 -0.2297  0.7837
  791MOL0     C 4306   4.321   9.787   2.934 -0.5807  0.1589  0.6571
  791MOL0     C 4307   4.186   9.775   2.982  0.5218  0.1868 -0.6893
  791MOL0     C 4308   4.144   9.874   3.077 -0.5796  0.7924  0.1046
  791MOL0     C 4309   4.016   9.848   3.150  0.4275 -0.0210 -0.2552
  791MOL0     O 4310   3.965   9.724   3.135  0.0293  0.1224 -0.2801
  791MOL0     C 4311   3.846   9.696   3.195 -0.1206  0.4413  0.4509
  791MOL0     C 4312   3.735   9.777   3.177  0.0916  0.6886 -0.1801
  791MOL0     C 4313   3.613   9.729   3.222  0.6592 -0.3656  0.0224
  791MOL0     C 4314   3.597   9.608   3.288  0.1519 -0.2027  0.0185
  791MOL0     O 4315   3.480   9.549   3.326  0.3250 -0.6143 -0.1847
  791MOL0     C 4316   3.353   9.619   3.292 -0.8007  0.1028  0.1257
  791MOL0     C 4317   3.252   9.525   3.341 -0.6529 -0.1063 -0.0444
  791MOL0     C 4318   3.113   9.588   3.328 -0.1413  0.0100 -0.1765
  791MOL0     C 4319   3.014   9.487   3.379  0.8448 -0.6440 -0.5528
  791MOL0     C 4320   2.870   9.542   3.359 -0.0262  0.1947  0.7190
  791MOL0     C 4321   2.754   9.463   3.429 -0.6962 -0.1578 -0.3048
  791MOL0     C 4322   2.620   9.539   3.406  0.5297  1.8560 -0.0822
  791MOL0     C 4323   2.503   9.454   3.461 -0.0275 -0.2084  0.9941
  791MOL0    Cl 4324   2.370   9.568   3.493 -0.2357  0.0237 -0.3523
  791MOL0     C 4325   3.712   9.530   3.298  0.2912  1.0380 -0.6648
  791MOL0     C 4326   3.836   9.572   3.252  1.3142  0.5635 -0.3541
  791MOL0     O 4327   3.965   9.940   3.220 -0.5010 -0.4500 -0.1617
  791MOL0     C 4328   4.224   9.990   3.100  0.5977 -0.0904  1.0725
  791MOL0     C 4329   4.353  10.000   3.043  0.4122 -0.3299 -0.4175
  791MOL0     N 4330   4.723   9.413   3.360  0.7260 -0.1604  1.0103
  791MOL0     N 4331   4.804   9.339   3.419  0.2154  0.1293 -0.5033
  791MOL0     C 4332   6.123   9.495   3.516 -0.4119  0.2070 -0.6050
  791MOL0     C 4333   6.252   9.539   3.539  0.0604 -0.2570 -0.7328
  791MOL0     C 4334   6.674   9.521   3.749  0.3186 -0.0038  0.6859
  791MOL0     C 4335   6.770   9.435   3.793 -0.4269  0.9496 -0.1705
  791MOL0     C 4336   6.905   9.465   3.812 -0.8085 -0.3341  0.3221
  791MOL0     C 4337   6.945   9.602   3.796 -0.4410  0.2449  0.1571
  791MOL0     O 4338   7.072   9.638   3.833 -0.3102  0.6122  0.2818
  791MOL0     C 4339   7.111   9.774   3.845 -0.7566  0.4084  0.7964
  791MOL0     C 4340   7.268   9.767   3.862  0.4879  0.0903  0.0732
  791MOL0     C 4341   7.335   9.715   3.737 -0.0181 -0.3276 -0.0236
  791MOL0     C 4342   7.477   9.670   3.761  0.7839 -0.6107 -1.1502
  791MOL0     C 4343   7.528   9.608   3.646  0.6253 -0.6491  0.2255
  791MOL0     C 4344   7.582   9.578   3.544  0.2023 -0.2097 -0.8793
  791MOL0     C 4345   6.849   9.694   3.755 -0.7790 -0.1006  0.2430
  791MOL0     C 4346   6.720   9.649   3.719 -0.1459 -0.3747  0.0885
  791MOL0     H 4347   6.290   9.400   3.850 -0.9530 -3.9302 -0.3607
  791MOL0     H 4348   6.061   9.337   3.815 -0.6135 -0.7349 -0.3967
  791MOL0     H 4349   5.990   9.216   3.467  1.5179  0.1050  1.4241
  791MOL0     H 4350   5.914   9.351   3.370 -0.0771  1.1677  1.0879
  791MOL0     H 4351   5.785   9.147   3.547  0.9143 -0.4251  0.6792
  791MOL0     H 4352   5.749   9.182   3.380  1.0190 -1.2409  0.8077
  791MOL0     H 4353   5.663   9.415   3.448  0.3190  0.5171 -0.1214
  791MOL0     H 4354   5.686   9.358   3.606  0.1390  0.0250 -0.2308
  791MOL0     H 4355   5.518   9.179   3.421 -1.7336 -0.9093  0.6459
  791MOL0     H 4356   5.508   9.190   3.588  1.6337  0.1111 -0.2646
  791MOL0     H 4357   5.401   9.368   3.380 -0.4116  2.0172  0.7587
  791MOL0     H 4358   5.411   9.437   3.533 -0.1863  1.5959 -1.2448
  791MOL0     H 4359   5.248   9.248   3.619 -0.1109  1.7515  0.2564
  791MOL0     H 4360   5.266   9.174   3.457 -0.9565 -1.0988  1.5614
  791MOL0     H 4361   5.179   9.466   3.457  2.6969 -0.3807  0.6518
  791MOL0     H 4362   5.138   9.324   3.356  1.9547 -0.1148  0.1768
  791MOL0     H 4363   5.042   9.389   3.641 -1.8701  2.4324  0.7685
  791MOL0     H 4364   5.014   9.238   3.550 -0.8865  1.0249  2.9943
  791MOL0     H 4365   4.961   9.621   3.480 -1.1423  0.0223  0.9857
  791MOL0     H 4366   4.741   9.767   3.355  3.0063 -0.2283  0.2802
  791MOL0     H 4367   4.602   9.669   3.366  0.9937  2.8086  1.7079
  791MOL0     H 4368   4.648   9.571   3.153 -1.7376  0.5722  1.1801
  791MOL0     H 4369   4.806   9.659   3.137  0.7223 -0.8329  1.3266
  791MOL0     H 4370   4.531   9.794   3.166 -0.7483 -1.0342 -0.6642
  791MOL0     H 4371   4.678   9.878   3.152 -0.8058  0.3057 -1.5469
  791MOL0     H 4372   4.583   9.682   2.939  1.2572  0.2784  1.0416
  791MOL0     H 4373   4.722   9.786   2.928 -0.7348  0.1144 -1.6676
  791MOL0     H 4374   4.353   9.705   2.871 -2.5495  1.3055 -2.0742
  791MOL0     H 4375   4.128   9.684   2.974 -2.0299  1.4920  1.2970
  791MOL0     H 4376   3.749   9.875   3.132  3.0439 -0.0745 -1.1328
  791MOL0     H 4377   3.531   9.794   3.193  2.7294  0.8600 -3.8951
  791MOL0     H 4378   3.339   9.624   3.184 -1.7077 -1.0794  0.1598
  791MOL0     H 4379   3.345   9.720   3.331  0.6102  1.1527 -2.1102
  791MOL0     H 4380   3.275   9.513   3.448  0.5760  2.5509  0.0527
  791MOL0     H 4381   3.260   9.425   3.298 -0.6224  0.8980 -2.5012
  791MOL0     H 4382   3.095   9.611   3.222 -0.0968 -1.1572 -0.4559
  791MOL0     H 4383   3.115   9.683   3.382  0.2627 -0.5801  0.8767
  791MOL0     H 4384   3.016   9.389   3.332  0.2862 -0.0740 -1.8014
  791MOL0     H 4385   3.029   9.466   3.486 -1.4770  0.4993  0.0639
  791MOL0     H 4386   2.846   9.537   3.252  2.7545 -0.6291  0.0567
  791MOL0     H 4387   2.870   9.646   3.391  0.8296  0.4169  0.0383
  791MOL0     H 4388   2.789   9.457   3.532 -0.3152  1.0732 -0.3511
  791MOL0     H 4389   2.752   9.364   3.381 -2.5644  0.9126 -2.6471
  791MOL0     H 4390   2.611   9.636   3.455 -0.4988 -0.1433  4.1909
  791MOL0     H 4391   2.607   9.551   3.298  0.6969 -2.3586 -0.7387
  791MOL0     H 4392   2.533   9.386   3.542 -0.2544 -1.7327 -0.1600
  791MOL0     H 4393   2.470   9.393   3.376  1.9899  0.6974 -0.5313
  791MOL0     H 4394   3.699   9.430   3.340 -2.0251  0.6328 -2.1894
  791MOL0     H 4395   3.924   9.508   3.245  0.8479 -0.4815  2.1282
  791MOL0     H 4396   4.188  10.071   3.163  2.4979 -0.0246  2.1739
  791MOL0     H 4397   4.421  10.084   3.046  0.7908 -0.6423 -0.1399
  791MOL0     H 4398   6.067   9.529   3.429 -0.4311 -0.5952 -0.9107
  791MOL0     H 4399   6.308   9.582   3.457 -0.4395 -0.9010 -1.4331
  791MOL0     H 4400   6.755   9.332   3.822  3.1414  0.9236  2.2672
  791MOL0     H 4401   6.968   9.390   3.859 -0.9624 -0.2183  0.7111
  791MOL0     H 4402   7.061   9.831   3.924 -1.2625  2.2002 -0.7463
  791MOL0     H 4403   7.111   9.828   3.750  0.4016 -0.4017  0.3056
  791MOL0     H 4404   7.303   9.869   3.877 -0.6989  0.4910  0.2954
  791MOL0     H 4405   7.289   9.705   3.950  2.6982 -0.0795 -0.5321
  791MOL0     H 4406   7.336   9.787   3.655 -0.2545 -3.0192 -2.5216
  791MOL0     H 4407   7.274   9.632   3.700  0.6840 -0.1924 -1.5647
  791MOL0     H 4408   7.537   9.756   3.793 -0.5594  0.0682 -0.3755
  791MOL0     H 4409   7.484   9.596   3.842  1.2038  0.8005  0.1700
  791MOL0     H 4410   7.632   9.560   3.451 -0.7273 -1.1767 -1.2106
  791MOL0     H 4411   6.873   9.798   3.733 -1.1894 -0.5573 -2.6866
  791MOL0     H 4412   6.652   9.726   3.684  0.0428  1.8471  4.0499
  792MOL0     O 4413   2.011   7.918   3.372 -1.0653 -0.3440 -0.1049
  792MOL0     C 4414   2.063   7.872   3.472 -0.6643  0.5872 -1.3260
  792MOL0     O 4415   2.024   7.761   3.539  0.0443 -0.1194  0.1969
  792MOL0     C 4416   1.918   7.686   3.496  0.3950  0.9525 -0.0468
  792MOL0     C 4417   1.934   7.554   3.522  0.5343 -0.1563 -0.7721
  792MOL0     C 4418   1.838   7.465   3.487  0.3323 -0.2216  0.4714
  792MOL0     C 4419   1.725   7.505   3.414 -1.0970 -0.5688  0.9929
  792MOL0     O 4420   1.647   7.405   3.379 -0.1097  0.1855 -0.0396
  792MOL0     C 4421   1.512   7.427   3.331  0.1179 -0.4930  0.4048
  792MOL0     C 4422   1.415   7.476   3.435 -0.3523  0.4902  0.0093
  792MOL0     C 4423   1.274   7.431   3.408 -0.7146 -0.0881 -0.0768
  792MOL0     C 4424   1.208   7.504   3.293  0.1635  0.1884  0.0075
  792MOL0     C 4425   1.057   7.498   3.286 -0.1981  0.1373  0.5188
  792MOL0     C 4426   1.006   7.366   3.222  0.9406  0.5133  0.1617
  792MOL0     C 4427   0.858   7.334   3.263 -0.1170 -0.5961 -0.1076
  792MOL0     C 4428   0.831   7.179   3.234  0.0045 -0.5383  0.0369
  792MOL0     N 4429   0.931   7.092   3.290  0.5933  0.5933 -0.0399
  792MOL0     C 4430   1.016   6.989   3.241  0.1811  0.8980  0.0950
  792MOL0     C 4431   1.099   6.948   3.338  0.1414 -0.0060  0.1666
  792MOL0     C 4432   1.203   6.849   3.345  0.5633 -0.0586  0.2471
  792MOL0     C 4433   1.152   6.715   3.397 -0.2397  0.2420 -0.2468
  792MOL0     C 4434   1.271   6.634   3.456  0.1719  0.2723  0.7899
  792MOL0     C 4435   1.214   6.493   3.503  0.1440 -0.2046 -0.2578
  792MOL0     O 4436   1.139   6.427   3.400  0.1754  0.9770 -0.2965
  792MOL0     C 4437   1.000   6.428   3.397 -0.3159  0.8644  0.1203
  792MOL0     C 4438   0.913   6.475   3.496 -0.0140 -0.2194 -0.2095
  792MOL0     C 4439   0.774   6.450   3.495  1.2668  0.4861  0.5635
  792MOL0     C 4440   0.709   6.399   3.382 -0.6515 -0.1130  0.2558
  792MOL0     C 4441   0.566   6.364   3.368  0.1439 -0.2189  0.2540
  792MOL0     O 4442   0.484   6.399   3.467  0.0264 -0.2560 -0.6485
  792MOL0     C 4443   0.349   6.369   3.462 -0.1905 -0.3526 -0.9767
  792MOL0     C 4444   0.263   6.461   3.398  0.6699  0.2081 -0.0564
  792MOL0     C 4445   0.128   6.437   3.413 -0.4743 -0.3182  0.2733
  792MOL0     C 4446   0.087   6.324   3.477  1.2479 -0.1792 -0.3204
  792MOL0     O 4447  -0.051   6.311   3.487 -0.2652  0.2552 -0.3661
  792MOL0     C 4448  -0.096   6.252   3.617 -0.7051  0.0919  0.3222
  792MOL0     C 4449  -0.247   6.262   3.620  0.4762 -0.1208 -0.2431
  792MOL0     C 4450  -0.314   6.189   3.736  0.4310 -0.2791  0.3150
  792MOL0     C 4451  -0.471   6.203   3.744 -0.8185 -0.5689  0.8361
  792MOL0     C 4452  -0.514   6.164   3.879 -0.4586  0.1624 -0.8377
  792MOL0     C 4453  -0.668   6.183   3.911 -0.2812 -0.0513 -0.5787
  792MOL0     C 4454  -0.764   6.100   3.828  1.0914  0.3163 -0.2105
  792MOL0     C 4455  -0.908   6.132   3.862  0.1562 -0.9965 -0.1705
  792MOL0    Cl 4456  -0.965   6.275   3.783 -0.1298  0.1442  0.0226
  792MOL0     C 4457   0.177   6.230   3.533 -0.5105  0.0786 -0.6174
  792MOL0     C 4458   0.307   6.260   3.536  0.8934 -0.2945  1.0404
  792MOL0     O 4459   0.529   6.304   3.265  0.5569 -0.1175  0.1145
  792MOL0     C 4460   0.795   6.377   3.271  0.1325 -0.3045  0.7907
  792MOL0     C 4461   0.934   6.392   3.279 -0.7148 -0.1611  0.0444
  792MOL0     N 4462   1.051   7.024   3.446 -0.0880  0.0324 -0.7917
  792MOL0     N 4463   0.951   7.099   3.424  0.0038 -0.8439  0.5046
  792MOL0     C 4464   1.694   7.643   3.407  0.2242  0.2540  0.0668
  792MOL0     C 4465   1.793   7.735   3.451 -0.1353 -0.2658  0.0904
  792MOL0     C 4466   2.187   7.932   3.517 -0.2165 -0.0229  0.3095
  792MOL0     C 4467   2.202   8.065   3.538 -0.4387 -0.4530 -0.4568
  792MOL0     C 4468   2.319   8.117   3.578 -1.0874  0.2213 -0.5801
  792MOL0     C 4469   2.441   8.044   3.595  0.8840  0.1047  0.1913
  792MOL0     O 4470   2.551   8.113   3.635 -0.4428 -0.4510 -0.1162
  792MOL0     C 4471   2.679   8.046   3.656  0.1193 -0.2078  0.4535
  792MOL0     C 4472   2.781   8.154   3.685  0.6777 -0.4743  0.4265
  792MOL0     C 4473   2.913   8.099   3.744 -0.3674  0.2010 -0.3258
  792MOL0     C 4474   3.014   8.016   3.659  0.7846 -0.1346 -0.8110
  792MOL0     C 4475   2.968   7.893   3.592  0.2672  0.1289  0.0787
  792MOL0     C 4476   2.927   7.804   3.527  0.1275  0.7154 -0.8042
  792MOL0     C 4477   2.427   7.906   3.580 -0.0621 -0.8732  0.8167
  792MOL0     C 4478   2.304   7.852   3.539  0.5562  0.8378 -0.1294
  792MOL0     H 4479   2.024   7.511   3.564  1.0651  1.5703 -0.0291
  792MOL0     H 4480   1.836   7.360   3.516 -1.4879  0.1347  1.7926
  792MOL0     H 4481   1.475   7.334   3.287  2.8987 -2.0758  1.1803
  792MOL0     H 4482   1.520   7.497   3.247  1.9247  0.0552  0.9844
  792MOL0     H 4483   1.414   7.584   3.450 -4.9884  0.6992 -0.5246
  792MOL0     H 4484   1.434   7.436   3.535 -3.5423 -2.3979 -0.3812
  792MOL0     H 4485   1.212   7.454   3.496 -1.2503  2.2910 -0.9823
  792MOL0     H 4486   1.286   7.323   3.398 -1.0659 -0.0839 -0.6077
  792MOL0     H 4487   1.237   7.608   3.309  1.3343 -0.1908  0.4312
  792MOL0     H 4488   1.251   7.481   3.195 -0.7604  3.5136 -1.3205
  792MOL0     H 4489   1.013   7.580   3.229 -0.2234 -1.0832 -1.2901
  792MOL0     H 4490   1.025   7.485   3.390  1.2254 -3.1559  0.6868
  792MOL0     H 4491   1.082   7.290   3.239  3.1556  2.4050 -0.6955
  792MOL0     H 4492   1.000   7.380   3.113  0.2491  0.3669  0.1738
  792MOL0     H 4493   0.845   7.346   3.371 -1.3744 -2.3746 -0.0318
  792MOL0     H 4494   0.788   7.400   3.210 -0.7204  0.0431  1.4334
  792MOL0     H 4495   0.826   7.170   3.125 -0.1837  0.2465 -0.0275
  792MOL0     H 4496   0.734   7.151   3.275  1.1585 -3.4959  1.0517
  792MOL0     H 4497   1.001   6.956   3.139 -0.5273  5.7357 -1.6303
  792MOL0     H 4498   1.277   6.884   3.419  0.3576  0.6248  0.1425
  792MOL0     H 4499   1.240   6.843   3.243  2.3910  0.8739  0.8052
  792MOL0     H 4500   1.114   6.659   3.312  2.3230 -2.4265  0.1693
  792MOL0     H 4501   1.071   6.719   3.470 -1.2323  1.2643 -1.3788
  792MOL0     H 4502   1.346   6.628   3.378  1.4339  0.6013  1.9396
  792MOL0     H 4503   1.314   6.694   3.537 -1.1118  1.5226  0.5976
  792MOL0     H 4504   1.160   6.514   3.596  2.0207  0.0751  0.8225
  792MOL0     H 4505   1.291   6.423   3.535 -1.6680 -1.9117  0.6099
  792MOL0     H 4506   0.954   6.523   3.584  0.6470 -2.7220  0.9239
  792MOL0     H 4507   0.712   6.475   3.580  0.3585 -1.1263  0.4179
  792MOL0     H 4508   0.293   6.561   3.367 -0.4206  0.1673 -1.3185
  792MOL0     H 4509   0.050   6.505   3.379 -0.9186  0.6514  2.9453
  792MOL0     H 4510  -0.063   6.315   3.700 -3.1317  1.4775  0.3517
  792MOL0     H 4511  -0.062   6.151   3.641  2.1288  0.9206  0.0447
  792MOL0     H 4512  -0.288   6.234   3.523 -2.1770 -1.6404  1.2126
  792MOL0     H 4513  -0.269   6.367   3.642  2.2608  0.0802  0.7528
  792MOL0     H 4514  -0.276   6.232   3.829 -1.1884  0.3709  0.7131
  792MOL0     H 4515  -0.294   6.081   3.737  1.2511 -0.1292  0.7572
  792MOL0     H 4516  -0.504   6.307   3.739  0.3662 -0.0218  3.0734
  792MOL0     H 4517  -0.524   6.160   3.659 -0.4657  0.3580  0.1207
  792MOL0     H 4518  -0.462   6.223   3.956 -1.8657  0.5176 -0.1229
  792MOL0     H 4519  -0.489   6.058   3.875  1.3088  0.5497 -1.0128
  792MOL0     H 4520  -0.694   6.289   3.902  0.9118  0.1629 -1.6490
  792MOL0     H 4521  -0.684   6.162   4.018 -1.4328  2.2870 -0.2240
  792MOL0     H 4522  -0.744   6.127   3.724 -0.2634 -1.8241 -1.0809
  792MOL0     H 4523  -0.749   5.994   3.848 -1.1591 -0.0672 -0.2861
  792MOL0     H 4524  -0.911   6.135   3.972 -1.4473 -0.1227 -0.2077
  792MOL0     H 4525  -0.974   6.053   3.827  0.7130 -0.6989 -2.0069
  792MOL0     H 4526   0.156   6.134   3.579 -0.0900  0.0280 -0.5247
  792MOL0     H 4527   0.377   6.194   3.586  2.1583  0.3166  0.1263
  792MOL0     H 4528   0.753   6.327   3.185  2.3606 -0.3612 -0.3347
  792MOL0     H 4529   0.993   6.355   3.196  2.8985  0.7805  2.0165
  792MOL0     H 4530   1.602   7.692   3.377 -0.1724  0.1438  1.0412
  792MOL0     H 4531   1.784   7.842   3.459  0.9954 -0.1332 -0.1793
  792MOL0     H 4532   2.113   8.127   3.528 -0.0259 -0.1200 -2.5711
  792MOL0     H 4533   2.329   8.225   3.580 -0.4379  0.1631 -0.7015
  792MOL0     H 4534   2.704   8.003   3.558  0.1139  1.4677 -0.3306
  792MOL0     H 4535   2.670   7.970   3.734 -1.2628  0.8597  1.3818
  792MOL0     H 4536   2.793   8.213   3.594  0.8858 -0.8677  0.1979
  792MOL0     H 4537   2.726   8.209   3.762  1.9911 -0.7193  1.5611
  792MOL0     H 4538   2.883   8.042   3.833  1.2277  0.2135  0.2587
  792MOL0     H 4539   2.961   8.187   3.787 -0.5611  0.5247 -0.7703
  792MOL0     H 4540   3.046   8.075   3.573  0.8436 -1.1805 -1.5248
  792MOL0     H 4541   3.098   7.990   3.724  0.5055  2.1602  0.5706
  792MOL0     H 4542   2.886   7.726   3.467  1.5880 -0.1683 -0.6960
  792MOL0     H 4543   2.512   7.839   3.591  0.1898 -1.2209 -2.2989
  792MOL0     H 4544   2.297   7.744   3.523  2.2361  0.8615 -1.2666
  793MOL0     O 4545  11.011   2.448   7.012  0.1434 -0.2592  0.5058
  793MOL0     C 4546  11.082   2.348   7.014 -0.7739 -0.0284  0.3077
  793MOL0     O 4547  11.101   2.265   7.122 -0.2310 -0.1119 -0.2623
  793MOL0     C 4548  11.032   2.288   7.231 -0.3667  0.4468 -0.0155
  793MOL0     C 4549  10.894   2.309   7.219  0.8351 -0.1973  0.5907
  793MOL0     C 4550  10.816   2.313   7.332 -0.3188 -0.1505 -0.2331
  793MOL0     C 4551  10.870   2.316   7.461 -0.2185  0.5697 -0.9634
  793MOL0     O 4552  10.803   2.338   7.579 -0.1797 -0.2785 -0.1695
  793MOL0     C 4553  10.667   2.373   7.560 -0.5908  0.1285  0.3562
  793MOL0     C 4554  10.588   2.402   7.688 -0.1139 -0.3004  0.5166
  793MOL0     C 4555  10.671   2.481   7.796  0.1118 -0.2578  0.0292
  793MOL0     C 4556  10.597   2.532   7.924  0.3545  0.5857 -0.1369
  793MOL0     C 4557  10.475   2.618   7.896 -0.4160 -0.4147 -0.4063
  793MOL0     C 4558  10.435   2.693   8.019 -0.1011  0.3711  0.2490
  793MOL0     C 4559  10.421   2.617   8.151  0.5534 -0.5756  0.2721
  793MOL0     C 4560  10.376   2.705   8.263 -0.3749 -0.5029 -0.2190
  793MOL0     N 4561  10.333   2.618   8.372  0.3397  0.5526  0.2974
  793MOL0     C 4562  10.202   2.581   8.390  0.2721 -0.0320  0.2900
  793MOL0     C 4563  10.209   2.496   8.489 -0.5961  0.1181 -0.1192
  793MOL0     C 4564  10.084   2.421   8.545 -0.4377 -0.1782  0.2405
  793MOL0     C 4565  10.031   2.495   8.659  0.9496  0.7447  1.0675
  793MOL0     C 4566   9.952   2.401   8.744 -0.4032  0.1108  0.5960
  793MOL0     C 4567   9.872   2.477   8.849  0.2863  0.8965 -0.5681
  793MOL0     O 4568   9.766   2.398   8.901  0.3120  0.1100  0.4109
  793MOL0     C 4569   9.655   2.375   8.826  0.0026 -0.2884 -0.1073
  793MOL0     C 4570   9.625   2.433   8.701  0.6117 -0.0434 -0.1157
  793MOL0     C 4571   9.496   2.406   8.643  0.6486 -0.4984 -0.0356
  793MOL0     C 4572   9.405   2.330   8.715  0.4159  0.0676  0.5363
  793MOL0     C 4573   9.268   2.304   8.667  0.4312  0.4093  0.2981
  793MOL0     O 4574   9.184   2.220   8.735 -0.6994 -0.0195  0.6027
  793MOL0     C 4575   9.059   2.197   8.684 -0.0542  0.6621  0.7034
  793MOL0     C 4576   8.961   2.302   8.676  0.1062 -0.0503 -0.3734
  793MOL0     C 4577   8.836   2.270   8.642  0.1262  0.1112  0.4212
  793MOL0     C 4578   8.798   2.136   8.610  0.4859 -0.3871 -0.2799
  793MOL0     O 4579   8.665   2.112   8.588 -0.7000 -0.0621 -0.6080
  793MOL0     C 4580   8.624   2.013   8.493 -0.2973  0.5009 -0.0646
  793MOL0     C 4581   8.476   1.996   8.522  0.0659 -0.1486  0.5110
  793MOL0     C 4582   8.402   1.910   8.418 -0.0797 -0.1997  0.7534
  793MOL0     C 4583   8.262   1.875   8.472 -0.3090  1.0144  0.5676
  793MOL0     C 4584   8.171   1.795   8.380  0.1862 -0.0669 -0.0816
  793MOL0     C 4585   8.034   1.781   8.423  0.3531 -0.1257 -0.9536
  793MOL0     C 4586   7.931   1.721   8.323 -0.6812 -1.3413  0.6814
  793MOL0     C 4587   7.784   1.726   8.382  0.8526 -0.7926  0.4332
  793MOL0    Cl 4588   7.727   1.897   8.410 -0.1614 -0.0872 -0.4200
  793MOL0     C 4589   8.892   2.037   8.612 -0.3639 -0.6755  0.5382
  793MOL0     C 4590   9.024   2.067   8.646  0.3879  0.6450 -0.5162
  793MOL0     O 4591   9.237   2.377   8.569  0.6873  0.1980  0.9236
  793MOL0     C 4592   9.435   2.262   8.828 -0.1773 -0.8855 -0.2358
  793MOL0     C 4593   9.556   2.293   8.882 -0.6559  0.9605 -0.6524
  793MOL0     N 4594  10.334   2.496   8.551  0.0195  0.3027  0.1429
  793MOL0     N 4595  10.406   2.570   8.477  0.3310  0.5688  0.0761
  793MOL0     C 4596  11.008   2.287   7.472  0.0432 -0.1647 -0.0198
  793MOL0     C 4597  11.093   2.285   7.358  0.4804  0.1417 -0.9917
  793MOL0     C 4598  11.174   2.324   6.901  0.3943  0.6475 -0.5519
  793MOL0     C 4599  11.178   2.407   6.789 -1.2437 -0.6171 -0.6584
  793MOL0     C 4600  11.281   2.382   6.691  0.2065 -0.2678 -0.0133
  793MOL0     C 4601  11.376   2.279   6.708 -0.3561  0.6973 -0.4100
  793MOL0     O 4602  11.458   2.274   6.599 -0.1204  0.0639 -0.7002
  793MOL0     C 4603  11.569   2.193   6.612  0.6514 -0.4113  0.0215
  793MOL0     C 4604  11.647   2.174   6.485 -0.4102  0.1466 -0.2068
  793MOL0     C 4605  11.569   2.139   6.359 -0.5131 -0.2229  0.3747
  793MOL0     C 4606  11.447   2.042   6.377  0.1436  0.5583  0.5938
  793MOL0     C 4607  11.396   1.996   6.246  0.7696  1.2203 -0.3441
  793MOL0     C 4608  11.354   1.958   6.133  0.0024 -0.1593  0.5791
  793MOL0     C 4609  11.370   2.198   6.819  1.0267  0.8064  0.3878
  793MOL0     C 4610  11.266   2.214   6.911  0.3084  0.3850 -0.4667
  793MOL0     H 4611  10.848   2.304   7.121  0.3129 -1.3702  0.8729
  793MOL0     H 4612  10.712   2.331   7.308 -0.0359  0.6129 -0.9381
  793MOL0     H 4613  10.607   2.292   7.518 -0.3251 -1.8282  3.4599
  793MOL0     H 4614  10.662   2.468   7.506 -1.0289  1.1937  2.1868
  793MOL0     H 4615  10.543   2.313   7.734 -2.1867  0.6757  0.4879
  793MOL0     H 4616  10.508   2.471   7.661  0.6549  0.2563 -0.3875
  793MOL0     H 4617  10.730   2.560   7.749 -0.3048 -0.7998 -1.4788
  793MOL0     H 4618  10.749   2.409   7.822  1.8184  0.2494 -3.1674
  793MOL0     H 4619  10.575   2.452   7.996 -1.7439 -0.1285 -1.4557
  793MOL0     H 4620  10.665   2.590   7.987 -1.3163 -1.6269  4.1939
  793MOL0     H 4621  10.388   2.563   7.857 -0.1244 -0.3808 -1.1275
  793MOL0     H 4622  10.501   2.696   7.824  3.9911 -1.8084 -0.5930
  793MOL0     H 4623  10.344   2.748   7.995 -1.3792 -2.4564 -2.0731
  793MOL0     H 4624  10.521   2.757   8.042 -0.0225  1.4579 -2.6487
  793MOL0     H 4625  10.358   2.531   8.125 -1.8230  0.9079  0.8756
  793MOL0     H 4626  10.522   2.584   8.177  1.8680  0.8821 -2.5861
  793MOL0     H 4627  10.306   2.781   8.228  1.0108  0.2734 -1.4303
  793MOL0     H 4628  10.453   2.764   8.313 -2.6235  0.2971  2.5407
  793MOL0     H 4629  10.114   2.608   8.332 -1.1939  2.1984  3.2675
  793MOL0     H 4630  10.123   2.325   8.581  1.6414  0.1079 -1.0962
  793MOL0     H 4631  10.013   2.402   8.464 -1.3128  0.1282  0.9120
  793MOL0     H 4632   9.953   2.567   8.633 -0.9660 -1.1226  1.3536
  793MOL0     H 4633  10.110   2.537   8.721  3.4846 -2.3785  0.2492
  793MOL0     H 4634   9.892   2.345   8.671  1.3640  2.4961 -2.9932
  793MOL0     H 4635  10.022   2.334   8.795 -1.8749 -1.6514  0.4300
  793MOL0     H 4636   9.824   2.570   8.817 -1.6179  0.8213  1.7746
  793MOL0     H 4637   9.935   2.503   8.934  1.6214  0.7376 -1.4776
  793MOL0     H 4638   9.701   2.483   8.642 -0.6975  1.5102 -0.5611
  793MOL0     H 4639   9.476   2.438   8.541  0.0303 -0.0884  0.2059
  793MOL0     H 4640   8.982   2.407   8.692  2.1768 -0.0817 -2.3213
  793MOL0     H 4641   8.760   2.348   8.648  1.3081  1.4369 -0.9508
  793MOL0     H 4642   8.677   1.918   8.499  0.4766  1.0047  2.4791
  793MOL0     H 4643   8.638   2.050   8.391  1.2113 -3.3486 -1.4153
  793MOL0     H 4644   8.435   2.097   8.531  2.0027  0.6779  0.3652
  793MOL0     H 4645   8.466   1.950   8.621 -0.4717 -0.6929  0.2106
  793MOL0     H 4646   8.456   1.819   8.391 -1.9401 -0.2436 -3.8189
  793MOL0     H 4647   8.397   1.968   8.326 -0.1286 -2.2139 -0.5827
  793MOL0     H 4648   8.268   1.826   8.569 -4.7312  0.9508  1.0522
  793MOL0     H 4649   8.204   1.964   8.502 -2.5174 -0.7650  1.9168
  793MOL0     H 4650   8.218   1.699   8.360  1.4344  0.5145 -0.0011
  793MOL0     H 4651   8.172   1.839   8.280  0.5331 -0.5249 -0.2797
  793MOL0     H 4652   8.001   1.876   8.464  1.3911  0.1285 -0.6592
  793MOL0     H 4653   8.039   1.713   8.509  1.3388  2.4122  1.1213
  793MOL0     H 4654   7.932   1.782   8.232 -1.1810  0.2372  1.6851
  793MOL0     H 4655   7.947   1.617   8.296 -1.7506 -2.6246  4.3176
  793MOL0     H 4656   7.775   1.668   8.474 -0.9575 -1.1744  0.0656
  793MOL0     H 4657   7.724   1.680   8.303 -0.5910 -3.0664  2.6857
  793MOL0     H 4658   8.861   1.939   8.578 -3.8547  0.4393  0.1452
  793MOL0     H 4659   9.101   1.994   8.664  1.7552  1.9601 -0.8353
  793MOL0     H 4660   9.368   2.189   8.872 -1.7628 -1.0588 -2.7587
  793MOL0     H 4661   9.583   2.253   8.980  1.0147 -1.8990 -2.1611
  793MOL0     H 4662  11.036   2.285   7.576 -0.6531  1.0226  0.2141
  793MOL0     H 4663  11.198   2.259   7.358 -0.1451 -2.7902  0.7366
  793MOL0     H 4664  11.101   2.481   6.769  0.8140  1.6195 -0.7484
  793MOL0     H 4665  11.279   2.451   6.608 -1.9256 -1.1453 -0.7638
  793MOL0     H 4666  11.541   2.100   6.662 -0.0092 -1.0481 -1.4980
  793MOL0     H 4667  11.634   2.242   6.686  0.4480  0.0990 -0.1335
  793MOL0     H 4668  11.714   2.258   6.464 -1.7701  0.9398 -1.6211
  793MOL0     H 4669  11.717   2.093   6.504 -2.8428 -1.8941  0.5593
  793MOL0     H 4670  11.635   2.101   6.281 -1.0605  1.4260 -0.9607
  793MOL0     H 4671  11.536   2.234   6.314 -1.2380 -0.9800 -0.7387
  793MOL0     H 4672  11.488   1.959   6.435  0.1247  0.7761  0.9232
  793MOL0     H 4673  11.367   2.093   6.431  1.1945  2.9192  0.0681
  793MOL0     H 4674  11.325   1.924   6.036  0.5175 -0.3245  0.4850
  793MOL0     H 4675  11.442   2.125   6.856 -1.4567 -3.1078 -1.7434
  793MOL0     H 4676  11.262   2.150   6.999 -2.3249  0.7840 -0.2290
  794MOL0     O 4677   1.761   8.197   3.817 -0.1179  0.9486  0.0244
  794MOL0     C 4678   1.742   8.318   3.829  0.4852  0.7046 -0.3281
  794MOL0     O 4679   1.644   8.378   3.910 -0.1653 -0.0646 -0.3143
  794MOL0     C 4680   1.550   8.307   3.983 -0.3591  0.6878  0.9658
  794MOL0     C 4681   1.577   8.212   4.076 -0.2920 -0.6872 -0.3503
  794MOL0     C 4682   1.479   8.140   4.142 -0.6669 -0.8458 -0.0271
  794MOL0     C 4683   1.347   8.185   4.141  0.1236 -0.4691  0.5875
  794MOL0     O 4684   1.254   8.109   4.209  0.3123  0.3756  0.0763
  794MOL0     C 4685   1.155   8.185   4.278 -1.4518 -0.0498  0.1575
  794MOL0     C 4686   1.049   8.096   4.343 -0.2510  0.3808 -0.0541
  794MOL0     C 4687   0.952   8.053   4.238 -0.2812  0.3292 -0.5620
  794MOL0     C 4688   0.832   7.974   4.298  0.1217 -0.4236  0.9627
  794MOL0     C 4689   0.718   7.966   4.199  0.4314 -0.1312 -0.2733
  794MOL0     C 4690   0.610   7.876   4.251  0.5456 -0.0941  0.0023
  794MOL0     C 4691   0.487   7.866   4.156 -0.0469  0.0471  0.0167
  794MOL0     C 4692   0.374   7.786   4.221  0.2588 -0.2825 -0.6374
  794MOL0     N 4693   0.325   7.845   4.350 -0.4378  0.4017  0.1494
  794MOL0     C 4694   0.298   7.976   4.369 -0.4329  0.2523 -0.4138
  794MOL0     C 4695   0.276   7.985   4.503 -0.7602  0.7338 -0.1980
  794MOL0     C 4696   0.235   8.105   4.587 -0.5966  0.0819  0.0760
  794MOL0     C 4697   0.079   8.117   4.579 -0.0887  0.4124 -0.5764
  794MOL0     C 4698   0.036   8.226   4.668  0.0816 -0.4832 -0.2426
  794MOL0     C 4699  -0.117   8.260   4.663 -0.9580  0.3618  0.2550
  794MOL0     O 4700  -0.133   8.335   4.541 -0.2395  0.1469  0.1515
  794MOL0     C 4701  -0.262   8.337   4.502 -0.6378  0.2319  0.7351
  794MOL0     C 4702  -0.378   8.285   4.566  0.8253 -0.2545 -0.4472
  794MOL0     C 4703  -0.507   8.303   4.522  0.1005  0.0701  0.6147
  794MOL0     C 4704  -0.531   8.366   4.398 -0.4319  0.1278  0.6334
  794MOL0     C 4705  -0.662   8.386   4.334  0.8339  0.4022  0.2244
  794MOL0     O 4706  -0.663   8.445   4.211  0.6337  0.1569 -0.0999
  794MOL0     C 4707  -0.785   8.441   4.146  0.3186 -0.8850 -0.7576
  794MOL0     C 4708  -0.813   8.337   4.054 -0.8009 -0.1813  0.1135
  794MOL0     C 4709  -0.931   8.338   3.968  0.4265 -0.3368 -0.2680
  794MOL0     C 4710  -1.017   8.458   3.977  0.7889  0.9400 -0.3164
  794MOL0     O 4711  -1.125   8.483   3.895  0.2049 -0.8634  0.2728
  794MOL0     C 4712  -1.152   8.377   3.803  0.3683  0.7438  0.3930
  794MOL0     C 4713  -1.280   8.397   3.734  0.0880  0.0362 -0.0115
  794MOL0     C 4714  -1.336   8.281   3.643  0.4505  0.8421  0.7621
  794MOL0     C 4715  -1.473   8.319   3.583  1.2409 -0.2668  0.2651
  794MOL0     C 4716  -1.550   8.191   3.550  0.6122 -0.8871  0.2214
  794MOL0     C 4717  -1.678   8.214   3.471 -0.0124 -0.3039  0.5360
  794MOL0     C 4718  -1.764   8.086   3.455  0.3463 -0.5640 -0.2652
  794MOL0     C 4719  -1.906   8.118   3.419 -0.0596  0.3493 -0.1373
  794MOL0    Cl 4720  -1.995   7.962   3.421 -0.0633  0.3132 -0.5800
  794MOL0     C 4721  -0.982   8.557   4.066 -0.3170  0.7706  0.0835
  794MOL0     C 4722  -0.871   8.554   4.147 -0.7769 -0.3483 -0.3406
  794MOL0     O 4723  -0.764   8.345   4.395 -0.4111 -0.3362  0.3809
  794MOL0     C 4724  -0.417   8.427   4.340 -0.3594  0.3606 -0.0158
  794MOL0     C 4725  -0.286   8.409   4.390 -0.9676 -0.4319  0.3089
  794MOL0     N 4726   0.301   7.856   4.553 -0.6977  0.1233 -0.1833
  794MOL0     N 4727   0.331   7.771   4.464 -0.1757 -0.3889 -0.9081
  794MOL0     C 4728   1.322   8.297   4.058  0.1909 -0.2616 -0.2419
  794MOL0     C 4729   1.415   8.355   3.981 -0.2918 -0.2803  0.4129
  794MOL0     C 4730   1.850   8.410   3.788 -0.0699 -0.0045  0.1275
  794MOL0     C 4731   1.840   8.553   3.806 -0.2801  0.9126 -0.5756
  794MOL0     C 4732   1.943   8.643   3.769  0.1887  1.1112  0.9579
  794MOL0     C 4733   2.066   8.588   3.716 -0.0792 -0.1608  0.3615
  794MOL0     O 4734   2.180   8.666   3.685  0.2387  0.7010 -0.1573
  794MOL0     C 4735   2.152   8.782   3.616 -0.1426  0.0046  0.0257
  794MOL0     C 4736   2.160   8.901   3.700 -0.4019 -0.1707  0.4074
  794MOL0     C 4737   2.157   9.024   3.605  0.6434 -0.3816 -0.0129
  794MOL0     C 4738   2.192   9.150   3.688  0.9805 -0.3110 -0.2954
  794MOL0     C 4739   2.133   9.272   3.645 -0.6096  0.5381  0.0167
  794MOL0     C 4740   2.078   9.371   3.603 -0.7265  0.0377 -0.8462
  794MOL0     C 4741   2.075   8.451   3.705  0.4098 -0.1158 -0.2749
  794MOL0     C 4742   1.970   8.364   3.739  0.1764 -0.5113 -0.6802
  794MOL0     H 4743   1.677   8.169   4.079 -0.9471 -2.2727  3.3869
  794MOL0     H 4744   1.490   8.046   4.195 -5.1737 -1.8829 -0.5097
  794MOL0     H 4745   1.100   8.237   4.199  0.2850  1.5147 -0.1088
  794MOL0     H 4746   1.199   8.252   4.352  0.8098  1.1977 -2.1605
  794MOL0     H 4747   1.003   8.155   4.424 -0.8119 -1.4074  0.9875
  794MOL0     H 4748   1.096   8.011   4.393  1.9331  1.5705  0.0400
  794MOL0     H 4749   1.010   7.982   4.178  0.7128  1.3161 -0.7823
  794MOL0     H 4750   0.913   8.133   4.175 -1.5229 -2.1396 -3.2128
  794MOL0     H 4751   0.870   7.873   4.315  0.6055 -1.0401 -2.9932
  794MOL0     H 4752   0.803   8.021   4.393  1.4236 -1.6829  2.0338
  794MOL0     H 4753   0.759   7.923   4.107 -1.2424 -1.9496 -0.2190
  794MOL0     H 4754   0.679   8.064   4.169  0.6572 -0.0315 -0.2505
  794MOL0     H 4755   0.580   7.915   4.349  1.1060  2.1492 -0.6493
  794MOL0     H 4756   0.652   7.775   4.261 -1.1951 -0.8949 -0.4122
  794MOL0     H 4757   0.450   7.966   4.133 -2.7719 -0.4950  1.6998
  794MOL0     H 4758   0.526   7.823   4.063 -2.3504  2.4551 -2.2358
  794MOL0     H 4759   0.420   7.692   4.253  1.7182  0.2365 -1.0814
  794MOL0     H 4760   0.292   7.777   4.149  1.2282  0.4601 -1.8904
  794MOL0     H 4761   0.293   8.050   4.290  0.2710 -1.4647 -2.1459
  794MOL0     H 4762   0.289   8.196   4.561 -0.6258  0.7190  2.0817
  794MOL0     H 4763   0.264   8.087   4.691 -0.8642  3.7340  0.9044
  794MOL0     H 4764   0.026   8.026   4.609 -0.4407  0.4086 -1.1854
  794MOL0     H 4765   0.042   8.143   4.479 -0.8554  1.3949 -0.0543
  794MOL0     H 4766   0.067   8.205   4.771  2.0486 -2.3833 -1.1244
  794MOL0     H 4767   0.086   8.319   4.638  0.6508 -0.7096 -0.0050
  794MOL0     H 4768  -0.158   8.323   4.742 -1.1737  0.1510  0.3134
  794MOL0     H 4769  -0.170   8.165   4.671  3.2796 -2.2079  0.4612
  794MOL0     H 4770  -0.378   8.241   4.665 -0.1130 -0.5898 -0.5828
  794MOL0     H 4771  -0.597   8.271   4.574 -0.2090  0.9830  0.6522
  794MOL0     H 4772  -0.745   8.255   4.035  0.7898 -0.0081  4.1170
  794MOL0     H 4773  -0.941   8.263   3.891  2.8358  0.4084 -1.3988
  794MOL0     H 4774  -1.151   8.286   3.863 -1.3740 -1.5197 -2.7362
  794MOL0     H 4775  -1.080   8.368   3.721 -2.4200 -1.6920 -2.0236
  794MOL0     H 4776  -1.283   8.489   3.676  1.2085  0.1218  0.0497
  794MOL0     H 4777  -1.356   8.412   3.811  0.0334  1.5213 -0.3390
  794MOL0     H 4778  -1.356   8.190   3.700  0.6925  0.5534  0.3906
  794MOL0     H 4779  -1.272   8.260   3.557 -1.1543 -0.3354 -0.2047
  794MOL0     H 4780  -1.526   8.381   3.656  2.3888  2.5885 -1.1614
  794MOL0     H 4781  -1.446   8.381   3.497  1.2871  0.2084  0.6147
  794MOL0     H 4782  -1.580   8.131   3.637  0.0874 -0.2758  0.4687
  794MOL0     H 4783  -1.492   8.113   3.498 -0.8546 -0.8825 -1.4767
  794MOL0     H 4784  -1.659   8.257   3.373 -0.2122  0.9604  1.0219
  794MOL0     H 4785  -1.739   8.287   3.525 -0.1362 -0.6737  0.9035
  794MOL0     H 4786  -1.718   8.027   3.375  1.4963  1.2360 -0.9861
  794MOL0     H 4787  -1.765   8.020   3.543 -2.9575 -1.4662 -0.8208
  794MOL0     H 4788  -1.906   8.168   3.322 -1.7524  0.4524 -0.1192
  794MOL0     H 4789  -1.947   8.184   3.496 -0.6630 -0.8998  0.6564
  794MOL0     H 4790  -1.051   8.641   4.068 -3.2319 -1.4543 -0.0917
  794MOL0     H 4791  -0.850   8.640   4.210 -0.2201 -0.1287 -0.8169
  794MOL0     H 4792  -0.428   8.482   4.247 -0.2846  0.3732 -0.0181
  794MOL0     H 4793  -0.205   8.447   4.329 -1.5227 -0.0253 -0.1977
  794MOL0     H 4794   1.221   8.335   4.046  0.8848  2.4691  1.6268
  794MOL0     H 4795   1.399   8.430   3.905 -1.4572 -1.6179 -0.7147
  794MOL0     H 4796   1.755   8.604   3.851  1.1077  0.1309  3.3401
  794MOL0     H 4797   1.922   8.749   3.777 -2.1695  0.9904 -1.9409
  794MOL0     H 4798   2.050   8.777   3.577 -0.8263  0.9025  1.6305
  794MOL0     H 4799   2.234   8.793   3.543 -0.5668 -0.4462 -0.5287
  794MOL0     H 4800   2.075   8.893   3.769 -1.4671  1.3557 -0.6593
  794MOL0     H 4801   2.254   8.904   3.756 -0.3157 -3.3709  0.6300
  794MOL0     H 4802   2.054   9.017   3.571  1.8848 -0.5491 -4.2015
  794MOL0     H 4803   2.220   9.018   3.516  1.1979  2.4104  0.0942
  794MOL0     H 4804   2.145   9.144   3.786  1.3358  0.9514 -0.0290
  794MOL0     H 4805   2.301   9.157   3.703  0.9923  0.6511 -0.7181
  794MOL0     H 4806   2.030   9.460   3.568  2.7916  3.5352  2.1926
  794MOL0     H 4807   2.162   8.397   3.670  0.5373 -2.2635  2.9645
  794MOL0     H 4808   1.992   8.259   3.727 -1.5462 -0.9006 -0.5416
  795MOL0     O 4809   1.867   6.836   5.924 -0.0695  0.3759  0.3319
  795MOL0     C 4810   1.906   6.913   5.836  0.1716 -0.1576  0.5615
  795MOL0     O 4811   1.846   7.028   5.792 -0.0697  0.7965 -0.1712
  795MOL0     C 4812   1.714   7.055   5.812  0.6176  0.2943 -0.5732
  795MOL0     C 4813   1.618   6.969   5.875  0.4158  0.8915  0.8434
  795MOL0     C 4814   1.488   7.014   5.880 -0.6602 -0.2785 -0.9048
  795MOL0     C 4815   1.449   7.142   5.855 -0.5831 -0.5132  0.0137
  795MOL0     O 4816   1.323   7.187   5.883  0.6015  0.0694  0.7959
  795MOL0     C 4817   1.223   7.108   5.946  0.9752 -0.0126 -1.3133
  795MOL0     C 4818   1.110   7.205   5.970  0.1692 -0.1326 -0.0893
  795MOL0     C 4819   0.982   7.138   6.028 -0.3872  1.6199 -1.1177
  795MOL0     C 4820   0.856   7.219   6.031  0.8327 -0.0535 -0.2899
  795MOL0     C 4821   0.737   7.118   6.060 -0.6165  0.3661  0.1338
  795MOL0     C 4822   0.615   7.205   6.079  0.0538 -0.0631 -0.1062
  795MOL0     C 4823   0.488   7.122   6.064  0.6197  0.6788  0.2120
  795MOL0     C 4824   0.450   7.040   6.196 -0.6868 -0.5846  0.3555
  795MOL0     N 4825   0.312   6.990   6.183 -0.2430  0.5076  0.4212
  795MOL0     C 4826   0.264   6.927   6.073  0.4183 -0.1787  0.0320
  795MOL0     C 4827   0.136   6.922   6.087  0.8797  0.3023 -0.1459
  795MOL0     C 4828   0.037   6.867   5.982 -0.4017 -0.7818 -0.0714
  795MOL0     C 4829  -0.079   6.963   5.967  0.4378 -0.3262  0.5178
  795MOL0     C 4830  -0.173   6.918   5.855  0.9755 -0.1467  0.3560
  795MOL0     C 4831  -0.307   7.007   5.835 -0.8885 -0.7551 -0.0100
  795MOL0     O 4832  -0.398   6.998   5.950  0.0087 -0.5369  0.1493
  795MOL0     C 4833  -0.532   6.968   5.942  0.6146  0.6375  0.8874
  795MOL0     C 4834  -0.603   6.997   6.062  0.2827 -0.1039 -0.3230
  795MOL0     C 4835  -0.744   7.006   6.063 -0.5837  0.2630 -0.3312
  795MOL0     C 4836  -0.810   6.979   5.941  0.4701  0.2554 -0.2058
  795MOL0     C 4837  -0.953   7.007   5.939 -0.3068  0.3427  0.4416
  795MOL0     O 4838  -1.022   7.067   6.044 -0.0243  0.6632  0.3221
  795MOL0     C 4839  -1.159   7.062   6.029  0.1744  0.5771  0.2634
  795MOL0     C 4840  -1.226   6.957   6.068  0.7100  0.2244  0.2479
  795MOL0     C 4841  -1.364   6.949   6.064  0.3458 -0.3244  0.1428
  795MOL0     C 4842  -1.437   7.053   6.001 -1.0212 -0.6745 -0.4209
  795MOL0     O 4843  -1.575   7.045   5.998  0.0124  0.2633 -0.4278
  795MOL0     C 4844  -1.654   7.169   5.998 -0.3318 -0.0247 -0.5821
  795MOL0     C 4845  -1.800   7.147   6.047  0.0972  0.0322  0.9107
  795MOL0     C 4846  -1.886   7.274   6.041 -0.0827  0.3974  0.2178
  795MOL0     C 4847  -2.027   7.244   6.080 -0.3865 -0.9116 -0.9782
  795MOL0     C 4848  -2.104   7.372   6.089  0.2180 -0.1471 -0.7553
  795MOL0     C 4849  -2.237   7.358   6.166 -0.0518  0.2812 -0.2015
  795MOL0     C 4850  -2.359   7.367   6.074  0.0970 -0.8311 -0.2601
  795MOL0     C 4851  -2.486   7.337   6.146 -0.2604  0.5189 -0.1002
  795MOL0    Cl 4852  -2.487   7.156   6.186  0.2008  0.1321  0.1745
  795MOL0     C 4853  -1.367   7.159   5.942  0.2497  1.0464  0.8685
  795MOL0     C 4854  -1.230   7.163   5.961  0.0763  0.5412  0.2887
  795MOL0     O 4855  -1.010   6.975   5.832  0.5129  0.6808 -0.6498
  795MOL0     C 4856  -0.741   6.940   5.828  0.6348  0.1971 -0.2974
  795MOL0     C 4857  -0.596   6.935   5.829  0.4311 -0.3344  0.5292
  795MOL0     N 4858   0.104   6.971   6.217  0.9414 -0.2793 -0.2726
  795MOL0     N 4859   0.211   7.009   6.274 -0.3746 -0.4564 -0.1124
  795MOL0     C 4860   1.543   7.229   5.800 -0.1815 -0.5696 -0.5278
  795MOL0     C 4861   1.673   7.188   5.786  0.0638  0.1035  1.2559
  795MOL0     C 4862   2.039   6.881   5.775 -0.9253 -0.1967  0.3711
  795MOL0     C 4863   2.112   6.977   5.698  0.6464  0.3774  0.3755
  795MOL0     C 4864   2.236   6.946   5.644 -0.0584  0.1273  0.4637
  795MOL0     C 4865   2.304   6.832   5.685 -0.0081 -0.3528 -0.0070
  795MOL0     O 4866   2.434   6.812   5.645  0.0460  0.4976 -0.3170
  795MOL0     C 4867   2.529   6.750   5.738  0.9630  0.2438  0.0245
  795MOL0     C 4868   2.670   6.743   5.681  0.2955 -0.7869 -0.2559
  795MOL0     C 4869   2.659   6.702   5.536 -0.3904 -0.1902 -0.0202
  795MOL0     C 4870   2.787   6.622   5.492  0.4107 -0.7976  0.6355
  795MOL0     C 4871   2.894   6.726   5.487 -0.2309 -0.3333 -0.1575
  795MOL0     C 4872   2.986   6.804   5.468 -0.4740 -0.1625 -0.3527
  795MOL0     C 4873   2.231   6.733   5.758 -1.0117  0.9030 -0.2554
  795MOL0     C 4874   2.100   6.756   5.798  0.7072 -0.9183 -0.2865
  795MOL0     H 4875   1.644   6.868   5.908 -1.3689  0.3528  0.6892
  795MOL0     H 4876   1.413   6.948   5.922 -0.2498 -0.4679 -0.4607
  795MOL0     H 4877   1.256   7.073   6.044 -0.0116  0.4940 -0.7923
  795MOL0     H 4878   1.195   7.025   5.881 -1.1850 -1.3356  1.1202
  795MOL0     H 4879   1.078   7.237   5.871 -1.1812 -0.7780  0.1149
  795MOL0     H 4880   1.145   7.289   6.031 -0.9595 -1.1320  2.0349
  795MOL0     H 4881   1.011   7.102   6.128 -1.8558  1.8865 -0.5819
  795MOL0     H 4882   0.966   7.055   5.958 -0.1003 -1.0863  1.7783
  795MOL0     H 4883   0.850   7.301   6.104  1.5523  0.9662 -1.3477
  795MOL0     H 4884   0.831   7.260   5.933  0.0449  2.4282  0.8640
  795MOL0     H 4885   0.768   7.066   6.151  0.6671  1.5373  0.3983
  795MOL0     H 4886   0.719   7.038   5.988  1.6953 -1.7198  1.7154
  795MOL0     H 4887   0.624   7.276   5.996  5.2823  3.1628  2.7212
  795MOL0     H 4888   0.618   7.269   6.167 -1.8111  0.7671 -0.6012
  795MOL0     H 4889   0.409   7.190   6.029  0.4781 -0.0595 -0.9675
  795MOL0     H 4890   0.495   7.041   5.991 -3.1909 -0.9407  1.3290
  795MOL0     H 4891   0.473   7.108   6.279  1.7055  3.4023 -3.1790
  795MOL0     H 4892   0.528   6.964   6.206 -0.9028 -1.2806 -2.5149
  795MOL0     H 4893   0.318   6.912   5.980  1.0829 -0.3580  0.4449
  795MOL0     H 4894  -0.008   6.771   6.006  0.3683 -1.1496 -0.0707
  795MOL0     H 4895   0.090   6.858   5.887 -0.4996 -0.0377 -0.2021
  795MOL0     H 4896  -0.055   7.068   5.948  0.7951 -0.7999 -2.1090
  795MOL0     H 4897  -0.139   6.953   6.057 -0.7980 -2.1626 -0.4455
  795MOL0     H 4898  -0.121   6.935   5.760 -0.2493  2.8188  0.1127
  795MOL0     H 4899  -0.196   6.811   5.855 -1.0146  0.2312 -1.2269
  795MOL0     H 4900  -0.350   6.969   5.741 -2.6418 -1.7011  1.1033
  795MOL0     H 4901  -0.282   7.113   5.835 -0.2270 -0.8653  2.0525
  795MOL0     H 4902  -0.557   7.041   6.150 -0.4393  1.2367 -0.5863
  795MOL0     H 4903  -0.802   7.038   6.149  0.4359 -0.9018  0.8476
  795MOL0     H 4904  -1.170   6.871   6.104  2.5624 -0.8364 -4.4484
  795MOL0     H 4905  -1.423   6.866   6.101  1.4245 -0.2653  2.1020
  795MOL0     H 4906  -1.651   7.222   5.902  2.9989 -0.3685 -0.7903
  795MOL0     H 4907  -1.607   7.232   6.075  1.8280  0.5063 -2.2181
  795MOL0     H 4908  -1.776   7.117   6.149  3.0312 -1.2519 -0.0551
  795MOL0     H 4909  -1.846   7.065   5.990 -0.4157  1.5549 -0.9741
  795MOL0     H 4910  -1.882   7.318   5.941  0.1898 -2.2415 -0.9972
  795MOL0     H 4911  -1.848   7.337   6.123 -1.3782 -0.4288  1.5042
  795MOL0     H 4912  -2.072   7.169   6.014 -0.2897 -0.2544 -1.7984
  795MOL0     H 4913  -2.019   7.186   6.173  0.7748 -1.1891 -1.2344
  795MOL0     H 4914  -2.122   7.411   5.988  0.8008  0.6032 -0.5758
  795MOL0     H 4915  -2.029   7.442   6.125  4.7789 -3.2993 -3.1448
  795MOL0     H 4916  -2.254   7.437   6.240  2.5114 -0.8622  1.7993
  795MOL0     H 4917  -2.240   7.266   6.226 -1.7814 -1.0639 -2.2119
  795MOL0     H 4918  -2.365   7.472   6.043 -1.4346 -0.4016  1.3055
  795MOL0     H 4919  -2.350   7.302   5.987 -3.1249 -0.3657 -1.0604
  795MOL0     H 4920  -2.579   7.370   6.098 -1.3686 -1.1279  0.8045
  795MOL0     H 4921  -2.486   7.394   6.239  1.4887 -1.2135  1.0446
  795MOL0     H 4922  -1.426   7.233   5.889 -1.7783 -0.0127  1.5425
  795MOL0     H 4923  -1.170   7.249   5.932  1.1026 -0.3603 -0.3415
  795MOL0     H 4924  -0.797   6.897   5.746  0.0745 -1.8607  1.0671
  795MOL0     H 4925  -0.558   6.880   5.743 -1.7379 -2.5640  0.8960
  795MOL0     H 4926   1.516   7.332   5.779 -0.0950 -0.3123  0.5576
  795MOL0     H 4927   1.745   7.261   5.751 -0.9486 -0.6429 -3.0260
  795MOL0     H 4928   2.068   7.073   5.672 -1.2650  0.4343  3.3250
  795MOL0     H 4929   2.278   7.020   5.578 -3.0028  0.9141 -0.6913
  795MOL0     H 4930   2.489   6.649   5.750  0.5189  0.4148  0.0226
  795MOL0     H 4931   2.530   6.807   5.832  0.3647  2.2512 -1.1112
  795MOL0     H 4932   2.714   6.842   5.691  0.5149 -0.9787  0.8978
  795MOL0     H 4933   2.728   6.678   5.748  0.1634  2.1743  2.9911
  795MOL0     H 4934   2.639   6.789   5.474  0.3093  1.9746  2.6169
  795MOL0     H 4935   2.571   6.639   5.525 -1.2985  0.9948  0.3034
  795MOL0     H 4936   2.807   6.532   5.550 -2.8678 -0.9665  1.6566
  795MOL0     H 4937   2.766   6.592   5.389  1.8052  2.4489 -0.7558
  795MOL0     H 4938   3.063   6.875   5.448  0.9755 -2.0360 -1.9100
  795MOL0     H 4939   2.278   6.643   5.797 -0.9551  0.2454 -1.8006
  795MOL0     H 4940   2.044   6.686   5.859 -1.6947 -0.0030 -1.2721
  796MOL0     O 4941   5.054   5.300   2.452 -0.3162 -0.4868  1.0823
  796MOL0     C 4942   5.066   5.264   2.569  0.5952 -0.9643 -1.1543
  796MOL0     O 4943   4.962   5.264   2.662 -0.0256 -0.0030  0.1713
  796MOL0     C 4944   4.838   5.315   2.628  0.0055 -0.0940  0.6452
  796MOL0     C 4945   4.731   5.227   2.637 -0.4966 -0.3711  0.1751
  796MOL0     C 4946   4.598   5.259   2.597 -0.4950  0.2512 -0.0959
  796MOL0     C 4947   4.574   5.393   2.550  0.1038  0.2661 -0.5543
  796MOL0     O 4948   4.452   5.432   2.512  0.0567 -0.1274  0.6758
  796MOL0     C 4949   4.421   5.372   2.382 -0.6136 -0.1937  0.3492
  796MOL0     C 4950   4.360   5.480   2.284  0.5794  1.3450 -0.3349
  796MOL0     C 4951   4.228   5.535   2.324 -0.3745  0.4593 -0.3328
  796MOL0     C 4952   4.154   5.603   2.215  0.3599 -0.3081  0.5184
  796MOL0     C 4953   4.021   5.673   2.264 -0.5294 -0.3067  0.7224
  796MOL0     C 4954   3.917   5.572   2.308 -0.3364  0.2271  0.4266
  796MOL0     C 4955   3.777   5.639   2.302  0.5843 -1.0616 -0.4682
  796MOL0     C 4956   3.702   5.590   2.179 -0.1337  0.1610 -1.0703
  796MOL0     N 4957   3.588   5.681   2.145 -0.1993  0.7073 -0.2859
  796MOL0     C 4958   3.592   5.817   2.109 -0.1493  0.8624 -0.9073
  796MOL0     C 4959   3.462   5.857   2.108 -0.3235 -0.7613 -0.9093
  796MOL0     C 4960   3.420   5.997   2.085  0.1232 -0.3974 -0.3454
  796MOL0     C 4961   3.291   6.039   2.153 -0.6703 -0.3981  0.2460
  796MOL0     C 4962   3.296   6.061   2.308  0.2360  0.6584  0.7975
  796MOL0     C 4963   3.179   6.130   2.374 -0.5448  0.0820 -0.0506
  796MOL0     O 4964   3.061   6.074   2.316  0.5321  0.2834 -0.5754
  796MOL0     C 4965   2.956   6.038   2.401 -0.1571 -0.8642 -0.2291
  796MOL0     C 4966   2.830   6.097   2.381 -0.5608 -0.2697 -0.2070
  796MOL0     C 4967   2.721   6.072   2.465 -0.0744 -0.1984  0.3119
  796MOL0     C 4968   2.736   5.986   2.569  0.0223  0.4276 -0.1435
  796MOL0     C 4969   2.617   5.966   2.661 -0.0976  0.0942  0.4240
  796MOL0     O 4970   2.497   5.999   2.614 -0.0709  0.2648  0.6763
  796MOL0     C 4971   2.393   5.978   2.694  0.2567 -0.4248 -0.0093
  796MOL0     C 4972   2.366   6.068   2.800 -0.5732 -0.3393  0.0062
  796MOL0     C 4973   2.254   6.048   2.882 -0.1092 -0.1996  0.0844
  796MOL0     C 4974   2.170   5.933   2.864  0.2127 -0.5829  0.3180
  796MOL0     O 4975   2.075   5.887   2.951 -0.4681 -0.5231 -0.2930
  796MOL0     C 4976   1.972   5.989   2.984 -0.8719  0.0328 -0.3779
  796MOL0     C 4977   1.850   5.985   2.889  0.5160  0.0816 -0.0741
  796MOL0     C 4978   1.756   6.101   2.907 -0.7374 -0.3180 -0.8974
  796MOL0     C 4979   1.613   6.070   2.855  0.7604 -0.2323 -0.6924
  796MOL0     C 4980   1.532   6.197   2.865 -0.5884 -0.3002 -0.2326
  796MOL0     C 4981   1.400   6.170   2.787 -0.4876  0.1399 -0.0678
  796MOL0     C 4982   1.291   6.276   2.821 -0.3323  1.3107  0.6540
  796MOL0     C 4983   1.193   6.279   2.702  0.7977 -0.2629 -0.1796
  796MOL0    Cl 4984   1.092   6.422   2.727  0.2395 -0.6252  0.0349
  796MOL0     C 4985   2.192   5.853   2.754  0.3233  0.0411 -0.3398
  796MOL0     C 4986   2.301   5.877   2.667 -0.0953 -0.2100  0.2897
  796MOL0     O 4987   2.639   5.911   2.769  0.2840 -0.0658  0.0763
  796MOL0     C 4988   2.858   5.921   2.590 -0.3205  0.0190  0.2772
  796MOL0     C 4989   2.971   5.947   2.505  0.5867 -0.6999 -0.5585
  796MOL0     N 4990   3.386   5.746   2.137  0.4185 -0.3984  0.2610
  796MOL0     N 4991   3.459   5.641   2.159 -0.0755 -0.4511 -0.2440
  796MOL0     C 4992   4.684   5.482   2.542 -0.3627  0.1477 -0.0887
  796MOL0     C 4993   4.812   5.445   2.575 -0.3026 -0.1308  0.2180
  796MOL0     C 4994   5.199   5.238   2.627  0.7690  0.0912  0.3950
  796MOL0     C 4995   5.230   5.247   2.764  0.7239 -0.4598 -0.0912
  796MOL0     C 4996   5.358   5.238   2.812 -0.0021 -0.1246  0.7418
  796MOL0     C 4997   5.458   5.204   2.723 -0.6001 -0.4976 -0.1708
  796MOL0     O 4998   5.586   5.190   2.785 -0.6263 -0.5207 -0.0028
  796MOL0     C 4999   5.702   5.177   2.704  1.1155 -0.5572  0.1024
  796MOL0     C 5000   5.837   5.214   2.769 -0.5209  0.1691 -0.0622
  796MOL0     C 5001   5.824   5.354   2.849 -0.0334  0.2527  1.2431
  796MOL0     C 5002   5.955   5.413   2.908 -0.3338  0.3456 -0.0258
  796MOL0     C 5003   5.923   5.491   3.027 -0.1834 -0.1069 -1.2188
  796MOL0     C 5004   5.896   5.561   3.125  0.0892 -0.3321 -0.3738
  796MOL0     C 5005   5.430   5.186   2.588  0.5341  0.4305 -1.2373
  796MOL0     C 5006   5.302   5.200   2.536  0.3083  0.5687 -0.7824
  796MOL0     H 5007   4.763   5.134   2.682 -0.6906  0.1264  1.4066
  796MOL0     H 5008   4.517   5.187   2.597 -0.4251  0.1522 -1.4833
  796MOL0     H 5009   4.361   5.283   2.403 -1.9105  0.5122 -0.2037
  796MOL0     H 5010   4.511   5.339   2.330 -0.8153  0.2131 -0.2743
  796MOL0     H 5011   4.345   5.428   2.189  0.3463  1.7119 -0.4980
  796MOL0     H 5012   4.425   5.566   2.264  0.1039  1.6086 -0.7762
  796MOL0     H 5013   4.252   5.593   2.414  0.3876 -1.0454  0.4896
  796MOL0     H 5014   4.171   5.447   2.355  0.6995  0.1040  0.7384
  796MOL0     H 5015   4.221   5.677   2.170 -0.7415  1.1534  1.1942
  796MOL0     H 5016   4.128   5.523   2.145  4.2946 -2.8749  1.6612
  796MOL0     H 5017   3.980   5.728   2.179  0.8908 -1.1106 -0.5275
  796MOL0     H 5018   4.034   5.739   2.350 -0.9158  0.6416  0.0739
  796MOL0     H 5019   3.922   5.543   2.413 -1.3784 -1.5925  0.0079
  796MOL0     H 5020   3.928   5.476   2.257  1.0449  0.1003  0.9081
  796MOL0     H 5021   3.720   5.608   2.390  0.0631  1.3956  0.1242
  796MOL0     H 5022   3.777   5.748   2.312  2.0021 -1.2494  2.8888
  796MOL0     H 5023   3.666   5.488   2.196 -0.4163  0.0670 -2.1917
  796MOL0     H 5024   3.768   5.569   2.095 -2.0012 -2.1527 -2.0635
  796MOL0     H 5025   3.674   5.884   2.090 -0.5221  1.5715 -0.0887
  796MOL0     H 5026   3.421   6.018   1.977  0.0394 -0.7824 -0.4238
  796MOL0     H 5027   3.494   6.068   2.122 -0.5124  1.2398 -2.0165
  796MOL0     H 5028   3.223   5.955   2.132 -1.0890  0.2978 -1.2774
  796MOL0     H 5029   3.256   6.121   2.090  2.1266 -0.0312 -0.9690
  796MOL0     H 5030   3.318   5.966   2.356 -0.7950 -0.8546 -1.5290
  796MOL0     H 5031   3.383   6.126   2.325  1.0314  0.0646 -0.8153
  796MOL0     H 5032   3.185   6.237   2.352  0.2496 -0.4523 -2.7524
  796MOL0     H 5033   3.175   6.127   2.483 -1.3897  0.9982 -0.0442
  796MOL0     H 5034   2.826   6.167   2.298 -0.8815  0.2275  0.2227
  796MOL0     H 5035   2.632   6.130   2.443 -0.8458 -1.1881  0.7675
  796MOL0     H 5036   2.434   6.152   2.810 -0.9102  0.1910 -1.8318
  796MOL0     H 5037   2.238   6.120   2.962 -1.8018  0.1693 -0.5433
  796MOL0     H 5038   2.026   6.083   2.975  0.1690 -0.0664  3.2978
  796MOL0     H 5039   1.936   5.981   3.087 -0.2029 -2.4582 -0.2723
  796MOL0     H 5040   1.782   5.904   2.917 -0.0574  1.1523  1.7326
  796MOL0     H 5041   1.889   5.984   2.786  1.5427 -1.3212  0.2869
  796MOL0     H 5042   1.792   6.191   2.857 -0.4411 -0.2469 -0.5613
  796MOL0     H 5043   1.739   6.131   3.011  1.6989  1.0614 -0.8426
  796MOL0     H 5044   1.622   6.037   2.751  0.5614 -1.6310 -0.2866
  796MOL0     H 5045   1.560   5.994   2.913  0.2726  0.4494 -0.2288
  796MOL0     H 5046   1.578   6.286   2.821  1.6668 -1.7445 -0.9243
  796MOL0     H 5047   1.506   6.221   2.969  0.7653  1.5958 -0.2644
  796MOL0     H 5048   1.365   6.071   2.819  0.1874 -0.1699 -0.2801
  796MOL0     H 5049   1.411   6.175   2.678 -0.3222  3.7065  0.0070
  796MOL0     H 5050   1.237   6.244   2.911 -2.8332 -1.7427 -1.6805
  796MOL0     H 5051   1.337   6.372   2.845  0.3985  0.5301  2.5530
  796MOL0     H 5052   1.133   6.187   2.702  1.2232 -0.8446  5.3206
  796MOL0     H 5053   1.246   6.294   2.608 -0.8290 -0.0229 -1.1028
  796MOL0     H 5054   2.136   5.761   2.743 -1.3779  1.2822 -2.9997
  796MOL0     H 5055   2.320   5.805   2.588 -1.0468 -0.7127  0.5125
  796MOL0     H 5056   2.875   5.851   2.671  1.7817  0.3949  0.2110
  796MOL0     H 5057   3.067   5.902   2.530  1.0025 -0.7453 -2.1325
  796MOL0     H 5058   4.658   5.576   2.495 -2.1903 -1.5958 -2.9393
  796MOL0     H 5059   4.891   5.516   2.554 -0.6065  0.0536 -0.3475
  796MOL0     H 5060   5.143   5.268   2.827 -0.6953 -0.3206 -2.0138
  796MOL0     H 5061   5.375   5.243   2.919  1.8372 -0.1720  0.4830
  796MOL0     H 5062   5.683   5.243   2.619 -0.2144  1.0428  1.5671
  796MOL0     H 5063   5.715   5.073   2.671  2.5930 -0.9100  1.6393
  796MOL0     H 5064   5.854   5.144   2.851  2.1940  1.4206  0.5526
  796MOL0     H 5065   5.925   5.218   2.703  0.4465 -0.1891  1.1770
  796MOL0     H 5066   5.743   5.343   2.923 -2.0299  1.9727 -0.5583
  796MOL0     H 5067   5.793   5.421   2.769 -1.6172 -2.0528 -0.2240
  796MOL0     H 5068   6.012   5.328   2.948 -0.7950  0.7099  1.5093
  796MOL0     H 5069   6.018   5.467   2.837  1.5012 -2.4231 -0.6572
  796MOL0     H 5070   5.866   5.610   3.216 -0.7777 -2.0607  0.3184
  796MOL0     H 5071   5.517   5.155   2.531  1.5128 -1.1162  0.9880
  796MOL0     H 5072   5.279   5.173   2.433 -2.6243 -1.0340  0.2026
  797MOL0     O 5073   3.109   7.308   9.257 -0.4791  0.8368 -0.2500
  797MOL0     C 5074   3.216   7.290   9.198 -0.0678  0.1781  1.0377
  797MOL0     O 5075   3.230   7.195   9.104  0.2216 -0.4901  0.0607
  797MOL0     C 5076   3.121   7.129   9.064 -0.7986 -0.0630  0.0458
  797MOL0     C 5077   3.047   7.033   9.148 -0.1936  0.0504  0.4222
  797MOL0     C 5078   2.930   6.969   9.106 -0.0235  0.7666  0.7328
  797MOL0     C 5079   2.879   7.008   8.979 -0.8304 -0.0900 -0.2040
  797MOL0     O 5080   2.752   6.960   8.938  0.2269  0.6190  0.4456
  797MOL0     C 5081   2.754   6.863   8.828 -0.3315  0.2871  0.0240
  797MOL0     C 5082   2.620   6.779   8.828  0.3554  0.0055  0.4402
  797MOL0     C 5083   2.497   6.857   8.765 -0.2377  0.3583 -0.3927
  797MOL0     C 5084   2.365   6.811   8.826 -0.2132 -0.5705  0.0301
  797MOL0     C 5085   2.251   6.897   8.772 -0.3742 -0.3846 -0.4126
  797MOL0     C 5086   2.111   6.855   8.784  1.0891  0.3231 -0.8610
  797MOL0     C 5087   2.018   6.952   8.709 -1.1944  0.1162  0.1664
  797MOL0     C 5088   1.880   6.896   8.709 -0.8091 -0.2604  0.3891
  797MOL0     N 5089   1.777   6.993   8.684  0.1378  0.6609  0.8247
  797MOL0     C 5090   1.706   7.067   8.774  0.1707  0.1676 -0.4200
  797MOL0     C 5091   1.633   7.148   8.700 -0.6827  0.0470  0.4891
  797MOL0     C 5092   1.542   7.250   8.752  1.2692  0.1022  0.1767
  797MOL0     C 5093   1.400   7.226   8.683  0.5687  0.3995  0.2404
  797MOL0     C 5094   1.327   7.107   8.743  0.1141 -0.3296  0.0580
  797MOL0     C 5095   1.200   7.079   8.663  0.7178 -0.6773 -0.0805
  797MOL0     O 5096   1.136   7.207   8.630  0.3495  0.3947 -0.3122
  797MOL0     C 5097   1.005   7.232   8.668  0.2692 -0.3348  0.0265
  797MOL0     C 5098   0.945   7.196   8.791 -1.1026  0.2821 -0.0328
  797MOL0     C 5099   0.815   7.218   8.803  0.1041  0.1363 -0.0215
  797MOL0     C 5100   0.728   7.254   8.702  0.7809  0.3591  0.6469
  797MOL0     C 5101   0.581   7.252   8.724 -0.0634 -1.5427  0.1238
  797MOL0     O 5102   0.512   7.280   8.610  0.0036 -0.1032  0.1052
  797MOL0     C 5103   0.372   7.261   8.601 -0.5210 -0.3940 -0.2698
  797MOL0     C 5104   0.279   7.316   8.696  0.3506  0.1172  0.4602
  797MOL0     C 5105   0.142   7.282   8.678  0.9413 -0.0163 -0.4947
  797MOL0     C 5106   0.100   7.207   8.573  0.5927  0.0719  0.0509
  797MOL0     O 5107  -0.033   7.190   8.567 -0.4624 -1.2247  0.3083
  797MOL0     C 5108  -0.095   7.187   8.437 -0.1817  0.1529  0.1080
  797MOL0     C 5109  -0.240   7.218   8.450  0.6701  0.0702 -0.6444
  797MOL0     C 5110  -0.327   7.111   8.522 -0.4181 -0.7491  0.2737
  797MOL0     C 5111  -0.330   6.974   8.447  0.1127 -0.4290 -0.0572
  797MOL0     C 5112  -0.443   6.883   8.505  0.0326 -0.3311  0.0028
  797MOL0     C 5113  -0.397   6.780   8.612 -0.7444 -0.3117  0.3183
  797MOL0     C 5114  -0.507   6.701   8.683 -0.1831 -0.0244 -0.2367
  797MOL0     C 5115  -0.462   6.567   8.745 -1.6782  0.6655 -0.3286
  797MOL0    Cl 5116  -0.369   6.617   8.891  0.0018 -0.4968  0.0987
  797MOL0     C 5117   0.187   7.144   8.485 -0.3470 -0.6136  0.3929
  797MOL0     C 5118   0.326   7.175   8.502  1.2658 -1.0667 -0.2714
  797MOL0     O 5119   0.530   7.237   8.836  0.6044 -0.0167 -0.0062
  797MOL0     C 5120   0.786   7.275   8.573 -0.3723 -0.1816  0.2082
  797MOL0     C 5121   0.923   7.267   8.560 -0.2643  0.1243  0.5573
  797MOL0     N 5122   1.658   7.119   8.571  0.2793 -0.1243 -0.2474
  797MOL0     N 5123   1.737   7.019   8.561  0.5139  0.1550  0.0439
  797MOL0     C 5124   2.939   7.107   8.904  0.8937  0.0895  0.8001
  797MOL0     C 5125   3.065   7.161   8.941 -0.5083 -0.0203  0.7434
  797MOL0     C 5126   3.342   7.363   9.242 -0.1996 -0.2541  0.1188
  797MOL0     C 5127   3.459   7.340   9.177 -0.5633 -0.3545  0.7008
  797MOL0     C 5128   3.581   7.397   9.215  0.1190  0.1654  0.1764
  797MOL0     C 5129   3.576   7.498   9.319  0.4374 -0.2047 -0.3234
  797MOL0     O 5130   3.687   7.581   9.354  0.7532 -0.7646 -0.4110
  797MOL0     C 5131   3.814   7.546   9.309  0.1540 -0.5722  0.2743
  797MOL0     C 5132   3.910   7.669   9.330 -0.1792  0.1384  0.4904
  797MOL0     C 5133   4.021   7.670   9.223  0.2664  0.0695  0.3506
  797MOL0     C 5134   4.128   7.557   9.243  0.0508  0.2880  0.3155
  797MOL0     C 5135   4.181   7.550   9.371 -0.1296  0.6340  0.5049
  797MOL0     C 5136   4.233   7.551   9.480  0.2898 -1.0640 -0.8045
  797MOL0     C 5137   3.452   7.517   9.384  0.0636  0.5811 -0.5080
  797MOL0     C 5138   3.339   7.447   9.347 -0.0001 -0.2344 -0.6013
  797MOL0     H 5139   3.083   6.998   9.244  1.3225 -1.3639 -0.6128
  797MOL0     H 5140   2.888   6.884   9.158  2.4699 -1.8550 -1.1989
  797MOL0     H 5141   2.837   6.795   8.849 -1.4737 -1.8807 -2.0055
  797MOL0     H 5142   2.775   6.901   8.727  1.5738 -1.9971 -0.5097
  797MOL0     H 5143   2.605   6.738   8.929 -0.9403 -0.6021  0.0336
  797MOL0     H 5144   2.623   6.685   8.772 -1.8275 -0.6248  1.2482
  797MOL0     H 5145   2.498   6.834   8.658  0.0151 -4.0807  0.3461
  797MOL0     H 5146   2.526   6.961   8.780  2.2655 -0.3684  0.3118
  797MOL0     H 5147   2.356   6.704   8.807  0.5534 -0.4196 -1.3737
  797MOL0     H 5148   2.377   6.829   8.933  0.4050  1.9280 -0.3739
  797MOL0     H 5149   2.263   6.900   8.663 -4.1967  1.1343 -0.9504
  797MOL0     H 5150   2.264   7.003   8.799 -0.0218 -0.0268 -1.8973
  797MOL0     H 5151   2.094   6.853   8.892  2.0867  1.1636 -0.6792
  797MOL0     H 5152   2.085   6.756   8.744 -3.1287  0.3456  1.2401
  797MOL0     H 5153   2.023   7.051   8.755 -0.5303 -0.0649  0.5082
  797MOL0     H 5154   2.049   6.956   8.604  1.0633 -1.0541  0.6946
  797MOL0     H 5155   1.870   6.848   8.808  0.2868 -0.1166  0.5788
  797MOL0     H 5156   1.876   6.815   8.636 -1.6867 -0.3450  0.5101
  797MOL0     H 5157   1.725   7.053   8.880 -0.8082 -0.0636 -0.2697
  797MOL0     H 5158   1.578   7.350   8.726  0.1019 -0.0376 -2.1930
  797MOL0     H 5159   1.531   7.242   8.861 -1.6013  1.8263  0.1171
  797MOL0     H 5160   1.400   7.231   8.574  1.2409  0.8503  0.2588
  797MOL0     H 5161   1.341   7.314   8.709 -1.2589 -0.8063  0.3462
  797MOL0     H 5162   1.381   7.012   8.745 -0.5108 -0.6775  0.7158
  797MOL0     H 5163   1.281   7.125   8.840  0.2694 -1.1259  0.2877
  797MOL0     H 5164   1.131   7.023   8.727  0.1353 -1.1890 -1.1271
  797MOL0     H 5165   1.222   7.030   8.568  1.1685  0.2610 -0.4742
  797MOL0     H 5166   0.996   7.154   8.878  0.1214 -3.4366 -2.3252
  797MOL0     H 5167   0.775   7.204   8.903  2.7459  0.8461  1.2253
  797MOL0     H 5168   0.305   7.384   8.776  1.0436  2.0720 -1.3286
  797MOL0     H 5169   0.064   7.318   8.744 -0.5705 -1.6483 -1.3070
  797MOL0     H 5170  -0.088   7.095   8.378  0.0603  0.3026 -0.1000
  797MOL0     H 5171  -0.061   7.274   8.380  3.4621 -1.0702  0.1800
  797MOL0     H 5172  -0.292   7.254   8.361 -0.7219 -0.4611 -0.0755
  797MOL0     H 5173  -0.246   7.304   8.517 -1.0704  0.5053 -1.2979
  797MOL0     H 5174  -0.430   7.146   8.527  0.1266  1.6449 -2.6687
  797MOL0     H 5175  -0.277   7.093   8.618  2.5500 -0.6133 -1.1363
  797MOL0     H 5176  -0.345   6.984   8.340 -1.4359 -2.4128 -0.0738
  797MOL0     H 5177  -0.231   6.927   8.453  0.1460 -0.6433 -1.8121
  797MOL0     H 5178  -0.479   6.824   8.420 -0.0626 -0.2341 -0.0227
  797MOL0     H 5179  -0.521   6.944   8.551  1.5968  0.4832  1.7264
  797MOL0     H 5180  -0.346   6.834   8.692 -0.0355  2.6169 -1.9337
  797MOL0     H 5181  -0.331   6.710   8.559 -1.2273  0.8307 -1.8906
  797MOL0     H 5182  -0.552   6.762   8.762 -0.1579 -1.7311  1.1493
  797MOL0     H 5183  -0.589   6.683   8.613 -0.5299  3.0510 -0.7752
  797MOL0     H 5184  -0.395   6.506   8.684  0.7937  2.5024  0.3926
  797MOL0     H 5185  -0.547   6.511   8.785 -0.8254  0.9101  1.9752
  797MOL0     H 5186   0.151   7.073   8.412  1.1953  0.9034 -2.0161
  797MOL0     H 5187   0.399   7.120   8.444  1.3568 -0.3281 -0.8817
  797MOL0     H 5188   0.735   7.303   8.482 -0.6750 -3.3365 -0.7002
  797MOL0     H 5189   0.966   7.283   8.462  0.6067 -1.6354  0.6001
  797MOL0     H 5190   2.887   7.132   8.812  2.8717  4.0769  0.5828
  797MOL0     H 5191   3.118   7.221   8.867  0.6785 -0.8926  0.8408
  797MOL0     H 5192   3.449   7.273   9.092  2.5659 -1.2060  0.8794
  797MOL0     H 5193   3.675   7.375   9.166  0.5392 -3.2454  2.1729
  797MOL0     H 5194   3.809   7.537   9.200 -3.6836  2.2550  0.0102
  797MOL0     H 5195   3.854   7.451   9.346 -0.9504 -1.0779  0.2115
  797MOL0     H 5196   3.859   7.766   9.325  1.0838  0.9017  1.4550
  797MOL0     H 5197   3.948   7.650   9.431 -4.1857 -0.0497  2.1265
  797MOL0     H 5198   4.062   7.771   9.224 -0.4126  0.5507 -3.6336
  797MOL0     H 5199   3.969   7.653   9.128 -1.0835 -0.6975  1.1880
  797MOL0     H 5200   4.084   7.460   9.217  1.5492 -0.2184 -0.4607
  797MOL0     H 5201   4.211   7.559   9.172  0.4634 -4.4786  0.2928
  797MOL0     H 5202   4.280   7.542   9.576 -3.6502 -2.6039  1.2390
  797MOL0     H 5203   3.453   7.588   9.467  1.9578 -0.5239  0.4857
  797MOL0     H 5204   3.249   7.472   9.402  0.7283 -0.4794  0.7330
  798MOL0     O 5205   6.951  10.683   7.185  0.0602 -0.0488  0.0131
  798MOL0     C 5206   6.908  10.686   7.298 -1.0101  0.2128 -0.5309
  798MOL0     O 5207   6.780  10.689   7.339 -0.1840  0.8256 -0.2445
  798MOL0     C 5208   6.679  10.689   7.241  0.5223 -0.2744 -0.0313
  798MOL0     C 5209   6.674  10.586   7.148  0.1990 -0.2102  0.5986
  798MOL0     C 5210   6.572  10.589   7.052  0.2624  0.2670 -0.0641
  798MOL0     C 5211   6.466  10.690   7.054 -0.0394  0.1579 -0.1184
  798MOL0     O 5212   6.361  10.676   6.960  0.4805 -0.0004 -0.5667
  798MOL0     C 5213   6.291  10.794   6.930  0.8220  0.1805 -0.0715
  798MOL0     C 5214   6.181  10.769   6.837 -0.8220 -0.4353  0.2091
  798MOL0     C 5215   6.140  10.904   6.766  0.6632 -0.3417  0.7859
  798MOL0     C 5216   6.019  10.883   6.665  0.0514 -0.4490  0.1219
  798MOL0     C 5217   5.993  11.011   6.597  0.0597 -0.4107  0.0617
  798MOL0     C 5218   5.845  11.015   6.559  0.1716 -0.3867 -0.5603
  798MOL0     C 5219   5.807  11.145   6.480 -0.4168 -0.1151 -0.3381
  798MOL0     C 5220   5.759  11.261   6.568 -0.4024 -1.1424 -0.4473
  798MOL0     N 5221   5.706  11.375   6.487  0.1482 -0.5588  0.5133
  798MOL0     C 5222   5.574  11.393   6.434 -1.4145 -0.1575  0.0477
  798MOL0     C 5223   5.591  11.491   6.344  0.1125 -0.1929  0.3608
  798MOL0     C 5224   5.499  11.557   6.240 -0.3902 -0.5152 -0.2927
  798MOL0     C 5225   5.399  11.653   6.309 -0.6984  0.2198  0.3012
  798MOL0     C 5226   5.354  11.768   6.221 -0.5640 -0.6711 -0.9341
  798MOL0     C 5227   5.256  11.723   6.113 -0.1421 -0.8235  0.7851
  798MOL0     O 5228   5.141  11.688   6.177 -0.0966 -0.0769  0.3213
  798MOL0     C 5229   5.058  11.609   6.109  0.8609 -0.6875 -0.6551
  798MOL0     C 5230   5.043  11.586   5.972  0.5002  0.4352  0.0391
  798MOL0     C 5231   4.933  11.512   5.914  0.4562  1.5146 -0.0724
  798MOL0     C 5232   4.831  11.468   6.001  0.1391  0.0360  0.1004
  798MOL0     C 5233   4.706  11.397   5.952 -0.5871  0.7139  1.0631
  798MOL0     O 5234   4.589  11.428   6.018  0.1470 -0.1269 -0.0585
  798MOL0     C 5235   4.464  11.374   5.989  0.2717  0.3926  0.2114
  798MOL0     C 5236   4.355  11.454   6.021  0.3727 -1.0939  0.6954
  798MOL0     C 5237   4.228  11.411   6.002 -0.1360 -0.3796  0.8921
  798MOL0     C 5238   4.202  11.295   5.938  0.2740  0.5071  0.6434
  798MOL0     O 5239   4.067  11.284   5.903  0.1722 -0.2209 -1.3629
  798MOL0     C 5240   4.022  11.151   5.900 -0.1739 -0.1105 -0.6948
  798MOL0     C 5241   3.866  11.134   5.875 -0.2019 -0.3531 -0.4535
  798MOL0     C 5242   3.779  11.205   5.989  0.6777  0.3864  0.4595
  798MOL0     C 5243   3.636  11.203   5.951  0.0905  0.5951  0.0251
  798MOL0     C 5244   3.545  11.221   6.072  0.1324 -0.4626 -0.4759
  798MOL0     C 5245   3.401  11.192   6.044 -0.3452  0.0612  0.5214
  798MOL0     C 5246   3.317  11.201   6.176  0.1988 -0.5758 -0.1812
  798MOL0     C 5247   3.159  11.194   6.143 -0.8680 -0.1040 -0.4435
  798MOL0    Cl 5248   3.053  11.191   6.285  0.3068 -0.1873 -0.0417
  798MOL0     C 5249   4.307  11.205   5.905  0.0622  0.0673 -0.9977
  798MOL0     C 5250   4.440  11.246   5.936  0.2805  0.6255 -0.1046
  798MOL0     O 5251   4.716  11.322   5.855 -0.1126  0.2179 -0.1296
  798MOL0     C 5252   4.848  11.497   6.140 -0.1100  0.7909  0.4435
  798MOL0     C 5253   4.961  11.554   6.192  0.1457  0.0211 -0.1716
  798MOL0     N 5254   5.721  11.532   6.344 -0.4200 -0.7761  0.2674
  798MOL0     N 5255   5.789  11.473   6.443 -0.2670 -0.5284  0.1696
  798MOL0     C 5256   6.484  10.797   7.141 -0.1690 -0.2691 -0.0777
  798MOL0     C 5257   6.589  10.798   7.236  0.7176 -0.2388  0.5270
  798MOL0     C 5258   7.014  10.688   7.404 -0.0364 -0.1464  0.0073
  798MOL0     C 5259   7.155  10.695   7.383  0.4109 -0.1479  0.4922
  798MOL0     C 5260   7.247  10.748   7.472  1.4949  0.0938 -0.0989
  798MOL0     C 5261   7.209  10.771   7.603 -0.6743 -0.2105  0.1989
  798MOL0     O 5262   7.295  10.826   7.696  0.0617 -0.1751  0.2434
  798MOL0     C 5263   7.424  10.872   7.658 -0.0317  0.0072  0.1926
  798MOL0     C 5264   7.482  10.947   7.784  0.2041 -0.3902  0.4906
  798MOL0     C 5265   7.569  11.068   7.752  0.3522 -0.3143 -0.0115
  798MOL0     C 5266   7.464  11.189   7.735  0.4910  0.4757 -0.4730
  798MOL0     C 5267   7.523  11.312   7.683 -0.5525  0.4032  0.2406
  798MOL0     C 5268   7.594  11.414   7.675  0.2779  0.1482  0.0333
  798MOL0     C 5269   7.073  10.750   7.635 -0.5941 -0.9659  0.1908
  798MOL0     C 5270   6.981  10.701   7.537  0.8941 -0.2544  0.4307
  798MOL0     H 5271   6.741  10.503   7.168 -1.5232 -1.2436  2.4298
  798MOL0     H 5272   6.568  10.499   6.991 -1.4667 -0.9399  1.7263
  798MOL0     H 5273   6.363  10.867   6.890 -0.1909  1.5457  0.4941
  798MOL0     H 5274   6.250  10.844   7.019 -0.2977 -1.2761  0.2774
  798MOL0     H 5275   6.096  10.715   6.880 -1.5691 -1.0663 -1.9139
  798MOL0     H 5276   6.230  10.711   6.758  0.0148  1.2877 -0.6039
  798MOL0     H 5277   6.221  10.945   6.706 -0.3470 -2.7082 -2.4271
  798MOL0     H 5278   6.105  10.978   6.839  0.4823  0.4632 -0.0955
  798MOL0     H 5279   6.037  10.806   6.590 -0.1792 -0.7171  0.3404
  798MOL0     H 5280   5.929  10.858   6.722  1.8811 -2.3618  2.3847
  798MOL0     H 5281   6.062  11.024   6.513 -2.9298  1.2429 -2.3417
  798MOL0     H 5282   6.014  11.096   6.663 -2.9123  1.6864 -1.4738
  798MOL0     H 5283   5.782  10.999   6.647  0.5611 -0.2301 -0.2481
  798MOL0     H 5284   5.817  10.930   6.496 -1.1241 -0.5533  0.1980
  798MOL0     H 5285   5.891  11.188   6.423  1.7983 -2.9704  0.5421
  798MOL0     H 5286   5.732  11.134   6.402  0.4442  0.4464 -1.2729
  798MOL0     H 5287   5.844  11.290   6.630  0.0263 -2.1278 -0.5435
  798MOL0     H 5288   5.682  11.229   6.639  1.9852 -3.0337  1.4772
  798MOL0     H 5289   5.484  11.335   6.453 -1.9168 -0.6199 -3.2219
  798MOL0     H 5290   5.450  11.485   6.173 -0.3079 -0.6603 -0.1986
  798MOL0     H 5291   5.558  11.616   6.170 -1.7723  1.5390  0.1963
  798MOL0     H 5292   5.451  11.697   6.395  0.2077 -1.4766  0.6586
  798MOL0     H 5293   5.313  11.605   6.357 -0.5581  0.6069  0.9452
  798MOL0     H 5294   5.304  11.838   6.288 -2.1553 -3.7227  1.3045
  798MOL0     H 5295   5.438  11.808   6.164 -2.2622  4.6718 -0.2097
  798MOL0     H 5296   5.295  11.641   6.052 -1.6161 -0.6065 -0.5175
  798MOL0     H 5297   5.228  11.810   6.052  0.1672 -0.2429  1.4540
  798MOL0     H 5298   5.104  11.628   5.894  1.3868 -0.0484  0.4550
  798MOL0     H 5299   4.915  11.503   5.808  2.0092  1.3829 -0.3501
  798MOL0     H 5300   4.368  11.556   6.059 -0.9922  0.1445 -1.9279
  798MOL0     H 5301   4.149  11.475   6.039 -1.2423 -1.1759 -0.0322
  798MOL0     H 5302   4.056  11.092   5.986 -3.4728  0.4558  1.1777
  798MOL0     H 5303   4.073  11.114   5.811  0.9652  1.1353 -0.5945
  798MOL0     H 5304   3.839  11.028   5.868 -1.2471 -0.0794 -0.6993
  798MOL0     H 5305   3.829  11.182   5.784 -0.4346  1.2028  0.4145
  798MOL0     H 5306   3.805  11.311   5.995  2.0321  0.0163  1.7537
  798MOL0     H 5307   3.800  11.140   6.074 -0.5781  0.4093  0.8050
  798MOL0     H 5308   3.618  11.275   5.871  0.5595 -1.0303 -1.6234
  798MOL0     H 5309   3.616  11.105   5.906 -0.5279  0.8245 -0.2088
  798MOL0     H 5310   3.571  11.322   6.105  0.0715 -0.6432  0.1437
  798MOL0     H 5311   3.575  11.145   6.145  2.7967 -0.4430 -1.4299
  798MOL0     H 5312   3.379  11.096   5.996  1.9379  1.3419 -3.6158
  798MOL0     H 5313   3.361  11.264   5.972 -0.4380 -0.0342  0.4773
  798MOL0     H 5314   3.345  11.126   6.250 -1.1238 -4.3953 -3.2079
  798MOL0     H 5315   3.328  11.300   6.220 -0.0269 -1.6093  2.3558
  798MOL0     H 5316   3.137  11.103   6.088 -1.8929 -0.0521 -0.1573
  798MOL0     H 5317   3.129  11.280   6.082 -0.8803  0.0428 -0.2328
  798MOL0     H 5318   4.298  11.107   5.860  1.0795 -0.1829 -0.6812
  798MOL0     H 5319   4.523  11.177   5.921  0.6135  0.9836  0.0699
  798MOL0     H 5320   4.779  11.471   6.219  0.1920  1.8484  1.0736
  798MOL0     H 5321   4.974  11.586   6.295  0.0292  1.6379 -0.6217
  798MOL0     H 5322   6.418  10.884   7.146 -0.1310 -0.1722 -1.0086
  798MOL0     H 5323   6.603  10.876   7.310  0.5598  0.9836 -0.6831
  798MOL0     H 5324   7.177  10.677   7.278 -0.2706 -0.4376  0.3989
  798MOL0     H 5325   7.347  10.766   7.435  0.7733  2.2176 -1.2005
  798MOL0     H 5326   7.405  10.936   7.571 -0.8920 -0.7685 -0.2122
  798MOL0     H 5327   7.486  10.791   7.619  0.8632  1.6443 -1.9559
  798MOL0     H 5328   7.404  10.978   7.854  1.1157 -0.8808  1.7502
  798MOL0     H 5329   7.554  10.885   7.838 -0.2075 -0.7717  0.6119
  798MOL0     H 5330   7.626  11.047   7.661 -1.6396  0.8016 -1.6217
  798MOL0     H 5331   7.634  11.090   7.837 -2.8125 -0.1166  2.5586
  798MOL0     H 5332   7.383  11.174   7.663 -0.8085 -0.5044  1.1221
  798MOL0     H 5333   7.412  11.201   7.831 -1.9287 -0.5898 -1.5682
  798MOL0     H 5334   7.649  11.505   7.689  1.3166 -0.4486 -0.0704
  798MOL0     H 5335   7.025  10.778   7.729 -1.4343 -0.9563 -0.2312
  798MOL0     H 5336   6.878  10.694   7.570 -0.3941 -0.7433 -3.2281
  799MOL0     O 5337  10.311   2.351   3.973 -0.6889 -0.0157 -0.9299
  799MOL0     C 5338  10.361   2.444   3.906 -0.3272  0.0618  0.0617
  799MOL0     O 5339  10.293   2.541   3.843  0.4290  0.2015 -0.0197
  799MOL0     C 5340  10.155   2.545   3.852 -0.3691  0.5046 -0.0402
  799MOL0     C 5341  10.084   2.566   3.734  0.5655  0.6047  0.3415
  799MOL0     C 5342   9.939   2.593   3.740 -0.5443  0.1841  0.0586
  799MOL0     C 5343   9.870   2.592   3.864  0.4405 -0.0440  0.0816
  799MOL0     O 5344   9.733   2.612   3.883 -0.0554 -0.0110  0.2416
  799MOL0     C 5345   9.639   2.621   3.774 -0.2716 -0.0593  0.1158
  799MOL0     C 5346   9.507   2.538   3.805 -0.2577  0.1135  0.1888
  799MOL0     C 5347   9.418   2.614   3.911  0.5879  0.4480  0.3141
  799MOL0     C 5348   9.278   2.553   3.906 -0.0694 -0.0691  0.6310
  799MOL0     C 5349   9.195   2.587   4.031  0.0395  0.1247  0.1099
  799MOL0     C 5350   9.223   2.494   4.145 -0.6465  0.5981  0.2784
  799MOL0     C 5351   9.138   2.514   4.274  0.3845  0.1033  0.3430
  799MOL0     C 5352   9.211   2.479   4.400 -0.2835  0.2091 -0.8630
  799MOL0     N 5353   9.147   2.499   4.539  0.4264 -0.2886  0.0801
  799MOL0     C 5354   9.064   2.403   4.599 -0.8755  0.1847  0.9092
  799MOL0     C 5355   9.045   2.448   4.723  0.1878 -0.1371 -0.5702
  799MOL0     C 5356   8.981   2.377   4.845  0.6521 -0.5199 -0.0864
  799MOL0     C 5357   8.828   2.391   4.839 -0.4970 -0.8533 -0.0112
  799MOL0     C 5358   8.761   2.277   4.779 -0.4104  0.1388  0.3719
  799MOL0     C 5359   8.615   2.288   4.776  0.2044  0.4136 -0.8659
  799MOL0     O 5360   8.558   2.189   4.689  0.4350 -0.0286 -0.1881
  799MOL0     C 5361   8.415   2.193   4.681  0.5717  0.0857 -0.0145
  799MOL0     C 5362   8.358   2.170   4.555  0.1862 -0.7477  0.3432
  799MOL0     C 5363   8.221   2.181   4.542  0.2658  0.0253 -0.0052
  799MOL0     C 5364   8.139   2.220   4.644 -0.0909  0.5281  0.5310
  799MOL0     C 5365   7.992   2.230   4.626  0.0548  0.9172 -0.1826
  799MOL0     O 5366   7.919   2.256   4.741 -0.5208 -0.0319 -0.2290
  799MOL0     C 5367   7.784   2.268   4.712  0.2559  0.7309 -0.3741
  799MOL0     C 5368   7.694   2.172   4.760  0.6438  0.3494  0.8583
  799MOL0     C 5369   7.556   2.175   4.735  0.3170 -0.5487 -0.7146
  799MOL0     C 5370   7.505   2.284   4.674  0.1413  0.0651 -0.1040
  799MOL0     O 5371   7.371   2.289   4.659  0.4509 -0.4798 -0.6151
  799MOL0     C 5372   7.314   2.348   4.537 -0.0900  0.5105 -0.0824
  799MOL0     C 5373   7.164   2.319   4.545 -0.2083 -0.2034  0.1836
  799MOL0     C 5374   7.077   2.367   4.435  0.3481 -0.0962 -0.0092
  799MOL0     C 5375   6.929   2.334   4.453  0.3727 -0.2648  0.1623
  799MOL0     C 5376   6.863   2.444   4.542  0.3902 -0.0884  0.4025
  799MOL0     C 5377   6.712   2.430   4.564  0.0299  0.0571  0.6265
  799MOL0     C 5378   6.638   2.445   4.426  1.1977  1.0688 -0.2883
  799MOL0     C 5379   6.495   2.411   4.446  0.0007  0.7624  0.7434
  799MOL0    Cl 5380   6.439   2.299   4.313 -0.0447  0.0492  0.6391
  799MOL0     C 5381   7.595   2.385   4.621 -0.0110 -0.0859 -0.8100
  799MOL0     C 5382   7.730   2.383   4.652 -0.0133 -0.1822  0.6297
  799MOL0     O 5383   7.935   2.189   4.518 -0.2819  0.0200  0.0506
  799MOL0     C 5384   8.195   2.260   4.763 -0.0948 -1.1299 -0.2134
  799MOL0     C 5385   8.328   2.242   4.780  0.5810 -0.7806 -0.1456
  799MOL0     N 5386   9.089   2.582   4.724 -1.0983 -0.3807 -0.0627
  799MOL0     N 5387   9.152   2.607   4.614 -0.8190  0.3037 -0.0369
  799MOL0     C 5388   9.951   2.581   3.978 -0.0678  0.3500  0.0161
  799MOL0     C 5389  10.087   2.553   3.974 -0.0205 -0.2211  0.0774
  799MOL0     C 5390  10.505   2.428   3.879 -0.8139 -1.2001 -0.0347
  799MOL0     C 5391  10.580   2.309   3.895 -0.0751  0.2092  0.4626
  799MOL0     C 5392  10.716   2.298   3.857  0.3291 -1.2991  0.5186
  799MOL0     C 5393  10.782   2.400   3.784 -0.8352  0.3554 -0.4382
  799MOL0     O 5394  10.900   2.386   3.718  0.2774 -0.2791 -1.3795
  799MOL0     C 5395  10.995   2.290   3.768 -0.4981 -0.6270  0.6852
  799MOL0     C 5396  11.140   2.329   3.717  0.5025 -0.1307  0.0975
  799MOL0     C 5397  11.246   2.224   3.731 -0.7806  0.1236 -0.1316
  799MOL0     C 5398  11.385   2.282   3.686  0.8060 -0.2226  0.6584
  799MOL0     C 5399  11.392   2.291   3.546 -0.2246 -0.4533  0.1149
  799MOL0     C 5400  11.400   2.299   3.426  0.3300 -0.0826  0.1548
  799MOL0     C 5401  10.706   2.515   3.758  0.7818  1.3398 -1.0336
  799MOL0     C 5402  10.570   2.529   3.805 -0.4586 -0.0260 -0.2352
  799MOL0     H 5403  10.122   2.571   3.632 -2.9830  2.5850 -1.0789
  799MOL0     H 5404   9.878   2.609   3.651  0.8842 -2.7497 -1.5793
  799MOL0     H 5405   9.676   2.575   3.681 -1.1575  0.3829 -0.4668
  799MOL0     H 5406   9.609   2.723   3.749  2.2494  0.7670  0.1083
  799MOL0     H 5407   9.521   2.436   3.840  0.3656 -0.1571 -0.8115
  799MOL0     H 5408   9.454   2.529   3.710 -0.2857  2.2559 -0.0613
  799MOL0     H 5409   9.422   2.720   3.888  2.2659  0.2716 -0.3544
  799MOL0     H 5410   9.464   2.597   4.009 -0.4484  1.1531  0.9415
  799MOL0     H 5411   9.217   2.593   3.824 -0.2792 -1.7799 -0.0756
  799MOL0     H 5412   9.284   2.447   3.881 -0.6094 -0.2395  1.2147
  799MOL0     H 5413   9.088   2.575   4.008 -0.2435  0.1642  1.2916
  799MOL0     H 5414   9.201   2.693   4.057 -2.5990 -0.1848  2.5628
  799MOL0     H 5415   9.325   2.513   4.180 -0.6502 -1.2477  1.4247
  799MOL0     H 5416   9.216   2.392   4.108 -2.9469  1.3373 -1.5696
  799MOL0     H 5417   9.102   2.617   4.279  0.6619  0.1383  2.7921
  799MOL0     H 5418   9.050   2.450   4.268  2.6284 -3.1413 -1.4748
  799MOL0     H 5419   9.295   2.548   4.409 -0.0123 -0.3496  2.4906
  799MOL0     H 5420   9.268   2.386   4.404  0.2063  0.5343  2.0791
  799MOL0     H 5421   9.037   2.307   4.558  2.5229 -0.4062 -0.3453
  799MOL0     H 5422   9.027   2.425   4.932  0.4102  0.0470 -0.2722
  799MOL0     H 5423   9.017   2.273   4.852  1.8127 -0.0535  1.2046
  799MOL0     H 5424   8.802   2.481   4.782  1.3398 -2.1247 -3.0992
  799MOL0     H 5425   8.788   2.420   4.937  0.9092  4.6560 -0.7233
  799MOL0     H 5426   8.799   2.252   4.680  0.3360 -1.4223  1.0142
  799MOL0     H 5427   8.781   2.197   4.852  0.9633  2.7717  3.1367
  799MOL0     H 5428   8.590   2.388   4.741  0.7708  0.2643 -1.7511
  799MOL0     H 5429   8.575   2.278   4.877 -1.1272  0.9348 -1.3237
  799MOL0     H 5430   8.417   2.141   4.469  0.9987  2.8481 -0.4772
  799MOL0     H 5431   8.177   2.140   4.452  0.2049  0.2877 -0.0987
  799MOL0     H 5432   7.734   2.083   4.809 -1.6748 -2.0231 -1.1987
  799MOL0     H 5433   7.490   2.104   4.783  1.9304  0.8728  4.3398
  799MOL0     H 5434   7.356   2.311   4.443  2.5086 -0.6126  1.4079
  799MOL0     H 5435   7.327   2.457   4.536 -1.1193  0.6446  0.2445
  799MOL0     H 5436   7.131   2.351   4.644 -0.2726 -1.5275  0.6115
  799MOL0     H 5437   7.160   2.210   4.538  0.8094 -0.2430  0.0936
  799MOL0     H 5438   7.113   2.323   4.341 -3.5818  0.6751 -2.1252
  799MOL0     H 5439   7.092   2.475   4.422 -3.4602  0.3907 -1.8448
  799MOL0     H 5440   6.881   2.328   4.355 -0.9279  3.6434  0.3976
  799MOL0     H 5441   6.907   2.242   4.508 -4.0817  1.6174  2.0169
  799MOL0     H 5442   6.874   2.545   4.500 -1.4734 -0.3098 -0.7526
  799MOL0     H 5443   6.908   2.441   4.642 -2.7520  1.4626  1.9929
  799MOL0     H 5444   6.666   2.513   4.618  1.6280  0.4884  1.3558
  799MOL0     H 5445   6.681   2.337   4.615 -1.1408  0.1635  0.1509
  799MOL0     H 5446   6.641   2.544   4.382  1.3009  0.7294 -1.0565
  799MOL0     H 5447   6.678   2.378   4.349 -0.0385 -0.9342  0.7033
  799MOL0     H 5448   6.439   2.503   4.459  0.9288  1.5420 -0.4556
  799MOL0     H 5449   6.489   2.352   4.538  1.6606 -0.6511  0.0089
  799MOL0     H 5450   7.549   2.462   4.558  0.6114 -0.6978 -2.0507
  799MOL0     H 5451   7.790   2.466   4.616 -0.4654 -0.1977 -0.1862
  799MOL0     H 5452   8.137   2.299   4.846  0.4081  0.4110 -0.5582
  799MOL0     H 5453   8.362   2.287   4.873 -0.5327 -1.3922  0.5841
  799MOL0     H 5454   9.886   2.584   4.065 -3.3674  0.1600 -2.2696
  799MOL0     H 5455  10.143   2.534   4.065  0.7133 -1.0046 -0.5141
  799MOL0     H 5456  10.535   2.222   3.941  1.2475  1.2909  4.1975
  799MOL0     H 5457  10.762   2.200   3.865 -0.2410 -1.5495  0.7489
  799MOL0     H 5458  10.966   2.187   3.745  3.1499 -2.3637  3.0019
  799MOL0     H 5459  11.007   2.300   3.876 -0.5317  1.7535  0.5168
  799MOL0     H 5460  11.134   2.342   3.609  3.7135  1.0720 -0.0528
  799MOL0     H 5461  11.171   2.428   3.753  0.4433  0.2203 -0.7961
  799MOL0     H 5462  11.216   2.142   3.666 -3.9533  1.8352 -1.0693
  799MOL0     H 5463  11.241   2.197   3.837  0.6126  0.4401  0.0374
  799MOL0     H 5464  11.405   2.379   3.732  0.9936 -1.0143  2.3053
  799MOL0     H 5465  11.466   2.213   3.712  1.3566  0.3534  0.5046
  799MOL0     H 5466  11.410   2.298   3.320 -2.1610  1.6069 -0.1814
  799MOL0     H 5467  10.740   2.587   3.685  1.7748  0.9727 -0.9489
  799MOL0     H 5468  10.512   2.617   3.778 -0.4703  0.8673  2.4698
  800MOL0     O 5469  11.055  10.145   1.570 -0.3006  0.2406  1.0251
  800MOL0     C 5470  11.023  10.197   1.678  0.6669 -1.0021  0.2817
  800MOL0     O 5471  10.934  10.144   1.764 -0.1428 -0.7749 -0.0228
  800MOL0     C 5472  10.870  10.026   1.732 -0.8708 -0.3543  0.3735
  800MOL0     C 5473  10.737  10.027   1.709  0.1071  0.0470  0.5447
  800MOL0     C 5474  10.673   9.910   1.672  0.6531 -0.0530  1.1975
  800MOL0     C 5475  10.748   9.798   1.655 -0.6227  0.0989  0.2966
  800MOL0     O 5476  10.680   9.694   1.601 -0.6682  0.4414 -0.3536
  800MOL0     C 5477  10.724   9.565   1.639 -0.3245  0.0174 -0.0757
  800MOL0     C 5478  10.635   9.447   1.593  0.1206 -0.4441  0.1867
  800MOL0     C 5479  10.485   9.468   1.603 -0.1683  0.0058  0.2173
  800MOL0     C 5480  10.397   9.358   1.535  0.1364 -0.3317  0.6334
  800MOL0     C 5481  10.247   9.406   1.509  0.2691 -0.1476 -0.0038
  800MOL0     C 5482  10.143   9.308   1.461  1.0661  0.9370  0.8225
  800MOL0     C 5483   9.993   9.361   1.470  0.3765  0.5320 -0.5390
  800MOL0     C 5484   9.885   9.257   1.451  0.4636  0.6611  0.6988
  800MOL0     N 5485   9.749   9.305   1.423  0.0638 -0.2727  0.6134
  800MOL0     C 5486   9.704   9.370   1.305 -0.5608  0.1913 -0.2597
  800MOL0     C 5487   9.588   9.418   1.333 -0.1408 -1.1199  0.6339
  800MOL0     C 5488   9.508   9.511   1.240  0.0747 -0.5891 -0.1078
  800MOL0     C 5489   9.368   9.454   1.206  0.8709  0.0004 -0.3650
  800MOL0     C 5490   9.265   9.415   1.322  0.9986 -0.6529  1.1383
  800MOL0     C 5491   9.148   9.328   1.259 -0.5734  0.6647  0.2672
  800MOL0     O 5492   9.034   9.297   1.353 -0.1149 -0.1544 -0.7689
  800MOL0     C 5493   8.935   9.385   1.371 -0.6911  0.3876 -0.9332
  800MOL0     C 5494   8.923   9.512   1.324 -1.5535 -0.1691  0.2584
  800MOL0     C 5495   8.814   9.594   1.353  0.1405  0.0746  0.3733
  800MOL0     C 5496   8.706   9.550   1.428 -0.2239 -0.4227  0.1034
  800MOL0     C 5497   8.586   9.632   1.440  0.9659  0.4534  0.6310
  800MOL0     O 5498   8.590   9.765   1.418  0.6023 -0.1732  0.1657
  800MOL0     C 5499   8.467   9.827   1.430  1.1237 -0.2046 -0.9416
  800MOL0     C 5500   8.386   9.820   1.320  0.3689  0.9612  0.3313
  800MOL0     C 5501   8.258   9.861   1.320  0.0293  0.1563 -0.5356
  800MOL0     C 5502   8.212   9.934   1.436  1.1095  0.8885  0.0970
  800MOL0     O 5503   8.096  10.007   1.415  0.1796 -0.2380 -0.5308
  800MOL0     C 5504   8.016   9.996   1.294 -0.5132 -0.4043  0.1914
  800MOL0     C 5505   7.887  10.053   1.343  1.2254 -0.9814  0.1820
  800MOL0     C 5506   7.879  10.192   1.406 -0.7227  0.7499 -0.6890
  800MOL0     C 5507   7.744  10.238   1.459 -0.7551  1.1607  0.8054
  800MOL0     C 5508   7.642  10.285   1.355 -0.7245  0.5334 -0.5793
  800MOL0     C 5509   7.503  10.308   1.424  0.0755 -0.5344 -0.1130
  800MOL0     C 5510   7.506  10.414   1.527  0.1784 -0.1612 -0.5341
  800MOL0     C 5511   7.461  10.374   1.663 -0.0727 -0.4345 -0.0130
  800MOL0    Cl 5512   7.437  10.515   1.767  0.4089 -0.2952 -0.2545
  800MOL0     C 5513   8.293   9.953   1.551  0.7296 -0.0727 -0.0677
  800MOL0     C 5514   8.422   9.892   1.551  0.8847 -0.1403 -0.2499
  800MOL0     O 5515   8.483   9.574   1.470 -0.3666 -0.2683  0.2543
  800MOL0     C 5516   8.718   9.425   1.477  0.7287  0.0140 -0.6952
  800MOL0     C 5517   8.830   9.345   1.461  0.2566 -0.2154 -0.1992
  800MOL0     N 5518   9.554   9.370   1.459 -0.3526 -0.0367  0.2634
  800MOL0     N 5519   9.651   9.309   1.512 -0.2981  0.0222 -0.3862
  800MOL0     C 5520  10.881   9.793   1.701 -0.4598  0.4590  0.4891
  800MOL0     C 5521  10.951   9.917   1.733 -0.1289 -0.1656 -0.1679
  800MOL0     C 5522  11.076  10.332   1.696  1.1636 -0.6362  0.2846
  800MOL0     C 5523  11.169  10.385   1.614 -0.0033 -0.3378  0.3791
  800MOL0     C 5524  11.213  10.525   1.624  0.1424 -0.0804 -0.3015
  800MOL0     C 5525  11.148  10.602   1.724  0.4547 -0.2654 -0.1602
  800MOL0     O 5526  11.188  10.732   1.733  0.3269 -0.0277 -0.4763
  800MOL0     C 5527  11.148  10.824   1.837 -0.6134  0.3272 -0.5954
  800MOL0     C 5528  11.237  10.945   1.829 -0.0199 -0.6106  0.2132
  800MOL0     C 5529  11.209  11.022   1.696 -0.2112 -0.2859  0.5834
  800MOL0     C 5530  11.299  11.150   1.690  0.9576  0.0299  1.1170
  800MOL0     C 5531  11.258  11.218   1.557 -0.5553 -0.0756 -0.1678
  800MOL0     C 5532  11.223  11.255   1.448  0.7029 -0.0416  0.5640
  800MOL0     C 5533  11.047  10.548   1.805  0.6581  0.0984  0.4025
  800MOL0     C 5534  11.007  10.416   1.786  0.1499  0.1320 -0.0542
  800MOL0     H 5535  10.693  10.126   1.716 -0.0469 -0.1079  2.0469
  800MOL0     H 5536  10.565   9.910   1.665  0.5401 -1.7951  2.2983
  800MOL0     H 5537  10.719   9.552   1.748 -1.8227 -2.7903 -0.3676
  800MOL0     H 5538  10.827   9.541   1.609 -1.3095 -0.7099 -3.2870
  800MOL0     H 5539  10.663   9.350   1.634  1.4355  0.3673  1.2923
  800MOL0     H 5540  10.662   9.441   1.487 -0.1790 -1.3730  0.1604
  800MOL0     H 5541  10.466   9.562   1.551  1.7429  0.3267  0.0182
  800MOL0     H 5542  10.463   9.479   1.710  1.0304 -1.1870  0.6177
  800MOL0     H 5543  10.437   9.327   1.438  0.4383 -1.5939  1.1413
  800MOL0     H 5544  10.385   9.269   1.598 -3.8710  0.6968  1.6246
  800MOL0     H 5545  10.248   9.492   1.441  0.3444  0.0357  0.2262
  800MOL0     H 5546  10.211   9.452   1.602  0.8167 -0.1173  0.2033
  800MOL0     H 5547  10.143   9.222   1.529 -0.1388  1.0147  0.9447
  800MOL0     H 5548  10.166   9.272   1.361  0.5529 -0.6432  1.2470
  800MOL0     H 5549   9.994   9.391   1.575  2.0832  0.2168 -0.4392
  800MOL0     H 5550   9.979   9.445   1.401  3.3773  2.3082  0.8075
  800MOL0     H 5551   9.881   9.188   1.536 -1.5462  0.5748  0.5882
  800MOL0     H 5552   9.920   9.201   1.364  0.5638  2.0342 -0.1739
  800MOL0     H 5553   9.756   9.373   1.210 -0.6180 -1.4891 -0.3739
  800MOL0     H 5554   9.556   9.519   1.142 -2.7763  1.8252 -1.4818
  800MOL0     H 5555   9.500   9.615   1.275  1.0087 -0.0405 -1.4265
  800MOL0     H 5556   9.371   9.369   1.137 -2.0975 -0.1946 -0.3854
  800MOL0     H 5557   9.324   9.533   1.143  1.8675 -0.5470 -1.8068
  800MOL0     H 5558   9.311   9.363   1.406  0.7375 -0.4941  1.3831
  800MOL0     H 5559   9.219   9.509   1.355 -0.8082 -0.6705 -1.0475
  800MOL0     H 5560   9.199   9.238   1.225  0.5015  1.8573 -1.4963
  800MOL0     H 5561   9.117   9.380   1.167  1.2880  0.3054 -0.6091
  800MOL0     H 5562   9.008   9.548   1.266 -1.9002 -2.4832 -1.8283
  800MOL0     H 5563   8.797   9.694   1.313  1.5279  0.1129 -0.1620
  800MOL0     H 5564   8.434   9.772   1.236  0.9584 -0.3624  1.3789
  800MOL0     H 5565   8.199   9.865   1.229 -0.9898  3.1601  0.1670
  800MOL0     H 5566   8.003   9.891   1.267  0.8897 -0.8812  1.3044
  800MOL0     H 5567   8.048  10.063   1.213 -1.5481  0.0241  0.1184
  800MOL0     H 5568   7.842   9.986   1.417 -0.1975  1.2769  1.4567
  800MOL0     H 5569   7.809  10.051   1.267 -0.6418 -0.7016  1.9953
  800MOL0     H 5570   7.923  10.269   1.341  1.3360  0.5993  0.4578
  800MOL0     H 5571   7.947  10.192   1.491 -1.2642 -2.5248 -0.1332
  800MOL0     H 5572   7.697  10.156   1.514 -0.7532 -2.2669 -3.6511
  800MOL0     H 5573   7.775  10.309   1.536  1.4842 -0.6031  1.6568
  800MOL0     H 5574   7.632  10.207   1.279 -0.4655  1.2330 -1.3361
  800MOL0     H 5575   7.666  10.375   1.299 -0.6477  0.0403 -1.3517
  800MOL0     H 5576   7.479  10.216   1.478  1.4443 -0.9386 -0.1396
  800MOL0     H 5577   7.417  10.334   1.361 -0.9687 -1.3986  0.9059
  800MOL0     H 5578   7.601  10.470   1.532 -0.1927  0.4093  0.4459
  800MOL0     H 5579   7.445  10.496   1.487  0.2030  0.2907  0.3305
  800MOL0     H 5580   7.528  10.300   1.708  0.0277 -1.1838 -1.3504
  800MOL0     H 5581   7.357  10.340   1.658 -1.5396  3.4971 -0.0173
  800MOL0     H 5582   8.252  10.014   1.631 -0.8016  2.0020 -2.2716
  800MOL0     H 5583   8.490   9.898   1.635  0.9780 -0.1163 -0.3266
  800MOL0     H 5584   8.632   9.388   1.532  1.0358  0.9369  0.4475
  800MOL0     H 5585   8.843   9.246   1.502  3.2066  0.7507  1.5173
  800MOL0     H 5586  10.945   9.706   1.696 -0.9885 -0.0627  2.0460
  800MOL0     H 5587  11.054   9.922   1.766  0.4344 -0.4029 -1.7688
  800MOL0     H 5588  11.219  10.319   1.544 -0.8724 -0.5385 -0.0693
  800MOL0     H 5589  11.289  10.567   1.559 -0.2726  0.7405 -0.2766
  800MOL0     H 5590  11.169  10.771   1.931 -0.3107  4.2335  1.7733
  800MOL0     H 5591  11.039  10.835   1.833 -1.1644 -2.4730  2.4396
  800MOL0     H 5592  11.208  11.012   1.910  1.7226 -1.3136  1.4754
  800MOL0     H 5593  11.343  10.928   1.852  0.7853  0.9098 -1.9177
  800MOL0     H 5594  11.104  11.052   1.692 -0.4326 -1.1003 -0.0348
  800MOL0     H 5595  11.234  10.956   1.613 -1.3296 -0.4017  0.3271
  800MOL0     H 5596  11.263  11.218   1.768 -4.2123  0.6641 -1.3512
  800MOL0     H 5597  11.404  11.122   1.701  0.9533 -0.9778 -1.0541
  800MOL0     H 5598  11.192  11.286   1.350 -1.4729  0.4650  1.3451
  800MOL0     H 5599  10.982  10.601   1.874 -0.1333  1.8365 -1.5695
  800MOL0     H 5600  10.932  10.361   1.841  0.6124 -1.6611 -1.1547
  801MOL0     O 5601   3.141   0.476   6.299 -0.1357 -0.4573  0.3566
  801MOL0     C 5602   3.148   0.398   6.203  0.3452 -0.5041  0.0038
  801MOL0     O 5603   3.042   0.334   6.142 -0.1791 -0.8202  0.6880
  801MOL0     C 5604   2.918   0.351   6.188  0.7779  0.3683 -1.0726
  801MOL0     C 5605   2.838   0.248   6.214  0.0469  0.3674  0.0113
  801MOL0     C 5606   2.701   0.261   6.253 -0.0705  0.1523  0.7037
  801MOL0     C 5607   2.638   0.390   6.254 -0.3269  0.9353 -0.8668
  801MOL0     O 5608   2.498   0.394   6.276 -0.9968 -0.1965 -0.0596
  801MOL0     C 5609   2.451   0.532   6.307 -0.2403  0.2892 -0.0994
  801MOL0     C 5610   2.299   0.518   6.310  0.2927 -1.0251 -0.5471
  801MOL0     C 5611   2.251   0.429   6.428  0.1190  0.3275 -0.4950
  801MOL0     C 5612   2.105   0.389   6.411 -0.2486  0.0632  0.5028
  801MOL0     C 5613   2.067   0.290   6.520 -0.1925 -0.6250 -0.6993
  801MOL0     C 5614   1.919   0.259   6.518 -0.4618  0.4551  0.5672
  801MOL0     C 5615   1.902   0.121   6.587 -0.2825  0.8385  0.6374
  801MOL0     C 5616   1.758   0.080   6.613 -0.1108  0.5264 -0.1431
  801MOL0     N 5617   1.675   0.094   6.493 -0.0086  0.0366  0.6986
  801MOL0     C 5618   1.602   0.205   6.450  0.2429  0.1987  0.4043
  801MOL0     C 5619   1.540   0.158   6.342  0.6006  1.0512 -0.5201
  801MOL0     C 5620   1.444   0.232   6.258 -0.1542 -0.6482 -0.3430
  801MOL0     C 5621   1.365   0.152   6.154  0.1700 -0.3453  1.1325
  801MOL0     C 5622   1.267   0.239   6.076  0.0941  0.4432 -0.4811
  801MOL0     C 5623   1.146   0.272   6.158  1.0516  0.8174 -0.5254
  801MOL0     O 5624   1.042   0.315   6.069 -0.3457  0.4700 -0.6467
  801MOL0     C 5625   0.919   0.305   6.112 -0.5079 -0.3096  0.3966
  801MOL0     C 5626   0.839   0.407   6.058  0.0139 -0.9206  0.0697
  801MOL0     C 5627   0.703   0.407   6.088 -0.3712 -0.7431  0.3680
  801MOL0     C 5628   0.642   0.310   6.172 -0.1377 -0.3906 -0.2261
  801MOL0     C 5629   0.500   0.320   6.212 -0.8711  0.0273 -0.6453
  801MOL0     O 5630   0.419   0.406   6.142  0.4240  0.4832 -0.8701
  801MOL0     C 5631   0.281   0.391   6.158  0.2268  1.0511 -0.7612
  801MOL0     C 5632   0.213   0.354   6.048 -0.2185  0.0244  1.0470
  801MOL0     C 5633   0.068   0.346   6.049 -0.4175 -0.3336  1.5725
  801MOL0     C 5634  -0.008   0.385   6.164 -0.0810  0.0684  0.2579
  801MOL0     O 5635  -0.146   0.416   6.171 -0.3899  0.2473 -0.1242
  801MOL0     C 5636  -0.186   0.493   6.060  0.3384 -0.1763 -0.8364
  801MOL0     C 5637  -0.343   0.508   6.054 -0.0032 -0.7967  0.4015
  801MOL0     C 5638  -0.405   0.370   6.082 -0.7886  0.0701 -0.3516
  801MOL0     C 5639  -0.556   0.370   6.063 -0.4614  0.0491 -0.2017
  801MOL0     C 5640  -0.626   0.235   6.065 -0.0966  0.2572 -0.2857
  801MOL0     C 5641  -0.777   0.244   6.056  0.0651  0.1415 -0.8026
  801MOL0     C 5642  -0.819   0.321   5.935  1.1459  0.8408 -0.3696
  801MOL0     C 5643  -0.964   0.279   5.913 -0.2845 -0.3959  0.1037
  801MOL0    Cl 5644  -1.061   0.352   6.050  0.0753  0.3344 -0.6856
  801MOL0     C 5645   0.071   0.415   6.281 -0.3603 -0.1199  0.3484
  801MOL0     C 5646   0.211   0.420   6.275 -1.0506  0.6237 -0.5943
  801MOL0     O 5647   0.468   0.254   6.306  0.0062 -1.0417 -0.2112
  801MOL0     C 5648   0.730   0.207   6.224 -0.1812 -0.0531 -0.4652
  801MOL0     C 5649   0.868   0.209   6.199  0.6951  0.4638 -0.0530
  801MOL0     N 5650   1.569   0.026   6.327 -0.2771 -0.4919  0.8685
  801MOL0     N 5651   1.652  -0.008   6.415 -1.1242 -0.7996 -0.5577
  801MOL0     C 5652   2.727   0.493   6.230 -0.5383  0.5854  0.2033
  801MOL0     C 5653   2.862   0.479   6.186 -0.7965  0.0565  1.1050
  801MOL0     C 5654   3.284   0.381   6.143 -0.1929 -0.0535  0.0583
  801MOL0     C 5655   3.405   0.399   6.219 -0.6330 -0.5844  0.4404
  801MOL0     C 5656   3.516   0.373   6.151  0.2308 -0.0467  0.0587
  801MOL0     C 5657   3.531   0.339   6.015 -0.5304 -0.2513  1.0635
  801MOL0     O 5658   3.653   0.318   5.958 -0.5652 -0.0138  0.3101
  801MOL0     C 5659   3.667   0.324   5.810 -0.1524  0.3959 -0.8085
  801MOL0     C 5660   3.792   0.402   5.777  0.7652  0.5448  0.1907
  801MOL0     C 5661   3.763   0.550   5.818  0.0881  0.1129 -0.0110
  801MOL0     C 5662   3.901   0.625   5.804  1.1290  0.0727 -0.1732
  801MOL0     C 5663   3.924   0.654   5.660  0.7189  0.0759  1.3159
  801MOL0     C 5664   3.962   0.678   5.544 -0.4126 -0.9476  0.1494
  801MOL0     C 5665   3.408   0.314   5.951  0.0998  0.2173  0.2560
  801MOL0     C 5666   3.294   0.336   6.019 -0.4606 -0.3882  0.1118
  801MOL0     H 5667   2.878   0.147   6.211  0.2458  0.4152  0.7725
  801MOL0     H 5668   2.649   0.168   6.273  1.4010 -0.6444  0.9642
  801MOL0     H 5669   2.475   0.601   6.225  0.7403  1.9885  1.5338
  801MOL0     H 5670   2.495   0.571   6.400 -0.8634 -3.2388  1.8635
  801MOL0     H 5671   2.262   0.462   6.223 -2.9089 -4.3991  2.5901
  801MOL0     H 5672   2.250   0.615   6.321  0.8625 -0.5740 -1.8423
  801MOL0     H 5673   2.263   0.482   6.523 -0.6125 -0.1419 -0.1346
  801MOL0     H 5674   2.321   0.347   6.447  2.8268  2.6658  0.4712
  801MOL0     H 5675   2.038   0.475   6.416  1.1589  1.3650 -1.4421
  801MOL0     H 5676   2.093   0.346   6.311  0.0436  0.3944  0.3243
  801MOL0     H 5677   2.087   0.341   6.615 -0.5653 -1.7348 -0.0051
  801MOL0     H 5678   2.127   0.199   6.514  1.2292  0.2004  0.2223
  801MOL0     H 5679   1.875   0.257   6.417  4.1777 -1.4963 -1.7254
  801MOL0     H 5680   1.859   0.327   6.579 -1.5929 -0.9936  1.1434
  801MOL0     H 5681   1.939   0.053   6.509 -0.9888  2.8865 -1.6014
  801MOL0     H 5682   1.971   0.118   6.671  1.6300  1.0227 -0.8640
  801MOL0     H 5683   1.721   0.142   6.695  0.5264  0.0275  0.5317
  801MOL0     H 5684   1.752  -0.027   6.632  0.4846  0.5230  0.0566
  801MOL0     H 5685   1.600   0.306   6.490  0.1315  0.5765 -0.5415
  801MOL0     H 5686   1.494   0.311   6.201 -1.0863  0.8986  0.8800
  801MOL0     H 5687   1.373   0.284   6.324  0.2423 -0.9732  0.3475
  801MOL0     H 5688   1.306   0.069   6.192 -0.2856 -0.3824  0.3772
  801MOL0     H 5689   1.446   0.104   6.097  0.4827  1.3363  0.0666
  801MOL0     H 5690   1.317   0.335   6.056  0.2712  0.8415  1.6040
  801MOL0     H 5691   1.229   0.194   5.984 -2.4218  3.3382 -1.0498
  801MOL0     H 5692   1.170   0.357   6.223 -3.2791  0.5894  1.7590
  801MOL0     H 5693   1.127   0.186   6.223  1.2612  1.0693 -0.1243
  801MOL0     H 5694   0.881   0.488   5.999 -0.6164 -1.1564 -0.7125
  801MOL0     H 5695   0.639   0.483   6.043 -1.4492 -1.2667  0.9763
  801MOL0     H 5696   0.260   0.307   5.962  0.2381  0.9773  0.7622
  801MOL0     H 5697   0.011   0.327   5.959  2.9554 -0.6096 -0.7146
  801MOL0     H 5698  -0.159   0.430   5.975  0.4875  1.5066 -2.0836
  801MOL0     H 5699  -0.128   0.585   6.059  1.7016 -0.9415  1.3583
  801MOL0     H 5700  -0.376   0.548   5.958  0.4116  0.0560  0.6029
  801MOL0     H 5701  -0.385   0.579   6.126 -2.5745 -1.4200 -0.3849
  801MOL0     H 5702  -0.390   0.328   6.182 -3.0115 -0.2791 -0.1210
  801MOL0     H 5703  -0.350   0.297   6.021  0.6718  1.4517 -0.7690
  801MOL0     H 5704  -0.608   0.437   6.132  0.4917  0.9729 -0.3544
  801MOL0     H 5705  -0.574   0.414   5.964 -0.1356  0.1081 -0.2349
  801MOL0     H 5706  -0.593   0.183   6.156 -1.2711 -1.8247 -0.9867
  801MOL0     H 5707  -0.595   0.170   5.983 -0.8005 -0.1556 -0.2373
  801MOL0     H 5708  -0.808   0.294   6.148  1.5516  2.9429 -1.7142
  801MOL0     H 5709  -0.813   0.141   6.047 -0.8935  0.5837 -2.6531
  801MOL0     H 5710  -0.806   0.429   5.947 -0.7459  0.9438  1.2104
  801MOL0     H 5711  -0.758   0.291   5.849 -0.1668 -2.3103 -0.3139
  801MOL0     H 5712  -0.976   0.170   5.903  1.7863 -0.5100 -2.0234
  801MOL0     H 5713  -0.995   0.317   5.815  3.1211 -1.8736 -1.7223
  801MOL0     H 5714   0.026   0.446   6.375  0.5715 -1.4760  1.2888
  801MOL0     H 5715   0.275   0.438   6.361 -0.2620 -3.1196 -0.1979
  801MOL0     H 5716   0.699   0.134   6.298  1.7960 -1.5919 -1.0444
  801MOL0     H 5717   0.921   0.127   6.247  0.7375 -0.3683 -1.4681
  801MOL0     H 5718   2.696   0.595   6.210  2.0749  1.2519 -0.8491
  801MOL0     H 5719   2.918   0.564   6.150  1.7050 -1.4898  1.1229
  801MOL0     H 5720   3.406   0.424   6.324 -1.5611 -2.8745  1.0687
  801MOL0     H 5721   3.611   0.386   6.202 -0.1844 -0.3858  0.9368
  801MOL0     H 5722   3.573   0.362   5.769 -0.2788  0.4763 -0.4467
  801MOL0     H 5723   3.675   0.223   5.770  1.3215 -0.1805  0.8219
  801MOL0     H 5724   3.875   0.366   5.839  0.7989  0.5868  0.1692
  801MOL0     H 5725   3.820   0.390   5.672 -2.6830 -2.5268 -0.5725
  801MOL0     H 5726   3.726   0.548   5.921  0.8970 -0.6452  0.2742
  801MOL0     H 5727   3.688   0.603   5.758  2.9670  3.6348 -0.8180
  801MOL0     H 5728   3.891   0.721   5.856  0.1398  1.9795 -3.5587
  801MOL0     H 5729   3.986   0.572   5.847  0.0456  0.3488  2.5039
  801MOL0     H 5730   4.007   0.682   5.447 -1.3701 -2.3879 -0.3927
  801MOL0     H 5731   3.411   0.284   5.847 -1.0484  1.2867 -0.1128
  801MOL0     H 5732   3.207   0.298   5.965  0.5791 -0.7655 -1.3430
  802MOL0     O 5733   8.243   8.739   1.350  0.6047  0.8973 -0.5796
  802MOL0     C 5734   8.255   8.664   1.446  0.4912  0.2147 -1.0020
  802MOL0     O 5735   8.157   8.620   1.531 -0.5079  0.5062 -0.6826
  802MOL0     C 5736   8.038   8.675   1.502 -0.2328  1.0055  0.4702
  802MOL0     C 5737   7.923   8.608   1.454 -0.8106  0.7377 -0.2761
  802MOL0     C 5738   7.809   8.679   1.419 -0.1447 -0.2473 -1.2076
  802MOL0     C 5739   7.797   8.812   1.464 -0.2742 -1.0171 -0.5804
  802MOL0     O 5740   7.681   8.878   1.435  0.2223 -0.4366  0.9610
  802MOL0     C 5741   7.582   8.859   1.536 -0.0633 -0.8359 -0.9603
  802MOL0     C 5742   7.492   8.743   1.501 -0.1225 -0.4543  0.1760
  802MOL0     C 5743   7.361   8.735   1.580  0.2062 -0.6712  0.3810
  802MOL0     C 5744   7.270   8.853   1.564  0.1217  0.2347 -0.2241
  802MOL0     C 5745   7.136   8.845   1.642  0.1448 -0.5459 -0.3373
  802MOL0     C 5746   7.014   8.921   1.574  0.2973 -0.1136  0.0822
  802MOL0     C 5747   6.877   8.911   1.651  0.1152 -1.2028 -0.2753
  802MOL0     C 5748   6.820   8.768   1.635  0.4305  0.0851 -0.4674
  802MOL0     N 5749   6.686   8.762   1.700 -0.4904  0.2955  0.7669
  802MOL0     C 5750   6.566   8.768   1.632 -0.4389 -0.9811  1.0503
  802MOL0     C 5751   6.480   8.719   1.725 -0.5330 -0.4879 -0.5807
  802MOL0     C 5752   6.339   8.684   1.709  0.0540  0.5085  0.0653
  802MOL0     C 5753   6.238   8.765   1.786 -0.3231 -0.5211 -0.2765
  802MOL0     C 5754   6.094   8.724   1.748 -0.2752  0.2808  0.3472
  802MOL0     C 5755   6.000   8.817   1.804 -0.1812  0.2422 -0.4111
  802MOL0     O 5756   5.877   8.761   1.773  0.1996 -0.2426  0.6632
  802MOL0     C 5757   5.768   8.839   1.807  0.1186 -0.0600  0.3370
  802MOL0     C 5758   5.779   8.966   1.863 -0.0369 -0.7011 -0.9251
  802MOL0     C 5759   5.665   9.054   1.873 -0.7350  0.9693  0.0971
  802MOL0     C 5760   5.544   9.009   1.820 -0.9177 -0.0552 -0.4858
  802MOL0     C 5761   5.429   9.102   1.822  0.3148 -0.0923  0.1864
  802MOL0     O 5762   5.444   9.214   1.899 -0.1870  0.1162 -0.6091
  802MOL0     C 5763   5.369   9.334   1.890 -0.3809 -0.6876 -0.2470
  802MOL0     C 5764   5.274   9.355   1.791  0.4790 -0.5152  0.3098
  802MOL0     C 5765   5.206   9.478   1.790 -1.0511 -0.4477 -0.8570
  802MOL0     C 5766   5.227   9.568   1.893  0.3900 -0.8509 -0.0929
  802MOL0     O 5767   5.127   9.667   1.913 -1.4642 -0.2362  0.1885
  802MOL0     C 5768   5.095   9.765   1.805 -0.2791 -0.1590 -0.6364
  802MOL0     C 5769   5.215   9.860   1.787 -0.2800 -0.5411  0.3586
  802MOL0     C 5770   5.180  10.003   1.752  0.7129 -0.5240  0.5520
  802MOL0     C 5771   5.092  10.016   1.626 -0.2017  0.8775  0.1872
  802MOL0     C 5772   5.089  10.159   1.563 -0.4073  0.0362 -0.3332
  802MOL0     C 5773   5.055  10.149   1.418 -0.1164  0.8685 -0.6383
  802MOL0     C 5774   5.083  10.281   1.343 -0.5827 -0.2250 -0.4713
  802MOL0     C 5775   4.963  10.375   1.342  0.3776 -0.2182  0.5138
  802MOL0    Cl 5776   4.837  10.305   1.252 -0.2019  0.4352  0.3102
  802MOL0     C 5777   5.326   9.545   1.985 -0.7496 -0.2598 -0.5046
  802MOL0     C 5778   5.412   9.435   1.979 -0.3557 -0.6725  0.2368
  802MOL0     O 5779   5.334   9.076   1.749  0.2301 -0.0789  0.0217
  802MOL0     C 5780   5.534   8.883   1.761 -0.3324 -0.3577 -0.3634
  802MOL0     C 5781   5.643   8.798   1.767 -0.2599 -0.2055  0.3371
  802MOL0     N 5782   6.532   8.710   1.855 -0.0705  0.0386 -0.6954
  802MOL0     N 5783   6.657   8.731   1.834  0.1327 -0.2707 -0.1347
  802MOL0     C 5784   7.904   8.878   1.529 -0.2776  1.0694 -0.1878
  802MOL0     C 5785   8.026   8.812   1.538 -0.0482 -0.4565 -0.0114
  802MOL0     C 5786   8.395   8.634   1.487 -0.0425 -0.1439 -0.2524
  802MOL0     C 5787   8.427   8.589   1.618 -0.2300 -0.5551 -0.0040
  802MOL0     C 5788   8.558   8.579   1.665  0.5419  0.5326  1.5302
  802MOL0     C 5789   8.665   8.590   1.571 -0.6341  0.6607  0.1288
  802MOL0     O 5790   8.791   8.554   1.619  0.1403 -0.2420  0.8546
  802MOL0     C 5791   8.906   8.629   1.575 -0.9124 -0.3899  0.1842
  802MOL0     C 5792   9.010   8.659   1.694 -0.0644 -0.1770  0.2266
  802MOL0     C 5793   8.946   8.685   1.834 -0.6789 -0.0204  0.7933
  802MOL0     C 5794   8.870   8.810   1.823 -0.5357 -0.4824 -0.2543
  802MOL0     C 5795   8.821   8.832   1.955  0.7029 -0.3490 -0.6200
  802MOL0     C 5796   8.784   8.873   2.066 -0.0944  0.5671  0.6176
  802MOL0     C 5797   8.640   8.636   1.445  0.0274  0.4379 -0.4125
  802MOL0     C 5798   8.509   8.655   1.406  0.3942 -0.3010  0.7668
  802MOL0     H 5799   7.929   8.505   1.422  0.9316  0.1903  1.5944
  802MOL0     H 5800   7.727   8.627   1.372 -0.6328 -2.5350  1.8843
  802MOL0     H 5801   7.520   8.949   1.533  0.8021 -0.2298 -1.0646
  802MOL0     H 5802   7.626   8.845   1.636  0.7849  1.4310 -0.9483
  802MOL0     H 5803   7.553   8.653   1.508 -0.2015 -0.4616  0.8106
  802MOL0     H 5804   7.466   8.752   1.395  2.3718  0.0977 -0.4665
  802MOL0     H 5805   7.378   8.719   1.687  0.1101  3.0972  1.0764
  802MOL0     H 5806   7.309   8.644   1.548  1.1877 -0.4308 -2.0907
  802MOL0     H 5807   7.319   8.943   1.602 -1.1993  0.5538  0.8271
  802MOL0     H 5808   7.253   8.863   1.457  0.5317 -2.1518 -0.5799
  802MOL0     H 5809   7.156   8.875   1.745 -0.5054  0.1469 -0.4054
  802MOL0     H 5810   7.112   8.738   1.650  0.6658 -0.7767 -1.6282
  802MOL0     H 5811   6.999   8.896   1.469 -0.9208 -2.6405  0.7865
  802MOL0     H 5812   7.036   9.028   1.589  3.0155 -0.6106  0.1189
  802MOL0     H 5813   6.894   8.924   1.758 -2.5183 -0.0390  0.0885
  802MOL0     H 5814   6.801   8.980   1.613  0.8424  0.3342  0.9738
  802MOL0     H 5815   6.891   8.699   1.680 -1.9802 -0.7958  2.2661
  802MOL0     H 5816   6.813   8.735   1.531  0.2074  2.8271 -1.4280
  802MOL0     H 5817   6.545   8.810   1.534  0.0670 -1.8711  0.5559
  802MOL0     H 5818   6.330   8.582   1.748 -1.4239  0.1162 -1.2253
  802MOL0     H 5819   6.318   8.685   1.602 -3.7088 -0.3504  0.6693
  802MOL0     H 5820   6.246   8.866   1.745  1.5230 -0.1820  0.8209
  802MOL0     H 5821   6.251   8.773   1.894 -2.2393  0.5489 -0.0731
  802MOL0     H 5822   6.093   8.722   1.639  2.7786 -0.2305  0.2386
  802MOL0     H 5823   6.084   8.621   1.784  4.3711 -1.7381 -3.1866
  802MOL0     H 5824   6.006   8.911   1.748 -7.7909  1.7423  0.2063
  802MOL0     H 5825   6.022   8.836   1.909  1.8213  2.0213 -1.0767
  802MOL0     H 5826   5.870   9.007   1.903  0.7863  0.1585 -3.4606
  802MOL0     H 5827   5.677   9.153   1.916 -1.5997  0.1654  2.3464
  802MOL0     H 5828   5.248   9.287   1.711  1.8679  0.5371 -1.0733
  802MOL0     H 5829   5.124   9.509   1.726 -0.9529  2.5855  0.3600
  802MOL0     H 5830   5.002   9.811   1.841  0.9645  0.5379  1.8938
  802MOL0     H 5831   5.079   9.724   1.705 -0.0131 -1.7677 -0.0543
  802MOL0     H 5832   5.285   9.821   1.712 -1.3638  2.0159 -2.1307
  802MOL0     H 5833   5.274   9.863   1.879  1.3479  2.0854 -0.6385
  802MOL0     H 5834   5.272  10.060   1.739  1.2288 -0.5065  3.5267
  802MOL0     H 5835   5.124  10.040   1.838 -0.0354  0.9224 -0.5139
  802MOL0     H 5836   5.124   9.945   1.550  2.3122 -0.0037  1.9350
  802MOL0     H 5837   4.987   9.994   1.649 -0.9467  0.3104 -3.2790
  802MOL0     H 5838   5.182  10.216   1.574  1.9042 -3.5425  0.4185
  802MOL0     H 5839   5.015  10.222   1.614  1.2869  3.0059 -1.2995
  802MOL0     H 5840   4.952  10.115   1.410 -0.2950  0.9346  0.9569
  802MOL0     H 5841   5.130  10.088   1.367 -0.6366  0.0023 -0.3960
  802MOL0     H 5842   5.173  10.328   1.383  0.5295 -0.2163 -2.8122
  802MOL0     H 5843   5.100  10.250   1.239  0.6961 -1.1539 -0.0084
  802MOL0     H 5844   4.993  10.466   1.290  2.0049 -1.3897 -0.6812
  802MOL0     H 5845   4.925  10.401   1.441 -0.1670 -0.3364  0.3395
  802MOL0     H 5846   5.326   9.617   2.067 -0.4814  0.3440 -1.0279
  802MOL0     H 5847   5.494   9.425   2.049  3.2320  0.8618 -3.3174
  802MOL0     H 5848   5.444   8.836   1.722 -0.7619  0.0476  0.1371
  802MOL0     H 5849   5.640   8.697   1.728  0.3743 -1.0554  2.3226
  802MOL0     H 5850   7.897   8.975   1.577  1.3015 -0.3463  3.2476
  802MOL0     H 5851   8.114   8.856   1.584 -1.1144  1.0188  0.6836
  802MOL0     H 5852   8.349   8.575   1.691  0.0130  3.8683  1.3888
  802MOL0     H 5853   8.581   8.536   1.762  2.2683 -0.0592  0.9029
  802MOL0     H 5854   8.894   8.732   1.539 -0.7892  0.0016  1.2279
  802MOL0     H 5855   8.951   8.575   1.491  1.0251 -2.2760  2.2911
  802MOL0     H 5856   9.070   8.568   1.701  0.5507  0.0155 -1.8559
  802MOL0     H 5857   9.072   8.744   1.665 -1.9950  0.8159 -1.1979
  802MOL0     H 5858   9.029   8.690   1.906 -0.7348 -1.5631  1.0130
  802MOL0     H 5859   8.898   8.596   1.878  1.4199  0.1452  3.7466
  802MOL0     H 5860   8.945   8.880   1.786 -1.2825  0.6627  0.3302
  802MOL0     H 5861   8.793   8.812   1.745 -0.3431  2.8324 -0.5119
  802MOL0     H 5862   8.743   8.907   2.159 -1.3006  0.1850  0.2388
  802MOL0     H 5863   8.713   8.657   1.369  2.0547 -0.1837  1.2663
  802MOL0     H 5864   8.510   8.701   1.307  2.0814  2.0304  1.7584
  803MOL0     O 5865   4.732   0.373  10.790 -0.3765  0.2804  1.2029
  803MOL0     C 5866   4.636   0.346  10.716 -0.0659  0.8077 -0.2957
  803MOL0     O 5867   4.631   0.387  10.585  0.3038 -0.1389  0.1782
  803MOL0     C 5868   4.747   0.420  10.512  0.8057 -0.8347  0.6924
  803MOL0     C 5869   4.731   0.486  10.385 -0.4596  0.1192 -0.3890
  803MOL0     C 5870   4.839   0.505  10.294 -0.2336 -0.2624 -0.5691
  803MOL0     C 5871   4.967   0.441  10.329  0.2996  0.0043 -0.1790
  803MOL0     O 5872   5.082   0.431  10.260  0.3313  0.6789  0.2440
  803MOL0     C 5873   5.128   0.556  10.222  0.9764 -0.5579 -0.2836
  803MOL0     C 5874   5.277   0.560  10.228 -0.1637  0.1523  0.0242
  803MOL0     C 5875   5.323   0.696  10.164 -0.7527  0.6160  0.7586
  803MOL0     C 5876   5.479   0.740  10.179  0.8043  0.3053  0.0619
  803MOL0     C 5877   5.507   0.826  10.063  0.2892 -0.0000 -0.7073
  803MOL0     C 5878   5.650   0.879  10.069  0.0653  0.2841 -0.2126
  803MOL0     C 5879   5.688   0.970   9.955 -0.3130  0.0080 -0.1257
  803MOL0     C 5880   5.835   1.017   9.964  0.2241 -0.8090  0.5957
  803MOL0     N 5881   5.862   1.126  10.061 -0.3566 -0.5512 -0.3997
  803MOL0     C 5882   5.891   1.099  10.197 -0.4812 -0.0042 -0.6294
  803MOL0     C 5883   5.895   1.224  10.257  0.3475  0.1232  0.1920
  803MOL0     C 5884   5.939   1.261  10.402 -0.3735  0.0155 -0.6357
  803MOL0     C 5885   5.919   1.161  10.511  0.4336  0.6077 -0.5398
  803MOL0     C 5886   5.787   1.177  10.589 -0.3969 -0.1984 -1.1690
  803MOL0     C 5887   5.656   1.174  10.500 -0.4510  0.1761 -0.6681
  803MOL0     O 5888   5.543   1.168  10.597  0.0775 -0.0460 -0.1901
  803MOL0     C 5889   5.419   1.123  10.546  0.2103  0.2453 -0.4113
  803MOL0     C 5890   5.395   1.086  10.405 -0.4116 -0.1484 -0.3652
  803MOL0     C 5891   5.268   1.054  10.358 -0.0909 -0.0246  0.7682
  803MOL0     C 5892   5.162   1.057  10.449  0.6299  0.1602 -0.4472
  803MOL0     C 5893   5.029   1.022  10.383 -0.5979 -0.7567 -0.6996
  803MOL0     O 5894   4.917   1.070  10.444  0.0599 -0.4589  0.2645
  803MOL0     C 5895   4.794   1.015  10.392  0.3202  0.5649  0.1110
  803MOL0     C 5896   4.676   1.094  10.407 -0.0073 -0.1909 -0.9609
  803MOL0     C 5897   4.546   1.053  10.391 -1.3115  0.8129  0.1923
  803MOL0     C 5898   4.520   0.930  10.341 -1.0681  0.1045 -0.2715
  803MOL0     O 5899   4.389   0.906  10.306  0.2705  0.2119  0.1539
  803MOL0     C 5900   4.369   0.792  10.222  0.0876  0.2645  0.7801
  803MOL0     C 5901   4.218   0.799  10.186 -0.0429 -0.1043 -0.2813
  803MOL0     C 5902   4.180   0.688  10.080 -1.0010 -0.0502  0.5617
  803MOL0     C 5903   4.043   0.710  10.020 -0.2341  0.8336  0.5841
  803MOL0     C 5904   4.033   0.631   9.886  0.1263 -0.4181 -0.6463
  803MOL0     C 5905   4.103   0.697   9.767  0.3562 -1.0034  0.2832
  803MOL0     C 5906   4.120   0.581   9.661  0.6136 -1.0200  0.0835
  803MOL0     C 5907   4.138   0.645   9.532 -0.0016 -0.7598 -0.1016
  803MOL0    Cl 5908   3.991   0.719   9.459 -0.3173 -0.1971 -0.0909
  803MOL0     C 5909   4.634   0.841  10.322 -0.6883 -0.5092 -0.4080
  803MOL0     C 5910   4.765   0.887  10.350  0.4495 -0.2899  0.5293
  803MOL0     O 5911   5.033   0.949  10.279 -0.1772 -0.6237  0.4034
  803MOL0     C 5912   5.186   1.090  10.585 -0.5686  0.0594 -0.2057
  803MOL0     C 5913   5.307   1.129  10.634 -1.4041 -0.1811 -0.1760
  803MOL0     N 5914   5.881   1.318  10.154 -0.2953  0.1928 -0.4739
  803MOL0     N 5915   5.850   1.260  10.040  0.0253  0.2571 -0.9786
  803MOL0     C 5916   4.979   0.380  10.455 -1.2321 -0.0110  0.4944
  803MOL0     C 5917   4.872   0.380  10.543 -0.3837  0.3939  0.3740
  803MOL0     C 5918   4.524   0.276  10.785  0.7711  0.0090  0.0109
  803MOL0     C 5919   4.539   0.230  10.918 -0.5535  0.0900  0.5174
  803MOL0     C 5920   4.434   0.169  10.977 -0.7865 -0.1881 -0.6693
  803MOL0     C 5921   4.316   0.140  10.903 -0.5536 -0.2563 -0.5944
  803MOL0     O 5922   4.205   0.077  10.957  0.0876  0.6690 -0.5632
  803MOL0     C 5923   4.211   0.028  11.085 -0.8482 -0.3795 -0.5273
  803MOL0     C 5924   4.175   0.121  11.191 -0.2261  0.6393 -0.0766
  803MOL0     C 5925   4.032   0.168  11.178  0.1564  0.0366 -0.3949
  803MOL0     C 5926   4.019   0.269  11.292 -0.6689 -0.7936  0.3220
  803MOL0     C 5927   3.892   0.346  11.276 -0.1681 -0.0899 -0.6567
  803MOL0     C 5928   3.782   0.407  11.272 -0.0123 -1.1664  0.3169
  803MOL0     C 5929   4.308   0.174  10.773  0.2925 -0.5214  0.6874
  803MOL0     C 5930   4.412   0.240  10.708 -0.2948 -0.6490 -0.8148
  803MOL0     H 5931   4.633   0.516  10.351 -1.2414 -3.8077 -2.1383
  803MOL0     H 5932   4.837   0.568  10.206  1.6060  3.1005  1.5820
  803MOL0     H 5933   5.090   0.633  10.289  1.7182  0.1509 -0.6588
  803MOL0     H 5934   5.090   0.576  10.121 -1.0668 -0.1949  0.5161
  803MOL0     H 5935   5.320   0.477  10.171  0.7669 -0.5162  1.6379
  803MOL0     H 5936   5.308   0.553  10.333 -0.1817  0.2128  0.0336
  803MOL0     H 5937   5.251   0.771  10.199 -0.8924  0.6923  0.3192
  803MOL0     H 5938   5.308   0.689  10.056  1.5375  1.5756  0.3135
  803MOL0     H 5939   5.505   0.778  10.278  0.9800  2.3534 -0.7208
  803MOL0     H 5940   5.544   0.653  10.171  1.7028  1.0586 -1.3655
  803MOL0     H 5941   5.433   0.906  10.056  2.7738  2.6143  0.5375
  803MOL0     H 5942   5.502   0.764   9.973 -1.8959  0.5614 -1.0185
  803MOL0     H 5943   5.723   0.798  10.059  3.3724  3.1857 -1.7480
  803MOL0     H 5944   5.661   0.921  10.169 -1.5058  1.0006 -0.3023
  803MOL0     H 5945   5.679   0.911   9.863 -3.0490  3.0341 -2.0159
  803MOL0     H 5946   5.626   1.059   9.943 -1.2314 -0.4304  1.1761
  803MOL0     H 5947   5.863   1.058   9.866 -1.0102 -0.1220  0.5162
  803MOL0     H 5948   5.902   0.933   9.986 -1.6567 -2.3079  0.8893
  803MOL0     H 5949   5.913   1.003  10.240  3.2361  1.1691  0.4236
  803MOL0     H 5950   5.901   1.359  10.430 -0.1170 -0.6020  2.1300
  803MOL0     H 5951   6.045   1.268  10.376 -0.6252  2.6335 -1.1746
  803MOL0     H 5952   5.988   1.191  10.590  1.6355  1.3831 -1.8530
  803MOL0     H 5953   5.929   1.053  10.500  2.0541  0.0856  3.9938
  803MOL0     H 5954   5.789   1.105  10.672 -0.4004 -0.2492 -1.2132
  803MOL0     H 5955   5.777   1.277  10.633 -1.3722  0.0627 -1.9495
  803MOL0     H 5956   5.660   1.085  10.435 -1.4421 -0.0084 -0.4932
  803MOL0     H 5957   5.655   1.267  10.442 -2.5434  0.4323 -0.3057
  803MOL0     H 5958   5.477   1.086  10.334 -0.1107 -1.8856 -0.0690
  803MOL0     H 5959   5.247   1.050  10.251 -1.7093 -1.7542  1.0898
  803MOL0     H 5960   4.697   1.192  10.448  2.9587 -0.0143 -2.6289
  803MOL0     H 5961   4.468   1.127  10.406 -2.4183 -0.4425  0.7911
  803MOL0     H 5962   4.395   0.700  10.274  0.2662 -1.4867 -2.1795
  803MOL0     H 5963   4.424   0.781  10.127 -1.8192 -3.1338 -0.0987
  803MOL0     H 5964   4.193   0.897  10.143  1.1142 -0.3327 -1.5233
  803MOL0     H 5965   4.159   0.788  10.278 -0.0446  1.6695 -0.0435
  803MOL0     H 5966   4.173   0.594  10.136  1.9193 -0.7777 -0.1210
  803MOL0     H 5967   4.266   0.687  10.012 -0.7378 -1.2454  0.8815
  803MOL0     H 5968   3.970   0.664  10.087  4.2652 -1.0127  4.7964
  803MOL0     H 5969   4.033   0.818  10.011 -1.6750  0.7680  1.1462
  803MOL0     H 5970   3.926   0.629   9.859  0.6529 -1.0680 -2.9273
  803MOL0     H 5971   4.072   0.529   9.892  0.7650 -0.1522 -0.1881
  803MOL0     H 5972   4.208   0.720   9.789  0.0065 -0.5474  1.6342
  803MOL0     H 5973   4.046   0.785   9.735  3.6729  0.4519 -2.3053
  803MOL0     H 5974   4.202   0.513   9.687  0.9389 -0.7266 -0.1767
  803MOL0     H 5975   4.030   0.519   9.661  0.1172 -0.3362 -1.0454
  803MOL0     H 5976   4.160   0.560   9.466 -1.2625 -0.6503 -0.7034
  803MOL0     H 5977   4.225   0.710   9.527  0.4237 -1.3550 -0.6325
  803MOL0     H 5978   4.618   0.743  10.277  2.5272 -0.5438 -1.7685
  803MOL0     H 5979   4.846   0.816  10.338  0.6015 -0.1978  0.9867
  803MOL0     H 5980   5.100   1.090  10.652 -0.8677 -0.1479 -0.5812
  803MOL0     H 5981   5.320   1.158  10.738 -0.6357  0.5015 -0.4527
  803MOL0     H 5982   5.074   0.336  10.484  0.7286  3.1744 -0.6348
  803MOL0     H 5983   4.898   0.311  10.623  1.4546 -1.3288 -1.5623
  803MOL0     H 5984   4.632   0.245  10.972 -1.9475 -0.1948  3.1516
  803MOL0     H 5985   4.448   0.152  11.083  0.8549  0.3596 -0.7764
  803MOL0     H 5986   4.315   0.000  11.103 -0.7596  0.5551  0.5465
  803MOL0     H 5987   4.154  -0.064  11.099 -1.2396  0.3737  4.4951
  803MOL0     H 5988   4.189   0.078  11.290 -0.8028  0.2813 -0.1482
  803MOL0     H 5989   4.253   0.198  11.188  1.5048 -1.0752 -1.9868
  803MOL0     H 5990   3.970   0.077  11.179 -0.1546  0.2489  0.2179
  803MOL0     H 5991   4.017   0.210  11.078 -0.3374 -1.3448 -0.9391
  803MOL0     H 5992   4.031   0.223  11.390 -0.8418  0.6235  1.0274
  803MOL0     H 5993   4.096   0.346  11.295  1.7593 -3.0474  3.6113
  803MOL0     H 5994   3.695   0.469  11.264 -0.0301 -1.3660 -1.6499
  803MOL0     H 5995   4.226   0.139  10.711  0.1005  0.4695  0.3613
  803MOL0     H 5996   4.415   0.278  10.606  2.8406  1.4607 -0.0664
  804MOL0     O 5997   0.668   4.610   2.739 -0.6922 -0.6231 -0.0381
  804MOL0     C 5998   0.699   4.512   2.807 -0.7705 -0.3082  0.4517
  804MOL0     O 5999   0.625   4.464   2.916  0.7383  0.1168  0.1862
  804MOL0     C 6000   0.497   4.510   2.932 -0.3925 -2.1121  0.2174
  804MOL0     C 6001   0.465   4.643   2.946  0.7213  0.1812  0.1424
  804MOL0     C 6002   0.324   4.676   2.959 -0.7955  0.8948 -0.7968
  804MOL0     C 6003   0.225   4.574   2.968 -1.1989  0.3422 -0.1773
  804MOL0     O 6004   0.097   4.614   2.983  0.5248  0.3213 -0.3643
  804MOL0     C 6005   0.066   4.677   3.117 -0.3054  0.9075  0.4557
  804MOL0     C 6006  -0.020   4.802   3.097 -0.2563 -0.4288  0.8631
  804MOL0     C 6007   0.057   4.923   3.036  0.4902  0.7930  0.5607
  804MOL0     C 6008  -0.018   5.052   3.053 -0.4542  0.3832  0.2441
  804MOL0     C 6009   0.019   5.167   2.960 -0.5287  1.0938 -0.2088
  804MOL0     C 6010  -0.046   5.296   3.010  0.2978  0.3334  0.2186
  804MOL0     C 6011  -0.200   5.310   3.012 -0.0687 -0.3223 -0.4376
  804MOL0     C 6012  -0.258   5.279   2.871 -0.0482  0.0493 -0.0942
  804MOL0     N 6013  -0.402   5.262   2.880 -0.6287 -0.4773  0.4194
  804MOL0     C 6014  -0.477   5.208   2.983 -0.4910  0.2884  0.2410
  804MOL0     C 6015  -0.601   5.248   2.951  0.4449  0.3954 -0.7426
  804MOL0     C 6016  -0.727   5.199   3.021 -0.3984 -0.0453 -0.8509
  804MOL0     C 6017  -0.742   5.053   2.987 -0.1807 -0.0934 -0.4502
  804MOL0     C 6018  -0.746   5.021   2.834  0.0909 -0.5018  0.1711
  804MOL0     C 6019  -0.876   5.081   2.773 -0.3375 -0.1821 -0.3796
  804MOL0     O 6020  -0.860   5.131   2.642 -1.0264  0.4095  0.1726
  804MOL0     C 6021  -0.970   5.141   2.561 -0.0213  0.0850 -0.2711
  804MOL0     C 6022  -1.099   5.114   2.601 -0.1331  0.5856 -0.1739
  804MOL0     C 6023  -1.202   5.129   2.508 -0.8444 -0.3159  0.5205
  804MOL0     C 6024  -1.182   5.178   2.375 -0.3348  0.5191 -0.3054
  804MOL0     C 6025  -1.291   5.170   2.274 -0.0279 -0.5599 -0.6381
  804MOL0     O 6026  -1.413   5.128   2.314  0.1917 -0.1887 -0.2792
  804MOL0     C 6027  -1.521   5.173   2.244  0.3563  0.0744  0.1027
  804MOL0     C 6028  -1.552   5.310   2.239 -0.4439  0.4809  0.3577
  804MOL0     C 6029  -1.650   5.357   2.152  0.3545 -0.4130 -0.8008
  804MOL0     C 6030  -1.727   5.259   2.086  0.0125  0.0086  0.2894
  804MOL0     O 6031  -1.836   5.296   2.002  0.8462  0.0634 -0.8934
  804MOL0     C 6032  -1.959   5.245   2.050  0.3144  0.2429 -0.8293
  804MOL0     C 6033  -2.071   5.313   1.986  0.1329  0.5078  1.3178
  804MOL0     C 6034  -2.207   5.281   2.043 -0.5707  0.6650 -0.1126
  804MOL0     C 6035  -2.293   5.195   1.950 -0.8137 -0.5302  0.9155
  804MOL0     C 6036  -2.432   5.199   2.000 -0.7484  0.3828 -0.5417
  804MOL0     C 6037  -2.514   5.100   1.920  0.4247 -0.1614  0.0574
  804MOL0     C 6038  -2.649   5.124   1.977  0.4305 -0.0382 -0.3021
  804MOL0     C 6039  -2.748   5.025   1.912  0.1420 -0.2931 -0.4423
  804MOL0    Cl 6040  -2.732   4.859   1.981 -0.0148  0.2116  0.3093
  804MOL0     C 6041  -1.711   5.119   2.111  0.6150  0.3751  0.5065
  804MOL0     C 6042  -1.604   5.076   2.181 -0.3628  0.4865 -0.4589
  804MOL0     O 6043  -1.262   5.187   2.156  0.4203  1.4549  0.1627
  804MOL0     C 6044  -1.049   5.189   2.336  0.3712 -0.8656 -0.3755
  804MOL0     C 6045  -0.949   5.183   2.427 -0.0249  1.2128  0.2625
  804MOL0     N 6046  -0.604   5.329   2.838  0.2172  0.0197 -0.0059
  804MOL0     N 6047  -0.486   5.329   2.797 -0.1655  0.0973 -0.1989
  804MOL0     C 6048   0.270   4.442   2.971  0.6321  0.7792 -0.1304
  804MOL0     C 6049   0.399   4.418   2.952  0.4124 -0.6594  0.0262
  804MOL0     C 6050   0.837   4.454   2.783 -0.8746  0.6297 -0.2594
  804MOL0     C 6051   0.926   4.512   2.690 -0.1613  0.1411 -0.6822
  804MOL0     C 6052   1.045   4.450   2.677 -0.4467 -0.7545  0.6994
  804MOL0     C 6053   1.089   4.328   2.725  0.0054  0.2748 -0.8354
  804MOL0     O 6054   1.219   4.294   2.708 -1.0801  0.0510 -0.4597
  804MOL0     C 6055   1.251   4.156   2.716  0.2550 -0.4509 -0.1635
  804MOL0     C 6056   1.380   4.117   2.638  0.6085  0.1613 -0.5078
  804MOL0     C 6057   1.495   4.193   2.708 -0.4181  0.2170 -0.1422
  804MOL0     C 6058   1.495   4.349   2.679 -0.4908  1.3087  0.2271
  804MOL0     C 6059   1.626   4.409   2.709  0.3091 -0.5283  0.0285
  804MOL0     C 6060   1.722   4.479   2.729  0.8188 -0.4277  0.7970
  804MOL0     C 6061   1.000   4.271   2.817 -0.3788 -0.6097  0.0114
  804MOL0     C 6062   0.875   4.334   2.843 -0.7531 -0.0411 -0.0298
  804MOL0     H 6063   0.541   4.720   2.935  0.7291 -0.1088 -2.3303
  804MOL0     H 6064   0.281   4.776   2.951 -0.3368  1.1886  0.3066
  804MOL0     H 6065   0.163   4.686   3.168  1.4226  1.1014 -2.6402
  804MOL0     H 6066   0.007   4.605   3.175  1.1287 -1.8605 -1.3160
  804MOL0     H 6067  -0.063   4.828   3.195  0.2058  0.5967  0.8073
  804MOL0     H 6068  -0.111   4.785   3.040 -0.4270  1.4638  0.4923
  804MOL0     H 6069   0.078   4.910   2.929  1.2474 -0.1452  0.8152
  804MOL0     H 6070   0.153   4.919   3.088 -0.1364  1.2331  1.7818
  804MOL0     H 6071  -0.125   5.035   3.037 -0.5433 -0.1030  1.2642
  804MOL0     H 6072  -0.001   5.087   3.155 -1.8039  1.5008  0.1160
  804MOL0     H 6073  -0.003   5.150   2.854  0.0258 -0.3296 -0.1143
  804MOL0     H 6074   0.127   5.183   2.959 -0.7753  2.9984 -1.1381
  804MOL0     H 6075  -0.023   5.370   2.933 -0.0750  0.4084  0.1782
  804MOL0     H 6076  -0.002   5.322   3.107  2.4859 -1.0072 -0.3506
  804MOL0     H 6077  -0.243   5.262   3.100  0.8902 -1.5519 -0.6068
  804MOL0     H 6078  -0.217   5.416   3.033  2.8431 -0.0768  1.2896
  804MOL0     H 6079  -0.210   5.192   2.826  1.4237 -0.5931  2.5285
  804MOL0     H 6080  -0.239   5.366   2.807 -3.4844  1.5805  0.7244
  804MOL0     H 6081  -0.448   5.137   3.061 -1.3275  0.0563  0.3466
  804MOL0     H 6082  -0.812   5.256   2.984 -2.0570 -0.6831  1.7489
  804MOL0     H 6083  -0.724   5.207   3.130 -0.7717 -0.6326 -0.7900
  804MOL0     H 6084  -0.831   5.016   3.039  0.3357 -1.2694 -0.3713
  804MOL0     H 6085  -0.657   4.997   3.027  3.0115  4.1594 -0.6646
  804MOL0     H 6086  -0.670   5.074   2.777 -0.9045  1.4116  0.5390
  804MOL0     H 6087  -0.737   4.914   2.811  1.8452 -0.3249 -0.0871
  804MOL0     H 6088  -0.909   5.172   2.824 -1.5164 -1.3943  1.1056
  804MOL0     H 6089  -0.951   5.002   2.778 -2.0832  1.3911 -0.3571
  804MOL0     H 6090  -1.124   5.094   2.705 -2.1156  2.6562 -0.1534
  804MOL0     H 6091  -1.304   5.101   2.532 -1.2609  1.1806  0.6020
  804MOL0     H 6092  -1.491   5.381   2.292 -0.4968  0.5637  0.3086
  804MOL0     H 6093  -1.660   5.461   2.123  0.5298  0.3090  1.5098
  804MOL0     H 6094  -1.975   5.268   2.156 -1.3519  4.1957 -1.7345
  804MOL0     H 6095  -1.967   5.137   2.037  1.1270  0.1619 -0.6642
  804MOL0     H 6096  -2.079   5.283   1.881 -1.9512 -0.8884  1.7996
  804MOL0     H 6097  -2.056   5.421   1.993  1.0322  0.3639  1.7221
  804MOL0     H 6098  -2.266   5.371   2.063 -0.6758  0.2949  1.3665
  804MOL0     H 6099  -2.201   5.223   2.136  0.9308  1.2597  0.1885
  804MOL0     H 6100  -2.293   5.236   1.849 -2.1328 -2.4334  0.0597
  804MOL0     H 6101  -2.259   5.092   1.932 -0.5230 -0.7785  2.7319
  804MOL0     H 6102  -2.469   5.302   1.999  2.3396  1.7807  3.1916
  804MOL0     H 6103  -2.442   5.177   2.107 -1.9298  3.0939 -0.0198
  804MOL0     H 6104  -2.474   5.002   1.945  0.8398  0.0049  0.0624
  804MOL0     H 6105  -2.513   5.120   1.813  0.9524  1.2319  0.2959
  804MOL0     H 6106  -2.649   5.106   2.085 -2.3458  0.4905 -0.1645
  804MOL0     H 6107  -2.673   5.229   1.958 -0.8421 -0.1827  0.3958
  804MOL0     H 6108  -2.732   5.028   1.804 -1.4582 -1.7204 -0.7712
  804MOL0     H 6109  -2.853   5.049   1.932  0.6521  2.1532 -0.4401
  804MOL0     H 6110  -1.772   5.054   2.050  0.7860  1.3539 -0.7493
  804MOL0     H 6111  -1.580   4.970   2.185 -0.3096  0.4847 -0.7980
  804MOL0     H 6112  -1.024   5.223   2.236 -1.5300  0.0239 -0.5812
  804MOL0     H 6113  -0.846   5.213   2.410  0.4389  0.8218  2.1482
  804MOL0     H 6114   0.206   4.357   2.991  0.3846  0.5120 -1.8907
  804MOL0     H 6115   0.435   4.316   2.958  3.2319  0.2839  0.9454
  804MOL0     H 6116   0.901   4.599   2.630 -3.4824 -0.4086 -0.3074
  804MOL0     H 6117   1.108   4.506   2.608  0.7029 -0.5187  1.9046
  804MOL0     H 6118   1.165   4.102   2.674  0.1859  1.9976 -3.6590
  804MOL0     H 6119   1.247   4.133   2.822 -1.2336  1.2328  0.1947
  804MOL0     H 6120   1.392   4.009   2.639 -2.2106 -0.2242 -0.2547
  804MOL0     H 6121   1.365   4.151   2.535 -4.7036 -0.6613 -0.2774
  804MOL0     H 6122   1.585   4.158   2.656  0.2064 -0.0199  1.0453
  804MOL0     H 6123   1.508   4.165   2.813 -1.3701 -1.7254 -0.4997
  804MOL0     H 6124   1.463   4.374   2.578 -1.7320  1.6187  0.6749
  804MOL0     H 6125   1.425   4.397   2.749  0.4815  0.8472  1.5638
  804MOL0     H 6126   1.813   4.536   2.723  2.2169 -2.4596  1.7639
  804MOL0     H 6127   1.017   4.180   2.874 -0.8340 -0.3957  0.5055
  804MOL0     H 6128   0.803   4.281   2.904 -0.0914 -3.8474 -2.1930
  805MOL0     O 6129  10.129   4.708   7.078 -0.1091  0.6051 -0.3403
  805MOL0     C 6130  10.215   4.629   7.049 -0.1889  0.0679 -0.3864
  805MOL0     O 6131  10.199   4.508   7.008 -0.1092  0.0208  0.3883
  805MOL0     C 6132  10.076   4.445   7.007  0.7796  0.1392  0.1284
  805MOL0     C 6133  10.079   4.307   6.966 -0.7805  0.3209  0.7097
  805MOL0     C 6134   9.973   4.218   6.976 -0.3061  0.5274 -0.4702
  805MOL0     C 6135   9.850   4.276   7.004  0.4649 -0.0301 -0.3469
  805MOL0     O 6136   9.730   4.207   6.995  0.6700  0.3612  0.5021
  805MOL0     C 6137   9.607   4.253   6.923 -0.0876  0.2875 -1.2422
  805MOL0     C 6138   9.485   4.204   7.016 -0.4517  0.6626  0.4648
  805MOL0     C 6139   9.364   4.206   6.929  0.2224 -0.4803  0.2796
  805MOL0     C 6140   9.247   4.160   7.015 -0.3050  0.9667 -0.4274
  805MOL0     C 6141   9.113   4.167   6.948  0.0196 -0.0777  0.0502
  805MOL0     C 6142   8.993   4.104   7.025  0.1043 -0.6305 -0.6538
  805MOL0     C 6143   8.857   4.143   6.976 -0.6064 -0.8159  0.2692
  805MOL0     C 6144   8.746   4.044   6.998 -0.1202  0.4382  0.3329
  805MOL0     N 6145   8.738   4.003   7.137 -0.0103 -0.1760  0.1418
  805MOL0     C 6146   8.700   4.076   7.250  0.1617 -0.1408 -0.1708
  805MOL0     C 6147   8.739   3.992   7.351 -0.6348  0.2846 -0.0397
  805MOL0     C 6148   8.728   4.010   7.505  1.1027 -0.2902 -0.7844
  805MOL0     C 6149   8.845   3.943   7.574 -0.0188  0.1398  0.6496
  805MOL0     C 6150   8.869   3.990   7.714  0.4807 -0.1413 -0.8655
  805MOL0     C 6151   8.968   4.109   7.710 -0.1641 -0.9620 -0.3962
  805MOL0     O 6152   9.057   4.127   7.824 -0.3549 -0.0433 -0.5424
  805MOL0     C 6153   9.159   4.219   7.814 -0.0155  0.5746  0.7089
  805MOL0     C 6154   9.173   4.330   7.724  0.4755 -0.4121 -0.0662
  805MOL0     C 6155   9.280   4.420   7.734  0.2507 -0.7820 -0.2303
  805MOL0     C 6156   9.378   4.394   7.827 -0.0426 -0.0876 -0.0945
  805MOL0     C 6157   9.488   4.490   7.856 -0.2058 -0.2493 -0.0212
  805MOL0     O 6158   9.597   4.455   7.939  0.0624  0.5556 -0.3788
  805MOL0     C 6159   9.709   4.526   7.937 -0.4535 -0.2546  0.4103
  805MOL0     C 6160   9.822   4.453   7.934 -0.0179  0.4218  0.8811
  805MOL0     C 6161   9.950   4.497   7.923 -0.0826 -0.9839 -0.0784
  805MOL0     C 6162   9.964   4.633   7.913  1.3741  0.3059  0.3761
  805MOL0     O 6163  10.093   4.679   7.912  0.6419 -0.0455 -0.1306
  805MOL0     C 6164  10.118   4.815   7.882  0.0819  0.6136  0.2939
  805MOL0     C 6165  10.261   4.854   7.908 -0.2874 -0.4660 -0.0191
  805MOL0     C 6166  10.370   4.772   7.841  0.2469 -0.2450  0.1798
  805MOL0     C 6167  10.508   4.837   7.872  0.6321  0.0583  0.0678
  805MOL0     C 6168  10.621   4.760   7.801  0.2225 -0.6684 -0.9515
  805MOL0     C 6169  10.632   4.621   7.861 -0.7776 -0.5296 -0.3137
  805MOL0     C 6170  10.762   4.552   7.814 -0.4586  0.5399  0.0927
  805MOL0     C 6171  10.758   4.403   7.848 -0.3657  0.0780  0.0957
  805MOL0    Cl 6172  10.626   4.316   7.749 -0.4779  0.1264 -0.5113
  805MOL0     C 6173   9.846   4.715   7.905 -0.0396 -0.5194  0.4564
  805MOL0     C 6174   9.727   4.663   7.933 -0.4102  0.2299  0.0754
  805MOL0     O 6175   9.485   4.589   7.780  0.1801 -0.1591 -0.1968
  805MOL0     C 6176   9.372   4.281   7.911 -0.6925  0.0202  0.4967
  805MOL0     C 6177   9.255   4.198   7.901 -0.4090  0.0540  0.2829
  805MOL0     N 6178   8.783   3.866   7.301 -0.5545  0.4255 -0.0865
  805MOL0     N 6179   8.785   3.880   7.173  0.0584 -0.6523 -0.1395
  805MOL0     C 6180   9.842   4.409   7.043  0.0744  0.2948 -0.3449
  805MOL0     C 6181   9.956   4.492   7.060 -0.2737  0.3517  0.4195
  805MOL0     C 6182  10.347   4.685   7.034  0.4133 -0.2353  0.1657
  805MOL0     C 6183  10.437   4.621   6.955 -0.9309  0.1751 -1.0879
  805MOL0     C 6184  10.557   4.680   6.921 -0.3031 -0.3535 -0.5384
  805MOL0     C 6185  10.604   4.796   6.983  0.0705  0.5720  0.3693
  805MOL0     O 6186  10.737   4.827   6.962 -0.3206 -0.2124  0.3821
  805MOL0     C 6187  10.782   4.942   7.029  0.3718 -0.5155  0.0692
  805MOL0     C 6188  10.934   4.951   7.033 -0.0510 -0.2154  0.0650
  805MOL0     C 6189  10.987   5.064   7.112  0.0849 -0.0062  0.3369
  805MOL0     C 6190  11.138   5.070   7.141 -0.4622 -0.6822  0.3126
  805MOL0     C 6191  11.181   4.939   7.203 -0.4970 -1.7318  0.2113
  805MOL0     C 6192  11.231   4.831   7.219  0.2545 -0.0334 -0.5826
  805MOL0     C 6193  10.511   4.858   7.074 -0.3578 -0.2320  0.2729
  805MOL0     C 6194  10.380   4.815   7.085  0.0614 -0.8691 -0.3990
  805MOL0     H 6195  10.173   4.269   6.927 -1.0695  0.7248 -0.4037
  805MOL0     H 6196   9.978   4.112   6.956 -0.3416  0.6265 -1.0163
  805MOL0     H 6197   9.596   4.201   6.828 -1.8269  0.1410 -0.9790
  805MOL0     H 6198   9.608   4.361   6.904  0.8647  0.0911 -2.4209
  805MOL0     H 6199   9.482   4.274   7.100  1.8264 -0.2918  1.4611
  805MOL0     H 6200   9.498   4.101   7.053 -0.7741  0.8617  1.1380
  805MOL0     H 6201   9.372   4.137   6.844 -1.3032  0.4588 -0.6810
  805MOL0     H 6202   9.348   4.308   6.891  1.1286  1.3541  4.3114
  805MOL0     H 6203   9.270   4.055   7.035  3.4905  0.9335 -3.7766
  805MOL0     H 6204   9.238   4.200   7.116 -4.6430 -2.5174  0.8884
  805MOL0     H 6205   9.119   4.111   6.854  0.4059 -0.2734  0.1907
  805MOL0     H 6206   9.084   4.267   6.917  1.3482 -0.4693 -2.8533
  805MOL0     H 6207   9.005   4.133   7.130 -1.7633 -0.0033 -0.5658
  805MOL0     H 6208   9.008   3.996   7.028  0.6562 -0.5375  1.8785
  805MOL0     H 6209   8.825   4.237   7.022  0.6186 -0.6258  0.7774
  805MOL0     H 6210   8.860   4.164   6.868  0.2738  3.4164  0.9460
  805MOL0     H 6211   8.780   3.958   6.939  0.2256  1.3099 -0.7492
  805MOL0     H 6212   8.658   4.096   6.960  0.2698 -0.8127 -2.5131
  805MOL0     H 6213   8.650   4.171   7.264 -1.1837 -0.6939 -1.1183
  805MOL0     H 6214   8.634   3.969   7.542  0.1633  1.9715 -0.5080
  805MOL0     H 6215   8.734   4.113   7.540 -1.0479  0.5609 -2.6581
  805MOL0     H 6216   8.940   3.956   7.521  0.5094 -3.3859  0.4918
  805MOL0     H 6217   8.832   3.835   7.563 -0.5485  0.3750 -1.4346
  805MOL0     H 6218   8.779   4.029   7.763  1.7546  1.7021  0.1422
  805MOL0     H 6219   8.919   3.905   7.761  0.0759 -0.2044 -0.5453
  805MOL0     H 6220   8.917   4.203   7.687 -1.5604 -1.3659  0.8506
  805MOL0     H 6221   9.052   4.098   7.641  1.8626 -1.6063  1.9860
  805MOL0     H 6222   9.109   4.360   7.641  0.9808  1.8079  0.2727
  805MOL0     H 6223   9.295   4.503   7.666  1.0107  1.0087  2.0063
  805MOL0     H 6224   9.819   4.345   7.922  1.7353  0.0776  2.9325
  805MOL0     H 6225  10.026   4.420   7.922  0.3837 -0.5444  0.5792
  805MOL0     H 6226  10.054   4.890   7.930  2.3231  2.6640  0.2681
  805MOL0     H 6227  10.095   4.820   7.775 -1.2625 -3.3967  0.2228
  805MOL0     H 6228  10.280   4.860   8.015  3.3190  0.4478 -0.5878
  805MOL0     H 6229  10.275   4.951   7.860 -0.8406 -1.7244 -2.9754
  805MOL0     H 6230  10.363   4.763   7.732  3.0777  0.8321 -0.1694
  805MOL0     H 6231  10.364   4.669   7.878 -0.0840  1.0317  4.1549
  805MOL0     H 6232  10.498   4.939   7.832 -0.4490  1.1821  2.9283
  805MOL0     H 6233  10.518   4.833   7.980 -0.9761 -4.4722  0.2684
  805MOL0     H 6234  10.716   4.813   7.817 -0.4877  0.6729 -1.0299
  805MOL0     H 6235  10.608   4.760   7.692 -0.1424 -0.8037 -0.9092
  805MOL0     H 6236  10.548   4.564   7.819  0.1616 -1.4922 -0.9442
  805MOL0     H 6237  10.627   4.628   7.970  1.6831  2.2239 -0.2825
  805MOL0     H 6238  10.770   4.557   7.705 -2.3167  4.0293 -0.0034
  805MOL0     H 6239  10.851   4.594   7.863 -0.3361 -0.6186  0.9273
  805MOL0     H 6240  10.731   4.391   7.953  2.0643 -2.0276  0.5770
  805MOL0     H 6241  10.857   4.360   7.831  0.9453  2.8248  0.1453
  805MOL0     H 6242   9.861   4.819   7.876 -0.7726 -0.9034 -1.4376
  805MOL0     H 6243   9.635   4.722   7.934 -1.2619 -0.9914 -1.5652
  805MOL0     H 6244   9.449   4.253   7.982  1.1664 -0.7492 -1.7346
  805MOL0     H 6245   9.245   4.114   7.969 -2.7579  0.6100  0.6911
  805MOL0     H 6246   9.741   4.443   7.067 -2.0336 -3.0707 -3.3160
  805MOL0     H 6247   9.950   4.589   7.109  0.3033  1.4936 -1.6372
  805MOL0     H 6248  10.415   4.522   6.915  1.1907 -0.1593 -1.5210
  805MOL0     H 6249  10.615   4.633   6.842  0.8266  0.4338 -0.2162
  805MOL0     H 6250  10.751   4.935   7.133  0.3751 -0.3202  0.0839
  805MOL0     H 6251  10.747   5.028   6.971  0.5771 -1.7268 -1.9446
  805MOL0     H 6252  10.980   4.856   7.065 -0.6015 -1.2589 -2.1078
  805MOL0     H 6253  10.960   4.967   6.928 -3.3045 -1.7913 -1.0990
  805MOL0     H 6254  10.935   5.063   7.208  4.1283 -0.1763  2.7323
  805MOL0     H 6255  10.956   5.146   7.046 -1.4128 -2.4898 -2.2746
  805MOL0     H 6256  11.183   5.097   7.045 -0.1490  0.3230  0.7299
  805MOL0     H 6257  11.156   5.159   7.202  0.2692 -0.9183  0.4520
  805MOL0     H 6258  11.279   4.744   7.258  2.9878  1.4214 -0.4040
  805MOL0     H 6259  10.540   4.942   7.136 -1.0443  1.5339 -1.7065
  805MOL0     H 6260  10.308   4.862   7.151 -0.1745 -2.9473  0.9378
  806MOL0     O 6261   9.439   7.415   2.640 -0.6655 -0.0734 -0.1222
  806MOL0     C 6262   9.381   7.309   2.631 -0.4781 -0.2023 -0.2136
  806MOL0     O 6263   9.239   7.301   2.635  0.2470  0.1438 -0.1090
  806MOL0     C 6264   9.155   7.404   2.681 -0.2348 -0.1769 -0.0629
  806MOL0     C 6265   9.195   7.502   2.778  0.7796 -0.5797  0.3615
  806MOL0     C 6266   9.100   7.602   2.822  0.9883 -0.0120  0.4897
  806MOL0     C 6267   8.964   7.593   2.774 -0.2260  0.5661 -0.4818
  806MOL0     O 6268   8.860   7.683   2.794 -0.0189  0.5035 -0.7333
  806MOL0     C 6269   8.878   7.815   2.852 -0.6435 -0.3643 -0.5259
  806MOL0     C 6270   8.841   7.834   3.009  0.0306  0.1211  0.4601
  806MOL0     C 6271   8.945   7.761   3.097 -0.4742  0.1057 -0.4595
  806MOL0     C 6272   8.912   7.793   3.241 -0.7062 -1.2672  0.1743
  806MOL0     C 6273   9.000   7.724   3.344  0.1455 -0.7526 -0.4811
  806MOL0     C 6274   8.969   7.573   3.367 -0.2087  0.2490  0.0780
  806MOL0     C 6275   8.830   7.534   3.433 -1.1013 -0.2130  0.3241
  806MOL0     C 6276   8.847   7.491   3.575  0.4172 -0.3066  0.3283
  806MOL0     N 6277   8.727   7.408   3.615  0.2321  0.6899 -0.1229
  806MOL0     C 6278   8.606   7.456   3.650  0.0751  0.0048 -0.5102
  806MOL0     C 6279   8.530   7.352   3.680 -0.1539  0.6713  0.5113
  806MOL0     C 6280   8.384   7.351   3.719  0.5209  0.0494 -0.3070
  806MOL0     C 6281   8.303   7.371   3.577 -0.0056  0.0540 -0.1421
  806MOL0     C 6282   8.167   7.444   3.607 -0.6314  0.6291  0.3598
  806MOL0     C 6283   8.057   7.363   3.552  0.1999  1.5649  1.0698
  806MOL0     O 6284   7.935   7.436   3.536 -0.3833 -0.2816 -0.1055
  806MOL0     C 6285   7.816   7.375   3.507  1.2417  0.1515 -0.2820
  806MOL0     C 6286   7.705   7.456   3.533  0.5451 -1.0257  0.0476
  806MOL0     C 6287   7.574   7.409   3.537 -0.8895 -0.7967  0.1640
  806MOL0     C 6288   7.554   7.270   3.498 -0.2308  0.2291  0.5046
  806MOL0     C 6289   7.415   7.221   3.483 -0.3574  0.5770  0.1602
  806MOL0     O 6290   7.321   7.313   3.510 -0.3438 -0.1249 -0.2530
  806MOL0     C 6291   7.189   7.304   3.473 -0.1773  0.3038  0.0213
  806MOL0     C 6292   7.129   7.423   3.433  0.9895  0.3157 -0.1077
  806MOL0     C 6293   6.983   7.437   3.420  0.3628  0.6004 -0.8715
  806MOL0     C 6294   6.904   7.325   3.433 -0.4000 -0.0730 -0.7908
  806MOL0     O 6295   6.765   7.350   3.412 -0.3416 -0.3543  0.6676
  806MOL0     C 6296   6.686   7.229   3.390 -0.6826  0.2863  0.0060
  806MOL0     C 6297   6.551   7.247   3.317 -0.8916 -0.5697 -0.6200
  806MOL0     C 6298   6.451   7.332   3.397 -0.8630  0.6009 -0.3231
  806MOL0     C 6299   6.306   7.324   3.346 -0.5366  0.3672 -0.2332
  806MOL0     C 6300   6.214   7.402   3.434  0.4269 -0.6160 -0.2323
  806MOL0     C 6301   6.233   7.552   3.429 -0.1833  0.0786 -0.3066
  806MOL0     C 6302   6.155   7.613   3.544 -0.4505  0.1098  1.0170
  806MOL0     C 6303   6.002   7.597   3.542  0.3580 -0.2193 -0.3283
  806MOL0    Cl 6304   5.974   7.437   3.618  0.2213 -0.0309 -0.3340
  806MOL0     C 6305   6.970   7.202   3.472 -0.3075 -0.6276 -0.6620
  806MOL0     C 6306   7.114   7.190   3.495 -0.0908  0.5191  0.1039
  806MOL0     O 6307   7.399   7.106   3.432  1.0092  0.3046 -0.4871
  806MOL0     C 6308   7.666   7.187   3.467  0.3382 -0.2811 -0.0736
  806MOL0     C 6309   7.792   7.238   3.477 -0.7488  0.5091 -0.1376
  806MOL0     N 6310   8.607   7.235   3.646  0.0616  0.3435 -0.3947
  806MOL0     N 6311   8.723   7.272   3.601  0.1332  0.3075  0.4879
  806MOL0     C 6312   8.931   7.489   2.683  0.6927  0.3321  0.0495
  806MOL0     C 6313   9.027   7.397   2.635 -0.3253 -0.5768  0.1138
  806MOL0     C 6314   9.460   7.207   2.590 -0.0912  0.7207  0.5936
  806MOL0     C 6315   9.399   7.080   2.582 -0.7049  0.2650  0.3354
  806MOL0     C 6316   9.470   6.962   2.545  0.7740  0.0791 -0.4568
  806MOL0     C 6317   9.600   6.969   2.499 -0.0826 -0.0463  0.0923
  806MOL0     O 6318   9.653   6.851   2.449  0.0097 -0.4430 -0.2839
  806MOL0     C 6319   9.800   6.836   2.428 -0.4907 -0.6426 -0.5985
  806MOL0     C 6320   9.837   6.690   2.433  0.4863 -0.1546 -0.2853
  806MOL0     C 6321   9.993   6.674   2.447 -0.2692 -0.1391  0.2067
  806MOL0     C 6322  10.045   6.534   2.404  0.4720  0.3538 -0.3609
  806MOL0     C 6323  10.187   6.535   2.416  0.3021  0.1762 -0.4697
  806MOL0     C 6324  10.303   6.565   2.452 -0.2378  0.0696 -0.2624
  806MOL0     C 6325   9.661   7.098   2.511 -1.1011  0.4086 -0.4547
  806MOL0     C 6326   9.594   7.212   2.558 -0.2351 -0.1470 -0.0651
  806MOL0     H 6327   9.301   7.505   2.800  0.5691 -0.2642  1.4028
  806MOL0     H 6328   9.135   7.682   2.886  2.0768 -1.0246  1.2115
  806MOL0     H 6329   8.800   7.872   2.799 -0.8306 -1.4541 -1.4809
  806MOL0     H 6330   8.974   7.851   2.813 -1.5462  1.1522 -1.4697
  806MOL0     H 6331   8.739   7.794   3.020 -1.0131  2.7091  0.8088
  806MOL0     H 6332   8.832   7.941   3.029 -1.1940 -0.0898  1.1824
  806MOL0     H 6333   9.048   7.795   3.080 -0.1310 -1.4910 -1.8514
  806MOL0     H 6334   8.944   7.652   3.087  2.4501 -0.1951  1.2017
  806MOL0     H 6335   8.923   7.901   3.255 -1.7903 -1.3707  2.1297
  806MOL0     H 6336   8.803   7.781   3.241 -0.6633 -1.7238  1.2358
  806MOL0     H 6337   8.996   7.775   3.440  2.2001 -0.0877 -0.6845
  806MOL0     H 6338   9.105   7.743   3.321 -0.5798  2.4140 -1.8188
  806MOL0     H 6339   9.047   7.513   3.415 -2.1286 -1.7700  0.8249
  806MOL0     H 6340   8.969   7.528   3.267  2.7886  0.2893 -0.0513
  806MOL0     H 6341   8.750   7.608   3.431 -2.8524 -2.0292 -1.3002
  806MOL0     H 6342   8.793   7.453   3.370 -0.2499  0.3480 -0.9473
  806MOL0     H 6343   8.843   7.584   3.634  0.0819 -1.3666  2.0443
  806MOL0     H 6344   8.944   7.443   3.585  1.4903  1.5851 -0.5616
  806MOL0     H 6345   8.581   7.561   3.650  0.9200  0.2221  0.2829
  806MOL0     H 6346   8.357   7.423   3.797  1.7833 -3.0984  3.3678
  806MOL0     H 6347   8.363   7.251   3.757  1.6844  0.1546  0.6903
  806MOL0     H 6348   8.280   7.274   3.531  0.8832  0.3928 -1.3560
  806MOL0     H 6349   8.370   7.426   3.510  0.3659 -1.1607 -0.8007
  806MOL0     H 6350   8.157   7.467   3.713 -0.0272 -0.5462  0.6858
  806MOL0     H 6351   8.177   7.539   3.554  1.3801 -0.7576 -1.9865
  806MOL0     H 6352   8.053   7.282   3.625 -0.4624  1.4070  0.8673
  806MOL0     H 6353   8.079   7.316   3.456  0.6022  0.4846  1.6864
  806MOL0     H 6354   7.727   7.561   3.550  0.6684 -1.2725  1.5230
  806MOL0     H 6355   7.493   7.477   3.557  0.4294  0.7808  0.3535
  806MOL0     H 6356   7.187   7.513   3.418  2.2043 -0.9231 -3.8790
  806MOL0     H 6357   6.934   7.529   3.388 -2.9711  0.3365  2.7351
  806MOL0     H 6358   6.669   7.188   3.490  2.8574  0.3837  0.7894
  806MOL0     H 6359   6.740   7.155   3.331  0.2292 -1.2841  2.6663
  806MOL0     H 6360   6.491   7.160   3.289  2.2007 -2.5536 -1.6666
  806MOL0     H 6361   6.572   7.294   3.220 -1.0547  0.6856 -0.0713
  806MOL0     H 6362   6.488   7.433   3.379 -2.2841  0.7235 -3.2978
  806MOL0     H 6363   6.450   7.308   3.504 -0.3646 -3.7811 -1.1015
  806MOL0     H 6364   6.300   7.359   3.242  0.5783 -1.2587 -0.8999
  806MOL0     H 6365   6.268   7.224   3.366  2.9592 -0.5185  3.3317
  806MOL0     H 6366   6.230   7.377   3.540  1.0852  1.8079  0.3002
  806MOL0     H 6367   6.111   7.373   3.413 -0.2609 -0.1105  2.1333
  806MOL0     H 6368   6.194   7.598   3.337 -2.7296 -1.6642 -0.1926
  806MOL0     H 6369   6.339   7.566   3.452 -0.2682 -0.1291  0.2181
  806MOL0     H 6370   6.205   7.576   3.634 -0.3148 -0.9293  0.5404
  806MOL0     H 6371   6.176   7.718   3.566  3.5467 -0.5856  1.3893
  806MOL0     H 6372   5.965   7.600   3.439 -2.5883  1.4198  0.6601
  806MOL0     H 6373   5.943   7.670   3.597 -1.0528 -0.9914 -0.7571
  806MOL0     H 6374   6.912   7.111   3.482 -0.9617 -0.2862 -1.2730
  806MOL0     H 6375   7.158   7.099   3.534 -0.6989  0.3977  0.5352
  806MOL0     H 6376   7.672   7.081   3.445  1.2760 -0.6923  1.8994
  806MOL0     H 6377   7.879   7.174   3.462 -2.2627 -2.3484  2.1274
  806MOL0     H 6378   8.827   7.474   2.658  0.1176 -1.9050  3.2147
  806MOL0     H 6379   9.006   7.329   2.554 -2.3796  1.0563 -0.8349
  806MOL0     H 6380   9.295   7.070   2.609 -1.4580  0.2236 -2.3591
  806MOL0     H 6381   9.409   6.872   2.544  1.6529 -0.5820  1.5268
  806MOL0     H 6382   9.861   6.893   2.499 -1.6895  0.8082 -0.6777
  806MOL0     H 6383   9.829   6.881   2.332  0.2384 -0.2104 -0.1894
  806MOL0     H 6384   9.801   6.650   2.529 -0.8372 -5.4801 -2.6392
  806MOL0     H 6385   9.789   6.645   2.346  1.9233 -2.9630  0.2596
  806MOL0     H 6386  10.025   6.690   2.551  0.3809 -2.3398  0.4077
  806MOL0     H 6387  10.031   6.756   2.386 -2.3441 -0.1160 -1.1670
  806MOL0     H 6388   9.992   6.466   2.470  0.4384 -1.6368 -2.3122
  806MOL0     H 6389  10.008   6.510   2.304  0.0620  1.5317 -0.5073
  806MOL0     H 6390  10.406   6.592   2.461 -0.5202  0.4773  2.8161
  806MOL0     H 6391   9.759   7.114   2.468  0.6079  0.0821  2.9649
  806MOL0     H 6392   9.649   7.304   2.544  1.0005 -0.7247  0.8318
  807MOL0     O 6393   9.850   4.950  10.320 -0.0068  0.2488  0.2957
  807MOL0     C 6394   9.929   5.014  10.261 -0.2044 -0.3866  1.1704
  807MOL0     O 6395   9.906   5.101  10.155  0.3433  0.3654 -0.0402
  807MOL0     C 6396   9.784   5.132  10.102 -0.2002  0.9797 -0.1783
  807MOL0     C 6397   9.726   5.262  10.111  0.3685  0.4857  0.2170
  807MOL0     C 6398   9.602   5.296  10.054  0.0622 -0.1447  0.0131
  807MOL0     C 6399   9.522   5.204   9.996  0.4588  0.1211 -0.7662
  807MOL0     O 6400   9.411   5.246   9.940  0.3915  0.0054 -0.0693
  807MOL0     C 6401   9.294   5.184   9.981 -0.0907  0.4775 -0.1851
  807MOL0     C 6402   9.193   5.294   9.985 -0.6106  0.2804  1.1704
  807MOL0     C 6403   9.157   5.327   9.840 -0.7633  0.1775 -0.3262
  807MOL0     C 6404   9.059   5.452   9.813 -0.4521  0.4256 -0.0553
  807MOL0     C 6405   8.939   5.440   9.897  0.2049  0.1660 -0.4681
  807MOL0     C 6406   8.831   5.535   9.848 -0.3675 -0.2417  0.2116
  807MOL0     C 6407   8.733   5.574   9.957 -0.7933  0.3114  0.0887
  807MOL0     C 6408   8.664   5.703   9.910  0.2087  0.4570  0.2004
  807MOL0     N 6409   8.562   5.754  10.001  0.3464 -0.7537 -0.5332
  807MOL0     C 6410   8.574   5.876  10.064  0.6017 -0.0644 -0.1164
  807MOL0     C 6411   8.472   5.877  10.149 -0.1993  0.2796 -0.5808
  807MOL0     C 6412   8.450   5.985  10.246 -0.6045 -0.8734  0.4134
  807MOL0     C 6413   8.449   5.923  10.389  0.0842 -0.0278  0.5467
  807MOL0     C 6414   8.386   6.021  10.483  0.2225 -0.0325  1.3938
  807MOL0     C 6415   8.237   5.999  10.486  0.3245 -0.4082 -0.0370
  807MOL0     O 6416   8.172   6.087  10.580 -0.0433  0.4541 -0.3578
  807MOL0     C 6417   8.035   6.077  10.602 -0.2051  0.1569  0.4700
  807MOL0     C 6418   7.979   6.124  10.720 -0.7787  0.3929 -0.2723
  807MOL0     C 6419   7.849   6.107  10.765  0.0117  0.5272 -0.1512
  807MOL0     C 6420   7.764   6.029  10.688 -0.7997  0.5285 -0.0779
  807MOL0     C 6421   7.619   6.015  10.726  0.1032 -0.4388 -0.2936
  807MOL0     O 6422   7.573   6.076  10.838 -0.9007  0.8071 -0.5286
  807MOL0     C 6423   7.437   6.069  10.865 -0.8671  0.5227  0.4180
  807MOL0     C 6424   7.402   6.005  10.985  0.2905  0.0125  0.1293
  807MOL0     C 6425   7.271   5.994  11.014  0.0861  0.3288  0.4260
  807MOL0     C 6426   7.169   6.061  10.943 -0.0354  0.0359  0.2270
  807MOL0     O 6427   7.033   6.067  10.969  0.4780 -0.6154  0.1604
  807MOL0     C 6428   6.990   6.023  11.100 -0.6589  0.9125 -0.7078
  807MOL0     C 6429   6.852   6.079  11.116 -0.1171 -0.4626 -0.3436
  807MOL0     C 6430   6.767   6.016  11.004 -0.1257 -0.2163 -0.5137
  807MOL0     C 6431   6.620   6.061  11.017 -0.8618 -0.5472 -0.2498
  807MOL0     C 6432   6.524   5.967  10.947  0.1752  0.2514  0.0594
  807MOL0     C 6433   6.372   6.004  10.950  0.1161  0.0253  0.1497
  807MOL0     C 6434   6.314   6.003  11.094  0.0908 -0.8494 -0.5836
  807MOL0     C 6435   6.160   6.019  11.104 -0.5663 -0.0073 -0.0408
  807MOL0    Cl 6436   6.091   5.872  11.022 -0.3280 -0.4783  0.0661
  807MOL0     C 6437   7.210   6.133  10.829  0.0391  0.6089 -0.6043
  807MOL0     C 6438   7.340   6.128  10.783  0.5191 -1.2781 -0.7972
  807MOL0     O 6439   7.546   5.960  10.642  0.1843 -0.0331 -0.0192
  807MOL0     C 6440   7.820   5.966  10.571  0.1540  0.5324 -0.0432
  807MOL0     C 6441   7.947   5.996  10.523  0.0834 -0.6207  0.6032
  807MOL0     N 6442   8.383   5.779  10.110  0.4849  0.7147 -0.6371
  807MOL0     N 6443   8.450   5.693  10.027 -0.6999 -0.0000 -0.1586
  807MOL0     C 6444   9.567   5.075   9.990  0.0195  0.2489 -0.1595
  807MOL0     C 6445   9.692   5.034  10.046 -0.2381 -0.9943 -0.2731
  807MOL0     C 6446  10.073   4.973  10.286  0.7391  0.6832 -0.1425
  807MOL0     C 6447  10.161   5.051  10.203  0.2573 -0.7347  0.5738
  807MOL0     C 6448  10.297   5.026  10.218 -0.3616 -0.9926  0.6767
  807MOL0     C 6449  10.353   4.930  10.305 -0.4148 -1.4191 -0.1806
  807MOL0     O 6450  10.483   4.903  10.316 -0.5504  0.1033  0.1376
  807MOL0     C 6451  10.585   4.999  10.279  0.0808  0.6586  0.5216
  807MOL0     C 6452  10.591   5.116  10.368 -0.6924  0.0361  0.0385
  807MOL0     C 6453  10.736   5.171  10.342  0.1800 -1.0473  0.2362
  807MOL0     C 6454  10.777   5.295  10.429 -0.8698  0.2046 -0.1574
  807MOL0     C 6455  10.696   5.412  10.427 -0.0641  0.5384  0.7201
  807MOL0     C 6456  10.615   5.504  10.419  0.0768  0.1958  0.7041
  807MOL0     C 6457  10.263   4.861  10.387  0.4973  0.4008  0.9631
  807MOL0     C 6458  10.124   4.884  10.379 -0.6494  0.0709 -0.1259
  807MOL0     H 6459   9.791   5.345  10.139  1.4304 -0.7206  1.4652
  807MOL0     H 6460   9.570   5.399  10.043  2.9251  0.8354 -0.0939
  807MOL0     H 6461   9.303   5.153  10.085  0.3454  4.0183  0.9782
  807MOL0     H 6462   9.260   5.096   9.926  0.3443  1.6348 -2.4552
  807MOL0     H 6463   9.230   5.380  10.041 -0.8030  2.7948 -2.2040
  807MOL0     H 6464   9.108   5.248  10.036 -1.2081  0.3096  0.2278
  807MOL0     H 6465   9.120   5.235   9.794 -3.3375  1.5725 -1.2926
  807MOL0     H 6466   9.258   5.342   9.800  1.6656 -4.8033  2.9071
  807MOL0     H 6467   9.110   5.546   9.839 -0.6466  0.0528  1.8651
  807MOL0     H 6468   9.034   5.457   9.707 -0.2476  0.1540 -0.1176
  807MOL0     H 6469   8.968   5.471   9.998 -1.3768  1.5020 -0.3963
  807MOL0     H 6470   8.897   5.339   9.897 -1.2214  0.6831  1.8499
  807MOL0     H 6471   8.769   5.474   9.781  0.2847 -0.8005  0.1049
  807MOL0     H 6472   8.870   5.622   9.795 -0.5892  0.1060  0.6136
  807MOL0     H 6473   8.656   5.498   9.969 -1.3709  1.1824  2.4946
  807MOL0     H 6474   8.778   5.605  10.052 -1.0545  4.4726 -0.9376
  807MOL0     H 6475   8.610   5.689   9.816 -1.4769  3.1615  0.6608
  807MOL0     H 6476   8.745   5.776   9.893  2.8485 -2.0405  1.2125
  807MOL0     H 6477   8.652   5.951  10.053  0.3831  0.8920  3.5153
  807MOL0     H 6478   8.362   6.035  10.206 -1.0021 -2.6701 -1.1430
  807MOL0     H 6479   8.537   6.051  10.257 -1.3686  0.2473 -0.1140
  807MOL0     H 6480   8.550   5.902  10.426  0.1303 -1.5666 -0.3952
  807MOL0     H 6481   8.387   5.834  10.390 -0.5976  0.4269 -0.0648
  807MOL0     H 6482   8.427   6.005  10.583 -0.1410 -2.4704  1.2167
  807MOL0     H 6483   8.414   6.123  10.454  1.9735 -0.1096  2.6573
  807MOL0     H 6484   8.213   5.896  10.515 -2.4832 -0.3868 -1.8965
  807MOL0     H 6485   8.197   6.012  10.386  0.1113  0.7876  0.1882
  807MOL0     H 6486   8.035   6.197  10.778 -0.8731  1.0031 -0.9428
  807MOL0     H 6487   7.812   6.165  10.849  1.5731 -1.3350  1.9473
  807MOL0     H 6488   7.479   5.951  11.039 -1.2592  0.1049  2.5697
  807MOL0     H 6489   7.235   5.925  11.089  1.7938  0.0117  1.0113
  807MOL0     H 6490   7.055   6.070  11.175 -0.0290 -0.3654 -0.4247
  807MOL0     H 6491   6.989   5.917  11.125 -0.1014  1.1791  0.5233
  807MOL0     H 6492   6.855   6.188  11.112 -0.0404 -0.3575  1.5629
  807MOL0     H 6493   6.822   6.055  11.219 -0.0475  0.5254 -0.0848
  807MOL0     H 6494   6.783   5.907  11.006  1.9045  0.0236  1.4242
  807MOL0     H 6495   6.798   6.054  10.907 -2.9941  0.1316 -1.3798
  807MOL0     H 6496   6.588   6.072  11.121  0.3200 -3.0649  0.4712
  807MOL0     H 6497   6.619   6.164  10.982  2.6286  0.3159  1.7462
  807MOL0     H 6498   6.540   5.869  10.994  0.5413  1.2020  2.0168
  807MOL0     H 6499   6.555   5.964  10.842 -0.6204 -1.4401 -0.1588
  807MOL0     H 6500   6.323   5.923  10.896  3.0252 -1.0921 -1.0362
  807MOL0     H 6501   6.361   6.099  10.897 -0.8040 -1.9700 -3.6198
  807MOL0     H 6502   6.328   5.908  11.146  0.4101  0.4563  1.9056
  807MOL0     H 6503   6.364   6.083  11.150 -1.9854 -0.9946  1.6533
  807MOL0     H 6504   6.121   6.104  11.047 -1.4477 -0.4375 -0.0949
  807MOL0     H 6505   6.121   6.030  11.205 -0.2467  0.4615  0.0326
  807MOL0     H 6506   7.142   6.192  10.768  1.0223  1.7802 -0.6061
  807MOL0     H 6507   7.376   6.174  10.691 -0.8053 -1.1138 -1.2480
  807MOL0     H 6508   7.758   5.883  10.539  0.9326 -0.5871  1.2626
  807MOL0     H 6509   7.979   5.945  10.433 -0.4021 -2.0666  1.2176
  807MOL0     H 6510   9.507   4.994   9.949 -1.0019  0.7882  0.2168
  807MOL0     H 6511   9.734   4.934  10.050  2.4579  0.0153 -0.9773
  807MOL0     H 6512  10.130   5.119  10.124 -0.4359 -1.1623  0.4697
  807MOL0     H 6513  10.371   5.076  10.156  1.5976 -1.4729  2.5482
  807MOL0     H 6514  10.580   5.027  10.174  3.6716 -0.0348  0.0506
  807MOL0     H 6515  10.677   4.941  10.288 -0.7277 -0.8789 -0.7096
  807MOL0     H 6516  10.512   5.184  10.337 -0.9829 -0.1429  0.3718
  807MOL0     H 6517  10.566   5.084  10.470 -1.0410  0.8932  0.2232
  807MOL0     H 6518  10.748   5.200  10.237  0.0956 -1.8378 -0.0026
  807MOL0     H 6519  10.812   5.096  10.366  0.6086 -0.4201  0.8805
  807MOL0     H 6520  10.788   5.274  10.536 -0.4085  0.7951 -0.0875
  807MOL0     H 6521  10.881   5.322  10.411 -0.9878  2.1271  1.6976
  807MOL0     H 6522  10.546   5.586  10.417  0.0969  0.2032 -0.1376
  807MOL0     H 6523  10.295   4.786  10.459 -0.0322  0.5458  1.3494
  807MOL0     H 6524  10.061   4.817  10.435 -0.2946 -0.3379 -0.2074
  808MOL0     O 6525   1.035   4.401   8.048 -0.1058  0.0893  0.3249
  808MOL0     C 6526   1.117   4.355   7.970  0.5723 -0.2145  0.3122
  808MOL0     O 6527   1.090   4.301   7.852  0.5854  0.2037 -0.0232
  808MOL0     C 6528   0.967   4.315   7.791  0.1175  0.4774  0.1532
  808MOL0     C 6529   0.880   4.424   7.808 -0.4754  0.2885  0.1046
  808MOL0     C 6530   0.749   4.426   7.753 -0.1798 -0.9355  0.3944
  808MOL0     C 6531   0.705   4.326   7.669  0.0994  0.4341 -0.4940
  808MOL0     O 6532   0.581   4.332   7.614 -0.5601  0.2549  0.4764
  808MOL0     C 6533   0.502   4.214   7.624 -0.2626 -0.7615  0.1376
  808MOL0     C 6534   0.361   4.252   7.583  0.2243  0.2208  0.0959
  808MOL0     C 6535   0.261   4.144   7.612 -1.1286 -0.1079  0.6159
  808MOL0     C 6536   0.117   4.196   7.593  1.1143  0.0883  0.5019
  808MOL0     C 6537   0.018   4.078   7.595 -0.4639 -0.9375  0.6156
  808MOL0     C 6538  -0.120   4.137   7.587 -0.3079 -1.2560  0.6448
  808MOL0     C 6539  -0.218   4.023   7.570  0.7146  0.8991 -0.2219
  808MOL0     C 6540  -0.358   4.070   7.591 -0.0808 -0.1439  1.3761
  808MOL0     N 6541  -0.459   3.980   7.537  0.0680 -0.8239  0.1521
  808MOL0     C 6542  -0.582   4.026   7.495  0.7478  0.1130  0.3916
  808MOL0     C 6543  -0.667   3.914   7.492 -0.4972 -0.5050  0.4615
  808MOL0     C 6544  -0.815   3.932   7.461 -0.1202 -0.0918  0.0819
  808MOL0     C 6545  -0.839   3.903   7.311 -0.7868 -0.0134 -0.2267
  808MOL0     C 6546  -0.982   3.937   7.262 -0.1016 -0.6693 -0.3980
  808MOL0     C 6547  -1.092   3.830   7.302 -0.2631  0.5277 -0.4408
  808MOL0     O 6548  -1.202   3.870   7.228  0.1062 -0.4485 -0.4364
  808MOL0     C 6549  -1.280   3.770   7.178  1.5314 -0.4249  0.7190
  808MOL0     C 6550  -1.355   3.799   7.056  0.8048 -0.0288  0.3501
  808MOL0     C 6551  -1.434   3.702   6.987  0.4008 -0.2651 -0.3278
  808MOL0     C 6552  -1.435   3.565   7.031  0.7408 -0.2293  0.1647
  808MOL0     C 6553  -1.489   3.459   6.947  0.1854 -0.7313 -0.5537
  808MOL0     O 6554  -1.482   3.328   6.998 -0.1621  0.5471  0.4504
  808MOL0     C 6555  -1.509   3.224   6.916  0.0718 -0.2340 -1.2103
  808MOL0     C 6556  -1.634   3.172   6.903 -0.4329 -0.4601 -0.5790
  808MOL0     C 6557  -1.661   3.063   6.805  0.0482 -0.8644  0.3118
  808MOL0     C 6558  -1.564   3.024   6.720  0.5427  0.8497 -0.1320
  808MOL0     O 6559  -1.593   2.935   6.619  0.2804  0.0218  0.1243
  808MOL0     C 6560  -1.620   3.009   6.495  0.3881  0.2430  0.4460
  808MOL0     C 6561  -1.656   2.925   6.371  0.1342  0.1513  0.0657
  808MOL0     C 6562  -1.804   2.872   6.368  0.8419  0.0871 -1.0239
  808MOL0     C 6563  -1.905   2.972   6.428 -0.0025 -0.0534  0.7940
  808MOL0     C 6564  -2.044   2.933   6.393  0.1987  0.4893  0.1091
  808MOL0     C 6565  -2.147   2.993   6.487  0.2700  0.6362  0.6368
  808MOL0     C 6566  -2.291   2.941   6.466  0.5521  0.2005  0.3509
  808MOL0     C 6567  -2.381   3.018   6.552  0.1649 -0.1385 -0.3562
  808MOL0    Cl 6568  -2.347   2.972   6.729 -0.1304  0.0585  0.2780
  808MOL0     C 6569  -1.434   3.083   6.730  0.7729 -0.2440 -0.2781
  808MOL0     C 6570  -1.407   3.173   6.838 -0.2955  0.7271  0.6508
  808MOL0     O 6571  -1.535   3.487   6.841  0.2018 -0.0673  0.4147
  808MOL0     C 6572  -1.383   3.543   7.159 -0.8494  0.1019 -0.0896
  808MOL0     C 6573  -1.303   3.641   7.229 -0.8933  0.2981  0.5538
  808MOL0     N 6574  -0.590   3.804   7.518  0.1619 -0.2931  0.6793
  808MOL0     N 6575  -0.465   3.840   7.545 -0.4837  0.4332 -0.0589
  808MOL0     C 6576   0.795   4.217   7.640  0.4267 -0.2149 -0.9614
  808MOL0     C 6577   0.916   4.209   7.715 -0.6740 -0.6493  0.1013
  808MOL0     C 6578   1.260   4.350   8.019 -0.2912  0.0985  0.4986
  808MOL0     C 6579   1.299   4.367   8.156  0.0997  0.0940  0.6629
  808MOL0     C 6580   1.438   4.350   8.194 -0.0076 -0.6226 -0.3995
  808MOL0     C 6581   1.534   4.324   8.106 -0.6146  0.0683 -0.4208
  808MOL0     O 6582   1.661   4.303   8.150  0.1677 -0.2133 -0.5636
  808MOL0     C 6583   1.716   4.419   8.222  0.0922 -0.1386  0.0560
  808MOL0     C 6584   1.867   4.436   8.202 -0.3723  0.7437 -0.1405
  808MOL0     C 6585   1.950   4.308   8.249 -0.8931 -0.1461  1.0009
  808MOL0     C 6586   2.095   4.317   8.196  0.4523 -0.5859 -0.2370
  808MOL0     C 6587   2.172   4.422   8.272  0.1763 -0.4714  0.2305
  808MOL0     C 6588   2.224   4.507   8.338  0.4741 -0.2025 -0.2616
  808MOL0     C 6589   1.499   4.312   7.972  0.7960 -0.3352 -1.3641
  808MOL0     C 6590   1.366   4.325   7.926  0.3541  0.5532 -0.4443
  808MOL0     H 6591   0.918   4.506   7.867  1.8353  0.1274 -1.0245
  808MOL0     H 6592   0.694   4.518   7.767 -0.7543 -1.3039  0.6403
  808MOL0     H 6593   0.504   4.186   7.730  0.3610 -0.8324  0.1096
  808MOL0     H 6594   0.543   4.129   7.567 -0.3956  0.7341 -2.3458
  808MOL0     H 6595   0.363   4.283   7.478  1.9115  2.2247  0.6652
  808MOL0     H 6596   0.331   4.344   7.634  0.1429  0.5167 -0.4763
  808MOL0     H 6597   0.282   4.130   7.718 -2.3489  0.3346  0.9410
  808MOL0     H 6598   0.282   4.053   7.556  0.6794  0.5810  0.1117
  808MOL0     H 6599   0.093   4.267   7.673  2.2854 -0.3562  1.2778
  808MOL0     H 6600   0.114   4.241   7.493  0.0777 -2.2727 -0.5979
  808MOL0     H 6601   0.033   4.031   7.693  0.0973  1.0708  1.5445
  808MOL0     H 6602   0.039   4.007   7.514  1.9057 -0.6002  0.8565
  808MOL0     H 6603  -0.126   4.203   7.500  1.1642  1.4186  2.4410
  808MOL0     H 6604  -0.137   4.193   7.679  0.6756  0.2027 -0.0295
  808MOL0     H 6605  -0.208   3.983   7.468 -0.1385 -0.5693  0.2412
  808MOL0     H 6606  -0.215   3.933   7.632 -0.4069 -0.0047 -1.4367
  808MOL0     H 6607  -0.369   4.164   7.536  1.2323 -0.5658  0.3567
  808MOL0     H 6608  -0.374   4.093   7.697  2.0983 -1.0566  1.9694
  808MOL0     H 6609  -0.617   4.126   7.469 -0.7145 -0.3766  0.3811
  808MOL0     H 6610  -0.849   4.035   7.475 -1.2749 -0.6323  1.5566
  808MOL0     H 6611  -0.868   3.863   7.528 -0.3722 -0.1163 -0.1431
  808MOL0     H 6612  -0.827   3.795   7.294 -1.3433 -0.4982  2.0725
  808MOL0     H 6613  -0.764   3.958   7.255 -0.3967  0.4943  0.7770
  808MOL0     H 6614  -1.004   4.036   7.303  0.4899  0.2740 -2.2685
  808MOL0     H 6615  -0.976   3.951   7.154  4.1339  0.1035 -0.2324
  808MOL0     H 6616  -1.120   3.831   7.408 -1.2146  1.6795 -0.6761
  808MOL0     H 6617  -1.063   3.729   7.272 -0.0432  0.7596 -1.0292
  808MOL0     H 6618  -1.359   3.905   7.031  3.9617  0.4569  1.4662
  808MOL0     H 6619  -1.488   3.735   6.899 -2.0078 -0.2164  1.0571
  808MOL0     H 6620  -1.711   3.203   6.974  1.6618  1.8970  0.8251
  808MOL0     H 6621  -1.756   3.012   6.798 -0.4948 -0.3100  2.6827
  808MOL0     H 6622  -1.529   3.056   6.457 -0.9786  0.8313 -2.4445
  808MOL0     H 6623  -1.700   3.082   6.515  0.1567  0.1917 -0.2695
  808MOL0     H 6624  -1.585   2.858   6.323 -0.6220  0.2448 -1.2479
  808MOL0     H 6625  -1.650   3.000   6.291  1.5114  0.3768  0.3698
  808MOL0     H 6626  -1.822   2.775   6.413  0.6262 -0.3031 -1.9272
  808MOL0     H 6627  -1.830   2.854   6.263  0.1943  0.5873 -0.9522
  808MOL0     H 6628  -1.896   2.981   6.536  1.4868 -0.8623  0.7602
  808MOL0     H 6629  -1.879   3.073   6.396 -0.5386  0.6201  2.4161
  808MOL0     H 6630  -2.051   2.824   6.393 -0.7346  0.5232  1.9562
  808MOL0     H 6631  -2.063   2.965   6.289 -3.2938 -0.8845  0.1610
  808MOL0     H 6632  -2.139   3.102   6.473 -0.1150  0.4601 -1.1496
  808MOL0     H 6633  -2.118   2.970   6.590 -0.5205 -1.4693  0.4314
  808MOL0     H 6634  -2.322   2.959   6.363 -0.2157 -3.9282 -0.3394
  808MOL0     H 6635  -2.297   2.834   6.491 -1.8341  0.0356 -0.7334
  808MOL0     H 6636  -2.484   2.990   6.526  0.1908  0.2211 -0.8484
  808MOL0     H 6637  -2.362   3.126   6.544 -0.4193  0.4033  3.4853
  808MOL0     H 6638  -1.356   3.045   6.665  0.1799 -1.5855 -0.2195
  808MOL0     H 6639  -1.307   3.215   6.848 -1.1195  2.5772  1.5936
  808MOL0     H 6640  -1.390   3.444   7.202  2.6975 -0.3652 -0.2288
  808MOL0     H 6641  -1.249   3.602   7.315 -2.4606 -1.5090  0.7980
  808MOL0     H 6642   0.769   4.134   7.575  0.4163 -0.8837 -0.1200
  808MOL0     H 6643   0.963   4.111   7.715 -0.0570 -0.4263 -2.6358
  808MOL0     H 6644   1.213   4.387   8.219 -1.8158 -2.9409 -0.7343
  808MOL0     H 6645   1.439   4.346   8.302  0.4719 -2.3091 -0.4373
  808MOL0     H 6646   1.699   4.397   8.328 -0.4218  0.8291  0.1860
  808MOL0     H 6647   1.668   4.512   8.191  0.4585 -0.6301 -2.1206
  808MOL0     H 6648   1.879   4.457   8.095 -1.9142  3.9494  0.2030
  808MOL0     H 6649   1.903   4.526   8.252  1.3963  0.4070 -0.7215
  808MOL0     H 6650   1.901   4.218   8.212  0.0679 -0.3182  0.0808
  808MOL0     H 6651   1.952   4.309   8.359 -2.1528 -0.7483  1.0433
  808MOL0     H 6652   2.150   4.224   8.215  1.3225 -0.1869 -0.7604
  808MOL0     H 6653   2.098   4.336   8.088  0.3341 -1.3383 -0.3777
  808MOL0     H 6654   2.252   4.598   8.389 -0.5317 -0.5900  1.0587
  808MOL0     H 6655   1.574   4.314   7.893  1.7407 -2.2653 -0.5821
  808MOL0     H 6656   1.339   4.298   7.825  0.3735 -0.4373 -0.1962
  809MOL0     O 6657  10.201   7.568   9.060  0.0867 -0.5985 -0.4459
  809MOL0     C 6658  10.238   7.505   8.959 -0.0516  0.3045 -0.2350
  809MOL0     O 6659  10.173   7.402   8.908 -0.8715  0.3073  0.0934
  809MOL0     C 6660  10.089   7.329   8.979  0.1237 -0.3117  0.1420
  809MOL0     C 6661   9.953   7.330   8.963 -0.7093  0.4275 -0.0575
  809MOL0     C 6662   9.871   7.249   9.039 -0.8750  0.2852  0.4271
  809MOL0     C 6663   9.917   7.164   9.130  0.1295  0.1861  0.2164
  809MOL0     O 6664   9.832   7.085   9.201 -0.1263  0.3965  0.3171
  809MOL0     C 6665   9.712   7.151   9.235 -0.0136  0.6845 -0.1284
  809MOL0     C 6666   9.633   7.061   9.325  0.7883 -0.4758  0.3196
  809MOL0     C 6667   9.576   6.945   9.234  0.4660 -0.9465  0.0552
  809MOL0     C 6668   9.505   6.843   9.325  0.2904  0.1564  0.1141
  809MOL0     C 6669   9.382   6.889   9.392  0.3867  0.2071  0.4965
  809MOL0     C 6670   9.303   6.759   9.428  0.3063  0.0817 -0.4367
  809MOL0     C 6671   9.244   6.691   9.313 -0.6661 -0.0994  0.3091
  809MOL0     C 6672   9.149   6.780   9.231  0.1264  0.3608  0.3210
  809MOL0     N 6673   9.109   6.707   9.115  0.1301 -0.3376  0.1134
  809MOL0     C 6674   9.183   6.684   8.991  0.1244 -0.0831 -0.4715
  809MOL0     C 6675   9.088   6.625   8.918  0.1663  0.1102  0.3402
  809MOL0     C 6676   9.080   6.575   8.777 -1.6894 -0.4123  0.4803
  809MOL0     C 6677   9.196   6.635   8.687  0.3257 -0.2269 -0.3069
  809MOL0     C 6678   9.166   6.772   8.647 -0.1202  0.4012  0.3363
  809MOL0     C 6679   9.301   6.836   8.589  0.6762 -0.0950 -0.1383
  809MOL0     O 6680   9.269   6.955   8.530 -0.3294  0.1585  0.5474
  809MOL0     C 6681   9.368   7.034   8.494 -0.5590  0.4888 -1.0150
  809MOL0     C 6682   9.462   6.990   8.400 -0.4450 -0.3782  0.4826
  809MOL0     C 6683   9.560   7.079   8.350  0.0757  0.2165  0.3231
  809MOL0     C 6684   9.544   7.220   8.380 -0.6627  0.7079 -0.1390
  809MOL0     C 6685   9.625   7.328   8.320 -0.5312 -0.0409 -0.3693
  809MOL0     O 6686   9.603   7.455   8.377 -0.1356  0.1335 -0.6796
  809MOL0     C 6687   9.671   7.563   8.320 -0.1412  0.2330 -0.5741
  809MOL0     C 6688   9.774   7.629   8.394  0.8752 -0.6906 -0.0765
  809MOL0     C 6689   9.816   7.753   8.357 -0.1662  0.2260  0.2824
  809MOL0     C 6690   9.768   7.812   8.239 -1.1922 -0.0324 -0.2743
  809MOL0     O 6691   9.821   7.926   8.179  0.0363  0.7870  0.1472
  809MOL0     C 6692   9.920   8.000   8.254  0.3291 -0.0444 -0.6810
  809MOL0     C 6693   9.992   8.103   8.169 -0.4366  0.0508  0.6812
  809MOL0     C 6694  10.131   8.152   8.209 -0.5886  0.6111 -0.5589
  809MOL0     C 6695  10.232   8.123   8.089 -0.4775 -0.6134  0.6445
  809MOL0     C 6696  10.374   8.193   8.114 -0.1708 -1.1102  0.3395
  809MOL0     C 6697  10.454   8.200   7.980  0.3146  0.3522 -0.3324
  809MOL0     C 6698  10.474   8.066   7.910 -0.5019  0.5797  1.1245
  809MOL0     C 6699  10.558   7.959   7.985 -0.0584  0.6627 -0.8921
  809MOL0    Cl 6700  10.716   8.021   7.996  0.2885  0.1771  0.2822
  809MOL0     C 6701   9.665   7.745   8.169 -1.6659  0.1803 -1.2832
  809MOL0     C 6702   9.610   7.623   8.209  0.0770 -0.1686  0.2005
  809MOL0     O 6703   9.709   7.307   8.231  0.0353 -0.0938  0.0004
  809MOL0     C 6704   9.442   7.252   8.467  0.5589 -0.0711 -0.2006
  809MOL0     C 6705   9.358   7.163   8.526  0.4391 -0.7211 -0.2119
  809MOL0     N 6706   8.969   6.620   8.977  0.6867 -0.0502 -0.2972
  809MOL0     N 6707   8.982   6.666   9.095 -0.2791 -0.9094 -0.2489
  809MOL0     C 6708  10.056   7.151   9.143 -0.6033 -0.3692 -0.0500
  809MOL0     C 6709  10.139   7.230   9.066 -0.0560 -0.5239  0.1315
  809MOL0     C 6710  10.348   7.572   8.884  0.9781 -0.0929  0.5517
  809MOL0     C 6711  10.390   7.699   8.930  0.5490 -0.3011 -0.8137
  809MOL0     C 6712  10.472   7.780   8.853 -0.3469 -0.0557  0.3320
  809MOL0     C 6713  10.504   7.744   8.724  0.0416  0.6151 -0.4866
  809MOL0     O 6714  10.577   7.812   8.633 -0.0598  0.1846 -0.3623
  809MOL0     C 6715  10.621   7.944   8.673 -0.1556 -0.7734  0.7571
  809MOL0     C 6716  10.651   8.025   8.547  0.2299  0.5544 -0.7147
  809MOL0     C 6717  10.773   7.980   8.467 -0.3811  0.4282  0.0470
  809MOL0     C 6718  10.780   8.023   8.313 -0.1990  0.8871 -0.4455
  809MOL0     C 6719  10.725   8.162   8.290 -0.3977  0.4442 -0.0219
  809MOL0     C 6720  10.666   8.267   8.278 -0.1554 -0.2771  0.5422
  809MOL0     C 6721  10.465   7.613   8.679  0.2838 -0.2998 -0.2488
  809MOL0     C 6722  10.392   7.527   8.761  0.2106  0.0623 -0.3682
  809MOL0     H 6723   9.915   7.407   8.896  0.1852  2.0142  1.1998
  809MOL0     H 6724   9.766   7.270   9.019 -0.6069  1.1086 -0.1792
  809MOL0     H 6725   9.655   7.160   9.143  1.2342 -2.3896 -1.3521
  809MOL0     H 6726   9.721   7.252   9.277 -1.8931  1.3134 -1.1335
  809MOL0     H 6727   9.558   7.119   9.379  0.3255  0.8368 -1.6422
  809MOL0     H 6728   9.697   7.029   9.408  2.1385  2.5747  0.5590
  809MOL0     H 6729   9.659   6.888   9.190  0.9993 -2.9806  3.3707
  809MOL0     H 6730   9.503   6.986   9.163 -0.8584 -0.1031  1.8290
  809MOL0     H 6731   9.476   6.767   9.252 -1.7787  2.1877 -1.3164
  809MOL0     H 6732   9.573   6.800   9.399 -0.0031  0.6366  0.6638
  809MOL0     H 6733   9.325   6.960   9.331  0.5422  1.1768  1.4308
  809MOL0     H 6734   9.404   6.941   9.486  0.4479  3.7297 -1.3015
  809MOL0     H 6735   9.225   6.790   9.497  0.4794 -2.0568  0.8111
  809MOL0     H 6736   9.367   6.683   9.474 -0.9424  0.5167  2.2037
  809MOL0     H 6737   9.325   6.659   9.247 -0.8335  0.8395 -0.3642
  809MOL0     H 6738   9.188   6.603   9.346  1.3429 -1.3545  0.5671
  809MOL0     H 6739   9.197   6.872   9.198  0.0827  0.0407 -0.6554
  809MOL0     H 6740   9.058   6.808   9.287 -0.8268  0.1705 -1.0863
  809MOL0     H 6741   9.280   6.714   8.954 -0.3277 -0.4882 -2.0573
  809MOL0     H 6742   8.980   6.597   8.738 -1.1864  3.3276  1.0226
  809MOL0     H 6743   9.101   6.468   8.788 -2.2525 -0.5437  0.3096
  809MOL0     H 6744   9.206   6.579   8.594 -0.7317 -0.1295 -0.4822
  809MOL0     H 6745   9.287   6.623   8.747  1.0428  0.1936 -1.2924
  809MOL0     H 6746   9.086   6.766   8.572  0.2309 -3.8447  0.0850
  809MOL0     H 6747   9.130   6.835   8.729  1.4533  2.2445 -0.3205
  809MOL0     H 6748   9.348   6.760   8.525 -0.7506  0.3198 -1.7599
  809MOL0     H 6749   9.378   6.844   8.665 -1.7494 -1.0648  2.6061
  809MOL0     H 6750   9.485   6.889   8.367  0.8267 -0.1929  0.7846
  809MOL0     H 6751   9.647   7.058   8.288 -0.2940  0.1628 -0.1829
  809MOL0     H 6752   9.805   7.574   8.483  0.5983 -0.7348 -0.0058
  809MOL0     H 6753   9.895   7.801   8.414  0.0194  0.6926 -0.3566
  809MOL0     H 6754  10.001   7.949   8.308  0.9535 -0.6482 -2.1417
  809MOL0     H 6755   9.869   8.049   8.337  1.5711  1.2775 -0.6578
  809MOL0     H 6756   9.928   8.192   8.171 -0.9664 -0.3199  2.8599
  809MOL0     H 6757   9.997   8.058   8.070  2.8957  0.6989  0.4209
  809MOL0     H 6758  10.169   8.088   8.290 -3.9332  2.7746  3.0597
  809MOL0     H 6759  10.125   8.254   8.248 -0.4835  1.3153 -2.3135
  809MOL0     H 6760  10.248   8.015   8.079  0.9561 -0.3631  0.0063
  809MOL0     H 6761  10.184   8.158   7.998 -0.9221 -1.7132  0.4428
  809MOL0     H 6762  10.434   8.145   8.192  0.0110  0.5005  1.2281
  809MOL0     H 6763  10.358   8.294   8.153  2.3728 -2.1034  4.7150
  809MOL0     H 6764  10.551   8.248   7.990  0.0640  1.6376 -3.1908
  809MOL0     H 6765  10.385   8.258   7.918  2.9030  2.1346 -1.7227
  809MOL0     H 6766  10.376   8.021   7.892  0.3080 -0.7478 -0.2714
  809MOL0     H 6767  10.508   8.087   7.808  0.0157 -0.8771  0.9691
  809MOL0     H 6768  10.549   7.866   7.929 -0.5096 -0.3501  0.7991
  809MOL0     H 6769  10.518   7.932   8.083 -4.0978 -2.6994 -3.1289
  809MOL0     H 6770   9.626   7.790   8.079 -0.2020 -1.2381 -2.6848
  809MOL0     H 6771   9.536   7.580   8.143 -1.5625  1.1440  1.0932
  809MOL0     H 6772   9.440   7.356   8.501  2.3558  0.0970 -0.5072
  809MOL0     H 6773   9.267   7.188   8.581  1.0619  0.1373  0.4484
  809MOL0     H 6774  10.103   7.073   9.203 -0.8275 -0.8871 -0.5402
  809MOL0     H 6775  10.247   7.236   9.057 -0.2860  2.5418 -1.7726
  809MOL0     H 6776  10.384   7.734   9.033  1.0162  0.7207 -1.1207
  809MOL0     H 6777  10.511   7.879   8.874  2.5662 -0.2613 -3.0724
  809MOL0     H 6778  10.699   7.947   8.749 -2.7152  1.7348  3.5739
  809MOL0     H 6779  10.541   8.005   8.717  1.3302  2.2741 -0.4743
  809MOL0     H 6780  10.555   8.037   8.495 -1.7007  1.7244  2.7378
  809MOL0     H 6781  10.673   8.125   8.585  2.3841 -0.1939  0.1148
  809MOL0     H 6782  10.767   7.871   8.461  0.5287  0.3495  0.4190
  809MOL0     H 6783  10.868   8.004   8.515  0.1116  1.1887 -1.2777
  809MOL0     H 6784  10.884   8.025   8.278  0.6827  2.8907  1.9955
  809MOL0     H 6785  10.720   7.948   8.260  0.4802  0.5937 -0.8166
  809MOL0     H 6786  10.628   8.364   8.252  0.1755 -0.4480 -0.6670
  809MOL0     H 6787  10.515   7.591   8.585  2.6869  2.7135  0.1592
  809MOL0     H 6788  10.364   7.430   8.721  0.2080 -1.1009  2.2307
  810MOL0     O 6789   3.085   7.477   6.975 -0.8426  0.2089  0.9631
  810MOL0     C 6790   3.089   7.390   6.889 -0.3709  0.5491 -1.0543
  810MOL0     O 6791   2.988   7.314   6.852  0.2149 -0.2730 -0.3575
  810MOL0     C 6792   2.859   7.335   6.897  0.1720  0.2772 -0.3638
  810MOL0     C 6793   2.800   7.234   6.968 -0.3410  0.4135 -0.9486
  810MOL0     C 6794   2.667   7.239   7.015 -0.1445  0.3848  0.0464
  810MOL0     C 6795   2.593   7.349   6.985  0.0089 -0.3445  0.0545
  810MOL0     O 6796   2.461   7.359   7.020 -0.2085  0.0995 -0.1635
  810MOL0     C 6797   2.365   7.275   6.947 -0.2976 -0.3014 -0.3885
  810MOL0     C 6798   2.287   7.389   6.865 -0.4057  0.5964 -0.0291
  810MOL0     C 6799   2.201   7.465   6.970 -0.2620 -0.6594 -0.0798
  810MOL0     C 6800   2.081   7.390   7.029 -0.0076 -0.9620 -0.7273
  810MOL0     C 6801   1.988   7.494   7.107  0.2589 -0.0404  0.6449
  810MOL0     C 6802   1.865   7.414   7.157  0.5765  0.1618  0.4876
  810MOL0     C 6803   1.774   7.497   7.246 -0.6835  1.1488 -0.0554
  810MOL0     C 6804   1.712   7.623   7.188 -0.0420 -0.8103  0.2412
  810MOL0     N 6805   1.610   7.684   7.271  0.5182  0.3504 -0.1867
  810MOL0     C 6806   1.509   7.622   7.346 -0.6449  0.0553  0.1441
  810MOL0     C 6807   1.455   7.719   7.418  0.0853  0.0049 -0.5712
  810MOL0     C 6808   1.339   7.706   7.511 -0.1662  0.7148 -0.3122
  810MOL0     C 6809   1.208   7.685   7.428  0.3272  0.1852 -0.3994
  810MOL0     C 6810   1.099   7.659   7.528 -0.2239  0.6329 -0.2696
  810MOL0     C 6811   0.953   7.658   7.464 -0.3799 -0.9244  0.0470
  810MOL0     O 6812   0.923   7.784   7.416 -0.5971  0.2225 -0.4690
  810MOL0     C 6813   0.789   7.802   7.390  0.2027  0.4472  0.8578
  810MOL0     C 6814   0.686   7.718   7.422 -0.0237 -0.1895  0.0050
  810MOL0     C 6815   0.548   7.748   7.405  0.1276  0.4431 -0.4321
  810MOL0     C 6816   0.516   7.869   7.347 -0.3044  0.1494 -0.6956
  810MOL0     C 6817   0.375   7.904   7.323 -0.4988  0.0957  0.6432
  810MOL0     O 6818   0.355   8.012   7.250  0.0054  0.0720  0.1153
  810MOL0     C 6819   0.225   8.035   7.202  0.7586 -0.6892  0.8928
  810MOL0     C 6820   0.133   8.118   7.268  0.2815 -0.6410  0.7860
  810MOL0     C 6821   0.015   8.153   7.210 -0.3573 -0.3532  0.4174
  810MOL0     C 6822  -0.033   8.087   7.096  0.3198 -0.5547 -0.3793
  810MOL0     O 6823  -0.167   8.120   7.060 -0.6322  1.1021  0.1941
  810MOL0     C 6824  -0.223   8.056   6.936  0.0184  0.1846  0.3168
  810MOL0     C 6825  -0.373   8.102   6.939  1.0469 -0.5783  0.0278
  810MOL0     C 6826  -0.456   8.049   6.816 -0.4736  0.0834 -0.8844
  810MOL0     C 6827  -0.595   8.111   6.829  0.3649 -0.3458  0.0299
  810MOL0     C 6828  -0.696   8.044   6.733  0.2136  0.4343 -1.3711
  810MOL0     C 6829  -0.807   8.151   6.715  0.3558  0.0279  0.0718
  810MOL0     C 6830  -0.925   8.098   6.624 -0.1852  0.2852  0.4648
  810MOL0     C 6831  -1.053   8.174   6.640 -0.5367 -0.7242 -0.4564
  810MOL0    Cl 6832  -1.183   8.074   6.575  0.2145  0.3543 -0.3066
  810MOL0     C 6833   0.050   7.993   7.031 -0.6737 -1.0215  0.8258
  810MOL0     C 6834   0.175   7.968   7.087 -0.7603  0.3058  0.5783
  810MOL0     O 6835   0.287   7.817   7.354 -0.2479 -0.3338  0.4703
  810MOL0     C 6836   0.620   7.959   7.304 -1.1423  0.4774  0.5589
  810MOL0     C 6837   0.748   7.924   7.331 -0.7683  0.5819  0.7006
  810MOL0     N 6838   1.532   7.826   7.394 -0.0292 -0.8441 -0.3487
  810MOL0     N 6839   1.626   7.806   7.311  0.2782  0.3050 -0.0129
  810MOL0     C 6840   2.647   7.460   6.915 -0.2001  0.3586  0.2334
  810MOL0     C 6841   2.778   7.449   6.865 -0.4886 -0.5798  0.7826
  810MOL0     C 6842   3.219   7.360   6.831 -0.4486  1.0266  0.1118
  810MOL0     C 6843   3.302   7.466   6.787  0.5125  0.3251 -0.4463
  810MOL0     C 6844   3.425   7.454   6.726 -0.1509  0.6651  0.8291
  810MOL0     C 6845   3.479   7.327   6.695  0.5298 -0.3960  0.3741
  810MOL0     O 6846   3.587   7.309   6.609 -0.6766  0.0138 -0.2711
  810MOL0     C 6847   3.710   7.264   6.672 -0.1482  0.7040  0.5494
  810MOL0     C 6848   3.827   7.248   6.572  0.2957 -0.1846  0.4779
  810MOL0     C 6849   3.959   7.209   6.644 -0.1734 -0.3535  0.3249
  810MOL0     C 6850   4.004   7.295   6.770 -0.5351 -0.5384  0.5034
  810MOL0     C 6851   4.020   7.440   6.762  0.4596 -0.7403  0.9120
  810MOL0     C 6852   4.039   7.563   6.763  0.6145 -0.1783  0.3703
  810MOL0     C 6853   3.405   7.217   6.737 -0.3735  0.0650 -0.1138
  810MOL0     C 6854   3.281   7.235   6.811 -0.8592  0.0815  1.6513
  810MOL0     H 6855   2.869   7.152   6.988  1.0327  1.4114 -1.4294
  810MOL0     H 6856   2.613   7.159   7.063  1.4887 -0.4241  0.6068
  810MOL0     H 6857   2.297   7.218   7.012 -2.0073  1.7987 -0.2214
  810MOL0     H 6858   2.406   7.201   6.877 -0.9174 -1.5544  0.5267
  810MOL0     H 6859   2.226   7.347   6.785 -4.4181  0.4744  2.7964
  810MOL0     H 6860   2.359   7.463   6.827 -0.1999  0.3677 -0.0840
  810MOL0     H 6861   2.167   7.555   6.917  0.3529  0.0848  0.7616
  810MOL0     H 6862   2.246   7.520   7.053 -0.0625 -2.4239  1.0195
  810MOL0     H 6863   2.030   7.345   6.944  0.0693 -0.1139 -1.2313
  810MOL0     H 6864   2.126   7.327   7.106 -0.6716  2.1684  2.5051
  810MOL0     H 6865   1.953   7.579   7.048  0.9036  0.2562  0.6814
  810MOL0     H 6866   2.047   7.534   7.190  0.6068  2.1708 -0.5941
  810MOL0     H 6867   1.886   7.323   7.214  1.1994  0.1015  0.1663
  810MOL0     H 6868   1.811   7.370   7.073  0.7055 -0.1710  0.5764
  810MOL0     H 6869   1.699   7.426   7.281  1.0341  0.6882  3.0751
  810MOL0     H 6870   1.821   7.538   7.335 -1.7513  2.4130 -0.0325
  810MOL0     H 6871   1.654   7.603   7.098 -1.9424  2.6998  0.5278
  810MOL0     H 6872   1.793   7.694   7.171 -0.2260 -0.5472  0.4544
  810MOL0     H 6873   1.487   7.516   7.352  1.5322 -0.3948  1.1641
  810MOL0     H 6874   1.324   7.792   7.576 -0.8695  0.5765 -0.2842
  810MOL0     H 6875   1.360   7.619   7.575  2.9264  1.6898  0.1637
  810MOL0     H 6876   1.211   7.599   7.359  0.4524  2.0556 -2.8757
  810MOL0     H 6877   1.192   7.778   7.372  2.7310  1.7568  1.3220
  810MOL0     H 6878   1.104   7.561   7.576  0.1937  0.4533 -0.6685
  810MOL0     H 6879   1.105   7.738   7.604  3.1257  2.8250 -2.5277
  810MOL0     H 6880   0.886   7.618   7.541 -1.8796  2.3474  0.6424
  810MOL0     H 6881   0.950   7.583   7.385 -2.1046 -0.7943 -0.0415
  810MOL0     H 6882   0.705   7.620   7.465  1.0328 -0.0405 -0.1056
  810MOL0     H 6883   0.480   7.664   7.419  2.1975 -1.0076  1.5070
  810MOL0     H 6884   0.158   8.165   7.363 -4.5517  0.6037  1.6995
  810MOL0     H 6885  -0.049   8.225   7.259  0.5928  0.3945  0.5790
  810MOL0     H 6886  -0.233   7.947   6.934 -0.4977  0.2116 -1.7608
  810MOL0     H 6887  -0.168   8.098   6.851  0.4616  1.8863  1.3896
  810MOL0     H 6888  -0.389   8.210   6.929 -3.7466 -1.2784 -2.2055
  810MOL0     H 6889  -0.426   8.066   7.028  1.1476  1.2658  0.8935
  810MOL0     H 6890  -0.460   7.939   6.814 -0.1951  0.0752 -0.9953
  810MOL0     H 6891  -0.413   8.086   6.723 -0.5083  0.8359 -0.6032
  810MOL0     H 6892  -0.631   8.108   6.932 -0.8276  1.0810 -0.3154
  810MOL0     H 6893  -0.575   8.216   6.805  0.9156 -0.4869 -0.1651
  810MOL0     H 6894  -0.735   7.951   6.776 -2.0661  1.4716 -1.0901
  810MOL0     H 6895  -0.655   8.018   6.635  0.3911 -0.0212 -1.1798
  810MOL0     H 6896  -0.762   8.235   6.661 -1.4306 -0.3119 -2.0958
  810MOL0     H 6897  -0.854   8.192   6.805 -0.5941 -0.4842 -0.1795
  810MOL0     H 6898  -0.900   8.084   6.519  1.8766  0.0599  0.9545
  810MOL0     H 6899  -0.944   7.997   6.659  1.0701 -0.7862 -1.7684
  810MOL0     H 6900  -1.048   8.264   6.578  3.1964  2.2951  3.5256
  810MOL0     H 6901  -1.062   8.191   6.748  1.5002  1.4071 -0.5290
  810MOL0     H 6902   0.031   7.931   6.944 -3.1629 -0.9526  1.2359
  810MOL0     H 6903   0.238   7.886   7.055  0.7721  0.3230  3.3025
  810MOL0     H 6904   0.600   8.061   7.273 -1.2420  0.0654 -0.8316
  810MOL0     H 6905   0.829   7.996   7.324 -0.1184 -0.2855 -2.0988
  810MOL0     H 6906   2.588   7.544   6.880  1.0798  0.7873 -0.9768
  810MOL0     H 6907   2.814   7.531   6.805 -1.8644 -1.7880 -1.8515
  810MOL0     H 6908   3.267   7.569   6.785  2.2488  0.9301 -1.1008
  810MOL0     H 6909   3.474   7.547   6.700 -0.6904  0.5717 -0.5769
  810MOL0     H 6910   3.695   7.169   6.724 -0.2800  1.0822  1.2299
  810MOL0     H 6911   3.743   7.339   6.745 -2.0256  0.8088  1.3547
  810MOL0     H 6912   3.806   7.167   6.501  0.9818 -2.6341  2.9076
  810MOL0     H 6913   3.847   7.336   6.510  1.5830 -0.2060  0.8319
  810MOL0     H 6914   4.037   7.213   6.567 -1.7889 -1.4369 -1.4713
  810MOL0     H 6915   3.944   7.102   6.662 -0.2368 -0.6698 -1.3741
  810MOL0     H 6916   3.926   7.284   6.846 -0.6354  3.7662  1.2343
  810MOL0     H 6917   4.095   7.252   6.813 -1.8100 -4.5413 -0.3432
  810MOL0     H 6918   4.030   7.669   6.772  1.2357 -0.2314  2.0457
  810MOL0     H 6919   3.426   7.115   6.707  0.1147  0.4035 -0.9510
  810MOL0     H 6920   3.222   7.148   6.838 -5.2389  2.2840  0.2235
  811MOL0     O 6921   7.669  10.286   2.547 -0.2837  0.1903 -0.0908
  811MOL0     C 6922   7.710  10.389   2.590  0.3004 -0.2101 -0.1024
  811MOL0     O 6923   7.636  10.490   2.645 -0.8397 -0.5482 -0.0736
  811MOL0     C 6924   7.504  10.483   2.663 -0.0951 -0.2057 -0.0337
  811MOL0     C 6925   7.412  10.379   2.651  0.1339 -0.3563 -0.1245
  811MOL0     C 6926   7.275  10.393   2.689 -0.5577  0.7523  0.1211
  811MOL0     C 6927   7.235  10.516   2.744 -0.2777  1.0733 -1.1318
  811MOL0     O 6928   7.109  10.517   2.795 -0.1380 -0.3786 -0.4573
  811MOL0     C 6929   7.054  10.622   2.869  0.3095  0.1443 -0.6868
  811MOL0     C 6930   6.953  10.717   2.794  0.0551  0.2386 -0.2019
  811MOL0     C 6931   7.012  10.749   2.654 -0.0690  0.0632 -0.9194
  811MOL0     C 6932   6.923  10.850   2.583 -0.0821 -1.1472 -0.0588
  811MOL0     C 6933   6.994  10.963   2.514 -0.7570  0.0936  0.4158
  811MOL0     C 6934   7.070  10.919   2.390  0.7970  0.1138  0.2941
  811MOL0     C 6935   7.139  11.041   2.331  0.2647  1.0561  0.5165
  811MOL0     C 6936   7.242  11.009   2.211  0.1142 -0.3221 -0.0192
  811MOL0     N 6937   7.171  10.950   2.092 -0.5042 -0.0496 -0.6191
  811MOL0     C 6938   7.067  11.005   2.025 -0.7079 -1.0350 -0.2065
  811MOL0     C 6939   7.032  10.908   1.933  0.4227 -0.7427 -0.0018
  811MOL0     C 6940   6.937  10.924   1.818 -0.6459 -0.1827  0.9514
  811MOL0     C 6941   6.802  10.935   1.867 -0.7382  1.0406 -0.5290
  811MOL0     C 6942   6.698  10.909   1.762  0.3101 -0.7034 -0.4713
  811MOL0     C 6943   6.570  10.938   1.818  0.2547 -0.2917 -0.3425
  811MOL0     O 6944   6.525  11.066   1.773  0.2090 -0.0882 -0.3182
  811MOL0     C 6945   6.396  11.104   1.810  0.4758 -0.3953  0.2244
  811MOL0     C 6946   6.380  11.238   1.843 -0.3681  0.8432  0.0738
  811MOL0     C 6947   6.260  11.279   1.900 -0.0848 -0.1952  0.0847
  811MOL0     C 6948   6.143  11.199   1.916 -0.1352  0.6431 -0.9684
  811MOL0     C 6949   6.025  11.242   1.996 -0.3381 -0.1404  0.6786
  811MOL0     O 6950   5.919  11.156   2.010  0.7581 -0.1854 -0.7452
  811MOL0     C 6951   5.802  11.211   2.045 -0.3212 -0.2224 -0.6950
  811MOL0     C 6952   5.710  11.244   1.945 -0.5557 -0.3560 -0.2952
  811MOL0     C 6953   5.582  11.281   1.977 -0.0605 -0.1059  0.2914
  811MOL0     C 6954   5.541  11.279   2.112  0.5219  0.1464  0.7381
  811MOL0     O 6955   5.414  11.323   2.159 -0.5045  0.0323 -0.1989
  811MOL0     C 6956   5.311  11.363   2.067  1.3531  0.9954  0.4984
  811MOL0     C 6957   5.191  11.416   2.153 -0.3163 -0.3958 -0.5144
  811MOL0     C 6958   5.118  11.309   2.222 -0.5662 -0.6683 -0.4975
  811MOL0     C 6959   5.002  11.377   2.295  0.5727 -0.9954 -0.6064
  811MOL0     C 6960   4.915  11.273   2.366  0.5391 -0.4313  0.4212
  811MOL0     C 6961   4.809  11.347   2.452 -0.8612  0.5668  0.5158
  811MOL0     C 6962   4.712  11.248   2.504  0.0326  0.6654 -0.6673
  811MOL0     C 6963   4.602  11.285   2.591 -0.1129 -0.1709 -0.3020
  811MOL0    Cl 6964   4.469  11.162   2.597  0.2820  0.0748  0.3187
  811MOL0     C 6965   5.633  11.253   2.209 -0.4239  0.7409  0.1382
  811MOL0     C 6966   5.768  11.216   2.179  0.3852 -0.4008 -0.5079
  811MOL0     O 6967   6.032  11.359   2.030  0.5540  0.2147  0.0012
  811MOL0     C 6968   6.168  11.066   1.888 -0.2158 -0.3825  0.5588
  811MOL0     C 6969   6.283  11.013   1.826 -0.0986 -0.4170  0.1475
  811MOL0     N 6970   7.108  10.795   1.953  0.3917 -0.4351 -0.1971
  811MOL0     N 6971   7.192  10.822   2.045 -0.4209 -0.0696 -0.0138
  811MOL0     C 6972   7.324  10.619   2.749  0.0740 -0.7811  0.1354
  811MOL0     C 6973   7.455  10.604   2.709  0.9947  0.3983 -0.4876
  811MOL0     C 6974   7.856  10.395   2.614 -0.0019 -0.0606  0.1337
  811MOL0     C 6975   7.919  10.524   2.623  0.0434  0.4154 -1.0499
  811MOL0     C 6976   8.058  10.536   2.649  0.4055  0.1301  0.5164
  811MOL0     C 6977   8.138  10.424   2.664  0.8052  0.3438  0.3923
  811MOL0     O 6978   8.273  10.449   2.661 -0.2507 -0.5812 -0.2023
  811MOL0     C 6979   8.369  10.344   2.622 -0.0287 -0.4769  0.2169
  811MOL0     C 6980   8.507  10.414   2.606  0.3654 -0.2206 -0.4661
  811MOL0     C 6981   8.501  10.535   2.509 -0.8266 -0.3440 -0.3965
  811MOL0     C 6982   8.642  10.586   2.483  0.0149  0.4113 -0.2080
  811MOL0     C 6983   8.640  10.704   2.394  0.8070  0.4027  0.0457
  811MOL0     C 6984   8.665  10.806   2.331 -0.1144  0.1454 -0.2424
  811MOL0     C 6985   8.081  10.299   2.660  0.2650 -0.2408  0.2011
  811MOL0     C 6986   7.942  10.282   2.634 -1.0746  0.3145 -0.1341
  811MOL0     H 6987   7.433  10.280   2.614 -1.5714 -0.3358 -1.2965
  811MOL0     H 6988   7.206  10.315   2.657  1.5115 -0.3890 -1.9191
  811MOL0     H 6989   7.128  10.686   2.919  0.4947 -0.9707  0.5344
  811MOL0     H 6990   6.991  10.576   2.945  1.1817 -0.1042 -0.0963
  811MOL0     H 6991   6.924  10.805   2.852 -0.0690 -0.8176  1.3810
  811MOL0     H 6992   6.859  10.664   2.780  0.1908 -0.5646  1.7021
  811MOL0     H 6993   7.012  10.658   2.594  0.9984  0.3335 -1.3486
  811MOL0     H 6994   7.115  10.787   2.660 -0.6811  2.1827 -2.7541
  811MOL0     H 6995   6.862  10.797   2.510 -0.1348 -1.8237  0.4649
  811MOL0     H 6996   6.867  10.903   2.661  1.6593  1.4227 -0.4316
  811MOL0     H 6997   7.062  11.012   2.585 -0.2008 -1.0543  0.7125
  811MOL0     H 6998   6.920  11.032   2.474  1.5586  1.7128 -1.3438
  811MOL0     H 6999   6.997  10.884   2.316 -3.0917  2.4264  2.7042
  811MOL0     H 7000   7.139  10.838   2.413  1.7491 -0.4709 -3.7973
  811MOL0     H 7001   7.068  11.109   2.283  1.4922  0.9411 -1.5839
  811MOL0     H 7002   7.194  11.088   2.412  0.3998 -0.9821  1.6879
  811MOL0     H 7003   7.321  10.941   2.243 -0.0894 -0.1708  0.8336
  811MOL0     H 7004   7.283  11.105   2.179 -0.7109  0.9435  2.4260
  811MOL0     H 7005   7.022  11.103   2.034 -1.1867 -1.4582  4.2233
  811MOL0     H 7006   6.953  10.836   1.754 -1.2414 -0.8462  1.6941
  811MOL0     H 7007   6.956  11.019   1.768  0.8897 -1.6491 -1.4518
  811MOL0     H 7008   6.777  11.033   1.911 -0.6856 -0.1187  2.2927
  811MOL0     H 7009   6.792  10.855   1.940  1.5930  1.1187 -0.0264
  811MOL0     H 7010   6.720  10.967   1.672 -0.4082 -0.2206 -0.3478
  811MOL0     H 7011   6.693  10.802   1.739  0.7089 -0.4350 -1.8983
  811MOL0     H 7012   6.576  10.934   1.927 -1.2757  2.8556 -0.0355
  811MOL0     H 7013   6.503  10.869   1.767  1.3406  1.1012 -3.9273
  811MOL0     H 7014   6.467  11.304   1.843  1.4134 -1.3376  2.2847
  811MOL0     H 7015   6.251  11.380   1.937 -3.3359 -0.1305 -0.6055
  811MOL0     H 7016   5.736  11.233   1.840  1.3531  0.1523  0.0867
  811MOL0     H 7017   5.520  11.305   1.892  0.3783  2.0970  0.5441
  811MOL0     H 7018   5.282  11.268   2.022 -0.6469  1.1817  1.3047
  811MOL0     H 7019   5.343  11.430   1.987 -0.8424 -2.5162 -3.7417
  811MOL0     H 7020   5.122  11.462   2.081 -1.6428  2.0936  2.1506
  811MOL0     H 7021   5.244  11.491   2.213 -1.0880  0.4076 -0.8124
  811MOL0     H 7022   5.178  11.260   2.299 -2.0002 -0.7510  0.6142
  811MOL0     H 7023   5.086  11.233   2.151  0.8241  1.3364 -3.5091
  811MOL0     H 7024   5.046  11.439   2.373  0.1910 -2.3335  0.7409
  811MOL0     H 7025   4.949  11.438   2.222 -1.1650  1.7611  2.6632
  811MOL0     H 7026   4.985  11.214   2.427  2.9664  1.3201 -0.5352
  811MOL0     H 7027   4.867  11.210   2.291 -0.6791  2.3903 -1.3055
  811MOL0     H 7028   4.764  11.432   2.400  1.8933  0.7857 -1.7730
  811MOL0     H 7029   4.859  11.382   2.544 -2.7088  0.8543  1.4524
  811MOL0     H 7030   4.666  11.196   2.420  2.5667 -0.1822 -1.6438
  811MOL0     H 7031   4.773  11.168   2.546 -0.5294  0.0386 -1.0325
  811MOL0     H 7032   4.569  11.385   2.563  0.5381  0.0733 -0.2146
  811MOL0     H 7033   4.649  11.293   2.690  3.0772 -0.1955 -1.6810
  811MOL0     H 7034   5.585  11.270   2.304 -3.1693 -0.2317 -0.9764
  811MOL0     H 7035   5.840  11.201   2.258  0.9790  0.5484 -0.8573
  811MOL0     H 7036   6.086  10.995   1.894 -0.8295  0.3565  1.2038
  811MOL0     H 7037   6.301  10.907   1.814 -0.9067 -0.9717  2.9621
  811MOL0     H 7038   7.297  10.713   2.796 -2.3327  0.2312 -2.9306
  811MOL0     H 7039   7.513  10.695   2.716  1.6321  0.2821 -3.1138
  811MOL0     H 7040   7.858  10.613   2.608  0.4832  0.9078  0.0051
  811MOL0     H 7041   8.103  10.634   2.652  0.2020  0.2395  0.0532
  811MOL0     H 7042   8.332  10.284   2.538 -3.4061  3.3167 -1.3381
  811MOL0     H 7043   8.380  10.274   2.705 -0.0861 -2.5756 -1.4456
  811MOL0     H 7044   8.547  10.437   2.705 -1.5383 -1.6747  0.7137
  811MOL0     H 7045   8.588  10.350   2.571  1.6793  0.3118  1.4844
  811MOL0     H 7046   8.436  10.613   2.551  0.1609 -0.1389  0.8200
  811MOL0     H 7047   8.459  10.504   2.413 -5.0601 -0.7953  1.3443
  811MOL0     H 7048   8.690  10.608   2.579 -2.6903 -1.2272  1.6745
  811MOL0     H 7049   8.699  10.505   2.439 -0.6954 -0.5850  0.6618
  811MOL0     H 7050   8.675  10.894   2.270  0.3240 -0.4025 -0.9884
  811MOL0     H 7051   8.146  10.213   2.669  1.9863  0.6790 -2.3470
  811MOL0     H 7052   7.898  10.184   2.649  0.5803 -0.7878 -2.0387
  812MOL0     O 7053   1.548  10.130   2.394  0.0726  0.3020  0.1377
  812MOL0     C 7054   1.583  10.091   2.506  0.1899 -0.2565 -0.5107
  812MOL0     O 7055   1.504  10.062   2.613 -0.6590  0.2571 -0.9174
  812MOL0     C 7056   1.370  10.066   2.599 -0.2107  1.1940  0.3646
  812MOL0     C 7057   1.300   9.955   2.644  0.2905 -0.1560  0.0662
  812MOL0     C 7058   1.160   9.947   2.621 -0.7475  1.4261  0.5996
  812MOL0     C 7059   1.086  10.055   2.566 -0.1308 -0.5880 -0.1702
  812MOL0     O 7060   0.956  10.025   2.539 -0.2342 -0.8560  0.8193
  812MOL0     C 7061   0.867  10.134   2.560 -0.3260  0.1320  0.1671
  812MOL0     C 7062   0.738  10.104   2.478 -0.7341  0.1362  0.1274
  812MOL0     C 7063   0.664   9.985   2.539 -0.2347 -0.8623 -0.2693
  812MOL0     C 7064   0.522  10.007   2.501 -0.6248 -0.5817 -0.5548
  812MOL0     C 7065   0.432   9.885   2.519  0.1913  0.6745  0.1381
  812MOL0     C 7066   0.299   9.920   2.472 -0.3656 -0.1631  0.4161
  812MOL0     C 7067   0.201   9.803   2.483  0.2130  0.1199 -0.1696
  812MOL0     C 7068   0.063   9.840   2.428  0.6163  1.9336 -0.4239
  812MOL0     N 7069  -0.026   9.730   2.475 -0.2804  0.2120 -0.2671
  812MOL0     C 7070  -0.053   9.608   2.422 -0.7557 -0.6921  0.7350
  812MOL0     C 7071  -0.157   9.560   2.488  0.2182  0.3842 -0.3962
  812MOL0     C 7072  -0.225   9.431   2.466 -0.5385 -0.6720 -0.3701
  812MOL0     C 7073  -0.364   9.416   2.533 -0.9134  0.1148  0.0951
  812MOL0     C 7074  -0.460   9.522   2.480 -0.7481 -0.4471  0.8061
  812MOL0     C 7075  -0.613   9.486   2.492  0.2788 -0.2285 -0.0485
  812MOL0     O 7076  -0.630   9.347   2.470  0.0582  0.4141  0.0695
  812MOL0     C 7077  -0.755   9.305   2.428 -0.0288  0.4417  0.4164
  812MOL0     C 7078  -0.876   9.374   2.457 -1.0140  0.4216 -0.0893
  812MOL0     C 7079  -0.998   9.317   2.412 -0.1070 -0.4427 -0.4235
  812MOL0     C 7080  -1.009   9.201   2.342 -0.1154  0.6712 -0.2152
  812MOL0     C 7081  -1.136   9.135   2.293  0.0610  0.2471  0.7199
  812MOL0     O 7082  -1.131   9.001   2.282 -0.3366  0.2089 -0.0296
  812MOL0     C 7083  -1.233   8.933   2.225  0.1364  0.1382  0.0118
  812MOL0     C 7084  -1.304   8.846   2.300 -0.0864 -0.0483 -0.3112
  812MOL0     C 7085  -1.420   8.788   2.244 -0.0507  0.2170  0.4380
  812MOL0     C 7086  -1.465   8.817   2.115 -0.4345 -0.4580 -0.5629
  812MOL0     O 7087  -1.586   8.767   2.065 -0.2020  0.3341 -0.0271
  812MOL0     C 7088  -1.601   8.754   1.920  0.0306  0.4292 -0.1862
  812MOL0     C 7089  -1.719   8.669   1.874  0.0716  0.6316 -0.6974
  812MOL0     C 7090  -1.853   8.742   1.880  0.7665 -0.4693 -0.0630
  812MOL0     C 7091  -1.877   8.851   1.781 -0.9887 -0.3547 -0.4171
  812MOL0     C 7092  -1.992   8.945   1.825  0.1827 -0.5550  0.1281
  812MOL0     C 7093  -2.003   9.078   1.740  0.1584 -0.4280  0.3635
  812MOL0     C 7094  -2.081   9.187   1.812 -0.4578 -1.0457 -0.1912
  812MOL0     C 7095  -2.216   9.149   1.858  0.7551 -0.0259 -0.4461
  812MOL0    Cl 7096  -2.330   9.138   1.728 -0.2112  0.0717 -0.1537
  812MOL0     C 7097  -1.396   8.913   2.044 -0.6939 -1.6585  0.5102
  812MOL0     C 7098  -1.275   8.969   2.096 -0.5485  0.5048  0.1263
  812MOL0     O 7099  -1.238   9.205   2.277  0.1790  0.0635  0.0108
  812MOL0     C 7100  -0.880   9.132   2.321  0.5295  0.5421 -0.4923
  812MOL0     C 7101  -0.756   9.183   2.359  0.0830  0.2936 -0.5857
  812MOL0     N 7102  -0.191   9.652   2.583 -0.1646  0.3263 -0.3082
  812MOL0     N 7103  -0.104   9.747   2.584  0.1222  0.0839  0.1893
  812MOL0     C 7104   1.157  10.176   2.533  0.8799  0.5839 -0.7641
  812MOL0     C 7105   1.295  10.180   2.546  0.3385 -0.3343 -0.0945
  812MOL0     C 7106   1.729  10.093   2.533 -0.3229 -0.4582  1.3840
  812MOL0     C 7107   1.779  10.064   2.653 -0.5894 -0.4072 -0.6172
  812MOL0     C 7108   1.915  10.051   2.681  0.3287 -0.5270  0.3124
  812MOL0     C 7109   2.010  10.052   2.583 -0.3526  0.2466  0.1167
  812MOL0     O 7110   2.142  10.040   2.593 -0.7297  0.2321  0.9104
  812MOL0     C 7111   2.192   9.985   2.714  0.5757 -0.8266  0.0638
  812MOL0     C 7112   2.226  10.097   2.813 -0.6023 -0.5448 -0.2280
  812MOL0     C 7113   2.347  10.177   2.774  0.3156 -0.5119 -0.4132
  812MOL0     C 7114   2.386  10.290   2.872 -0.3521  0.3250  0.0373
  812MOL0     C 7115   2.447  10.242   2.993  0.2197 -0.3467  0.7237
  812MOL0     C 7116   2.510  10.181   3.077  0.6764 -0.2429 -0.0541
  812MOL0     C 7117   1.964  10.077   2.453  0.0485  0.1473  0.3129
  812MOL0     C 7118   1.831  10.102   2.432 -0.1059 -0.5208  0.2852
  812MOL0     H 7119   1.359   9.872   2.683  0.5295 -0.6048 -1.2076
  812MOL0     H 7120   1.101   9.857   2.628 -1.4327  1.4499 -2.9318
  812MOL0     H 7121   0.904  10.230   2.524 -0.2336 -0.0787 -0.3092
  812MOL0     H 7122   0.845  10.148   2.666 -1.6340 -1.2342  0.1122
  812MOL0     H 7123   0.763  10.081   2.374 -0.9271 -1.0881  0.3271
  812MOL0     H 7124   0.679  10.195   2.485  1.0468  1.3551  0.0805
  812MOL0     H 7125   0.674   9.983   2.648 -1.8522  1.6400  0.0002
  812MOL0     H 7126   0.702   9.895   2.489 -0.6876 -1.1679 -0.0606
  812MOL0     H 7127   0.477  10.081   2.569 -1.2506 -2.9009  1.6936
  812MOL0     H 7128   0.511  10.047   2.400 -1.1502  3.9954  1.0710
  812MOL0     H 7129   0.440   9.857   2.625 -2.0962 -2.5614 -0.3995
  812MOL0     H 7130   0.480   9.808   2.458 -0.3230 -1.0934  1.8641
  812MOL0     H 7131   0.310   9.962   2.371  0.8987 -0.6086  0.3548
  812MOL0     H 7132   0.269   9.999   2.541  0.4498  1.6607 -1.2162
  812MOL0     H 7133   0.232   9.723   2.415  0.3300 -0.1317  0.1758
  812MOL0     H 7134   0.192   9.754   2.581 -1.4011 -0.8051 -0.7376
  812MOL0     H 7135   0.065   9.843   2.319 -1.4373 -0.6101 -0.6447
  812MOL0     H 7136   0.037   9.937   2.471  1.6971  1.8247  0.5379
  812MOL0     H 7137   0.000   9.550   2.346 -2.4574 -4.0744  1.8860
  812MOL0     H 7138  -0.161   9.349   2.502  1.6884  2.2634  3.0563
  812MOL0     H 7139  -0.233   9.401   2.361  2.6607  0.2841 -0.9951
  812MOL0     H 7140  -0.363   9.434   2.641 -0.4622  4.4101 -0.4552
  812MOL0     H 7141  -0.395   9.312   2.516  0.4873 -0.2175 -0.5623
  812MOL0     H 7142  -0.453   9.619   2.529  4.2503 -0.3554  0.3951
  812MOL0     H 7143  -0.433   9.550   2.378  1.4473  0.9314  1.7024
  812MOL0     H 7144  -0.672   9.546   2.422 -4.1790  0.4278  3.7538
  812MOL0     H 7145  -0.643   9.512   2.595  1.5448  0.6455  0.1244
  812MOL0     H 7146  -0.888   9.460   2.522 -1.8414 -0.3160  0.7705
  812MOL0     H 7147  -1.088   9.372   2.438 -0.7160 -0.4908 -2.3171
  812MOL0     H 7148  -1.291   8.829   2.406 -2.5521  1.0238  0.2283
  812MOL0     H 7149  -1.486   8.724   2.301 -3.5160  0.4405 -2.9344
  812MOL0     H 7150  -1.508   8.716   1.876  0.8800  0.8993  1.1336
  812MOL0     H 7151  -1.618   8.854   1.879 -2.0863 -0.1523 -0.8446
  812MOL0     H 7152  -1.718   8.582   1.941  0.4911 -1.0618 -2.7891
  812MOL0     H 7153  -1.701   8.628   1.774  4.1173  0.3054 -0.0223
  812MOL0     H 7154  -1.854   8.804   1.970  0.4066 -1.5491  0.6970
  812MOL0     H 7155  -1.933   8.667   1.872 -0.8249  1.3362 -3.2614
  812MOL0     H 7156  -1.789   8.916   1.781  1.0950 -2.9878 -0.6174
  812MOL0     H 7157  -1.891   8.808   1.681  0.0146  2.7116 -2.0097
  812MOL0     H 7158  -1.976   8.985   1.926 -0.8286 -0.9659  0.4624
  812MOL0     H 7159  -2.090   8.896   1.831  0.5543 -1.1834  1.4925
  812MOL0     H 7160  -2.043   9.051   1.642  0.4993 -3.4360  0.9569
  812MOL0     H 7161  -1.903   9.118   1.722  1.3352 -3.2569  0.0461
  812MOL0     H 7162  -2.012   9.215   1.893  0.2714 -0.1524 -1.1058
  812MOL0     H 7163  -2.088   9.280   1.755 -0.8189 -0.3892  0.8798
  812MOL0     H 7164  -2.254   9.225   1.926 -0.0902 -0.5581 -0.3078
  812MOL0     H 7165  -2.214   9.056   1.916 -0.8654 -0.3551 -0.8746
  812MOL0     H 7166  -1.422   8.959   1.950  0.5622  1.2804  1.5058
  812MOL0     H 7167  -1.214   9.036   2.036 -0.0486  1.5916  1.7991
  812MOL0     H 7168  -0.883   9.043   2.258 -2.4518  1.7236 -2.2274
  812MOL0     H 7169  -0.662   9.141   2.325  0.4713  2.7296 -2.8546
  812MOL0     H 7170   1.100  10.260   2.494  2.6004  2.5471  0.7076
  812MOL0     H 7171   1.346  10.272   2.520 -2.7920  0.6110 -3.9612
  812MOL0     H 7172   1.711  10.030   2.730 -0.7720 -2.8338 -1.7389
  812MOL0     H 7173   1.931  10.015   2.783  1.5010 -4.7790 -1.1391
  812MOL0     H 7174   2.273   9.912   2.698  1.7142  0.4883 -0.4010
  812MOL0     H 7175   2.123   9.922   2.771 -0.8637  0.7397  0.1164
  812MOL0     H 7176   2.142  10.167   2.825 -0.7591 -0.9856  1.4707
  812MOL0     H 7177   2.244  10.052   2.911 -2.5445 -0.6726  0.1222
  812MOL0     H 7178   2.325  10.216   2.674  3.4588  1.1359 -0.6015
  812MOL0     H 7179   2.430  10.105   2.765 -0.4938 -1.5378  0.1529
  812MOL0     H 7180   2.442  10.365   2.816 -1.0523  0.9136  0.1011
  812MOL0     H 7181   2.288  10.327   2.905 -1.1201 -1.3690 -0.2816
  812MOL0     H 7182   2.570  10.134   3.152  0.7999 -1.8744 -1.1288
  812MOL0     H 7183   2.034  10.059   2.371 -0.9473 -4.3778  0.1746
  812MOL0     H 7184   1.803  10.119   2.329  0.5576 -1.5413 -0.0786
  813MOL0     O 7185   1.261   6.195   0.646  0.1793  0.0466 -0.3193
  813MOL0     C 7186   1.211   6.086   0.629  1.0446 -0.4794  1.3647
  813MOL0     O 7187   1.276   5.974   0.592 -0.1947  0.3338  0.3026
  813MOL0     C 7188   1.414   5.962   0.606  0.5267  0.2228 -0.0052
  813MOL0     C 7189   1.471   5.863   0.534  0.1733 -0.4748  0.6450
  813MOL0     C 7190   1.609   5.845   0.525 -0.6532  0.3088  0.8032
  813MOL0     C 7191   1.698   5.949   0.580  0.8637  0.7439 -0.8521
  813MOL0     O 7192   1.833   5.921   0.572  0.3509 -0.5439 -0.1251
  813MOL0     C 7193   1.921   6.005   0.656  0.0317  0.5983  0.4027
  813MOL0     C 7194   2.063   5.947   0.666  0.2697 -0.1595  0.7638
  813MOL0     C 7195   2.171   6.051   0.621  0.3921  0.3383  0.6085
  813MOL0     C 7196   2.312   5.985   0.609  0.2667  0.8575  0.0083
  813MOL0     C 7197   2.413   6.068   0.540 -0.8907  0.5612  0.3426
  813MOL0     C 7198   2.397   6.059   0.388  0.1906  0.2610 -0.7532
  813MOL0     C 7199   2.513   6.119   0.306  0.1858  0.3479 -0.1338
  813MOL0     C 7200   2.523   6.272   0.308 -0.2218 -1.0017 -0.1084
  813MOL0     N 7201   2.643   6.316   0.233 -1.0052  0.5954 -0.1354
  813MOL0     C 7202   2.772   6.273   0.251  0.1103 -0.0402  0.2693
  813MOL0     C 7203   2.828   6.298   0.129  0.4294  0.6821 -0.3782
  813MOL0     C 7204   2.974   6.286   0.088 -0.5596 -0.7134  0.8675
  813MOL0     C 7205   3.046   6.419   0.057 -0.4060 -1.2027 -0.3891
  813MOL0     C 7206   3.062   6.449  -0.094  0.5151 -0.3907 -1.0553
  813MOL0     C 7207   3.142   6.574  -0.110  0.8945  0.3022 -0.8688
  813MOL0     O 7208   3.276   6.578  -0.056  0.2170 -0.4243  0.2361
  813MOL0     C 7209   3.345   6.699  -0.087  0.2292  0.1914  0.2092
  813MOL0     C 7210   3.344   6.767  -0.210  0.3309  0.2166 -0.1114
  813MOL0     C 7211   3.432   6.876  -0.230  0.2631  0.0705  0.3216
  813MOL0     C 7212   3.518   6.928  -0.121  0.0005  0.2743 -0.1310
  813MOL0     C 7213   3.614   7.041  -0.140  0.2201 -0.3105 -0.3723
  813MOL0     O 7214   3.627   7.104  -0.259 -0.0825  0.4541 -0.1191
  813MOL0     C 7215   3.693   7.229  -0.262  0.7128  0.8578  1.8683
  813MOL0     C 7216   3.827   7.236  -0.286 -0.5346  0.0171 -0.4578
  813MOL0     C 7217   3.896   7.351  -0.298  0.4587  0.5799  0.2300
  813MOL0     C 7218   3.830   7.474  -0.275  0.0875 -0.7385 -1.2404
  813MOL0     O 7219   3.897   7.592  -0.261 -0.5288  0.0441 -0.3531
  813MOL0     C 7220   4.032   7.590  -0.306  0.0783  0.2810  0.0764
  813MOL0     C 7221   4.092   7.730  -0.285  0.1895 -0.0927  0.4017
  813MOL0     C 7222   4.232   7.760  -0.355  0.9025  0.4591 -0.1371
  813MOL0     C 7223   4.242   7.735  -0.511 -0.4037 -0.4532  0.8337
  813MOL0     C 7224   4.358   7.815  -0.582  0.6268 -0.9007  0.0292
  813MOL0     C 7225   4.495   7.747  -0.565 -0.1969 -0.6186 -0.1503
  813MOL0     C 7226   4.611   7.818  -0.627 -0.5300  0.2862 -0.1338
  813MOL0     C 7227   4.738   7.727  -0.603  0.3636 -0.9562 -0.0733
  813MOL0    Cl 7228   4.874   7.795  -0.700 -0.5655  0.3013  0.5858
  813MOL0     C 7229   3.692   7.475  -0.256  0.1693  0.5137 -0.1703
  813MOL0     C 7230   3.623   7.351  -0.252 -0.6414  0.3845 -0.2684
  813MOL0     O 7231   3.682   7.073  -0.042  0.3859  0.8190 -0.2596
  813MOL0     C 7232   3.518   6.855  -0.003 -0.1742 -0.0263  0.1769
  813MOL0     C 7233   3.431   6.736   0.010  0.3025 -0.1364  0.3006
  813MOL0     N 7234   2.737   6.355   0.047  0.2454 -0.3250  0.1794
  813MOL0     N 7235   2.624   6.353   0.099  0.2393  0.0924  0.6363
  813MOL0     C 7236   1.641   6.045   0.655  0.1560 -0.6165 -0.6040
  813MOL0     C 7237   1.500   6.061   0.667  0.3730  0.0225 -0.5395
  813MOL0     C 7238   1.066   6.073   0.631  1.0349  0.0436 -0.5337
  813MOL0     C 7239   0.985   6.183   0.672 -0.6891  0.4546 -1.3503
  813MOL0     C 7240   0.845   6.178   0.667 -0.6794  0.0161  0.7645
  813MOL0     C 7241   0.781   6.061   0.615  0.1760  0.2162 -0.1590
  813MOL0     O 7242   0.646   6.045   0.613  0.7235  0.0033  0.0695
  813MOL0     C 7243   0.565   6.162   0.583 -0.0256 -0.0668 -0.1385
  813MOL0     C 7244   0.495   6.187   0.716  0.4714 -0.2110  0.2180
  813MOL0     C 7245   0.390   6.072   0.746  0.4942  0.5275 -0.2483
  813MOL0     C 7246   0.307   6.090   0.872  0.2228  0.0269 -1.0186
  813MOL0     C 7247   0.227   6.214   0.877 -0.1379  0.3633 -0.0801
  813MOL0     C 7248   0.164   6.319   0.857 -0.8936  0.6062 -0.1217
  813MOL0     C 7249   0.862   5.956   0.584 -0.3086 -0.0607 -0.5572
  813MOL0     C 7250   0.999   5.959   0.595 -0.5118 -0.1457 -0.2839
  813MOL0     H 7251   1.410   5.796   0.476  3.3552 -2.7606 -0.3508
  813MOL0     H 7252   1.649   5.758   0.473 -4.5701 -0.6604 -0.8976
  813MOL0     H 7253   1.880   6.020   0.756  2.9119  1.1723  1.5952
  813MOL0     H 7254   1.920   6.106   0.613 -1.6285  1.3947  2.1579
  813MOL0     H 7255   2.077   5.856   0.607 -0.8754 -0.0634  0.3246
  813MOL0     H 7256   2.071   5.930   0.774 -4.0036  1.7423  1.5921
  813MOL0     H 7257   2.163   6.138   0.686 -0.8747  1.4585 -0.9517
  813MOL0     H 7258   2.139   6.100   0.528  0.0192  0.6039  0.8748
  813MOL0     H 7259   2.327   5.967   0.716  0.8452  1.4169  0.0235
  813MOL0     H 7260   2.307   5.891   0.554 -0.1436  1.2033 -0.5555
  813MOL0     H 7261   2.506   6.018   0.568 -1.7590 -0.6943  1.1441
  813MOL0     H 7262   2.426   6.168   0.582  1.7095 -0.1467  1.4648
  813MOL0     H 7263   2.303   6.112   0.371 -1.2916 -1.6850  0.8999
  813MOL0     H 7264   2.392   5.954   0.359  3.1406 -0.4124  0.8026
  813MOL0     H 7265   2.612   6.079   0.328  0.6454  0.4223 -1.8960
  813MOL0     H 7266   2.498   6.099   0.199 -0.8122  0.6353 -0.0563
  813MOL0     H 7267   2.532   6.303   0.413  0.6289 -1.5785  0.0038
  813MOL0     H 7268   2.434   6.328   0.277  0.1664 -0.1412  0.2862
  813MOL0     H 7269   2.812   6.223   0.339  0.0502 -1.2708 -0.3874
  813MOL0     H 7270   2.985   6.224  -0.003  1.0453  0.1704  0.4234
  813MOL0     H 7271   3.032   6.230   0.162  1.5454  0.1762 -0.0269
  813MOL0     H 7272   3.149   6.406   0.091  0.3649 -0.8462 -2.4616
  813MOL0     H 7273   2.999   6.500   0.114  2.5139 -0.2390  0.8671
  813MOL0     H 7274   3.117   6.363  -0.133  1.0669 -1.2024  1.3331
  813MOL0     H 7275   2.962   6.463  -0.137  0.4208 -1.2049 -1.1298
  813MOL0     H 7276   3.089   6.655  -0.061  1.0552  0.0101 -0.2036
  813MOL0     H 7277   3.138   6.596  -0.217  1.1628  1.0779 -0.7279
  813MOL0     H 7278   3.291   6.736  -0.299 -0.2142 -0.7696  0.5372
  813MOL0     H 7279   3.426   6.916  -0.331  0.7599 -1.1795 -0.2309
  813MOL0     H 7280   3.893   7.149  -0.288  0.0320  0.4607 -1.4918
  813MOL0     H 7281   4.004   7.348  -0.311  0.3180  1.2665 -1.2213
  813MOL0     H 7282   4.045   7.557  -0.410  0.5320 -1.0271  0.5223
  813MOL0     H 7283   4.094   7.525  -0.243  3.3840  1.2415 -1.8966
  813MOL0     H 7284   4.101   7.748  -0.177 -1.9845 -1.6595  0.9143
  813MOL0     H 7285   4.019   7.805  -0.318  0.9032  0.4380 -0.0034
  813MOL0     H 7286   4.303   7.699  -0.298  2.4053  1.2443 -1.1152
  813MOL0     H 7287   4.253   7.865  -0.333 -2.3313  0.5847  3.4033
  813MOL0     H 7288   4.243   7.633  -0.552  0.6732  0.5665 -1.9447
  813MOL0     H 7289   4.152   7.784  -0.550 -0.5490  0.7753  2.6015
  813MOL0     H 7290   4.362   7.914  -0.536  1.2762 -1.4138  1.1234
  813MOL0     H 7291   4.343   7.842  -0.686  0.5149 -1.7421 -0.1813
  813MOL0     H 7292   4.492   7.653  -0.621  0.6637 -1.0350  0.4927
  813MOL0     H 7293   4.516   7.735  -0.459  4.1121 -1.7421 -0.9554
  813MOL0     H 7294   4.593   7.828  -0.735  0.0415 -3.0298 -0.6588
  813MOL0     H 7295   4.632   7.916  -0.585  1.0801 -0.4250  0.8186
  813MOL0     H 7296   4.728   7.622  -0.629  1.8006 -1.0475 -0.3408
  813MOL0     H 7297   4.754   7.738  -0.495 -3.5262  2.4710  0.4400
  813MOL0     H 7298   3.639   7.566  -0.229 -0.9177 -0.0331 -0.4279
  813MOL0     H 7299   3.522   7.358  -0.215  1.0796  1.2491  5.0896
  813MOL0     H 7300   3.579   6.877   0.084 -0.6674  1.9463  0.0537
  813MOL0     H 7301   3.432   6.688   0.107  4.8142 -0.8963  0.0870
  813MOL0     H 7302   1.703   6.125   0.696  2.4594 -0.6496 -3.6750
  813MOL0     H 7303   1.464   6.142   0.729 -1.7300 -1.5621  0.4549
  813MOL0     H 7304   1.032   6.271   0.715  1.4580 -0.9967 -0.5660
  813MOL0     H 7305   0.798   6.265   0.713  2.4213  2.8049 -0.9105
  813MOL0     H 7306   0.495   6.151   0.500  0.0174 -1.3814 -0.0146
  813MOL0     H 7307   0.622   6.245   0.541 -1.0433  0.1774 -1.0975
  813MOL0     H 7308   0.564   6.185   0.801  0.3592 -2.3802  0.3170
  813MOL0     H 7309   0.438   6.279   0.704 -2.1862 -1.8460 -0.5538
  813MOL0     H 7310   0.433   5.972   0.749 -3.3412 -1.2993 -0.4595
  813MOL0     H 7311   0.325   6.072   0.657  1.4953  2.0266 -1.0165
  813MOL0     H 7312   0.229   6.014   0.878 -0.3167  0.6198 -0.2618
  813MOL0     H 7313   0.373   6.081   0.960 -0.2838 -0.5872 -0.6971
  813MOL0     H 7314   0.136   6.420   0.837 -1.1129  1.0367  2.1631
  813MOL0     H 7315   0.806   5.868   0.555  1.3390 -1.6161  0.7818
  813MOL0     H 7316   1.056   5.884   0.540 -0.6897  0.2145 -0.9693
  814MOL0     O 7317  10.656   9.272   3.527 -0.4331  0.7219  0.8374
  814MOL0     C 7318  10.717   9.229   3.428  0.2272 -0.0892 -0.2435
  814MOL0     O 7319  10.653   9.158   3.324 -0.6218  0.1758  0.8307
  814MOL0     C 7320  10.515   9.146   3.313  0.1960  1.1290  0.1719
  814MOL0     C 7321  10.473   9.057   3.211 -0.7555  0.0257  0.2676
  814MOL0     C 7322  10.339   9.050   3.161  0.1339  0.2008 -0.6986
  814MOL0     C 7323  10.239   9.133   3.217  0.0702  0.4847  0.7595
  814MOL0     O 7324  10.107   9.139   3.180  0.1534 -0.3662  0.9102
  814MOL0     C 7325  10.048   9.027   3.108  0.5253  0.7793 -0.5521
  814MOL0     C 7326   9.898   9.032   3.144 -0.6682 -1.1507  0.7450
  814MOL0     C 7327   9.824   8.910   3.086  0.3126  0.4673  0.3772
  814MOL0     C 7328   9.669   8.934   3.082  0.2504  0.4479 -1.2588
  814MOL0     C 7329   9.613   8.806   3.012 -1.0629  0.0173  0.4481
  814MOL0     C 7330   9.499   8.839   2.923 -0.2397 -0.8493 -0.3484
  814MOL0     C 7331   9.386   8.902   3.009 -1.1343  0.4553  0.4440
  814MOL0     C 7332   9.261   8.915   2.932  0.3232 -0.3573 -0.7991
  814MOL0     N 7333   9.209   8.787   2.888  0.5758  0.0158  0.1625
  814MOL0     C 7334   9.191   8.743   2.755  0.1528 -0.9723 -1.1502
  814MOL0     C 7335   9.146   8.620   2.762  1.4232  0.1766 -0.2618
  814MOL0     C 7336   9.136   8.522   2.655 -0.1671 -0.0562  0.1580
  814MOL0     C 7337   9.244   8.410   2.663  0.8958 -0.1808  0.0307
  814MOL0     C 7338   9.394   8.450   2.678 -0.4820 -0.0313 -0.1162
  814MOL0     C 7339   9.476   8.324   2.694  0.2258 -0.2347  0.3872
  814MOL0     O 7340   9.611   8.366   2.729  0.3836  0.2047 -0.3354
  814MOL0     C 7341   9.704   8.266   2.764 -0.2943  0.0576 -0.2386
  814MOL0     C 7342   9.674   8.130   2.774 -0.3914  0.6642  0.2893
  814MOL0     C 7343   9.771   8.037   2.811  1.0228 -0.0723  0.3519
  814MOL0     C 7344   9.902   8.086   2.845 -0.1716 -0.0828  0.7041
  814MOL0     C 7345   9.999   7.987   2.884 -0.6076  0.0319 -0.2873
  814MOL0     O 7346  10.128   8.021   2.865 -0.0163  0.2330 -0.0329
  814MOL0     C 7347  10.219   7.961   2.954  0.8111  0.1713  0.5726
  814MOL0     C 7348  10.239   7.824   2.946  1.2762  0.3940 -0.4215
  814MOL0     C 7349  10.323   7.760   3.036 -0.2193 -0.4442  0.1330
  814MOL0     C 7350  10.405   7.832   3.130 -0.5119  0.5523  0.2314
  814MOL0     O 7351  10.501   7.782   3.208  0.6972  0.7532 -0.1751
  814MOL0     C 7352  10.522   7.642   3.216  0.8682  0.1355  0.6198
  814MOL0     C 7353  10.656   7.624   3.291  0.2132  0.5019 -0.6671
  814MOL0     C 7354  10.784   7.674   3.210  0.8786 -0.6154 -0.0445
  814MOL0     C 7355  10.926   7.662   3.268  0.6726  0.6366 -0.3962
  814MOL0     C 7356  11.030   7.706   3.165 -0.2849  0.6203  1.0519
  814MOL0     C 7357  11.172   7.669   3.217  0.5577 -1.1072 -0.2734
  814MOL0     C 7358  11.256   7.795   3.257 -0.8874 -0.2877 -0.8649
  814MOL0     C 7359  11.233   7.843   3.401 -0.1995  0.2958 -0.4175
  814MOL0    Cl 7360  11.346   7.981   3.425  0.2595 -0.0648 -0.3844
  814MOL0     C 7361  10.387   7.972   3.128  0.7213 -0.1856 -1.1394
  814MOL0     C 7362  10.290   8.033   3.045 -0.4687  0.4054 -1.6328
  814MOL0     O 7363   9.960   7.895   2.953 -0.2439 -0.4509  0.1162
  814MOL0     C 7364   9.938   8.223   2.834 -0.4329 -0.0206 -0.7134
  814MOL0     C 7365   9.836   8.306   2.792  0.0110 -0.4315 -0.5619
  814MOL0     N 7366   9.112   8.591   2.896  0.3243 -0.2175 -0.2586
  814MOL0     N 7367   9.154   8.694   2.967 -0.1453 -0.4080 -0.4616
  814MOL0     C 7368  10.279   9.215   3.319  0.1309  0.3753 -0.3609
  814MOL0     C 7369  10.411   9.220   3.374  0.4943 -0.5847 -0.9550
  814MOL0     C 7370  10.861   9.236   3.425  0.5721 -0.6848 -0.1201
  814MOL0     C 7371  10.944   9.174   3.325  0.6430 -0.3986 -0.1868
  814MOL0     C 7372  11.081   9.199   3.313 -0.8067 -0.6570 -0.5402
  814MOL0     C 7373  11.152   9.274   3.409 -0.6990 -0.5786 -0.1085
  814MOL0     O 7374  11.294   9.289   3.400  0.1848 -1.0219  0.4968
  814MOL0     C 7375  11.375   9.275   3.511  0.5979  0.8721  0.3557
  814MOL0     C 7376  11.514   9.289   3.483 -0.6020 -0.7143  0.6363
  814MOL0     C 7377  11.538   9.435   3.447 -1.0714  0.1054  0.0966
  814MOL0     C 7378  11.686   9.466   3.417 -1.0684 -0.5199 -0.3008
  814MOL0     C 7379  11.753   9.377   3.319  0.2069 -1.1162  0.0236
  814MOL0     C 7380  11.808   9.314   3.230 -0.2826 -0.4685  0.0241
  814MOL0     C 7381  11.069   9.322   3.516  0.1613 -0.4454  0.8488
  814MOL0     C 7382  10.937   9.295   3.525  0.8631  0.4306 -0.2536
  814MOL0     H 7383  10.556   9.002   3.170 -1.1199 -0.1258 -0.2753
  814MOL0     H 7384  10.312   8.989   3.076  1.2938 -1.4724  0.0731
  814MOL0     H 7385  10.081   8.929   3.144  2.6574  1.9485  0.9398
  814MOL0     H 7386  10.066   9.031   3.000  0.9136 -0.8963 -0.5741
  814MOL0     H 7387   9.855   9.116   3.088 -1.6246 -2.8195 -1.1228
  814MOL0     H 7388   9.886   9.056   3.250  1.0210  2.0376  0.3557
  814MOL0     H 7389   9.844   8.817   3.139  1.9903  0.1802 -0.6649
  814MOL0     H 7390   9.867   8.907   2.986 -0.7060  0.3655 -0.0708
  814MOL0     H 7391   9.630   8.946   3.183  0.8860  1.0830 -1.0841
  814MOL0     H 7392   9.648   9.026   3.027 -0.2649  1.8892  1.1957
  814MOL0     H 7393   9.585   8.726   3.080  0.7548 -0.3713  0.7795
  814MOL0     H 7394   9.687   8.750   2.955  1.4512  3.7957 -0.4243
  814MOL0     H 7395   9.470   8.757   2.857 -0.7537 -0.1528 -1.0057
  814MOL0     H 7396   9.528   8.923   2.859 -3.4571  0.0934 -0.7278
  814MOL0     H 7397   9.357   8.848   3.100  1.0398  0.8803  1.4427
  814MOL0     H 7398   9.422   8.998   3.048 -0.4330 -0.1773  1.4116
  814MOL0     H 7399   9.276   8.976   2.843  1.4708 -1.6930 -1.5658
  814MOL0     H 7400   9.180   8.961   2.990 -1.6187 -3.4721 -0.8114
  814MOL0     H 7401   9.225   8.798   2.668 -0.0791  0.1453 -0.5540
  814MOL0     H 7402   9.158   8.582   2.566 -0.6517 -0.2925 -0.1301
  814MOL0     H 7403   9.033   8.488   2.648 -1.2479  2.9484  0.0906
  814MOL0     H 7404   9.228   8.352   2.571 -3.1963 -0.5940  0.8213
  814MOL0     H 7405   9.209   8.350   2.747 -1.4817  1.5022  0.3390
  814MOL0     H 7406   9.423   8.512   2.593 -1.0061 -0.3647 -0.5435
  814MOL0     H 7407   9.409   8.499   2.775  1.1779 -2.0190  0.7212
  814MOL0     H 7408   9.487   8.275   2.597  2.0345  1.5805 -0.4006
  814MOL0     H 7409   9.419   8.259   2.760 -1.6964  1.2634  0.2948
  814MOL0     H 7410   9.580   8.090   2.737  0.9040 -0.4881 -2.0080
  814MOL0     H 7411   9.753   7.930   2.813 -0.9417  0.0801 -2.6064
  814MOL0     H 7412  10.174   7.764   2.884  0.3234  1.4775 -0.5062
  814MOL0     H 7413  10.339   7.653   3.030 -2.3438 -0.8401  0.6940
  814MOL0     H 7414  10.532   7.597   3.117 -3.2000  1.0588 -0.3728
  814MOL0     H 7415  10.434   7.602   3.266 -0.3395  2.1284  0.2060
  814MOL0     H 7416  10.674   7.521   3.321 -0.3053  0.7269  0.4707
  814MOL0     H 7417  10.656   7.687   3.380  3.6395  0.8619 -0.7686
  814MOL0     H 7418  10.763   7.772   3.165 -2.2015 -1.0464  0.1941
  814MOL0     H 7419  10.781   7.602   3.127 -1.3549 -1.5331  0.7427
  814MOL0     H 7420  10.924   7.703   3.369 -2.3393  0.7475 -0.4200
  814MOL0     H 7421  10.938   7.554   3.276 -0.6898  0.5180  0.3622
  814MOL0     H 7422  11.023   7.814   3.151 -0.8859  0.7534  2.2779
  814MOL0     H 7423  11.016   7.655   3.069  3.3348 -0.2954  0.8764
  814MOL0     H 7424  11.231   7.609   3.147  0.7349 -0.6250 -0.5449
  814MOL0     H 7425  11.157   7.596   3.297  1.4248 -0.8505  0.1470
  814MOL0     H 7426  11.363   7.776   3.244 -0.6607  0.9137 -0.8841
  814MOL0     H 7427  11.236   7.883   3.195  1.0917  0.6584 -0.2460
  814MOL0     H 7428  11.251   7.764   3.475 -0.0638  0.7482  0.0376
  814MOL0     H 7429  11.130   7.878   3.411 -1.8478 -4.0298 -0.4141
  814MOL0     H 7430  10.440   8.026   3.206 -1.1434  1.0219 -0.6318
  814MOL0     H 7431  10.269   8.139   3.049 -1.0373  0.3026 -1.7970
  814MOL0     H 7432  10.037   8.258   2.863 -0.6965 -1.3531  2.2019
  814MOL0     H 7433   9.848   8.414   2.791 -0.8920 -0.2294  1.8790
  814MOL0     H 7434  10.208   9.287   3.359  0.4693 -0.0973  1.1438
  814MOL0     H 7435  10.426   9.284   3.460 -0.2909 -0.5483 -0.8391
  814MOL0     H 7436  10.894   9.109   3.254 -0.9362  0.6047 -0.0298
  814MOL0     H 7437  11.139   9.150   3.236  1.1802  0.6789  0.0397
  814MOL0     H 7438  11.366   9.179   3.563  1.6244  0.5523 -0.0309
  814MOL0     H 7439  11.358   9.346   3.593  2.2534 -0.0327  1.5699
  814MOL0     H 7440  11.570   9.273   3.575 -2.2081 -0.1009  1.7744
  814MOL0     H 7441  11.536   9.222   3.399  1.0519  2.4993 -1.7033
  814MOL0     H 7442  11.498   9.501   3.525  0.3794  0.0375  0.9325
  814MOL0     H 7443  11.487   9.457   3.353  0.7503 -2.5836 -1.6842
  814MOL0     H 7444  11.682   9.571   3.384 -1.8957 -0.1838  0.7935
  814MOL0     H 7445  11.738   9.452   3.512  0.5183 -3.3334 -1.4724
  814MOL0     H 7446  11.848   9.256   3.149 -3.5506 -1.4734 -1.0608
  814MOL0     H 7447  11.116   9.382   3.594 -1.6172 -0.5773  2.0746
  814MOL0     H 7448  10.885   9.335   3.612  1.9700  1.3170  0.0220
  815MOL0     O 7449   0.311   5.842   4.418  0.4035 -0.2588  0.2446
  815MOL0     C 7450   0.293   5.951   4.366  0.1311 -0.9551 -0.3423
  815MOL0     O 7451   0.378   6.007   4.277 -0.7183 -0.6703  0.2121
  815MOL0     C 7452   0.500   5.941   4.239  0.1382  0.2167 -0.5110
  815MOL0     C 7453   0.526   5.945   4.099 -0.4355  0.1222  0.1793
  815MOL0     C 7454   0.632   5.872   4.045  0.6494 -0.3129 -0.1197
  815MOL0     C 7455   0.722   5.804   4.128  0.5231  0.9091  1.4482
  815MOL0     O 7456   0.841   5.738   4.084  0.3553 -0.7285 -0.6261
  815MOL0     C 7457   0.894   5.768   3.956 -0.2086  0.6088 -0.2249
  815MOL0     C 7458   1.001   5.665   3.925 -0.4144  0.0512 -0.1790
  815MOL0     C 7459   1.085   5.690   3.790  0.2653 -0.2123  0.5766
  815MOL0     C 7460   1.216   5.616   3.783  0.9770  0.0479  0.3961
  815MOL0     C 7461   1.186   5.466   3.768 -0.0868 -0.2462  1.3087
  815MOL0     C 7462   1.145   5.428   3.620 -0.2193  0.7774  0.6489
  815MOL0     C 7463   1.131   5.274   3.597  0.1325 -1.2973 -0.1626
  815MOL0     C 7464   0.995   5.221   3.644  0.3522  0.1701 -0.2365
  815MOL0     N 7465   0.881   5.288   3.567 -0.1516 -0.1979  0.8536
  815MOL0     C 7466   0.860   5.314   3.432  0.4450 -0.3513  0.0627
  815MOL0     C 7467   0.739   5.384   3.430  0.6822 -0.4319  0.1654
  815MOL0     C 7468   0.671   5.433   3.308  0.5786  0.3417 -0.7629
  815MOL0     C 7469   0.721   5.578   3.272  0.9940 -0.6394  0.1148
  815MOL0     C 7470   0.872   5.597   3.248  0.3424 -0.6781  1.7505
  815MOL0     C 7471   0.903   5.742   3.213  0.8560 -0.4392  0.4542
  815MOL0     O 7472   0.837   5.800   3.095 -0.6807  0.6973 -0.1817
  815MOL0     C 7473   0.716   5.852   3.109  1.1135  0.3373 -0.3651
  815MOL0     C 7474   0.640   5.878   3.226 -0.2452 -1.1916  0.1904
  815MOL0     C 7475   0.515   5.939   3.207  0.6928 -0.2803 -0.1603
  815MOL0     C 7476   0.448   5.954   3.083 -0.3266 -0.3863  0.1580
  815MOL0     C 7477   0.303   6.004   3.072 -0.1295  0.6617  0.0424
  815MOL0     O 7478   0.244   6.050   3.195 -0.5727 -0.1186 -0.4738
  815MOL0     C 7479   0.110   6.067   3.181  0.4156 -0.3286 -0.3242
  815MOL0     C 7480   0.015   5.959   3.182 -0.1097  0.0569  0.5621
  815MOL0     C 7481  -0.124   5.986   3.152  0.1043  0.1495  0.5067
  815MOL0     C 7482  -0.161   6.120   3.126 -0.0362 -0.0241 -0.2825
  815MOL0     O 7483  -0.295   6.150   3.105  0.4919 -0.1816  0.2275
  815MOL0     C 7484  -0.349   6.258   3.184 -0.3533 -0.0727 -0.2537
  815MOL0     C 7485  -0.497   6.244   3.211  0.3325  0.4611 -0.0110
  815MOL0     C 7486  -0.542   6.347   3.313  0.8563  0.1940 -0.4013
  815MOL0     C 7487  -0.695   6.336   3.345 -0.2078 -0.8475  0.4026
  815MOL0     C 7488  -0.713   6.437   3.462 -0.2304 -0.2032 -0.8827
  815MOL0     C 7489  -0.857   6.443   3.517 -0.1368  0.6601 -0.1633
  815MOL0     C 7490  -0.943   6.530   3.421 -1.1855  1.0810 -0.1103
  815MOL0     C 7491  -1.091   6.495   3.452 -0.1674 -0.8165  0.4910
  815MOL0    Cl 7492  -1.175   6.496   3.294 -0.0203 -0.2215 -0.0445
  815MOL0     C 7493  -0.066   6.220   3.146  0.3975 -0.4894  0.9104
  815MOL0     C 7494   0.062   6.197   3.173 -0.0166 -0.0416  0.3105
  815MOL0     O 7495   0.251   5.993   2.962 -0.1724 -0.5813 -0.2463
  815MOL0     C 7496   0.524   5.922   2.979  0.2285 -0.0035  0.1159
  815MOL0     C 7497   0.656   5.872   2.992 -0.1805 -0.2827  0.1646
  815MOL0     N 7498   0.692   5.394   3.560 -0.1985 -1.0858  0.9238
  815MOL0     N 7499   0.775   5.339   3.637 -0.1088 -0.4453  0.1483
  815MOL0     C 7500   0.687   5.792   4.266 -0.0628  0.2636 -0.1043
  815MOL0     C 7501   0.579   5.860   4.323  0.6298 -0.7698  0.6662
  815MOL0     C 7502   0.163   6.016   4.390  0.7128 -0.0046  0.0847
  815MOL0     C 7503   0.064   5.947   4.463 -0.6420  0.6302  0.4146
  815MOL0     C 7504  -0.062   6.009   4.489  0.8403 -0.3342  0.5642
  815MOL0     C 7505  -0.084   6.143   4.445  0.0901  0.0051  0.1046
  815MOL0     O 7506  -0.215   6.189   4.450 -0.2838 -0.2763 -0.3840
  815MOL0     C 7507  -0.254   6.304   4.378  0.7634  0.7693  0.0779
  815MOL0     C 7508  -0.402   6.319   4.389 -0.0137  0.6989 -0.5583
  815MOL0     C 7509  -0.486   6.207   4.338  0.1742  0.4398  0.2820
  815MOL0     C 7510  -0.631   6.245   4.340 -0.9052 -0.2368  0.5751
  815MOL0     C 7511  -0.707   6.118   4.308  0.5760  0.4007 -0.6991
  815MOL0     C 7512  -0.774   6.020   4.307 -0.3921  0.3466 -0.0375
  815MOL0     C 7513   0.022   6.211   4.378  0.4867  0.0486  0.2435
  815MOL0     C 7514   0.140   6.148   4.349  0.4750  0.3524 -0.1939
  815MOL0     H 7515   0.471   6.002   4.025  0.6712  0.2958 -0.5183
  815MOL0     H 7516   0.649   5.874   3.938  0.1753 -0.2329 -0.1986
  815MOL0     H 7517   0.931   5.871   3.954  1.4196  0.1141  1.6290
  815MOL0     H 7518   0.819   5.754   3.877  1.5631  0.6104 -2.0000
  815MOL0     H 7519   0.952   5.568   3.934  0.8202 -0.4393  1.7299
  815MOL0     H 7520   1.075   5.656   4.005 -2.8710 -1.4430  2.0983
  815MOL0     H 7521   1.111   5.796   3.785  0.3029 -0.2709 -3.1035
  815MOL0     H 7522   1.016   5.669   3.707  0.6060  0.4228  0.1245
  815MOL0     H 7523   1.288   5.647   3.707 -0.1520 -0.2642 -0.8383
  815MOL0     H 7524   1.274   5.617   3.876 -0.3954 -1.0525  1.3257
  815MOL0     H 7525   1.103   5.436   3.833  0.2094  0.1376  1.8727
  815MOL0     H 7526   1.275   5.411   3.798  1.9766  2.4918  0.5880
  815MOL0     H 7527   1.226   5.450   3.550 -0.6421 -2.4643 -1.0670
  815MOL0     H 7528   1.047   5.472   3.598 -0.6341  0.7086  2.2684
  815MOL0     H 7529   1.137   5.248   3.491 -0.8032 -1.0028 -0.2947
  815MOL0     H 7530   1.213   5.212   3.636  0.6305 -0.8749 -0.5248
  815MOL0     H 7531   0.980   5.230   3.752 -0.7096  0.0490 -0.3646
  815MOL0     H 7532   0.989   5.112   3.637 -1.0019  0.2485 -0.5482
  815MOL0     H 7533   0.925   5.285   3.351  1.5377 -0.9717  1.1284
  815MOL0     H 7534   0.563   5.422   3.317  0.6507 -0.4032 -0.7236
  815MOL0     H 7535   0.706   5.376   3.222  0.3082  0.6672 -1.0884
  815MOL0     H 7536   0.680   5.633   3.356 -1.6627  2.0187 -2.6608
  815MOL0     H 7537   0.654   5.598   3.187  0.2208 -0.4662  0.7583
  815MOL0     H 7538   0.943   5.567   3.325  4.6132 -1.1509 -1.9585
  815MOL0     H 7539   0.902   5.544   3.157  0.4269 -0.4229  1.6301
  815MOL0     H 7540   1.012   5.747   3.201  0.7787 -1.3920 -0.8471
  815MOL0     H 7541   0.887   5.800   3.304 -0.3387  3.0754 -1.8034
  815MOL0     H 7542   0.689   5.871   3.322  1.8944 -0.4021 -0.7637
  815MOL0     H 7543   0.460   5.969   3.296 -1.7913 -2.7262 -0.7449
  815MOL0     H 7544   0.050   5.857   3.195 -3.5086 -1.6855 -2.0187
  815MOL0     H 7545  -0.206   5.915   3.162 -1.7567  2.2292  0.9336
  815MOL0     H 7546  -0.326   6.360   3.151 -2.1181  0.1129 -1.0225
  815MOL0     H 7547  -0.307   6.258   3.285 -0.1953  2.2569 -0.2693
  815MOL0     H 7548  -0.511   6.141   3.246  1.2823 -0.3478 -1.9187
  815MOL0     H 7549  -0.560   6.257   3.123  0.0360  1.1553  0.2908
  815MOL0     H 7550  -0.530   6.450   3.279 -0.9393  1.0790  1.4628
  815MOL0     H 7551  -0.495   6.333   3.410  1.9471  2.1628 -0.5868
  815MOL0     H 7552  -0.752   6.366   3.257 -0.9831 -0.5279  0.9985
  815MOL0     H 7553  -0.723   6.237   3.380 -2.0038 -0.4008  0.3102
  815MOL0     H 7554  -0.670   6.534   3.435  1.9091 -1.3896 -2.0179
  815MOL0     H 7555  -0.643   6.403   3.539  2.2929  0.5785 -2.7055
  815MOL0     H 7556  -0.873   6.495   3.612 -2.9555 -0.1753 -0.0842
  815MOL0     H 7557  -0.897   6.343   3.536 -0.9853  0.8833 -0.7225
  815MOL0     H 7558  -0.914   6.635   3.429  1.6191  0.4082 -0.4097
  815MOL0     H 7559  -0.917   6.508   3.317 -3.1365 -1.0704 -0.2238
  815MOL0     H 7560  -1.128   6.579   3.512 -2.8149  0.4484 -2.6176
  815MOL0     H 7561  -1.113   6.402   3.505 -3.7741  0.3554  1.3882
  815MOL0     H 7562  -0.095   6.323   3.127 -2.0202 -1.4825 -1.5823
  815MOL0     H 7563   0.134   6.273   3.199 -1.0769  1.1046 -0.0041
  815MOL0     H 7564   0.490   5.944   2.878  4.6082  2.7992 -1.0051
  815MOL0     H 7565   0.710   5.859   2.899  0.3898 -0.6187  0.5342
  815MOL0     H 7566   0.757   5.744   4.334 -0.0610  0.8225  0.2979
  815MOL0     H 7567   0.559   5.862   4.429  3.9164 -1.1725  1.4152
  815MOL0     H 7568   0.087   5.850   4.506 -0.3691  1.9698  3.6018
  815MOL0     H 7569  -0.141   5.958   4.544 -2.2293  1.8289 -1.5429
  815MOL0     H 7570  -0.229   6.295   4.272 -2.4767 -2.7021 -0.6185
  815MOL0     H 7571  -0.212   6.393   4.424  0.1182  0.2008  1.8570
  815MOL0     H 7572  -0.422   6.326   4.496 -0.3707 -0.7396 -0.5080
  815MOL0     H 7573  -0.425   6.410   4.333  0.4374  1.2702  0.1644
  815MOL0     H 7574  -0.472   6.114   4.393 -2.4013  0.5629  1.2476
  815MOL0     H 7575  -0.465   6.182   4.233 -1.4283 -1.5376  0.3676
  815MOL0     H 7576  -0.663   6.287   4.435 -1.7088  0.1968  0.1277
  815MOL0     H 7577  -0.643   6.324   4.265  2.6266 -1.4312 -1.4839
  815MOL0     H 7578  -0.834   5.933   4.291  1.2280 -0.3592 -3.0480
  815MOL0     H 7579   0.009   6.317   4.356 -0.2656 -0.3488 -1.3730
  815MOL0     H 7580   0.218   6.213   4.312 -2.3298  4.3639  0.3633
  816MOL0     O 7581   9.167   6.726   7.371 -0.7393  0.2676 -0.0967
  816MOL0     C 7582   9.164   6.726   7.248 -0.3649  0.2132 -0.3597
  816MOL0     O 7583   9.057   6.675   7.174 -0.6627  0.2034 -0.3866
  816MOL0     C 7584   8.946   6.619   7.218  0.5428 -0.3862  0.1700
  816MOL0     C 7585   8.913   6.579   7.348 -1.2105 -0.0921  0.5688
  816MOL0     C 7586   8.790   6.518   7.372 -0.2032 -0.5134 -0.3127
  816MOL0     C 7587   8.695   6.511   7.277  0.7388  0.1493  0.4807
  816MOL0     O 7588   8.573   6.444   7.298  0.5255 -0.4457  0.7648
  816MOL0     C 7589   8.448   6.515   7.247  0.3779  0.1362  0.4386
  816MOL0     C 7590   8.326   6.505   7.347 -0.5479  0.1080 -0.3895
  816MOL0     C 7591   8.280   6.360   7.367 -0.6398  0.3124  0.7690
  816MOL0     C 7592   8.170   6.344   7.471  0.4174 -0.3860 -0.0777
  816MOL0     C 7593   8.034   6.413   7.441 -0.1468 -0.0261  0.1098
  816MOL0     C 7594   7.951   6.411   7.564 -0.1021 -0.0652  0.1107
  816MOL0     C 7595   7.812   6.488   7.540  0.7444 -1.1289 -0.0966
  816MOL0     C 7596   7.700   6.413   7.459 -0.1506 -0.1398 -0.1253
  816MOL0     N 7597   7.589   6.510   7.423  0.6183  0.1959 -0.6694
  816MOL0     C 7598   7.483   6.554   7.501  0.3005 -0.3292  0.6387
  816MOL0     C 7599   7.404   6.622   7.417  0.1107 -0.4087 -0.0064
  816MOL0     C 7600   7.271   6.678   7.469 -0.5637  0.4923  0.1082
  816MOL0     C 7601   7.236   6.802   7.392 -0.6789  0.2272  0.7296
  816MOL0     C 7602   7.197   6.774   7.250 -0.2370 -0.4954 -0.1768
  816MOL0     C 7603   7.063   6.841   7.208  0.0249 -0.3955 -0.3213
  816MOL0     O 7604   6.957   6.810   7.301  0.0415  1.0364  0.0155
  816MOL0     C 7605   6.827   6.854   7.282 -0.2952  0.0762  1.1066
  816MOL0     C 7606   6.794   6.937   7.177  0.7626 -0.1747 -0.5910
  816MOL0     C 7607   6.662   6.961   7.139  0.9289 -0.1963  0.7410
  816MOL0     C 7608   6.559   6.908   7.215  0.5333 -0.0415  0.1394
  816MOL0     C 7609   6.416   6.937   7.186 -1.1570  0.3429  0.8045
  816MOL0     O 7610   6.331   6.917   7.289 -0.6594  0.5051  0.3927
  816MOL0     C 7611   6.205   6.971   7.283  0.2327 -0.4207 -0.2827
  816MOL0     C 7612   6.173   7.108   7.287 -0.2152 -0.0676  0.4984
  816MOL0     C 7613   6.050   7.166   7.291  0.1704  0.2772 -0.3673
  816MOL0     C 7614   5.938   7.081   7.300  0.3351  0.2805 -0.1648
  816MOL0     O 7615   5.810   7.117   7.295 -0.7093  0.2563 -0.4075
  816MOL0     C 7616   5.764   7.234   7.358 -0.3834  0.3580  0.4939
  816MOL0     C 7617   5.622   7.261   7.339  0.4578 -0.0758 -0.5323
  816MOL0     C 7618   5.575   7.370   7.434 -0.7227  0.9114 -0.2712
  816MOL0     C 7619   5.428   7.395   7.429 -0.4783  0.2878 -0.1062
  816MOL0     C 7620   5.397   7.554   7.439  0.0256  0.5526 -0.7976
  816MOL0     C 7621   5.253   7.584   7.484 -0.8442 -0.2096  0.0967
  816MOL0     C 7622   5.233   7.735   7.497 -0.2006  0.6517  0.5641
  816MOL0     C 7623   5.090   7.773   7.521 -0.0335 -0.0305  0.1716
  816MOL0    Cl 7624   5.031   7.716   7.690 -0.3935 -0.0876  0.3986
  816MOL0     C 7625   5.962   6.941   7.299 -0.6976 -0.2127 -0.6694
  816MOL0     C 7626   6.092   6.890   7.299  0.4476 -0.1438  0.4006
  816MOL0     O 7627   6.403   7.018   7.087  0.0249 -0.5573 -0.5348
  816MOL0     C 7628   6.595   6.821   7.321 -0.1631  0.6383  0.3321
  816MOL0     C 7629   6.721   6.797   7.356 -0.2021 -0.8782  0.2390
  816MOL0     N 7630   7.459   6.623   7.290  0.0201  0.8339  0.3176
  816MOL0     N 7631   7.562   6.545   7.297 -0.2680  0.2218 -0.4799
  816MOL0     C 7632   8.723   6.559   7.155  0.6313  0.5024  0.3820
  816MOL0     C 7633   8.848   6.609   7.123 -0.1280  0.4864 -0.1038
  816MOL0     C 7634   9.280   6.782   7.172  0.0931  0.5319 -0.3205
  816MOL0     C 7635   9.259   6.806   7.036 -0.4394 -0.4102  0.6309
  816MOL0     C 7636   9.355   6.884   6.963  0.0506  0.2848 -0.0858
  816MOL0     C 7637   9.479   6.910   7.025 -0.1084  0.3985  0.1863
  816MOL0     O 7638   9.578   6.987   6.962 -0.6179  0.2467 -0.1254
  816MOL0     C 7639   9.581   7.017   6.823 -0.0314  0.8258 -0.3099
  816MOL0     C 7640   9.721   7.073   6.801 -0.1294  0.3019  0.3758
  816MOL0     C 7641   9.829   6.969   6.801 -0.2036 -0.5172  0.0436
  816MOL0     C 7642   9.978   7.032   6.793  0.4634  0.2778 -0.4917
  816MOL0     C 7643  10.016   7.103   6.919 -0.5089 -0.5890  0.5822
  816MOL0     C 7644  10.040   7.173   7.016 -0.5755 -0.2480  0.0359
  816MOL0     C 7645   9.509   6.864   7.142 -0.2765  0.4913 -0.5301
  816MOL0     C 7646   9.404   6.798   7.218 -0.6450 -0.5639 -0.0946
  816MOL0     H 7647   8.980   6.579   7.434 -1.0795 -2.9436  0.5746
  816MOL0     H 7648   8.781   6.473   7.470  3.4485  1.3219  1.0236
  816MOL0     H 7649   8.420   6.462   7.156  0.1191  1.8501 -0.5170
  816MOL0     H 7650   8.467   6.619   7.221  0.1140  0.0929  0.0582
  816MOL0     H 7651   8.239   6.559   7.309 -0.6852  0.7786  0.8286
  816MOL0     H 7652   8.357   6.555   7.439  2.2377 -1.1405 -0.5377
  816MOL0     H 7653   8.356   6.285   7.391 -2.4372 -1.1203  2.3154
  816MOL0     H 7654   8.245   6.338   7.266  0.8909 -0.7217  0.4293
  816MOL0     H 7655   8.139   6.239   7.476 -1.2068 -0.3114 -4.6044
  816MOL0     H 7656   8.211   6.362   7.571 -0.1739  2.3304 -0.2456
  816MOL0     H 7657   7.985   6.368   7.354  1.1911  0.0575 -0.7198
  816MOL0     H 7658   8.061   6.516   7.416  0.0704 -0.4962 -1.7835
  816MOL0     H 7659   8.007   6.461   7.644 -0.2528  0.2670  0.0134
  816MOL0     H 7660   7.946   6.308   7.600 -0.6985 -0.0952 -0.0438
  816MOL0     H 7661   7.760   6.507   7.634 -1.7394 -1.8415 -1.2626
  816MOL0     H 7662   7.839   6.585   7.496 -2.3569 -0.2496 -0.2850
  816MOL0     H 7663   7.662   6.333   7.523 -2.0374 -0.0014 -0.9856
  816MOL0     H 7664   7.743   6.369   7.369 -0.8851 -2.4446  0.5869
  816MOL0     H 7665   7.469   6.560   7.609  0.2495  2.2113  0.5467
  816MOL0     H 7666   7.293   6.701   7.573  0.1706 -0.6249  0.2125
  816MOL0     H 7667   7.195   6.599   7.462  1.1363 -1.0740 -2.1421
  816MOL0     H 7668   7.321   6.870   7.391  0.1884 -0.7238 -2.5590
  816MOL0     H 7669   7.150   6.848   7.443 -0.6397  0.2073  0.8125
  816MOL0     H 7670   7.277   6.819   7.191  1.9538 -1.0853  2.1272
  816MOL0     H 7671   7.185   6.669   7.220 -1.1551 -0.1769 -0.9567
  816MOL0     H 7672   7.042   6.798   7.110  0.0405 -1.9728  0.3292
  816MOL0     H 7673   7.082   6.948   7.216 -1.7809 -0.1017  0.3152
  816MOL0     H 7674   6.870   6.986   7.117  0.3392  3.1400  1.3004
  816MOL0     H 7675   6.636   7.024   7.054  0.2128 -0.5785  0.6697
  816MOL0     H 7676   6.259   7.173   7.271  0.2891 -1.3092 -2.7683
  816MOL0     H 7677   6.058   7.274   7.294  0.2727  0.2684 -0.3090
  816MOL0     H 7678   5.829   7.314   7.321  1.4933 -1.4204 -0.2643
  816MOL0     H 7679   5.783   7.232   7.466 -2.4696  1.2836  0.9299
  816MOL0     H 7680   5.570   7.167   7.359  2.3217 -1.2472 -0.9076
  816MOL0     H 7681   5.621   7.294   7.234  0.3689 -2.6454 -1.4234
  816MOL0     H 7682   5.635   7.459   7.411  2.0126 -0.5020  0.9031
  816MOL0     H 7683   5.605   7.336   7.534 -2.6210  1.6897  0.6209
  816MOL0     H 7684   5.381   7.361   7.336 -1.6751  4.2695 -1.1779
  816MOL0     H 7685   5.388   7.351   7.521  2.2367  0.6717  1.3570
  816MOL0     H 7686   5.416   7.605   7.344 -0.6443 -0.0527 -1.2680
  816MOL0     H 7687   5.463   7.603   7.512 -1.9494  1.0316  0.7394
  816MOL0     H 7688   5.233   7.532   7.578  0.4742 -1.1648 -0.1204
  816MOL0     H 7689   5.186   7.545   7.406  0.1976 -0.4370 -0.7154
  816MOL0     H 7690   5.284   7.772   7.587  0.8104  1.4582 -0.3161
  816MOL0     H 7691   5.259   7.788   7.405  3.1424 -1.4587  0.1714
  816MOL0     H 7692   5.029   7.721   7.446 -0.5081 -0.5864  0.9223
  816MOL0     H 7693   5.075   7.881   7.510 -0.1183 -0.2987 -3.7841
  816MOL0     H 7694   5.883   6.866   7.296 -0.6468 -0.3048  0.0335
  816MOL0     H 7695   6.110   6.784   7.287 -0.1945 -0.1768 -0.3963
  816MOL0     H 7696   6.511   6.772   7.370 -1.4623  0.9866 -1.4206
  816MOL0     H 7697   6.738   6.735   7.443  2.0942 -1.1874 -0.3770
  816MOL0     H 7698   8.654   6.548   7.071  0.3831 -4.7575  0.8875
  816MOL0     H 7699   8.875   6.650   7.026 -1.4262  1.1782 -0.1906
  816MOL0     H 7700   9.169   6.787   6.978 -0.0229  1.2671 -0.6499
  816MOL0     H 7701   9.334   6.919   6.862 -0.6295 -1.5576 -0.6177
  816MOL0     H 7702   9.513   7.099   6.796  2.4285  3.6482  1.4241
  816MOL0     H 7703   9.557   6.936   6.754  1.7070 -0.1215  0.1376
  816MOL0     H 7704   9.726   7.127   6.706 -3.6393  0.1705 -0.0037
  816MOL0     H 7705   9.735   7.142   6.885 -2.9112  0.0250  1.1394
  816MOL0     H 7706   9.825   6.903   6.714  0.0869  1.5262 -1.5775
  816MOL0     H 7707   9.835   6.913   6.895  0.0952  1.1675  1.0729
  816MOL0     H 7708  10.054   6.954   6.780  2.2906  1.5070  1.9493
  816MOL0     H 7709   9.978   7.098   6.706 -0.3171  0.5384 -0.2968
  816MOL0     H 7710  10.064   7.222   7.109 -2.5007 -0.1831  0.5487
  816MOL0     H 7711   9.599   6.884   7.201 -1.6982 -1.1283  2.4588
  816MOL0     H 7712   9.443   6.765   7.314  0.3528  1.4384  0.2263
  817MOL0     O 7713   6.783   6.878   2.851 -0.4933 -0.1917 -0.2611
  817MOL0     C 7714   6.807   6.760   2.871  0.1827  0.4681  1.1108
  817MOL0     O 7715   6.721   6.669   2.937  0.3962 -0.8464  0.6446
  817MOL0     C 7716   6.619   6.724   3.003 -0.0940 -0.1260  0.2678
  817MOL0     C 7717   6.642   6.813   3.107  0.2821 -0.2444 -0.0208
  817MOL0     C 7718   6.532   6.878   3.171 -0.2630 -0.6672  0.8818
  817MOL0     C 7719   6.401   6.846   3.145  0.3649 -0.2560  0.6120
  817MOL0     O 7720   6.295   6.913   3.202  0.4498 -0.5430 -0.8742
  817MOL0     C 7721   6.265   6.863   3.329  0.4550  0.5854  0.5446
  817MOL0     C 7722   6.164   6.942   3.411 -0.4062  0.2096  0.3962
  817MOL0     C 7723   6.027   6.908   3.361 -0.9796  0.2350  0.4079
  817MOL0     C 7724   5.928   6.978   3.461  0.2739 -0.2124  0.1348
  817MOL0     C 7725   5.835   7.079   3.387 -0.3673 -0.9691  0.2333
  817MOL0     C 7726   5.739   7.136   3.496 -1.2336  0.3770 -0.1137
  817MOL0     C 7727   5.657   7.253   3.443  0.0458  0.3764  0.8185
  817MOL0     C 7728   5.591   7.343   3.554 -0.1062  0.0655 -0.4969
  817MOL0     N 7729   5.528   7.452   3.487  0.0587 -0.3855  0.0147
  817MOL0     C 7730   5.410   7.465   3.424 -1.0888 -0.5639  0.7028
  817MOL0     C 7731   5.404   7.599   3.393  0.1385  0.2624  1.0104
  817MOL0     C 7732   5.292   7.677   3.316  0.0367 -0.1665  0.4218
  817MOL0     C 7733   5.187   7.585   3.257  0.0312  0.3571 -0.2445
  817MOL0     C 7734   5.086   7.653   3.167 -0.1927 -0.3671  0.5312
  817MOL0     C 7735   4.969   7.566   3.119 -0.2514  0.1254 -0.1311
  817MOL0     O 7736   4.916   7.501   3.242 -0.2995 -0.6827  0.1510
  817MOL0     C 7737   4.802   7.434   3.221  0.1174  0.3462 -0.3322
  817MOL0     C 7738   4.769   7.379   3.103 -0.1825 -0.4415 -0.1242
  817MOL0     C 7739   4.664   7.291   3.088  0.2277 -0.6081 -0.8760
  817MOL0     C 7740   4.575   7.258   3.196 -0.6215  1.0702  0.5299
  817MOL0     C 7741   4.464   7.168   3.172  0.1683 -0.9929  0.0489
  817MOL0     O 7742   4.363   7.181   3.270 -0.5332  0.1896  0.1605
  817MOL0     C 7743   4.247   7.119   3.244  0.2981  0.5938 -0.6851
  817MOL0     C 7744   4.202   7.020   3.336  0.3181 -0.2554 -0.2156
  817MOL0     C 7745   4.077   6.968   3.325 -0.6949  0.4191  0.7269
  817MOL0     C 7746   3.985   7.008   3.217 -0.2655 -0.5631 -0.6032
  817MOL0     O 7747   3.860   6.959   3.204 -0.3642  0.3779  0.4591
  817MOL0     C 7748   3.816   6.853   3.288  0.6542  0.2425 -0.2655
  817MOL0     C 7749   3.746   6.905   3.417 -0.9282  0.6056 -0.2933
  817MOL0     C 7750   3.619   6.990   3.394  0.3190  0.2901  0.3718
  817MOL0     C 7751   3.503   6.919   3.322  0.1085 -0.5839 -0.2134
  817MOL0     C 7752   3.371   6.997   3.342 -0.4412  0.1590  0.0526
  817MOL0     C 7753   3.322   7.021   3.490  0.3455  0.3939 -0.2404
  817MOL0     C 7754   3.316   6.891   3.584  0.6764 -0.3213 -0.1094
  817MOL0     C 7755   3.225   6.779   3.530  0.3177 -0.3728  0.1509
  817MOL0    Cl 7756   3.202   6.657   3.655 -0.0341  0.3647 -0.3493
  817MOL0     C 7757   4.034   7.100   3.122 -0.4759 -0.2853 -0.6646
  817MOL0     C 7758   4.159   7.152   3.139 -0.6770 -0.5673 -0.5604
  817MOL0     O 7759   4.456   7.119   3.062 -0.5754 -0.1602  0.6821
  817MOL0     C 7760   4.615   7.304   3.321 -0.2983 -0.2782  0.2017
  817MOL0     C 7761   4.728   7.387   3.333 -0.5460  0.3095  0.3437
  817MOL0     N 7762   5.521   7.660   3.433  0.2239  0.3349  0.6836
  817MOL0     N 7763   5.599   7.569   3.475  0.5106  0.7292 -0.0914
  817MOL0     C 7764   6.378   6.758   3.032  0.2414 -0.0023 -1.0752
  817MOL0     C 7765   6.488   6.690   2.967  0.7105 -0.1150 -0.8849
  817MOL0     C 7766   6.934   6.705   2.828 -0.2128 -0.1512 -0.8642
  817MOL0     C 7767   7.046   6.795   2.805 -0.6813  0.3820  1.0719
  817MOL0     C 7768   7.174   6.736   2.775  0.4075  0.0545  0.0473
  817MOL0     C 7769   7.185   6.597   2.760 -0.8027  0.7447 -0.2622
  817MOL0     O 7770   7.296   6.529   2.715  0.3049 -0.6383 -0.8014
  817MOL0     C 7771   7.432   6.582   2.737 -0.4637 -0.9142 -0.4510
  817MOL0     C 7772   7.506   6.470   2.824  0.8723 -1.0412 -0.0582
  817MOL0     C 7773   7.651   6.517   2.871  0.2623  0.0353 -0.8068
  817MOL0     C 7774   7.761   6.520   2.762 -0.2546 -0.5896 -0.5385
  817MOL0     C 7775   7.898   6.538   2.818 -0.3104 -0.0907 -0.2947
  817MOL0     C 7776   8.003   6.563   2.872 -0.3388 -0.2561 -0.5135
  817MOL0     C 7777   7.068   6.516   2.771  0.3769 -0.4552  0.5950
  817MOL0     C 7778   6.942   6.572   2.807 -0.6321  0.9844  0.0985
  817MOL0     H 7779   6.742   6.852   3.126 -0.0978  1.7276 -1.7638
  817MOL0     H 7780   6.552   6.955   3.245 -2.3443  0.4733  0.3530
  817MOL0     H 7781   6.349   6.841   3.395  1.3186 -1.9837 -1.2384
  817MOL0     H 7782   6.241   6.759   3.305  1.0169  0.6306 -0.2621
  817MOL0     H 7783   6.178   7.050   3.406 -4.1726  0.7981 -0.3638
  817MOL0     H 7784   6.176   6.924   3.518 -0.1883  0.5746  0.4331
  817MOL0     H 7785   6.023   6.799   3.354  3.1503  0.0546 -2.6166
  817MOL0     H 7786   6.014   6.952   3.262  1.4889 -0.1343 -0.1515
  817MOL0     H 7787   5.871   6.894   3.503  2.1731 -1.0500  1.1306
  817MOL0     H 7788   5.988   7.034   3.533  0.5731  0.2337 -0.4586
  817MOL0     H 7789   5.778   7.034   3.306  2.4817  0.5844 -2.8683
  817MOL0     H 7790   5.891   7.159   3.339 -1.9853 -0.1108 -0.2993
  817MOL0     H 7791   5.793   7.188   3.576 -3.4421  0.3322  1.5012
  817MOL0     H 7792   5.675   7.057   3.536 -0.6928 -0.8751 -1.6270
  817MOL0     H 7793   5.716   7.320   3.382  1.5856 -0.0083  1.8349
  817MOL0     H 7794   5.586   7.198   3.380  2.7886 -0.7977 -1.4590
  817MOL0     H 7795   5.652   7.377   3.639 -0.8206 -1.9301  0.8961
  817MOL0     H 7796   5.514   7.285   3.605  0.3042  1.7271  2.2254
  817MOL0     H 7797   5.328   7.394   3.412 -2.1128  0.5441  0.9636
  817MOL0     H 7798   5.325   7.751   3.242  1.1385  1.7927  2.7430
  817MOL0     H 7799   5.243   7.749   3.382 -3.0804 -0.4002 -1.4405
  817MOL0     H 7800   5.131   7.531   3.334  0.1918  0.0094 -0.3680
  817MOL0     H 7801   5.239   7.506   3.202  0.6740  1.0220 -0.6158
  817MOL0     H 7802   5.042   7.745   3.207 -0.4334  0.7127 -2.0046
  817MOL0     H 7803   5.123   7.701   3.076 -1.9061 -1.1161 -0.6242
  817MOL0     H 7804   5.007   7.482   3.059 -0.5670 -0.6180  0.6973
  817MOL0     H 7805   4.895   7.625   3.064 -0.7438 -0.3566  0.0050
  817MOL0     H 7806   4.822   7.388   3.008 -0.2068 -2.1017 -0.3299
  817MOL0     H 7807   4.659   7.248   2.989  1.6455  1.6140 -2.0133
  817MOL0     H 7808   4.262   7.006   3.425  1.4846  0.0785 -0.9341
  817MOL0     H 7809   4.047   6.894   3.399  2.1129 -1.0362  0.5596
  817MOL0     H 7810   3.902   6.788   3.307 -0.5709 -0.9253  1.6285
  817MOL0     H 7811   3.755   6.788   3.226 -0.6741 -0.5831  1.8047
  817MOL0     H 7812   3.809   6.965   3.484 -0.5812  1.3228 -1.2357
  817MOL0     H 7813   3.723   6.819   3.481  1.8860  0.1645  0.2523
  817MOL0     H 7814   3.656   7.065   3.323  0.0941 -1.1100 -1.2642
  817MOL0     H 7815   3.586   7.036   3.488 -0.5089 -2.9977  1.8091
  817MOL0     H 7816   3.531   6.913   3.216  1.0119 -2.8388  0.1130
  817MOL0     H 7817   3.498   6.818   3.363 -1.5441  0.3230  2.0590
  817MOL0     H 7818   3.289   6.948   3.288  0.2517 -3.3623  1.8983
  817MOL0     H 7819   3.392   7.096   3.299  0.0742 -0.7295 -1.8696
  817MOL0     H 7820   3.223   7.066   3.494 -0.4676 -1.3762  2.5181
  817MOL0     H 7821   3.383   7.088   3.552 -0.4991 -0.9087  2.1390
  817MOL0     H 7822   3.409   6.846   3.619 -0.9608 -3.0377  1.1259
  817MOL0     H 7823   3.258   6.928   3.670  1.8101  0.1299  0.4920
  817MOL0     H 7824   3.274   6.744   3.439  0.2527 -0.2546  0.0705
  817MOL0     H 7825   3.123   6.801   3.495  0.8358 -1.4626 -2.2661
  817MOL0     H 7826   3.983   7.136   3.033  1.4351  1.0519 -1.2799
  817MOL0     H 7827   4.209   7.221   3.071  1.1276 -0.2839  0.9756
  817MOL0     H 7828   4.567   7.268   3.411 -3.3407  0.3037 -1.0580
  817MOL0     H 7829   4.761   7.431   3.426 -0.8804  1.4496 -0.0679
  817MOL0     H 7830   6.273   6.736   3.015  0.0366 -0.3027  0.4096
  817MOL0     H 7831   6.472   6.607   2.899 -2.0469 -0.4202  0.0453
  817MOL0     H 7832   7.047   6.903   2.815 -2.5714  0.4741  0.7653
  817MOL0     H 7833   7.254   6.807   2.757  0.1284  0.4449  0.3199
  817MOL0     H 7834   7.437   6.683   2.777 -1.4048 -0.8710 -0.4289
  817MOL0     H 7835   7.481   6.575   2.639 -0.9568 -3.1752 -0.5836
  817MOL0     H 7836   7.438   6.451   2.908 -0.8283 -0.7079 -1.2917
  817MOL0     H 7837   7.519   6.381   2.762  0.5682  0.9366 -3.2044
  817MOL0     H 7838   7.685   6.453   2.953 -2.8379  1.3442  1.7147
  817MOL0     H 7839   7.636   6.613   2.920 -2.2824 -0.9581  0.5238
  817MOL0     H 7840   7.774   6.424   2.711 -1.7461 -1.7503  1.1388
  817MOL0     H 7841   7.749   6.603   2.692 -3.0819 -0.6976 -0.2851
  817MOL0     H 7842   8.089   6.600   2.925  1.0971  0.2092 -2.9693
  817MOL0     H 7843   7.061   6.412   2.741 -0.3729 -0.3595  0.4188
  817MOL0     H 7844   6.858   6.504   2.814 -0.6983  0.8672 -1.4440
  818MOL0     O 7845   2.791   9.046   9.888  0.4574 -0.2854  0.3564
  818MOL0     C 7846   2.844   8.975   9.804 -0.4639 -0.6708 -0.6542
  818MOL0     O 7847   2.781   8.898   9.708  0.4971 -0.7838 -0.2317
  818MOL0     C 7848   2.647   8.925   9.673  0.5520  0.2769 -0.2702
  818MOL0     C 7849   2.592   8.831   9.585  0.0978 -0.5635 -0.1437
  818MOL0     C 7850   2.470   8.841   9.519 -1.0871  0.6617 -0.6181
  818MOL0     C 7851   2.385   8.950   9.540 -0.5456 -0.7940 -0.0497
  818MOL0     O 7852   2.256   8.962   9.495  0.3080 -0.0916  0.1800
  818MOL0     C 7853   2.197   8.858   9.409  0.2119  0.2316 -0.7287
  818MOL0     C 7854   2.086   8.913   9.315 -0.3707  0.1644 -0.5976
  818MOL0     C 7855   1.953   8.932   9.385  0.3646  0.4513 -0.1713
  818MOL0     C 7856   1.836   8.906   9.289  0.1091 -0.2254  0.3101
  818MOL0     C 7857   1.693   8.904   9.347  0.1940 -0.8004  0.4727
  818MOL0     C 7858   1.641   8.759   9.373  1.0111  0.7674 -0.3566
  818MOL0     C 7859   1.503   8.770   9.439  0.8256  0.9411 -0.1543
  818MOL0     C 7860   1.399   8.754   9.329 -0.0185 -0.0750  0.6323
  818MOL0     N 7861   1.269   8.740   9.386  0.5441 -0.1538  0.2994
  818MOL0     C 7862   1.228   8.663   9.494  0.6365 -0.4359  1.4377
  818MOL0     C 7863   1.089   8.657   9.479 -0.4146  0.5004  0.3102
  818MOL0     C 7864   0.993   8.568   9.558 -0.9178 -0.6307  0.4983
  818MOL0     C 7865   0.878   8.634   9.633 -0.1281  0.5725 -0.1190
  818MOL0     C 7866   0.835   8.534   9.744 -0.4550  0.6199 -0.2946
  818MOL0     C 7867   0.722   8.577   9.836  0.1903 -0.3095 -0.3459
  818MOL0     O 7868   0.587   8.582   9.783 -0.4175  0.3018 -0.1417
  818MOL0     C 7869   0.549   8.703   9.726  0.1917  0.2854  0.1739
  818MOL0     C 7870   0.599   8.834   9.740 -0.6524  0.4338  0.4681
  818MOL0     C 7871   0.563   8.933   9.658 -0.4420  0.3718 -0.4543
  818MOL0     C 7872   0.465   8.916   9.558 -0.0382  0.2249 -0.5243
  818MOL0     C 7873   0.429   9.037   9.472  0.9948 -0.4029 -0.5361
  818MOL0     O 7874   0.341   9.006   9.372  0.0514 -0.1034  0.2999
  818MOL0     C 7875   0.311   9.094   9.276  0.3995 -0.6329 -0.0542
  818MOL0     C 7876   0.179   9.084   9.229 -1.0457  0.4582 -0.4544
  818MOL0     C 7877   0.130   9.153   9.126 -0.2886 -1.0200  0.1098
  818MOL0     C 7878   0.215   9.232   9.046  0.5974 -0.4217  0.0530
  818MOL0     O 7879   0.155   9.286   8.931 -0.8153 -0.7703 -0.1536
  818MOL0     C 7880   0.248   9.363   8.842  0.7186 -0.1147 -0.5534
  818MOL0     C 7881   0.168   9.419   8.721  0.1943  0.4870  0.2490
  818MOL0     C 7882   0.233   9.532   8.642 -0.7031 -0.2663 -0.2021
  818MOL0     C 7883   0.245   9.481   8.491  0.6675 -0.2975 -0.7239
  818MOL0     C 7884   0.329   9.597   8.422  0.4633  0.4104 -0.2584
  818MOL0     C 7885   0.409   9.558   8.295  0.7936  0.2719  0.1929
  818MOL0     C 7886   0.319   9.482   8.205  1.0880  0.2928 -0.0102
  818MOL0     C 7887   0.382   9.463   8.065  0.0839  0.3465 -0.6381
  818MOL0    Cl 7888   0.555   9.407   8.079 -0.2138 -0.0342  0.0156
  818MOL0     C 7889   0.348   9.250   9.097 -0.2781 -0.1063 -0.0798
  818MOL0     C 7890   0.400   9.177   9.201 -0.8448  0.5080  0.7200
  818MOL0     O 7891   0.484   9.148   9.490 -0.1608  0.5987 -0.3119
  818MOL0     C 7892   0.410   8.786   9.544  0.5172  0.1646  0.6052
  818MOL0     C 7893   0.447   8.678   9.632  0.0701 -0.4987  1.0459
  818MOL0     N 7894   1.054   8.748   9.378  0.5799  0.4310  0.1213
  818MOL0     N 7895   1.160   8.795   9.328  0.3543 -0.1696  0.6659
  818MOL0     C 7896   2.441   9.053   9.617  0.0202 -0.0440 -0.3801
  818MOL0     C 7897   2.568   9.045   9.680 -0.6126 -0.3868 -0.4054
  818MOL0     C 7898   2.991   8.987   9.790  0.1187  0.1462  0.1141
  818MOL0     C 7899   3.060   8.906   9.701  0.0338  0.0239  0.3429
  818MOL0     C 7900   3.197   8.909   9.687  0.8220 -0.0099 -0.1875
  818MOL0     C 7901   3.274   9.000   9.757  0.0180  0.4017 -1.4919
  818MOL0     O 7902   3.405   9.008   9.760 -0.2941  0.3328 -0.5086
  818MOL0     C 7903   3.492   8.919   9.679  0.2611 -0.1398  0.2088
  818MOL0     C 7904   3.593   9.009   9.606 -0.4270  0.3130  0.1643
  818MOL0     C 7905   3.678   8.923   9.510  0.4663 -0.0618 -0.5585
  818MOL0     C 7906   3.664   8.944   9.363 -0.5242  0.0448 -0.0246
  818MOL0     C 7907   3.713   9.083   9.323 -0.5990  0.5769 -0.3398
  818MOL0     C 7908   3.730   9.193   9.293  0.4253 -0.6140  0.8023
  818MOL0     C 7909   3.214   9.089   9.849  0.4351 -1.2471  0.3507
  818MOL0     C 7910   3.073   9.071   9.871 -0.5504 -0.0593  0.4836
  818MOL0     H 7911   2.640   8.736   9.563  1.9074  0.6612 -1.7915
  818MOL0     H 7912   2.457   8.761   9.447  1.7329  1.8723 -2.6721
  818MOL0     H 7913   2.152   8.781   9.472 -0.3000  1.6047  0.6636
  818MOL0     H 7914   2.268   8.817   9.337  2.3093  2.7007 -0.2049
  818MOL0     H 7915   2.082   8.842   9.232 -3.3706 -1.4404  0.7361
  818MOL0     H 7916   2.108   9.014   9.281  0.1498  0.1344 -0.3565
  818MOL0     H 7917   1.949   9.035   9.422  0.7697 -0.1328  1.5728
  818MOL0     H 7918   1.932   8.855   9.460 -1.1992 -1.1489 -2.1367
  818MOL0     H 7919   1.840   8.987   9.215  3.1391 -0.6941 -0.1765
  818MOL0     H 7920   1.849   8.821   9.221 -3.2640 -0.6334  0.0012
  818MOL0     H 7921   1.620   8.933   9.270 -0.7315 -1.0178  1.2521
  818MOL0     H 7922   1.685   8.981   9.424 -0.5092 -2.2428  1.8996
  818MOL0     H 7923   1.717   8.716   9.439 -0.2996  1.5913  1.7856
  818MOL0     H 7924   1.627   8.691   9.289 -1.4491 -0.4509  0.9298
  818MOL0     H 7925   1.502   8.694   9.518  0.4088  0.4682 -0.6139
  818MOL0     H 7926   1.496   8.869   9.485 -1.2236  1.4107 -1.3896
  818MOL0     H 7927   1.427   8.657   9.287 -3.9513 -0.3046 -1.9895
  818MOL0     H 7928   1.403   8.835   9.255  0.8977 -0.2466  0.4773
  818MOL0     H 7929   1.281   8.604   9.567  0.8696  0.1695  1.7580
  818MOL0     H 7930   1.054   8.511   9.628  1.2331 -0.9284 -1.5007
  818MOL0     H 7931   0.937   8.509   9.484 -2.4963  5.0385 -3.5246
  818MOL0     H 7932   0.789   8.657   9.574 -2.1809  0.6260  2.8003
  818MOL0     H 7933   0.894   8.727   9.687 -1.9861  1.4184 -0.9243
  818MOL0     H 7934   0.813   8.436   9.700 -2.0738 -1.4193  4.4015
  818MOL0     H 7935   0.928   8.522   9.801 -1.0452 -2.9173  0.1633
  818MOL0     H 7936   0.751   8.671   9.884 -0.7437 -1.8638  3.6936
  818MOL0     H 7937   0.702   8.516   9.925 -1.7605  2.1867  1.0427
  818MOL0     H 7938   0.672   8.857   9.817  0.6525 -1.6989 -0.0527
  818MOL0     H 7939   0.607   9.028   9.685  1.2962 -0.4925 -0.1026
  818MOL0     H 7940   0.110   9.010   9.268  0.4841 -0.8584 -0.0954
  818MOL0     H 7941   0.023   9.150   9.109 -0.5853  3.7186 -0.0822
  818MOL0     H 7942   0.323   9.293   8.803 -2.0067 -3.4126 -0.3834
  818MOL0     H 7943   0.292   9.450   8.892 -0.3491  0.4901 -0.6399
  818MOL0     H 7944   0.067   9.448   8.750 -0.1394 -2.2268  2.1480
  818MOL0     H 7945   0.163   9.331   8.656  3.2757 -0.7956  1.5673
  818MOL0     H 7946   0.336   9.538   8.677  0.3124 -2.3628 -2.5532
  818MOL0     H 7947   0.172   9.623   8.650 -2.6097 -1.2098 -2.6252
  818MOL0     H 7948   0.304   9.389   8.496  2.6317  0.9047 -0.8334
  818MOL0     H 7949   0.147   9.466   8.446 -0.4560  0.0259  1.4838
  818MOL0     H 7950   0.413   9.630   8.484  0.9032 -1.0073 -0.0803
  818MOL0     H 7951   0.258   9.678   8.401 -0.4067 -0.5777 -1.2661
  818MOL0     H 7952   0.502   9.504   8.313 -0.6077 -2.5858 -0.6988
  818MOL0     H 7953   0.439   9.652   8.247 -0.8742  0.5141 -0.4537
  818MOL0     H 7954   0.291   9.389   8.256 -0.1774  1.0014  0.6310
  818MOL0     H 7955   0.223   9.534   8.201  1.8758  1.9022  0.8216
  818MOL0     H 7956   0.385   9.559   8.013 -0.0087  0.7819  0.1374
  818MOL0     H 7957   0.332   9.386   8.006  2.2592 -1.1806 -0.6430
  818MOL0     H 7958   0.421   9.306   9.039 -1.1814 -1.1562 -2.3351
  818MOL0     H 7959   0.505   9.192   9.223 -0.9069  2.5688 -0.1518
  818MOL0     H 7960   0.333   8.765   9.470  1.5566 -3.1029  0.2982
  818MOL0     H 7961   0.401   8.580   9.621 -0.3703 -0.1336 -0.6410
  818MOL0     H 7962   2.396   9.152   9.610  2.7587  1.2806 -0.7170
  818MOL0     H 7963   2.613   9.135   9.722  0.8897 -0.2329 -2.2360
  818MOL0     H 7964   3.006   8.830   9.646  1.3735 -1.3335  0.8023
  818MOL0     H 7965   3.247   8.846   9.615  0.4267 -0.6857  0.1231
  818MOL0     H 7966   3.442   8.866   9.597 -0.3668  0.1493  0.3979
  818MOL0     H 7967   3.547   8.845   9.739  2.2716 -0.0153 -1.3560
  818MOL0     H 7968   3.548   9.092   9.550 -0.5380 -1.1960 -2.1251
  818MOL0     H 7969   3.662   9.055   9.677 -0.9813 -1.1421  1.6955
  818MOL0     H 7970   3.671   8.815   9.529 -0.1350  0.1013  0.1617
  818MOL0     H 7971   3.778   8.958   9.537 -0.2179  2.7072 -1.2650
  818MOL0     H 7972   3.713   8.864   9.307 -0.4181 -1.0164  1.5530
  818MOL0     H 7973   3.561   8.931   9.330 -0.3547 -1.6325  0.0333
  818MOL0     H 7974   3.730   9.299   9.280 -1.9173 -0.6002  0.4887
  818MOL0     H 7975   3.269   9.158   9.912  0.2228  0.1967 -0.9741
  818MOL0     H 7976   3.025   9.139   9.941  2.2348  1.9800  0.5623
  819MOL0     O 7977   8.636   7.754   7.647 -0.5593  0.1554 -0.1943
  819MOL0     C 7978   8.723   7.806   7.577 -0.0510  0.0223  0.3161
  819MOL0     O 7979   8.711   7.847   7.451  0.1762 -0.6867  0.1121
  819MOL0     C 7980   8.585   7.847   7.402 -0.1378  0.0538 -0.5259
  819MOL0     C 7981   8.499   7.952   7.431  0.0642  0.6165  0.0393
  819MOL0     C 7982   8.372   7.957   7.367  0.1791 -0.5134  0.3106
  819MOL0     C 7983   8.331   7.861   7.273 -0.5630  0.1494  0.2471
  819MOL0     O 7984   8.210   7.883   7.216  0.6194  0.0785 -0.4756
  819MOL0     C 7985   8.146   7.764   7.185  0.1689 -0.7991  0.0546
  819MOL0     C 7986   8.027   7.802   7.100 -0.3959  0.9794 -0.0352
  819MOL0     C 7987   8.046   7.777   6.951 -0.3539  0.3065  0.5397
  819MOL0     C 7988   8.146   7.875   6.904  0.0049 -0.3413 -0.8109
  819MOL0     C 7989   8.220   7.826   6.773 -0.9999  0.0168  0.1370
  819MOL0     C 7990   8.338   7.920   6.739  0.2689 -0.2174  0.2333
  819MOL0     C 7991   8.421   7.871   6.617 -0.5245 -0.6693 -0.5443
  819MOL0     C 7992   8.530   7.770   6.660  0.2269  0.0566  0.0847
  819MOL0     N 7993   8.620   7.746   6.542 -0.4075 -0.1910  0.2673
  819MOL0     C 7994   8.734   7.823   6.513  0.4644 -0.1554 -0.0226
  819MOL0     C 7995   8.785   7.761   6.406 -1.6287  0.3050 -0.3599
  819MOL0     C 7996   8.909   7.789   6.328  0.1582  0.7929  0.2306
  819MOL0     C 7997   9.041   7.741   6.394  0.2766  0.2185  0.3900
  819MOL0     C 7998   9.070   7.812   6.522 -0.0672  0.4379  0.4891
  819MOL0     C 7999   9.191   7.747   6.605 -0.0687 -0.3959 -0.3292
  819MOL0     O 8000   9.170   7.613   6.659  0.5017  0.1430  0.0602
  819MOL0     C 8001   9.048   7.590   6.722  0.6709 -0.0957  0.6529
  819MOL0     C 8002   9.015   7.630   6.852 -0.4640 -0.3178 -0.7463
  819MOL0     C 8003   8.901   7.607   6.920  0.2357 -0.3143  0.5350
  819MOL0     C 8004   8.795   7.540   6.859 -0.5564  0.8092 -0.9924
  819MOL0     C 8005   8.659   7.527   6.921 -0.1366  0.0525  0.3855
  819MOL0     O 8006   8.587   7.409   6.900  0.4589 -0.4465  0.4731
  819MOL0     C 8007   8.467   7.409   6.959  0.4887 -0.2768  0.1880
  819MOL0     C 8008   8.352   7.451   6.896 -0.0716 -0.0421 -0.4620
  819MOL0     C 8009   8.221   7.447   6.949 -0.0605 -0.1871 -0.5236
  819MOL0     C 8010   8.211   7.409   7.083  0.4899 -0.7749  1.0037
  819MOL0     O 8011   8.086   7.404   7.136 -0.3218 -0.0307  0.0409
  819MOL0     C 8012   8.045   7.281   7.194 -0.4479 -0.1848 -0.1098
  819MOL0     C 8013   7.899   7.249   7.189 -0.1982 -0.3261  0.6121
  819MOL0     C 8014   7.807   7.364   7.234  0.2330 -1.6101 -0.0686
  819MOL0     C 8015   7.818   7.398   7.385 -0.3697  0.8410 -0.1052
  819MOL0     C 8016   7.722   7.511   7.435  0.1776  0.2811  0.0087
  819MOL0     C 8017   7.793   7.651   7.410  0.9833  0.8982  0.0207
  819MOL0     C 8018   7.707   7.776   7.435 -0.0783 -0.5619 -0.5960
  819MOL0     C 8019   7.795   7.901   7.407  0.0218 -0.7519 -0.3173
  819MOL0    Cl 8020   7.924   7.914   7.532  0.3320 -0.4530  0.1746
  819MOL0     C 8021   8.326   7.374   7.154 -0.1569  0.0136  0.1400
  819MOL0     C 8022   8.453   7.365   7.097  0.0498  0.1579  0.2256
  819MOL0     O 8023   8.618   7.629   6.989 -0.2438  1.1204  0.4044
  819MOL0     C 8024   8.818   7.490   6.728 -0.2018 -0.6613 -0.2925
  819MOL0     C 8025   8.940   7.510   6.665  0.6176 -0.2118 -0.4276
  819MOL0     N 8026   8.708   7.651   6.387  0.2791 -0.1305 -0.0730
  819MOL0     N 8027   8.613   7.633   6.462 -0.4655 -0.0616  0.4598
  819MOL0     C 8028   8.420   7.752   7.250 -0.5153 -0.0872 -0.8940
  819MOL0     C 8029   8.545   7.755   7.313  0.4308  0.2612 -0.2152
  819MOL0     C 8030   8.855   7.816   7.634 -0.3927 -0.1845 -0.5585
  819MOL0     C 8031   8.878   7.781   7.769 -0.3351 -0.9807 -0.5356
  819MOL0     C 8032   9.010   7.782   7.822 -0.3305  0.5889 -0.4203
  819MOL0     C 8033   9.116   7.820   7.745  0.2107 -0.0607 -0.2367
  819MOL0     O 8034   9.235   7.809   7.803 -0.2346  0.0284 -0.4670
  819MOL0     C 8035   9.351   7.805   7.725 -0.2451 -1.3923 -0.1227
  819MOL0     C 8036   9.445   7.697   7.791 -0.6647 -0.0563 -0.2011
  819MOL0     C 8037   9.384   7.558   7.791  0.1344  0.0959 -0.3328
  819MOL0     C 8038   9.491   7.448   7.829  0.1036  0.5524 -0.4510
  819MOL0     C 8039   9.452   7.357   7.935 -0.5973 -0.7778  0.9777
  819MOL0     C 8040   9.427   7.267   8.013 -0.2599 -0.5337 -0.2610
  819MOL0     C 8041   9.091   7.859   7.612 -0.3057 -0.1014 -0.2995
  819MOL0     C 8042   8.960   7.849   7.558 -1.4119 -1.0638 -0.2651
  819MOL0     H 8043   8.540   8.034   7.489  5.3536 -1.6269  0.0772
  819MOL0     H 8044   8.314   8.046   7.389  0.4733 -0.1667 -0.2977
  819MOL0     H 8045   8.104   7.729   7.280  1.1021 -1.3250  0.2850
  819MOL0     H 8046   8.209   7.685   7.143 -0.8375 -0.4531 -2.2402
  819MOL0     H 8047   7.996   7.903   7.131 -1.5701  0.4878  0.4472
  819MOL0     H 8048   7.943   7.739   7.132  0.9236 -0.1719  1.2756
  819MOL0     H 8049   7.948   7.793   6.904 -0.1297  0.2232  0.0390
  819MOL0     H 8050   8.081   7.677   6.923 -0.2028  0.7291 -0.8307
  819MOL0     H 8051   8.090   7.968   6.893  2.4196  1.7493  2.5724
  819MOL0     H 8052   8.221   7.897   6.980  0.0283  0.5287 -1.0781
  819MOL0     H 8053   8.144   7.825   6.695 -0.1323  1.7676 -0.7867
  819MOL0     H 8054   8.262   7.725   6.783  0.0912  0.6067  2.0802
  819MOL0     H 8055   8.404   7.932   6.826 -2.4623 -2.1926  2.7925
  819MOL0     H 8056   8.294   8.014   6.705 -2.1436 -1.6418 -0.8208
  819MOL0     H 8057   8.358   7.821   6.543  1.1739 -1.0929 -1.7692
  819MOL0     H 8058   8.461   7.958   6.564 -4.8436  1.5774 -0.5807
  819MOL0     H 8059   8.477   7.681   6.695  2.9665 -1.4039  0.8296
  819MOL0     H 8060   8.583   7.810   6.747 -1.4843 -1.5704  1.9880
  819MOL0     H 8061   8.779   7.916   6.548  2.0582 -1.2343  0.9381
  819MOL0     H 8062   8.916   7.895   6.300 -2.0118  2.0171  3.7319
  819MOL0     H 8063   8.899   7.742   6.230 -0.9060  0.8143  0.3225
  819MOL0     H 8064   9.134   7.753   6.339 -0.3351  0.5907 -0.5900
  819MOL0     H 8065   9.028   7.639   6.431  0.9338  0.2473  0.6995
  819MOL0     H 8066   9.081   7.916   6.493 -0.4650  0.2547 -0.3527
  819MOL0     H 8067   8.987   7.813   6.595  1.4278 -2.7090  2.4884
  819MOL0     H 8068   9.216   7.816   6.686 -1.9536 -1.8059  1.5464
  819MOL0     H 8069   9.278   7.748   6.537  0.1444  2.5307 -0.1435
  819MOL0     H 8070   9.091   7.683   6.908 -0.0679 -0.5877 -1.0227
  819MOL0     H 8071   8.886   7.653   7.017  2.4276  2.1293 -0.1937
  819MOL0     H 8072   8.368   7.478   6.792 -1.4278  1.5576 -0.2912
  819MOL0     H 8073   8.137   7.465   6.882  0.0777 -0.3957 -0.7555
  819MOL0     H 8074   8.092   7.272   7.293  3.0368 -3.6148 -1.8385
  819MOL0     H 8075   8.093   7.196   7.145  0.9545  2.0561 -2.8511
  819MOL0     H 8076   7.879   7.161   7.251 -0.0282 -2.4386 -2.1272
  819MOL0     H 8077   7.878   7.221   7.085  2.2351 -1.1493  0.2696
  819MOL0     H 8078   7.704   7.330   7.219  0.5120 -2.9963  1.0030
  819MOL0     H 8079   7.832   7.457   7.182  0.3679 -0.0639  2.5299
  819MOL0     H 8080   7.794   7.307   7.441  1.9172  1.2020  1.6057
  819MOL0     H 8081   7.922   7.418   7.413 -0.8298  0.6216  1.9132
  819MOL0     H 8082   7.690   7.486   7.536  0.3231 -2.3928 -0.5142
  819MOL0     H 8083   7.631   7.511   7.374  0.9289 -0.0772 -1.1505
  819MOL0     H 8084   7.823   7.642   7.305 -2.6559 -3.2398 -1.0063
  819MOL0     H 8085   7.881   7.657   7.475  1.8648 -0.1839 -1.0437
  819MOL0     H 8086   7.615   7.780   7.375 -0.5534  0.3918  0.1660
  819MOL0     H 8087   7.677   7.781   7.540 -0.4407 -0.8430 -0.6861
  819MOL0     H 8088   7.728   7.987   7.413 -1.1725 -1.7385  1.6261
  819MOL0     H 8089   7.848   7.891   7.312  2.6179 -0.1097  0.9888
  819MOL0     H 8090   8.326   7.353   7.260  0.8736 -0.8479 -0.0141
  819MOL0     H 8091   8.547   7.337   7.142  1.0164 -0.2649 -1.9224
  819MOL0     H 8092   8.745   7.430   6.675 -0.6650  0.4721 -0.9735
  819MOL0     H 8093   8.959   7.462   6.569 -1.1843 -0.4736 -0.6878
  819MOL0     H 8094   8.407   7.670   7.180  3.0112 -1.7788  0.2106
  819MOL0     H 8095   8.609   7.673   7.281 -0.2022 -0.1358 -0.4842
  819MOL0     H 8096   8.801   7.745   7.838 -1.8535  0.6199 -1.3171
  819MOL0     H 8097   9.030   7.755   7.925  1.8015  1.6288 -0.5167
  819MOL0     H 8098   9.405   7.900   7.737 -0.9957 -0.8158 -1.1354
  819MOL0     H 8099   9.340   7.775   7.621  0.9321 -1.7570 -0.1490
  819MOL0     H 8100   9.534   7.686   7.728 -0.0620 -2.1561  0.9167
  819MOL0     H 8101   9.476   7.725   7.892 -1.6618  1.3740 -0.2562
  819MOL0     H 8102   9.339   7.536   7.693  0.8856 -0.2659 -0.5981
  819MOL0     H 8103   9.306   7.562   7.867 -0.3745  0.5504 -0.8645
  819MOL0     H 8104   9.517   7.386   7.743 -0.5673  0.0452 -0.2922
  819MOL0     H 8105   9.590   7.483   7.859  0.9335 -2.4484  0.6527
  819MOL0     H 8106   9.410   7.191   8.087  2.2748 -0.3025  0.6511
  819MOL0     H 8107   9.174   7.880   7.546 -0.1717 -2.0390 -0.8065
  819MOL0     H 8108   8.952   7.885   7.455  0.3344  0.3087  0.0436
  820MOL0     O 8109   3.813   7.749   8.244 -0.1796  0.6882  0.0886
  820MOL0     C 8110   3.890   7.809   8.310 -0.3982 -0.1665 -0.6278
  820MOL0     O 8111   3.870   7.856   8.440  0.2351 -0.1696  0.6312
  820MOL0     C 8112   3.743   7.865   8.483  1.4143 -0.0103  0.0705
  820MOL0     C 8113   3.642   7.936   8.408 -0.7152  0.0064  0.7514
  820MOL0     C 8114   3.518   7.970   8.463 -0.5229 -0.3843  0.4725
  820MOL0     C 8115   3.475   7.916   8.584  0.2990 -0.2750  0.2059
  820MOL0     O 8116   3.355   7.942   8.628  0.0625 -0.4932  0.0904
  820MOL0     C 8117   3.255   7.863   8.558  0.3579  0.3605  0.2507
  820MOL0     C 8118   3.124   7.922   8.612  0.2693 -0.2620 -0.7331
  820MOL0     C 8119   3.098   8.074   8.591  0.1040  0.5685  1.1828
  820MOL0     C 8120   2.956   8.121   8.622 -0.3706 -0.1933  0.2408
  820MOL0     C 8121   2.920   8.097   8.772 -0.7273  1.6068  0.0168
  820MOL0     C 8122   2.770   8.146   8.790  0.2344 -0.5503 -0.5863
  820MOL0     C 8123   2.760   8.294   8.760  0.5270  0.4340  0.2564
  820MOL0     C 8124   2.858   8.394   8.826  0.4864  1.2207  0.0280
  820MOL0     N 8125   2.831   8.539   8.820 -0.0386 -0.0578 -0.0134
  820MOL0     C 8126   2.911   8.630   8.762  0.6805  0.0024  0.2583
  820MOL0     C 8127   2.861   8.756   8.791 -0.0910  0.3034  0.2139
  820MOL0     C 8128   2.907   8.886   8.725 -0.5307  0.7234 -0.5055
  820MOL0     C 8129   2.915   8.998   8.833  0.6698 -1.1377 -0.0703
  820MOL0     C 8130   2.995   8.949   8.958  0.4324  0.3060  0.3505
  820MOL0     C 8131   2.989   9.041   9.070 -0.9210  1.0153  0.1278
  820MOL0     O 8132   2.859   9.062   9.129  0.6148 -0.2455  0.3913
  820MOL0     C 8133   2.849   9.139   9.239  0.5701  1.1508 -0.3317
  820MOL0     C 8134   2.740   9.230   9.240 -0.9070 -0.2321 -0.5274
  820MOL0     C 8135   2.708   9.299   9.353  0.1912 -0.7216  0.3749
  820MOL0     C 8136   2.782   9.280   9.471 -0.7818  0.4139  0.2045
  820MOL0     C 8137   2.749   9.349   9.592 -0.3240 -0.2714  0.0105
  820MOL0     O 8138   2.627   9.411   9.596 -0.5847  0.7046  0.1762
  820MOL0     C 8139   2.599   9.489   9.705  0.6763  0.5810  0.5643
  820MOL0     C 8140   2.606   9.447   9.842  0.1475 -0.3101  0.3251
  820MOL0     C 8141   2.567   9.526   9.951 -0.4445 -0.7222  0.3163
  820MOL0     C 8142   2.522   9.658   9.922 -0.1722  0.2923  0.7915
  820MOL0     O 8143   2.481   9.744  10.022  0.1056  0.4423 -0.2244
  820MOL0     C 8144   2.342   9.732  10.056  0.0832  0.5782  0.3248
  820MOL0     C 8145   2.311   9.718  10.208  0.3915 -0.0474  0.2225
  820MOL0     C 8146   2.165   9.708  10.244  0.3866 -0.6477  0.2619
  820MOL0     C 8147   2.147   9.678  10.398  0.0244 -0.6879  0.7916
  820MOL0     C 8148   2.007   9.652  10.435  0.1144  0.4224  0.3467
  820MOL0     C 8149   1.935   9.777  10.469  0.7480  0.0855 -0.1336
  820MOL0     C 8150   1.799   9.756  10.534 -0.8086  0.7662 -1.0617
  820MOL0     C 8151   1.750   9.891  10.592  0.1711  0.5872 -0.1442
  820MOL0    Cl 8152   1.840   9.923  10.741 -0.2389  0.1171  0.2476
  820MOL0     C 8153   2.496   9.700   9.789 -0.0376 -0.3643  0.3021
  820MOL0     C 8154   2.529   9.613   9.684 -0.5712 -0.2836  0.2942
  820MOL0     O 8155   2.843   9.357   9.672 -0.1216  1.4086  0.5539
  820MOL0     C 8156   2.882   9.171   9.478  1.1179 -0.2741  0.0004
  820MOL0     C 8157   2.916   9.101   9.357 -0.6356  0.4703 -0.1661
  820MOL0     N 8158   2.742   8.735   8.852  0.0469  0.3945 -0.1952
  820MOL0     N 8159   2.716   8.604   8.873  0.0817  0.5308  0.0491
  820MOL0     C 8160   3.561   7.846   8.662 -0.0639 -0.3143  0.1238
  820MOL0     C 8161   3.698   7.819   8.613  0.2382 -1.0384  0.0810
  820MOL0     C 8162   4.026   7.824   8.259  0.3600 -0.1577 -0.8706
  820MOL0     C 8163   4.134   7.877   8.342 -0.0175  0.7736  0.3077
  820MOL0     C 8164   4.259   7.900   8.291 -0.4760 -0.4874 -0.0952
  820MOL0     C 8165   4.286   7.874   8.152  0.0035  0.0547 -0.0519
  820MOL0     O 8166   4.417   7.887   8.100 -0.3846 -0.0530  0.2846
  820MOL0     C 8167   4.514   7.804   8.165 -0.5234 -0.2724 -0.1695
  820MOL0     C 8168   4.628   7.761   8.070  0.1680  0.3264 -0.2940
  820MOL0     C 8169   4.732   7.688   8.142  1.7266 -0.3269 -0.7360
  820MOL0     C 8170   4.851   7.656   8.042 -0.0905 -0.5784 -0.4430
  820MOL0     C 8171   4.930   7.785   8.035 -0.9009 -0.9130  0.9531
  820MOL0     C 8172   5.000   7.882   8.009 -1.5700 -0.5871 -0.9976
  820MOL0     C 8173   4.176   7.831   8.078  0.0078 -0.4386 -0.5119
  820MOL0     C 8174   4.058   7.808   8.125 -0.4594 -0.4575  0.0768
  820MOL0     H 8175   3.671   7.978   8.312 -3.3115 -0.8748 -0.5409
  820MOL0     H 8176   3.451   8.029   8.401 -0.6316 -1.5445 -0.5466
  820MOL0     H 8177   3.265   7.756   8.577 -0.1471  0.3215  0.2954
  820MOL0     H 8178   3.251   7.886   8.451  0.0313  0.9367  0.3818
  820MOL0     H 8179   3.107   7.895   8.717 -2.2450  3.5629  0.0385
  820MOL0     H 8180   3.038   7.870   8.569  0.1247  0.1592 -0.9635
  820MOL0     H 8181   3.127   8.099   8.489 -0.9955  1.4937  1.0647
  820MOL0     H 8182   3.160   8.121   8.668 -1.4310 -0.9166  3.4533
  820MOL0     H 8183   2.953   8.227   8.595  1.3381  0.2295  1.5077
  820MOL0     H 8184   2.895   8.065   8.552  0.9064 -1.7562  0.3179
  820MOL0     H 8185   2.991   8.150   8.837 -0.8834  2.8500 -0.7727
  820MOL0     H 8186   2.925   7.990   8.794 -0.2769  1.6432  0.1141
  820MOL0     H 8187   2.738   8.130   8.893 -1.2433 -1.4856 -1.1545
  820MOL0     H 8188   2.710   8.076   8.730 -1.9749  0.1620  0.6746
  820MOL0     H 8189   2.764   8.308   8.651 -0.9603 -0.0558  0.1109
  820MOL0     H 8190   2.656   8.309   8.790  0.6770  1.1229  0.4303
  820MOL0     H 8191   2.960   8.373   8.790 -0.5351 -2.3108 -1.2021
  820MOL0     H 8192   2.858   8.370   8.933 -2.4175  3.3459  0.6236
  820MOL0     H 8193   3.001   8.610   8.705 -1.3389 -1.3298 -2.7083
  820MOL0     H 8194   2.836   8.917   8.649 -0.8906  2.5569  0.5206
  820MOL0     H 8195   3.010   8.866   8.694  0.2187 -1.5840  2.8467
  820MOL0     H 8196   2.815   9.022   8.869  1.7101  1.3164  1.3890
  820MOL0     H 8197   2.964   9.089   8.798 -1.3189  0.1051  0.2214
  820MOL0     H 8198   2.951   8.854   8.992 -3.1689  1.9685  0.7409
  820MOL0     H 8199   3.100   8.939   8.929 -0.0796 -2.1569 -0.9578
  820MOL0     H 8200   3.034   9.132   9.028  0.9816 -0.8666 -2.2977
  820MOL0     H 8201   3.058   9.014   9.150 -1.5355  1.0301  0.6672
  820MOL0     H 8202   2.685   9.244   9.147 -0.2036 -1.8933 -1.2309
  820MOL0     H 8203   2.629   9.372   9.346  0.0739 -0.8051  0.8308
  820MOL0     H 8204   2.650   9.355   9.879  0.6176  0.5800  2.1037
  820MOL0     H 8205   2.583   9.505  10.056 -0.0602 -1.9304  0.0322
  820MOL0     H 8206   2.304   9.640  10.012 -1.1313  1.6937 -1.0695
  820MOL0     H 8207   2.295   9.823  10.018 -0.6229  0.1368  0.1284
  820MOL0     H 8208   2.355   9.796  10.270  0.1595 -1.3975  2.1553
  820MOL0     H 8209   2.346   9.621  10.246  1.9383  0.7843  1.0401
  820MOL0     H 8210   2.123   9.618  10.199  0.8438  0.0973 -1.7513
  820MOL0     H 8211   2.113   9.803  10.231 -0.0989 -0.0641  4.6854
  820MOL0     H 8212   2.204   9.591  10.430 -2.0602 -2.3610  0.1676
  820MOL0     H 8213   2.192   9.760  10.455  2.7767 -1.7368  0.2693
  820MOL0     H 8214   2.002   9.590  10.525  0.2340  2.0016  1.4821
  820MOL0     H 8215   1.950   9.593  10.363  1.0683  0.0500 -0.1240
  820MOL0     H 8216   1.915   9.824  10.373 -2.0460  1.6326  1.0722
  820MOL0     H 8217   1.997   9.847  10.525  1.5869  0.5823 -1.6278
  820MOL0     H 8218   1.729   9.711  10.463 -3.9265  2.8155  0.4668
  820MOL0     H 8219   1.811   9.685  10.616  1.6926  1.5687 -0.6521
  820MOL0     H 8220   1.644   9.876  10.616  0.4860 -1.2456  0.2778
  820MOL0     H 8221   1.770   9.972  10.521 -1.8934  1.2365 -0.0323
  820MOL0     H 8222   2.443   9.792   9.764  2.6050  1.1805 -0.0786
  820MOL0     H 8223   2.522   9.649   9.582  0.6048 -0.2237  0.2187
  820MOL0     H 8224   2.934   9.134   9.566 -2.2610 -1.3490  1.7142
  820MOL0     H 8225   2.981   9.014   9.363 -0.0081  0.8829 -0.7849
  820MOL0     H 8226   3.526   7.819   8.761 -2.4952  0.7087 -0.3895
  820MOL0     H 8227   3.772   7.785   8.684  0.2952 -1.5502 -0.2260
  820MOL0     H 8228   4.118   7.906   8.445  0.7672 -1.3015  1.0616
  820MOL0     H 8229   4.332   7.945   8.357  0.6095  1.1217 -2.2897
  820MOL0     H 8230   4.472   7.716   8.216  0.5397 -1.3399 -1.0875
  820MOL0     H 8231   4.563   7.866   8.242 -0.7462  0.8253 -0.8911
  820MOL0     H 8232   4.586   7.696   7.992  1.1317  0.5812 -1.0383
  820MOL0     H 8233   4.664   7.857   8.033  0.9721 -0.4987 -1.7212
  820MOL0     H 8234   4.691   7.593   8.180 -0.7941  0.8572 -0.2635
  820MOL0     H 8235   4.763   7.750   8.227 -0.4313  1.2099 -0.9902
  820MOL0     H 8236   4.913   7.575   8.082  0.0798 -0.0802  0.3236
  820MOL0     H 8237   4.822   7.617   7.944  0.1057  2.0939 -1.6295
  820MOL0     H 8238   5.058   7.972   8.001 -0.5166 -1.1960 -0.4450
  820MOL0     H 8239   4.188   7.800   7.974 -0.4827 -1.2687 -0.3232
  820MOL0     H 8240   3.975   7.787   8.057 -2.4218  1.3548  1.7756
  821MOL0     O 8241   7.637   9.114   3.836 -0.4772 -0.0070 -0.3893
  821MOL0     C 8242   7.679   9.225   3.802  0.3882 -0.6026  0.0659
  821MOL0     O 8243   7.628   9.344   3.841 -0.0118 -0.1875 -1.1968
  821MOL0     C 8244   7.518   9.343   3.912 -1.3366  0.0765  0.3563
  821MOL0     C 8245   7.396   9.356   3.855 -0.0841  0.8450  0.3564
  821MOL0     C 8246   7.274   9.352   3.931  0.3004  0.7011  0.0552
  821MOL0     C 8247   7.277   9.324   4.066 -0.3903 -0.0317  0.1892
  821MOL0     O 8248   7.170   9.315   4.150  0.1041  0.0874  0.6194
  821MOL0     C 8249   7.068   9.217   4.127  0.0903  0.2169 -0.3284
  821MOL0     C 8250   7.045   9.134   4.251 -0.2073 -0.0165 -0.5667
  821MOL0     C 8251   7.007   9.221   4.371  0.2611 -0.3071 -0.3213
  821MOL0     C 8252   7.010   9.149   4.502 -0.1729  0.0520  0.4398
  821MOL0     C 8253   7.145   9.071   4.529  0.2136 -0.1810 -0.4091
  821MOL0     C 8254   7.150   9.011   4.669  0.6209  0.3310  0.2560
  821MOL0     C 8255   7.197   9.108   4.783 -0.1828 -0.1143 -0.6731
  821MOL0     C 8256   7.159   9.081   4.924  0.2060 -0.2726  0.6707
  821MOL0     N 8257   7.018   9.097   4.953  0.4014 -1.1924 -0.2739
  821MOL0     C 8258   6.950   9.015   5.027  0.0113 -0.3338  0.7414
  821MOL0     C 8259   6.827   9.073   5.033 -0.1354 -0.8017 -0.3428
  821MOL0     C 8260   6.713   9.026   5.109  0.0319 -0.2508 -0.1590
  821MOL0     C 8261   6.575   9.077   5.057 -0.1259  0.3235 -0.3587
  821MOL0     C 8262   6.536   9.022   4.920 -0.4425 -0.2113 -0.3069
  821MOL0     C 8263   6.402   9.074   4.869  0.2376 -0.0409  0.0853
  821MOL0     O 8264   6.298   9.047   4.964  0.1351 -0.1936 -0.4541
  821MOL0     C 8265   6.175   9.091   4.929 -0.2512  1.2539  0.5883
  821MOL0     C 8266   6.094   8.995   4.856  0.7803  0.1825 -1.1565
  821MOL0     C 8267   5.965   9.033   4.821  0.0783 -0.1657 -0.0862
  821MOL0     C 8268   5.907   9.153   4.862 -0.2765 -0.2680  0.6925
  821MOL0     C 8269   5.767   9.191   4.822 -0.2846  0.0178  0.0470
  821MOL0     O 8270   5.695   9.084   4.786  0.0092  0.6533 -0.7118
  821MOL0     C 8271   5.563   9.100   4.748  0.3684  0.3249  0.6901
  821MOL0     C 8272   5.481   8.983   4.755 -0.2762  1.1744  0.2899
  821MOL0     C 8273   5.352   8.982   4.699  0.7371  1.1767  0.7096
  821MOL0     C 8274   5.294   9.098   4.647  0.2319  0.0727  0.6933
  821MOL0     O 8275   5.164   9.094   4.585 -0.4336  0.0407  0.4447
  821MOL0     C 8276   5.123   9.206   4.505  0.5101 -0.2850  0.4467
  821MOL0     C 8277   4.968   9.197   4.489  0.3098  0.5652 -0.6537
  821MOL0     C 8278   4.897   9.277   4.371  0.5563  0.8470 -0.1520
  821MOL0     C 8279   4.742   9.240   4.377 -0.0497 -0.0830 -0.3760
  821MOL0     C 8280   4.655   9.348   4.304 -0.5665  0.0143 -0.0006
  821MOL0     C 8281   4.509   9.298   4.279  0.2001 -0.0458  0.2275
  821MOL0     C 8282   4.421   9.415   4.223 -0.4055 -0.4608 -0.2237
  821MOL0     C 8283   4.289   9.361   4.166 -0.2927 -0.5380  0.7061
  821MOL0    Cl 8284   4.228   9.186   4.226 -0.0172 -0.1739 -0.1781
  821MOL0     C 8285   5.385   9.204   4.631 -0.5208  0.5356 -0.4969
  821MOL0     C 8286   5.512   9.205   4.674  0.0044 -0.9380 -0.5208
  821MOL0     O 8287   5.730   9.312   4.836 -0.8054  0.4271  0.0515
  821MOL0     C 8288   5.983   9.247   4.934 -0.2609  0.1711  0.0525
  821MOL0     C 8289   6.122   9.216   4.960  0.1669 -0.1316  0.2349
  821MOL0     N 8290   6.826   9.179   4.948  0.1480 -0.0417  0.0880
  821MOL0     N 8291   6.934   9.189   4.897 -0.1684  0.8594  0.6098
  821MOL0     C 8292   7.405   9.306   4.124  0.1047 -0.2972 -0.6440
  821MOL0     C 8293   7.520   9.319   4.048 -0.6462  0.0525 -0.8486
  821MOL0     C 8294   7.803   9.224   3.727  0.3485  0.6339  0.0008
  821MOL0     C 8295   7.870   9.106   3.701  0.6387  0.5072  0.2764
  821MOL0     C 8296   7.987   9.112   3.627  0.4796  0.6042 -0.2952
  821MOL0     C 8297   8.042   9.230   3.573  0.0490  0.0776  0.2746
  821MOL0     O 8298   8.167   9.231   3.519 -0.0416  0.2525  0.8253
  821MOL0     C 8299   8.252   9.347   3.535 -0.2651  0.0884 -0.1163
  821MOL0     C 8300   8.388   9.297   3.579  0.0675 -0.3916 -0.9015
  821MOL0     C 8301   8.480   9.273   3.461 -0.4021  0.0766 -0.2921
  821MOL0     C 8302   8.461   9.128   3.409  0.4812 -0.4096  0.7750
  821MOL0     C 8303   8.554   9.110   3.295  0.1250  0.0783  1.2282
  821MOL0     C 8304   8.644   9.095   3.218 -0.3990  0.9035 -0.0194
  821MOL0     C 8305   7.969   9.342   3.593 -0.0485 -0.3223  0.3130
  821MOL0     C 8306   7.849   9.345   3.673  0.9615 -0.4173  1.4052
  821MOL0     H 8307   7.382   9.367   3.748 -0.0558 -2.2676 -0.0565
  821MOL0     H 8308   7.183   9.384   3.882 -0.0047 -0.6731 -0.3012
  821MOL0     H 8309   7.099   9.157   4.042 -0.8291 -1.6366  0.5860
  821MOL0     H 8310   6.979   9.274   4.100 -0.9265 -2.0390 -2.0348
  821MOL0     H 8311   7.136   9.080   4.276 -1.0964 -0.1503  3.0204
  821MOL0     H 8312   6.966   9.064   4.222 -0.8897  0.4611  0.0567
  821MOL0     H 8313   6.901   9.251   4.366  0.0757 -0.7754  0.5494
  821MOL0     H 8314   7.065   9.313   4.369 -1.3859  0.7808 -0.8842
  821MOL0     H 8315   6.987   9.219   4.583 -0.5738 -1.0294  1.2968
  821MOL0     H 8316   6.937   9.068   4.509  0.7591 -0.7051  2.4466
  821MOL0     H 8317   7.226   9.143   4.516 -0.2182  0.7633  1.6833
  821MOL0     H 8318   7.145   8.996   4.449 -0.7001 -0.2114 -0.3937
  821MOL0     H 8319   7.225   8.932   4.671 -0.7469 -0.9819  1.9455
  821MOL0     H 8320   7.053   8.971   4.699  0.0590  2.0544  0.8645
  821MOL0     H 8321   7.306   9.108   4.781 -0.0486 -2.5349  1.7815
  821MOL0     H 8322   7.160   9.208   4.761 -2.6038 -0.4764  1.3403
  821MOL0     H 8323   7.214   9.157   4.980 -1.1207  1.5845 -0.4027
  821MOL0     H 8324   7.196   8.981   4.949  3.5511  0.6391 -0.1849
  821MOL0     H 8325   6.991   8.937   5.091  2.1998 -0.1532 -0.3556
  821MOL0     H 8326   6.731   9.039   5.216  1.7117 -0.3138 -0.4069
  821MOL0     H 8327   6.702   8.918   5.099 -1.7966 -0.0855 -0.2215
  821MOL0     H 8328   6.570   9.187   5.053 -1.0587  0.3979  1.6597
  821MOL0     H 8329   6.499   9.044   5.129 -0.6006  0.3788 -0.8275
  821MOL0     H 8330   6.618   9.038   4.850 -1.6113  2.3614 -1.1987
  821MOL0     H 8331   6.530   8.913   4.927 -1.9963 -0.1302 -0.0744
  821MOL0     H 8332   6.376   9.031   4.771  2.6126  2.5290 -1.8260
  821MOL0     H 8333   6.411   9.182   4.854 -0.9747  0.0739  0.1296
  821MOL0     H 8334   6.138   8.902   4.821 -1.8691 -1.3708 -0.6441
  821MOL0     H 8335   5.912   8.958   4.763 -2.4360  1.8460 -0.5898
  821MOL0     H 8336   5.527   8.890   4.788  2.9679  2.0121 -1.4355
  821MOL0     H 8337   5.300   8.888   4.710  2.0912  0.5760  2.3496
  821MOL0     H 8338   5.167   9.208   4.405 -0.2977  3.1973  0.0218
  821MOL0     H 8339   5.157   9.299   4.552  2.8986 -1.2920  0.8421
  821MOL0     H 8340   4.913   9.222   4.580  0.2943 -0.1251 -0.4717
  821MOL0     H 8341   4.954   9.089   4.479  1.4038  0.0314  2.6440
  821MOL0     H 8342   4.947   9.264   4.274  0.7085  2.6588 -0.3469
  821MOL0     H 8343   4.910   9.382   4.395  0.4201  1.0226 -0.8296
  821MOL0     H 8344   4.718   9.148   4.323 -1.8352 -0.6777  1.3500
  821MOL0     H 8345   4.716   9.226   4.482  0.5646  2.7006  0.2271
  821MOL0     H 8346   4.706   9.376   4.212  1.1337  0.3002  0.9891
  821MOL0     H 8347   4.655   9.438   4.366 -1.4433  1.3119 -1.7688
  821MOL0     H 8348   4.458   9.255   4.365 -1.0672 -2.7038 -1.6912
  821MOL0     H 8349   4.504   9.224   4.198 -2.8846  0.4736 -0.1948
  821MOL0     H 8350   4.409   9.487   4.305  0.0827 -0.0570 -0.4997
  821MOL0     H 8351   4.470   9.474   4.145 -1.6856  1.7375  0.5409
  821MOL0     H 8352   4.289   9.361   4.056 -2.4239 -0.5731  0.6674
  821MOL0     H 8353   4.215   9.436   4.196 -0.1995 -0.5574  0.9845
  821MOL0     H 8354   5.355   9.282   4.561 -1.8523  1.3892  0.9490
  821MOL0     H 8355   5.570   9.294   4.655 -1.7093  0.0731 -1.3121
  821MOL0     H 8356   5.936   9.343   4.952 -2.1342 -0.4151 -1.3880
  821MOL0     H 8357   6.183   9.290   5.010  0.4746 -1.5527  2.0701
  821MOL0     H 8358   7.407   9.291   4.232  1.8701  1.7828 -0.3092
  821MOL0     H 8359   7.614   9.310   4.101 -0.6298 -0.9839 -1.0190
  821MOL0     H 8360   7.826   9.011   3.732 -0.6868  0.5067 -1.5078
  821MOL0     H 8361   8.041   9.020   3.607  1.0580  1.0852 -0.9769
  821MOL0     H 8362   8.205   9.405   3.616 -0.9613 -0.7167  0.0694
  821MOL0     H 8363   8.254   9.404   3.441 -1.2960  0.7044  0.2151
  821MOL0     H 8364   8.440   9.368   3.644  1.0479 -2.3632  0.5640
  821MOL0     H 8365   8.371   9.208   3.640 -1.1951  0.8547  0.6849
  821MOL0     H 8366   8.585   9.295   3.482 -1.1966  2.0130  2.1676
  821MOL0     H 8367   8.458   9.346   3.383 -0.3027 -0.5085 -0.8743
  821MOL0     H 8368   8.477   9.057   3.490 -0.2361 -3.3740 -1.5072
  821MOL0     H 8369   8.358   9.121   3.371 -0.1934  2.5795  1.7265
  821MOL0     H 8370   8.717   9.085   3.140  0.0984 -2.0513  0.7252
  821MOL0     H 8371   8.005   9.438   3.557  1.8812  0.0390  2.9399
  821MOL0     H 8372   7.790   9.436   3.679  0.9489 -0.2977 -0.0781
  822MOL0     O 8373   9.799   4.815   5.807  0.3982 -0.4587 -0.5447
  822MOL0     C 8374   9.884   4.831   5.893 -0.0579  0.5698  0.0026
  822MOL0     O 8375   9.881   4.775   6.023  0.1903 -0.0712 -0.2933
  822MOL0     C 8376   9.763   4.721   6.067  0.0794  0.8177 -0.6608
  822MOL0     C 8377   9.739   4.596   6.022  0.1187  0.2599 -0.2105
  822MOL0     C 8378   9.612   4.546   6.047  0.4669 -0.8836  0.1725
  822MOL0     C 8379   9.510   4.607   6.122 -0.4481  0.1534 -0.2131
  822MOL0     O 8380   9.392   4.543   6.145 -0.4439  0.6203 -0.4691
  822MOL0     C 8381   9.276   4.617   6.110  0.6397  0.7406 -0.9969
  822MOL0     C 8382   9.173   4.515   6.065  1.0884  0.4663  0.1797
  822MOL0     C 8383   9.042   4.582   6.021 -0.4340 -0.9465 -0.3290
  822MOL0     C 8384   8.935   4.497   5.961  0.7947  0.3141  0.5832
  822MOL0     C 8385   8.813   4.580   5.940 -1.0968  0.4941 -0.2059
  822MOL0     C 8386   8.707   4.496   5.862  0.1939  0.3026  0.1334
  822MOL0     C 8387   8.587   4.570   5.823  1.1973 -0.0543 -0.7389
  822MOL0     C 8388   8.497   4.493   5.720  0.7772  0.8063  0.2586
  822MOL0     N 8389   8.366   4.558   5.712 -0.0919  0.2469 -0.3920
  822MOL0     C 8390   8.331   4.635   5.610 -0.4232  0.4470  0.4542
  822MOL0     C 8391   8.207   4.681   5.647 -0.1038 -0.2614 -0.1354
  822MOL0     C 8392   8.114   4.762   5.564 -0.4465  0.4232 -0.5896
  822MOL0     C 8393   8.128   4.922   5.578  0.8740 -0.2451  0.3689
  822MOL0     C 8394   8.046   4.989   5.464  0.2857  0.7171 -0.3761
  822MOL0     C 8395   7.892   4.964   5.477 -0.6424  0.3893 -1.0950
  822MOL0     O 8396   7.839   5.018   5.353 -0.2210 -0.0410 -0.3665
  822MOL0     C 8397   7.703   5.036   5.353 -0.1799  0.0138  0.5200
  822MOL0     C 8398   7.611   4.974   5.445  0.0338 -0.3423  0.3156
  822MOL0     C 8399   7.474   5.007   5.435  0.5926 -0.3159  0.4216
  822MOL0     C 8400   7.428   5.098   5.342  0.5320  0.0826  0.6967
  822MOL0     C 8401   7.282   5.137   5.335 -0.2481 -0.7640  0.2992
  822MOL0     O 8402   7.256   5.230   5.244  0.0095  0.0144 -0.1518
  822MOL0     C 8403   7.137   5.273   5.199 -0.0732  0.5249 -0.2054
  822MOL0     C 8404   7.013   5.200   5.213  0.1746  0.3355 -0.3691
  822MOL0     C 8405   6.900   5.239   5.154  0.1226  0.8446  0.0156
  822MOL0     C 8406   6.891   5.353   5.080 -0.2524 -0.0666 -0.0473
  822MOL0     O 8407   6.773   5.376   5.026 -0.2047 -0.2027  0.1158
  822MOL0     C 8408   6.771   5.429   4.892 -0.4186  0.2870 -0.3271
  822MOL0     C 8409   6.622   5.459   4.859 -0.2729 -0.0580  0.5756
  822MOL0     C 8410   6.539   5.327   4.836  0.0654  0.3488 -0.0700
  822MOL0     C 8411   6.407   5.349   4.765  0.0356  0.6612 -0.7568
  822MOL0     C 8412   6.327   5.215   4.734  0.0352 -0.6036  0.2409
  822MOL0     C 8413   6.201   5.242   4.636 -0.1159  1.2827 -1.3457
  822MOL0     C 8414   6.108   5.114   4.601  0.3081 -0.0853 -0.5975
  822MOL0     C 8415   6.045   5.038   4.722 -0.3693 -0.4884 -0.2860
  822MOL0    Cl 8416   6.001   4.888   4.660 -0.9753  0.1542  0.3167
  822MOL0     C 8417   7.001   5.440   5.066  0.4814  0.0943  0.0381
  822MOL0     C 8418   7.125   5.393   5.124  0.3759 -0.3043  0.0791
  822MOL0     O 8419   7.201   5.084   5.413  0.1571 -0.5315 -0.6560
  822MOL0     C 8420   7.523   5.154   5.251  0.2648  0.3792 -0.2461
  822MOL0     C 8421   7.654   5.110   5.245  0.0495 -0.1193 -0.4931
  822MOL0     N 8422   8.171   4.628   5.774 -0.5076  0.3565 -0.2400
  822MOL0     N 8423   8.271   4.554   5.815  0.2394  0.0221  0.1092
  822MOL0     C 8424   9.546   4.726   6.182  0.3582 -0.7528 -0.3962
  822MOL0     C 8425   9.670   4.787   6.144 -0.7724 -0.1992 -0.5343
  822MOL0     C 8426   9.993   4.917   5.834 -0.0515  0.1973 -0.3180
  822MOL0     C 8427  10.096   4.960   5.928  0.6128 -0.3349 -0.7802
  822MOL0     C 8428  10.196   5.042   5.888  0.4257 -0.4187 -0.0029
  822MOL0     C 8429  10.199   5.092   5.751 -0.6294  0.6442 -0.4028
  822MOL0     O 8430  10.298   5.160   5.697 -0.0810 -0.0213 -0.7999
  822MOL0     C 8431  10.417   5.199   5.781  0.0614  0.2948 -0.4019
  822MOL0     C 8432  10.500   5.299   5.705  1.1301  0.2090  0.0619
  822MOL0     C 8433  10.602   5.233   5.612  0.4059 -0.3108  0.3878
  822MOL0     C 8434  10.660   5.347   5.535  0.9859 -0.6236 -0.0745
  822MOL0     C 8435  10.786   5.312   5.474  0.0012  0.3595  0.3637
  822MOL0     C 8436  10.899   5.290   5.438  0.4296  0.6772 -0.3903
  822MOL0     C 8437  10.098   5.044   5.666 -0.4913 -0.4175  0.3171
  822MOL0     C 8438   9.997   4.960   5.706 -0.2385 -0.1865 -0.7151
  822MOL0     H 8439   9.802   4.546   5.949 -0.7495 -3.0620  1.1452
  822MOL0     H 8440   9.587   4.448   6.008 -4.1673  0.8411 -1.9192
  822MOL0     H 8441   9.305   4.690   6.034  1.2001  1.6495  0.0586
  822MOL0     H 8442   9.242   4.671   6.198 -0.2063  1.5587 -1.8088
  822MOL0     H 8443   9.151   4.457   6.155  2.0968  1.2459  0.9400
  822MOL0     H 8444   9.219   4.447   5.993  2.2460 -1.0723  2.2554
  822MOL0     H 8445   9.064   4.658   5.946  1.0337 -1.8694 -0.8771
  822MOL0     H 8446   9.005   4.637   6.108  1.7327 -0.9385  0.6532
  822MOL0     H 8447   8.973   4.442   5.874 -0.3327  0.3128  0.0752
  822MOL0     H 8448   8.912   4.422   6.037  0.2506  0.2794  0.3856
  822MOL0     H 8449   8.839   4.664   5.876 -0.8700  1.1811  0.7690
  822MOL0     H 8450   8.782   4.624   6.035 -1.5609 -1.1897  0.4706
  822MOL0     H 8451   8.672   4.417   5.929 -0.3088 -0.0084 -0.4821
  822MOL0     H 8452   8.746   4.438   5.777  2.7677 -1.6217  2.4557
  822MOL0     H 8453   8.522   4.599   5.906  0.3836  0.9301 -1.6789
  822MOL0     H 8454   8.603   4.660   5.762  0.6096  0.7180  0.2196
  822MOL0     H 8455   8.471   4.392   5.753  0.6109  1.4822  2.3415
  822MOL0     H 8456   8.548   4.494   5.623  1.6968 -0.8893  0.6782
  822MOL0     H 8457   8.384   4.656   5.518  2.2600  5.1010  2.6844
  822MOL0     H 8458   8.013   4.731   5.593  0.5691 -1.3257  1.3936
  822MOL0     H 8459   8.136   4.743   5.458  0.9994 -0.7291 -0.1297
  822MOL0     H 8460   8.231   4.955   5.567  2.0068 -3.7306 -0.4431
  822MOL0     H 8461   8.084   4.958   5.672 -0.4119  0.0980 -0.3339
  822MOL0     H 8462   8.074   5.095   5.461  3.8452 -0.1109 -3.3203
  822MOL0     H 8463   8.083   4.944   5.372  0.1960 -1.3807  0.5602
  822MOL0     H 8464   7.852   5.013   5.566  0.9302  0.8079 -0.5800
  822MOL0     H 8465   7.869   4.857   5.480  0.1807  0.1875 -1.5323
  822MOL0     H 8466   7.644   4.904   5.522  0.0164  1.0231  1.6013
  822MOL0     H 8467   7.398   4.961   5.498 -1.7691  3.1636  0.4202
  822MOL0     H 8468   7.004   5.107   5.267 -2.7772  0.3058 -0.7521
  822MOL0     H 8469   6.813   5.175   5.171 -0.1336  0.9157 -0.9829
  822MOL0     H 8470   6.800   5.368   4.806  0.4538  1.6850 -1.0554
  822MOL0     H 8471   6.825   5.522   4.872  3.0360 -1.9349 -2.5246
  822MOL0     H 8472   6.619   5.512   4.763  2.0575 -2.2203 -0.8415
  822MOL0     H 8473   6.571   5.522   4.932 -2.7588 -0.4892 -0.7013
  822MOL0     H 8474   6.519   5.290   4.936  0.6083  0.3357  0.0340
  822MOL0     H 8475   6.596   5.249   4.785 -1.4663  1.0629 -3.1292
  822MOL0     H 8476   6.339   5.406   4.829 -0.3147 -1.0674  0.4724
  822MOL0     H 8477   6.409   5.397   4.667 -3.4818 -0.6026 -1.5862
  822MOL0     H 8478   6.286   5.177   4.829  1.7872 -1.3938  0.7342
  822MOL0     H 8479   6.380   5.137   4.678  3.3509  0.0771  2.1616
  822MOL0     H 8480   6.229   5.291   4.542  1.4746 -0.4411 -1.8302
  822MOL0     H 8481   6.143   5.318   4.690  1.2027  0.8651  0.7946
  822MOL0     H 8482   6.029   5.146   4.532  0.7067  1.1345 -0.5207
  822MOL0     H 8483   6.171   5.045   4.545 -1.7536 -2.2066 -0.4379
  822MOL0     H 8484   5.962   5.101   4.755  0.8491 -0.8910  4.1107
  822MOL0     H 8485   6.112   5.027   4.807 -1.2269  1.3959  0.6771
  822MOL0     H 8486   7.002   5.522   4.995  1.2837  0.9450  1.0070
  822MOL0     H 8487   7.221   5.431   5.091  0.7567 -1.0222  0.3507
  822MOL0     H 8488   7.488   5.223   5.175  0.4525  0.1686 -0.5240
  822MOL0     H 8489   7.720   5.156   5.172  1.3766 -0.7375  0.2848
  822MOL0     H 8490   9.463   4.777   6.231 -0.1619  1.8692 -3.6679
  822MOL0     H 8491   9.683   4.891   6.171 -0.2167  0.5219 -3.3166
  822MOL0     H 8492  10.099   4.924   6.030  2.1779 -2.4297 -1.5073
  822MOL0     H 8493  10.265   5.077   5.964 -3.1589  1.2859  2.7639
  822MOL0     H 8494  10.479   5.114   5.809 -1.6172 -1.2273 -1.0941
  822MOL0     H 8495  10.383   5.255   5.869  5.5831  4.5425 -0.4021
  822MOL0     H 8496  10.427   5.367   5.660 -0.2328 -1.4352 -0.3086
  822MOL0     H 8497  10.559   5.354   5.779  1.8027  0.5852 -0.7277
  822MOL0     H 8498  10.554   5.164   5.542  2.4125 -1.7105  0.3018
  822MOL0     H 8499  10.678   5.189   5.677 -0.8833  0.8351  2.8191
  822MOL0     H 8500  10.584   5.383   5.465  0.4361 -0.8652  0.3933
  822MOL0     H 8501  10.667   5.434   5.602 -2.3754  1.0142 -1.5750
  822MOL0     H 8502  10.999   5.282   5.401  1.6712  1.8338  2.4207
  822MOL0     H 8503  10.106   5.085   5.566  1.3633  0.8019  0.9196
  822MOL0     H 8504   9.923   4.942   5.629  0.0819  1.9293 -1.5740
  823MOL0     O 8505   5.230   2.780   5.378  0.7423  0.1528 -0.0664
  823MOL0     C 8506   5.260   2.662   5.337  0.0057 -0.9500 -0.2510
  823MOL0     O 8507   5.172   2.557   5.353  0.3564 -0.8498  0.1197
  823MOL0     C 8508   5.049   2.581   5.396  0.9887 -0.0266 -0.3763
  823MOL0     C 8509   4.942   2.532   5.316  0.8903 -0.1720  0.6656
  823MOL0     C 8510   4.806   2.536   5.360 -1.1496  0.2658 -0.3194
  823MOL0     C 8511   4.774   2.593   5.485  0.7788  0.0971 -0.5559
  823MOL0     O 8512   4.641   2.608   5.539 -0.0048  0.1245 -0.5538
  823MOL0     C 8513   4.527   2.563   5.461 -0.3625 -0.2884  0.0268
  823MOL0     C 8514   4.398   2.569   5.552 -0.1272  0.1393 -0.7257
  823MOL0     C 8515   4.270   2.550   5.473 -0.1253  1.0307 -0.1826
  823MOL0     C 8516   4.143   2.606   5.533 -0.3017 -0.5325 -0.5895
  823MOL0     C 8517   4.019   2.540   5.468  0.0363  0.5716  0.2157
  823MOL0     C 8518   3.891   2.630   5.479 -0.2125  0.4753  0.7512
  823MOL0     C 8519   3.762   2.539   5.492  0.0118 -0.1382 -0.0017
  823MOL0     C 8520   3.726   2.447   5.386 -0.0048  0.3025  0.1479
  823MOL0     N 8521   3.642   2.329   5.432 -0.0725  0.2341  0.3377
  823MOL0     C 8522   3.516   2.327   5.475  0.2619 -0.2558 -0.3925
  823MOL0     C 8523   3.478   2.204   5.443  0.7990 -0.3520 -0.1195
  823MOL0     C 8524   3.346   2.149   5.457 -0.1235 -0.1913  0.5017
  823MOL0     C 8525   3.278   2.136   5.313  0.2928  0.0020  0.1472
  823MOL0     C 8526   3.132   2.108   5.330 -0.0014 -0.5592 -0.4960
  823MOL0     C 8527   3.087   1.965   5.313  0.8412  0.1730  0.2946
  823MOL0     O 8528   2.949   1.950   5.366 -0.6359 -0.1606 -1.0075
  823MOL0     C 8529   2.857   1.918   5.270  0.0699 -0.3915 -0.8862
  823MOL0     C 8530   2.863   1.804   5.189 -0.1540 -0.1114 -0.0092
  823MOL0     C 8531   2.744   1.758   5.123 -0.9009  0.0067  0.7265
  823MOL0     C 8532   2.624   1.837   5.120  0.1874  0.3175  0.3321
  823MOL0     C 8533   2.499   1.811   5.038  0.5076  0.3995  0.5178
  823MOL0     O 8534   2.397   1.900   5.055 -0.2300  0.2199  0.0833
  823MOL0     C 8535   2.272   1.887   4.997  0.5202  0.6760 -0.1583
  823MOL0     C 8536   2.196   2.007   4.992 -0.3543 -0.3642 -0.2002
  823MOL0     C 8537   2.068   2.004   4.944  0.1426  0.2064 -0.3515
  823MOL0     C 8538   2.014   1.888   4.889  0.1506  0.6035 -1.2105
  823MOL0     O 8539   1.883   1.895   4.860  0.0531 -1.4495  0.3913
  823MOL0     C 8540   1.822   1.777   4.797 -1.0560  0.1573 -0.5393
  823MOL0     C 8541   1.691   1.809   4.731 -0.4853  0.2591  0.6060
  823MOL0     C 8542   1.573   1.877   4.808 -1.1567 -0.1322 -0.4523
  823MOL0     C 8543   1.476   1.930   4.712 -0.3382 -0.4638  0.1484
  823MOL0     C 8544   1.339   1.966   4.774 -0.2820  0.3473  0.2654
  823MOL0     C 8545   1.333   2.054   4.887 -0.1070 -1.1479 -0.4723
  823MOL0     C 8546   1.318   2.203   4.841 -0.3699 -0.4040 -0.4062
  823MOL0     C 8547   1.351   2.299   4.955  0.3487 -0.2388 -0.5797
  823MOL0    Cl 8548   1.235   2.253   5.093 -0.0462  1.0034  0.0935
  823MOL0     C 8549   2.089   1.778   4.890  0.4094  0.1026  1.0367
  823MOL0     C 8550   2.218   1.774   4.934 -0.7770 -0.5458 -0.4218
  823MOL0     O 8551   2.505   1.725   4.951  0.0163  0.5849  0.1021
  823MOL0     C 8552   2.628   1.951   5.206 -0.6679 -0.1918  0.1282
  823MOL0     C 8553   2.742   1.980   5.281 -0.1461 -0.1893  0.6913
  823MOL0     N 8554   3.587   2.124   5.403 -0.0550  0.0312 -0.2772
  823MOL0     N 8555   3.687   2.202   5.398  0.5898  0.0951  0.4816
  823MOL0     C 8556   4.880   2.632   5.567 -0.5647 -0.5441  0.7924
  823MOL0     C 8557   5.014   2.631   5.524 -0.3098 -0.9312 -0.7579
  823MOL0     C 8558   5.392   2.645   5.275 -1.2344  0.8669 -0.3440
  823MOL0     C 8559   5.482   2.756   5.267  0.0006  0.1536  0.1581
  823MOL0     C 8560   5.609   2.747   5.206  0.5315 -0.3344 -0.0988
  823MOL0     C 8561   5.646   2.625   5.143  0.3866  0.3996  0.0481
  823MOL0     O 8562   5.764   2.615   5.068 -0.0728  0.1532 -0.1000
  823MOL0     C 8563   5.867   2.713   5.069  0.2000 -0.7578 -0.1042
  823MOL0     C 8564   5.936   2.722   5.214 -0.0707  0.5678  0.4510
  823MOL0     C 8565   6.046   2.830   5.214  0.2671  0.1675  0.5041
  823MOL0     C 8566   6.100   2.845   5.357 -0.0519 -0.4062  0.0014
  823MOL0     C 8567   6.237   2.901   5.362  0.2077  0.2022  0.5813
  823MOL0     C 8568   6.335   2.972   5.350 -1.2707  0.2080  0.4169
  823MOL0     C 8569   5.555   2.519   5.151  0.0859 -0.0707 -0.1505
  823MOL0     C 8570   5.436   2.518   5.221 -0.1207 -0.1835  0.3633
  823MOL0     H 8571   4.972   2.495   5.218  3.8796  0.0712  1.3971
  823MOL0     H 8572   4.735   2.498   5.287 -2.9395  2.8511 -0.0769
  823MOL0     H 8573   4.554   2.461   5.433  2.5200  0.7783 -1.4320
  823MOL0     H 8574   4.517   2.634   5.378 -0.5056  0.3312  0.5632
  823MOL0     H 8575   4.389   2.662   5.609 -1.6052  1.4078 -2.8933
  823MOL0     H 8576   4.407   2.486   5.623 -1.5154  0.9153  0.3999
  823MOL0     H 8577   4.268   2.443   5.453  3.1810  0.8571 -0.1166
  823MOL0     H 8578   4.288   2.596   5.376  0.0669 -0.1240 -0.7064
  823MOL0     H 8579   4.141   2.599   5.642  0.2550 -0.8542 -0.5927
  823MOL0     H 8580   4.142   2.712   5.506 -0.7466  0.2063  2.0502
  823MOL0     H 8581   4.021   2.439   5.509  2.8266  0.2097 -0.5923
  823MOL0     H 8582   4.033   2.524   5.360 -0.1169  2.2307 -0.0732
  823MOL0     H 8583   3.877   2.686   5.386 -0.0353 -0.1304  0.3531
  823MOL0     H 8584   3.884   2.702   5.560 -2.8823 -1.3143  2.2769
  823MOL0     H 8585   3.774   2.482   5.584 -2.4525  0.2937  0.6849
  823MOL0     H 8586   3.674   2.604   5.504 -0.0618 -0.4009  0.9673
  823MOL0     H 8587   3.819   2.410   5.343  0.5558  0.9457  0.7677
  823MOL0     H 8588   3.670   2.490   5.302 -0.0975 -1.5331 -0.7811
  823MOL0     H 8589   3.450   2.395   5.529 -2.5977 -1.4251 -2.1739
  823MOL0     H 8590   3.293   2.213   5.529  0.6061  1.8178 -0.6874
  823MOL0     H 8591   3.368   2.049   5.495 -1.2493  0.1327  2.1383
  823MOL0     H 8592   3.333   2.053   5.269  2.0922  2.3472 -2.3428
  823MOL0     H 8593   3.299   2.225   5.253  2.9344  0.5115  1.6646
  823MOL0     H 8594   3.087   2.145   5.422 -4.7433  1.5851 -3.3387
  823MOL0     H 8595   3.085   2.178   5.260  2.7827  1.9600 -0.0442
  823MOL0     H 8596   3.146   1.898   5.376  1.7054 -2.4647 -2.9972
  823MOL0     H 8597   3.116   1.930   5.213  0.4947  0.1132  0.2126
  823MOL0     H 8598   2.951   1.742   5.203 -0.8142 -1.3019 -0.9533
  823MOL0     H 8599   2.747   1.663   5.071  1.9949 -0.7789  2.0936
  823MOL0     H 8600   2.232   2.099   5.038 -1.1494  0.5279 -1.3050
  823MOL0     H 8601   2.000   2.088   4.946 -0.7435 -0.4984 -0.2170
  823MOL0     H 8602   1.803   1.698   4.870  0.4782 -1.2652 -1.6142
  823MOL0     H 8603   1.883   1.741   4.714  2.1793  0.0379  1.7126
  823MOL0     H 8604   1.646   1.721   4.684 -2.3988  1.4152  0.1378
  823MOL0     H 8605   1.719   1.874   4.647 -1.0161 -1.7075 -1.1917
  823MOL0     H 8606   1.613   1.963   4.863 -3.2093  2.9715 -3.3831
  823MOL0     H 8607   1.520   1.807   4.872 -1.7454  0.5842 -0.1400
  823MOL0     H 8608   1.521   2.021   4.670 -0.2765 -0.5570  0.0110
  823MOL0     H 8609   1.469   1.850   4.638  0.6211 -2.0739  1.7034
  823MOL0     H 8610   1.301   1.871   4.813  1.9073 -0.5605  0.3368
  823MOL0     H 8611   1.271   2.008   4.699  1.3551  2.1014 -0.3148
  823MOL0     H 8612   1.414   2.034   4.957 -1.6741 -1.7203  1.2707
  823MOL0     H 8613   1.237   2.035   4.935 -0.7994 -0.7842 -1.6537
  823MOL0     H 8614   1.372   2.225   4.749 -0.0609  2.1879  0.3330
  823MOL0     H 8615   1.210   2.206   4.820 -0.8903  1.2426  2.0990
  823MOL0     H 8616   1.338   2.406   4.933 -3.3196 -0.5655 -0.4844
  823MOL0     H 8617   1.454   2.287   4.990  0.4552  0.0466 -0.7862
  823MOL0     H 8618   2.045   1.688   4.849  0.4645  1.0277 -1.2337
  823MOL0     H 8619   2.282   1.688   4.921  1.3509  1.0480 -1.2165
  823MOL0     H 8620   2.539   2.012   5.211 -0.0553  0.6269  1.7591
  823MOL0     H 8621   2.733   2.063   5.349  0.0098  0.5646 -0.1937
  823MOL0     H 8622   4.864   2.666   5.668  1.9275  0.4272  0.9343
  823MOL0     H 8623   5.095   2.667   5.587  0.9387 -0.8605 -2.3427
  823MOL0     H 8624   5.456   2.847   5.319 -0.1661 -1.4264  3.0754
  823MOL0     H 8625   5.672   2.836   5.205  0.5241 -0.2777 -2.8461
  823MOL0     H 8626   5.825   2.811   5.045 -1.7681 -1.1047  1.5907
  823MOL0     H 8627   5.932   2.687   4.985 -1.6764 -1.0600 -1.5431
  823MOL0     H 8628   5.865   2.737   5.295  1.3557 -3.6579  2.7962
  823MOL0     H 8629   5.981   2.626   5.241 -0.4585  0.1614 -0.3040
  823MOL0     H 8630   5.997   2.917   5.171  1.4285  1.4994  1.7735
  823MOL0     H 8631   6.124   2.786   5.152 -0.8016 -0.1266 -0.6716
  823MOL0     H 8632   6.034   2.908   5.418  1.8099  2.1628 -0.4423
  823MOL0     H 8633   6.111   2.745   5.399 -0.1996 -0.4215  0.0037
  823MOL0     H 8634   6.418   3.039   5.352 -1.4881  0.4797  0.3222
  823MOL0     H 8635   5.582   2.424   5.106 -1.8953 -0.8919  0.3188
  823MOL0     H 8636   5.366   2.435   5.218 -0.4376  0.0273  1.5912
  824MOL0     O 8637   8.277   5.336   6.364 -0.1656  0.2359 -0.5370
  824MOL0     C 8638   8.321   5.300   6.254 -0.5405  0.0549 -0.1806
  824MOL0     O 8639   8.242   5.258   6.152 -0.3389 -0.2160 -0.1799
  824MOL0     C 8640   8.113   5.233   6.173  0.0330  0.3668  1.0069
  824MOL0     C 8641   8.073   5.110   6.226  0.6195 -0.0435  0.2082
  824MOL0     C 8642   7.933   5.077   6.229 -0.6401 -0.5986 -0.3170
  824MOL0     C 8643   7.835   5.149   6.166  0.2749  0.0388  0.1755
  824MOL0     O 8644   7.696   5.124   6.159  0.5461 -0.0984 -0.2017
  824MOL0     C 8645   7.615   5.063   6.265 -0.1174 -1.1345  1.5484
  824MOL0     C 8646   7.542   4.933   6.207  0.7188  0.2856  0.2915
  824MOL0     C 8647   7.444   4.881   6.312  0.2993  0.0094 -0.3530
  824MOL0     C 8648   7.515   4.851   6.446 -0.4687  0.5593 -0.5729
  824MOL0     C 8649   7.427   4.766   6.539  0.2935  0.0707 -1.1343
  824MOL0     C 8650   7.448   4.620   6.508 -0.6600 -0.0839 -0.3703
  824MOL0     C 8651   7.344   4.523   6.579  0.3583 -0.6175  0.1510
  824MOL0     C 8652   7.385   4.373   6.566  0.0285 -0.4494 -0.3259
  824MOL0     N 8653   7.266   4.285   6.564 -0.4596 -0.5684 -1.0544
  824MOL0     C 8654   7.198   4.231   6.457  0.3322 -0.6207 -0.1294
  824MOL0     C 8655   7.099   4.153   6.503 -0.6962 -0.1679 -0.5673
  824MOL0     C 8656   6.986   4.094   6.422  0.3102 -1.0944 -0.7044
  824MOL0     C 8657   6.873   4.059   6.512  1.2344  0.8284  1.2485
  824MOL0     C 8658   6.761   4.012   6.415 -0.8196  0.2812 -0.3317
  824MOL0     C 8659   6.636   3.983   6.489 -0.7255 -0.5504  0.1819
  824MOL0     O 8660   6.530   3.953   6.401  0.0057 -0.3466  0.5663
  824MOL0     C 8661   6.404   3.929   6.464 -0.8507 -0.4787 -0.4161
  824MOL0     C 8662   6.373   3.962   6.596  0.5218  0.2503  0.2013
  824MOL0     C 8663   6.243   3.933   6.645 -0.4334  0.2664 -0.4199
  824MOL0     C 8664   6.145   3.881   6.559 -0.4081 -0.7630  0.2742
  824MOL0     C 8665   6.006   3.857   6.601 -1.1149  0.3815  0.7068
  824MOL0     O 8666   5.913   3.856   6.496 -0.0930 -0.1947 -1.0631
  824MOL0     C 8667   5.777   3.845   6.522 -0.8225  0.8058 -0.1323
  824MOL0     C 8668   5.718   3.765   6.626 -0.1453 -0.4815 -0.0603
  824MOL0     C 8669   5.579   3.747   6.638 -0.8426 -0.7082 -0.0239
  824MOL0     C 8670   5.495   3.825   6.553  0.0479  0.2171  0.1734
  824MOL0     O 8671   5.357   3.803   6.580 -0.6579  0.3735 -0.3616
  824MOL0     C 8672   5.262   3.874   6.494 -0.4594 -0.0169 -0.8309
  824MOL0     C 8673   5.127   3.871   6.568 -0.1448  0.2042 -0.5835
  824MOL0     C 8674   5.013   3.911   6.479 -0.1856 -0.6966 -0.1264
  824MOL0     C 8675   5.039   4.051   6.414  0.6959  0.2196  0.2010
  824MOL0     C 8676   4.911   4.117   6.352  0.5117 -0.0443  0.8508
  824MOL0     C 8677   4.940   4.255   6.294 -0.1651 -0.0876 -0.5742
  824MOL0     C 8678   4.951   4.361   6.410 -0.3367  0.0459 -0.0492
  824MOL0     C 8679   4.816   4.430   6.461 -0.1619  0.8400  0.0128
  824MOL0    Cl 8680   4.857   4.576   6.558 -0.1978 -0.0609  0.2414
  824MOL0     C 8681   5.546   3.898   6.445 -0.9083 -0.2731 -0.9544
  824MOL0     C 8682   5.687   3.900   6.427 -0.3284 -0.2751 -0.5229
  824MOL0     O 8683   5.989   3.829   6.717  0.4321  0.3558  0.0764
  824MOL0     C 8684   6.179   3.863   6.422 -0.6776 -0.9821  0.1292
  824MOL0     C 8685   6.308   3.881   6.380  0.4251 -0.0950  0.3699
  824MOL0     N 8686   7.119   4.143   6.639 -0.3112 -0.2485 -0.2137
  824MOL0     N 8687   7.218   4.220   6.677  0.2577  0.2856 -0.1206
  824MOL0     C 8688   7.886   5.270   6.109  0.1349 -0.6969  0.4757
  824MOL0     C 8689   8.017   5.304   6.114  0.2650  0.7622  0.2102
  824MOL0     C 8690   8.455   5.344   6.219  0.0652 -0.7049  0.4677
  824MOL0     C 8691   8.525   5.434   6.306 -0.1059  0.7118 -1.0604
  824MOL0     C 8692   8.664   5.455   6.285 -0.2866 -0.9757  0.2341
  824MOL0     C 8693   8.735   5.402   6.178 -0.1100  0.1190  0.5941
  824MOL0     O 8694   8.873   5.431   6.178 -0.0842 -0.5142  0.3150
  824MOL0     C 8695   8.957   5.391   6.071 -0.1185 -0.2724 -0.1365
  824MOL0     C 8696   9.097   5.407   6.134  0.0018  0.1019  0.8448
  824MOL0     C 8697   9.205   5.418   6.030 -0.7815  0.2733 -0.5297
  824MOL0     C 8698   9.339   5.452   6.089  0.2745  0.3848 -0.0754
  824MOL0     C 8699   9.430   5.471   5.977 -0.0479  0.6735  0.3146
  824MOL0     C 8700   9.509   5.488   5.884  0.7221  0.3165 -0.2852
  824MOL0     C 8701   8.662   5.319   6.083 -0.4618  0.0017  0.8347
  824MOL0     C 8702   8.522   5.296   6.102 -0.4058  0.4083 -0.7057
  824MOL0     H 8703   8.149   5.042   6.262 -0.8842 -2.2853 -0.6337
  824MOL0     H 8704   7.900   4.984   6.273  0.7682 -1.3768 -0.8598
  824MOL0     H 8705   7.540   5.138   6.290  0.8898 -0.4449  2.5943
  824MOL0     H 8706   7.675   5.045   6.355 -3.0649  2.7988  4.6364
  824MOL0     H 8707   7.627   4.868   6.184  2.0002  1.6464  1.0362
  824MOL0     H 8708   7.489   4.950   6.113 -2.3177 -1.1417  1.6182
  824MOL0     H 8709   7.391   4.795   6.270 -4.4787  2.1126  0.7114
  824MOL0     H 8710   7.374   4.955   6.352  1.5672 -0.4364  3.0267
  824MOL0     H 8711   7.605   4.791   6.426  0.1904  1.8959 -1.8203
  824MOL0     H 8712   7.531   4.947   6.495  1.3055  0.5336 -1.0031
  824MOL0     H 8713   7.323   4.800   6.533  0.9092  3.7402  3.2952
  824MOL0     H 8714   7.456   4.780   6.644 -2.4227 -0.1951 -0.2507
  824MOL0     H 8715   7.549   4.591   6.539 -1.2140 -1.7657 -0.0321
  824MOL0     H 8716   7.455   4.600   6.401  2.1413 -0.1271 -0.2408
  824MOL0     H 8717   7.327   4.561   6.680 -0.6841  0.0947 -0.2661
  824MOL0     H 8718   7.252   4.546   6.523 -1.0489 -0.7052  2.3068
  824MOL0     H 8719   7.452   4.359   6.652  0.1524  0.8168 -0.1870
  824MOL0     H 8720   7.432   4.367   6.468 -1.9405  2.0576 -1.5435
  824MOL0     H 8721   7.211   4.258   6.353 -5.0507  0.0162 -0.9264
  824MOL0     H 8722   7.018   4.010   6.359 -1.3804 -0.0025 -3.1846
  824MOL0     H 8723   6.954   4.161   6.342 -2.4327 -4.2131 -2.4956
  824MOL0     H 8724   6.838   4.137   6.581  0.4917  0.5522  1.1930
  824MOL0     H 8725   6.910   3.974   6.570  0.5240  1.3000  2.4523
  824MOL0     H 8726   6.751   4.080   6.329  1.1627 -0.2293 -1.0105
  824MOL0     H 8727   6.796   3.913   6.383 -1.4881 -0.9578  2.4882
  824MOL0     H 8728   6.611   4.079   6.535 -1.3150  0.2107 -1.6422
  824MOL0     H 8729   6.642   3.920   6.579 -1.6739 -0.3992  0.3630
  824MOL0     H 8730   6.441   4.005   6.669  0.6240 -0.5642  0.5926
  824MOL0     H 8731   6.231   3.951   6.751  0.1971  0.3861 -0.3607
  824MOL0     H 8732   5.786   3.709   6.690  1.8075  0.7400 -0.9771
  824MOL0     H 8733   5.524   3.690   6.712 -0.1486 -0.0103  1.0523
  824MOL0     H 8734   5.261   3.824   6.397 -3.0628 -1.4164 -0.1448
  824MOL0     H 8735   5.298   3.977   6.481  1.1319 -0.4228  0.0351
  824MOL0     H 8736   5.128   3.939   6.654  0.3542 -0.3172 -0.1765
  824MOL0     H 8737   5.113   3.765   6.592  1.0222  0.7340  3.0601
  824MOL0     H 8738   4.917   3.907   6.531 -0.0966 -0.3778  0.0708
  824MOL0     H 8739   5.006   3.839   6.397  1.5437 -1.2804  0.1815
  824MOL0     H 8740   5.081   4.116   6.491 -1.2282 -0.1458  1.5965
  824MOL0     H 8741   5.124   4.038   6.346  1.6520  0.0935  1.3812
  824MOL0     H 8742   4.835   4.115   6.430 -1.2283  2.2608 -0.6620
  824MOL0     H 8743   4.869   4.058   6.271 -0.9364  2.8995 -0.7189
  824MOL0     H 8744   4.860   4.283   6.225 -1.4226  0.1990  0.9576
  824MOL0     H 8745   5.040   4.257   6.249  0.4184 -1.2293  0.5972
  824MOL0     H 8746   5.011   4.326   6.495  2.9951  0.8011 -1.9388
  824MOL0     H 8747   5.003   4.449   6.371 -2.2330  1.6814  0.9074
  824MOL0     H 8748   4.749   4.358   6.509 -0.3499 -0.8368 -2.6024
  824MOL0     H 8749   4.764   4.457   6.369  1.4647  0.3299 -1.0927
  824MOL0     H 8750   5.490   3.957   6.373  1.7510  0.2817 -2.7379
  824MOL0     H 8751   5.730   3.949   6.340  0.0382 -1.3822 -0.9814
  824MOL0     H 8752   6.105   3.842   6.345 -0.6917 -0.9621  0.1370
  824MOL0     H 8753   6.327   3.870   6.274  2.5908 -1.1916  0.8131
  824MOL0     H 8754   7.816   5.333   6.055  0.1975 -0.4355  0.6941
  824MOL0     H 8755   8.043   5.405   6.082 -2.0595  1.1377 -0.6970
  824MOL0     H 8756   8.489   5.453   6.406  1.1213 -0.6498 -0.3259
  824MOL0     H 8757   8.725   5.514   6.353 -0.9893  0.6289 -0.4707
  824MOL0     H 8758   8.950   5.457   5.984 -0.6387 -1.7550 -1.2580
  824MOL0     H 8759   8.940   5.286   6.043 -0.5454 -0.9850  2.5597
  824MOL0     H 8760   9.107   5.496   6.197 -0.8117  0.7498  0.0839
  824MOL0     H 8761   9.118   5.318   6.195  0.3414  0.7212  1.6602
  824MOL0     H 8762   9.175   5.489   5.953 -2.1944  0.6871  0.3564
  824MOL0     H 8763   9.218   5.318   5.988 -4.5684 -0.6920  0.1793
  824MOL0     H 8764   9.343   5.548   6.142  1.0296  1.1350 -1.4188
  824MOL0     H 8765   9.373   5.380   6.163  0.9171  0.4012 -0.3430
  824MOL0     H 8766   9.571   5.513   5.800 -0.6380 -0.1314 -1.4741
  824MOL0     H 8767   8.701   5.291   5.986 -2.2820 -0.0951  0.0942
  824MOL0     H 8768   8.464   5.241   6.029 -1.7002  3.8581 -2.5038
  825MOL0     O 8769   9.441   1.002   0.699 -0.3850 -0.8210 -0.2426
  825MOL0     C 8770   9.461   0.949   0.806  0.1667  0.0881  0.0986
  825MOL0     O 8771   9.373   0.934   0.915  0.7068  0.2501  0.2859
  825MOL0     C 8772   9.241   0.958   0.886 -0.1119  0.3443 -0.0413
  825MOL0     C 8773   9.156   0.858   0.828 -0.3069 -0.5513  0.3260
  825MOL0     C 8774   9.021   0.899   0.813  0.6762 -0.2425  0.5384
  825MOL0     C 8775   8.975   1.022   0.856 -0.1614 -0.3549 -1.2376
  825MOL0     O 8776   8.847   1.042   0.811  0.7546  0.1881 -0.7283
  825MOL0     C 8777   8.796   1.173   0.827 -0.4638  0.5286 -0.8476
  825MOL0     C 8778   8.650   1.178   0.794  0.0301  0.8606  0.0271
  825MOL0     C 8779   8.613   1.125   0.660  0.3719  0.3445  0.2396
  825MOL0     C 8780   8.460   1.090   0.663 -0.2009  0.1099 -0.0876
  825MOL0     C 8781   8.400   1.069   0.525  0.0771 -0.4173 -0.2523
  825MOL0     C 8782   8.247   1.019   0.517  0.1435  0.0798 -0.2118
  825MOL0     C 8783   8.150   1.136   0.533 -0.6683  1.0535  0.3423
  825MOL0     C 8784   8.010   1.075   0.546 -0.5779 -0.2251 -0.3916
  825MOL0     N 8785   7.915   1.185   0.546 -0.6935  0.4962 -0.5486
  825MOL0     C 8786   7.834   1.230   0.438 -0.8563 -0.9648  0.0384
  825MOL0     C 8787   7.743   1.307   0.498  0.7136  0.7877 -0.7687
  825MOL0     C 8788   7.616   1.361   0.430  0.3815 -0.0973 -0.2873
  825MOL0     C 8789   7.487   1.289   0.464 -0.3904 -0.4813 -0.5450
  825MOL0     C 8790   7.457   1.326   0.613  0.0470  0.8144  0.2769
  825MOL0     C 8791   7.307   1.295   0.646 -0.1489 -0.2920 -0.4980
  825MOL0     O 8792   7.225   1.405   0.600  0.2228  0.3618  0.4885
  825MOL0     C 8793   7.091   1.399   0.624 -0.4557 -0.2091 -0.3964
  825MOL0     C 8794   7.032   1.297   0.696 -0.6652 -0.7804  0.2377
  825MOL0     C 8795   6.889   1.300   0.707  0.2682  0.2887  0.0194
  825MOL0     C 8796   6.809   1.394   0.646 -0.2641 -0.3610 -0.4508
  825MOL0     C 8797   6.667   1.387   0.654 -0.0681  0.3517  0.5231
  825MOL0     O 8798   6.603   1.426   0.541  0.4906 -0.2242 -0.2294
  825MOL0     C 8799   6.463   1.442   0.554 -0.3453  0.1029  0.2026
  825MOL0     C 8800   6.379   1.332   0.564 -0.8670 -0.7963  0.0776
  825MOL0     C 8801   6.244   1.356   0.580 -0.0473 -0.2717  0.4384
  825MOL0     C 8802   6.194   1.483   0.596 -0.5671  0.0577 -0.0145
  825MOL0     O 8803   6.074   1.518   0.641 -0.5158 -0.7721  0.1346
  825MOL0     C 8804   5.965   1.437   0.600  0.0789  0.3870 -0.0660
  825MOL0     C 8805   5.837   1.522   0.622 -1.5362  0.1352  0.2763
  825MOL0     C 8806   5.806   1.537   0.770 -1.2301  0.3148  0.4010
  825MOL0     C 8807   5.655   1.547   0.810 -0.8198 -0.6793  0.3783
  825MOL0     C 8808   5.640   1.557   0.955  0.4525  0.7453 -0.9344
  825MOL0     C 8809   5.491   1.596   0.988  0.3047  0.5125 -0.8596
  825MOL0     C 8810   5.446   1.496   1.099 -0.4696 -1.3075  0.1841
  825MOL0     C 8811   5.308   1.537   1.154 -0.5210 -0.2867 -0.3954
  825MOL0    Cl 8812   5.188   1.411   1.106  0.5245  0.2181  0.1659
  825MOL0     C 8813   6.282   1.589   0.600 -0.3375 -0.1853 -0.5133
  825MOL0     C 8814   6.419   1.569   0.587  0.4821 -0.5994  0.0608
  825MOL0     O 8815   6.611   1.366   0.764 -0.0746 -0.7421 -0.0553
  825MOL0     C 8816   6.874   1.496   0.573  0.4568 -0.7223 -0.1920
  825MOL0     C 8817   7.015   1.494   0.561 -0.0394 -0.3595 -0.2846
  825MOL0     N 8818   7.757   1.297   0.635  0.3979 -0.2919 -0.7170
  825MOL0     N 8819   7.867   1.241   0.662  0.0390  0.0212  0.1510
  825MOL0     C 8820   9.054   1.112   0.919  0.5427  0.3680 -0.2041
  825MOL0     C 8821   9.187   1.076   0.940 -0.1036  0.7005 -0.1756
  825MOL0     C 8822   9.591   0.895   0.827 -0.6671  0.7084 -0.7198
  825MOL0     C 8823   9.614   0.831   0.947 -1.1191 -0.5525 -0.4619
  825MOL0     C 8824   9.740   0.781   0.979  0.5683  0.3582 -0.4514
  825MOL0     C 8825   9.842   0.780   0.887  0.1718 -0.3289 -0.8250
  825MOL0     O 8826   9.971   0.731   0.902 -0.3501 -0.0170 -0.1536
  825MOL0     C 8827   9.995   0.683   1.030  0.4950 -0.7836 -0.3563
  825MOL0     C 8828  10.146   0.630   1.022  0.6861  0.0423 -0.4395
  825MOL0     C 8829  10.202   0.582   1.156 -0.6897 -0.0744 -0.0194
  825MOL0     C 8830  10.311   0.480   1.143 -0.4219  0.3391 -0.3632
  825MOL0     C 8831  10.441   0.528   1.087 -0.1213  0.7552 -0.3083
  825MOL0     C 8832  10.545   0.587   1.051  0.0755 -0.6488 -0.6803
  825MOL0     C 8833   9.818   0.843   0.763 -0.0101  0.3605 -0.9636
  825MOL0     C 8834   9.695   0.899   0.737  0.4613 -0.1433 -0.1413
  825MOL0     H 8835   9.194   0.761   0.796 -3.8892 -1.4854 -1.6901
  825MOL0     H 8836   8.952   0.830   0.767  0.5451  0.8642 -1.0199
  825MOL0     H 8837   8.847   1.243   0.761  0.4465  1.4597  0.7747
  825MOL0     H 8838   8.806   1.200   0.933 -0.7542 -1.2703 -0.3145
  825MOL0     H 8839   8.610   1.280   0.794 -2.1649  0.0429 -0.2373
  825MOL0     H 8840   8.606   1.124   0.877  2.3684  0.1613  0.8807
  825MOL0     H 8841   8.683   1.046   0.633 -0.9446 -1.5421  2.0052
  825MOL0     H 8842   8.630   1.202   0.585 -0.0521 -1.1211 -1.4159
  825MOL0     H 8843   8.437   0.997   0.715  0.5644 -0.1588 -0.2156
  825MOL0     H 8844   8.414   1.178   0.710 -0.8283 -0.4236  0.3060
  825MOL0     H 8845   8.467   0.997   0.477 -1.0823 -0.6298 -1.6301
  825MOL0     H 8846   8.406   1.163   0.470 -1.2786  0.6457  1.3277
  825MOL0     H 8847   8.220   0.943   0.592  0.4737 -0.7358 -0.9012
  825MOL0     H 8848   8.234   0.964   0.424  2.6487  2.5046 -2.1480
  825MOL0     H 8849   8.182   1.205   0.612  1.8105  3.1120 -2.2435
  825MOL0     H 8850   8.156   1.197   0.442 -2.3205  2.8872  1.3661
  825MOL0     H 8851   8.001   1.028   0.644  2.1038 -2.4889 -1.1149
  825MOL0     H 8852   7.995   1.000   0.467 -1.9519  2.3218 -2.7199
  825MOL0     H 8853   7.834   1.203   0.333  0.7865 -1.8814  0.2503
  825MOL0     H 8854   7.623   1.364   0.321 -0.2394 -2.2532 -0.4377
  825MOL0     H 8855   7.607   1.465   0.463  0.5733  0.0909 -0.8105
  825MOL0     H 8856   7.492   1.182   0.440  0.6422 -1.2800  2.6823
  825MOL0     H 8857   7.409   1.333   0.401 -0.0503 -0.6143 -1.0697
  825MOL0     H 8858   7.517   1.273   0.688 -1.0158 -1.1346 -0.2016
  825MOL0     H 8859   7.470   1.434   0.624 -1.0311  1.1983 -1.7497
  825MOL0     H 8860   7.306   1.281   0.754 -4.3123  1.6287 -0.1042
  825MOL0     H 8861   7.278   1.199   0.602 -0.5983 -1.3362  1.9248
  825MOL0     H 8862   7.077   1.208   0.741 -2.6054 -1.5578  0.7234
  825MOL0     H 8863   6.847   1.213   0.758  2.1981  0.2933  1.8053
  825MOL0     H 8864   6.420   1.232   0.552  3.3214  0.7979 -0.8789
  825MOL0     H 8865   6.175   1.273   0.585  0.3536 -0.5842  0.9310
  825MOL0     H 8866   5.964   1.344   0.659  1.9837 -0.0483 -0.6594
  825MOL0     H 8867   5.970   1.419   0.493  3.6716  1.6964 -0.2620
  825MOL0     H 8868   5.751   1.475   0.572 -0.5787 -1.1798 -0.1965
  825MOL0     H 8869   5.852   1.616   0.568  0.6444 -0.7636 -0.8232
  825MOL0     H 8870   5.855   1.622   0.818 -1.9721 -1.0379  3.8631
  825MOL0     H 8871   5.854   1.463   0.836 -1.7008 -0.6504 -0.3092
  825MOL0     H 8872   5.612   1.638   0.768 -0.1501 -0.4493  0.1799
  825MOL0     H 8873   5.595   1.471   0.758  0.3080 -0.3547 -1.5200
  825MOL0     H 8874   5.704   1.633   1.000 -1.3385  1.7306  0.0548
  825MOL0     H 8875   5.665   1.460   0.999 -0.7184 -0.6013 -3.0461
  825MOL0     H 8876   5.415   1.590   0.910  0.1725  2.2143 -0.8934
  825MOL0     H 8877   5.497   1.695   1.033 -0.1542 -0.3657  1.2672
  825MOL0     H 8878   5.444   1.397   1.051  0.3961 -1.9781  1.4590
  825MOL0     H 8879   5.520   1.504   1.179 -1.4864  3.1608  0.9527
  825MOL0     H 8880   5.271   1.631   1.113  1.4250 -0.3377 -2.4321
  825MOL0     H 8881   5.321   1.535   1.263  1.7382 -0.3986 -0.6290
  825MOL0     H 8882   6.254   1.693   0.617  3.1750  0.8153 -0.2108
  825MOL0     H 8883   6.480   1.658   0.599 -1.1567  0.6088 -0.2061
  825MOL0     H 8884   6.809   1.571   0.528  0.3622 -0.5553  0.2189
  825MOL0     H 8885   7.074   1.569   0.509  1.0832 -1.0780 -0.0856
  825MOL0     H 8886   9.025   1.212   0.948 -2.1654 -0.7925  1.4051
  825MOL0     H 8887   9.258   1.136   0.995  3.6235 -0.7914 -2.9644
  825MOL0     H 8888   9.554   0.818   1.037  1.5170 -5.5257  0.9292
  825MOL0     H 8889   9.746   0.737   1.078  1.7713  3.8067  1.1750
  825MOL0     H 8890   9.924   0.601   1.042 -0.2857 -0.7038 -3.5555
  825MOL0     H 8891   9.978   0.759   1.106  0.2762  0.6073 -1.7515
  825MOL0     H 8892  10.148   0.555   0.942 -0.3319  1.7618 -2.1869
  825MOL0     H 8893  10.189   0.721   0.978 -3.3545  2.2229 -0.4274
  825MOL0     H 8894  10.125   0.538   1.219 -1.4596  0.9510 -0.2131
  825MOL0     H 8895  10.248   0.664   1.211  0.2198  0.6776 -1.8259
  825MOL0     H 8896  10.331   0.444   1.244 -0.2469  1.4745  0.0271
  825MOL0     H 8897  10.274   0.401   1.078 -2.6509  0.7663  0.3115
  825MOL0     H 8898  10.630   0.625   0.999  0.1038  0.3157  0.0497
  825MOL0     H 8899   9.898   0.829   0.691  0.4089 -1.8547 -0.1569
  825MOL0     H 8900   9.689   0.952   0.643  0.3970  0.3463  0.1339
  826MOL0     O 8901   3.386   9.224   8.198 -0.2040 -0.4699 -0.2532
  826MOL0     C 8902   3.429   9.284   8.293  0.4402 -0.0764 -0.3705
  826MOL0     O 8903   3.357   9.338   8.396 -0.6082 -0.0146  0.8124
  826MOL0     C 8904   3.223   9.359   8.368  0.1746 -0.1495  0.1263
  826MOL0     C 8905   3.168   9.409   8.250  0.7013 -0.4278  1.0760
  826MOL0     C 8906   3.027   9.400   8.230 -0.0236 -0.8477  0.6321
  826MOL0     C 8907   2.944   9.383   8.336 -0.6231  0.8186  0.2568
  826MOL0     O 8908   2.810   9.392   8.333  0.7442 -0.1790 -0.3100
  826MOL0     C 8909   2.759   9.506   8.265 -0.0564  0.2160 -0.6284
  826MOL0     C 8910   2.608   9.510   8.280 -0.2717  0.2800 -0.9260
  826MOL0     C 8911   2.541   9.428   8.166  0.3317 -0.4169  0.3448
  826MOL0     C 8912   2.387   9.411   8.178 -0.4674  0.0914 -0.6586
  826MOL0     C 8913   2.336   9.310   8.080 -0.0183  1.1776 -0.2117
  826MOL0     C 8914   2.192   9.270   8.097  0.0494  0.2112 -0.2174
  826MOL0     C 8915   2.093   9.377   8.050  0.5922 -0.3560  0.2426
  826MOL0     C 8916   1.944   9.338   8.069  0.1502 -0.6351  1.0125
  826MOL0     N 8917   1.860   9.448   8.029 -0.2243  0.4775  1.1269
  826MOL0     C 8918   1.837   9.564   8.096 -0.1127 -0.6725  0.1933
  826MOL0     C 8919   1.747   9.632   8.018  0.7220  0.3294  0.0598
  826MOL0     C 8920   1.697   9.772   8.040  0.3257  0.0112 -0.2384
  826MOL0     C 8921   1.547   9.765   8.057  0.6694 -0.6175  0.6554
  826MOL0     C 8922   1.481   9.769   7.918 -0.4649  0.8823 -0.1494
  826MOL0     C 8923   1.329   9.788   7.930 -0.1267 -0.0398 -0.5475
  826MOL0     O 8924   1.295   9.829   7.798  0.0606  0.2731 -0.1226
  826MOL0     C 8925   1.171   9.885   7.782  0.6492  0.6338  0.0046
  826MOL0     C 8926   1.124   9.923   7.655 -0.7305  0.0346  0.3272
  826MOL0     C 8927   0.994   9.959   7.637 -0.7141 -0.9056  0.1685
  826MOL0     C 8928   0.908   9.984   7.741 -0.4713  0.8624  0.7540
  826MOL0     C 8929   0.771  10.025   7.710  1.2557 -0.3867  0.1643
  826MOL0     O 8930   0.731  10.028   7.572 -0.0475 -0.3611 -1.2305
  826MOL0     C 8931   0.603  10.022   7.523 -0.3152  0.3844 -0.7012
  826MOL0     C 8932   0.570  10.090   7.405  0.3326  0.2407 -0.0450
  826MOL0     C 8933   0.446  10.080   7.346 -0.1875 -0.7152  0.2962
  826MOL0     C 8934   0.349  10.005   7.405 -0.0972 -0.7363 -0.4690
  826MOL0     O 8935   0.233   9.991   7.329  0.0360  0.2630  0.0821
  826MOL0     C 8936   0.130   9.915   7.396 -1.1909 -0.1571  0.3008
  826MOL0     C 8937   0.010   9.882   7.306  1.0675 -0.5806  1.1754
  826MOL0     C 8938  -0.107   9.812   7.363  0.0410  0.2796  0.1527
  826MOL0     C 8939  -0.208   9.782   7.247 -0.3180 -0.0852  0.2308
  826MOL0     C 8940  -0.351   9.784   7.304 -0.8702 -0.2222 -0.1155
  826MOL0     C 8941  -0.403   9.923   7.329 -0.6302  0.1645  0.5712
  826MOL0     C 8942  -0.455   9.978   7.193  0.1006 -1.1185 -0.9215
  826MOL0     C 8943  -0.466  10.129   7.199  0.4970  0.2274 -0.2056
  826MOL0    Cl 8944  -0.310  10.212   7.239  0.0435 -0.3221 -0.1168
  826MOL0     C 8945   0.375   9.937   7.526  0.4216  0.5527  0.6269
  826MOL0     C 8946   0.504   9.943   7.580 -0.2014 -0.0741 -0.2742
  826MOL0     O 8947   0.695  10.045   7.801  0.6444 -0.3635  0.4919
  826MOL0     C 8948   0.955   9.947   7.874  0.9295  0.4404 -0.4056
  826MOL0     C 8949   1.071   9.886   7.884  0.3475  0.1485  0.5583
  826MOL0     N 8950   1.700   9.548   7.916 -0.7011 -0.2251 -0.6705
  826MOL0     N 8951   1.766   9.442   7.928  0.5586  0.0389  0.2564
  826MOL0     C 8952   2.999   9.343   8.456 -0.2189 -0.8493  0.2597
  826MOL0     C 8953   3.139   9.325   8.473 -0.7648 -0.4892  0.0442
  826MOL0     C 8954   3.574   9.298   8.286 -0.0303 -0.0160 -0.0716
  826MOL0     C 8955   3.659   9.214   8.212  0.0127  0.4013 -0.6087
  826MOL0     C 8956   3.802   9.228   8.209  0.2957  1.2097 -0.4635
  826MOL0     C 8957   3.861   9.331   8.288 -0.5333  0.4632 -0.0616
  826MOL0     O 8958   3.999   9.354   8.292 -0.0014 -0.8932 -0.1785
  826MOL0     C 8959   4.089   9.289   8.195  0.3366 -0.3962  0.3928
  826MOL0     C 8960   4.226   9.345   8.233  0.3620  0.0059 -0.4802
  826MOL0     C 8961   4.328   9.278   8.146  0.6148  0.4448  0.2952
  826MOL0     C 8962   4.460   9.345   8.176 -0.1604  0.1616 -0.2419
  826MOL0     C 8963   4.563   9.287   8.083  0.5688  0.6211  0.2778
  826MOL0     C 8964   4.647   9.242   8.012 -0.3397  0.7025  0.5766
  826MOL0     C 8965   3.782   9.404   8.376  0.2941  0.0253 -0.0149
  826MOL0     C 8966   3.642   9.389   8.371  0.6575  0.7998  0.7393
  826MOL0     H 8967   3.224   9.435   8.160 -2.4302 -0.4049 -1.0387
  826MOL0     H 8968   2.990   9.443   8.138  0.3178  3.2630  2.1718
  826MOL0     H 8969   2.779   9.490   8.158 -0.3791 -1.1070 -0.5163
  826MOL0     H 8970   2.809   9.594   8.304  2.5485 -1.3730 -0.1228
  826MOL0     H 8971   2.571   9.613   8.283 -0.8801  0.2406  4.8288
  826MOL0     H 8972   2.583   9.455   8.372  1.1404  1.7322  0.4093
  826MOL0     H 8973   2.587   9.330   8.186  3.9693  0.9691 -0.5351
  826MOL0     H 8974   2.575   9.473   8.073 -0.2705  0.2375  0.4356
  826MOL0     H 8975   2.352   9.382   8.278 -0.2034  0.5042 -0.4455
  826MOL0     H 8976   2.332   9.503   8.156 -0.1260  0.4449 -0.0515
  826MOL0     H 8977   2.401   9.224   8.097 -1.4159 -0.1593 -1.3305
  826MOL0     H 8978   2.340   9.344   7.976 -0.7501  1.9318 -0.0009
  826MOL0     H 8979   2.179   9.261   8.205  0.3507  2.0251  0.0146
  826MOL0     H 8980   2.166   9.175   8.050  0.1139  1.4015 -2.8290
  826MOL0     H 8981   2.112   9.459   8.120  1.9616 -0.7532  0.3684
  826MOL0     H 8982   2.116   9.406   7.947 -2.0374 -2.5230 -1.0851
  826MOL0     H 8983   1.930   9.308   8.173 -0.1333  1.2461  1.5554
  826MOL0     H 8984   1.916   9.253   8.005  0.1603 -0.0062  0.1490
  826MOL0     H 8985   1.889   9.596   8.186 -1.9900  0.6679  0.8500
  826MOL0     H 8986   1.730   9.846   7.967 -0.3841  2.8595  2.1084
  826MOL0     H 8987   1.748   9.812   8.128  0.8375  3.6907 -2.0155
  826MOL0     H 8988   1.524   9.849   8.124  0.9515 -0.6117  0.7447
  826MOL0     H 8989   1.529   9.668   8.102  1.2575 -0.6515  0.8143
  826MOL0     H 8990   1.519   9.856   7.864  2.8947 -1.1427 -1.3316
  826MOL0     H 8991   1.511   9.681   7.861  0.6318  1.8238 -1.0785
  826MOL0     H 8992   1.316   9.870   8.001  1.1847  0.3799 -0.7577
  826MOL0     H 8993   1.279   9.697   7.965  1.4745 -0.6752  0.1664
  826MOL0     H 8994   1.191   9.916   7.569  0.1280 -2.2604  1.0938
  826MOL0     H 8995   0.964   9.984   7.536 -0.1220 -0.5567  0.0745
  826MOL0     H 8996   0.640  10.153   7.351 -2.2436  2.0891 -1.5025
  826MOL0     H 8997   0.435  10.135   7.253  1.0698  0.2428  0.6865
  826MOL0     H 8998   0.099   9.970   7.485 -1.9096  3.0176 -1.7408
  826MOL0     H 8999   0.172   9.816   7.416 -0.6860  0.6598  3.9740
  826MOL0     H 9000   0.054   9.810   7.235  2.5505 -0.0483  1.5190
  826MOL0     H 9001  -0.021   9.971   7.251  0.4156 -2.5662 -2.0036
  826MOL0     H 9002  -0.154   9.880   7.435  0.7306  2.9398 -1.7733
  826MOL0     H 9003  -0.080   9.712   7.397  0.0740 -0.3250 -1.5427
  826MOL0     H 9004  -0.201   9.854   7.166  2.6131  1.5901  1.8262
  826MOL0     H 9005  -0.193   9.684   7.201 -2.0619 -0.0029 -0.6088
  826MOL0     H 9006  -0.329   9.727   7.395 -1.2844  0.5689  0.4924
  826MOL0     H 9007  -0.421   9.727   7.241 -1.1655  0.2807 -0.2474
  826MOL0     H 9008  -0.329   9.986   7.379 -0.4362 -2.5366  4.0170
  826MOL0     H 9009  -0.480   9.901   7.404 -0.8401 -1.4950 -0.0873
  826MOL0     H 9010  -0.404   9.936   7.106 -0.4003 -1.1321 -1.2131
  826MOL0     H 9011  -0.558   9.941   7.186 -0.6648  0.8898 -1.0527
  826MOL0     H 9012  -0.547  10.161   7.265  2.0825  1.8458  1.0434
  826MOL0     H 9013  -0.498  10.172   7.103 -2.4078  0.0449  0.5844
  826MOL0     H 9014   0.302   9.873   7.573 -0.5129 -0.1310 -1.6489
  826MOL0     H 9015   0.521   9.872   7.659  1.5950  0.0121 -0.5382
  826MOL0     H 9016   0.883   9.954   7.956 -1.3437 -1.0080 -2.1529
  826MOL0     H 9017   1.087   9.843   7.983  4.1697  0.5817  0.2978
  826MOL0     H 9018   2.930   9.327   8.538 -1.0880 -2.0473 -0.6854
  826MOL0     H 9019   3.192   9.301   8.565  0.0187  0.5702 -0.1208
  826MOL0     H 9020   3.618   9.144   8.140 -3.3898  0.9485  0.5666
  826MOL0     H 9021   3.863   9.177   8.136  4.9257  4.0196  0.9920
  826MOL0     H 9022   4.052   9.310   8.095 -0.8947 -1.6523  0.5570
  826MOL0     H 9023   4.082   9.181   8.211  1.1217 -0.4170  0.6398
  826MOL0     H 9024   4.234   9.452   8.212  3.0431  0.0473  0.3098
  826MOL0     H 9025   4.247   9.332   8.339  1.1806  0.7470 -0.5380
  826MOL0     H 9026   4.302   9.299   8.042  1.0695 -1.9814 -0.3521
  826MOL0     H 9027   4.337   9.171   8.163  2.7024  0.5746  0.1597
  826MOL0     H 9028   4.455   9.454   8.165 -0.5655  0.2697  0.9553
  826MOL0     H 9029   4.503   9.320   8.273 -0.5173 -3.6664 -0.9249
  826MOL0     H 9030   4.715   9.210   7.936 -2.4707  1.6796 -1.9076
  826MOL0     H 9031   3.832   9.475   8.441 -0.4137  0.6563 -0.1416
  826MOL0     H 9032   3.582   9.437   8.448  1.8683  1.7686  1.1190
  827MOL0     O 9033   9.825   1.447   8.989  0.5547  0.8591  0.5417
  827MOL0     C 9034   9.832   1.501   9.097  0.3290  0.8011  0.4514
  827MOL0     O 9035   9.733   1.521   9.189 -0.3916 -0.6774  0.1078
  827MOL0     C 9036   9.600   1.495   9.170  0.0366  0.5952  0.5483
  827MOL0     C 9037   9.526   1.459   9.277  0.3250  0.1942  0.2868
  827MOL0     C 9038   9.388   1.452   9.260 -1.0596  0.3684  0.7391
  827MOL0     C 9039   9.323   1.468   9.138  0.0861  0.1427 -0.5289
  827MOL0     O 9040   9.186   1.457   9.116  0.2930  0.4074 -0.2473
  827MOL0     C 9041   9.116   1.392   9.231  0.1844  0.3505  0.2530
  827MOL0     C 9042   8.972   1.375   9.180 -0.4940  0.3136  0.0351
  827MOL0     C 9043   8.871   1.350   9.292  0.8793  0.4685  0.8068
  827MOL0     C 9044   8.904   1.235   9.382  0.0796  0.0987  0.0681
  827MOL0     C 9045   8.806   1.194   9.497  0.2042 -0.1641 -0.8221
  827MOL0     C 9046   8.675   1.123   9.460  0.3263 -0.1041  0.4422
  827MOL0     C 9047   8.610   1.065   9.583  0.1708 -0.1557 -0.4172
  827MOL0     C 9048   8.531   1.175   9.655  0.4830 -0.1052 -0.0112
  827MOL0     N 9049   8.441   1.113   9.752  0.0238  0.1715  0.0467
  827MOL0     C 9050   8.320   1.058   9.708 -0.2343  0.7953  0.2546
  827MOL0     C 9051   8.274   0.982   9.811 -0.4609  0.6983 -0.4863
  827MOL0     C 9052   8.157   0.892   9.811 -0.2026  0.8534 -0.2902
  827MOL0     C 9053   8.140   0.815   9.948 -0.1651 -0.4930  0.2598
  827MOL0     C 9054   8.021   0.732   9.956 -0.4536  0.2209  0.5842
  827MOL0     C 9055   7.895   0.815   9.975  0.2940 -0.5976 -0.2353
  827MOL0     O 9056   7.783   0.721   9.978 -0.5631  0.4269 -0.3544
  827MOL0     C 9057   7.660   0.763  10.012  0.4281 -0.6284  0.2713
  827MOL0     C 9058   7.623   0.900  10.025  0.2379  0.4878 -0.6982
  827MOL0     C 9059   7.490   0.934  10.059 -0.5249 -0.3671 -0.1006
  827MOL0     C 9060   7.395   0.830  10.084 -0.5462 -1.0102 -0.6975
  827MOL0     C 9061   7.266   0.868  10.133 -0.6219 -0.6016  0.3708
  827MOL0     O 9062   7.182   0.758  10.151  0.5387 -0.2884  0.6182
  827MOL0     C 9063   7.044   0.770  10.191  0.0217  0.2291  0.6593
  827MOL0     C 9064   6.960   0.875  10.155 -0.7507  0.7231 -0.1986
  827MOL0     C 9065   6.823   0.877  10.194 -1.0422 -0.3368 -0.2701
  827MOL0     C 9066   6.765   0.760  10.247  0.3045  0.1428 -1.1890
  827MOL0     O 9067   6.628   0.762  10.281  0.2176  0.2760  0.0341
  827MOL0     C 9068   6.559   0.635  10.292 -0.0041  0.0418 -0.1358
  827MOL0     C 9069   6.399   0.663  10.305  0.1299 -0.0192  0.0864
  827MOL0     C 9070   6.358   0.740  10.425  0.0865 -0.0692 -0.0642
  827MOL0     C 9071   6.210   0.775  10.423 -0.7133  0.2399  0.1190
  827MOL0     C 9072   6.165   0.844  10.556 -0.6851  1.0566  0.2754
  827MOL0     C 9073   6.193   0.759  10.692  0.3117 -1.3212  1.3654
  827MOL0     C 9074   6.153   0.845  10.801  0.0992  0.0342 -0.0084
  827MOL0     C 9075   6.176   0.764  10.930 -0.3408  0.0715  0.6700
  827MOL0    Cl 9076   6.116   0.841  11.081 -0.4488  0.1626 -0.5364
  827MOL0     C 9077   6.846   0.657  10.276  0.5037  0.5228 -0.1487
  827MOL0     C 9078   6.981   0.665  10.240 -0.3370  0.7158 -0.9791
  827MOL0     O 9079   7.240   0.991  10.162 -0.2363 -0.2779  0.4990
  827MOL0     C 9080   7.435   0.693  10.069  0.2679 -0.5608 -0.1655
  827MOL0     C 9081   7.566   0.671  10.027 -0.5720  0.1128  1.0237
  827MOL0     N 9082   8.369   0.997   9.921 -0.2732 -0.3939  0.3875
  827MOL0     N 9083   8.468   1.077   9.880 -0.1728 -0.7131 -0.0858
  827MOL0     C 9084   9.401   1.503   9.025  0.0539 -0.1313 -0.6728
  827MOL0     C 9085   9.537   1.517   9.044 -0.7413  0.1225 -0.4228
  827MOL0     C 9086   9.971   1.538   9.133  0.2668  0.1646  0.9170
  827MOL0     C 9087  10.063   1.554   9.034 -0.1144 -0.1632 -0.0927
  827MOL0     C 9088  10.187   1.612   9.053 -0.0506 -1.0728  0.2499
  827MOL0     C 9089  10.221   1.646   9.182 -0.5703 -0.6003  0.0619
  827MOL0     O 9090  10.344   1.706   9.204 -0.4236  0.1227 -0.5865
  827MOL0     C 9091  10.446   1.594   9.226 -0.4759 -0.7486 -0.5308
  827MOL0     C 9092  10.585   1.646   9.234  0.8312  0.6438  0.6239
  827MOL0     C 9093  10.641   1.721   9.110 -0.4019 -0.6011 -0.4086
  827MOL0     C 9094  10.593   1.866   9.100  0.2010  0.0123 -0.2330
  827MOL0     C 9095  10.687   1.950   9.025  0.6741  0.3965 -0.0719
  827MOL0     C 9096  10.768   2.018   8.968 -0.6035  0.1759 -1.1704
  827MOL0     C 9097  10.130   1.623   9.291 -0.1737 -0.6673 -0.2571
  827MOL0     C 9098  10.002   1.573   9.268 -0.5214  0.3646  0.0299
  827MOL0     H 9099   9.559   1.441   9.379  1.2859 -1.4716 -0.2759
  827MOL0     H 9100   9.335   1.446   9.355 -1.3202  2.1547  0.7365
  827MOL0     H 9101   9.118   1.448   9.325 -3.0147  0.9171  0.1038
  827MOL0     H 9102   9.161   1.295   9.255  0.8652  0.7155  0.4717
  827MOL0     H 9103   8.970   1.301   9.100  3.3161 -0.1601  0.1864
  827MOL0     H 9104   8.938   1.470   9.136  0.6412  1.3901  1.3573
  827MOL0     H 9105   8.772   1.330   9.249  0.6589 -0.8761  1.8351
  827MOL0     H 9106   8.859   1.446   9.342 -0.7834  0.5759  0.2534
  827MOL0     H 9107   8.896   1.151   9.312 -0.9475  0.8189 -0.7095
  827MOL0     H 9108   9.005   1.244   9.423 -1.1879  0.1070  3.5338
  827MOL0     H 9109   8.786   1.278   9.565  3.5884 -2.8660  4.0917
  827MOL0     H 9110   8.867   1.126   9.557 -0.8776 -1.1527 -0.8055
  827MOL0     H 9111   8.700   1.037   9.397 -0.4459  0.4593 -0.6771
  827MOL0     H 9112   8.608   1.186   9.400  0.8688 -0.1787 -0.2592
  827MOL0     H 9113   8.552   0.983   9.541 -0.1506  1.0751 -2.5163
  827MOL0     H 9114   8.679   1.021   9.656  0.7705  1.7402  0.2297
  827MOL0     H 9115   8.466   1.233   9.589 -1.5910 -3.4786 -1.1751
  827MOL0     H 9116   8.596   1.247   9.705 -2.4393  2.0225  1.0452
  827MOL0     H 9117   8.269   1.071   9.613 -0.8153  0.7446  0.5529
  827MOL0     H 9118   8.162   0.819   9.730 -0.2303 -2.5976  2.5798
  827MOL0     H 9119   8.066   0.949   9.786 -0.7976 -0.4427 -1.2034
  827MOL0     H 9120   8.146   0.890  10.027  3.0182  0.1246 -0.4268
  827MOL0     H 9121   8.226   0.752   9.976 -1.7217 -2.4865  0.8029
  827MOL0     H 9122   8.023   0.681   9.859  2.1573 -0.5115  0.9591
  827MOL0     H 9123   8.029   0.658  10.037  1.3872  0.2631  0.4763
  827MOL0     H 9124   7.882   0.892   9.899  0.3770  1.1807  1.4786
  827MOL0     H 9125   7.898   0.873  10.067 -1.2874  2.5826 -2.0208
  827MOL0     H 9126   7.701   0.974  10.013  0.6860 -0.0014 -0.8340
  827MOL0     H 9127   7.472   1.037  10.086  3.3142 -0.2253  2.8783
  827MOL0     H 9128   7.000   0.967  10.113  1.2877 -0.0269 -0.0244
  827MOL0     H 9129   6.766   0.967  10.177  0.5654  0.9840  1.0060
  827MOL0     H 9130   6.597   0.589  10.384 -1.0701  0.0367  0.3168
  827MOL0     H 9131   6.573   0.571  10.205  2.3491 -1.4900  1.2508
  827MOL0     H 9132   6.333   0.577  10.298 -2.0207  1.4651  1.2983
  827MOL0     H 9133   6.379   0.714  10.210 -1.9239  1.3397  1.1938
  827MOL0     H 9134   6.427   0.822  10.448  0.4493 -0.7532  1.4024
  827MOL0     H 9135   6.374   0.674  10.510  1.2923 -0.1818 -0.3561
  827MOL0     H 9136   6.193   0.832  10.332  0.7285  0.5551  0.0179
  827MOL0     H 9137   6.165   0.676  10.408 -0.6481  0.4001 -1.2387
  827MOL0     H 9138   6.058   0.863  10.548 -0.7054  0.4437 -1.1323
  827MOL0     H 9139   6.219   0.938  10.548 -3.8987  2.9683 -0.8776
  827MOL0     H 9140   6.300   0.737  10.687  1.2846  2.4828  2.4970
  827MOL0     H 9141   6.128   0.671  10.686 -0.8880 -0.3888  0.0309
  827MOL0     H 9142   6.219   0.931  10.813  0.4550 -0.0237 -1.3645
  827MOL0     H 9143   6.051   0.882  10.791 -0.9740 -2.0623  1.9288
  827MOL0     H 9144   6.283   0.745  10.937 -0.2633 -0.6219 -1.6569
  827MOL0     H 9145   6.125   0.669  10.912  1.4277 -0.5084 -1.7339
  827MOL0     H 9146   6.807   0.564  10.317 -0.1627  0.6135 -0.5738
  827MOL0     H 9147   7.038   0.574  10.257 -2.3757 -0.5764 -0.7599
  827MOL0     H 9148   7.369   0.610  10.092 -3.6615  2.2005 -0.5322
  827MOL0     H 9149   7.601   0.568  10.020  3.6245  1.4160  0.3222
  827MOL0     H 9150   9.358   1.510   8.925  0.8533  3.1049 -0.8905
  827MOL0     H 9151   9.606   1.542   8.964  0.5226 -0.5689  0.4089
  827MOL0     H 9152  10.032   1.528   8.934  3.2484 -1.4665 -0.9064
  827MOL0     H 9153  10.260   1.640   8.977  0.1665 -0.1918  0.7656
  827MOL0     H 9154  10.427   1.515   9.153 -5.0214 -0.8975  0.4756
  827MOL0     H 9155  10.429   1.552   9.326  1.4227 -0.0665  0.1066
  827MOL0     H 9156  10.591   1.711   9.322  2.1169  3.1081 -1.1710
  827MOL0     H 9157  10.653   1.563   9.255  0.7910 -0.2885 -2.3758
  827MOL0     H 9158  10.602   1.662   9.026  3.4775 -4.0595 -0.0934
  827MOL0     H 9159  10.749   1.708   9.115 -0.4684 -0.8407  0.8158
  827MOL0     H 9160  10.487   1.867   9.073 -0.2791  0.2972  1.5444
  827MOL0     H 9161  10.594   1.902   9.203 -3.7357  0.4458 -0.1906
  827MOL0     H 9162  10.838   2.082   8.917  1.2535 -0.9325 -0.1411
  827MOL0     H 9163  10.184   1.629   9.386 -1.6153 -2.5304  0.7520
  827MOL0     H 9164   9.945   1.556   9.359  1.1003  0.0666  1.0381
  828MOL0     O 9165   6.431   4.677   9.376  0.2605  0.2009  0.2534
  828MOL0     C 9166   6.432   4.797   9.342 -0.5995 -0.1529 -1.3800
  828MOL0     O 9167   6.326   4.880   9.341  0.1731  0.5754  0.0939
  828MOL0     C 9168   6.201   4.830   9.347  0.1569 -0.1157 -0.0420
  828MOL0     C 9169   6.151   4.758   9.459 -0.1725  0.1100 -0.2530
  828MOL0     C 9170   6.019   4.708   9.458 -0.4726  0.3577  0.0280
  828MOL0     C 9171   5.939   4.743   9.354  0.1427 -0.1761  0.0733
  828MOL0     O 9172   5.818   4.689   9.353  0.5107 -0.5761  0.4319
  828MOL0     C 9173   5.716   4.761   9.279 -0.0845 -0.3014 -0.7272
  828MOL0     C 9174   5.584   4.728   9.335  0.3823  0.4866 -0.4973
  828MOL0     C 9175   5.470   4.788   9.250  0.0514  0.7232  0.1665
  828MOL0     C 9176   5.335   4.715   9.266 -0.0477  0.4468  1.6793
  828MOL0     C 9177   5.264   4.781   9.388  0.1030  0.2238  0.2465
  828MOL0     C 9178   5.175   4.678   9.473 -0.9502  0.9319  0.7422
  828MOL0     C 9179   5.144   4.733   9.612  0.4531 -0.5518 -0.5345
  828MOL0     C 9180   5.260   4.746   9.701 -0.4494  0.5466  0.4119
  828MOL0     N 9181   5.213   4.775   9.833  0.2534  0.1966 -0.7712
  828MOL0     C 9182   5.224   4.897   9.890  1.0885  0.2704 -0.3688
  828MOL0     C 9183   5.177   4.880  10.015  0.7240  0.1668  0.0407
  828MOL0     C 9184   5.164   4.981  10.118 -0.0110  0.3832  0.1516
  828MOL0     C 9185   5.049   5.082  10.090 -1.1334  0.0618  0.6797
  828MOL0     C 9186   4.913   5.025  10.111  0.3832  0.8287 -0.0129
  828MOL0     C 9187   4.800   5.111  10.050  0.2440 -0.2086 -0.7094
  828MOL0     O 9188   4.822   5.115   9.918 -0.2153  0.3141  0.7092
  828MOL0     C 9189   4.766   5.001   9.848 -0.6441 -0.6612  0.0520
  828MOL0     C 9190   4.624   4.969   9.847 -0.2710  0.5882 -0.0490
  828MOL0     C 9191   4.566   4.869   9.776  0.1132 -0.1104 -1.0270
  828MOL0     C 9192   4.639   4.777   9.703 -0.1840 -0.4249  0.2219
  828MOL0     C 9193   4.599   4.677   9.604 -0.8241 -0.5227 -1.2866
  828MOL0     O 9194   4.672   4.561   9.576  0.3170 -0.6501 -0.3046
  828MOL0     C 9195   4.642   4.478   9.473  0.3621  0.1869 -0.0768
  828MOL0     C 9196   4.515   4.429   9.452  0.1168  0.6312  0.6134
  828MOL0     C 9197   4.497   4.351   9.336  0.7734  0.7653  0.2194
  828MOL0     C 9198   4.606   4.313   9.257 -0.1671  0.6563 -0.3607
  828MOL0     O 9199   4.578   4.229   9.153 -0.0878  0.4004  0.3992
  828MOL0     C 9200   4.684   4.167   9.072 -0.2394  0.6742 -0.5185
  828MOL0     C 9201   4.641   4.082   8.956 -0.0567  0.0481  0.7584
  828MOL0     C 9202   4.755   3.993   8.908 -0.2526 -0.2541  1.1463
  828MOL0     C 9203   4.873   4.084   8.851  0.0719  0.0459  0.0495
  828MOL0     C 9204   4.993   3.999   8.805 -0.2302 -0.0658  0.0545
  828MOL0     C 9205   5.060   3.939   8.924 -0.0096 -0.4136 -0.5247
  828MOL0     C 9206   5.183   3.861   8.889  0.0717 -0.0968  0.4569
  828MOL0     C 9207   5.248   3.797   9.016  0.2710 -0.3292  0.2672
  828MOL0    Cl 9208   5.317   3.933   9.099 -0.1258  0.3345 -0.2879
  828MOL0     C 9209   4.738   4.348   9.294 -0.0018  0.1257 -0.2557
  828MOL0     C 9210   4.750   4.432   9.403  0.2545 -0.2062 -0.1681
  828MOL0     O 9211   4.494   4.709   9.552 -0.4825  0.1126 -0.7555
  828MOL0     C 9212   4.782   4.803   9.709 -0.0492  0.4228  0.0089
  828MOL0     C 9213   4.848   4.904   9.788 -0.3658 -0.5331 -0.5938
  828MOL0     N 9214   5.148   4.746  10.038 -0.4452 -0.1643  0.0391
  828MOL0     N 9215   5.168   4.691   9.925 -0.0826  0.2849 -0.2007
  828MOL0     C 9216   5.976   4.827   9.243 -0.4077 -0.3007  0.6987
  828MOL0     C 9217   6.110   4.868   9.244 -0.1281  0.7093 -0.1147
  828MOL0     C 9218   6.569   4.849   9.306  0.6942  1.3443 -1.2325
  828MOL0     C 9219   6.683   4.776   9.338 -0.8086 -0.8654  0.6303
  828MOL0     C 9220   6.806   4.835   9.317 -0.7095 -0.1027  1.0042
  828MOL0     C 9221   6.818   4.969   9.265  0.0421  0.7107  0.8530
  828MOL0     O 9222   6.930   5.036   9.236 -0.0959  0.4130  0.0856
  828MOL0     C 9223   7.051   5.011   9.300 -0.1495 -0.1210 -0.4390
  828MOL0     C 9224   7.054   5.068   9.444 -0.8218 -1.0275  0.1990
  828MOL0     C 9225   7.051   5.219   9.442  0.0703 -0.3109  0.6756
  828MOL0     C 9226   7.084   5.294   9.573 -1.1756  0.8167  0.4349
  828MOL0     C 9227   7.062   5.434   9.559 -0.2590  0.1403  1.1374
  828MOL0     C 9228   7.037   5.545   9.554  0.0057  0.0149  0.3201
  828MOL0     C 9229   6.701   5.033   9.220  0.0694 -0.1576  0.1985
  828MOL0     C 9230   6.573   4.969   9.247 -0.8093 -0.4968  0.6397
  828MOL0     H 9231   6.230   4.737   9.530  3.0986  0.4293 -3.4955
  828MOL0     H 9232   5.988   4.636   9.534  2.7545  1.0853  2.2077
  828MOL0     H 9233   5.713   4.730   9.174 -1.6935  1.5144 -1.2938
  828MOL0     H 9234   5.721   4.870   9.291 -0.3927 -0.2903 -0.6791
  828MOL0     H 9235   5.575   4.765   9.438 -0.3368  0.8444 -0.6781
  828MOL0     H 9236   5.579   4.619   9.328 -2.9993  0.4257  0.8600
  828MOL0     H 9237   5.505   4.796   9.147  0.6809 -1.3090  0.1822
  828MOL0     H 9238   5.461   4.893   9.280  1.6761  0.8410  0.3541
  828MOL0     H 9239   5.279   4.737   9.175  1.0474 -1.0146  0.6035
  828MOL0     H 9240   5.344   4.606   9.271 -0.5584  0.0742 -2.3439
  828MOL0     H 9241   5.208   4.869   9.355 -2.2486 -1.1348  0.3884
  828MOL0     H 9242   5.342   4.817   9.455  1.9907  1.2107 -2.3512
  828MOL0     H 9243   5.231   4.586   9.491 -0.9103  0.8842  0.3913
  828MOL0     H 9244   5.089   4.645   9.413 -0.4108  0.6898  0.0874
  828MOL0     H 9245   5.095   4.831   9.603  1.5519 -0.0464 -1.2606
  828MOL0     H 9246   5.072   4.661   9.653  0.7413 -0.7505 -0.3748
  828MOL0     H 9247   5.314   4.832   9.660 -2.9584  2.7347  1.3315
  828MOL0     H 9248   5.316   4.652   9.703  1.7205  1.7787  0.2105
  828MOL0     H 9249   5.248   4.992   9.845  1.3763 -0.1891 -1.2036
  828MOL0     H 9250   5.256   5.038  10.099  1.3625 -1.5636  0.6409
  828MOL0     H 9251   5.169   4.940  10.219 -1.1807 -1.2699 -0.4201
  828MOL0     H 9252   5.072   5.129   9.994  2.1822  1.7831  2.1593
  828MOL0     H 9253   5.066   5.167  10.157 -0.9889  2.5875 -2.3127
  828MOL0     H 9254   4.909   4.933  10.051 -1.9327 -1.0828  2.7927
  828MOL0     H 9255   4.890   4.990  10.212  2.1167 -0.9639 -0.1726
  828MOL0     H 9256   4.813   5.210  10.094  0.4528 -0.5147 -0.0610
  828MOL0     H 9257   4.701   5.073  10.078  0.3753  0.5666  0.9115
  828MOL0     H 9258   4.554   5.036   9.896  0.8943  2.2905 -0.6092
  828MOL0     H 9259   4.459   4.881   9.765  0.0061  2.8739  1.8099
  828MOL0     H 9260   4.435   4.464   9.518 -1.9803 -0.6387 -1.1461
  828MOL0     H 9261   4.396   4.312   9.320  1.3267 -0.6167 -0.0360
  828MOL0     H 9262   4.739   4.092   9.130 -3.4424 -2.8921 -1.7038
  828MOL0     H 9263   4.753   4.242   9.032  0.3840  0.0058 -0.7026
  828MOL0     H 9264   4.602   4.143   8.874  5.5448  1.3916 -1.3766
  828MOL0     H 9265   4.562   4.017   8.994  0.1004 -2.0157 -2.1079
  828MOL0     H 9266   4.722   3.931   8.824 -0.2426  0.1111  0.8724
  828MOL0     H 9267   4.800   3.946   8.996 -2.8631 -1.0684  2.1408
  828MOL0     H 9268   4.839   4.144   8.765  1.9999 -0.1880 -0.9244
  828MOL0     H 9269   4.907   4.164   8.918  2.1549 -0.0416 -0.8391
  828MOL0     H 9270   5.052   4.074   8.751 -2.9480  2.3138  0.1942
  828MOL0     H 9271   4.975   3.921   8.730 -1.2455 -0.4373  0.6662
  828MOL0     H 9272   4.994   3.873   8.982  0.5521  0.1815  0.8545
  828MOL0     H 9273   5.086   4.020   8.993 -0.5567 -0.6670 -0.0068
  828MOL0     H 9274   5.163   3.790   8.808 -3.4705  0.9947  0.2249
  828MOL0     H 9275   5.266   3.921   8.851 -1.0173  0.9354 -0.3262
  828MOL0     H 9276   5.328   3.730   8.983  4.0406  3.4717  0.8325
  828MOL0     H 9277   5.177   3.747   9.083  1.1003 -2.9969 -0.7075
  828MOL0     H 9278   4.828   4.320   9.240 -1.1740 -0.8515 -1.8209
  828MOL0     H 9279   4.848   4.475   9.422  0.7822 -0.0170 -2.8712
  828MOL0     H 9280   4.850   4.747   9.647  0.5018  3.2783 -2.1578
  828MOL0     H 9281   4.956   4.909   9.779 -0.4300 -1.6797 -2.5422
  828MOL0     H 9282   5.917   4.856   9.156  0.0843 -0.0956  0.4304
  828MOL0     H 9283   6.150   4.933   9.167 -0.5845  1.3277  0.1612
  828MOL0     H 9284   6.684   4.680   9.390  0.1212 -0.6655  0.9985
  828MOL0     H 9285   6.902   4.788   9.336  0.8997  2.2825 -0.6023
  828MOL0     H 9286   7.140   5.039   9.242  0.5508 -0.0022  0.6464
  828MOL0     H 9287   7.067   4.904   9.314  1.3088  0.4354  3.5013
  828MOL0     H 9288   6.973   5.030   9.507 -1.5326  0.4610  0.2287
  828MOL0     H 9289   7.147   5.027   9.484 -1.3698 -0.5156  2.1008
  828MOL0     H 9290   6.953   5.258   9.411  0.8864  4.4159  3.1310
  828MOL0     H 9291   7.127   5.253   9.372  0.0428 -1.7254 -0.0638
  828MOL0     H 9292   7.015   5.255   9.649  0.0129  0.6498  1.4549
  828MOL0     H 9293   7.184   5.269   9.610 -0.3791 -1.5099 -2.7831
  828MOL0     H 9294   7.007   5.648   9.551 -1.8002 -0.4648 -3.2988
  828MOL0     H 9295   6.715   5.128   9.170 -1.3205  0.4514  0.9155
  828MOL0     H 9296   6.477   5.008   9.215 -1.0035 -1.0946  0.4754
  829MOL0     O 9297   6.664   0.141  10.471 -0.9197  0.1445 -0.6045
  829MOL0     C 9298   6.759   0.123  10.553  0.4197 -0.1270  0.2816
  829MOL0     O 9299   6.745   0.069  10.672 -0.1685  0.1064 -0.0270
  829MOL0     C 9300   6.627   0.010  10.700  0.3461  0.7232  0.5552
  829MOL0     C 9301   6.510   0.086  10.711 -0.3438 -1.0342  0.2450
  829MOL0     C 9302   6.396   0.023  10.762 -0.7029 -0.1391  0.2994
  829MOL0     C 9303   6.390  -0.117  10.791 -0.1031  0.5441  1.1736
  829MOL0     O 9304   6.287  -0.183  10.854 -0.0041  0.1195 -0.1520
  829MOL0     C 9305   6.162  -0.109  10.866 -1.0888 -0.3901 -0.6058
  829MOL0     C 9306   6.076  -0.200  10.952  0.8826 -0.6139  0.2953
  829MOL0     C 9307   5.929  -0.150  10.965 -0.7832  0.1083 -0.2825
  829MOL0     C 9308   5.859  -0.226  11.085 -0.2673 -0.2144 -0.2453
  829MOL0     C 9309   5.712  -0.163  11.099  0.3836  0.1682  0.0374
  829MOL0     C 9310   5.643  -0.220  11.217  0.1016  1.1185 -0.4888
  829MOL0     C 9311   5.582  -0.346  11.175  0.9107  0.1104  1.2365
  829MOL0     C 9312   5.546  -0.442  11.286 -0.0202  0.3723  0.0092
  829MOL0     N 9313   5.431  -0.409  11.371  0.4959  0.7294 -0.0779
  829MOL0     C 9314   5.304  -0.439  11.328 -0.4873  1.0200  0.4792
  829MOL0     C 9315   5.225  -0.426  11.440  0.5070 -0.0644 -0.5110
  829MOL0     C 9316   5.073  -0.446  11.447  0.1169 -0.0692 -0.2275
  829MOL0     C 9317   5.042  -0.592  11.465 -0.9872 -0.0295  0.6931
  829MOL0     C 9318   4.892  -0.622  11.456  0.5878 -0.0609  0.7821
  829MOL0     C 9319   4.810  -0.584  11.578  0.2469  0.6458 -0.0276
  829MOL0     O 9320   4.689  -0.664  11.582 -0.3497  0.0411  0.4636
  829MOL0     C 9321   4.579  -0.648  11.663 -0.7810  0.0737 -0.2023
  829MOL0     C 9322   4.470  -0.739  11.641  0.2573  0.0859  0.3124
  829MOL0     C 9323   4.359  -0.737  11.718  0.2860 -0.3681 -0.3352
  829MOL0     C 9324   4.342  -0.644  11.820 -0.3249 -0.0830  0.4002
  829MOL0     C 9325   4.214  -0.632  11.900  0.4624  0.2425 -0.0539
  829MOL0     O 9326   4.181  -0.510  11.939 -0.8075  0.1891 -0.4581
  829MOL0     C 9327   4.055  -0.487  11.984 -0.1283  0.9069 -0.0210
  829MOL0     C 9328   4.046  -0.470  12.119 -0.5807 -0.1751  0.1046
  829MOL0     C 9329   3.921  -0.469  12.184  0.1911  0.6389  0.3137
  829MOL0     C 9330   3.809  -0.460  12.107 -0.7694  0.8078 -0.1293
  829MOL0     O 9331   3.693  -0.431  12.178  0.1483  0.2387  0.4981
  829MOL0     C 9332   3.605  -0.326  12.126 -0.5639  0.4611 -0.2450
  829MOL0     C 9333   3.461  -0.390  12.134 -0.3434 -0.4039 -0.0355
  829MOL0     C 9334   3.345  -0.296  12.177 -0.7446 -0.6165  0.7744
  829MOL0     C 9335   3.215  -0.360  12.207  0.7434  0.0780 -0.7078
  829MOL0     C 9336   3.118  -0.250  12.231 -0.1107 -0.1050  0.1309
  829MOL0     C 9337   2.977  -0.306  12.261 -0.6798  0.1038  0.0948
  829MOL0     C 9338   2.861  -0.225  12.208  0.0760  0.0754 -0.0895
  829MOL0     C 9339   2.722  -0.287  12.250  0.0894 -0.1405  0.6175
  829MOL0    Cl 9340   2.686  -0.403  12.116 -0.1713  0.1321 -0.2206
  829MOL0     C 9341   3.814  -0.472  11.967  0.1240  0.4444 -0.0980
  829MOL0     C 9342   3.936  -0.480  11.901 -0.8217 -0.1442  0.1842
  829MOL0     O 9343   4.149  -0.737  11.917 -0.4583 -1.1483  0.5455
  829MOL0     C 9344   4.445  -0.542  11.831 -0.0255  0.7629  0.5244
  829MOL0     C 9345   4.557  -0.541  11.750  0.0362  0.1563  1.3489
  829MOL0     N 9346   5.301  -0.379  11.546 -0.5308  0.3647  0.4171
  829MOL0     N 9347   5.422  -0.377  11.503 -1.2098  0.0390  0.2692
  829MOL0     C 9348   6.509  -0.194  10.768  1.5453 -0.4395  0.8859
  829MOL0     C 9349   6.621  -0.129  10.723  0.3556  0.1854  0.0554
  829MOL0     C 9350   6.894   0.191  10.524  0.4916 -0.2511  0.0308
  829MOL0     C 9351   6.976   0.225  10.635 -1.3137 -0.5296  0.5546
  829MOL0     C 9352   7.093   0.299  10.601  0.3804 -0.5744 -0.0181
  829MOL0     C 9353   7.149   0.317  10.468  0.1891  0.1731  0.0578
  829MOL0     O 9354   7.265   0.388  10.464  0.0164 -0.1388 -0.3391
  829MOL0     C 9355   7.344   0.383  10.347 -0.8733 -0.4083  0.0881
  829MOL0     C 9356   7.484   0.449  10.380 -0.4711 -0.4520  0.3738
  829MOL0     C 9357   7.559   0.382  10.496 -0.4283  0.9948  0.3234
  829MOL0     C 9358   7.667   0.470  10.564  0.8322  0.3775  0.0254
  829MOL0     C 9359   7.760   0.388  10.645 -0.1775  0.3766 -0.8378
  829MOL0     C 9360   7.841   0.311  10.692 -0.0077 -1.0382  1.0698
  829MOL0     C 9361   7.067   0.264  10.371 -0.0517  0.0188 -0.5281
  829MOL0     C 9362   6.939   0.216  10.390  0.3416  0.1725  0.8699
  829MOL0     H 9363   6.520   0.192  10.695  1.0263 -0.7078  2.7362
  829MOL0     H 9364   6.321   0.100  10.771  1.1950  1.8724 -0.2728
  829MOL0     H 9365   6.127  -0.096  10.763 -0.2675 -0.2043 -0.8659
  829MOL0     H 9366   6.178  -0.016  10.920 -1.6692 -1.3799  1.3593
  829MOL0     H 9367   6.126  -0.185  11.048 -1.4455  1.2764  1.3288
  829MOL0     H 9368   6.081  -0.303  10.915  0.2421 -0.8029  0.7213
  829MOL0     H 9369   5.877  -0.160  10.870  2.3276  0.0882 -2.1085
  829MOL0     H 9370   5.936  -0.041  10.977  0.9915  0.3472 -2.8022
  829MOL0     H 9371   5.856  -0.332  11.057 -0.1520 -0.0007 -1.1005
  829MOL0     H 9372   5.908  -0.201  11.179  0.8542 -2.6168 -0.1087
  829MOL0     H 9373   5.666  -0.184  11.002  2.3074 -5.5554 -0.0086
  829MOL0     H 9374   5.728  -0.056  11.118  1.2940 -0.2914  2.2010
  829MOL0     H 9375   5.577  -0.147  11.264  1.1635  0.9222  1.4383
  829MOL0     H 9376   5.718  -0.248  11.291  0.9494 -0.6873 -1.9609
  829MOL0     H 9377   5.490  -0.317  11.122 -0.9475  0.9352  4.6020
  829MOL0     H 9378   5.650  -0.396  11.106  0.1108  0.2308  0.3392
  829MOL0     H 9379   5.629  -0.445  11.357 -0.9656 -0.3278  1.1222
  829MOL0     H 9380   5.539  -0.545  11.248  0.0804  0.5259 -0.4297
  829MOL0     H 9381   5.279  -0.469  11.227  1.8322 -2.2871  0.7519
  829MOL0     H 9382   5.014  -0.416  11.360  0.6679  0.1724 -0.5197
  829MOL0     H 9383   5.027  -0.396  11.532  0.6652  1.4464 -0.8013
  829MOL0     H 9384   5.077  -0.632  11.561  0.3670  0.0964  0.2795
  829MOL0     H 9385   5.089  -0.650  11.385 -0.9616 -0.9778  1.3899
  829MOL0     H 9386   4.850  -0.587  11.361 -1.6247 -0.1763  1.6713
  829MOL0     H 9387   4.894  -0.731  11.456  1.3563 -0.1729 -2.5411
  829MOL0     H 9388   4.795  -0.476  11.572 -0.2470  0.5225 -1.5386
  829MOL0     H 9389   4.861  -0.604  11.673  0.9822 -2.1671 -0.9311
  829MOL0     H 9390   4.485  -0.825  11.577 -0.3975 -3.3899  4.4219
  829MOL0     H 9391   4.281  -0.812  11.710  0.3282 -0.4545  0.0454
  829MOL0     H 9392   4.141  -0.457  12.169 -1.0977  0.0833  1.0387
  829MOL0     H 9393   3.922  -0.453  12.291  0.2963  0.6186  0.3160
  829MOL0     H 9394   3.645  -0.290  12.031 -2.1383  0.8185 -0.7963
  829MOL0     H 9395   3.608  -0.246  12.201  2.8940 -0.8756  1.2453
  829MOL0     H 9396   3.466  -0.467  12.212  2.3876 -0.7415 -0.4654
  829MOL0     H 9397   3.432  -0.446  12.045  3.0192 -0.8054 -1.0171
  829MOL0     H 9398   3.346  -0.205  12.115  5.2858 -0.6491  0.1685
  829MOL0     H 9399   3.384  -0.247  12.268 -0.8036  1.2347 -0.1400
  829MOL0     H 9400   3.174  -0.420  12.126  0.4619 -0.8556  0.1113
  829MOL0     H 9401   3.207  -0.427  12.293  1.0783  1.9221  0.8255
  829MOL0     H 9402   3.124  -0.194  12.136  1.4685  2.3202  1.5393
  829MOL0     H 9403   3.152  -0.190  12.315 -0.1535 -1.2633  0.9930
  829MOL0     H 9404   2.968  -0.325  12.368 -0.4728 -3.8715 -0.4509
  829MOL0     H 9405   2.976  -0.407  12.219  0.2657 -2.1556  4.9046
  829MOL0     H 9406   2.865  -0.123  12.247 -1.8351  1.3446 -2.8945
  829MOL0     H 9407   2.864  -0.212  12.100 -2.7177  2.2315 -0.0212
  829MOL0     H 9408   2.646  -0.209  12.256 -0.6622 -0.8714  0.7938
  829MOL0     H 9409   2.738  -0.343  12.343  2.2076 -1.0368 -0.2197
  829MOL0     H 9410   3.723  -0.487  11.909  1.8491 -0.9118 -2.6572
  829MOL0     H 9411   3.941  -0.490  11.793 -1.8009  3.5983 -0.3379
  829MOL0     H 9412   4.425  -0.455  11.892  1.8433  0.7656  1.1815
  829MOL0     H 9413   4.635  -0.465  11.749  1.1719 -0.9206  2.5024
  829MOL0     H 9414   6.497  -0.300  10.788 -2.8191 -0.3410 -0.2652
  829MOL0     H 9415   6.707  -0.190  10.696 -1.9677 -2.9009 -1.0084
  829MOL0     H 9416   6.939   0.211  10.736  2.5999 -1.5143  2.0364
  829MOL0     H 9417   7.153   0.336  10.684  1.3221 -1.5922 -0.2355
  829MOL0     H 9418   7.300   0.448  10.270 -1.8380 -1.6305 -0.4374
  829MOL0     H 9419   7.362   0.282  10.311 -1.0167 -0.9783  1.5691
  829MOL0     H 9420   7.541   0.446  10.287 -2.6204 -1.0519 -0.9890
  829MOL0     H 9421   7.472   0.556  10.400  0.4665 -0.5642  1.7168
  829MOL0     H 9422   7.598   0.285  10.464  0.6542  1.8074 -0.8990
  829MOL0     H 9423   7.478   0.352  10.564 -1.6680  0.2279 -1.4284
  829MOL0     H 9424   7.727   0.518  10.486 -2.0293 -1.6235 -3.7451
  829MOL0     H 9425   7.628   0.551  10.626 -0.9862  0.2486 -0.8757
  829MOL0     H 9426   7.920   0.252  10.735  1.8280  1.7072  1.7543
  829MOL0     H 9427   7.102   0.277  10.269  0.2613 -0.9854 -0.5542
  829MOL0     H 9428   6.886   0.188  10.300  2.3536 -0.0015 -0.3117
  830MOL0     O 9429   5.423   3.396   0.342 -0.2433 -0.7525 -0.5836
  830MOL0     C 9430   5.487   3.321   0.277  0.5293  0.9390 -0.1909
  830MOL0     O 9431   5.440   3.243   0.171 -0.3869 -0.1382  0.4194
  830MOL0     C 9432   5.304   3.236   0.147  0.2648  0.3768 -0.5229
  830MOL0     C 9433   5.222   3.351   0.143  0.1063 -1.2332 -0.1640
  830MOL0     C 9434   5.091   3.350   0.106  0.6539  1.4144 -0.3842
  830MOL0     C 9435   5.027   3.225   0.080 -0.0643  0.1690  0.5932
  830MOL0     O 9436   4.897   3.204   0.038  0.3785  0.1952 -0.5504
  830MOL0     C 9437   4.807   3.307   0.090 -0.5340 -0.9308 -0.3155
  830MOL0     C 9438   4.676   3.244   0.126 -0.0016 -0.4781 -0.2352
  830MOL0     C 9439   4.587   3.338   0.208  0.1344 -0.3445 -0.8543
  830MOL0     C 9440   4.441   3.316   0.211 -0.0973  0.5205 -0.3536
  830MOL0     C 9441   4.386   3.427   0.311 -0.1131  0.0632 -0.0819
  830MOL0     C 9442   4.232   3.456   0.292 -0.4572  0.0918 -1.7008
  830MOL0     C 9443   4.180   3.553   0.395 -0.6456 -0.6428 -0.6028
  830MOL0     C 9444   4.034   3.614   0.377  0.7821  0.5938  0.2800
  830MOL0     N 9445   3.926   3.518   0.363 -1.1334 -0.6904 -0.5632
  830MOL0     C 9446   3.914   3.431   0.260  0.6167 -0.2032 -0.5443
  830MOL0     C 9447   3.809   3.352   0.290 -0.6181  0.5659  1.5525
  830MOL0     C 9448   3.771   3.241   0.204  0.3380  1.1334 -0.3617
  830MOL0     C 9449   3.620   3.219   0.181  0.1600  0.1350 -0.2217
  830MOL0     C 9450   3.569   3.317   0.069  0.0982 -0.4761  0.7292
  830MOL0     C 9451   3.424   3.285   0.029 -0.2501  0.3545 -0.0652
  830MOL0     O 9452   3.423   3.168  -0.048  0.1817  0.1523  0.2038
  830MOL0     C 9453   3.303   3.109  -0.085 -0.6058  0.2079 -0.0761
  830MOL0     C 9454   3.294   2.997  -0.166  0.0290 -0.0039 -0.1173
  830MOL0     C 9455   3.169   2.946  -0.205 -0.8989 -0.3976  0.0693
  830MOL0     C 9456   3.048   3.005  -0.175  0.6764 -0.3478  0.5260
  830MOL0     C 9457   2.920   2.951  -0.222 -0.0131 -0.1685 -0.5078
  830MOL0     O 9458   2.803   3.009  -0.180 -0.0820 -1.1059 -0.3099
  830MOL0     C 9459   2.680   2.958  -0.210 -0.7101 -0.5275  0.3835
  830MOL0     C 9460   2.577   3.043  -0.177  0.4503  0.1165 -0.4006
  830MOL0     C 9461   2.445   3.009  -0.187 -0.4218 -1.4298  0.0700
  830MOL0     C 9462   2.406   2.883  -0.242  0.0542 -0.1510 -0.0629
  830MOL0     O 9463   2.269   2.862  -0.263 -0.0081  0.2535 -0.1824
  830MOL0     C 9464   2.229   2.778  -0.368  0.1913  0.2121 -0.7836
  830MOL0     C 9465   2.080   2.801  -0.391  0.0301  1.1758  1.2286
  830MOL0     C 9466   2.020   2.713  -0.510  0.3571 -0.1072  0.1368
  830MOL0     C 9467   1.873   2.751  -0.504  0.4255 -0.2831 -0.6889
  830MOL0     C 9468   1.797   2.686  -0.614  0.6906  0.0345 -0.0493
  830MOL0     C 9469   1.650   2.692  -0.580  0.0869 -0.5997  0.5215
  830MOL0     C 9470   1.566   2.626  -0.690 -0.3157 -0.1187  0.4869
  830MOL0     C 9471   1.571   2.699  -0.829  0.1087  0.2614 -0.8397
  830MOL0    Cl 9472   1.495   2.871  -0.812  0.2479 -0.2186 -0.1743
  830MOL0     C 9473   2.508   2.793  -0.264 -0.1829  0.5439  0.6050
  830MOL0     C 9474   2.645   2.828  -0.241 -0.6627 -0.7536 -0.4371
  830MOL0     O 9475   2.929   2.846  -0.282  0.2467 -0.0005 -0.5615
  830MOL0     C 9476   3.062   3.122  -0.100  0.5528  0.3980 -0.6684
  830MOL0     C 9477   3.182   3.165  -0.051  0.3287  1.2178 -0.4998
  830MOL0     N 9478   3.765   3.396   0.411 -0.6133  0.1251  0.0287
  830MOL0     N 9479   3.832   3.497   0.457 -0.2016 -0.1202  0.7657
  830MOL0     C 9480   5.108   3.113   0.070  0.7179  1.1090 -0.6995
  830MOL0     C 9481   5.246   3.118   0.110 -0.6363  0.4996 -0.0758
  830MOL0     C 9482   5.629   3.314   0.322 -0.6903  0.7472 -0.0936
  830MOL0     C 9483   5.701   3.424   0.348  1.4229  0.1008  0.1403
  830MOL0     C 9484   5.832   3.413   0.393 -0.0202  0.3045 -0.1609
  830MOL0     C 9485   5.901   3.298   0.402 -0.3070 -0.4548  0.2374
  830MOL0     O 9486   6.029   3.298   0.458 -0.0717  0.3068  0.6516
  830MOL0     C 9487   6.100   3.178   0.485  0.5083  0.2212  0.6247
  830MOL0     C 9488   6.221   3.226   0.562  0.8019  0.1718  1.4993
  830MOL0     C 9489   6.297   3.102   0.609  0.0115 -0.3595 -0.5122
  830MOL0     C 9490   6.391   3.157   0.724 -0.1707  0.5218  1.0719
  830MOL0     C 9491   6.489   3.058   0.762  0.2896  0.2101  0.5397
  830MOL0     C 9492   6.576   2.980   0.798  0.9929  0.2761  0.6006
  830MOL0     C 9493   5.839   3.185   0.353 -0.4611 -0.2449  0.0421
  830MOL0     C 9494   5.700   3.191   0.310  0.0566  0.0497 -0.0329
  830MOL0     H 9495   5.269   3.446   0.161  0.9939 -1.7678  0.3840
  830MOL0     H 9496   5.041   3.445   0.096  1.0017  1.7278  0.6954
  830MOL0     H 9497   4.792   3.385   0.014 -1.9786  0.5570  1.4095
  830MOL0     H 9498   4.842   3.351   0.183 -2.0941  0.4590 -0.3396
  830MOL0     H 9499   4.693   3.159   0.192 -0.7292 -0.2471  0.2619
  830MOL0     H 9500   4.632   3.207   0.032  0.1005 -1.2469  0.0157
  830MOL0     H 9501   4.605   3.440   0.172  4.9480 -0.6686 -0.0903
  830MOL0     H 9502   4.626   3.343   0.310 -3.2114 -1.9261  0.6265
  830MOL0     H 9503   4.395   3.322   0.112  0.5426  0.1025 -0.6858
  830MOL0     H 9504   4.419   3.220   0.259  2.7361 -0.0773 -0.1063
  830MOL0     H 9505   4.446   3.517   0.300  0.7617 -0.3108  1.3539
  830MOL0     H 9506   4.407   3.390   0.412  2.9285 -2.0579 -1.3486
  830MOL0     H 9507   4.179   3.360   0.285 -0.0684 -0.4132  1.0090
  830MOL0     H 9508   4.220   3.511   0.199  0.3315 -1.7108 -2.9332
  830MOL0     H 9509   4.187   3.512   0.496 -0.8553  2.7749  0.9280
  830MOL0     H 9510   4.250   3.636   0.382 -1.7877  0.5850  0.7755
  830MOL0     H 9511   4.051   3.660   0.280  3.4365 -1.5283 -0.3937
  830MOL0     H 9512   4.015   3.685   0.458 -0.2760  2.9718 -1.9484
  830MOL0     H 9513   3.964   3.427   0.164 -2.1604 -1.2505 -2.0816
  830MOL0     H 9514   3.818   3.160   0.261  2.7584  1.0869 -2.2423
  830MOL0     H 9515   3.830   3.250   0.113  1.6561 -0.8527  0.2405
  830MOL0     H 9516   3.574   3.239   0.278  0.2858 -0.0295 -0.1279
  830MOL0     H 9517   3.606   3.114   0.157  0.0262  0.3114 -0.9468
  830MOL0     H 9518   3.566   3.423   0.095  3.3548  0.3638 -1.7147
  830MOL0     H 9519   3.636   3.309  -0.017  1.4098  3.1667  1.2630
  830MOL0     H 9520   3.388   3.372  -0.027  0.8480  0.6172 -0.3948
  830MOL0     H 9521   3.371   3.279   0.124 -0.9496  1.2667 -0.3806
  830MOL0     H 9522   3.374   2.925  -0.183 -0.2066  0.3738 -3.6571
  830MOL0     H 9523   3.172   2.849  -0.254  0.5255 -0.1317 -0.4323
  830MOL0     H 9524   2.592   3.136  -0.122  0.1853 -0.2485  0.3074
  830MOL0     H 9525   2.370   3.084  -0.164  0.5216 -0.5988  0.4811
  830MOL0     H 9526   2.249   2.677  -0.332 -0.1856  0.4680  0.1769
  830MOL0     H 9527   2.284   2.796  -0.461 -1.6228 -3.7163 -2.8710
  830MOL0     H 9528   2.060   2.908  -0.401  0.4810  1.0794 -1.5863
  830MOL0     H 9529   2.032   2.761  -0.301 -0.9797 -2.6252 -0.7621
  830MOL0     H 9530   2.045   2.607  -0.501 -0.6077 -0.3540  0.0601
  830MOL0     H 9531   2.067   2.743  -0.604  1.4631 -0.7938  0.4590
  830MOL0     H 9532   1.837   2.716  -0.406  1.5969 -1.2701 -0.5888
  830MOL0     H 9533   1.870   2.860  -0.514  0.6424 -0.3314 -1.3273
  830MOL0     H 9534   1.835   2.584  -0.626  2.3363  0.7012 -0.7259
  830MOL0     H 9535   1.812   2.739  -0.708 -0.9448 -1.7526 -1.3985
  830MOL0     H 9536   1.616   2.793  -0.554  0.4254 -0.6545  1.2193
  830MOL0     H 9537   1.635   2.627  -0.493  2.0932 -1.7523  0.0543
  830MOL0     H 9538   1.599   2.522  -0.699  2.6535  0.7946 -0.3580
  830MOL0     H 9539   1.466   2.616  -0.646  0.5529 -1.7761  2.2389
  830MOL0     H 9540   1.508   2.645  -0.900 -1.8124 -0.2887  1.1800
  830MOL0     H 9541   1.675   2.712  -0.860  0.2145  0.5882 -0.3711
  830MOL0     H 9542   2.497   2.699  -0.315  0.7656  1.1603 -0.8021
  830MOL0     H 9543   2.721   2.754  -0.265 -0.5286 -0.0575 -2.3496
  830MOL0     H 9544   2.967   3.166  -0.071 -0.9517 -3.1673  0.5184
  830MOL0     H 9545   3.163   3.250   0.014 -1.1882  1.7902 -1.6506
  830MOL0     H 9546   5.061   3.023   0.031 -3.4078  2.1313  1.3506
  830MOL0     H 9547   5.300   3.023   0.111 -3.6310 -1.3507  1.5818
  830MOL0     H 9548   5.669   3.527   0.348  1.6728  0.2190  2.0220
  830MOL0     H 9549   5.888   3.503   0.416  1.9564 -0.7915 -0.4514
  830MOL0     H 9550   6.126   3.130   0.390 -2.3639  0.1750 -0.2227
  830MOL0     H 9551   6.042   3.108   0.547  0.0240  0.3177  0.2873
  830MOL0     H 9552   6.278   3.304   0.511 -0.5886  1.1891  1.4180
  830MOL0     H 9553   6.187   3.267   0.657  3.4408  0.4947  2.3816
  830MOL0     H 9554   6.356   3.069   0.523 -1.1521 -1.5869 -0.8764
  830MOL0     H 9555   6.232   3.018   0.633  3.1059 -3.1760 -1.2124
  830MOL0     H 9556   6.436   3.249   0.687  0.4741 -0.6811 -1.3765
  830MOL0     H 9557   6.330   3.181   0.812 -2.1588  0.1239 -0.1115
  830MOL0     H 9558   6.647   2.908   0.832  1.2916  0.3821  0.2077
  830MOL0     H 9559   5.903   3.098   0.350  1.6744  1.2655 -1.5521
  830MOL0     H 9560   5.643   3.113   0.259 -0.1359  0.2400 -0.1120
  831MOL0     O 9561   0.385   9.814   2.942 -0.6784 -0.1099 -0.2635
  831MOL0     C 9562   0.459   9.717   2.957 -0.3789  0.7800 -0.5500
  831MOL0     O 9563   0.423   9.586   2.963  0.3457 -0.8702 -0.0907
  831MOL0     C 9564   0.290   9.549   2.960  0.2361 -0.0698 -0.0257
  831MOL0     C 9565   0.185   9.600   2.882  0.2962 -0.3801 -0.1621
  831MOL0     C 9566   0.057   9.525   2.878 -0.2973  0.4843  0.3157
  831MOL0     C 9567   0.035   9.404   2.944 -1.1003 -0.8681  0.4249
  831MOL0     O 9568  -0.086   9.339   2.951  1.1422  0.0812 -0.4105
  831MOL0     C 9569  -0.205   9.382   2.888  0.9979 -0.0841  0.3585
  831MOL0     C 9570  -0.330   9.309   2.946  0.6237  0.7782  0.4936
  831MOL0     C 9571  -0.465   9.337   2.881  0.0628 -0.2095  0.6569
  831MOL0     C 9572  -0.577   9.275   2.963 -0.1492 -0.1985 -0.4784
  831MOL0     C 9573  -0.714   9.292   2.914 -0.0124 -0.5246 -0.1114
  831MOL0     C 9574  -0.773   9.434   2.926 -0.2119 -0.0941 -0.2943
  831MOL0     C 9575  -0.900   9.469   2.843 -0.6316  0.3095  0.7331
  831MOL0     C 9576  -1.022   9.394   2.905 -0.0523 -0.3461 -0.0354
  831MOL0     N 9577  -1.141   9.420   2.821 -0.0757 -0.2584  0.0568
  831MOL0     C 9578  -1.249   9.339   2.813 -0.2523 -0.3489  0.1856
  831MOL0     C 9579  -1.337   9.403   2.726  0.8196  0.2290 -0.1741
  831MOL0     C 9580  -1.475   9.360   2.690 -0.4245  0.8980  0.2677
  831MOL0     C 9581  -1.568   9.474   2.655 -0.5311 -0.0934 -0.2238
  831MOL0     C 9582  -1.714   9.431   2.635 -0.3109  0.8264  0.2783
  831MOL0     C 9583  -1.805   9.548   2.598 -0.1697  0.2677 -0.2088
  831MOL0     O 9584  -1.787   9.634   2.710 -0.4085 -0.3026  0.2293
  831MOL0     C 9585  -1.903   9.694   2.745  0.6340 -0.3627 -0.3588
  831MOL0     C 9586  -1.921   9.837   2.725  0.2654  0.0538  1.3956
  831MOL0     C 9587  -2.044   9.899   2.757 -0.3485 -0.3579 -0.4148
  831MOL0     C 9588  -2.144   9.826   2.814 -0.3285 -0.3879 -0.6144
  831MOL0     C 9589  -2.262   9.886   2.853 -0.7033 -0.3423  0.2458
  831MOL0     O 9590  -2.352   9.816   2.929 -0.7225 -0.7425  0.4822
  831MOL0     C 9591  -2.469   9.871   2.961  0.3974  0.2321  0.4228
  831MOL0     C 9592  -2.580   9.876   2.884  0.1859 -0.1766 -0.1681
  831MOL0     C 9593  -2.707   9.920   2.936 -0.6022  0.1577 -0.0218
  831MOL0     C 9594  -2.720   9.963   3.066  0.9104  0.4170  0.2078
  831MOL0     O 9595  -2.841   9.999   3.128  0.4279  0.3468  0.1131
  831MOL0     C 9596  -2.931  10.068   3.039 -0.6707 -0.1895 -0.9044
  831MOL0     C 9597  -3.019  10.162   3.126 -1.4694  0.1210 -0.4301
  831MOL0     C 9598  -3.155  10.215   3.062 -0.5473  0.5813 -0.5055
  831MOL0     C 9599  -3.204  10.328   3.161 -0.1090  0.9807 -0.4234
  831MOL0     C 9600  -3.268  10.278   3.287 -0.7776 -1.1551  0.0013
  831MOL0     C 9601  -3.373  10.373   3.339 -0.2731 -0.4759  0.0173
  831MOL0     C 9602  -3.452  10.312   3.454 -0.2341 -0.6346 -0.0315
  831MOL0     C 9603  -3.533  10.419   3.519  0.0785 -0.8557 -0.6627
  831MOL0    Cl 9604  -3.626  10.351   3.658 -0.4134 -0.2791 -0.2616
  831MOL0     C 9605  -2.602   9.967   3.143 -0.0198  0.1831 -0.4360
  831MOL0     C 9606  -2.484   9.909   3.094  0.7471  0.3555 -1.4918
  831MOL0     O 9607  -2.280  10.004   2.812  0.1724  0.4775 -0.1938
  831MOL0     C 9608  -2.127   9.687   2.828  0.8769  0.5998  0.2907
  831MOL0     C 9609  -2.013   9.620   2.794 -0.1606 -0.0698  0.8506
  831MOL0     N 9610  -1.274   9.520   2.680 -0.8024  0.6726 -0.2165
  831MOL0     N 9611  -1.151   9.522   2.733 -0.6926 -0.2597 -0.9190
  831MOL0     C 9612   0.141   9.358   3.023 -0.1156 -0.0680 -0.3650
  831MOL0     C 9613   0.262   9.427   3.026 -0.2431 -0.4345  0.2141
  831MOL0     C 9614   0.606   9.733   2.953  0.3101  0.3289  0.6625
  831MOL0     C 9615   0.654   9.836   2.878 -0.1577 -0.4244  0.3043
  831MOL0     C 9616   0.795   9.842   2.856  0.5195  0.4024 -0.0312
  831MOL0     C 9617   0.878   9.755   2.924 -0.2266  0.2948 -0.0012
  831MOL0     O 9618   1.020   9.771   2.907 -0.0638  0.0841 -0.2484
  831MOL0     C 9619   1.102   9.652   2.927 -0.3232  0.1378  0.6386
  831MOL0     C 9620   1.163   9.641   3.070  0.6065  0.6322 -0.4242
  831MOL0     C 9621   1.268   9.743   3.115  0.2129  0.2889  0.8077
  831MOL0     C 9622   1.267   9.784   3.264  0.3407 -0.9087  0.8027
  831MOL0     C 9623   1.275   9.663   3.341  0.4335 -0.8215 -0.3215
  831MOL0     C 9624   1.291   9.585   3.436  0.4014  0.7248 -0.5053
  831MOL0     C 9625   0.829   9.640   2.987  0.6458 -0.1254  0.6285
  831MOL0     C 9626   0.690   9.624   3.002 -0.7430 -0.5299 -0.1008
  831MOL0     H 9627   0.201   9.690   2.824  0.4902  0.6932  1.4816
  831MOL0     H 9628  -0.022   9.576   2.825  0.1248  2.8350  1.8082
  831MOL0     H 9629  -0.197   9.357   2.782  0.3672  1.2203 -0.0063
  831MOL0     H 9630  -0.215   9.489   2.907 -2.1000 -0.2963  0.4307
  831MOL0     H 9631  -0.345   9.331   3.052  1.1505  2.1474  0.3099
  831MOL0     H 9632  -0.313   9.205   2.918 -3.5136  0.3608 -1.0618
  831MOL0     H 9633  -0.473   9.303   2.777 -1.0453  0.1998  0.5918
  831MOL0     H 9634  -0.460   9.446   2.892  1.1826 -0.3229  1.4454
  831MOL0     H 9635  -0.555   9.173   2.997  5.1868  1.5207  2.4001
  831MOL0     H 9636  -0.567   9.325   3.060  0.7579 -0.4251 -0.4440
  831MOL0     H 9637  -0.780   9.226   2.970 -1.6077 -0.3216 -1.6709
  831MOL0     H 9638  -0.733   9.265   2.810 -3.0636  1.4329 -0.1824
  831MOL0     H 9639  -0.693   9.495   2.882 -0.0219 -1.3264 -1.7750
  831MOL0     H 9640  -0.796   9.464   3.028 -1.4943 -2.9744  0.3589
  831MOL0     H 9641  -0.908   9.577   2.860  0.4885  0.7265 -1.0699
  831MOL0     H 9642  -0.879   9.437   2.740 -3.4480  2.2510 -0.5783
  831MOL0     H 9643  -1.040   9.416   3.011  2.1704 -0.1112  0.3343
  831MOL0     H 9644  -1.011   9.287   2.884  0.3089 -0.5701  1.2199
  831MOL0     H 9645  -1.260   9.245   2.867 -2.2895 -1.2673 -1.6590
  831MOL0     H 9646  -1.506   9.306   2.780  0.8827 -0.7381 -0.2047
  831MOL0     H 9647  -1.474   9.287   2.609 -1.5148 -0.6784  1.6185
  831MOL0     H 9648  -1.536   9.526   2.565  4.2174 -0.6154  0.8811
  831MOL0     H 9649  -1.561   9.547   2.736  2.4239  4.6375 -4.2214
  831MOL0     H 9650  -1.717   9.356   2.556 -1.2887 -0.6003  1.6118
  831MOL0     H 9651  -1.744   9.388   2.731  3.1093 -0.9064  0.7039
  831MOL0     H 9652  -1.908   9.513   2.591 -0.3055  0.3707  0.9618
  831MOL0     H 9653  -1.773   9.611   2.515  1.2967 -0.1903 -0.0139
  831MOL0     H 9654  -1.833   9.890   2.690  0.3751 -0.9166  0.1285
  831MOL0     H 9655  -2.047  10.007   2.749  2.6595 -0.2466 -1.1978
  831MOL0     H 9656  -2.584   9.864   2.776 -1.0415  0.4759 -0.2136
  831MOL0     H 9657  -2.796   9.905   2.876 -1.0041  4.0104 -0.6169
  831MOL0     H 9658  -2.989  10.003   2.972 -0.1388  0.1776 -1.7365
  831MOL0     H 9659  -2.869  10.134   2.979  1.4892 -0.3397  1.0477
  831MOL0     H 9660  -2.955  10.246   3.155  0.4405 -1.1431 -0.7642
  831MOL0     H 9661  -3.044  10.110   3.219 -0.8040 -1.1527 -0.9413
  831MOL0     H 9662  -3.233  10.139   3.053  0.2906 -0.3766  0.1701
  831MOL0     H 9663  -3.132  10.252   2.962  2.0954 -2.4845 -1.1865
  831MOL0     H 9664  -3.123  10.399   3.178 -0.2983  1.0666  0.1284
  831MOL0     H 9665  -3.285  10.372   3.101  2.7163  1.4571 -4.2265
  831MOL0     H 9666  -3.193  10.270   3.367 -1.4507 -0.3870  0.7266
  831MOL0     H 9667  -3.308  10.177   3.279 -0.4878 -2.0019  5.2469
  831MOL0     H 9668  -3.446  10.381   3.257 -0.0562  0.9285 -0.0568
  831MOL0     H 9669  -3.334  10.472   3.363 -3.8388  0.9644  0.5666
  831MOL0     H 9670  -3.516  10.229   3.423 -0.0895 -1.9594  2.9490
  831MOL0     H 9671  -3.383  10.272   3.528  0.0289  0.7066  0.4864
  831MOL0     H 9672  -3.598  10.478   3.454  2.5333  1.5515 -1.1561
  831MOL0     H 9673  -3.462  10.486   3.569 -1.2982 -0.2147  0.4908
  831MOL0     H 9674  -2.610   9.998   3.246 -0.0304 -2.9637  0.6217
  831MOL0     H 9675  -2.406   9.879   3.164 -0.6431 -1.5347 -0.6661
  831MOL0     H 9676  -2.212   9.642   2.879  1.0052 -0.2423 -0.2234
  831MOL0     H 9677  -2.001   9.513   2.810 -2.4238 -0.4261  0.4316
  831MOL0     H 9678   0.120   9.264   3.073  1.8073  0.5166  1.6607
  831MOL0     H 9679   0.336   9.382   3.091  0.2526 -1.1457 -0.8205
  831MOL0     H 9680   0.588   9.890   2.811  0.6222  0.3397  0.1352
  831MOL0     H 9681   0.838   9.913   2.786  0.7967 -1.7589 -2.1971
  831MOL0     H 9682   1.192   9.653   2.864  1.0942 -4.4668  2.2300
  831MOL0     H 9683   1.061   9.555   2.899  2.3178 -0.8615 -0.0493
  831MOL0     H 9684   1.083   9.640   3.144 -0.4729  1.8400 -1.5180
  831MOL0     H 9685   1.207   9.541   3.074 -1.9497 -0.5402  0.6430
  831MOL0     H 9686   1.240   9.826   3.050 -1.6739 -1.4451 -0.7199
  831MOL0     H 9687   1.365   9.703   3.087  0.6330  0.6233  1.7591
  831MOL0     H 9688   1.359   9.840   3.281  1.7199 -2.0497 -2.2265
  831MOL0     H 9689   1.176   9.838   3.292  0.6159 -0.1043  0.1855
  831MOL0     H 9690   1.304   9.516   3.517 -1.4920 -1.1986 -1.7393
  831MOL0     H 9691   0.878   9.554   3.033 -1.6593 -2.4720 -1.0424
  831MOL0     H 9692   0.647   9.544   3.061 -2.4214  1.1104  1.0172
  832MOL0     O 9693   1.938   9.567   1.033  0.7186  0.0215 -0.3464
  832MOL0     C 9694   1.988   9.554   0.917 -0.2012 -0.3839 -0.1435
  832MOL0     O 9695   1.932   9.473   0.822 -0.1623  0.5929 -0.2616
  832MOL0     C 9696   1.829   9.390   0.858  0.2138 -0.8982 -0.4727
  832MOL0     C 9697   1.822   9.303   0.966 -0.0538  0.2651  0.2741
  832MOL0     C 9698   1.717   9.217   0.987  0.5878  0.1565 -0.3105
  832MOL0     C 9699   1.609   9.230   0.891 -0.0611 -0.7233 -0.5436
  832MOL0     O 9700   1.489   9.169   0.910  0.0673  0.5636  0.2952
  832MOL0     C 9701   1.484   9.034   0.959 -0.0039  0.4634  0.5624
  832MOL0     C 9702   1.418   9.045   1.094 -0.2619 -0.6827 -0.3579
  832MOL0     C 9703   1.383   8.900   1.143 -0.2934  0.2341 -0.5913
  832MOL0     C 9704   1.280   8.916   1.253 -0.6434 -0.8782 -0.0342
  832MOL0     C 9705   1.200   8.783   1.268  0.4652 -0.2757  0.0892
  832MOL0     C 9706   1.119   8.778   1.401 -0.5478 -0.1002 -0.0872
  832MOL0     C 9707   0.974   8.830   1.379 -0.2026 -0.2383  0.0118
  832MOL0     C 9708   0.887   8.827   1.501 -0.0849  0.0815  0.2745
  832MOL0     N 9709   0.741   8.838   1.474 -1.0686 -0.4741  0.3321
  832MOL0     C 9710   0.672   8.939   1.418  0.9685  0.3194  0.4297
  832MOL0     C 9711   0.554   8.892   1.383 -0.5688 -0.5770  0.6748
  832MOL0     C 9712   0.444   8.955   1.304 -0.5160  0.2967  0.5211
  832MOL0     C 9713   0.345   8.851   1.237 -0.6790  0.4828 -0.4408
  832MOL0     C 9714   0.237   8.922   1.168  1.7046  0.9591  0.4120
  832MOL0     C 9715   0.151   8.820   1.097 -0.5172  0.5865 -0.0523
  832MOL0     O 9716   0.049   8.893   1.029  0.1713 -0.4662  0.1775
  832MOL0     C 9717  -0.053   8.830   0.952 -0.5044 -0.8321  0.3293
  832MOL0     C 9718  -0.058   8.698   0.913  0.4002 -0.1251 -0.5858
  832MOL0     C 9719  -0.170   8.651   0.844  0.5882  0.1139 -0.1403
  832MOL0     C 9720  -0.273   8.743   0.800  0.0062 -0.0944  0.0223
  832MOL0     C 9721  -0.400   8.700   0.746 -0.6436 -0.4339  0.3695
  832MOL0     O 9722  -0.477   8.797   0.685 -0.0834 -0.2348  0.5192
  832MOL0     C 9723  -0.607   8.770   0.656  0.5404  0.4042 -0.0654
  832MOL0     C 9724  -0.648   8.798   0.521  0.1436 -0.6896  0.1678
  832MOL0     C 9725  -0.780   8.767   0.476 -1.1384 -0.0736  0.3262
  832MOL0     C 9726  -0.868   8.724   0.574 -0.9575 -0.3125  0.0222
  832MOL0     O 9727  -0.999   8.706   0.540  0.0933  0.4612  0.8626
  832MOL0     C 9728  -1.036   8.602   0.443 -0.2679 -0.7133 -0.3371
  832MOL0     C 9729  -1.175   8.570   0.468  0.6303 -0.5077 -0.2343
  832MOL0     C 9730  -1.228   8.471   0.360 -0.7631 -1.0388  0.3827
  832MOL0     C 9731  -1.377   8.427   0.388 -0.1253 -0.6511 -0.1122
  832MOL0     C 9732  -1.409   8.356   0.522 -0.3760  0.0421 -1.0482
  832MOL0     C 9733  -1.558   8.306   0.534 -0.3681  0.5080 -0.4910
  832MOL0     C 9734  -1.584   8.240   0.671 -0.4569  0.1815  0.1550
  832MOL0     C 9735  -1.723   8.210   0.712 -0.2303  0.1352  0.5330
  832MOL0    Cl 9736  -1.805   8.361   0.764  0.6071  0.3412  0.1878
  832MOL0     C 9737  -0.830   8.702   0.708  0.3098 -0.8897  0.2056
  832MOL0     C 9738  -0.703   8.732   0.753  0.6602  0.4095  1.1582
  832MOL0     O 9739  -0.432   8.584   0.753 -0.7800  0.4122 -0.3036
  832MOL0     C 9740  -0.253   8.876   0.825  0.1776  0.0310  0.2732
  832MOL0     C 9741  -0.149   8.921   0.905  0.8297 -0.1578 -0.5391
  832MOL0     N 9742   0.545   8.764   1.433 -0.0306 -0.0474 -1.1115
  832MOL0     N 9743   0.659   8.727   1.483 -0.3203 -0.8605  1.0674
  832MOL0     C 9744   1.615   9.324   0.791 -0.4346  0.6170 -0.0933
  832MOL0     C 9745   1.726   9.396   0.768 -0.1854 -0.0633 -0.9493
  832MOL0     C 9746   2.109   9.616   0.872 -0.0035 -0.4996 -0.6963
  832MOL0     C 9747   2.131   9.625   0.731  0.1944 -0.7170 -1.4024
  832MOL0     C 9748   2.246   9.682   0.682  0.2124  0.0598  0.4685
  832MOL0     C 9749   2.344   9.726   0.771 -0.6710 -0.1184 -0.2006
  832MOL0     O 9750   2.463   9.758   0.716 -0.0981 -0.0674  0.1960
  832MOL0     C 9751   2.579   9.740   0.789  1.2636 -0.6162 -0.4697
  832MOL0     C 9752   2.678   9.686   0.699 -0.5956  0.2637 -0.4652
  832MOL0     C 9753   2.765   9.576   0.759  0.0240 -0.1736 -0.3222
  832MOL0     C 9754   2.863   9.521   0.650 -0.7929  1.3113  0.2235
  832MOL0     C 9755   2.978   9.602   0.631 -0.2253 -0.4745 -0.2469
  832MOL0     C 9756   3.074   9.666   0.607 -0.2799  0.1433  0.3689
  832MOL0     C 9757   2.323   9.710   0.908 -0.4775 -0.5659  0.5393
  832MOL0     C 9758   2.211   9.659   0.958  0.0866  0.3174 -0.1125
  832MOL0     H 9759   1.902   9.325   1.035  1.3002  2.3771 -1.8262
  832MOL0     H 9760   1.708   9.148   1.071  1.4846 -0.1576 -0.4621
  832MOL0     H 9761   1.576   8.977   0.967 -1.3275 -1.7740  0.7218
  832MOL0     H 9762   1.424   8.975   0.888  1.5758  0.6176 -0.9713
  832MOL0     H 9763   1.323   9.097   1.077  0.4980  0.9620  0.2916
  832MOL0     H 9764   1.481   9.099   1.165 -0.0802 -0.9887 -0.2859
  832MOL0     H 9765   1.468   8.846   1.187  0.9362  0.4721 -2.5601
  832MOL0     H 9766   1.339   8.838   1.065 -0.3045 -0.0856 -0.3302
  832MOL0     H 9767   1.331   8.945   1.345 -1.5286  3.5695 -0.7017
  832MOL0     H 9768   1.215   8.996   1.216  1.0669 -0.2448 -1.8663
  832MOL0     H 9769   1.265   8.696   1.266 -1.8773 -2.1000 -1.4741
  832MOL0     H 9770   1.130   8.768   1.186 -1.7182  1.2195  1.5631
  832MOL0     H 9771   1.162   8.841   1.480 -1.9251 -1.6578  2.0112
  832MOL0     H 9772   1.110   8.679   1.447 -0.6354 -0.2208 -0.3634
  832MOL0     H 9773   0.988   8.933   1.346 -1.1702 -0.0726  0.0972
  832MOL0     H 9774   0.932   8.767   1.300  2.0781  0.7633 -2.1366
  832MOL0     H 9775   0.908   8.915   1.563 -1.0129 -0.6619  1.7036
  832MOL0     H 9776   0.911   8.736   1.557  5.0920  0.7581 -0.3779
  832MOL0     H 9777   0.700   9.039   1.387  1.2142  0.7917  2.1043
  832MOL0     H 9778   0.500   9.009   1.228 -1.3354  0.9930  0.3989
  832MOL0     H 9779   0.392   9.024   1.371  1.4929  2.6583 -0.2060
  832MOL0     H 9780   0.304   8.792   1.319 -1.3491  0.9233 -0.4539
  832MOL0     H 9781   0.404   8.783   1.173  1.3376  0.6022  1.1691
  832MOL0     H 9782   0.179   8.983   1.237  0.6447 -0.7578  1.1059
  832MOL0     H 9783   0.277   8.985   1.088  0.6690  2.1234  0.7811
  832MOL0     H 9784   0.110   8.749   1.169 -0.6409  0.6927 -0.0171
  832MOL0     H 9785   0.216   8.771   1.024 -1.4444  0.0042 -0.5121
  832MOL0     H 9786   0.022   8.633   0.944 -0.4427 -0.3099  1.3655
  832MOL0     H 9787  -0.198   8.548   0.826 -0.1409  0.4413 -0.9506
  832MOL0     H 9788  -0.572   8.821   0.447 -0.4244 -0.8328 -0.4756
  832MOL0     H 9789  -0.816   8.786   0.375  0.5701  2.5569  0.0915
  832MOL0     H 9790  -0.967   8.517   0.439  2.9834  1.7286 -0.1102
  832MOL0     H 9791  -1.038   8.640   0.340  1.1066 -3.7153 -1.5939
  832MOL0     H 9792  -1.242   8.657   0.469  1.9761  0.5552  0.1262
  832MOL0     H 9793  -1.185   8.517   0.564  0.7867  0.1872  0.1759
  832MOL0     H 9794  -1.150   8.394   0.357  0.5727  0.2285 -2.8105
  832MOL0     H 9795  -1.220   8.521   0.263 -0.6082  1.8510  1.7899
  832MOL0     H 9796  -1.435   8.519   0.384  0.0440 -0.5791 -1.1910
  832MOL0     H 9797  -1.401   8.366   0.301 -1.5847 -0.4660  0.1262
  832MOL0     H 9798  -1.392   8.419   0.609 -1.4344 -1.1518  0.0804
  832MOL0     H 9799  -1.359   8.259   0.523  0.2967  0.3412 -2.4473
  832MOL0     H 9800  -1.572   8.234   0.453 -2.3846 -0.6477  0.8187
  832MOL0     H 9801  -1.623   8.393   0.524  1.0660  1.8901  1.4203
  832MOL0     H 9802  -1.520   8.152   0.682 -0.1108  0.4022 -0.0786
  832MOL0     H 9803  -1.541   8.307   0.746  0.2392  1.9543 -1.7408
  832MOL0     H 9804  -1.734   8.140   0.795  1.9260 -1.3005 -0.2889
  832MOL0     H 9805  -1.772   8.164   0.626 -0.0850 -1.4588  1.2706
  832MOL0     H 9806  -0.907   8.679   0.782 -1.2441 -0.5095 -1.2308
  832MOL0     H 9807  -0.669   8.718   0.855  0.1719  1.3527  1.4643
  832MOL0     H 9808  -0.332   8.944   0.794  2.5497  2.9333  0.1479
  832MOL0     H 9809  -0.130   9.027   0.918 -0.5157  0.2362 -1.6245
  832MOL0     H 9810   1.525   9.331   0.730 -0.9067 -1.5274  0.2831
  832MOL0     H 9811   1.739   9.467   0.687  4.9623 -1.1256 -1.3782
  832MOL0     H 9812   2.057   9.591   0.659 -1.8221  2.8168 -1.2370
  832MOL0     H 9813   2.248   9.694   0.574 -2.2065  0.0805  0.3787
  832MOL0     H 9814   2.560   9.663   0.865  0.2727  0.8367  0.8183
  832MOL0     H 9815   2.609   9.832   0.840  0.6195 -0.2377 -0.7658
  832MOL0     H 9816   2.637   9.635   0.611 -1.2330 -0.7371  0.3848
  832MOL0     H 9817   2.729   9.773   0.657 -0.3515 -1.6690 -4.6777
  832MOL0     H 9818   2.708   9.487   0.787 -0.7390  0.1191 -0.9050
  832MOL0     H 9819   2.813   9.608   0.852 -2.9691  1.8757  0.6777
  832MOL0     H 9820   2.912   9.429   0.685 -1.6619 -0.3281 -2.5633
  832MOL0     H 9821   2.821   9.493   0.553  0.4891 -2.4081  0.5663
  832MOL0     H 9822   3.164   9.717   0.580  0.5692 -1.8747 -0.8193
  832MOL0     H 9823   2.391   9.757   0.979 -1.7501  0.1424  1.3285
  832MOL0     H 9824   2.190   9.660   1.065  0.2920 -4.3286  0.1577
  833MOL0     O 9825  10.094   2.268   0.664  0.6941 -0.9421  0.7377
  833MOL0     C 9826  10.117   2.367   0.588  1.0696  0.3736 -0.3951
  833MOL0     O 9827  10.031   2.454   0.532  0.2972 -0.5406  0.5115
  833MOL0     C 9828   9.901   2.455   0.566 -0.5594  0.2289  0.6914
  833MOL0     C 9829   9.829   2.364   0.648 -0.5326  0.3377  0.1797
  833MOL0     C 9830   9.688   2.383   0.661  0.2270 -0.3304  0.1577
  833MOL0     C 9831   9.623   2.488   0.600 -0.6429 -0.0112  0.2109
  833MOL0     O 9832   9.489   2.487   0.622 -0.3887  0.0480  0.1789
  833MOL0     C 9833   9.410   2.557   0.527 -0.4649  0.2779  1.2612
  833MOL0     C 9834   9.263   2.511   0.546 -0.1236 -0.2934 -0.2659
  833MOL0     C 9835   9.166   2.616   0.504  0.1069  0.1965 -0.5421
  833MOL0     C 9836   9.027   2.570   0.554 -0.6213 -0.4081  0.0358
  833MOL0     C 9837   8.931   2.685   0.532  0.1042 -0.2917  0.1809
  833MOL0     C 9838   8.783   2.653   0.564 -0.2155 -0.1065  0.1837
  833MOL0     C 9839   8.716   2.519   0.521  0.1304 -0.3957 -0.6048
  833MOL0     C 9840   8.708   2.506   0.368  0.2920 -0.2986 -0.5528
  833MOL0     N 9841   8.724   2.360   0.344 -0.0875  0.2475 -0.1605
  833MOL0     C 9842   8.626   2.266   0.351  0.2374 -0.4108  0.1723
  833MOL0     C 9843   8.680   2.148   0.300 -0.6406 -0.3388 -0.5669
  833MOL0     C 9844   8.620   2.015   0.292 -0.9980  0.3514 -0.4074
  833MOL0     C 9845   8.544   1.986   0.159  0.3177 -0.1497 -0.0794
  833MOL0     C 9846   8.443   1.871   0.176  0.8758 -0.6864  0.5944
  833MOL0     C 9847   8.364   1.842   0.048 -0.0820 -0.4902 -0.3560
  833MOL0     O 9848   8.450   1.836  -0.064  0.2020  0.2095  0.2404
  833MOL0     C 9849   8.404   1.826  -0.195  0.3474 -0.0762  0.0875
  833MOL0     C 9850   8.488   1.847  -0.301  0.6060  0.7258  0.0283
  833MOL0     C 9851   8.444   1.850  -0.434  0.0541 -0.4238  0.2734
  833MOL0     C 9852   8.312   1.811  -0.466 -0.7283 -0.0128  0.5137
  833MOL0     C 9853   8.263   1.815  -0.605  0.1837 -0.8249 -0.2510
  833MOL0     O 9854   8.140   1.782  -0.620  0.5577 -0.1081 -0.1802
  833MOL0     C 9855   8.092   1.745  -0.741 -0.4362  0.4867  0.7283
  833MOL0     C 9856   7.960   1.719  -0.748  0.3993 -0.4948  0.1458
  833MOL0     C 9857   7.894   1.674  -0.866 -0.0308 -0.0370 -0.6595
  833MOL0     C 9858   7.971   1.644  -0.981 -0.6225  0.4110  0.0427
  833MOL0     O 9859   7.922   1.620  -1.104  0.2634  0.2715  0.1172
  833MOL0     C 9860   7.840   1.501  -1.123 -0.8318 -0.7929  0.0425
  833MOL0     C 9861   7.702   1.553  -1.160 -0.8044  0.3084  0.5531
  833MOL0     C 9862   7.595   1.446  -1.147  0.6551  0.1814 -0.5797
  833MOL0     C 9863   7.459   1.510  -1.206 -0.3493  0.7477  0.0233
  833MOL0     C 9864   7.341   1.429  -1.156 -0.4300  0.6723  0.2835
  833MOL0     C 9865   7.207   1.491  -1.196  0.8328 -0.5279  0.6551
  833MOL0     C 9866   7.095   1.401  -1.148 -0.3826 -0.3005 -0.1090
  833MOL0     C 9867   6.960   1.448  -1.194  1.1876 -0.7778 -0.2117
  833MOL0    Cl 9868   6.834   1.388  -1.090 -0.3932 -0.2547 -0.3462
  833MOL0     C 9869   8.105   1.659  -0.970 -0.3125 -0.5022  0.0385
  833MOL0     C 9870   8.160   1.707  -0.854  0.4085  0.5838  0.1683
  833MOL0     O 9871   8.345   1.856  -0.687  0.1984 -0.7553  0.3270
  833MOL0     C 9872   8.227   1.795  -0.360  0.1707 -0.1368 -0.5843
  833MOL0     C 9873   8.267   1.802  -0.223  0.6685 -0.4661 -0.4227
  833MOL0     N 9874   8.812   2.173   0.266 -0.1157  0.1819  0.4125
  833MOL0     N 9875   8.838   2.296   0.289 -0.2006 -0.7193  0.5275
  833MOL0     C 9876   9.691   2.579   0.525  0.5068  0.5039  0.0562
  833MOL0     C 9877   9.827   2.560   0.500 -0.1016 -0.4533 -0.7328
  833MOL0     C 9878  10.255   2.388   0.560  0.1772 -0.2222  0.1529
  833MOL0     C 9879  10.290   2.508   0.505  0.1014  1.7034  0.8687
  833MOL0     C 9880  10.416   2.529   0.467  0.0356 -0.1412  0.5755
  833MOL0     C 9881  10.517   2.425   0.475  0.3566 -0.4961 -0.0528
  833MOL0     O 9882  10.643   2.458   0.433  0.5045 -0.4251  0.0336
  833MOL0     C 9883  10.744   2.356   0.431 -0.4183 -0.4275 -0.1050
  833MOL0     C 9884  10.882   2.393   0.378 -0.6808 -1.1148 -0.5135
  833MOL0     C 9885  10.955   2.487   0.471 -1.1433 -0.6643 -0.2697
  833MOL0     C 9886  11.096   2.521   0.432 -0.2642  0.5021  0.1595
  833MOL0     C 9887  11.152   2.611   0.530  0.9640 -0.8499  0.1290
  833MOL0     C 9888  11.201   2.659   0.627 -0.3611  0.6418 -0.1026
  833MOL0     C 9889  10.473   2.298   0.532 -0.1264 -0.4057  0.0660
  833MOL0     C 9890  10.349   2.287   0.575 -0.1510  0.5702 -0.0454
  833MOL0     H 9891   9.871   2.285   0.709  1.9456  1.6114  0.2412
  833MOL0     H 9892   9.624   2.323   0.725  1.6989 -0.2768  1.7985
  833MOL0     H 9893   9.439   2.528   0.426  3.9430  0.7903  2.1487
  833MOL0     H 9894   9.426   2.665   0.538  1.7953  0.1520 -0.0635
  833MOL0     H 9895   9.256   2.497   0.654 -1.2149 -2.4291 -0.5684
  833MOL0     H 9896   9.250   2.406   0.520  2.6290 -0.9039  0.4794
  833MOL0     H 9897   9.166   2.626   0.395  0.4689  0.3258 -0.5310
  833MOL0     H 9898   9.198   2.714   0.542 -0.7295 -0.1898  1.2847
  833MOL0     H 9899   9.002   2.478   0.500 -0.5557 -0.0183 -0.6754
  833MOL0     H 9900   9.029   2.544   0.660 -1.3055  4.2172  1.4199
  833MOL0     H 9901   8.941   2.710   0.426  2.7639 -1.2149  0.1374
  833MOL0     H 9902   8.961   2.767   0.597  3.2953 -0.1727 -1.2317
  833MOL0     H 9903   8.720   2.739   0.538  2.6611  1.5779 -1.8108
  833MOL0     H 9904   8.778   2.651   0.673  0.1152 -2.1916  0.1989
  833MOL0     H 9905   8.773   2.438   0.568 -2.0101 -0.2427  2.5375
  833MOL0     H 9906   8.616   2.518   0.567  0.4936  0.8715  0.2522
  833MOL0     H 9907   8.784   2.570   0.323  0.3379  1.1421  1.4639
  833MOL0     H 9908   8.610   2.531   0.326 -0.1606 -2.8340 -1.2197
  833MOL0     H 9909   8.527   2.284   0.391 -0.6035 -2.5695 -0.7623
  833MOL0     H 9910   8.551   2.002   0.376 -1.2900 -1.7213 -0.9244
  833MOL0     H 9911   8.697   1.939   0.305  1.5481  2.9421  0.8811
  833MOL0     H 9912   8.625   1.963   0.089  0.6703 -1.5755  0.7491
  833MOL0     H 9913   8.496   2.076   0.122  2.2927  1.2674  0.6201
  833MOL0     H 9914   8.489   1.780   0.216  0.4380 -1.5693 -0.8299
  833MOL0     H 9915   8.377   1.912   0.253  0.4923  1.7674 -0.9416
  833MOL0     H 9916   8.288   1.920   0.034  1.0641  0.8130  0.3991
  833MOL0     H 9917   8.310   1.749   0.068 -0.5631  0.2718  2.3962
  833MOL0     H 9918   8.591   1.866  -0.271 -0.6132  2.1413  4.0331
  833MOL0     H 9919   8.525   1.877  -0.502  0.7973 -0.3404  1.1739
  833MOL0     H 9920   7.898   1.710  -0.660 -1.4820 -1.4829 -1.1934
  833MOL0     H 9921   7.785   1.670  -0.863 -0.0906  1.5210  1.4320
  833MOL0     H 9922   7.841   1.451  -1.026  2.8277  0.7651  0.9521
  833MOL0     H 9923   7.886   1.432  -1.195  0.3692 -2.7835  2.5721
  833MOL0     H 9924   7.709   1.579  -1.266  1.2910 -0.0221  0.5728
  833MOL0     H 9925   7.669   1.637  -1.099 -4.3708 -0.5067 -0.0248
  833MOL0     H 9926   7.569   1.431  -1.042 -0.2425 -3.0381 -1.1292
  833MOL0     H 9927   7.628   1.354  -1.197 -1.7103 -0.7419 -0.5580
  833MOL0     H 9928   7.443   1.599  -1.145  0.8597 -0.5932  2.4388
  833MOL0     H 9929   7.462   1.522  -1.315  0.0925 -0.3601 -0.0991
  833MOL0     H 9930   7.340   1.416  -1.047 -0.7954  0.5446  0.2663
  833MOL0     H 9931   7.341   1.329  -1.200 -0.2561  1.5546 -1.8179
  833MOL0     H 9932   7.209   1.500  -1.305  2.2168 -0.9300  0.6247
  833MOL0     H 9933   7.208   1.592  -1.154  4.9815 -0.4555  0.7911
  833MOL0     H 9934   7.122   1.300  -1.182  1.9785  0.5235 -0.8511
  833MOL0     H 9935   7.095   1.405  -1.039  0.4073  2.7665 -0.1324
  833MOL0     H 9936   6.943   1.400  -1.291  2.9336 -1.1414 -0.3690
  833MOL0     H 9937   6.944   1.556  -1.202  2.0411 -0.6970 -0.9944
  833MOL0     H 9938   8.153   1.642  -1.066  0.7246 -0.3813  0.5272
  833MOL0     H 9939   8.268   1.714  -0.852  0.4528 -0.0793  1.3991
  833MOL0     H 9940   8.123   1.774  -0.382 -0.8782  1.9264  1.8336
  833MOL0     H 9941   8.197   1.788  -0.141  1.0808  0.8280  0.1762
  833MOL0     H 9942   9.634   2.650   0.466 -2.8709 -2.4547 -0.5780
  833MOL0     H 9943   9.889   2.629   0.444  1.9361 -0.6187  1.1710
  833MOL0     H 9944  10.219   2.578   0.462 -3.3947 -2.9571 -1.8850
  833MOL0     H 9945  10.439   2.615   0.405 -0.5741  1.4471  2.4594
  833MOL0     H 9946  10.707   2.269   0.376 -0.9345 -1.8626  2.3378
  833MOL0     H 9947  10.761   2.331   0.536  0.5990 -2.6148 -0.7466
  833MOL0     H 9948  10.940   2.301   0.366 -0.8536 -1.8042  2.8968
  833MOL0     H 9949  10.880   2.445   0.281 -0.1290  2.8606  1.3986
  833MOL0     H 9950  10.964   2.444   0.571  3.3791  1.7078  0.6543
  833MOL0     H 9951  10.893   2.576   0.484 -3.7546 -2.3415 -0.4813
  833MOL0     H 9952  11.144   2.423   0.430  1.6672  1.4131 -0.2078
  833MOL0     H 9953  11.102   2.560   0.330  3.1428  1.8210  0.7360
  833MOL0     H 9954  11.267   2.698   0.701  0.5584  0.3741 -0.7662
  833MOL0     H 9955  10.548   2.221   0.548  0.6724 -0.3976 -3.1205
  833MOL0     H 9956  10.316   2.194   0.620 -4.2057  1.1683 -1.4430
  834MOL0     O 9957   9.691  10.327   3.872  0.3244  0.0667  0.4356
  834MOL0     C 9958   9.678  10.426   3.793 -0.4114 -0.7379  0.4739
  834MOL0     O 9959   9.564  10.501   3.775 -0.3011  0.6331 -0.5932
  834MOL0     C 9960   9.461  10.500   3.863  0.1572  0.1481 -0.2671
  834MOL0     C 9961   9.456  10.594   3.965 -0.1543 -1.3692  0.0669
  834MOL0     C 9962   9.341  10.604   4.048 -0.5950 -0.9685  0.0798
  834MOL0     C 9963   9.237  10.511   4.026  0.0463 -1.1346  0.2113
  834MOL0     O 9964   9.130  10.514   4.108 -0.2994 -0.7315  0.1218
  834MOL0     C 9965   9.003  10.470   4.054 -0.0798 -0.8311  0.4476
  834MOL0     C 9966   8.894  10.544   4.126 -1.0328  0.2267 -0.2128
  834MOL0     C 9967   8.761  10.471   4.129 -1.2215  0.3180  0.3475
  834MOL0     C 9968   8.662  10.535   4.227  0.1725  0.1770 -0.4151
  834MOL0     C 9969   8.525  10.481   4.187 -0.3531  0.4273  0.2637
  834MOL0     C 9970   8.422  10.545   4.279  1.1368 -0.6319 -0.2979
  834MOL0     C 9971   8.282  10.470   4.283  0.1957  0.2450  0.3088
  834MOL0     C 9972   8.169  10.559   4.337  0.1222  0.6326  0.3623
  834MOL0     N 9973   8.044  10.484   4.375 -0.1541  0.5002  0.0023
  834MOL0     C 9974   7.932  10.541   4.431 -0.3270 -0.2304  0.2791
  834MOL0     C 9975   7.847  10.435   4.450  0.6312 -0.9311 -0.2599
  834MOL0     C 9976   7.709  10.448   4.514 -0.1433 -0.6590  0.0641
  834MOL0     C 9977   7.597  10.380   4.434 -0.5125  0.5719  0.3423
  834MOL0     C 9978   7.596  10.231   4.442 -0.5761 -0.4733 -0.6546
  834MOL0     C 9979   7.457  10.174   4.440  0.4821  0.1681  0.0975
  834MOL0     O 9980   7.421  10.145   4.306  0.1577 -0.1488  0.3453
  834MOL0     C 9981   7.285  10.134   4.275  0.3950  0.9846 -0.9872
  834MOL0     C 9982   7.255  10.078   4.152  0.2837  0.6934  0.4543
  834MOL0     C 9983   7.125  10.054   4.106  0.2418 -0.7092  0.6382
  834MOL0     C 9984   7.020  10.073   4.200  0.4106  0.7219  0.6896
  834MOL0     C 9985   6.875  10.049   4.171 -0.5856 -0.2112  0.7909
  834MOL0     O 9986   6.839   9.998   4.043 -0.0114  0.8063 -0.7248
  834MOL0     C 9987   6.710   9.999   3.997  0.5182  0.4932  0.3343
  834MOL0     C 9988   6.633  10.112   3.953 -1.2843  0.9970  0.0873
  834MOL0     C 9989   6.501  10.086   3.910 -0.5371 -0.3894  0.2614
  834MOL0     C 9990   6.439   9.962   3.915 -0.4000 -0.2214  0.2839
  834MOL0     O 9991   6.301   9.955   3.880 -0.4395  0.2649 -0.0789
  834MOL0     C 9992   6.248   9.849   3.790 -0.2789  0.0671 -0.0751
  834MOL0     C 9993   6.105   9.886   3.756 -0.2878 -0.0830 -0.0226
  834MOL0     C 9994   6.033   9.789   3.667  0.2962 -0.2625 -0.1396
  834MOL0     C 9995   5.907   9.858   3.619  1.0122 -0.0902 -0.1097
  834MOL0     C 9996   5.797   9.744   3.595  0.0520 -0.9273  0.4174
  834MOL0     C 9997   5.680   9.812   3.516 -0.3817  0.2210  0.7649
  834MOL0     C 9998   5.566   9.716   3.491 -0.1400  0.8114 -0.2483
  834MOL0     C 9999   5.463   9.784   3.396  0.0675 -0.0726  0.4820
  834MOL0    Cl10000   5.340   9.661   3.347 -0.4724 -0.4529 -0.0512
  834MOL0     C10001   6.515   9.850   3.952  0.9204 -0.2245  0.1294
  834MOL0     C10002   6.646   9.874   3.995 -0.0612  0.3022 -0.1433
  834MOL0     O10003   6.789  10.067   4.254  0.1928 -0.0673 -0.2797
  834MOL0     C10004   7.046  10.121   4.325  1.2514  0.1054 -0.6525
  834MOL0     C10005   7.175  10.149   4.372 -0.9687  0.6075  0.1841
  834MOL0     N10006   7.901  10.320   4.397  0.7157 -0.1752 -0.5740
  834MOL0     N10007   8.016  10.351   4.361  0.2299 -0.4142 -1.0741
  834MOL0     C10008   9.255  10.406   3.932  0.2861 -0.9388 -0.2672
  834MOL0     C10009   9.367  10.400   3.854 -0.5230  0.6293  0.1203
  834MOL0     C10010   9.804  10.470   3.729  0.2088 -0.3592  0.0076
  834MOL0     C10011   9.803  10.582   3.636  0.4111  0.1852  0.7780
  834MOL0     C10012   9.927  10.613   3.573 -0.1669 -0.5427 -0.0910
  834MOL0     C10013  10.054  10.552   3.582  0.4176 -0.5722  0.2616
  834MOL0     O10014  10.158  10.603   3.512  0.4051  0.3065 -0.0843
  834MOL0     C10015  10.284  10.548   3.527 -0.8992 -0.6140  0.9684
  834MOL0     C10016  10.347  10.589   3.656  0.0157  0.3434 -0.5090
  834MOL0     C10017  10.466  10.504   3.699 -0.3065 -0.0838 -1.0077
  834MOL0     C10018  10.605  10.523   3.637 -0.1818  0.0109 -0.4684
  834MOL0     C10019  10.603  10.503   3.490  0.2003 -0.0562 -0.0225
  834MOL0     C10020  10.618  10.477   3.369 -0.5103 -0.3271 -0.0158
  834MOL0     C10021  10.042  10.439   3.666 -0.4360  0.2707 -0.1901
  834MOL0     C10022   9.926  10.394   3.731  0.6320  0.1098  0.3582
  834MOL0     H10023   9.540  10.659   3.985  0.8286 -2.6196  0.1488
  834MOL0     H10024   9.330  10.677   4.128 -0.9561 -2.3416  1.3336
  834MOL0     H10025   8.992  10.361   4.055  0.3744 -0.9250 -1.1366
  834MOL0     H10026   8.981  10.496   3.950 -2.5524 -0.2354  1.0455
  834MOL0     H10027   8.878  10.639   4.074 -0.5936 -0.5425 -1.8365
  834MOL0     H10028   8.929  10.558   4.228  1.7850  1.3341 -1.2405
  834MOL0     H10029   8.781  10.367   4.155  0.0245  0.2181 -0.9452
  834MOL0     H10030   8.715  10.460   4.030 -0.2428  1.6788 -0.2802
  834MOL0     H10031   8.679  10.506   4.331 -4.0150 -1.1521  0.0693
  834MOL0     H10032   8.653  10.642   4.208 -1.7583 -0.1852 -1.8296
  834MOL0     H10033   8.511  10.372   4.187 -0.9790  0.5039 -0.5945
  834MOL0     H10034   8.522  10.511   4.082  0.1573  2.3379  0.7487
  834MOL0     H10035   8.416  10.647   4.239  0.5873 -1.1721 -1.6254
  834MOL0     H10036   8.452  10.545   4.384  0.7884  1.0105 -0.1631
  834MOL0     H10037   8.261  10.455   4.177  4.8117  0.2346 -0.8204
  834MOL0     H10038   8.289  10.378   4.342 -0.2718  0.6366  0.9860
  834MOL0     H10039   8.147  10.628   4.255  2.2833  1.3030  0.2583
  834MOL0     H10040   8.206  10.617   4.423  1.4762  0.2718  0.0549
  834MOL0     H10041   7.921  10.647   4.450 -0.9188 -0.5380  1.8488
  834MOL0     H10042   7.678  10.553   4.525 -1.1176 -0.6398 -2.3310
  834MOL0     H10043   7.720  10.401   4.612 -1.2415 -2.3901 -0.5973
  834MOL0     H10044   7.611  10.410   4.330  2.7395 -1.0382  0.1745
  834MOL0     H10045   7.499  10.413   4.469 -1.4382 -0.1389 -1.4344
  834MOL0     H10046   7.672  10.187   4.376  0.9922 -0.9985  1.3992
  834MOL0     H10047   7.632  10.205   4.541 -2.0870  1.6952  0.5496
  834MOL0     H10048   7.389  10.243   4.491  2.4483  0.5232  2.4065
  834MOL0     H10049   7.463  10.082   4.498 -1.5854  1.3788  2.4002
  834MOL0     H10050   7.326  10.050   4.074 -1.3677 -2.6310 -0.0314
  834MOL0     H10051   7.097  10.024   4.006 -3.2105  0.3889  1.1501
  834MOL0     H10052   6.672  10.213   3.939  3.3673 -0.6303 -0.6084
  834MOL0     H10053   6.440  10.166   3.867 -0.6396 -0.9244 -0.6044
  834MOL0     H10054   6.250   9.752   3.841  0.0891 -0.3639 -0.8907
  834MOL0     H10055   6.309   9.839   3.700  1.6670 -1.6262  1.3301
  834MOL0     H10056   6.111   9.983   3.707 -1.5949 -0.8880 -1.9146
  834MOL0     H10057   6.053   9.899   3.851  0.3573 -0.3642  0.3737
  834MOL0     H10058   6.011   9.697   3.722 -0.9140 -0.3905 -0.8002
  834MOL0     H10059   6.093   9.770   3.577 -2.8393  1.3448 -2.7614
  834MOL0     H10060   5.861   9.926   3.690  0.4620 -0.3051 -0.2525
  834MOL0     H10061   5.932   9.922   3.534 -1.5166  1.8126  0.4743
  834MOL0     H10062   5.746   9.699   3.681 -1.4700 -0.3284 -0.1384
  834MOL0     H10063   5.843   9.664   3.536 -0.1347 -0.7399  0.0136
  834MOL0     H10064   5.725   9.838   3.420  3.9471 -2.5764  1.6918
  834MOL0     H10065   5.641   9.894   3.576  2.3079  2.7553 -0.7057
  834MOL0     H10066   5.606   9.620   3.459 -2.4892 -2.2972  4.9838
  834MOL0     H10067   5.511   9.690   3.582  1.5355 -1.9422  0.0870
  834MOL0     H10068   5.516   9.815   3.305  0.2602 -2.0037 -0.0912
  834MOL0     H10069   5.408   9.864   3.447 -1.7219  1.0271 -2.8757
  834MOL0     H10070   6.474   9.749   3.954  2.8682 -1.2952 -3.8700
  834MOL0     H10071   6.704   9.786   4.023 -0.2822  0.3223  0.3919
  834MOL0     H10072   6.965  10.125   4.397 -0.3674  0.4891 -2.4323
  834MOL0     H10073   7.201  10.186   4.470  2.9183 -1.6495  0.1728
  834MOL0     H10074   9.174  10.334   3.937 -0.7547  0.2871  1.8838
  834MOL0     H10075   9.387  10.324   3.779 -1.7872  0.5240 -0.1229
  834MOL0     H10076   9.709  10.635   3.625 -0.2703 -1.0497  0.4194
  834MOL0     H10077   9.917  10.695   3.502 -2.1284 -0.3155  0.3931
  834MOL0     H10078  10.336  10.589   3.441 -1.9619 -1.7975 -0.2803
  834MOL0     H10079  10.280  10.439   3.517 -1.2924 -0.4222 -1.5528
  834MOL0     H10080  10.378  10.693   3.646 -0.3452  0.8863  2.7623
  834MOL0     H10081  10.267  10.582   3.730 -0.1097 -1.9517 -0.7940
  834MOL0     H10082  10.433  10.402   3.678 -0.1487 -0.2263 -0.5911
  834MOL0     H10083  10.472  10.517   3.808 -1.0446  0.5183 -1.0301
  834MOL0     H10084  10.642  10.617   3.679  1.2303 -1.0214  0.6871
  834MOL0     H10085  10.668  10.447   3.684  1.2510  1.3961 -0.0679
  834MOL0     H10086  10.635  10.441   3.270 -2.0609 -0.3368 -0.3026
  834MOL0     H10087  10.135  10.384   3.676 -0.5202  0.1836  0.1328
  834MOL0     H10088   9.932  10.305   3.791  1.4835 -0.5147 -0.6172
  835MOL0     O10089   7.027   3.635   6.796 -0.1063  0.4672 -0.0090
  835MOL0     C10090   7.048   3.695   6.698 -0.8751  0.4533  0.8614
  835MOL0     O10091   6.973   3.703   6.582  0.3532 -0.9821  0.4840
  835MOL0     C10092   6.846   3.653   6.592  0.0867  1.1363 -0.8801
  835MOL0     C10093   6.813   3.528   6.535  0.2374  1.0890  0.3902
  835MOL0     C10094   6.679   3.486   6.539  0.0777  0.3376 -0.4697
  835MOL0     C10095   6.588   3.558   6.606  0.2736 -0.1338  0.1582
  835MOL0     O10096   6.461   3.510   6.602 -0.0614 -0.6125 -0.2686
  835MOL0     C10097   6.408   3.478   6.727 -0.1106  0.3585  0.1426
  835MOL0     C10098   6.306   3.357   6.709 -0.4945 -0.1391  0.4623
  835MOL0     C10099   6.175   3.402   6.635  0.1494  0.2231 -0.3325
  835MOL0     C10100   6.051   3.312   6.635 -0.1482 -0.2614 -0.0402
  835MOL0     C10101   5.953   3.349   6.525  0.3918 -1.5107  0.5096
  835MOL0     C10102   5.803   3.307   6.546 -0.1326 -0.8195 -0.1911
  835MOL0     C10103   5.728   3.416   6.620 -0.2496 -0.1221 -0.7641
  835MOL0     C10104   5.596   3.376   6.693 -0.2735 -0.6637  0.3834
  835MOL0     N10105   5.483   3.371   6.602 -0.7153  0.1207  0.5847
  835MOL0     C10106   5.394   3.464   6.585  0.3107 -0.0176  0.2271
  835MOL0     C10107   5.304   3.416   6.489 -0.8858 -0.2397  0.0801
  835MOL0     C10108   5.189   3.485   6.434  1.1362 -0.9808 -0.3558
  835MOL0     C10109   5.048   3.441   6.484  0.4681 -0.6252  0.2590
  835MOL0     C10110   4.950   3.541   6.413  1.0141 -0.0075 -0.0904
  835MOL0     C10111   4.809   3.498   6.440  0.9503 -0.4549  0.1153
  835MOL0     O10112   4.722   3.599   6.383  0.8768  0.2228 -0.5766
  835MOL0     C10113   4.583   3.590   6.383 -0.3439 -0.5756 -0.3225
  835MOL0     C10114   4.493   3.495   6.437  0.2627  1.3654 -0.1634
  835MOL0     C10115   4.351   3.518   6.437 -0.0669 -0.3437 -0.9675
  835MOL0     C10116   4.296   3.638   6.385 -0.8433  0.3705 -0.0600
  835MOL0     C10117   4.154   3.658   6.382 -0.1260 -0.6349 -0.6483
  835MOL0     O10118   4.071   3.555   6.402  0.5811 -0.2732  0.1252
  835MOL0     C10119   3.935   3.548   6.387 -0.1416 -0.0292 -0.0922
  835MOL0     C10120   3.860   3.487   6.492 -0.7826  0.1386  0.1566
  835MOL0     C10121   3.723   3.475   6.474 -0.3732 -0.3565 -0.6255
  835MOL0     C10122   3.668   3.502   6.345 -0.4066  0.8460  0.5122
  835MOL0     O10123   3.540   3.472   6.311 -0.4860 -0.1739 -0.0567
  835MOL0     C10124   3.484   3.346   6.355  0.1944 -0.1637  0.4884
  835MOL0     C10125   3.337   3.344   6.315  0.8192 -0.0929 -0.0626
  835MOL0     C10126   3.309   3.322   6.166  0.3664  0.1838 -0.0541
  835MOL0     C10127   3.349   3.439   6.076 -0.0060 -0.3908  0.2117
  835MOL0     C10128   3.245   3.465   5.966 -0.5966 -0.3746 -0.6320
  835MOL0     C10129   3.261   3.355   5.866  0.2053  0.4137 -0.7857
  835MOL0     C10130   3.139   3.268   5.870 -0.7109 -0.7695  0.9404
  835MOL0     C10131   3.140   3.171   5.753  0.8771 -0.0580 -0.8338
  835MOL0    Cl10132   3.059   3.233   5.604 -0.2779  0.5057  0.1118
  835MOL0     C10133   3.746   3.573   6.250  0.1101 -0.8385  0.0971
  835MOL0     C10134   3.883   3.602   6.271  0.6411  0.1280 -0.3855
  835MOL0     O10135   4.116   3.771   6.349 -0.2662  0.0836  0.0643
  835MOL0     C10136   4.383   3.729   6.323  0.4061  0.4393 -0.9347
  835MOL0     C10137   4.519   3.703   6.319  0.6806  0.4468 -0.2161
  835MOL0     N10138   5.345   3.287   6.457 -0.4400 -0.6720  0.8629
  835MOL0     N10139   5.458   3.263   6.519  0.4052  0.0340 -0.7993
  835MOL0     C10140   6.625   3.675   6.671  0.2833  0.4002  0.4215
  835MOL0     C10141   6.755   3.720   6.665  1.4859 -0.4592  0.9186
  835MOL0     C10142   7.194   3.750   6.694  0.5530 -0.5897 -0.6210
  835MOL0     C10143   7.237   3.817   6.574  0.1820  0.2078 -1.0346
  835MOL0     C10144   7.357   3.882   6.571  0.0090 -0.3277 -0.3765
  835MOL0     C10145   7.433   3.899   6.685 -0.0646  0.0091 -0.8518
  835MOL0     O10146   7.554   3.969   6.685  0.0774  0.8009  0.1858
  835MOL0     C10147   7.597   4.050   6.792  0.7439 -0.4371 -0.2359
  835MOL0     C10148   7.723   3.978   6.845  0.9793 -0.2035  0.2354
  835MOL0     C10149   7.707   3.848   6.914 -0.0611  0.7397 -0.1546
  835MOL0     C10150   7.842   3.784   6.935 -0.1538 -0.3249 -0.1965
  835MOL0     C10151   7.827   3.649   7.002 -0.8818 -0.5694 -0.1306
  835MOL0     C10152   7.804   3.544   7.049 -0.2288 -0.2707  0.0725
  835MOL0     C10153   7.395   3.834   6.803  0.1173  0.0871 -0.1020
  835MOL0     C10154   7.279   3.757   6.801  0.0410  0.4978 -0.1167
  835MOL0     H10155   6.898   3.477   6.490  2.3299  3.9351  0.8624
  835MOL0     H10156   6.632   3.410   6.478  1.4001 -0.3027 -0.7362
  835MOL0     H10157   6.366   3.567   6.776 -0.7397  0.3317 -0.3489
  835MOL0     H10158   6.478   3.449   6.806 -1.1156 -0.4253  0.7785
  835MOL0     H10159   6.276   3.308   6.802 -1.0609  0.0308  0.3733
  835MOL0     H10160   6.363   3.282   6.653 -1.4022 -1.0226  0.6936
  835MOL0     H10161   6.200   3.412   6.529 -0.3609 -0.6721 -0.5475
  835MOL0     H10162   6.144   3.498   6.677 -0.8235 -0.5282  0.7198
  835MOL0     H10163   6.085   3.209   6.628 -2.8555 -1.1820 -0.9852
  835MOL0     H10164   6.002   3.337   6.729  0.8155  1.1156  0.1399
  835MOL0     H10165   5.985   3.308   6.429 -1.9106 -2.1417 -0.0376
  835MOL0     H10166   5.942   3.458   6.518  0.9468 -1.5316 -1.1510
  835MOL0     H10167   5.784   3.208   6.588  0.0045 -1.0819 -0.7423
  835MOL0     H10168   5.760   3.299   6.446  0.5035  3.1167 -0.9611
  835MOL0     H10169   5.792   3.458   6.698 -0.3755  3.1001 -2.2202
  835MOL0     H10170   5.711   3.498   6.550 -1.2609 -2.7029 -3.7978
  835MOL0     H10171   5.581   3.458   6.763 -0.9082 -0.3267 -0.1445
  835MOL0     H10172   5.592   3.290   6.761 -4.1305 -1.9556 -1.2235
  835MOL0     H10173   5.384   3.551   6.648  0.8660 -0.7455  1.3556
  835MOL0     H10174   5.185   3.469   6.326  0.4919  1.6000 -0.7825
  835MOL0     H10175   5.207   3.593   6.443 -1.8756 -0.3762 -0.4881
  835MOL0     H10176   5.058   3.455   6.592  1.1856  2.3774 -0.0927
  835MOL0     H10177   5.037   3.338   6.450  2.4605 -0.5304 -0.8217
  835MOL0     H10178   4.958   3.644   6.449 -1.8787  0.2140  0.2203
  835MOL0     H10179   4.964   3.532   6.305 -1.5559 -3.4621 -0.2943
  835MOL0     H10180   4.786   3.482   6.545 -0.2321 -1.3638 -0.2527
  835MOL0     H10181   4.779   3.408   6.385 -2.4803  1.5069 -1.5423
  835MOL0     H10182   4.529   3.408   6.490 -1.2684  1.6474  1.4609
  835MOL0     H10183   4.293   3.437   6.478 -0.0844  0.2792  0.2866
  835MOL0     H10184   3.917   3.456   6.579  1.5090  1.5662 -0.7325
  835MOL0     H10185   3.657   3.429   6.546  0.4786 -1.6885 -0.6619
  835MOL0     H10186   3.478   3.337   6.464 -0.3166  2.5577  0.7504
  835MOL0     H10187   3.538   3.261   6.313 -1.2237 -0.6400 -0.4422
  835MOL0     H10188   3.292   3.439   6.345  2.1136  0.1952  1.0356
  835MOL0     H10189   3.280   3.260   6.356 -0.4561  0.6786 -0.1878
  835MOL0     H10190   3.201   3.307   6.160  0.8504 -3.3098 -3.0880
  835MOL0     H10191   3.331   3.223   6.128 -1.7790  0.0745 -1.1710
  835MOL0     H10192   3.353   3.530   6.137  0.8997 -1.2359  1.4589
  835MOL0     H10193   3.450   3.423   6.038 -0.0138  1.7840 -0.8616
  835MOL0     H10194   3.274   3.555   5.911 -1.1272  0.1455 -0.0735
  835MOL0     H10195   3.142   3.470   6.001 -1.4380 -3.1035 -2.3737
  835MOL0     H10196   3.353   3.296   5.879  0.1525  0.5631  0.4456
  835MOL0     H10197   3.261   3.403   5.768 -1.3275  0.5982 -0.7126
  835MOL0     H10198   3.132   3.222   5.969 -4.9988 -1.4712  0.4967
  835MOL0     H10199   3.050   3.331   5.860  1.0029  1.4766 -1.5481
  835MOL0     H10200   3.081   3.083   5.784  1.8526 -0.2685  0.5424
  835MOL0     H10201   3.237   3.123   5.737 -0.0044 -2.2931  0.1031
  835MOL0     H10202   3.697   3.588   6.155  0.1520 -0.8165  0.0793
  835MOL0     H10203   3.941   3.644   6.190 -3.6889  2.3388 -2.7062
  835MOL0     H10204   4.332   3.811   6.275 -0.8934  0.6393  0.6706
  835MOL0     H10205   4.585   3.779   6.279  2.7420 -1.1572 -0.0312
  835MOL0     H10206   6.553   3.737   6.723  1.9930  2.7424  0.1505
  835MOL0     H10207   6.786   3.807   6.722  1.4141 -1.2135  2.1398
  835MOL0     H10208   7.175   3.813   6.485  0.4513 -0.4303 -1.2018
  835MOL0     H10209   7.382   3.925   6.474 -1.1483  0.7042 -0.2425
  835MOL0     H10210   7.522   4.064   6.870  0.1857  0.4689 -0.9223
  835MOL0     H10211   7.624   4.148   6.752  1.7872 -0.0983  1.2117
  835MOL0     H10212   7.800   3.963   6.769  1.2807  0.1928  0.4576
  835MOL0     H10213   7.759   4.049   6.920 -0.2151 -0.8431  1.4669
  835MOL0     H10214   7.651   3.777   6.852 -1.7933  1.3563  0.6584
  835MOL0     H10215   7.654   3.862   7.008 -0.8840 -1.9397 -0.1408
  835MOL0     H10216   7.885   3.755   6.839  0.5903  3.3056 -1.1088
  835MOL0     H10217   7.907   3.853   6.990 -1.6747  0.9391  0.0772
  835MOL0     H10218   7.788   3.445   7.087  2.0268 -0.5724  0.3389
  835MOL0     H10219   7.445   3.841   6.899  0.0790  0.8799 -0.1275
  835MOL0     H10220   7.250   3.720   6.899 -2.4647  1.9793 -0.2374
  836MOL0     O10221   1.890   6.424   2.112 -0.5471 -0.4976 -0.5906
  836MOL0     C10222   2.007   6.441   2.146  0.3897  1.1493 -0.0547
  836MOL0     O10223   2.091   6.339   2.188  0.5482 -0.7375 -0.9529
  836MOL0     C10224   2.078   6.211   2.139  0.3401  0.5409  0.3321
  836MOL0     C10225   2.007   6.180   2.023 -0.2168 -0.1932 -0.1577
  836MOL0     C10226   1.992   6.047   1.976 -0.1473  0.0683 -0.3410
  836MOL0     C10227   2.038   5.942   2.055 -0.6066  0.0281 -0.7722
  836MOL0     O10228   2.027   5.811   2.015 -0.1322 -0.3167  0.2285
  836MOL0     C10229   1.918   5.733   2.081  0.0818 -0.2128  0.4879
  836MOL0     C10230   1.906   5.592   2.031 -0.4220  0.9333  0.3568
  836MOL0     C10231   1.822   5.507   2.125  0.1298 -0.3535 -0.1869
  836MOL0     C10232   1.673   5.546   2.121 -0.4200  0.3862 -0.0770
  836MOL0     C10233   1.598   5.491   2.010  0.3735  0.2335  0.0263
  836MOL0     C10234   1.465   5.564   1.971  0.0732 -0.6485 -0.1710
  836MOL0     C10235   1.368   5.554   2.094 -0.1316  0.1097  0.3686
  836MOL0     C10236   1.222   5.597   2.053 -0.0568 -0.1670 -0.8243
  836MOL0     N10237   1.214   5.722   1.982 -0.1901  0.7722 -0.0757
  836MOL0     C10238   1.106   5.757   1.907 -0.1506  1.0840  0.2610
  836MOL0     C10239   1.135   5.885   1.866  0.6458 -0.2805 -0.8247
  836MOL0     C10240   1.056   5.969   1.771 -0.0997 -0.2089 -1.2878
  836MOL0     C10241   0.907   5.940   1.778 -0.3090 -0.1387  0.3845
  836MOL0     C10242   0.823   5.984   1.891 -0.3927 -0.0242  0.0958
  836MOL0     C10243   0.684   5.911   1.868 -0.9837 -0.6992 -0.7380
  836MOL0     O10244   0.589   5.945   1.972  0.8188 -0.4709  0.0917
  836MOL0     C10245   0.478   5.866   1.985 -0.2086 -0.0211  0.1142
  836MOL0     C10246   0.443   5.756   1.901 -0.6026  0.0360 -0.2624
  836MOL0     C10247   0.319   5.694   1.907 -0.3896 -0.3821 -0.5674
  836MOL0     C10248   0.235   5.732   2.016 -0.0385 -0.4614  0.9453
  836MOL0     C10249   0.102   5.662   2.026  0.1461 -1.1731 -0.2152
  836MOL0     O10250   0.010   5.717   2.101  0.5525 -0.6615 -0.3341
  836MOL0     C10251  -0.128   5.691   2.097 -0.4962  0.7206 -0.0367
  836MOL0     C10252  -0.202   5.640   1.987 -0.5462 -0.6005 -0.4431
  836MOL0     C10253  -0.342   5.636   1.990 -1.1065  0.0292  0.4988
  836MOL0     C10254  -0.417   5.657   2.108 -0.0725  0.1258  0.8351
  836MOL0     O10255  -0.544   5.625   2.111 -0.5490 -0.2890 -0.0648
  836MOL0     C10256  -0.603   5.548   2.009  0.3822 -0.3380  0.1292
  836MOL0     C10257  -0.658   5.639   1.898 -0.3401 -0.1397 -0.2793
  836MOL0     C10258  -0.781   5.713   1.942 -0.1744 -0.3755  0.6654
  836MOL0     C10259  -0.833   5.788   1.825  0.0026  0.2418  0.4681
  836MOL0     C10260  -0.959   5.874   1.852  0.3050 -0.2758  1.2631
  836MOL0     C10261  -1.046   5.869   1.733 -0.4103  0.0113 -0.4547
  836MOL0     C10262  -1.124   5.745   1.696  0.0984 -0.8134 -1.1110
  836MOL0     C10263  -1.122   5.706   1.553  0.0883  0.4585 -0.4814
  836MOL0    Cl10264  -1.255   5.797   1.463  0.1460 -0.5197  0.4006
  836MOL0     C10265  -0.342   5.707   2.221  0.0826 -0.8469 -0.4518
  836MOL0     C10266  -0.203   5.727   2.210  0.3060 -0.2935  0.2612
  836MOL0     O10267   0.079   5.569   1.948  0.1977 -0.1519  0.0242
  836MOL0     C10268   0.278   5.825   2.108 -0.0384 -1.1111  0.4734
  836MOL0     C10269   0.394   5.902   2.085  0.1390  0.0309 -0.7866
  836MOL0     N10270   1.258   5.923   1.920  0.8470 -0.2574  0.4221
  836MOL0     N10271   1.295   5.829   1.993  0.0127 -0.0198  0.7905
  836MOL0     C10272   2.093   5.974   2.175 -0.6539 -0.4719  0.3209
  836MOL0     C10273   2.118   6.104   2.216 -0.0781 -0.3433  0.1498
  836MOL0     C10274   2.052   6.575   2.161 -0.0451  0.4841 -0.5941
  836MOL0     C10275   2.182   6.603   2.202 -0.2637  0.1819 -0.3379
  836MOL0     C10276   2.220   6.739   2.233  0.0603 -0.2678  0.5781
  836MOL0     C10277   2.128   6.840   2.209 -0.6516 -0.3657 -0.1179
  836MOL0     O10278   2.173   6.960   2.260 -0.7773 -0.2235  0.1436
  836MOL0     C10279   2.126   7.093   2.215 -0.0803 -0.0401  0.3375
  836MOL0     C10280   2.226   7.193   2.242  0.1651 -0.7777 -0.5771
  836MOL0     C10281   2.165   7.344   2.223 -0.3686  0.2064 -0.1011
  836MOL0     C10282   2.252   7.435   2.146 -0.3167 -0.0872  0.0148
  836MOL0     C10283   2.372   7.471   2.225  0.0716  0.8370  0.5916
  836MOL0     C10284   2.466   7.508   2.296  0.6063 -0.0441 -0.1834
  836MOL0     C10285   1.998   6.811   2.171 -0.3942  0.5715  0.0117
  836MOL0     C10286   1.957   6.682   2.156 -0.1331 -0.6078 -0.3504
  836MOL0     H10287   1.972   6.266   1.966  1.5232  0.5203 -0.2007
  836MOL0     H10288   1.946   6.038   1.878 -1.2909 -1.5836  0.3018
  836MOL0     H10289   1.822   5.771   2.045 -0.9661 -2.8176  0.2763
  836MOL0     H10290   1.938   5.743   2.188  2.8499  1.3686 -0.0750
  836MOL0     H10291   2.001   5.539   2.026 -0.2354  1.1386  1.5035
  836MOL0     H10292   1.873   5.582   1.927  2.3088  1.5170 -0.6382
  836MOL0     H10293   1.867   5.522   2.224 -0.9678  1.6851  0.0508
  836MOL0     H10294   1.823   5.402   2.096  0.4831 -0.3000 -0.3761
  836MOL0     H10295   1.633   5.507   2.215  1.2373 -2.1555 -0.3313
  836MOL0     H10296   1.673   5.655   2.104 -0.1501  0.0304 -2.8114
  836MOL0     H10297   1.585   5.383   2.021 -2.1906  0.5078  0.2327
  836MOL0     H10298   1.658   5.493   1.918  1.3835 -2.9733  0.5179
  836MOL0     H10299   1.416   5.513   1.887 -2.9168  0.6197  0.6946
  836MOL0     H10300   1.491   5.663   1.934 -0.7233 -1.4478 -3.1954
  836MOL0     H10301   1.365   5.448   2.122 -3.3792  0.3939  1.4521
  836MOL0     H10302   1.389   5.610   2.186 -1.0012  0.4221  0.3884
  836MOL0     H10303   1.151   5.599   2.136  0.4217  0.2244 -0.4165
  836MOL0     H10304   1.176   5.522   1.988 -1.6858 -2.3482  2.5141
  836MOL0     H10305   1.020   5.697   1.877  0.2657  0.4479  0.3333
  836MOL0     H10306   1.098   5.945   1.673  0.7428 -2.0329 -0.5377
  836MOL0     H10307   1.073   6.075   1.790  2.0630 -0.7026 -0.1152
  836MOL0     H10308   0.891   5.832   1.767  2.2462 -0.4740 -0.5677
  836MOL0     H10309   0.863   5.993   1.693  1.0070 -0.8580 -0.7871
  836MOL0     H10310   0.866   5.970   1.991 -0.6818  0.7656  0.3439
  836MOL0     H10311   0.799   6.088   1.871 -1.4564  0.0770  1.6518
  836MOL0     H10312   0.704   5.805   1.886 -1.5820 -0.5669  0.8692
  836MOL0     H10313   0.645   5.933   1.768 -0.5660  1.8468 -0.4035
  836MOL0     H10314   0.517   5.717   1.831 -1.8450 -1.9862 -0.5432
  836MOL0     H10315   0.283   5.617   1.839 -1.4679 -1.8876  1.5871
  836MOL0     H10316  -0.153   5.620   1.892  2.0410  0.8385  0.5042
  836MOL0     H10317  -0.390   5.619   1.894 -0.3186  2.8044 -0.5022
  836MOL0     H10318  -0.689   5.489   2.042 -1.6165  2.2669 -0.0059
  836MOL0     H10319  -0.527   5.481   1.969  2.0895  1.1864  0.6694
  836MOL0     H10320  -0.671   5.574   1.811  0.4236  0.9069 -1.2026
  836MOL0     H10321  -0.582   5.714   1.875 -1.4195  0.6262 -1.4748
  836MOL0     H10322  -0.761   5.780   2.026  0.9129  0.3369 -0.1437
  836MOL0     H10323  -0.854   5.637   1.975 -1.7496  1.4517  1.6131
  836MOL0     H10324  -0.753   5.850   1.782  1.3682 -1.5956  0.2630
  836MOL0     H10325  -0.850   5.719   1.742 -0.5723  2.3920 -1.3131
  836MOL0     H10326  -0.928   5.979   1.855 -0.5513  0.1584 -1.5934
  836MOL0     H10327  -1.015   5.850   1.942  2.2047 -0.2380  2.5211
  836MOL0     H10328  -0.992   5.884   1.639 -0.1840 -0.0467 -0.3348
  836MOL0     H10329  -1.118   5.950   1.735 -2.6216 -1.8266  2.1742
  836MOL0     H10330  -1.083   5.665   1.758  1.9598 -0.6579 -2.0800
  836MOL0     H10331  -1.224   5.773   1.733  0.3224  3.8326 -3.2361
  836MOL0     H10332  -1.146   5.600   1.539 -0.5715 -0.0403  3.2203
  836MOL0     H10333  -1.024   5.711   1.506  0.0526 -0.0667 -0.6204
  836MOL0     H10334  -0.399   5.733   2.309 -0.7586 -0.0985 -1.1934
  836MOL0     H10335  -0.157   5.755   2.304  0.9957 -2.6448  0.7049
  836MOL0     H10336   0.218   5.845   2.196  2.5291  0.9833  1.9058
  836MOL0     H10337   0.414   5.969   2.168 -4.5048  0.7271  0.0113
  836MOL0     H10338   2.142   5.893   2.228  2.5166  1.8217  1.2049
  836MOL0     H10339   2.164   6.120   2.313  1.6904 -2.1260 -0.3268
  836MOL0     H10340   2.260   6.530   2.221 -2.6450 -2.1877  1.0689
  836MOL0     H10341   2.311   6.762   2.286  0.1463  2.4468 -0.5831
  836MOL0     H10342   2.038   7.119   2.276  1.5087  0.1270  2.6912
  836MOL0     H10343   2.105   7.101   2.108 -2.1531  0.4494  0.7427
  836MOL0     H10344   2.260   7.187   2.346 -0.8728 -1.4311 -0.2632
  836MOL0     H10345   2.300   7.180   2.162 -1.1321 -2.4097 -1.5841
  836MOL0     H10346   2.132   7.376   2.322 -0.1172 -2.3198  0.8864
  836MOL0     H10347   2.073   7.350   2.165  0.4849  2.5664 -1.3110
  836MOL0     H10348   2.279   7.394   2.048  1.1439  3.2414 -1.1327
  836MOL0     H10349   2.193   7.525   2.127  1.3427  0.6402 -2.0301
  836MOL0     H10350   2.547   7.528   2.363 -1.6249  2.1681  2.0393
  836MOL0     H10351   1.924   6.890   2.165 -0.4745  0.6038  1.2763
  836MOL0     H10352   1.856   6.654   2.130 -1.2923  0.9017  2.1797
  837MOL0     O10353   2.241   9.744   1.783 -0.1929 -0.0052  0.1056
  837MOL0     C10354   2.285   9.678   1.880 -0.1056 -0.1417  0.5567
  837MOL0     O10355   2.220   9.581   1.948  0.2845  0.2508  0.2008
  837MOL0     C10356   2.090   9.549   1.929 -0.4825  0.0945 -0.1514
  837MOL0     C10357   2.063   9.421   1.875 -0.1627  0.4377  0.2196
  837MOL0     C10358   1.928   9.386   1.866  0.1078 -0.0751  0.3507
  837MOL0     C10359   1.828   9.475   1.882 -0.7604 -0.3179 -0.6553
  837MOL0     O10360   1.702   9.433   1.843  0.5991  0.2736 -0.2360
  837MOL0     C10361   1.598   9.529   1.846  0.2727 -0.5244  0.5648
  837MOL0     C10362   1.477   9.457   1.792  0.2230  0.3746  0.1660
  837MOL0     C10363   1.413   9.357   1.894 -0.2186  0.5440 -0.1678
  837MOL0     C10364   1.258   9.345   1.873  0.0557  0.0930 -0.3715
  837MOL0     C10365   1.186   9.245   1.964 -0.0275 -0.2096 -0.1462
  837MOL0     C10366   1.034   9.258   1.955  1.0039 -0.1540  0.3018
  837MOL0     C10367   0.957   9.235   2.092 -0.4147 -0.0762 -0.5925
  837MOL0     C10368   0.820   9.301   2.086 -0.0443 -0.2799  0.2683
  837MOL0     N10369   0.732   9.252   1.986 -0.0222 -0.3518 -0.1406
  837MOL0     C10370   0.706   9.122   1.951 -0.6024  1.2852  0.9301
  837MOL0     C10371   0.612   9.129   1.851 -0.3909  1.3217  0.0146
  837MOL0     C10372   0.578   9.012   1.769  0.6508  0.0970  0.2934
  837MOL0     C10373   0.442   8.966   1.790  1.3375 -0.1862  0.3174
  837MOL0     C10374   0.346   9.057   1.714  0.0652 -0.2469 -0.0751
  837MOL0     C10375   0.201   9.009   1.704  1.0120  0.1245  0.3375
  837MOL0     O10376   0.116   9.123   1.695 -0.1824  0.0227  0.1772
  837MOL0     C10377   0.031   9.136   1.584  0.5424 -0.3387  0.4307
  837MOL0     C10378   0.020   9.048   1.478 -0.4588 -0.0182  0.0670
  837MOL0     C10379  -0.075   9.071   1.374 -0.7254 -0.7044 -0.5933
  837MOL0     C10380  -0.151   9.194   1.381  0.0533  0.6204 -0.2050
  837MOL0     C10381  -0.270   9.202   1.288  0.2738  0.1162 -0.4032
  837MOL0     O10382  -0.271   9.113   1.180  0.1962 -0.6343 -0.0874
  837MOL0     C10383  -0.379   9.134   1.101 -0.3727 -0.1364  0.2891
  837MOL0     C10384  -0.479   9.041   1.120  0.5259 -0.2457 -0.0284
  837MOL0     C10385  -0.605   9.058   1.046 -0.2346 -0.3129 -0.0455
  837MOL0     C10386  -0.612   9.156   0.951  0.2686 -0.0503  0.6675
  837MOL0     O10387  -0.709   9.179   0.857  0.1431 -0.2189 -0.2076
  837MOL0     C10388  -0.808   9.086   0.844 -0.2583  0.3474  0.3668
  837MOL0     C10389  -0.910   9.121   0.736 -1.0919  0.6875  0.4088
  837MOL0     C10390  -1.030   9.025   0.720 -0.3113 -0.2975  0.2024
  837MOL0     C10391  -1.123   9.080   0.606 -0.2594  0.5999  0.1111
  837MOL0     C10392  -1.251   9.002   0.592  0.6977 -0.4073 -0.1264
  837MOL0     C10393  -1.330   8.961   0.720  0.3563 -0.3645  0.1196
  837MOL0     C10394  -1.464   8.896   0.692 -0.0916  0.0262 -0.2463
  837MOL0     C10395  -1.449   8.754   0.626  0.2816  0.9960  0.1084
  837MOL0    Cl10396  -1.617   8.688   0.627 -0.3896 -0.2672 -0.1627
  837MOL0     C10397  -0.513   9.251   0.942 -0.4475  0.6825  0.3474
  837MOL0     C10398  -0.393   9.245   1.013  0.5310  0.5592 -0.8039
  837MOL0     O10399  -0.357   9.275   1.321  0.6939 -0.4980 -0.3642
  837MOL0     C10400  -0.138   9.276   1.489 -1.2378 -0.2637 -0.1562
  837MOL0     C10401  -0.046   9.251   1.584  0.2300 -0.4745 -0.3028
  837MOL0     N10402   0.591   9.266   1.825  0.6259  0.4389  0.5429
  837MOL0     N10403   0.667   9.339   1.900  0.3450 -0.5535 -0.3670
  837MOL0     C10404   1.852   9.598   1.937  0.2969 -0.3978 -0.1262
  837MOL0     C10405   1.989   9.632   1.965  0.3098 -1.2044 -0.3885
  837MOL0     C10406   2.427   9.694   1.912  0.4301  0.5424 -1.1037
  837MOL0     C10407   2.489   9.815   1.905  0.1130  0.2286 -0.7964
  837MOL0     C10408   2.634   9.826   1.940  0.3809 -0.2851 -0.0645
  837MOL0     C10409   2.696   9.722   2.007  0.2354 -0.2406  0.7116
  837MOL0     O10410   2.833   9.739   2.037 -0.1415  0.4864  0.0943
  837MOL0     C10411   2.896   9.636   2.108  0.0677  0.6836  0.1312
  837MOL0     C10412   2.859   9.641   2.257  0.2975 -0.0027  0.5658
  837MOL0     C10413   2.893   9.525   2.342  0.3985  0.4950  1.2784
  837MOL0     C10414   2.827   9.520   2.483 -0.5949 -0.5322  0.9584
  837MOL0     C10415   2.858   9.646   2.548  0.0750 -0.2098 -0.2185
  837MOL0     C10416   2.876   9.752   2.602 -0.6035 -0.2996 -0.1511
  837MOL0     C10417   2.627   9.606   2.030  0.5762  0.1662  0.7304
  837MOL0     C10418   2.493   9.591   1.980  0.0103  0.0310 -0.1946
  837MOL0     H10419   2.137   9.347   1.845 -1.0792 -0.1388 -0.6887
  837MOL0     H10420   1.906   9.285   1.832  0.8828  0.6352 -2.5369
  837MOL0     H10421   1.625   9.609   1.776  1.9072 -0.4881  1.2016
  837MOL0     H10422   1.576   9.564   1.947  0.8277 -1.2031  0.9245
  837MOL0     H10423   1.499   9.412   1.695 -1.3149  0.2706 -0.1533
  837MOL0     H10424   1.403   9.531   1.761 -1.5487 -1.0833  0.7520
  837MOL0     H10425   1.437   9.376   1.999 -2.4416  1.1219  0.2812
  837MOL0     H10426   1.457   9.260   1.869 -1.5078  0.0397 -0.5506
  837MOL0     H10427   1.224   9.446   1.897  0.2337  0.7242 -2.5508
  837MOL0     H10428   1.243   9.319   1.767  2.3433 -1.2309 -0.4244
  837MOL0     H10429   1.200   9.270   2.070  0.7816  2.0378 -0.7315
  837MOL0     H10430   1.220   9.145   1.936 -2.0818 -0.9287 -0.2937
  837MOL0     H10431   0.999   9.195   1.873  4.9882 -0.7399 -1.2059
  837MOL0     H10432   1.022   9.363   1.928  0.0087 -0.1753  0.6331
  837MOL0     H10433   0.958   9.129   2.118 -0.1982  0.4521  1.7968
  837MOL0     H10434   1.010   9.287   2.172  2.0856 -1.3109 -1.3246
  837MOL0     H10435   0.830   9.410   2.080  1.3349 -0.1094  3.5871
  837MOL0     H10436   0.774   9.285   2.184 -1.9205  2.4391 -0.0595
  837MOL0     H10437   0.759   9.037   1.992 -2.7268 -0.0801  1.0407
  837MOL0     H10438   0.632   8.921   1.794 -1.0495 -2.0632 -3.0532
  837MOL0     H10439   0.601   9.032   1.664  1.7499  2.7904  0.9759
  837MOL0     H10440   0.424   8.966   1.898  0.3537 -0.1315  0.1622
  837MOL0     H10441   0.426   8.860   1.765 -1.2392 -1.1089  4.6773
  837MOL0     H10442   0.354   9.158   1.754  0.2923 -0.4414  0.3861
  837MOL0     H10443   0.377   9.058   1.609 -0.1919  1.7553 -0.1730
  837MOL0     H10444   0.180   8.955   1.796 -2.7573  2.2391  0.9031
  837MOL0     H10445   0.178   8.931   1.630  0.4101  0.0467  0.6003
  837MOL0     H10446   0.083   8.960   1.476 -0.6439 -0.2073  1.4575
  837MOL0     H10447  -0.086   8.999   1.294  0.4350  0.4078 -1.7929
  837MOL0     H10448  -0.477   8.959   1.191 -0.4216 -0.6811 -0.4787
  837MOL0     H10449  -0.692   8.995   1.057 -0.6755  0.2502 -0.2581
  837MOL0     H10450  -0.874   9.093   0.932 -1.7312 -0.1635 -0.6540
  837MOL0     H10451  -0.781   8.984   0.816  0.6002  0.6875 -0.0865
  837MOL0     H10452  -0.853   9.124   0.642 -0.5401 -2.0538  0.5530
  837MOL0     H10453  -0.947   9.221   0.758  0.8336  1.3139  1.0859
  837MOL0     H10454  -1.082   9.014   0.816  2.2586 -0.6299  1.6717
  837MOL0     H10455  -0.997   8.922   0.701  1.0586  0.2653 -0.6344
  837MOL0     H10456  -1.145   9.186   0.622 -3.5852  0.1018 -0.4894
  837MOL0     H10457  -1.076   9.058   0.509 -0.4244  0.7279  0.0022
  837MOL0     H10458  -1.225   8.911   0.536 -0.1800 -0.0794 -1.1205
  837MOL0     H10459  -1.319   9.053   0.522 -1.5662 -1.6733  1.0497
  837MOL0     H10460  -1.350   9.050   0.780 -1.3879 -0.6125 -0.0471
  837MOL0     H10461  -1.276   8.888   0.782 -1.4173 -1.4645  0.4195
  837MOL0     H10462  -1.519   8.892   0.787  0.4882 -0.0388  0.0927
  837MOL0     H10463  -1.525   8.958   0.626 -3.8510 -3.1548 -0.1481
  837MOL0     H10464  -1.380   8.681   0.669 -2.5301 -1.0503  1.5121
  837MOL0     H10465  -1.414   8.770   0.523  0.9533 -2.3215 -0.3183
  837MOL0     H10466  -0.507   9.333   0.871  4.1000 -1.0390 -1.7054
  837MOL0     H10467  -0.313   9.319   1.014  0.9618  0.1445  1.7156
  837MOL0     H10468  -0.193   9.369   1.502 -0.5609  0.1236 -0.0250
  837MOL0     H10469  -0.054   9.307   1.676 -1.3792 -2.1897  0.6767
  837MOL0     H10470   1.783   9.678   1.960 -1.0715 -1.4596 -0.3752
  837MOL0     H10471   2.012   9.720   2.024  0.6804 -1.5007 -0.0835
  837MOL0     H10472   2.436   9.895   1.854 -0.6294 -0.0064 -0.4139
  837MOL0     H10473   2.686   9.920   1.925 -0.0624  0.3381  1.8902
  837MOL0     H10474   3.005   9.648   2.105  0.5672 -2.9532 -0.0500
  837MOL0     H10475   2.885   9.537   2.064 -0.3323  0.9271 -0.3264
  837MOL0     H10476   2.909   9.729   2.297  1.9591  0.3868 -2.0951
  837MOL0     H10477   2.751   9.651   2.275  0.0649  2.0139 -1.4420
  837MOL0     H10478   3.000   9.510   2.359 -0.1978 -1.7051  3.6839
  837MOL0     H10479   2.855   9.435   2.292  1.4980 -0.6153  2.3535
  837MOL0     H10480   2.718   9.515   2.467 -0.1578  0.3993 -3.8124
  837MOL0     H10481   2.864   9.435   2.541  1.5803  0.6840  1.4768
  837MOL0     H10482   2.889   9.842   2.659 -0.6937  0.3750 -1.1751
  837MOL0     H10483   2.662   9.519   2.085 -1.2953 -1.0428  0.1076
  837MOL0     H10484   2.451   9.493   2.001  1.7484 -1.6779 -3.7773
  838MOL0     O10485   1.064  10.119   4.206 -0.2309  0.2422 -0.8777
  838MOL0     C10486   1.103  10.146   4.094  0.3490  0.8215  0.9294
  838MOL0     O10487   1.014  10.186   3.994 -0.6709 -0.2557  0.3719
  838MOL0     C10488   0.880  10.166   4.011 -0.9553  0.2372  0.2609
  838MOL0     C10489   0.825  10.036   4.050 -0.9779 -0.2279  1.3427
  838MOL0     C10490   0.687  10.022   4.064 -0.2320 -0.2565 -0.6859
  838MOL0     C10491   0.600  10.135   4.038 -0.2234  0.6149  0.4239
  838MOL0     O10492   0.464  10.140   4.068 -0.1642 -0.8737  0.1253
  838MOL0     C10493   0.426  10.035   4.159  0.2759 -0.6180  0.1155
  838MOL0     C10494   0.317  10.087   4.248 -0.2253  0.2596  0.4611
  838MOL0     C10495   0.187  10.123   4.181  0.2729  0.1277  0.1625
  838MOL0     C10496   0.073  10.166   4.277  0.1365  0.5430  0.5964
  838MOL0     C10497  -0.052  10.212   4.186 -0.6753  0.7723  0.3081
  838MOL0     C10498  -0.155  10.102   4.160  0.4266 -0.0054  0.4877
  838MOL0     C10499  -0.289  10.151   4.102  0.1480  0.4909  0.3224
  838MOL0     C10500  -0.384  10.199   4.219 -0.0605  1.1272 -0.1636
  838MOL0     N10501  -0.524  10.186   4.171 -0.3311 -0.9673 -0.0443
  838MOL0     C10502  -0.577  10.257   4.070  1.3650  0.0173  0.8309
  838MOL0     C10503  -0.709  10.225   4.066 -0.0439  0.2615  0.8467
  838MOL0     C10504  -0.822  10.288   3.986 -0.0524  0.6617  0.0289
  838MOL0     C10505  -0.962  10.279   4.053 -0.4771  0.4928  0.7389
  838MOL0     C10506  -1.062  10.369   3.979 -0.1292  0.1403  0.1431
  838MOL0     C10507  -1.172  10.425   4.080 -1.1920  0.1146 -0.1276
  838MOL0     O10508  -1.241  10.519   3.999  0.0046  0.4133 -0.2107
  838MOL0     C10509  -1.329  10.598   4.056  0.7050  0.9839  0.0154
  838MOL0     C10510  -1.373  10.590   4.196  0.1824 -0.1069 -0.3678
  838MOL0     C10511  -1.457  10.690   4.250 -0.5942 -0.2489 -0.1133
  838MOL0     C10512  -1.508  10.792   4.169 -0.0943  0.0814 -0.4160
  838MOL0     C10513  -1.605  10.881   4.233  0.7495  0.3575  0.0132
  838MOL0     O10514  -1.680  10.828   4.341 -0.1517  0.0847  0.1636
  838MOL0     C10515  -1.780  10.909   4.391 -0.9995  0.1217  0.3649
  838MOL0     C10516  -1.909  10.865   4.390 -0.1042  0.8551 -0.2530
  838MOL0     C10517  -2.014  10.939   4.453  0.1260  0.2103 -0.3276
  838MOL0     C10518  -1.989  11.046   4.532  0.4994  0.5295 -0.9154
  838MOL0     O10519  -2.096  11.090   4.606 -0.1934  0.9317  0.0809
  838MOL0     C10520  -2.101  11.216   4.679  0.3621 -0.2216  0.0376
  838MOL0     C10521  -2.253  11.256   4.703  0.2169 -0.6300  0.1746
  838MOL0     C10522  -2.261  11.334   4.843  0.8486 -0.1986  0.3890
  838MOL0     C10523  -2.221  11.479   4.822 -0.7669  0.8173  0.3896
  838MOL0     C10524  -2.263  11.564   4.936  0.0161  0.3401  0.7635
  838MOL0     C10525  -2.174  11.691   4.939  0.0519  0.3940 -0.4322
  838MOL0     C10526  -2.163  11.759   5.080  0.5369  0.4385  0.2560
  838MOL0     C10527  -2.093  11.891   5.090 -0.9451  0.5290  0.1985
  838MOL0    Cl10528  -1.917  11.875   5.081 -0.2413  0.1284 -0.0859
  838MOL0     C10529  -1.861  11.094   4.535 -0.3145 -0.5641 -0.8589
  838MOL0     C10530  -1.758  11.034   4.457  0.1111 -0.7744  0.0931
  838MOL0     O10531  -1.634  10.982   4.176 -0.1338 -0.2890 -1.3286
  838MOL0     C10532  -1.473  10.795   4.033 -0.5573  0.7867 -0.4881
  838MOL0     C10533  -1.380  10.696   3.982  0.6475  0.4871 -0.1321
  838MOL0     N10534  -0.731  10.120   4.167  0.3751  0.1207  0.5068
  838MOL0     N10535  -0.615  10.104   4.223  0.3229  0.0727 -0.8312
  838MOL0     C10536   0.662  10.252   3.989  0.1605 -0.4869  0.5044
  838MOL0     C10537   0.799  10.271   3.972 -1.0285  0.3536 -0.8949
  838MOL0     C10538   1.242  10.143   4.057 -0.0835  0.6678  0.2985
  838MOL0     C10539   1.277  10.199   3.938 -0.8109 -1.3930  0.0614
  838MOL0     C10540   1.416  10.192   3.910  0.8876  0.1573 -0.0708
  838MOL0     C10541   1.516  10.136   3.987 -0.4040 -0.5553 -0.0994
  838MOL0     O10542   1.636  10.139   3.935 -0.6859 -0.4199  0.2119
  838MOL0     C10543   1.757  10.106   4.007  0.1908  0.5708 -0.4395
  838MOL0     C10544   1.881  10.168   3.944 -0.4974  0.2047 -0.3167
  838MOL0     C10545   2.008  10.111   4.022 -0.4174 -0.5106  0.0626
  838MOL0     C10546   2.133  10.102   3.937  0.2268  0.0088  0.0225
  838MOL0     C10547   2.247  10.036   4.005 -0.2783 -0.9712 -0.7041
  838MOL0     C10548   2.345   9.994   4.068  0.3433  0.0634 -0.8152
  838MOL0     C10549   1.484  10.068   4.109 -0.1251 -0.1980  0.6322
  838MOL0     C10550   1.342  10.074   4.133 -0.0863 -0.3549 -0.7274
  838MOL0     H10551   0.896   9.955   4.067 -1.8159 -0.8699  1.8519
  838MOL0     H10552   0.640   9.930   4.099  1.0158 -0.9158 -0.7110
  838MOL0     H10553   0.501  10.007   4.233  0.7514  1.7687  0.6476
  838MOL0     H10554   0.385   9.949   4.106  0.6754  0.5116 -2.1543
  838MOL0     H10555   0.364  10.175   4.294 -0.5940  0.0248  1.3174
  838MOL0     H10556   0.307  10.017   4.332  0.4327  0.1685  0.4724
  838MOL0     H10557   0.152  10.040   4.118  1.8673  0.1709 -0.8486
  838MOL0     H10558   0.199  10.208   4.114  0.2355 -2.1444 -3.0058
  838MOL0     H10559   0.048  10.087   4.349  0.8194  1.6399  2.0990
  838MOL0     H10560   0.113  10.248   4.338  2.1267 -0.4014  0.6502
  838MOL0     H10561  -0.030  10.247   4.084 -3.5851  0.6875 -0.4398
  838MOL0     H10562  -0.093  10.293   4.247  1.6605 -0.3186  3.6326
  838MOL0     H10563  -0.177  10.063   4.260  0.3434  2.1322  1.3562
  838MOL0     H10564  -0.115  10.037   4.082 -1.8770 -0.3993 -0.4465
  838MOL0     H10565  -0.281  10.237   4.035  0.3657  1.4118  1.4848
  838MOL0     H10566  -0.339  10.072   4.046 -2.8063  3.1334 -1.0836
  838MOL0     H10567  -0.361  10.302   4.250  2.8670  0.9001 -1.2982
  838MOL0     H10568  -0.365  10.128   4.300  0.1674  0.3044 -0.9221
  838MOL0     H10569  -0.526  10.336   4.015 -0.5000 -0.0593 -1.1070
  838MOL0     H10570  -0.838  10.227   3.897  1.5481 -1.6076  1.1979
  838MOL0     H10571  -0.795  10.392   3.968 -0.2155  0.6227 -0.4424
  838MOL0     H10572  -0.950  10.325   4.152 -1.2319  0.6585  0.7595
  838MOL0     H10573  -0.989  10.174   4.069  2.0683 -0.3634 -0.0839
  838MOL0     H10574  -1.005  10.452   3.936 -0.6927  0.2363 -0.4331
  838MOL0     H10575  -1.101  10.326   3.887  2.3887 -0.3700 -0.7531
  838MOL0     H10576  -1.113  10.468   4.161  0.1540 -3.5299  1.0428
  838MOL0     H10577  -1.238  10.349   4.123 -2.6466  1.5687  0.3177
  838MOL0     H10578  -1.343  10.511   4.264 -3.3589 -0.8936  0.5086
  838MOL0     H10579  -1.479  10.692   4.356 -1.8578  0.2050 -0.3595
  838MOL0     H10580  -1.926  10.769   4.343 -0.0222 -0.6224  2.4963
  838MOL0     H10581  -2.120  10.914   4.451  0.0375  0.3650  1.3988
  838MOL0     H10582  -2.060  11.298   4.620  0.9891  0.2895  1.1437
  838MOL0     H10583  -2.043  11.207   4.771  1.3153  0.0271 -0.5267
  838MOL0     H10584  -2.305  11.160   4.711 -0.0188 -0.6162 -0.9887
  838MOL0     H10585  -2.288  11.313   4.617  1.8194  2.0015  1.1546
  838MOL0     H10586  -2.200  11.293   4.923 -1.7010 -1.9159  1.5792
  838MOL0     H10587  -2.367  11.338   4.869  0.2734 -0.4292 -1.6925
  838MOL0     H10588  -2.111  11.474   4.820 -0.6746 -1.3641  3.5570
  838MOL0     H10589  -2.248  11.520   4.724  2.1749  2.6580  0.1919
  838MOL0     H10590  -2.257  11.507   5.029  0.7675  0.9821  1.1270
  838MOL0     H10591  -2.369  11.586   4.921  0.4930  4.6742  2.1540
  838MOL0     H10592  -2.212  11.764   4.868 -3.7529  0.1078  1.0730
  838MOL0     H10593  -2.074  11.662   4.905 -0.1680  1.5337 -2.1603
  838MOL0     H10594  -2.263  11.772   5.122  0.1679  0.4447 -0.6074
  838MOL0     H10595  -2.102  11.685   5.133  1.8216  0.7039 -0.7985
  838MOL0     H10596  -2.111  11.939   5.186  0.7746  0.3487  0.6502
  838MOL0     H10597  -2.122  11.953   5.004  1.8894  0.7746 -0.7101
  838MOL0     H10598  -1.838  11.178   4.600  1.0412 -1.3124 -0.3181
  838MOL0     H10599  -1.660  11.076   4.477  0.9967 -2.3214 -0.7898
  838MOL0     H10600  -1.516  10.869   3.966 -0.3561  1.7536  0.4214
  838MOL0     H10601  -1.356  10.692   3.876  1.3453 -0.7423  0.0593
  838MOL0     H10602   0.598  10.335   3.962 -0.3241 -1.2834 -0.9344
  838MOL0     H10603   0.836  10.363   3.929 -2.0986  0.6067 -1.3167
  838MOL0     H10604   1.207  10.237   3.864  0.5591  0.0270 -0.5515
  838MOL0     H10605   1.439  10.244   3.818 -2.6036  0.1342 -1.1141
  838MOL0     H10606   1.774   9.998   4.005 -1.4195  0.2935 -0.4515
  838MOL0     H10607   1.747  10.129   4.114  0.2573  0.4668 -0.4102
  838MOL0     H10608   1.885  10.139   3.839  1.3787  1.9450 -0.8161
  838MOL0     H10609   1.880  10.278   3.948 -0.1876  0.3178 -2.2632
  838MOL0     H10610   1.986  10.016   4.070  0.0967  0.3016  1.9764
  838MOL0     H10611   2.023  10.180   4.106  0.6501 -0.0417 -0.4746
  838MOL0     H10612   2.122  10.045   3.844  1.9918  0.4413 -0.4909
  838MOL0     H10613   2.165  10.204   3.915 -1.2691  1.1589  2.7164
  838MOL0     H10614   2.439   9.963   4.109  0.8469 -0.6001 -2.3617
  838MOL0     H10615   1.553  10.019   4.176  0.4156 -3.4737 -2.0356
  838MOL0     H10616   1.298  10.027   4.220 -0.6297 -0.6098 -1.1364
  839MOL0     O10617   4.459   0.014   0.131  0.4121 -0.2837  0.4307
  839MOL0     C10618   4.543  -0.056   0.185  0.7996 -0.3706  0.0190
  839MOL0     O10619   4.522  -0.131   0.297  0.2718  0.6968 -0.2529
  839MOL0     C10620   4.393  -0.146   0.339 -0.1826 -0.4099 -0.1812
  839MOL0     C10621   4.351  -0.280   0.367  0.4974  0.5327 -0.2200
  839MOL0     C10622   4.223  -0.308   0.415 -0.4447 -0.1085  0.0424
  839MOL0     C10623   4.128  -0.204   0.427 -0.9726  0.3101  0.0972
  839MOL0     O10624   4.004  -0.235   0.464  0.3759  0.0879 -0.8693
  839MOL0     C10625   3.892  -0.156   0.409 -0.2156 -0.0444 -0.4184
  839MOL0     C10626   3.765  -0.238   0.445 -0.3522  1.0187  0.1652
  839MOL0     C10627   3.643  -0.145   0.426  0.5079  0.2781  0.1812
  839MOL0     C10628   3.519  -0.199   0.494 -0.2270  0.3062  0.4639
  839MOL0     C10629   3.388  -0.123   0.462 -0.1236  0.3913 -0.0210
  839MOL0     C10630   3.279  -0.218   0.497  0.1116  0.1582 -0.8223
  839MOL0     C10631   3.151  -0.131   0.526 -0.1276 -0.2245 -0.1476
  839MOL0     C10632   3.035  -0.224   0.567  0.7356  0.3131 -0.3289
  839MOL0     N10633   2.915  -0.141   0.553  0.4128  0.0495  0.1032
  839MOL0     C10634   2.802  -0.180   0.487 -0.0338 -0.0266  0.4371
  839MOL0     C10635   2.714  -0.086   0.505  0.5518 -0.6752 -0.6148
  839MOL0     C10636   2.567  -0.098   0.467  0.0108 -0.3942  0.7016
  839MOL0     C10637   2.487  -0.204   0.542 -0.3405  0.2817 -0.0986
  839MOL0     C10638   2.471  -0.184   0.693  0.4862 -0.4784  0.2100
  839MOL0     C10639   2.382  -0.299   0.751  0.4465 -0.7484 -0.5261
  839MOL0     O10640   2.247  -0.296   0.699 -0.2587 -0.2938  0.2357
  839MOL0     C10641   2.151  -0.367   0.779  0.4584  0.2842  0.1821
  839MOL0     C10642   2.182  -0.484   0.849 -0.2711 -0.0980  0.4090
  839MOL0     C10643   2.082  -0.565   0.913  0.6986 -0.2025 -0.1348
  839MOL0     C10644   1.952  -0.518   0.914  1.0274  0.4641 -0.0489
  839MOL0     C10645   1.837  -0.601   0.981 -0.4597  0.0336 -0.1432
  839MOL0     O10646   1.715  -0.562   0.968  0.0708  0.1309  0.3691
  839MOL0     C10647   1.622  -0.662   0.967 -0.3970 -0.5959  0.7013
  839MOL0     C10648   1.636  -0.785   0.911 -0.4485  0.2031  0.4348
  839MOL0     C10649   1.524  -0.875   0.896  0.5730  1.2435 -0.5147
  839MOL0     C10650   1.408  -0.850   0.963  0.1915  0.3454  0.0089
  839MOL0     O10651   1.318  -0.957   0.968 -0.0555 -0.4503  0.0322
  839MOL0     C10652   1.185  -0.932   0.968 -0.1472  0.6563 -0.0415
  839MOL0     C10653   1.097  -1.051   0.994 -0.1305  0.2101  0.4248
  839MOL0     C10654   0.952  -1.020   1.025  0.2304  0.3862  0.0580
  839MOL0     C10655   0.890  -0.924   0.923  0.0058 -1.0091  0.3518
  839MOL0     C10656   0.738  -0.935   0.940 -0.5076 -0.9250 -0.2216
  839MOL0     C10657   0.668  -0.822   0.869  0.4218  0.9853 -0.3599
  839MOL0     C10658   0.516  -0.841   0.871  0.8356  0.7870  0.4199
  839MOL0     C10659   0.467  -0.977   0.810  0.3420  0.0121 -0.7307
  839MOL0    Cl10660   0.294  -0.986   0.849 -0.3151  0.2025  0.1457
  839MOL0     C10661   1.387  -0.717   1.011 -0.3017 -0.4487  0.2578
  839MOL0     C10662   1.496  -0.627   1.024 -0.5974  0.2016 -0.3027
  839MOL0     O10663   1.880  -0.695   1.048  0.1791  0.5354  0.2097
  839MOL0     C10664   1.917  -0.396   0.848 -0.7560 -0.5935  0.0270
  839MOL0     C10665   2.017  -0.324   0.783  0.7030 -0.3362  0.2458
  839MOL0     N10666   2.770   0.016   0.581 -0.2359  1.0799 -0.3148
  839MOL0     N10667   2.890  -0.021   0.609  0.5262  0.3222 -0.8731
  839MOL0     C10668   4.166  -0.072   0.392  0.5454 -0.4389  0.0462
  839MOL0     C10669   4.298  -0.041   0.351  0.4959 -0.5242 -0.2267
  839MOL0     C10670   4.690  -0.048   0.142 -0.5603 -0.8604  0.7220
  839MOL0     C10671   4.708   0.020   0.024 -0.0728 -0.3863 -0.2921
  839MOL0     C10672   4.834   0.038  -0.017  0.0935 -0.6624  0.5280
  839MOL0     C10673   4.942  -0.027   0.038 -0.4581  0.4373 -0.4036
  839MOL0     O10674   5.065  -0.007  -0.021  0.3591  0.0440 -0.1222
  839MOL0     C10675   5.180  -0.072   0.031  0.6216 -0.1420  0.4503
  839MOL0     C10676   5.307  -0.000   0.007 -0.0487  0.1141  0.2686
  839MOL0     C10677   5.289   0.142   0.067 -0.1034 -0.3903  0.1150
  839MOL0     C10678   5.420   0.208   0.088  0.0532 -0.6276  0.3506
  839MOL0     C10679   5.508   0.220  -0.026 -0.8326  0.8830 -0.7070
  839MOL0     C10680   5.582   0.218  -0.119 -0.6416  0.2293 -0.1744
  839MOL0     C10681   4.915  -0.105   0.150  0.1034 -0.2408 -0.3044
  839MOL0     C10682   4.795  -0.110   0.211 -0.3866  1.0689  0.5338
  839MOL0     H10683   4.413  -0.366   0.340 -1.3153 -0.9674  0.1782
  839MOL0     H10684   4.208  -0.416   0.420 -1.5393  0.0878  2.4415
  839MOL0     H10685   3.917  -0.144   0.303  2.1475  0.4366  0.1398
  839MOL0     H10686   3.898  -0.059   0.459  2.7791 -1.9611  3.5300
  839MOL0     H10687   3.761  -0.275   0.548 -2.3865 -1.2653 -0.6719
  839MOL0     H10688   3.771  -0.330   0.386  1.8130 -0.1651  2.0508
  839MOL0     H10689   3.624  -0.129   0.319  0.1922  1.8463  0.4552
  839MOL0     H10690   3.673  -0.052   0.476  0.8214 -0.5403  1.5734
  839MOL0     H10691   3.511  -0.299   0.451  0.4438  0.0677  0.8879
  839MOL0     H10692   3.539  -0.214   0.600  3.2566 -1.2262 -0.2758
  839MOL0     H10693   3.392  -0.076   0.364  2.2269  0.3629 -0.0013
  839MOL0     H10694   3.388  -0.038   0.532 -2.2956  0.0882  0.4165
  839MOL0     H10695   3.308  -0.272   0.588  0.0861 -2.1909 -2.1302
  839MOL0     H10696   3.261  -0.290   0.416  0.7221 -1.4665  0.4312
  839MOL0     H10697   3.185  -0.053   0.595  2.7733 -0.9776 -0.5708
  839MOL0     H10698   3.125  -0.083   0.431 -4.2081  0.9269  1.3453
  839MOL0     H10699   3.060  -0.233   0.674  0.2588  4.0356  0.2188
  839MOL0     H10700   3.029  -0.320   0.514 -1.3886  0.4373 -0.3984
  839MOL0     H10701   2.785  -0.259   0.415  0.6656  1.6831 -1.7013
  839MOL0     H10702   2.575  -0.139   0.366 -0.6658  0.1394  0.4205
  839MOL0     H10703   2.520   0.000   0.459 -1.0160 -0.7039  2.4290
  839MOL0     H10704   2.526  -0.305   0.526 -2.0989 -0.4287 -0.1637
  839MOL0     H10705   2.387  -0.200   0.498 -0.7563 -0.6755  0.7122
  839MOL0     H10706   2.568  -0.179   0.743  0.6145  1.8567 -0.1752
  839MOL0     H10707   2.421  -0.088   0.705 -0.7831 -0.6625 -2.6652
  839MOL0     H10708   2.379  -0.290   0.860  0.5755 -3.2398 -0.2573
  839MOL0     H10709   2.444  -0.388   0.735  0.4701 -0.4486 -2.2885
  839MOL0     H10710   2.269  -0.545   0.827 -1.4868 -2.5760  1.9457
  839MOL0     H10711   2.120  -0.662   0.946 -1.1002 -1.8028 -2.4844
  839MOL0     H10712   1.722  -0.823   0.856 -1.4233 -1.4542 -0.0434
  839MOL0     H10713   1.554  -0.976   0.869  0.4161  0.9262  0.4644
  839MOL0     H10714   1.148  -0.882   0.878 -3.3091  1.3399  1.5278
  839MOL0     H10715   1.182  -0.856   1.046  1.7308  0.7508 -0.0235
  839MOL0     H10716   1.143  -1.115   1.069 -1.2085 -2.0485 -0.7364
  839MOL0     H10717   1.090  -1.118   0.908 -0.8901 -0.1608  0.7667
  839MOL0     H10718   0.960  -0.964   1.119  0.6238 -0.8191  0.7527
  839MOL0     H10719   0.893  -1.110   1.042  2.3956 -1.1745 -0.3236
  839MOL0     H10720   0.918  -0.822   0.951 -0.4579 -1.0949  1.1483
  839MOL0     H10721   0.933  -0.955   0.828  3.3846  0.7511  1.1495
  839MOL0     H10722   0.718  -0.931   1.048 -0.3135 -2.1106 -0.1238
  839MOL0     H10723   0.708  -1.031   0.897  0.0652 -2.3155  2.2915
  839MOL0     H10724   0.700  -0.813   0.765 -0.4862 -2.2054 -1.0211
  839MOL0     H10725   0.699  -0.733   0.925 -1.1974  0.3821  1.6177
  839MOL0     H10726   0.488  -0.824   0.976 -1.0431 -1.1767  0.3009
  839MOL0     H10727   0.469  -0.764   0.810  0.4972  0.6840  0.5495
  839MOL0     H10728   0.520  -1.054   0.867 -1.3505 -0.0727  0.8289
  839MOL0     H10729   0.495  -0.986   0.705  0.1828  1.7704 -0.9437
  839MOL0     H10730   1.296  -0.682   1.059  0.4352  2.8635 -0.5401
  839MOL0     H10731   1.489  -0.531   1.074 -0.1323  0.9622 -1.6258
  839MOL0     H10732   1.812  -0.371   0.854 -0.2078  1.9015  0.3815
  839MOL0     H10733   2.000  -0.242   0.715  0.4305 -1.3695 -0.9599
  839MOL0     H10734   4.095   0.010   0.395 -0.3744 -1.2592  2.0492
  839MOL0     H10735   4.333   0.061   0.342  0.3535 -0.2351  1.9988
  839MOL0     H10736   4.624   0.055  -0.035  0.2091 -0.7917 -0.9456
  839MOL0     H10737   4.856   0.085  -0.113 -0.7558 -1.3639 -0.0210
  839MOL0     H10738   5.192  -0.174  -0.005  0.3635 -0.8031  2.1550
  839MOL0     H10739   5.178  -0.074   0.140  0.7108  0.4811  0.4709
  839MOL0     H10740   5.386  -0.056   0.057 -0.0794 -0.2742 -0.1096
  839MOL0     H10741   5.336  -0.015  -0.098  4.3451 -0.5545  1.3970
  839MOL0     H10742   5.246   0.131   0.167 -0.0130 -1.6674  0.0210
  839MOL0     H10743   5.214   0.203   0.015  0.8692  2.0291  1.4159
  839MOL0     H10744   5.395   0.306   0.128  0.3712  0.4202 -1.8848
  839MOL0     H10745   5.478   0.154   0.163 -1.3629 -1.4871  0.8745
  839MOL0     H10746   5.648   0.203  -0.202 -0.3266 -2.3439  0.4492
  839MOL0     H10747   4.993  -0.169   0.189 -2.4303 -2.4924  1.5002
  839MOL0     H10748   4.789  -0.171   0.300  0.3977  1.6574  1.0086
  840MOL0     O10749   0.327   8.754   4.376  0.3076 -0.0186 -0.9835
  840MOL0     C10750   0.349   8.801   4.266 -0.5155 -0.1092  0.0774
  840MOL0     O10751   0.254   8.797   4.161 -0.8513  0.1547 -0.2107
  840MOL0     C10752   0.118   8.785   4.208  0.1961 -0.3998 -0.4004
  840MOL0     C10753   0.035   8.688   4.148 -0.2437  0.1242 -0.4685
  840MOL0     C10754  -0.103   8.681   4.166  0.0602  0.3101 -0.2063
  840MOL0     C10755  -0.162   8.771   4.254 -0.2630  0.4921 -0.9933
  840MOL0     O10756  -0.296   8.763   4.261  0.1509 -0.1923 -0.1373
  840MOL0     C10757  -0.372   8.838   4.359  0.0869 -0.2524 -0.7088
  840MOL0     C10758  -0.522   8.797   4.355 -0.3686 -0.0837  0.0095
  840MOL0     C10759  -0.578   8.815   4.209  0.4018 -0.1831  0.3785
  840MOL0     C10760  -0.570   8.958   4.153  0.4059 -0.0989 -0.2376
  840MOL0     C10761  -0.700   9.025   4.120 -0.1694 -0.5999 -0.1735
  840MOL0     C10762  -0.788   8.948   4.022 -0.4892  0.3484  0.0521
  840MOL0     C10763  -0.919   9.037   3.979 -0.4350 -0.0424  0.0264
  840MOL0     C10764  -1.008   9.071   4.098  0.6824  0.1710 -0.8202
  840MOL0     N10765  -1.121   9.150   4.056  0.4909 -0.1875  0.2221
  840MOL0     C10766  -1.117   9.275   4.002 -0.1007 -0.1736 -0.3558
  840MOL0     C10767  -1.252   9.289   3.965 -0.5460  0.1270  0.2676
  840MOL0     C10768  -1.300   9.417   3.895  0.3955  0.8036  0.0335
  840MOL0     C10769  -1.415   9.484   3.988  0.7386 -0.3964 -0.7667
  840MOL0     C10770  -1.543   9.412   4.034  0.1504  0.0235 -0.0595
  840MOL0     C10771  -1.617   9.357   3.921 -0.1009  0.0421 -0.2307
  840MOL0     O10772  -1.647   9.453   3.818 -0.7375  0.5038 -0.3225
  840MOL0     C10773  -1.758   9.526   3.846  0.1309 -0.8316  0.0289
  840MOL0     C10774  -1.887   9.474   3.846  0.3032  0.1319  0.2288
  840MOL0     C10775  -1.999   9.556   3.874 -0.0884  0.6144  0.9792
  840MOL0     C10776  -1.985   9.698   3.891  0.9733  0.7595 -0.5411
  840MOL0     C10777  -2.101   9.786   3.917  0.2119 -0.8282  0.6775
  840MOL0     O10778  -2.228   9.738   3.897  0.7457 -0.6864 -0.0670
  840MOL0     C10779  -2.342   9.807   3.929 -0.8232  0.1703  0.1487
  840MOL0     C10780  -2.450   9.765   3.856  0.4681 -0.1449  0.4130
  840MOL0     C10781  -2.570   9.835   3.868  0.1951  0.6102  0.1911
  840MOL0     C10782  -2.580   9.941   3.963 -0.4065  0.5983 -0.8789
  840MOL0     O10783  -2.703  10.002   3.962  0.0064  0.5685  0.5810
  840MOL0     C10784  -2.755  10.067   4.080  0.0251 -0.6209 -0.6554
  840MOL0     C10785  -2.903  10.119   4.081 -0.5796 -0.2426  0.1084
  840MOL0     C10786  -2.985   9.987   4.090  0.3745  0.3914 -0.0909
  840MOL0     C10787  -3.137  10.021   4.058 -0.1341 -0.4205 -0.5996
  840MOL0     C10788  -3.232   9.903   4.085 -0.0335  0.2083 -0.6712
  840MOL0     C10789  -3.364   9.926   4.008  0.0750  0.1033 -0.0618
  840MOL0     C10790  -3.444  10.032   4.088 -0.1697 -0.1148 -0.2713
  840MOL0     C10791  -3.577  10.058   4.028  0.3684  0.0089 -0.3297
  840MOL0    Cl10792  -3.676   9.907   4.021  0.4934  0.2775  0.0203
  840MOL0     C10793  -2.468   9.975   4.039  0.0193  0.3961  0.6268
  840MOL0     C10794  -2.346   9.915   4.018  0.2063  0.0005  0.5701
  840MOL0     O10795  -2.069   9.898   3.939  0.7495  0.2382  0.5779
  840MOL0     C10796  -1.854   9.747   3.872 -0.1664 -0.3111  0.0083
  840MOL0     C10797  -1.736   9.660   3.867 -0.0634  0.3075  0.3366
  840MOL0     N10798  -1.329   9.178   3.988 -0.0139  0.3016  0.2874
  840MOL0     N10799  -1.240   9.092   4.032  0.3613  0.2148 -0.1315
  840MOL0     C10800  -0.083   8.856   4.328 -0.5712  0.5725  0.5602
  840MOL0     C10801   0.056   8.868   4.303 -0.2240  0.7594 -0.3311
  840MOL0     C10802   0.491   8.851   4.235 -0.3363 -0.3212 -0.4922
  840MOL0     C10803   0.519   8.980   4.192  0.2406  0.1709  0.6464
  840MOL0     C10804   0.642   9.032   4.186 -0.2792  0.2234  0.8151
  840MOL0     C10805   0.757   8.954   4.218 -0.0159  0.4782  0.6574
  840MOL0     O10806   0.888   8.995   4.192  0.2773  1.1110  0.2033
  840MOL0     C10807   0.912   9.083   4.072  0.5030  0.2200 -0.2490
  840MOL0     C10808   1.068   9.103   4.049  0.3729  0.0031  0.0519
  840MOL0     C10809   1.095   9.147   3.909  0.3920 -0.0495  0.7572
  840MOL0     C10810   1.250   9.143   3.901  0.3180  0.1068 -0.1637
  840MOL0     C10811   1.284   9.153   3.758  0.2947 -0.7699 -0.6195
  840MOL0     C10812   1.300   9.156   3.635 -0.6484 -0.7149 -0.7536
  840MOL0     C10813   0.739   8.826   4.266  0.2737  0.2423  0.1972
  840MOL0     C10814   0.605   8.777   4.279  0.8250 -0.8858 -0.1916
  840MOL0     H10815   0.078   8.624   4.072  1.2323  2.1785 -1.4356
  840MOL0     H10816  -0.167   8.611   4.114  0.4917 -1.3863  1.4202
  840MOL0     H10817  -0.372   8.946   4.343 -3.4375  0.0867  0.7385
  840MOL0     H10818  -0.333   8.823   4.460 -2.7144  1.2562  0.7400
  840MOL0     H10819  -0.576   8.855   4.430  1.8287  2.9933 -0.6377
  840MOL0     H10820  -0.531   8.691   4.383 -2.3339  0.4092  1.4479
  840MOL0     H10821  -0.683   8.784   4.211  0.1660  0.3185 -1.6044
  840MOL0     H10822  -0.524   8.739   4.152  2.8230  2.3866 -0.9960
  840MOL0     H10823  -0.519   9.017   4.230  2.4213 -1.1295 -0.7479
  840MOL0     H10824  -0.503   8.967   4.068  2.3806 -0.7177  1.1900
  840MOL0     H10825  -0.674   9.129   4.101  1.6046 -0.4992  2.3499
  840MOL0     H10826  -0.746   9.032   4.219 -1.3438 -2.1918 -0.5660
  840MOL0     H10827  -0.829   8.856   4.064 -3.2399  0.1819 -2.6909
  840MOL0     H10828  -0.720   8.938   3.938 -0.5701  1.9446 -0.2361
  840MOL0     H10829  -0.894   9.133   3.934 -3.4567 -0.2203 -2.3708
  840MOL0     H10830  -0.977   8.990   3.898 -0.9540 -0.7732  0.8086
  840MOL0     H10831  -0.956   9.122   4.179  0.6976 -0.6749 -0.2872
  840MOL0     H10832  -1.054   8.980   4.137 -1.6661  2.0228  0.9825
  840MOL0     H10833  -1.038   9.349   4.001  0.6404 -0.9469 -1.7518
  840MOL0     H10834  -1.344   9.385   3.800  0.7591  3.1020 -0.9814
  840MOL0     H10835  -1.217   9.484   3.873  1.8429 -1.4219 -1.7030
  840MOL0     H10836  -1.446   9.578   3.942  2.2335 -0.5431 -2.1747
  840MOL0     H10837  -1.367   9.513   4.082 -2.7318  0.7136  0.7973
  840MOL0     H10838  -1.522   9.330   4.103 -0.4994 -0.6056 -0.5857
  840MOL0     H10839  -1.613   9.482   4.081  0.5546 -0.7462  1.7853
  840MOL0     H10840  -1.706   9.306   3.958  0.5485 -0.8536  0.1413
  840MOL0     H10841  -1.558   9.277   3.875  1.1862 -0.0893  1.5330
  840MOL0     H10842  -1.890   9.369   3.822 -0.5131  0.1326  0.3041
  840MOL0     H10843  -2.098   9.511   3.876 -0.1761  0.7082 -0.4641
  840MOL0     H10844  -2.440   9.677   3.794  0.6659 -2.6129  3.6906
  840MOL0     H10845  -2.662   9.803   3.820  0.8469  0.2196 -0.8163
  840MOL0     H10846  -2.687  10.152   4.091 -0.6897 -0.2729  1.6386
  840MOL0     H10847  -2.753   9.988   4.156 -0.6409  0.0619  0.0932
  840MOL0     H10848  -2.917  10.168   3.984  0.6007 -1.1598 -0.5560
  840MOL0     H10849  -2.927  10.189   4.162  0.0601  1.0793 -0.8163
  840MOL0     H10850  -2.971   9.940   4.188  2.5082  1.8845  0.3892
  840MOL0     H10851  -2.948   9.913   4.019 -0.7200  1.5087 -1.9233
  840MOL0     H10852  -3.152  10.111   4.119  0.8302 -0.2915 -0.5403
  840MOL0     H10853  -3.141  10.043   3.951 -0.5166  0.2009 -0.4645
  840MOL0     H10854  -3.246   9.879   4.190 -0.6481  1.6962 -0.3889
  840MOL0     H10855  -3.181   9.816   4.042 -0.6664 -0.0072 -1.0116
  840MOL0     H10856  -3.423   9.834   4.008  1.5590 -0.8881  0.0235
  840MOL0     H10857  -3.339   9.955   3.906 -0.7215 -0.8613 -0.5504
  840MOL0     H10858  -3.464  10.003   4.191  0.4732  0.8256  0.1290
  840MOL0     H10859  -3.395  10.130   4.087  2.4414 -1.3184 -2.1018
  840MOL0     H10860  -3.575  10.104   3.929  0.3410  2.1966  0.6198
  840MOL0     H10861  -3.637  10.135   4.078 -1.8887 -1.2033 -1.0063
  840MOL0     H10862  -2.482  10.057   4.109 -2.1372 -2.4241  3.8139
  840MOL0     H10863  -2.266   9.949   4.082 -2.0535  0.3157  3.4376
  840MOL0     H10864  -1.835   9.852   3.891  2.1314 -0.2101 -2.2954
  840MOL0     H10865  -1.633   9.693   3.879  0.4479 -0.9117 -0.5073
  840MOL0     H10866  -0.109   8.930   4.403  1.8360  2.4582 -0.3452
  840MOL0     H10867   0.112   8.949   4.349  1.8194  0.2351 -1.7706
  840MOL0     H10868   0.437   9.041   4.155 -0.3698 -0.6318  0.6655
  840MOL0     H10869   0.655   9.129   4.139  0.0837  0.1725  0.8072
  840MOL0     H10870   0.873   9.182   4.099 -0.4195 -0.7015  2.1834
  840MOL0     H10871   0.853   9.055   3.985 -1.5321  1.2526  0.7176
  840MOL0     H10872   1.101   9.174   4.125 -0.5561 -0.3824  0.8318
  840MOL0     H10873   1.103   9.003   4.076 -1.0757 -0.3727  0.6316
  840MOL0     H10874   1.067   9.247   3.874  0.6642 -0.4260 -0.6039
  840MOL0     H10875   1.035   9.093   3.835 -0.8198 -0.4777  2.0072
  840MOL0     H10876   1.300   9.219   3.961 -1.0167  2.4551 -1.8726
  840MOL0     H10877   1.288   9.042   3.921 -2.5047 -0.9587  0.2284
  840MOL0     H10878   1.309   9.147   3.529  0.9910 -0.1970 -0.6833
  840MOL0     H10879   0.822   8.770   4.306 -0.1897  0.3706  1.3869
  840MOL0     H10880   0.582   8.681   4.325 -4.3652  0.3364  0.3652
  841MOL0     O10881   1.706   3.944   8.378 -0.8382 -0.4411  0.2658
  841MOL0     C10882   1.751   3.838   8.425 -0.0095 -0.1541  0.1320
  841MOL0     O10883   1.671   3.730   8.456  1.2122 -0.0167 -0.5206
  841MOL0     C10884   1.530   3.741   8.463 -0.2537 -0.2331  0.0688
  841MOL0     C10885   1.456   3.813   8.364 -0.5341  0.3342 -0.4282
  841MOL0     C10886   1.311   3.803   8.361  0.7395  0.3525 -0.1095
  841MOL0     C10887   1.240   3.727   8.456  0.1268  0.3217 -0.4679
  841MOL0     O10888   1.107   3.698   8.459 -0.3033 -0.1051  0.4653
  841MOL0     C10889   1.026   3.730   8.340  0.1702  0.4995 -0.2461
  841MOL0     C10890   0.889   3.676   8.369 -0.4184  1.0595  0.3626
  841MOL0     C10891   0.795   3.696   8.251  0.4231 -0.4610  0.5205
  841MOL0     C10892   0.652   3.676   8.299  0.0469 -0.2677 -0.5831
  841MOL0     C10893   0.540   3.692   8.194  0.9280 -0.4556  0.7048
  841MOL0     C10894   0.404   3.661   8.261  0.4356  0.0363  0.3126
  841MOL0     C10895   0.277   3.723   8.194 -0.1236  0.5716 -1.2205
  841MOL0     C10896   0.250   3.651   8.070  0.1783 -0.6643  0.6477
  841MOL0     N10897   0.132   3.711   8.010  0.5070  0.1811  0.3451
  841MOL0     C10898   0.016   3.643   7.995 -0.0635 -0.5233 -0.0534
  841MOL0     C10899  -0.067   3.730   7.930 -0.3688 -0.4749  0.0371
  841MOL0     C10900  -0.216   3.697   7.902 -0.2185  0.0629 -1.3803
  841MOL0     C10901  -0.233   3.575   7.806  0.3483 -0.3260  0.2358
  841MOL0     C10902  -0.385   3.546   7.806 -0.3166  0.0808  0.3371
  841MOL0     C10903  -0.404   3.412   7.731 -0.2615  0.3588 -1.1432
  841MOL0     O10904  -0.522   3.329   7.768  0.1661 -0.2286  0.5091
  841MOL0     C10905  -0.640   3.342   7.700  0.2838 -0.6888  0.0182
  841MOL0     C10906  -0.695   3.227   7.643  0.0034 -0.1095  0.5607
  841MOL0     C10907  -0.820   3.240   7.579 -0.3352  0.1548  1.3204
  841MOL0     C10908  -0.883   3.366   7.562 -0.2134 -0.0222 -0.6085
  841MOL0     C10909  -1.001   3.385   7.477  0.7707  0.0077  0.2759
  841MOL0     O10910  -1.085   3.277   7.473  0.3627 -0.3325 -0.2888
  841MOL0     C10911  -1.216   3.283   7.429 -0.7528  0.4213  0.9252
  841MOL0     C10912  -1.277   3.173   7.375  0.0533  0.2125  0.3219
  841MOL0     C10913  -1.414   3.164   7.338  0.3630  0.2302 -0.0739
  841MOL0     C10914  -1.503   3.265   7.384 -0.2283 -0.2262 -0.1122
  841MOL0     O10915  -1.637   3.264   7.343 -0.0850  0.2063 -0.1061
  841MOL0     C10916  -1.716   3.382   7.372  0.2950  0.6438 -0.0467
  841MOL0     C10917  -1.866   3.328   7.334 -1.0693 -0.8789 -0.4776
  841MOL0     C10918  -1.918   3.197   7.404  0.2279 -0.9492 -0.5736
  841MOL0     C10919  -2.062   3.164   7.363  0.4138  0.1290  0.8636
  841MOL0     C10920  -2.119   3.041   7.427 -0.9866 -0.2436 -0.2694
  841MOL0     C10921  -2.270   3.011   7.399  0.2813 -0.1982 -0.7847
  841MOL0     C10922  -2.302   2.874   7.459 -0.7372  0.3344  0.4076
  841MOL0     C10923  -2.453   2.846   7.430 -0.3042  0.2321  0.8111
  841MOL0    Cl10924  -2.511   2.676   7.465 -0.1120 -0.0273  0.0369
  841MOL0     C10925  -1.443   3.386   7.439  0.5808  0.8499 -0.4701
  841MOL0     C10926  -1.304   3.386   7.471 -0.5182  0.2839  0.5673
  841MOL0     O10927  -1.025   3.492   7.427  0.5567 -0.4279  0.3957
  841MOL0     C10928  -0.826   3.481   7.623  0.9051  0.5908  0.3511
  841MOL0     C10929  -0.711   3.466   7.693  0.5264  0.2662  0.5599
  841MOL0     N10930   0.004   3.846   7.899  0.4609 -0.7071 -0.2313
  841MOL0     N10931   0.120   3.831   7.946  0.1942 -0.2174  1.5245
  841MOL0     C10932   1.319   3.664   8.554  0.6435 -0.1915 -0.2014
  841MOL0     C10933   1.460   3.675   8.560  0.6084  0.6665 -0.3952
  841MOL0     C10934   1.896   3.829   8.458  0.3142  0.1374  0.3433
  841MOL0     C10935   1.982   3.948   8.452 -0.4314  0.6886 -0.2422
  841MOL0     C10936   2.116   3.939   8.476  0.2146  0.7141  0.2310
  841MOL0     C10937   2.170   3.819   8.526 -0.2155  0.1316 -0.9319
  841MOL0     O10938   2.300   3.807   8.572  0.5667 -0.5091  0.2796
  841MOL0     C10939   2.383   3.923   8.589 -0.5809 -0.5095  0.3238
  841MOL0     C10940   2.518   3.887   8.654 -0.0312 -0.2646 -0.5995
  841MOL0     C10941   2.579   3.758   8.606 -0.2329  0.8983  0.5948
  841MOL0     C10942   2.729   3.760   8.597 -0.3386  0.1144  0.0082
  841MOL0     C10943   2.801   3.815   8.712 -0.8098 -0.0968  0.8609
  841MOL0     C10944   2.868   3.856   8.812 -0.0936  0.2161 -0.6766
  841MOL0     C10945   2.095   3.699   8.537 -0.0353 -0.5866  0.4697
  841MOL0     C10946   1.956   3.714   8.505 -0.0942 -0.2891  0.7598
  841MOL0     H10947   1.499   3.860   8.277 -3.2044  1.3912 -1.2725
  841MOL0     H10948   1.252   3.831   8.275 -1.1470 -2.9180 -0.0463
  841MOL0     H10949   1.070   3.682   8.252 -3.0735 -0.4017 -1.5170
  841MOL0     H10950   1.027   3.839   8.338  1.9598  0.5379 -2.9027
  841MOL0     H10951   0.866   3.732   8.460 -1.4914 -3.5032  3.2888
  841MOL0     H10952   0.901   3.571   8.399  2.1871  0.6199 -1.8257
  841MOL0     H10953   0.812   3.617   8.177 -0.1133 -1.4616  1.4411
  841MOL0     H10954   0.818   3.790   8.200  1.6314  0.4444  2.5904
  841MOL0     H10955   0.652   3.579   8.349  4.2952 -0.2088 -0.0650
  841MOL0     H10956   0.633   3.744   8.383  2.0310 -0.0805 -0.2235
  841MOL0     H10957   0.554   3.644   8.097 -3.7162 -1.8553  0.4921
  841MOL0     H10958   0.536   3.798   8.165 -1.5734 -0.3384  1.2803
  841MOL0     H10959   0.409   3.689   8.367 -0.7962 -1.1634  0.7084
  841MOL0     H10960   0.394   3.552   8.253  1.0050 -0.1183  1.3941
  841MOL0     H10961   0.194   3.701   8.262  0.9597 -1.7601 -0.5637
  841MOL0     H10962   0.280   3.831   8.176 -0.9065  0.7539 -0.3548
  841MOL0     H10963   0.238   3.543   8.083 -2.8007 -0.2840  1.7714
  841MOL0     H10964   0.335   3.671   8.005 -0.7998 -0.2878 -0.5539
  841MOL0     H10965  -0.001   3.544   8.037  2.5736 -1.3978 -0.8402
  841MOL0     H10966  -0.274   3.783   7.867 -0.3538 -0.7057 -3.1243
  841MOL0     H10967  -0.255   3.675   8.002 -1.4277 -1.0552 -2.0795
  841MOL0     H10968  -0.183   3.483   7.838 -1.7062 -2.3118 -1.8292
  841MOL0     H10969  -0.195   3.602   7.707  1.1935 -1.1631  0.3217
  841MOL0     H10970  -0.416   3.537   7.911 -0.7075 -0.0523  0.2112
  841MOL0     H10971  -0.434   3.627   7.751  0.5483  1.5321  1.6244
  841MOL0     H10972  -0.321   3.343   7.748 -2.9697 -2.6754  0.8944
  841MOL0     H10973  -0.416   3.433   7.624 -2.8176 -0.3477 -1.0653
  841MOL0     H10974  -0.655   3.126   7.645  0.9875  0.2130 -1.1185
  841MOL0     H10975  -0.864   3.147   7.545  1.6552 -0.6874  0.8756
  841MOL0     H10976  -1.218   3.085   7.352 -1.2606 -0.3682 -0.9828
  841MOL0     H10977  -1.443   3.080   7.275 -1.0256  1.8140 -1.6526
  841MOL0     H10978  -1.692   3.468   7.310  0.6065  0.6959  0.1419
  841MOL0     H10979  -1.713   3.402   7.480  0.0933  1.3751 -0.1779
  841MOL0     H10980  -1.873   3.319   7.225  1.1824  0.7096 -0.8210
  841MOL0     H10981  -1.930   3.415   7.352  0.8889  0.0808  2.3855
  841MOL0     H10982  -1.922   3.207   7.513 -0.5380  0.8688 -0.7321
  841MOL0     H10983  -1.852   3.112   7.388  2.0432  0.4748 -0.9058
  841MOL0     H10984  -2.113   3.253   7.400 -2.5081 -1.7687  1.7730
  841MOL0     H10985  -2.075   3.175   7.255 -0.6259 -2.0808  0.7013
  841MOL0     H10986  -2.095   3.036   7.533  2.8547 -1.9474 -1.0544
  841MOL0     H10987  -2.078   2.948   7.385 -3.0427 -1.4770  0.2775
  841MOL0     H10988  -2.287   2.992   7.293  2.9973  0.2364 -1.3577
  841MOL0     H10989  -2.339   3.092   7.426  0.8402  1.3683 -3.6668
  841MOL0     H10990  -2.239   2.802   7.405  1.2085  3.4583 -1.8418
  841MOL0     H10991  -2.285   2.872   7.567 -5.5484 -0.1613  1.3574
  841MOL0     H10992  -2.469   2.861   7.323  1.0552 -1.8045  0.2593
  841MOL0     H10993  -2.519   2.917   7.481 -0.9928 -0.9769  1.6904
  841MOL0     H10994  -1.504   3.473   7.463  0.0185  0.6847 -1.2740
  841MOL0     H10995  -1.269   3.474   7.523 -0.3875 -0.0844  1.1151
  841MOL0     H10996  -0.869   3.580   7.608 -0.4580 -0.0462 -0.1253
  841MOL0     H10997  -0.666   3.547   7.750  2.5310 -1.6659  1.8954
  841MOL0     H10998   1.269   3.605   8.629 -2.7745  0.1185 -2.0446
  841MOL0     H10999   1.523   3.630   8.637  0.1637  0.4078 -0.1793
  841MOL0     H11000   1.931   4.041   8.430 -0.7517  0.3088 -1.1235
  841MOL0     H11001   2.180   4.026   8.469  0.8446  0.5552  3.0502
  841MOL0     H11002   2.330   3.996   8.651  0.9965 -0.9837  2.3221
  841MOL0     H11003   2.394   3.982   8.498 -1.0954  2.5278  2.1199
  841MOL0     H11004   2.583   3.972   8.630  1.6014 -0.9146  1.2162
  841MOL0     H11005   2.504   3.888   8.763  0.2132  1.4753 -0.5590
  841MOL0     H11006   2.534   3.740   8.507  1.2915  1.5034 -0.2472
  841MOL0     H11007   2.547   3.671   8.664 -1.1413  0.2636 -0.7913
  841MOL0     H11008   2.773   3.661   8.583  4.8672  1.3973  4.0223
  841MOL0     H11009   2.744   3.817   8.505 -3.3322 -1.9911 -1.9927
  841MOL0     H11010   2.931   3.895   8.889  2.0787  1.3823 -2.9179
  841MOL0     H11011   2.129   3.602   8.571  2.1104 -0.0015  0.1319
  841MOL0     H11012   1.900   3.622   8.520  0.2274 -0.7186 -0.4972
  842MOL0     O11013   0.346   5.673   4.962 -0.8051 -0.0929 -0.4055
  842MOL0     C11014   0.389   5.741   4.866  0.2067  0.3036 -0.6183
  842MOL0     O11015   0.319   5.838   4.812  0.8915  0.5275  0.8295
  842MOL0     C11016   0.190   5.859   4.850 -1.1678  0.3699 -0.2544
  842MOL0     C11017   0.079   5.813   4.782 -0.6474 -0.6492  0.1492
  842MOL0     C11018  -0.043   5.861   4.821  0.3342 -0.0933  0.0900
  842MOL0     C11019  -0.071   5.937   4.935 -0.3736  0.3293  0.6007
  842MOL0     O11020  -0.199   5.960   4.966  0.3328 -0.3949 -0.1336
  842MOL0     C11021  -0.250   5.918   5.098  0.1135  1.1702  0.4676
  842MOL0     C11022  -0.376   5.979   5.147  0.0637 -0.4769  0.5459
  842MOL0     C11023  -0.498   5.929   5.079 -0.1185  0.0265  0.5341
  842MOL0     C11024  -0.611   6.026   5.112  0.1315 -0.3234 -0.1233
  842MOL0     C11025  -0.744   5.993   5.047 -1.5650 -0.2139  0.1396
  842MOL0     C11026  -0.803   5.861   5.100 -0.0971  0.3926  0.3602
  842MOL0     C11027  -0.951   5.833   5.063  0.4283  0.5287  0.1252
  842MOL0     C11028  -1.016   5.708   5.125  0.2715 -0.8014 -0.1616
  842MOL0     N11029  -1.134   5.645   5.057  0.6704 -0.5792 -0.6262
  842MOL0     C11030  -1.269   5.685   5.078 -0.3693  0.7822 -0.2015
  842MOL0     C11031  -1.337   5.602   5.003  0.3273  0.1141  0.5070
  842MOL0     C11032  -1.482   5.620   4.965  1.1864 -0.5394  1.1236
  842MOL0     C11033  -1.554   5.511   5.035  0.1893 -0.2610 -0.4250
  842MOL0     C11034  -1.699   5.493   4.986  1.1347 -0.0359  0.7737
  842MOL0     C11035  -1.775   5.372   5.055 -0.4732  0.3309  0.3456
  842MOL0     O11036  -1.909   5.358   5.005 -0.9662 -0.2671 -0.7566
  842MOL0     C11037  -2.021   5.378   5.083 -0.5994  0.8089  0.1630
  842MOL0     C11038  -2.064   5.280   5.168 -0.5933  1.0380  0.0660
  842MOL0     C11039  -2.182   5.293   5.245  1.0176  0.2997  0.2050
  842MOL0     C11040  -2.253   5.422   5.246  0.2083 -0.1205  0.8472
  842MOL0     C11041  -2.375   5.431   5.326  0.9241  0.0426  0.4265
  842MOL0     O11042  -2.399   5.327   5.413  0.1172 -0.3389  0.9744
  842MOL0     C11043  -2.517   5.328   5.479 -0.2020  0.2264 -0.3406
  842MOL0     C11044  -2.636   5.288   5.414  0.2088  0.2173  1.0267
  842MOL0     C11045  -2.756   5.303   5.487 -0.7762  0.3585  0.0775
  842MOL0     C11046  -2.761   5.340   5.615  0.4733  0.1319 -0.5129
  842MOL0     O11047  -2.878   5.343   5.688  1.3520  0.1178  0.1986
  842MOL0     C11048  -3.006   5.301   5.625 -0.0699 -0.2780 -0.3413
  842MOL0     C11049  -3.125   5.314   5.721 -0.7723 -0.6670  0.5995
  842MOL0     C11050  -3.259   5.337   5.647  0.3341  0.8653  0.6392
  842MOL0     C11051  -3.379   5.331   5.741  0.0405 -0.1647 -0.1254
  842MOL0     C11052  -3.497   5.334   5.642  0.5513 -0.2909  0.4780
  842MOL0     C11053  -3.635   5.291   5.709 -0.7359  0.2614  0.2865
  842MOL0     C11054  -3.707   5.401   5.798 -0.1605  0.5508 -0.0231
  842MOL0     C11055  -3.828   5.331   5.872  0.1850 -0.0003 -0.6070
  842MOL0    Cl11056  -3.757   5.257   6.017  0.4227  0.1617  0.2411
  842MOL0     C11057  -2.643   5.374   5.676 -0.6027  0.4790 -0.8019
  842MOL0     C11058  -2.515   5.372   5.616 -0.1983  0.3408 -0.2799
  842MOL0     O11059  -2.450   5.523   5.304 -0.1400 -0.2570  0.0098
  842MOL0     C11060  -2.207   5.526   5.163  0.6824 -0.0869  0.9645
  842MOL0     C11061  -2.090   5.496   5.078  0.3713 -0.1940 -0.0087
  842MOL0     N11062  -1.257   5.520   4.943 -0.0842  0.5526 -0.2274
  842MOL0     N11063  -1.136   5.533   4.982  0.0711 -0.1305  0.1741
  842MOL0     C11064   0.042   5.984   5.010 -0.5004 -0.2432  0.6692
  842MOL0     C11065   0.172   5.951   4.956 -0.1404  0.3159 -0.2499
  842MOL0     C11066   0.522   5.704   4.810 -0.3778 -0.0647 -0.4753
  842MOL0     C11067   0.589   5.591   4.847 -0.7062 -0.9585 -0.3862
  842MOL0     C11068   0.710   5.564   4.791 -0.1660 -0.6374  0.2840
  842MOL0     C11069   0.765   5.650   4.693 -1.0074  0.4992  0.0847
  842MOL0     O11070   0.876   5.629   4.625  0.4676  0.2777  0.0514
  842MOL0     C11071   0.912   5.499   4.577 -0.5670  0.6120 -0.1392
  842MOL0     C11072   0.990   5.418   4.684  0.1270 -0.2628 -0.3582
  842MOL0     C11073   1.089   5.319   4.609  0.5394  0.4154  0.3299
  842MOL0     C11074   1.182   5.232   4.689 -0.1492 -1.0785  0.5236
  842MOL0     C11075   1.123   5.122   4.754 -0.1772 -0.2977 -0.8238
  842MOL0     C11076   1.097   5.017   4.808 -0.3412  0.3684 -0.4382
  842MOL0     C11077   0.703   5.776   4.676 -0.6646  0.1739 -0.4053
  842MOL0     C11078   0.577   5.802   4.721 -0.1292 -0.0667  0.6849
  842MOL0     H11079   0.092   5.746   4.697  2.2322  0.6261 -0.5245
  842MOL0     H11080  -0.127   5.826   4.762 -1.6161  2.7706  0.9739
  842MOL0     H11081  -0.170   5.934   5.170  1.5229 -0.7379 -0.5739
  842MOL0     H11082  -0.258   5.809   5.103  2.6710  0.8263 -1.0892
  842MOL0     H11083  -0.372   6.084   5.117 -0.4693 -0.3123  1.0383
  842MOL0     H11084  -0.381   5.962   5.255  1.3028  1.1196  0.8930
  842MOL0     H11085  -0.517   5.827   5.115 -0.2374 -0.3264 -0.5038
  842MOL0     H11086  -0.491   5.931   4.970 -3.0856  1.0945  0.2674
  842MOL0     H11087  -0.633   6.052   5.216 -1.9949  3.3428 -1.2959
  842MOL0     H11088  -0.577   6.124   5.078 -0.1446  0.8674  2.7272
  842MOL0     H11089  -0.724   5.995   4.940 -2.5432  0.2639 -0.0401
  842MOL0     H11090  -0.812   6.078   5.054  1.9896  2.8729  0.3658
  842MOL0     H11091  -0.798   5.876   5.208 -1.4909  0.9772  0.3642
  842MOL0     H11092  -0.738   5.778   5.070  1.3461  1.2156  1.1217
  842MOL0     H11093  -1.013   5.920   5.090  0.1191  0.5538 -0.6276
  842MOL0     H11094  -0.954   5.829   4.954  2.4314  1.8855 -0.0224
  842MOL0     H11095  -1.043   5.724   5.230 -0.5681 -1.6419 -0.2336
  842MOL0     H11096  -0.940   5.629   5.119  0.6456 -0.8068  3.0298
  842MOL0     H11097  -1.300   5.775   5.130 -1.3310  1.0242 -1.1378
  842MOL0     H11098  -1.501   5.604   4.858 -1.1329  0.0110  1.4066
  842MOL0     H11099  -1.517   5.721   4.987  2.8523  0.9995 -2.3698
  842MOL0     H11100  -1.554   5.547   5.139  1.7943  0.7880 -0.7450
  842MOL0     H11101  -1.499   5.417   5.025 -1.7187 -1.3691 -0.9806
  842MOL0     H11102  -1.752   5.586   5.011 -1.9505  0.0700 -4.5231
  842MOL0     H11103  -1.697   5.479   4.877 -2.3914 -2.2880  0.8430
  842MOL0     H11104  -1.789   5.394   5.161  0.2427  2.0034  0.1269
  842MOL0     H11105  -1.715   5.281   5.048 -1.7597 -0.5005 -0.3152
  842MOL0     H11106  -2.001   5.193   5.184 -0.8851  0.8277  0.0817
  842MOL0     H11107  -2.208   5.207   5.305  3.0970 -0.2995  0.3411
  842MOL0     H11108  -2.639   5.263   5.308  0.7980  1.5132  0.6838
  842MOL0     H11109  -2.838   5.266   5.426  0.6450  2.8332 -3.7119
  842MOL0     H11110  -2.997   5.197   5.593  1.6176 -0.3322  0.2232
  842MOL0     H11111  -3.026   5.361   5.535 -0.2337 -1.7340 -1.3064
  842MOL0     H11112  -3.112   5.398   5.789 -0.9116 -1.5244  1.7248
  842MOL0     H11113  -3.127   5.221   5.780 -0.1363 -1.5730 -0.7503
  842MOL0     H11114  -3.270   5.259   5.571  2.5896  0.1928  0.9117
  842MOL0     H11115  -3.264   5.436   5.601  3.1762  1.4637  1.4557
  842MOL0     H11116  -3.377   5.240   5.800  0.8905 -1.3384 -1.8778
  842MOL0     H11117  -3.382   5.418   5.808  1.9214  0.8119 -1.2152
  842MOL0     H11118  -3.495   5.266   5.556  0.9116  1.7797 -1.2478
  842MOL0     H11119  -3.516   5.437   5.609  1.6899  0.6553  2.5791
  842MOL0     H11120  -3.620   5.197   5.763 -1.9978 -1.5173 -2.2633
  842MOL0     H11121  -3.700   5.279   5.622 -0.2519  3.2954 -0.6011
  842MOL0     H11122  -3.636   5.440   5.872 -0.8979  2.5092 -0.2757
  842MOL0     H11123  -3.738   5.481   5.730 -0.4422 -1.9416 -3.0166
  842MOL0     H11124  -3.890   5.262   5.815 -2.0962  1.0392  0.5151
  842MOL0     H11125  -3.899   5.407   5.906  1.1301  0.1056  1.2627
  842MOL0     H11126  -2.653   5.407   5.779  1.2281  0.3634 -0.5425
  842MOL0     H11127  -2.429   5.412   5.669  0.6607 -4.1386  2.2500
  842MOL0     H11128  -2.253   5.623   5.151 -0.1242 -0.7440 -2.4982
  842MOL0     H11129  -2.049   5.573   5.013 -1.6753 -0.1194 -1.3135
  842MOL0     H11130   0.022   6.051   5.092 -2.5570 -0.4082  0.3587
  842MOL0     H11131   0.259   5.986   5.011 -2.3728  3.5903  1.5566
  842MOL0     H11132   0.549   5.530   4.927 -1.9127  1.0101  0.6217
  842MOL0     H11133   0.778   5.497   4.843  0.6415  0.0091  0.0756
  842MOL0     H11134   0.982   5.509   4.493  0.3929 -2.3292  0.2095
  842MOL0     H11135   0.827   5.446   4.534 -0.2580  0.2302 -0.2777
  842MOL0     H11136   1.051   5.487   4.744  1.1350 -2.2349  1.0012
  842MOL0     H11137   0.920   5.365   4.748 -0.8900  0.6155 -0.7152
  842MOL0     H11138   1.152   5.374   4.538 -1.7064  0.1819 -1.9784
  842MOL0     H11139   1.030   5.252   4.546 -0.8344  1.6929  0.1879
  842MOL0     H11140   1.270   5.207   4.629 -1.0118 -0.0129 -1.2882
  842MOL0     H11141   1.219   5.295   4.770 -0.2894  1.5528 -1.3323
  842MOL0     H11142   1.071   4.930   4.865  2.0583 -0.1907 -0.1061
  842MOL0     H11143   0.754   5.838   4.603 -0.7706  2.3873  1.2866
  842MOL0     H11144   0.533   5.896   4.690  3.3326  1.1282 -1.1901
  843MOL0     O11145   9.927   4.444   0.811  1.1494 -0.4095 -0.3875
  843MOL0     C11146   9.915   4.423   0.933  0.3483 -0.4850 -0.0901
  843MOL0     O11147   9.807   4.468   1.009 -0.2033 -0.0456  0.4222
  843MOL0     C11148   9.672   4.479   0.965  0.2993  0.6059 -0.3003
  843MOL0     C11149   9.580   4.549   1.044 -0.1778 -0.4339 -0.3754
  843MOL0     C11150   9.450   4.561   1.010  0.5480  0.3516  0.1321
  843MOL0     C11151   9.404   4.495   0.890  0.5467  0.5635 -0.6653
  843MOL0     O11152   9.277   4.514   0.861  0.1961 -0.2273 -0.9251
  843MOL0     C11153   9.222   4.460   0.743  0.1473 -0.2193  0.6254
  843MOL0     C11154   9.250   4.541   0.608  0.1451  0.5558  1.1746
  843MOL0     C11155   9.113   4.589   0.551 -0.3856 -0.3050  0.1002
  843MOL0     C11156   9.141   4.677   0.422 -0.5463  0.1776 -0.1027
  843MOL0     C11157   9.008   4.678   0.343  0.1319  0.3760 -0.3456
  843MOL0     C11158   9.001   4.562   0.242  0.0520  0.1723  0.3727
  843MOL0     C11159   8.869   4.578   0.150 -1.0768 -0.0548 -1.1719
  843MOL0     C11160   8.844   4.452   0.070 -0.2138  0.0047 -0.2056
  843MOL0     N11161   8.723   4.455  -0.016 -0.6094 -0.4862  0.2300
  843MOL0     C11162   8.631   4.360  -0.026  0.0645 -0.3797  0.5765
  843MOL0     C11163   8.567   4.396  -0.138  0.0371  0.0411 -0.4585
  843MOL0     C11164   8.481   4.310  -0.216 -0.1815  0.8400 -0.7168
  843MOL0     C11165   8.356   4.383  -0.265  0.6794  0.6029 -0.3717
  843MOL0     C11166   8.247   4.285  -0.335 -0.4076  0.6870 -0.5752
  843MOL0     C11167   8.115   4.347  -0.365 -0.0373 -0.8992  0.3412
  843MOL0     O11168   8.125   4.406  -0.498  0.1933  0.0339  1.4060
  843MOL0     C11169   8.060   4.359  -0.609  0.3424 -0.0982  0.4493
  843MOL0     C11170   8.054   4.436  -0.730  0.0321  0.2576  0.0529
  843MOL0     C11171   8.002   4.384  -0.843 -0.2891 -0.8869 -0.6244
  843MOL0     C11172   7.967   4.249  -0.846 -0.5303  0.4239 -0.5907
  843MOL0     C11173   7.915   4.193  -0.976 -0.5525 -0.6340  0.5724
  843MOL0     O11174   7.891   4.058  -0.982  0.0326  0.0150 -0.4173
  843MOL0     C11175   7.856   3.995  -1.103  0.0927 -0.4363  0.3121
  843MOL0     C11176   7.903   3.866  -1.130  0.2786  0.2298  0.8199
  843MOL0     C11177   7.865   3.796  -1.250  0.2961 -0.7133 -0.4885
  843MOL0     C11178   7.788   3.857  -1.349 -0.6089  0.1885  0.1046
  843MOL0     O11179   7.769   3.773  -1.455  0.0980 -0.7441  0.1992
  843MOL0     C11180   7.658   3.801  -1.549 -0.6236  0.0085 -0.3806
  843MOL0     C11181   7.673   3.685  -1.645  0.1250  0.1734  0.2582
  843MOL0     C11182   7.590   3.715  -1.765  0.8485  0.2485 -0.9330
  843MOL0     C11183   7.554   3.588  -1.848  0.4760 -0.7341 -0.2045
  843MOL0     C11184   7.560   3.609  -1.997  0.4518 -0.6668  0.8964
  843MOL0     C11185   7.715   3.605  -2.051 -0.5790 -0.5753  0.0363
  843MOL0     C11186   7.717   3.662  -2.199 -0.4129 -0.2211 -0.6285
  843MOL0     C11187   7.723   3.810  -2.198 -0.6987 -1.1165  1.1933
  843MOL0    Cl11188   7.621   3.868  -2.328  0.2858 -0.1479  0.3669
  843MOL0     C11189   7.728   3.980  -1.319 -0.5238 -0.1709 -0.3328
  843MOL0     C11190   7.766   4.049  -1.199 -0.3415  0.0419 -0.5986
  843MOL0     O11191   7.938   4.261  -1.077  0.6619  0.2428 -0.3332
  843MOL0     C11192   7.971   4.171  -0.737  0.2864  0.1554  0.3413
  843MOL0     C11193   8.020   4.223  -0.620 -0.1012  0.3438 -0.5364
  843MOL0     N11194   8.616   4.514  -0.188 -0.2861  0.4374  0.5599
  843MOL0     N11195   8.719   4.548  -0.111  0.3542  0.2033  0.1770
  843MOL0     C11196   9.489   4.421   0.807  0.1037 -1.0314 -0.1153
  843MOL0     C11197   9.623   4.414   0.846  0.0308  0.3939 -0.2248
  843MOL0     C11198  10.033   4.371   0.999 -0.2224 -0.0866 -0.0657
  843MOL0     C11199  10.157   4.365   0.938  0.1183  0.7541 -0.7564
  843MOL0     C11200  10.268   4.313   1.004  0.1394  0.0432 -0.7563
  843MOL0     C11201  10.263   4.280   1.141  0.4865 -0.6210 -0.2142
  843MOL0     O11202  10.369   4.223   1.204  0.2325  0.5954  0.1624
  843MOL0     C11203  10.380   4.198   1.352  0.4793  0.1018 -0.0997
  843MOL0     C11204  10.530   4.211   1.384  0.6011 -0.0983  0.0631
  843MOL0     C11205  10.618   4.106   1.317  0.3410 -0.4715 -0.3211
  843MOL0     C11206  10.768   4.122   1.347 -0.4481  0.1097 -0.5413
  843MOL0     C11207  10.788   4.167   1.486 -0.2588  0.5472  0.0827
  843MOL0     C11208  10.815   4.190   1.603  0.0883 -0.2067  0.0433
  843MOL0     C11209  10.139   4.294   1.205 -0.4797 -0.2834 -0.7286
  843MOL0     C11210  10.026   4.329   1.133  0.0043 -0.2911 -0.5252
  843MOL0     H11211   9.619   4.584   1.139  2.2568  0.6298 -1.6767
  843MOL0     H11212   9.382   4.609   1.079 -0.8143  0.1012 -0.9860
  843MOL0     H11213   9.115   4.459   0.764  0.3779  0.2957  1.9700
  843MOL0     H11214   9.253   4.356   0.733  0.5493 -0.1414  1.0083
  843MOL0     H11215   9.310   4.491   0.531 -1.9325 -1.6493  0.8486
  843MOL0     H11216   9.306   4.628   0.643  0.1571  0.5768  1.1019
  843MOL0     H11217   9.075   4.645   0.637 -1.6618 -0.8667 -0.0893
  843MOL0     H11218   9.062   4.496   0.527 -1.7756 -0.3447  2.7777
  843MOL0     H11219   9.171   4.776   0.458  0.9401  0.0275 -0.8298
  843MOL0     H11220   9.221   4.631   0.363  0.5429  2.3400 -0.4175
  843MOL0     H11221   9.007   4.775   0.292  1.6330  2.5712  3.4088
  843MOL0     H11222   8.919   4.685   0.407 -2.1425 -0.5390 -3.1747
  843MOL0     H11223   9.002   4.472   0.303  1.3287  0.1899  0.4078
  843MOL0     H11224   9.087   4.565   0.174 -1.2340  1.2997 -1.2904
  843MOL0     H11225   8.782   4.588   0.215 -1.6147 -0.3681 -1.8313
  843MOL0     H11226   8.870   4.664   0.082 -4.3122 -0.9046 -2.4740
  843MOL0     H11227   8.825   4.380   0.150  1.2332  0.3239  0.4586
  843MOL0     H11228   8.938   4.416   0.027  2.7270  1.2784  4.3773
  843MOL0     H11229   8.625   4.274   0.039 -0.7714 -1.4955 -0.8983
  843MOL0     H11230   8.448   4.231  -0.148 -0.8528  2.3318  0.7698
  843MOL0     H11231   8.542   4.284  -0.303  1.8812  1.2344  0.5479
  843MOL0     H11232   8.389   4.465  -0.328  0.8706  1.6973  1.0972
  843MOL0     H11233   8.297   4.416  -0.179 -1.9099 -1.5680 -1.1520
  843MOL0     H11234   8.297   4.240  -0.421  2.3424  0.4463  1.0311
  843MOL0     H11235   8.229   4.202  -0.266  0.5090  0.3509 -0.7242
  843MOL0     H11236   8.080   4.421  -0.293 -0.6327 -0.3240 -0.5234
  843MOL0     H11237   8.028   4.281  -0.360 -0.4240 -0.5600 -1.3952
  843MOL0     H11238   8.095   4.536  -0.735  0.4230  0.0888 -0.1800
  843MOL0     H11239   8.014   4.442  -0.934 -0.0126 -1.4097 -0.9244
  843MOL0     H11240   7.985   3.824  -1.072  0.0783 -0.6403  0.5005
  843MOL0     H11241   7.914   3.700  -1.265  3.4185  1.0815 -2.9978
  843MOL0     H11242   7.681   3.898  -1.594  0.4606  0.1664  0.4712
  843MOL0     H11243   7.555   3.800  -1.513 -0.3034 -3.0556  0.7528
  843MOL0     H11244   7.632   3.593  -1.602  0.1534  0.5605  1.1411
  843MOL0     H11245   7.776   3.662  -1.672 -0.8884 -0.9817 -3.0913
  843MOL0     H11246   7.652   3.788  -1.819  0.9529  0.0954 -1.0211
  843MOL0     H11247   7.495   3.764  -1.740  1.6732  1.7765 -0.6970
  843MOL0     H11248   7.625   3.507  -1.829  1.6922 -0.2911 -2.4262
  843MOL0     H11249   7.454   3.563  -1.812 -0.3200 -1.3930 -2.6458
  843MOL0     H11250   7.516   3.708  -2.011  2.2391  0.1015  0.5186
  843MOL0     H11251   7.501   3.533  -2.049 -1.6646  0.8747  0.9316
  843MOL0     H11252   7.758   3.504  -2.044 -0.0474 -0.3480  0.0108
  843MOL0     H11253   7.780   3.665  -1.987  2.2756 -1.8749 -1.4862
  843MOL0     H11254   7.799   3.622  -2.261 -1.0502 -1.5745 -0.6254
  843MOL0     H11255   7.626   3.625  -2.245 -0.6349  0.8456 -1.0835
  843MOL0     H11256   7.829   3.831  -2.218 -0.8318 -1.7785 -0.2966
  843MOL0     H11257   7.686   3.850  -2.103  1.1651  3.7198  0.1571
  843MOL0     H11258   7.660   4.019  -1.394  1.2134  1.1357 -1.3119
  843MOL0     H11259   7.715   4.143  -1.180 -0.4760 -0.5397  2.5102
  843MOL0     H11260   7.938   4.068  -0.731  2.8875 -0.8169 -0.4319
  843MOL0     H11261   8.004   4.163  -0.531 -2.3276  0.5919 -0.7239
  843MOL0     H11262   9.446   4.368   0.723 -0.8916  0.7773 -0.7818
  843MOL0     H11263   9.686   4.357   0.778 -3.6239 -1.3565 -2.4111
  843MOL0     H11264  10.174   4.406   0.839 -2.8594 -0.6470 -1.9803
  843MOL0     H11265  10.369   4.303   0.966  1.6467  1.2772  2.4648
  843MOL0     H11266  10.344   4.100   1.385  1.8578  0.4150  2.6698
  843MOL0     H11267  10.322   4.279   1.397  1.9316  1.2365 -0.1804
  843MOL0     H11268  10.561   4.311   1.352 -0.1222 -0.7051 -2.8564
  843MOL0     H11269  10.537   4.214   1.493  1.2584  1.1948 -0.0044
  843MOL0     H11270  10.614   4.107   1.208  5.3010 -0.3837 -0.6925
  843MOL0     H11271  10.588   4.008   1.355 -4.0379  1.8198  3.1934
  843MOL0     H11272  10.827   4.032   1.326 -0.1725  0.3411 -0.7835
  843MOL0     H11273  10.814   4.195   1.279  0.0947  0.2806 -0.0012
  843MOL0     H11274  10.825   4.218   1.706  0.9301  1.9214 -0.5580
  843MOL0     H11275  10.137   4.246   1.303  1.5867 -0.2866 -0.6413
  843MOL0     H11276   9.928   4.320   1.179 -1.4780  0.0276 -3.3809
  844MOL0     O11277   4.515   9.969   3.645 -0.0203 -0.1451 -0.3263
  844MOL0     C11278   4.474  10.011   3.537 -0.5164 -0.3244 -0.9188
  844MOL0     O11279   4.353  10.031   3.506  0.1972  0.5210  0.2112
  844MOL0     C11280   4.240  10.040   3.592 -0.2970 -0.1080  0.1266
  844MOL0     C11281   4.119  10.004   3.528 -0.3101  0.0782  0.5018
  844MOL0     C11282   3.999   9.993   3.598  0.7365  0.7583 -0.3015
  844MOL0     C11283   4.005  10.004   3.740 -0.1738  0.6117 -0.6644
  844MOL0     O11284   3.898   9.982   3.821  0.4157 -0.7004  0.1697
  844MOL0     C11285   3.776  10.041   3.779 -0.5066  0.3477  0.3635
  844MOL0     C11286   3.666  10.001   3.880  0.2501 -0.0784 -0.4119
  844MOL0     C11287   3.544  10.095   3.862  0.0723 -0.4465 -0.2018
  844MOL0     C11288   3.438  10.046   3.949  0.6318  0.0047 -0.1832
  844MOL0     C11289   3.305  10.119   3.948  0.0439  0.2742 -0.0878
  844MOL0     C11290   3.247  10.154   3.813 -0.7420  0.4429 -0.5408
  844MOL0     C11291   3.106  10.226   3.825 -1.0986 -0.4915  1.1916
  844MOL0     C11292   2.996  10.131   3.874  0.2572 -0.3071 -0.1893
  844MOL0     N11293   2.864  10.203   3.865 -0.0848 -0.0266  0.1499
  844MOL0     C11294   2.819  10.272   3.975 -0.0914 -0.1356 -0.6606
  844MOL0     C11295   2.696  10.311   3.936  0.2794  0.4916 -0.1867
  844MOL0     C11296   2.610  10.403   4.008 -0.1116 -0.4017 -0.6490
  844MOL0     C11297   2.466  10.359   4.035  0.0100  0.3436 -0.1128
  844MOL0     C11298   2.377  10.463   4.105 -0.5745  0.1699 -0.5679
  844MOL0     C11299   2.393  10.604   4.047 -0.2038 -0.8433  0.0250
  844MOL0     O11300   2.377  10.615   3.907 -0.2033  0.4572  0.6634
  844MOL0     C11301   2.261  10.578   3.855  1.6914 -1.1151  1.5008
  844MOL0     C11302   2.138  10.631   3.896 -0.3248  0.6737 -0.2409
  844MOL0     C11303   2.017  10.582   3.859  0.3059 -0.1179  0.4605
  844MOL0     C11304   2.015  10.480   3.766 -0.2484  0.1770  1.0327
  844MOL0     C11305   1.887  10.422   3.717 -0.0532  0.2096 -0.3256
  844MOL0     O11306   1.894  10.338   3.605  0.3034  0.3404  0.3429
  844MOL0     C11307   1.774  10.280   3.573 -0.0203  0.6911 -0.1685
  844MOL0     C11308   1.760  10.139   3.587  0.0558 -0.2226  0.3981
  844MOL0     C11309   1.635  10.082   3.564 -0.2616  0.5303 -0.1087
  844MOL0     C11310   1.525  10.157   3.516 -0.8488 -0.7037  0.3318
  844MOL0     O11311   1.411  10.090   3.478 -0.5729 -0.5009  0.0067
  844MOL0     C11312   1.299  10.160   3.531  0.2522 -0.0732 -0.8794
  844MOL0     C11313   1.181  10.069   3.546 -0.2896 -0.3315 -0.2021
  844MOL0     C11314   1.214   9.949   3.633  0.1540  0.7538 -0.0668
  844MOL0     C11315   1.088   9.899   3.710  0.7903 -0.1886 -0.4441
  844MOL0     C11316   1.108   9.800   3.824 -0.0023 -0.8605  0.3898
  844MOL0     C11317   1.116   9.656   3.771 -0.4886 -0.3322 -0.1294
  844MOL0     C11318   1.164   9.550   3.875  0.5890  0.3264 -0.3538
  844MOL0     C11319   1.059   9.530   3.983 -0.3123  0.4558 -0.1704
  844MOL0    Cl11320   1.084   9.612   4.138 -0.0419 -0.5098  0.3147
  844MOL0     C11321   1.546  10.298   3.502  0.1915  0.6325 -0.4206
  844MOL0     C11322   1.668  10.352   3.531  0.2279  0.2703  0.2634
  844MOL0     O11323   1.789  10.454   3.777 -0.1249  0.5105 -0.0722
  844MOL0     C11324   2.132  10.419   3.726  0.7702 -0.0519  0.0838
  844MOL0     C11325   2.258  10.468   3.767  0.3598  0.3540  0.0623
  844MOL0     N11326   2.660  10.253   3.810 -0.3336 -0.6230 -0.5443
  844MOL0     N11327   2.761  10.185   3.773  0.7842 -0.1184 -0.3148
  844MOL0     C11328   4.131  10.028   3.804  0.7033  0.8004 -0.6630
  844MOL0     C11329   4.248  10.049   3.735  0.1349  0.4324  0.1062
  844MOL0     C11330   4.573  10.043   3.429  0.2568 -0.0105 -0.0601
  844MOL0     C11331   4.713  10.011   3.449 -0.6446  0.5783 -0.2422
  844MOL0     C11332   4.799  10.042   3.341 -0.5525  0.0698 -0.7463
  844MOL0     C11333   4.764  10.115   3.231 -0.1691 -0.3628  1.1460
  844MOL0     O11334   4.844  10.158   3.122  0.7138  0.2573  0.5902
  844MOL0     C11335   4.981  10.116   3.112  0.3577  0.0738 -0.9197
  844MOL0     C11336   4.985   9.975   3.059 -0.6367  1.1691  0.5548
  844MOL0     C11337   5.108   9.918   2.994  0.3528 -0.0335  0.0099
  844MOL0     C11338   5.069   9.819   2.885  0.0618  0.7511 -0.0853
  844MOL0     C11339   4.990   9.863   2.770 -0.3220  0.9052 -0.4701
  844MOL0     C11340   4.922   9.887   2.666 -0.1632  0.3926 -0.8519
  844MOL0     C11341   4.631  10.148   3.216 -0.1888  0.2955  0.0420
  844MOL0     C11342   4.542  10.118   3.316  0.1732  0.7061 -0.1056
  844MOL0     H11343   4.115   9.992   3.421  2.9131 -1.0337  0.4045
  844MOL0     H11344   3.904   9.970   3.549 -0.4022  0.3919  1.9084
  844MOL0     H11345   3.740  10.007   3.681  3.3780 -1.6475 -0.5807
  844MOL0     H11346   3.787  10.150   3.780  0.7540  0.2658  2.7381
  844MOL0     H11347   3.706   9.996   3.982 -0.7188  1.0911  0.0569
  844MOL0     H11348   3.640   9.899   3.851  1.0881 -0.2014 -0.7364
  844MOL0     H11349   3.520  10.090   3.756  2.2133  0.3591 -0.7705
  844MOL0     H11350   3.566  10.196   3.899 -0.0559 -0.9707  1.3939
  844MOL0     H11351   3.420   9.941   3.926  0.6800  0.3908 -2.1004
  844MOL0     H11352   3.465  10.041   4.055 -2.2420 -1.4274  0.5646
  844MOL0     H11353   3.310  10.209   4.010 -0.4992  1.0451 -1.1285
  844MOL0     H11354   3.223  10.069   3.999 -1.4895  0.0364 -2.6187
  844MOL0     H11355   3.227  10.058   3.763 -3.2746 -0.2225  1.5195
  844MOL0     H11356   3.314  10.219   3.756 -0.1634  0.2215 -0.1232
  844MOL0     H11357   3.116  10.311   3.893 -0.1484  0.5060 -0.1334
  844MOL0     H11358   3.071  10.262   3.728  0.1565 -1.1011  0.4775
  844MOL0     H11359   3.016  10.091   3.974  2.7240  0.7867 -0.1808
  844MOL0     H11360   2.985  10.046   3.806 -1.4476 -0.3609  0.1182
  844MOL0     H11361   2.867  10.298   4.069 -0.3563 -1.9199  0.0131
  844MOL0     H11362   2.603  10.493   3.946 -0.7990  0.4853  0.6764
  844MOL0     H11363   2.664  10.423   4.101  0.0688 -2.3951 -0.2652
  844MOL0     H11364   2.462  10.270   4.097  1.5027 -0.9491 -1.7770
  844MOL0     H11365   2.434  10.332   3.934  3.2908  0.3979 -1.2601
  844MOL0     H11366   2.273  10.434   4.090  0.0466 -1.5486 -1.9218
  844MOL0     H11367   2.394  10.460   4.213  0.8621  0.6212 -0.7628
  844MOL0     H11368   2.490  10.650   4.067 -0.9582  3.1454 -3.9440
  844MOL0     H11369   2.325  10.665   4.107 -0.9092  0.8228 -2.3223
  844MOL0     H11370   2.125  10.716   3.961 -1.3701 -1.1654  2.1066
  844MOL0     H11371   1.926  10.633   3.888  0.9737  1.4570 -0.0589
  844MOL0     H11372   1.843  10.078   3.621  0.0765  0.0027  0.7624
  844MOL0     H11373   1.619   9.976   3.582 -2.2001  0.8795  0.4141
  844MOL0     H11374   1.276  10.249   3.472  0.5209 -1.5597 -3.3263
  844MOL0     H11375   1.317  10.195   3.634 -2.8684 -1.0601  0.1323
  844MOL0     H11376   1.161  10.032   3.445 -1.0352  0.0970 -0.2226
  844MOL0     H11377   1.096  10.128   3.582 -0.8280 -1.3772  0.2896
  844MOL0     H11378   1.302   9.968   3.695  1.4214  2.2603 -2.1949
  844MOL0     H11379   1.238   9.879   3.553 -1.9608 -0.1305  0.0033
  844MOL0     H11380   1.043   9.989   3.752  0.1801 -0.4451 -0.5434
  844MOL0     H11381   1.013   9.865   3.638 -1.4083  0.0317  1.6171
  844MOL0     H11382   1.030   9.815   3.899  0.6955 -0.9618  1.1528
  844MOL0     H11383   1.203   9.817   3.877 -0.0603  1.4404 -0.1455
  844MOL0     H11384   1.177   9.648   3.680 -3.2800  1.6718 -2.3706
  844MOL0     H11385   1.016   9.634   3.731 -0.9362  3.7305 -1.7311
  844MOL0     H11386   1.184   9.453   3.829  4.2291  1.0831 -0.6737
  844MOL0     H11387   1.253   9.593   3.922 -1.0297  3.1858  0.3689
  844MOL0     H11388   1.064   9.424   4.011 -3.7783  0.2290  0.0743
  844MOL0     H11389   0.968   9.563   3.931 -0.9430  1.2867  1.3908
  844MOL0     H11390   1.472  10.365   3.459 -1.0831 -0.0150  0.6792
  844MOL0     H11391   1.679  10.460   3.522  1.5020  0.1531  0.2267
  844MOL0     H11392   2.128  10.325   3.671 -0.0205 -0.3983  0.7175
  844MOL0     H11393   2.351  10.417   3.747  0.2651 -0.2798  1.1168
  844MOL0     H11394   4.147  10.049   3.910  1.8800 -0.6758 -0.5160
  844MOL0     H11395   4.338  10.074   3.790  1.2950  2.0365 -2.3595
  844MOL0     H11396   4.748   9.973   3.545 -0.1792  0.4187 -0.4723
  844MOL0     H11397   4.905  10.020   3.344 -0.2292  1.6058  0.7061
  844MOL0     H11398   5.036  10.144   3.202  1.4439  1.5477 -1.9816
  844MOL0     H11399   5.023  10.176   3.031 -1.0312  1.2333 -0.8452
  844MOL0     H11400   4.946   9.907   3.135 -0.7553 -2.3191 -2.3598
  844MOL0     H11401   4.900   9.965   2.991 -1.2862 -1.5612  1.6311
  844MOL0     H11402   5.171   9.873   3.071  0.1572 -2.7600 -1.3085
  844MOL0     H11403   5.168   9.997   2.947  1.8079 -0.7564  0.5997
  844MOL0     H11404   5.153   9.759   2.849 -0.8660 -2.5645  2.6958
  844MOL0     H11405   5.009   9.737   2.927  2.7141 -1.0063  0.5257
  844MOL0     H11406   4.860   9.899   2.579 -1.5545  1.1986  0.2254
  844MOL0     H11407   4.606  10.194   3.121 -0.9857 -0.6919 -0.2501
  844MOL0     H11408   4.442  10.152   3.294 -0.6330  0.2860  2.5622
  845MOL0     O11409   7.505   1.110   4.810 -0.1545  0.6337  0.1536
  845MOL0     C11410   7.533   1.130   4.694  0.0693  0.0222  0.4371
  845MOL0     O11411   7.483   1.065   4.579  0.4841 -0.3437 -0.1140
  845MOL0     C11412   7.371   0.985   4.588 -0.5672 -0.1089  0.1406
  845MOL0     C11413   7.270   0.998   4.677 -0.5246 -1.0388  0.2688
  845MOL0     C11414   7.158   0.916   4.673  0.6034  0.2925  0.4323
  845MOL0     C11415   7.147   0.819   4.568 -0.5526  0.2788 -0.2443
  845MOL0     O11416   7.040   0.733   4.551  0.2597 -0.5792 -0.3306
  845MOL0     C11417   6.922   0.808   4.542 -0.6677  0.6556  0.7533
  845MOL0     C11418   6.818   0.720   4.469 -0.0099  0.7588  0.7989
  845MOL0     C11419   6.737   0.646   4.582 -0.3987 -0.5983  0.3371
  845MOL0     C11420   6.607   0.590   4.518 -0.5275 -0.3788  0.7104
  845MOL0     C11421   6.528   0.510   4.616  0.2783 -0.5406  0.4005
  845MOL0     C11422   6.479   0.581   4.750 -0.4649  0.3876  0.6274
  845MOL0     C11423   6.355   0.502   4.799  0.1357  0.7600  0.0723
  845MOL0     C11424   6.306   0.569   4.923  0.3537  0.9365  0.1581
  845MOL0     N11425   6.202   0.488   4.980 -0.5038  0.6714 -0.1515
  845MOL0     C11426   6.071   0.512   4.944 -1.0051 -0.6180  0.8560
  845MOL0     C11427   5.992   0.424   5.008  0.3309  0.0306 -0.7618
  845MOL0     C11428   5.841   0.406   5.008  0.2371  0.0352 -0.0176
  845MOL0     C11429   5.784   0.549   4.985  0.1364 -0.3760  0.5216
  845MOL0     C11430   5.643   0.538   5.031  0.2515 -0.1854  0.8054
  845MOL0     C11431   5.562   0.666   4.985  0.8455  0.2141  0.0752
  845MOL0     O11432   5.423   0.654   5.013  0.3588  0.3303  0.3833
  845MOL0     C11433   5.327   0.588   4.937 -0.2963 -0.6014  0.3172
  845MOL0     C11434   5.360   0.528   4.811  0.0620  0.2563 -0.7317
  845MOL0     C11435   5.269   0.469   4.734  0.0075 -0.6105  1.1615
  845MOL0     C11436   5.128   0.474   4.765  0.1368  0.0246  0.3675
  845MOL0     C11437   5.029   0.421   4.677 -0.3160  0.4002  1.0577
  845MOL0     O11438   4.920   0.383   4.732 -0.1846  0.2938 -0.4412
  845MOL0     C11439   4.815   0.322   4.667 -0.5267 -0.3129 -1.0488
  845MOL0     C11440   4.836   0.221   4.578  0.4700 -0.3057 -0.2378
  845MOL0     C11441   4.724   0.153   4.513  0.4799  0.6712 -0.1595
  845MOL0     C11442   4.592   0.181   4.555 -0.5513  0.4140 -0.8662
  845MOL0     O11443   4.487   0.115   4.502 -0.1469  0.2983  0.4584
  845MOL0     C11444   4.378   0.074   4.583  0.6620  0.3070 -0.6849
  845MOL0     C11445   4.418  -0.057   4.661 -0.7284 -0.9740 -0.3241
  845MOL0     C11446   4.533  -0.036   4.762  0.0545  0.6265  0.4326
  845MOL0     C11447   4.540  -0.163   4.853 -0.3917 -0.1389  0.4674
  845MOL0     C11448   4.687  -0.175   4.899  0.2438 -0.4669 -0.2236
  845MOL0     C11449   4.702  -0.259   5.030 -0.9032  0.5317 -0.2180
  845MOL0     C11450   4.848  -0.249   5.084 -0.2212 -1.4489 -0.8208
  845MOL0     C11451   4.855  -0.284   5.235  0.0228 -0.4633 -0.0173
  845MOL0    Cl11452   5.021  -0.252   5.293 -0.0544 -0.1276 -0.3038
  845MOL0     C11453   4.583   0.290   4.645  0.8139 -0.2000 -0.4452
  845MOL0     C11454   4.695   0.358   4.702  0.1436 -0.3309 -0.0738
  845MOL0     O11455   5.048   0.422   4.548 -0.4351  0.2699 -0.3828
  845MOL0     C11456   5.089   0.527   4.888  1.0146 -0.3496  0.0299
  845MOL0     C11457   5.186   0.584   4.978  0.3990  0.4158 -0.3963
  845MOL0     N11458   6.074   0.355   5.094  0.2271 -0.4199  0.3607
  845MOL0     N11459   6.203   0.392   5.082  0.2203 -0.8207  0.0659
  845MOL0     C11460   7.256   0.797   4.483 -0.8864  0.0398 -0.1319
  845MOL0     C11461   7.367   0.885   4.490  0.2999  0.6218 -0.4828
  845MOL0     C11462   7.645   1.232   4.661 -0.0840 -0.4566 -0.9521
  845MOL0     C11463   7.697   1.245   4.527  0.1722 -0.1123  0.1622
  845MOL0     C11464   7.806   1.325   4.496  0.0930  0.3679 -0.0870
  845MOL0     C11465   7.880   1.389   4.602 -0.3216  0.2629  0.0817
  845MOL0     O11466   8.001   1.458   4.579 -0.4579  0.0633  0.1626
  845MOL0     C11467   8.078   1.434   4.461 -0.2035  0.6429  0.2131
  845MOL0     C11468   8.173   1.324   4.476  0.4853 -0.3127 -1.0175
  845MOL0     C11469   8.323   1.368   4.458  0.6912 -0.6706 -0.3471
  845MOL0     C11470   8.360   1.356   4.313 -0.2270 -0.3194 -0.7721
  845MOL0     C11471   8.286   1.451   4.226  0.8618 -0.3707  0.7928
  845MOL0     C11472   8.234   1.546   4.159 -0.2093  0.1083  0.2615
  845MOL0     C11473   7.838   1.366   4.732  0.0817 -0.0653  0.6953
  845MOL0     C11474   7.720   1.298   4.759  1.2299 -0.5541  0.1883
  845MOL0     H11475   7.275   1.074   4.754  0.0567 -0.9061  0.1035
  845MOL0     H11476   7.078   0.940   4.742 -0.1860  0.8856 -0.6617
  845MOL0     H11477   6.934   0.894   4.476  1.3684  2.3134  3.0956
  845MOL0     H11478   6.881   0.838   4.639  0.4816 -1.7879  2.0778
  845MOL0     H11479   6.867   0.654   4.397  0.3093  0.9606  0.8326
  845MOL0     H11480   6.751   0.785   4.412  1.6099  1.2014 -0.6832
  845MOL0     H11481   6.706   0.705   4.669 -2.6651  0.2915 -0.9723
  845MOL0     H11482   6.808   0.570   4.614  0.2041  0.2371  1.0271
  845MOL0     H11483   6.544   0.674   4.488 -0.7827 -0.9018 -0.2472
  845MOL0     H11484   6.632   0.527   4.433 -1.2004 -0.0021  0.2247
  845MOL0     H11485   6.574   0.412   4.636  0.6292 -0.4766 -0.0648
  845MOL0     H11486   6.437   0.492   4.558  1.2672 -2.0270 -0.7965
  845MOL0     H11487   6.468   0.690   4.749 -1.7102  0.3244 -2.0897
  845MOL0     H11488   6.561   0.558   4.818 -1.1978 -1.4880  0.9429
  845MOL0     H11489   6.270   0.490   4.730  0.6189 -1.5201 -0.2272
  845MOL0     H11490   6.387   0.401   4.825  0.8009  1.3535  1.6506
  845MOL0     H11491   6.272   0.672   4.905  1.3683  1.4375  1.0223
  845MOL0     H11492   6.377   0.585   5.004 -0.8870  3.2541  0.8733
  845MOL0     H11493   6.034   0.574   4.863  1.2214 -1.2024 -0.6778
  845MOL0     H11494   5.817   0.372   5.109  0.8521  0.9802  0.4657
  845MOL0     H11495   5.810   0.340   4.927 -3.6128  1.5822  0.0019
  845MOL0     H11496   5.806   0.580   4.882  2.2660 -0.2023  0.9727
  845MOL0     H11497   5.835   0.616   5.055 -2.2274  0.8995  1.1124
  845MOL0     H11498   5.603   0.447   4.985 -0.1575 -0.3035  1.3842
  845MOL0     H11499   5.648   0.526   5.139  0.2111  0.3285  0.8676
  845MOL0     H11500   5.584   0.675   4.878  0.9022 -2.6031 -0.2312
  845MOL0     H11501   5.595   0.744   5.054 -1.8742  2.0293 -0.5486
  845MOL0     H11502   5.463   0.536   4.776 -0.1293  3.4228 -0.8887
  845MOL0     H11503   5.299   0.422   4.641 -1.9303  1.4879 -0.6397
  845MOL0     H11504   4.934   0.196   4.540  1.2647  0.1822  1.4198
  845MOL0     H11505   4.750   0.074   4.444 -0.0284 -0.2804  0.7154
  845MOL0     H11506   4.285   0.055   4.528 -1.8323  2.3937  2.4493
  845MOL0     H11507   4.354   0.151   4.657  0.5120  2.1037 -2.5350
  845MOL0     H11508   4.459  -0.133   4.594  2.5312 -1.3991  1.9061
  845MOL0     H11509   4.332  -0.107   4.707  0.8864 -1.5666  2.2667
  845MOL0     H11510   4.520   0.059   4.815  1.7300  2.0540 -1.5610
  845MOL0     H11511   4.627  -0.025   4.708 -0.7139 -0.3022 -1.1727
  845MOL0     H11512   4.468  -0.145   4.934  0.8419  3.9893  0.8998
  845MOL0     H11513   4.517  -0.251   4.793 -0.8165  0.9415 -1.0050
  845MOL0     H11514   4.743  -0.082   4.915  2.6926 -1.8660 -0.1726
  845MOL0     H11515   4.731  -0.223   4.812 -1.6100 -0.9902 -0.9064
  845MOL0     H11516   4.671  -0.359   5.001  1.8423 -0.5163  0.1535
  845MOL0     H11517   4.635  -0.223   5.109 -3.2343  0.7951 -2.2008
  845MOL0     H11518   4.918  -0.313   5.029 -1.0063 -4.3344  1.3197
  845MOL0     H11519   4.895  -0.151   5.074 -0.2588 -1.4819 -1.3473
  845MOL0     H11520   4.830  -0.388   5.256 -3.4332  0.2503 -0.0020
  845MOL0     H11521   4.782  -0.223   5.291  0.6529  1.6928 -1.3968
  845MOL0     H11522   4.491   0.326   4.689 -0.0744 -1.5486 -1.1407
  845MOL0     H11523   4.687   0.438   4.775  1.3662  1.0393 -1.3915
  845MOL0     H11524   4.987   0.517   4.923  0.9505  0.5465  0.1227
  845MOL0     H11525   5.156   0.631   5.071  0.0865  0.2772 -0.4264
  845MOL0     H11526   7.263   0.709   4.420  0.8359  0.7579 -1.0170
  845MOL0     H11527   7.452   0.890   4.422  0.1749  2.6485 -0.5526
  845MOL0     H11528   7.646   1.197   4.444 -2.1386 -1.1915  2.0970
  845MOL0     H11529   7.824   1.322   4.389 -5.3082  3.3244 -1.4409
  845MOL0     H11530   8.139   1.523   4.440  2.6005 -1.3348 -0.6357
  845MOL0     H11531   8.015   1.429   4.371 -1.4313 -0.5387  1.1111
  845MOL0     H11532   8.161   1.282   4.576 -1.9839  2.3527 -0.0586
  845MOL0     H11533   8.159   1.247   4.399 -0.5843  0.0444 -1.2016
  845MOL0     H11534   8.385   1.300   4.517 -2.1514 -2.7022  0.5279
  845MOL0     H11535   8.345   1.466   4.502 -1.3714 -0.3663  0.1439
  845MOL0     H11536   8.463   1.391   4.298 -0.2705  0.4492  0.5740
  845MOL0     H11537   8.358   1.253   4.276  0.5222 -0.9365  0.7974
  845MOL0     H11538   8.192   1.631   4.110 -2.0578  0.1337  1.7558
  845MOL0     H11539   7.903   1.400   4.811  1.4180  0.7529 -0.6939
  845MOL0     H11540   7.689   1.274   4.860 -0.2572  2.6593  0.6023
  846MOL0     O11541  11.196   6.376  10.638  0.5461 -0.1336 -0.4519
  846MOL0     C11542  11.312   6.334  10.649 -0.3078 -0.0266  0.1466
  846MOL0     O11543  11.341   6.208  10.673 -0.6369 -0.0195 -0.2273
  846MOL0     C11544  11.247   6.112  10.653 -0.0555  0.7985  0.7528
  846MOL0     C11545  11.118   6.109  10.709 -0.5508  0.0210 -0.1476
  846MOL0     C11546  11.031   6.009  10.670 -0.0406 -0.4964  0.3660
  846MOL0     C11547  11.065   5.916  10.575  0.3348  0.5252  0.2189
  846MOL0     O11548  10.970   5.825  10.524 -0.3161 -0.5352 -0.0740
  846MOL0     C11549  11.007   5.757  10.407 -0.3288  0.0716  0.4392
  846MOL0     C11550  11.044   5.614  10.452  0.4528  0.1865 -0.1738
  846MOL0     C11551  11.067   5.524  10.336  0.3569 -0.4846  0.2605
  846MOL0     C11552  11.139   5.394  10.375 -0.4932  0.7023 -0.3262
  846MOL0     C11553  11.292   5.413  10.406 -0.0904 -0.0265 -0.3772
  846MOL0     C11554  11.363   5.473  10.293 -0.7290  0.5124  0.5138
  846MOL0     C11555  11.510   5.491  10.318 -0.2837  1.3931  0.3604
  846MOL0     C11556  11.581   5.532  10.185 -0.2583 -0.8128 -0.8520
  846MOL0     N11557  11.719   5.553  10.206 -0.0018 -0.6874 -0.2677
  846MOL0     C11558  11.786   5.674  10.172 -0.4946  0.6400 -0.6264
  846MOL0     C11559  11.912   5.670  10.217 -0.3632  0.1449  0.8552
  846MOL0     C11560  12.005   5.777  10.165 -0.3444  0.2480  0.0279
  846MOL0     C11561  12.153   5.736  10.208  0.1949 -0.3706  0.6555
  846MOL0     C11562  12.252   5.858  10.178 -0.5685  0.1228  0.2731
  846MOL0     C11563  12.366   5.858  10.275 -0.7840  0.2096 -0.2757
  846MOL0     O11564  12.449   5.970  10.253 -0.4334  0.3113  1.2422
  846MOL0     C11565  12.582   5.942  10.216 -0.0331 -0.2347 -0.3391
  846MOL0     C11566  12.634   6.025  10.112 -0.7949 -0.2704 -1.6453
  846MOL0     C11567  12.759   6.004  10.058 -0.6040 -0.3503  1.1360
  846MOL0     C11568  12.840   5.896  10.089  0.3696 -0.1365 -0.4912
  846MOL0     C11569  12.975   5.880  10.028 -0.2665 -0.8982  0.1875
  846MOL0     O11570  12.994   5.908   9.893  0.6368  0.0615  0.2622
  846MOL0     C11571  13.115   5.884   9.827  0.2590 -0.0146  0.0571
  846MOL0     C11572  13.103   5.873   9.693  0.7758 -0.6067 -0.3358
  846MOL0     C11573  13.212   5.861   9.608  0.2935  0.4619  0.6253
  846MOL0     C11574  13.340   5.843   9.661 -0.3768  0.9717  0.5085
  846MOL0     O11575  13.445   5.825   9.579 -0.2451 -0.1639 -0.0597
  846MOL0     C11576  13.434   5.811   9.434  0.1700  0.8130  0.2772
  846MOL0     C11577  13.564   5.755   9.400 -0.0443  0.3617 -0.4529
  846MOL0     C11578  13.678   5.859   9.430  0.5615  0.3501  0.2766
  846MOL0     C11579  13.797   5.809   9.355 -0.4392  0.2909  0.0393
  846MOL0     C11580  13.907   5.918   9.339 -0.3593  0.2238  0.3814
  846MOL0     C11581  13.998   5.942   9.458 -0.0918  0.9459  0.3085
  846MOL0     C11582  14.104   5.835   9.458 -0.5010  0.2122  0.8184
  846MOL0     C11583  14.239   5.874   9.397  0.4314  0.1096 -0.2454
  846MOL0    Cl11584  14.345   5.730   9.379 -0.0498  0.2706 -0.7833
  846MOL0     C11585  13.356   5.857   9.799 -0.0965 -0.1600  1.1611
  846MOL0     C11586  13.244   5.883   9.878  0.8754 -0.3762  0.2973
  846MOL0     O11587  13.047   5.818  10.100  0.5248  0.2560  0.2489
  846MOL0     C11588  12.795   5.823  10.198  0.9392  0.2070  0.1968
  846MOL0     C11589  12.667   5.844  10.259 -0.3202  0.4314 -0.4308
  846MOL0     N11590  11.927   5.545  10.273  1.2506  0.9570 -1.0400
  846MOL0     N11591  11.816   5.479  10.262 -1.1028 -0.5980  0.2669
  846MOL0     C11592  11.199   5.910  10.524 -0.2166 -0.4989 -0.2784
  846MOL0     C11593  11.284   6.007  10.570 -1.0444 -0.2702  0.1332
  846MOL0     C11594  11.431   6.419  10.632 -0.0229 -0.0864 -0.0714
  846MOL0     C11595  11.563   6.375  10.663  0.9335  0.7593 -0.1988
  846MOL0     C11596  11.672   6.461  10.656  0.2154 -0.7088 -0.3846
  846MOL0     C11597  11.651   6.594  10.617 -0.1989  0.3294  0.2489
  846MOL0     O11598  11.752   6.693  10.608 -0.2634 -0.1386 -0.3689
  846MOL0     C11599  11.887   6.646  10.580  0.6855  1.1382 -0.0176
  846MOL0     C11600  11.981   6.763  10.551 -0.4011  0.5460  0.0334
  846MOL0     C11601  12.128   6.724  10.537 -0.0442  0.2555 -0.0623
  846MOL0     C11602  12.222   6.846  10.555 -0.5499 -0.3205  0.6844
  846MOL0     C11603  12.351   6.826  10.476 -0.2411  0.0233 -1.2443
  846MOL0     C11604  12.454   6.802  10.420 -0.2007  0.1094  0.4906
  846MOL0     C11605  11.524   6.644  10.600 -0.3663  0.2516 -0.1883
  846MOL0     C11606  11.417   6.558  10.615  0.7856 -0.4049 -0.2162
  846MOL0     H11607  11.093   6.189  10.777 -1.8625 -1.0004  0.6102
  846MOL0     H11608  10.932   6.015  10.713  0.0429 -1.2214  0.6748
  846MOL0     H11609  11.083   5.802  10.343  1.0981  1.7333  3.1289
  846MOL0     H11610  10.910   5.751  10.356 -0.4537 -3.0518  0.8414
  846MOL0     H11611  10.963   5.580  10.516  2.1980 -1.0317  1.5038
  846MOL0     H11612  11.133   5.617  10.516 -2.7582  0.7624  4.7554
  846MOL0     H11613  11.107   5.589  10.257 -1.3218  2.6100  1.7710
  846MOL0     H11614  10.968   5.503  10.294  0.2267  0.9841 -0.2228
  846MOL0     H11615  11.093   5.363  10.470 -1.6107  3.0679 -0.0211
  846MOL0     H11616  11.128   5.311  10.304  0.8670  0.0173  0.2223
  846MOL0     H11617  11.328   5.309  10.408  0.8103  0.2798  0.1394
  846MOL0     H11618  11.310   5.459  10.504  0.6514  0.5063 -0.7573
  846MOL0     H11619  11.318   5.571  10.276  0.2697  1.1606  1.4413
  846MOL0     H11620  11.349   5.406  10.208  0.3600  2.7802 -1.5650
  846MOL0     H11621  11.527   5.573  10.388  1.2971  0.3146  1.3078
  846MOL0     H11622  11.561   5.400  10.352  0.0484  1.0077 -1.0686
  846MOL0     H11623  11.532   5.613  10.130  1.2542 -1.3210 -3.1130
  846MOL0     H11624  11.575   5.440  10.126  0.6655 -0.3704 -1.6610
  846MOL0     H11625  11.735   5.755  10.121 -3.8764 -0.6390  0.4612
  846MOL0     H11626  11.981   5.876  10.204  0.8171  0.9335 -0.8923
  846MOL0     H11627  11.989   5.792  10.058 -1.1533 -0.5258  0.0344
  846MOL0     H11628  12.184   5.642  10.163  0.1130 -1.2398  2.3383
  846MOL0     H11629  12.140   5.719  10.315  1.0200  0.8916  0.9713
  846MOL0     H11630  12.275   5.847  10.072  0.7101  2.7478  0.1994
  846MOL0     H11631  12.204   5.953  10.204 -0.4725  0.7918 -1.7996
  846MOL0     H11632  12.417   5.761  10.271 -0.6938  0.2085  0.6559
  846MOL0     H11633  12.321   5.874  10.373  0.0786 -1.9885  0.5579
  846MOL0     H11634  12.573   6.103  10.069 -0.8889  1.7354  1.7938
  846MOL0     H11635  12.796   6.068   9.979 -1.0094 -1.3875  0.0761
  846MOL0     H11636  13.006   5.874   9.645  0.5363 -0.1728  0.1491
  846MOL0     H11637  13.204   5.881   9.502  2.1607  2.7808  0.8369
  846MOL0     H11638  13.420   5.908   9.384  1.1983  0.9484  0.2234
  846MOL0     H11639  13.355   5.737   9.419 -0.4407  1.2282  1.3458
  846MOL0     H11640  13.563   5.724   9.295  0.3317 -0.7109 -0.1577
  846MOL0     H11641  13.575   5.669   9.467  0.3753 -0.9887 -2.1844
  846MOL0     H11642  13.690   5.866   9.538  0.7065  1.3160  0.2103
  846MOL0     H11643  13.655   5.963   9.404  1.9916  0.7378  0.4851
  846MOL0     H11644  13.833   5.724   9.414  0.9596  0.9003  0.1058
  846MOL0     H11645  13.773   5.774   9.254 -1.2336  1.5747 -0.2466
  846MOL0     H11646  13.853   6.012   9.321  1.4258  1.8634  2.9129
  846MOL0     H11647  13.974   5.889   9.257  1.2140  1.1438  1.2910
  846MOL0     H11648  13.937   5.933   9.548 -2.4088 -5.1661 -1.3932
  846MOL0     H11649  14.040   6.044   9.460  1.0478  0.5149 -0.3342
  846MOL0     H11650  14.138   5.819   9.560  0.6800 -3.5277  0.0064
  846MOL0     H11651  14.058   5.741   9.425 -3.7584  2.3304 -1.1859
  846MOL0     H11652  14.294   5.942   9.463  2.5443 -0.8765 -0.9329
  846MOL0     H11653  14.228   5.936   9.308 -0.6837 -0.8830 -0.8268
  846MOL0     H11654  13.455   5.850   9.843  0.5653 -0.8332 -0.3732
  846MOL0     H11655  13.269   5.893   9.983 -1.1071 -1.0027  0.8677
  846MOL0     H11656  12.857   5.737  10.218  0.1949 -0.6566 -1.0823
  846MOL0     H11657  12.634   5.791  10.348  3.8675 -1.3139  0.3281
  846MOL0     H11658  11.232   5.837  10.450 -1.4304  0.0730 -1.4263
  846MOL0     H11659  11.386   6.007  10.533 -0.4734 -0.6573  1.6511
  846MOL0     H11660  11.589   6.276  10.700  0.1596  1.2754  1.9016
  846MOL0     H11661  11.763   6.421  10.700  0.4015 -2.4219 -2.2227
  846MOL0     H11662  11.887   6.576  10.496 -1.4998 -1.8674  2.2394
  846MOL0     H11663  11.926   6.593  10.667 -2.6579  0.1847  1.0531
  846MOL0     H11664  11.947   6.820  10.464 -0.7249 -1.8235 -1.4726
  846MOL0     H11665  11.979   6.831  10.637 -0.3448  1.7424 -0.8872
  846MOL0     H11666  12.145   6.672  10.443 -1.3041  0.2741 -0.3212
  846MOL0     H11667  12.146   6.652  10.617 -3.7130 -4.0527 -2.6110
  846MOL0     H11668  12.182   6.941  10.517  1.8199 -0.2762 -2.1077
  846MOL0     H11669  12.240   6.856  10.662 -1.1011 -1.3058  0.8733
  846MOL0     H11670  12.549   6.769  10.382 -0.7765 -0.7698 -0.2559
  846MOL0     H11671  11.511   6.750  10.580 -0.3851  0.3524  0.3358
  846MOL0     H11672  11.315   6.596  10.612  0.9630  0.2283  1.1203
  847MOL0     O11673   1.361   2.973   1.202  0.2862  0.3038 -0.1170
  847MOL0     C11674   1.302   3.069   1.253  0.6604 -0.2432  0.6329
  847MOL0     O11675   1.171   3.081   1.253  0.1063 -0.0737 -0.3320
  847MOL0     C11676   1.086   2.976   1.215 -0.8088 -0.2616 -0.7157
  847MOL0     C11677   1.108   2.908   1.102  0.1131  0.1211  0.8966
  847MOL0     C11678   1.014   2.824   1.049  0.1846  0.3403 -0.5070
  847MOL0     C11679   0.892   2.805   1.116 -0.0485  0.3211 -0.0996
  847MOL0     O11680   0.802   2.718   1.053  0.3453  0.2388 -0.6180
  847MOL0     C11681   0.675   2.704   1.114 -0.0051 -0.3773  0.0968
  847MOL0     C11682   0.616   2.576   1.073  0.4870  0.2975  0.6487
  847MOL0     C11683   0.465   2.592   1.071  0.3563 -0.2975 -0.7908
  847MOL0     C11684   0.412   2.451   1.019  0.3123 -0.4694 -0.6672
  847MOL0     C11685   0.267   2.488   0.964  0.0795  0.2786 -0.6017
  847MOL0     C11686   0.198   2.367   0.907  0.6971 -0.1572 -0.2512
  847MOL0     C11687   0.044   2.391   0.890  0.1282  0.0411 -0.3696
  847MOL0     C11688  -0.024   2.414   1.032  0.3003 -0.5306 -0.0934
  847MOL0     N11689  -0.171   2.409   1.022 -0.2622  0.2669 -0.0739
  847MOL0     C11690  -0.255   2.474   0.932 -0.2354 -0.5081 -0.3437
  847MOL0     C11691  -0.371   2.404   0.923  0.2719  0.4162  0.0849
  847MOL0     C11692  -0.501   2.433   0.843 -0.9213 -0.4644 -0.3722
  847MOL0     C11693  -0.616   2.505   0.915  0.3468 -0.2237  0.6177
  847MOL0     C11694  -0.719   2.402   0.966  0.5231 -0.5308  0.3710
  847MOL0     C11695  -0.843   2.455   1.036  1.2638  0.9000  0.1993
  847MOL0     O11696  -0.950   2.494   0.939  0.0610 -0.8708 -0.4006
  847MOL0     C11697  -1.073   2.524   1.002 -0.1381  0.8447  0.7393
  847MOL0     C11698  -1.092   2.557   1.137 -0.1997 -0.1803  0.1654
  847MOL0     C11699  -1.219   2.599   1.181 -0.3541  0.5739  0.7877
  847MOL0     C11700  -1.322   2.607   1.089  0.3623  0.2287  1.4333
  847MOL0     C11701  -1.447   2.652   1.142 -0.1313  0.6347  0.6770
  847MOL0     O11702  -1.442   2.728   1.254 -0.5620 -0.9363 -0.4443
  847MOL0     C11703  -1.547   2.734   1.343 -0.5640  0.2507  0.8294
  847MOL0     C11704  -1.528   2.826   1.448 -0.1744 -0.6612  0.4964
  847MOL0     C11705  -1.627   2.852   1.548 -0.1518  0.2263  0.9233
  847MOL0     C11706  -1.753   2.786   1.536 -0.5273 -1.0339 -0.6616
  847MOL0     O11707  -1.853   2.795   1.638 -0.0197 -0.3157  0.0591
  847MOL0     C11708  -1.842   2.908   1.723 -0.0631 -0.1789 -0.1531
  847MOL0     C11709  -1.970   2.904   1.818  0.1894 -0.1130 -0.2594
  847MOL0     C11710  -2.004   3.033   1.895 -0.1311  0.7214  0.2759
  847MOL0     C11711  -2.146   3.039   1.957 -0.2332 -0.1538 -0.0492
  847MOL0     C11712  -2.226   3.161   1.896  0.5479  0.1097 -0.0084
  847MOL0     C11713  -2.377   3.160   1.937 -0.1978 -0.4402 -0.3294
  847MOL0     C11714  -2.450   3.282   1.874  0.2302 -0.0665 -0.4584
  847MOL0     C11715  -2.566   3.317   1.970 -0.0139  0.5313  0.4089
  847MOL0    Cl11716  -2.691   3.192   1.952 -0.5314  0.1621  0.2503
  847MOL0     C11717  -1.770   2.701   1.430  0.6198 -0.4751  0.3791
  847MOL0     C11718  -1.670   2.671   1.335  0.3272  0.2107 -0.6462
  847MOL0     O11719  -1.546   2.617   1.078  0.1699 -0.9917 -1.0982
  847MOL0     C11720  -1.304   2.579   0.955 -0.2923 -0.2425  0.2425
  847MOL0     C11721  -1.178   2.544   0.913 -0.5505  0.0474 -0.5590
  847MOL0     N11722  -0.361   2.312   1.033  0.7294 -0.6356 -0.0290
  847MOL0     N11723  -0.238   2.312   1.086  0.6503  0.1001  0.4059
  847MOL0     C11724   0.883   2.862   1.243 -0.3562  0.1721  0.3649
  847MOL0     C11725   0.975   2.953   1.291  0.9103 -0.3652  0.2740
  847MOL0     C11726   1.381   3.176   1.315 -1.2700  0.6734  0.1212
  847MOL0     C11727   1.521   3.187   1.314 -0.8506 -0.4287  0.4136
  847MOL0     C11728   1.581   3.292   1.378 -0.0171  0.0398  0.4570
  847MOL0     C11729   1.510   3.402   1.442 -0.7153  0.5564  0.7392
  847MOL0     O11730   1.576   3.508   1.504 -0.2904  0.4336  0.0370
  847MOL0     C11731   1.713   3.532   1.490  0.5804  0.0410  0.1555
  847MOL0     C11732   1.750   3.606   1.360 -0.1211 -0.9670  0.6197
  847MOL0     C11733   1.680   3.741   1.327 -0.0040  0.9368 -0.1997
  847MOL0     C11734   1.738   3.877   1.364  0.2817  0.5278 -0.3033
  847MOL0     C11735   1.769   3.878   1.507  0.5039  0.3898 -0.0064
  847MOL0     C11736   1.797   3.908   1.614 -0.4642  0.9556  0.4795
  847MOL0     C11737   1.373   3.396   1.425  0.0753 -0.6651  0.0348
  847MOL0     C11738   1.312   3.282   1.372  0.2284  1.1763  1.3147
  847MOL0     H11739   1.202   2.924   1.050  0.5937 -4.4153 -0.0951
  847MOL0     H11740   1.036   2.774   0.956  0.7568  0.4549 -0.4351
  847MOL0     H11741   0.613   2.788   1.081 -1.6327 -0.7185  2.1345
  847MOL0     H11742   0.679   2.711   1.223 -0.5972 -0.7642  0.1459
  847MOL0     H11743   0.651   2.510   1.153 -1.2150 -2.3291 -0.6461
  847MOL0     H11744   0.649   2.557   0.971 -2.3305  2.0789 -0.7340
  847MOL0     H11745   0.440   2.677   1.007  1.7605  0.3596 -0.5232
  847MOL0     H11746   0.429   2.615   1.171  3.7792 -1.0987  0.7887
  847MOL0     H11747   0.482   2.416   0.943 -0.3005 -2.7660 -0.2427
  847MOL0     H11748   0.413   2.373   1.096  0.6146 -0.1211 -0.3127
  847MOL0     H11749   0.281   2.562   0.885  0.4080  3.6559  2.3212
  847MOL0     H11750   0.202   2.520   1.046  1.0164  1.5366 -0.3148
  847MOL0     H11751   0.211   2.283   0.975 -4.0036 -1.8330 -1.0582
  847MOL0     H11752   0.239   2.340   0.810  1.0064 -0.2725 -0.0883
  847MOL0     H11753   0.028   2.476   0.823 -1.2634  2.1188  2.4036
  847MOL0     H11754  -0.009   2.305   0.849 -1.8907 -0.3592  2.7410
  847MOL0     H11755   0.003   2.504   1.089 -1.4400  1.0542 -1.6444
  847MOL0     H11756  -0.005   2.326   1.093  0.6601  0.7501  1.7378
  847MOL0     H11757  -0.238   2.564   0.874  0.1980 -0.9180 -0.8629
  847MOL0     H11758  -0.547   2.343   0.801 -1.8990  0.9204 -2.4906
  847MOL0     H11759  -0.467   2.488   0.754  3.3970  1.8559  2.3969
  847MOL0     H11760  -0.658   2.582   0.849  1.1909 -0.2153  0.0826
  847MOL0     H11761  -0.587   2.561   1.004 -0.2099 -0.0407  0.6915
  847MOL0     H11762  -0.752   2.340   0.882  2.5272 -0.5736 -0.4453
  847MOL0     H11763  -0.676   2.334   1.040 -3.0528 -1.8073  1.4720
  847MOL0     H11764  -0.808   2.528   1.109  2.2555  1.2751 -0.6223
  847MOL0     H11765  -0.884   2.371   1.092  2.7584 -1.0999 -1.5505
  847MOL0     H11766  -1.022   2.543   1.218 -1.1852  0.8790  1.2548
  847MOL0     H11767  -1.212   2.616   1.288  1.5783 -1.6466  1.0733
  847MOL0     H11768  -1.437   2.883   1.463  0.9024 -2.4902  1.2350
  847MOL0     H11769  -1.594   2.919   1.627  0.8706  0.1128  0.6156
  847MOL0     H11770  -1.856   2.994   1.657  3.0388 -1.8097 -3.2433
  847MOL0     H11771  -1.749   2.920   1.779 -1.8630  0.2602  3.0283
  847MOL0     H11772  -1.966   2.832   1.900 -2.2935  0.5528  0.5165
  847MOL0     H11773  -2.053   2.875   1.753  0.3999 -1.3857  0.0157
  847MOL0     H11774  -1.986   3.118   1.829 -1.7548 -1.0774 -2.7103
  847MOL0     H11775  -1.934   3.051   1.977  1.0918  1.8230 -0.9705
  847MOL0     H11776  -2.194   2.943   1.940  0.4814 -0.6130  0.5004
  847MOL0     H11777  -2.140   3.061   2.065  1.8036  3.6811 -0.7506
  847MOL0     H11778  -2.219   3.155   1.787  1.6660 -0.5668  0.0856
  847MOL0     H11779  -2.187   3.259   1.924  1.1022 -0.4925  1.3979
  847MOL0     H11780  -2.381   3.147   2.046 -2.0141 -2.3450 -0.5456
  847MOL0     H11781  -2.420   3.064   1.909 -1.4870  0.3005 -1.0043
  847MOL0     H11782  -2.379   3.365   1.867 -1.5359  1.6142  0.5174
  847MOL0     H11783  -2.492   3.271   1.774 -0.3945 -1.3128 -0.0817
  847MOL0     H11784  -2.607   3.415   1.943  0.5498  0.6794  0.0530
  847MOL0     H11785  -2.523   3.328   2.071  0.6579  2.0632 -0.0149
  847MOL0     H11786  -1.867   2.653   1.440 -0.0086  0.5460 -0.7094
  847MOL0     H11787  -1.695   2.596   1.261  2.3042 -1.8914  0.6539
  847MOL0     H11788  -1.387   2.594   0.887 -0.4074  0.1798  0.4687
  847MOL0     H11789  -1.161   2.523   0.808 -1.9962 -2.6869 -0.3321
  847MOL0     H11790   0.792   2.841   1.299 -1.2032  1.8375 -0.3295
  847MOL0     H11791   0.959   2.998   1.389  2.7413 -2.0077  1.4170
  847MOL0     H11792   1.573   3.103   1.270  0.3586  0.1469  0.6977
  847MOL0     H11793   1.688   3.290   1.390  0.4719 -0.1413 -2.8617
  847MOL0     H11794   1.771   3.440   1.501 -0.1213 -0.5880 -1.2406
  847MOL0     H11795   1.743   3.592   1.577  0.6799 -0.7857  0.6964
  847MOL0     H11796   1.856   3.632   1.359  0.1693 -2.0046 -1.4174
  847MOL0     H11797   1.731   3.540   1.274 -1.8550  0.4345 -0.1297
  847MOL0     H11798   1.575   3.735   1.355 -0.3978 -0.2426 -1.7973
  847MOL0     H11799   1.686   3.741   1.218  2.1453  4.2422 -0.2475
  847MOL0     H11800   1.827   3.890   1.302  1.5427 -0.9194  1.1272
  847MOL0     H11801   1.669   3.961   1.349 -1.3363 -0.7410 -0.1724
  847MOL0     H11802   1.819   3.937   1.715 -0.3195  1.1176  0.4029
  847MOL0     H11803   1.319   3.478   1.470  1.6290  1.3807 -1.6427
  847MOL0     H11804   1.204   3.284   1.375 -0.0468 -3.2448  0.1169
  848MOL0     O11805  10.024   0.935   1.309 -0.9041 -0.1468 -0.1002
  848MOL0     C11806  10.117   0.975   1.237  0.0597 -0.2793  0.8677
  848MOL0     O11807  10.110   1.051   1.124  0.0496  0.6097 -0.4665
  848MOL0     C11808  10.000   1.131   1.116 -0.5798 -0.7297 -0.0601
  848MOL0     C11809   9.979   1.228   1.217 -0.2052 -0.0949 -0.0445
  848MOL0     C11810   9.851   1.292   1.219  0.6448  0.8698  0.1539
  848MOL0     C11811   9.764   1.275   1.103  0.1132 -0.1800  0.0107
  848MOL0     O11812   9.642   1.339   1.088 -1.0389  0.5011 -0.0451
  848MOL0     C11813   9.574   1.381   1.202  0.7769  0.0720 -0.1096
  848MOL0     C11814   9.437   1.401   1.160 -0.3523  0.0750  0.4962
  848MOL0     C11815   9.327   1.433   1.254 -0.1733 -0.8991  0.2290
  848MOL0     C11816   9.189   1.445   1.175 -0.5733 -0.6562 -0.1786
  848MOL0     C11817   9.077   1.458   1.281 -0.4661  1.1453  0.6220
  848MOL0     C11818   8.935   1.507   1.241  0.4701  0.2460  0.2024
  848MOL0     C11819   8.836   1.495   1.352 -0.4057 -0.3369  0.4668
  848MOL0     C11820   8.684   1.532   1.335  0.2785 -0.1132 -0.2240
  848MOL0     N11821   8.627   1.453   1.226 -0.0893  0.1244  0.0093
  848MOL0     C11822   8.519   1.488   1.147 -1.0189  0.6598 -0.7065
  848MOL0     C11823   8.478   1.373   1.086 -0.3575 -0.6449  0.0705
  848MOL0     C11824   8.367   1.391   0.997 -0.4981 -0.5093  0.4834
  848MOL0     C11825   8.240   1.442   1.074 -0.2693 -0.2640  0.0683
  848MOL0     C11826   8.123   1.470   0.978 -0.1159 -0.4370 -1.6923
  848MOL0     C11827   7.985   1.491   1.068  0.3317  0.6493 -0.2415
  848MOL0     O11828   7.884   1.546   0.986  0.1659  0.3043 -0.2305
  848MOL0     C11829   7.755   1.541   1.038 -0.1163 -0.2313 -0.2767
  848MOL0     C11830   7.720   1.613   1.156  0.3517 -0.7744  0.5274
  848MOL0     C11831   7.590   1.608   1.215 -0.0118 -0.0272 -0.1090
  848MOL0     C11832   7.486   1.562   1.133  0.0874 -0.5580  0.5918
  848MOL0     C11833   7.346   1.579   1.173  0.5528 -0.5094  0.0735
  848MOL0     O11834   7.250   1.546   1.073 -0.3750  0.3498 -0.0226
  848MOL0     C11835   7.111   1.539   1.101 -0.2644 -0.3850  0.5605
  848MOL0     C11836   7.024   1.537   0.996  0.1706 -0.3155 -0.2172
  848MOL0     C11837   6.890   1.559   1.018 -0.1584 -0.8697 -0.4158
  848MOL0     C11838   6.834   1.563   1.145  0.1805  0.5694  0.1889
  848MOL0     O11839   6.703   1.568   1.177 -0.3867 -0.2001  0.1674
  848MOL0     C11840   6.611   1.536   1.078 -0.1144 -0.0939 -0.1515
  848MOL0     C11841   6.467   1.497   1.119 -0.1160 -0.2207  0.3651
  848MOL0     C11842   6.377   1.458   1.000 -0.7064 -0.1243  0.4231
  848MOL0     C11843   6.242   1.413   1.048 -0.0333  0.2860 -0.0401
  848MOL0     C11844   6.131   1.393   0.942 -0.0965 -0.4792 -0.2685
  848MOL0     C11845   6.026   1.280   0.965 -0.4960 -0.2405 -0.8873
  848MOL0     C11846   5.948   1.303   1.088  0.5027  0.4763 -0.3479
  848MOL0     C11847   5.834   1.197   1.119  0.3212 -1.5296 -0.3129
  848MOL0    Cl11848   5.902   1.028   1.131  0.4298  0.1468 -0.3982
  848MOL0     C11849   6.923   1.538   1.252  0.4377 -0.0997  0.1792
  848MOL0     C11850   7.058   1.530   1.231 -0.7928  0.0813  0.8242
  848MOL0     O11851   7.326   1.620   1.284 -0.9275 -0.0714  0.7519
  848MOL0     C11852   7.517   1.494   1.010  0.1918  0.8469 -0.3149
  848MOL0     C11853   7.647   1.488   0.963  0.2229 -0.4634 -0.8515
  848MOL0     N11854   8.552   1.267   1.137 -0.8537  0.6016 -0.0434
  848MOL0     N11855   8.637   1.320   1.214  0.1974  0.7314 -0.4587
  848MOL0     C11856   9.803   1.192   1.002  0.4118 -0.1034 -0.0383
  848MOL0     C11857   9.913   1.113   1.006 -0.3659  0.1140 -0.5891
  848MOL0     C11858  10.252   0.933   1.285  0.1445 -0.2795  0.7484
  848MOL0     C11859  10.362   0.999   1.241 -0.5585  0.6021 -0.3110
  848MOL0     C11860  10.489   0.968   1.282 -0.5641  0.4389  0.5272
  848MOL0     C11861  10.507   0.872   1.387  0.9910  0.0291  0.7085
  848MOL0     O11862  10.630   0.847   1.444  0.3190 -1.0794  0.6209
  848MOL0     C11863  10.651   0.751   1.547  0.5604  0.2719 -0.0776
  848MOL0     C11864  10.801   0.728   1.565 -0.1430 -0.0265 -0.2792
  848MOL0     C11865  10.860   0.864   1.605  0.0762 -0.6596  0.3867
  848MOL0     C11866  11.008   0.861   1.601  0.0002 -0.3003  0.0923
  848MOL0     C11867  11.062   0.770   1.697  0.1300 -0.1498 -0.2172
  848MOL0     C11868  11.108   0.701   1.791 -0.5596  0.7253 -0.4861
  848MOL0     C11869  10.391   0.816   1.445 -0.4966  0.4832  0.6020
  848MOL0     C11870  10.261   0.842   1.387 -0.1355 -0.2748 -0.3968
  848MOL0     H11871  10.049   1.238   1.300  1.1757 -0.0132 -1.1737
  848MOL0     H11872   9.812   1.352   1.300 -2.6685 -1.6792  0.6649
  848MOL0     H11873   9.627   1.472   1.233 -2.1474  0.8834  3.1292
  848MOL0     H11874   9.571   1.307   1.282  3.2853  1.0831  1.0412
  848MOL0     H11875   9.400   1.307   1.119 -2.4311  0.9030  0.3584
  848MOL0     H11876   9.437   1.474   1.079  1.1951  0.8820  1.1753
  848MOL0     H11877   9.357   1.519   1.316  2.0565 -3.1475  2.5205
  848MOL0     H11878   9.325   1.344   1.317 -0.2911 -0.2512  1.1691
  848MOL0     H11879   9.190   1.537   1.117  2.8130  0.3355  1.2440
  848MOL0     H11880   9.181   1.357   1.110  2.0457 -0.7692 -0.4426
  848MOL0     H11881   9.104   1.516   1.370  1.1344  1.0828  0.1922
  848MOL0     H11882   9.056   1.358   1.320 -1.5165  1.1027 -0.0215
  848MOL0     H11883   8.897   1.450   1.156  0.3074  1.5317 -0.6187
  848MOL0     H11884   8.944   1.614   1.220  0.8162 -0.1204 -1.6870
  848MOL0     H11885   8.827   1.389   1.378  0.8226 -1.6155 -3.5429
  848MOL0     H11886   8.874   1.555   1.435  2.5668  2.3780 -2.5830
  848MOL0     H11887   8.682   1.637   1.304 -1.1140 -0.7154 -2.4363
  848MOL0     H11888   8.634   1.526   1.432 -0.7945  3.0388 -0.4654
  848MOL0     H11889   8.478   1.587   1.136 -0.5060  1.2260  1.8213
  848MOL0     H11890   8.349   1.289   0.961  3.8515 -1.2910 -0.0724
  848MOL0     H11891   8.396   1.455   0.913  1.8962 -2.2210 -0.1442
  848MOL0     H11892   8.260   1.529   1.137 -0.2434  0.5921 -1.0700
  848MOL0     H11893   8.214   1.354   1.134  0.0359 -2.8610 -3.2843
  848MOL0     H11894   8.150   1.560   0.921 -1.2794  1.1104  0.0806
  848MOL0     H11895   8.116   1.391   0.903 -0.8345 -1.7884 -0.2480
  848MOL0     H11896   8.002   1.552   1.158 -0.0406 -1.2963  1.2353
  848MOL0     H11897   7.954   1.391   1.101 -1.2585  0.3871 -2.3440
  848MOL0     H11898   7.802   1.648   1.219  0.2271 -0.9445  0.7847
  848MOL0     H11899   7.584   1.649   1.315  1.3938  0.5788 -0.2440
  848MOL0     H11900   7.060   1.529   0.894  3.4995  2.5874  0.5371
  848MOL0     H11901   6.828   1.571   0.930 -0.6395 -2.0843 -0.2664
  848MOL0     H11902   6.657   1.454   1.022 -1.2891 -1.3046  0.5946
  848MOL0     H11903   6.604   1.620   1.009  0.3871 -0.7931 -1.0744
  848MOL0     H11904   6.418   1.574   1.179 -1.5069 -3.4964  3.8182
  848MOL0     H11905   6.467   1.411   1.187  1.1004  0.9263  1.8931
  848MOL0     H11906   6.432   1.384   0.942  0.8677  1.8521 -0.7236
  848MOL0     H11907   6.356   1.548   0.942  0.3529 -0.8232 -1.0986
  848MOL0     H11908   6.262   1.313   1.089  0.9723  0.5097  0.0487
  848MOL0     H11909   6.197   1.467   1.132 -1.8584 -1.2317  0.0148
  848MOL0     H11910   6.185   1.382   0.848 -0.6685  3.5300 -1.2606
  848MOL0     H11911   6.085   1.491   0.926  1.6745  0.0536 -2.6101
  848MOL0     H11912   6.078   1.188   0.994 -1.7015 -0.2312  1.5795
  848MOL0     H11913   5.963   1.269   0.876 -0.3700  0.5370 -1.0875
  848MOL0     H11914   6.019   1.301   1.171  0.8695 -1.1201 -0.6519
  848MOL0     H11915   5.901   1.402   1.085  0.0175  0.2319 -1.0769
  848MOL0     H11916   5.750   1.195   1.048 -0.5288 -1.6133  0.6688
  848MOL0     H11917   5.795   1.216   1.219  0.3999 -2.1997 -0.1528
  848MOL0     H11918   6.885   1.540   1.354 -2.9430  1.2457 -0.9772
  848MOL0     H11919   7.119   1.512   1.318  2.6838 -0.1505 -1.4667
  848MOL0     H11920   7.437   1.467   0.942  0.8038 -2.2438  0.0559
  848MOL0     H11921   7.673   1.450   0.865  0.8906  2.5396 -1.9507
  848MOL0     H11922   9.732   1.197   0.920 -1.4697 -3.6470  1.1641
  848MOL0     H11923   9.950   1.037   0.937  0.8080  1.5225 -1.5651
  848MOL0     H11924  10.360   1.082   1.171  1.0781 -1.0510 -2.4535
  848MOL0     H11925  10.576   1.012   1.235 -0.1788 -2.1868 -1.4895
  848MOL0     H11926  10.604   0.653   1.532  2.4167 -0.4940 -1.3542
  848MOL0     H11927  10.612   0.792   1.640 -0.2518  0.5461 -0.5274
  848MOL0     H11928  10.811   0.655   1.646  0.3244 -1.5099 -1.6185
  848MOL0     H11929  10.837   0.679   1.474  2.9917  1.0131  0.2633
  848MOL0     H11930  10.814   0.892   1.700 -2.6798 -0.8179 -0.8037
  848MOL0     H11931  10.835   0.939   1.529 -0.0691 -0.1842  0.8976
  848MOL0     H11932  11.047   0.835   1.503 -2.2871  2.0056 -1.5373
  848MOL0     H11933  11.044   0.963   1.616  0.7967 -0.5591  0.0276
  848MOL0     H11934  11.146   0.634   1.864  0.3824 -0.7726 -2.2637
  848MOL0     H11935  10.385   0.750   1.530  0.3081 -1.5372 -0.8442
  848MOL0     H11936  10.170   0.805   1.433 -0.0748  1.6777  1.5086
  849MOL0     O11937   0.717   9.517   4.935 -0.4460  0.3265  0.2776
  849MOL0     C11938   0.804   9.446   4.984 -0.0932  0.0084 -0.4310
  849MOL0     O11939   0.786   9.319   5.024  0.4050  0.1160  0.2985
  849MOL0     C11940   0.664   9.261   5.030 -0.1896 -0.4109  0.4684
  849MOL0     C11941   0.556   9.329   5.097  0.8448  0.7737  0.2983
  849MOL0     C11942   0.433   9.257   5.097  0.1404 -0.3359 -0.8831
  849MOL0     C11943   0.411   9.126   5.039 -0.0794 -1.1207  0.4420
  849MOL0     O11944   0.273   9.096   5.042 -0.4668  0.4997 -0.2846
  849MOL0     C11945   0.249   8.972   4.975  0.1592  0.0895 -0.9291
  849MOL0     C11946   0.106   8.919   4.996 -0.0859 -0.4183  0.4159
  849MOL0     C11947   0.088   8.843   5.125  0.5622 -0.6746 -0.2219
  849MOL0     C11948  -0.050   8.766   5.135 -1.1575 -0.0049 -0.9614
  849MOL0     C11949  -0.064   8.690   5.262  0.3093  1.1432 -0.4411
  849MOL0     C11950  -0.210   8.657   5.302  0.4685  0.5269  0.8306
  849MOL0     C11951  -0.290   8.552   5.219  0.0243  0.9125 -0.6320
  849MOL0     C11952  -0.252   8.404   5.252 -0.0739  0.3976 -0.0905
  849MOL0     N11953  -0.305   8.322   5.136 -0.1097 -0.2103 -0.2688
  849MOL0     C11954  -0.434   8.262   5.136 -0.4959  0.6853  0.0504
  849MOL0     C11955  -0.447   8.220   5.009 -0.7634 -0.2043  0.2508
  849MOL0     C11956  -0.569   8.149   4.957  0.6234 -0.0917  0.1080
  849MOL0     C11957  -0.549   8.000   4.961 -0.5533 -0.0248 -0.1434
  849MOL0     C11958  -0.672   7.911   4.939  0.0031 -0.1439 -0.7770
  849MOL0     C11959  -0.636   7.760   4.961  0.0563  0.1594 -0.1838
  849MOL0     O11960  -0.727   7.682   4.881 -0.2121 -0.0549 -0.3530
  849MOL0     C11961  -0.844   7.649   4.943 -0.0089  0.8788  0.1827
  849MOL0     C11962  -0.863   7.518   4.989 -0.0878 -0.2034  0.1768
  849MOL0     C11963  -0.976   7.480   5.065  0.2632 -0.0393 -0.4852
  849MOL0     C11964  -1.083   7.565   5.080  0.0266  0.0735 -0.8122
  849MOL0     C11965  -1.213   7.528   5.148 -0.8436  0.1879  0.2385
  849MOL0     O11966  -1.302   7.622   5.176  0.2153 -0.3580  0.5804
  849MOL0     C11967  -1.421   7.566   5.218 -0.5254 -0.4214 -0.5630
  849MOL0     C11968  -1.506   7.503   5.129 -0.6513  1.5007 -0.0161
  849MOL0     C11969  -1.629   7.448   5.169 -0.6396  0.7376  0.2278
  849MOL0     C11970  -1.661   7.453   5.304  0.6222 -1.0848  0.5556
  849MOL0     O11971  -1.785   7.406   5.353  0.4098  0.0863  0.7498
  849MOL0     C11972  -1.859   7.317   5.270  0.4346  0.3719 -0.0908
  849MOL0     C11973  -1.907   7.209   5.368  0.1577  0.6799 -0.0201
  849MOL0     C11974  -2.020   7.249   5.463 -0.1252  0.1721 -0.2081
  849MOL0     C11975  -2.042   7.130   5.554  0.3341  0.5912  0.6954
  849MOL0     C11976  -2.157   7.159   5.660 -0.2066 -0.0692 -0.3606
  849MOL0     C11977  -2.226   7.033   5.693  0.2105  0.1148 -0.2221
  849MOL0     C11978  -2.361   7.069   5.769  0.3769 -0.2117 -0.5630
  849MOL0     C11979  -2.450   6.942   5.794  0.4539 -0.5375 -0.2150
  849MOL0    Cl11980  -2.615   6.996   5.866  0.3768  0.3247 -0.0629
  849MOL0     C11981  -1.577   7.531   5.390 -0.8177 -0.1394 -0.1309
  849MOL0     C11982  -1.458   7.588   5.352  0.0431 -0.3778  0.5155
  849MOL0     O11983  -1.229   7.408   5.172 -0.0316  0.0937  0.3649
  849MOL0     C11984  -1.067   7.694   5.037 -0.3141 -0.8024  0.3334
  849MOL0     C11985  -0.949   7.737   4.967 -0.0558  0.0284 -0.4947
  849MOL0     N11986  -0.324   8.246   4.941  0.6740 -0.1376  0.3081
  849MOL0     N11987  -0.243   8.310   5.015 -1.4719 -1.2781  0.4552
  849MOL0     C11988   0.523   9.067   4.983  0.0776  0.0724  0.4333
  849MOL0     C11989   0.648   9.136   4.966  0.1780 -0.2476 -0.6474
  849MOL0     C11990   0.938   9.503   5.004  0.5821 -0.0748 -0.3131
  849MOL0     C11991   0.964   9.639   4.977  0.0414 -0.0567  0.1783
  849MOL0     C11992   1.094   9.695   4.995 -0.2154 -0.1742 -0.4479
  849MOL0     C11993   1.200   9.624   5.050 -0.2320 -1.0114  0.1265
  849MOL0     O11994   1.323   9.688   5.053 -0.6432 -0.0421  0.0070
  849MOL0     C11995   1.441   9.611   5.058  0.4486  0.5328  0.2749
  849MOL0     C11996   1.504   9.585   4.918  0.0521  0.1789  0.5240
  849MOL0     C11997   1.651   9.537   4.926 -0.0375 -0.1659 -0.9521
  849MOL0     C11998   1.718   9.531   4.788  0.2018 -0.5965  0.3069
  849MOL0     C11999   1.861   9.523   4.792  0.1852 -0.3601  0.9320
  849MOL0     C12000   1.982   9.521   4.769  0.1627 -0.5908  0.4111
  849MOL0     C12001   1.171   9.489   5.077 -0.1505 -0.3913  0.7389
  849MOL0     C12002   1.043   9.430   5.055 -0.0044 -0.1115 -0.3560
  849MOL0     H12003   0.574   9.428   5.135  1.2813  1.3776 -1.3702
  849MOL0     H12004   0.351   9.314   5.141  1.9575  1.1822  0.7405
  849MOL0     H12005   0.318   8.901   5.021  0.0344 -1.0427 -2.4288
  849MOL0     H12006   0.262   8.992   4.868 -1.5836 -0.6271 -1.3194
  849MOL0     H12007   0.087   8.858   4.907  1.7296  3.0428 -2.6359
  849MOL0     H12008   0.042   9.007   5.000  1.6018  1.1179 -2.3641
  849MOL0     H12009   0.083   8.912   5.210 -2.8556 -1.5839  0.4645
  849MOL0     H12010   0.170   8.772   5.134  0.0844 -1.1619  0.3406
  849MOL0     H12011  -0.128   8.843   5.126 -0.5357  1.4704  3.8303
  849MOL0     H12012  -0.060   8.695   5.052 -0.8550 -0.3653 -0.6921
  849MOL0     H12013  -0.020   8.748   5.344  1.3174  1.2734 -1.0449
  849MOL0     H12014  -0.000   8.601   5.264 -0.1266  0.8456  1.2710
  849MOL0     H12015  -0.254   8.757   5.296  0.4894  0.4754 -0.5109
  849MOL0     H12016  -0.213   8.640   5.410  2.7351  2.2983  1.2524
  849MOL0     H12017  -0.399   8.556   5.225 -0.0925 -1.5618  0.2897
  849MOL0     H12018  -0.262   8.575   5.116 -0.6128  2.6571 -0.4464
  849MOL0     H12019  -0.283   8.362   5.348 -1.4336 -2.6720 -1.7734
  849MOL0     H12020  -0.143   8.398   5.250 -0.0136  0.6024 -4.0654
  849MOL0     H12021  -0.517   8.253   5.205  0.0920  1.6952  0.9194
  849MOL0     H12022  -0.586   8.167   4.850  1.4529 -2.8909 -0.5879
  849MOL0     H12023  -0.659   8.174   5.012  0.8102  2.2475 -0.5435
  849MOL0     H12024  -0.519   7.987   5.065 -4.2283  0.7778  1.1521
  849MOL0     H12025  -0.471   7.979   4.887 -2.6222  0.3890 -2.5750
  849MOL0     H12026  -0.746   7.938   5.015 -0.0261 -0.8224 -0.5601
  849MOL0     H12027  -0.706   7.939   4.838  0.7639 -0.7180 -1.1971
  849MOL0     H12028  -0.635   7.732   5.067  0.1658 -0.0286 -0.2341
  849MOL0     H12029  -0.539   7.736   4.916  0.5425 -2.0126  1.8486
  849MOL0     H12030  -0.788   7.445   4.962  1.3872  1.0222  0.8246
  849MOL0     H12031  -0.988   7.383   5.111 -2.6311  0.7882  0.6749
  849MOL0     H12032  -1.479   7.497   5.024  1.6507 -3.1579  0.5974
  849MOL0     H12033  -1.695   7.415   5.090 -0.2032  0.5063 -0.0426
  849MOL0     H12034  -1.797   7.265   5.197  0.9300  2.2324 -1.0704
  849MOL0     H12035  -1.946   7.368   5.229  0.9246  1.9965  0.7869
  849MOL0     H12036  -1.826   7.176   5.433  1.1643  2.0007 -0.5670
  849MOL0     H12037  -1.937   7.123   5.308 -3.6216  0.3528  2.0203
  849MOL0     H12038  -2.108   7.268   5.401  0.9771  1.2461 -1.5250
  849MOL0     H12039  -1.987   7.331   5.527  0.2910  0.8687 -1.3038
  849MOL0     H12040  -2.075   7.046   5.492 -1.4883  2.2823 -0.7506
  849MOL0     H12041  -1.954   7.102   5.613  0.1815  1.1633  1.2069
  849MOL0     H12042  -2.233   7.217   5.606 -0.7622 -1.5522 -1.2351
  849MOL0     H12043  -2.120   7.212   5.747 -1.4566  1.1297 -0.5157
  849MOL0     H12044  -2.162   6.963   5.748  1.8934  0.0604 -2.1189
  849MOL0     H12045  -2.249   6.988   5.596  3.1660  1.6866 -1.7892
  849MOL0     H12046  -2.328   7.120   5.860 -1.4782 -1.2257  0.7363
  849MOL0     H12047  -2.419   7.141   5.710 -1.3369 -0.5421  0.6674
  849MOL0     H12048  -2.404   6.879   5.871 -1.7288 -0.5427  1.1986
  849MOL0     H12049  -2.461   6.878   5.706  1.9154 -3.0298  1.2907
  849MOL0     H12050  -1.600   7.546   5.495 -1.8639 -2.9445  0.1309
  849MOL0     H12051  -1.386   7.644   5.411 -0.1376  0.9285 -0.4467
  849MOL0     H12052  -1.142   7.772   5.047  1.5360  1.0880  0.0198
  849MOL0     H12053  -0.937   7.833   4.917 -2.3521 -1.0314 -3.3920
  849MOL0     H12054   0.509   8.971   4.934 -0.8429 -0.4041  1.5891
  849MOL0     H12055   0.732   9.088   4.916  0.9593  0.4672 -0.0404
  849MOL0     H12056   0.887   9.707   4.943 -0.7663 -2.2335 -2.7672
  849MOL0     H12057   1.110   9.801   4.977 -0.2552 -0.0208  0.3488
  849MOL0     H12058   1.432   9.515   5.109  0.5298 -1.9768 -3.9172
  849MOL0     H12059   1.519   9.673   5.102  1.4395  0.6763 -1.5613
  849MOL0     H12060   1.447   9.507   4.866 -0.1180  0.5262  0.1810
  849MOL0     H12061   1.502   9.676   4.858  3.3977  0.6413  0.9183
  849MOL0     H12062   1.666   9.443   4.981  1.8053 -0.2912 -1.6240
  849MOL0     H12063   1.704   9.611   4.986  0.2213 -0.3270 -0.9828
  849MOL0     H12064   1.675   9.440   4.745  1.6685 -2.2279  2.0947
  849MOL0     H12065   1.688   9.617   4.728 -0.6571 -1.9863 -1.3437
  849MOL0     H12066   2.089   9.518   4.772  0.1174 -2.1065  2.9541
  849MOL0     H12067   1.244   9.428   5.130  1.2213  1.6863  1.3579
  849MOL0     H12068   1.025   9.326   5.080 -3.2238  0.6963  1.3156
  850MOL0     O12069   4.892   8.814   8.111  1.0011  0.1140 -0.5155
  850MOL0     C12070   4.904   8.746   8.012  0.6072 -0.0351  0.0184
  850MOL0     O12071   4.807   8.711   7.928 -0.1303 -0.7929 -0.0922
  850MOL0     C12072   4.681   8.725   7.972  0.4787  0.2661  0.4549
  850MOL0     C12073   4.634   8.855   7.997  0.5136  0.1397  0.1552
  850MOL0     C12074   4.500   8.872   8.018  0.5529  0.1152 -0.6577
  850MOL0     C12075   4.418   8.760   8.047 -1.1173 -0.1712  0.1413
  850MOL0     O12076   4.294   8.799   8.066  0.6088  0.2079  0.1042
  850MOL0     C12077   4.211   8.733   8.160  0.1477 -0.0286 -0.6209
  850MOL0     C12078   4.108   8.832   8.221 -0.1514 -0.1900  0.5985
  850MOL0     C12079   4.030   8.802   8.350 -0.4649 -0.0013  0.4969
  850MOL0     C12080   3.944   8.928   8.385 -0.3620 -0.2125 -0.2356
  850MOL0     C12081   3.850   8.908   8.510  0.2663 -0.5227  0.8212
  850MOL0     C12082   3.767   9.029   8.526  1.3313 -0.0271 -0.8670
  850MOL0     C12083   3.673   9.043   8.648  0.4122 -0.3716  0.3948
  850MOL0     C12084   3.556   9.148   8.624  0.1233  0.4805  0.4704
  850MOL0     N12085   3.477   9.162   8.748 -0.5060  0.6260 -0.6893
  850MOL0     C12086   3.447   9.277   8.828  1.3564  0.1250 -0.5937
  850MOL0     C12087   3.358   9.235   8.920  0.5205 -0.0045  0.7149
  850MOL0     C12088   3.301   9.309   9.035 -0.3893  0.1072 -0.2346
  850MOL0     C12089   3.337   9.238   9.169  0.1685  0.0412 -1.2713
  850MOL0     C12090   3.263   9.300   9.295 -0.8094  1.3959  0.6969
  850MOL0     C12091   3.289   9.199   9.410  0.7926 -0.2710 -0.4241
  850MOL0     O12092   3.385   9.250   9.504  0.8304  0.2866  0.2007
  850MOL0     C12093   3.340   9.310   9.626 -0.0113 -0.0600 -0.0463
  850MOL0     C12094   3.438   9.333   9.723  0.6657 -0.0806  0.2129
  850MOL0     C12095   3.395   9.391   9.842  0.6993 -0.5505  0.7550
  850MOL0     C12096   3.262   9.434   9.867  0.3310  0.8871  0.0738
  850MOL0     C12097   3.211   9.493   9.995 -1.0474  0.3386 -0.1757
  850MOL0     O12098   3.105   9.572   9.977 -0.7468  0.7468  0.8362
  850MOL0     C12099   3.042   9.645  10.073  0.2955 -0.2349 -0.1325
  850MOL0     C12100   3.106   9.721  10.173  0.8100  0.1690  0.0430
  850MOL0     C12101   3.035   9.806  10.263  0.5518  0.2649 -0.4340
  850MOL0     C12102   2.895   9.813  10.257  1.1331  0.4449  0.5362
  850MOL0     O12103   2.820   9.890  10.348 -0.0863 -0.3859 -0.2543
  850MOL0     C12104   2.679   9.924  10.320 -1.4009 -0.2857 -0.0167
  850MOL0     C12105   2.637  10.026  10.416  0.3462 -0.1718 -0.5031
  850MOL0     C12106   2.493  10.070  10.384 -1.0576  0.0216  0.3402
  850MOL0     C12107   2.449  10.185  10.468  0.3957 -0.5120 -0.4710
  850MOL0     C12108   2.309  10.236  10.434  0.8350 -0.3882 -0.0609
  850MOL0     C12109   2.192  10.127  10.429  0.4121  0.0149  0.4679
  850MOL0     C12110   2.071  10.203  10.384  0.4693  0.5209  0.8628
  850MOL0     C12111   2.046  10.214  10.233 -0.0133  0.7001  0.3411
  850MOL0    Cl12112   1.864  10.224  10.209 -0.1620 -0.1583 -0.3295
  850MOL0     C12113   2.834   9.724  10.161 -0.8398  1.2040 -0.5315
  850MOL0     C12114   2.900   9.653  10.060 -0.0648  0.8386 -0.6483
  850MOL0     O12115   3.275   9.470  10.101 -0.2295  0.9356  0.5680
  850MOL0     C12116   3.163   9.404   9.770 -0.6508  0.2171 -0.7017
  850MOL0     C12117   3.201   9.347   9.646  0.8241  0.1831 -0.6694
  850MOL0     N12118   3.332   9.096   8.895 -0.7255 -0.5417  0.2852
  850MOL0     N12119   3.403   9.054   8.795  0.1418  0.6006  0.4259
  850MOL0     C12120   4.473   8.627   8.049  0.0997 -0.0008  0.4033
  850MOL0     C12121   4.605   8.613   7.998 -1.0628 -0.4784 -0.9268
  850MOL0     C12122   5.034   8.692   7.980 -0.8274  0.9080 -0.8485
  850MOL0     C12123   5.144   8.697   8.073  0.1247  0.9803  0.3298
  850MOL0     C12124   5.267   8.631   8.053  0.5995 -0.3043 -0.2531
  850MOL0     C12125   5.277   8.554   7.941 -0.2754  0.1497 -0.4103
  850MOL0     O12126   5.389   8.474   7.935  0.5422  0.8192 -0.2437
  850MOL0     C12127   5.413   8.408   7.809  0.7397 -0.1934  0.1374
  850MOL0     C12128   5.548   8.341   7.816 -0.8819 -0.1118 -0.2169
  850MOL0     C12129   5.658   8.446   7.852  1.2618  0.4484  0.0117
  850MOL0     C12130   5.805   8.388   7.863  0.3613  0.4006  0.1073
  850MOL0     C12131   5.850   8.335   7.734 -0.1847 -1.7976 -0.0512
  850MOL0     C12132   5.884   8.285   7.634 -0.3284 -1.2210  1.4224
  850MOL0     C12133   5.169   8.549   7.850  0.0415  0.4094  0.1584
  850MOL0     C12134   5.055   8.621   7.864  0.3252 -0.2948 -0.7183
  850MOL0     H12135   4.699   8.940   7.977  0.0526  1.4206  3.4319
  850MOL0     H12136   4.458   8.972   8.019 -3.0902 -1.2594  0.4343
  850MOL0     H12137   4.278   8.703   8.242  1.1733 -2.6764 -2.2982
  850MOL0     H12138   4.164   8.650   8.106  1.1496  0.4888 -2.3494
  850MOL0     H12139   4.034   8.857   8.144  0.1714  0.6428  0.5527
  850MOL0     H12140   4.168   8.922   8.235  1.9738 -0.3722 -4.9288
  850MOL0     H12141   4.103   8.787   8.430  1.9697 -1.9628 -1.8823
  850MOL0     H12142   3.970   8.713   8.329 -0.0876  0.6849 -5.1373
  850MOL0     H12143   4.011   9.010   8.415 -2.3019  0.8498  1.4239
  850MOL0     H12144   3.879   8.967   8.306  0.1903 -1.4137 -1.3201
  850MOL0     H12145   3.913   8.891   8.598  1.1330 -3.2315 -0.2169
  850MOL0     H12146   3.784   8.821   8.500 -1.1680  0.4329  1.6349
  850MOL0     H12147   3.695   9.037   8.444 -0.7801  2.2107  1.0755
  850MOL0     H12148   3.840   9.110   8.521  2.6810 -1.1222  0.1871
  850MOL0     H12149   3.622   8.948   8.664 -1.3525  0.3666 -0.6071
  850MOL0     H12150   3.728   9.078   8.736 -3.6378  0.8294  2.7049
  850MOL0     H12151   3.495   9.118   8.538  1.0435  2.2601 -0.8609
  850MOL0     H12152   3.607   9.241   8.599  0.5316  0.6279  1.8180
  850MOL0     H12153   3.483   9.379   8.816 -1.3321  1.3503  0.9251
  850MOL0     H12154   3.194   9.296   9.018  0.0671 -0.3340 -3.2039
  850MOL0     H12155   3.331   9.413   9.053 -1.6410  0.8402 -2.1165
  850MOL0     H12156   3.446   9.236   9.180 -0.0362 -2.5288  1.4243
  850MOL0     H12157   3.318   9.131   9.167 -0.0197 -0.1544  2.6711
  850MOL0     H12158   3.307   9.399   9.310 -0.1351  1.0851  0.8072
  850MOL0     H12159   3.157   9.315   9.273 -0.8170 -1.4204 -1.8139
  850MOL0     H12160   3.325   9.101   9.377  1.3248  0.0025 -0.6564
  850MOL0     H12161   3.194   9.166   9.453  1.9733 -0.6406  2.0542
  850MOL0     H12162   3.542   9.305   9.716  0.7076  0.0135  0.4917
  850MOL0     H12163   3.469   9.409   9.919  0.0562 -1.1330  1.5213
  850MOL0     H12164   3.215   9.727  10.176  0.8098  0.6595  3.6430
  850MOL0     H12165   3.092   9.862  10.336  1.6344 -2.3417  0.8389
  850MOL0     H12166   2.627   9.830  10.341 -0.2946 -0.7129  0.9256
  850MOL0     H12167   2.659   9.955  10.217 -1.4771 -0.3136 -0.0097
  850MOL0     H12168   2.699  10.116  10.408  0.4308  0.0128  1.5189
  850MOL0     H12169   2.644   9.982  10.516 -0.1616  0.9078  0.0265
  850MOL0     H12170   2.429   9.982  10.398  0.1891 -1.5273 -2.7267
  850MOL0     H12171   2.481  10.098  10.279  1.7302  0.4802  0.0797
  850MOL0     H12172   2.446  10.153  10.573  2.3259 -0.4994 -0.3646
  850MOL0     H12173   2.522  10.266  10.461  2.6548 -2.4420 -0.4002
  850MOL0     H12174   2.318  10.276  10.333 -2.1079  1.1014  0.1494
  850MOL0     H12175   2.275  10.321  10.493  0.8966 -0.1722 -0.3369
  850MOL0     H12176   2.180  10.084  10.529  0.4745 -2.4408 -0.5370
  850MOL0     H12177   2.226  10.046  10.364  1.1361 -2.0782  3.2654
  850MOL0     H12178   1.983  10.141  10.404  0.0940 -0.4847 -2.9873
  850MOL0     H12179   2.054  10.295  10.440  0.0497  2.0561 -1.6528
  850MOL0     H12180   2.086  10.123  10.189  0.7891  1.0394  0.3482
  850MOL0     H12181   2.100  10.301  10.195  3.1327  0.0052  2.7391
  850MOL0     H12182   2.725   9.729  10.167 -0.8510 -0.4111  2.2402
  850MOL0     H12183   2.834   9.594   9.998 -0.8564  1.6141 -0.5668
  850MOL0     H12184   3.058   9.430   9.773 -1.2237 -1.6705 -2.2020
  850MOL0     H12185   3.135   9.329   9.562 -2.2060 -0.0041  1.5916
  850MOL0     H12186   4.406   8.548   8.083 -0.0993 -0.3172 -0.7102
  850MOL0     H12187   4.654   8.519   7.976 -1.1032 -0.2710 -1.9408
  850MOL0     H12188   5.143   8.760   8.161 -0.1370 -2.3280  2.8868
  850MOL0     H12189   5.344   8.627   8.130  0.7704  0.6300 -0.3625
  850MOL0     H12190   5.409   8.475   7.723 -1.8349 -2.1927 -1.4605
  850MOL0     H12191   5.340   8.328   7.796  0.9194 -0.1276 -1.4347
  850MOL0     H12192   5.557   8.256   7.885 -0.7334 -0.3563 -0.5300
  850MOL0     H12193   5.575   8.293   7.721  2.2600  0.7604  0.1108
  850MOL0     H12194   5.644   8.488   7.952  4.8787  2.4106 -0.1549
  850MOL0     H12195   5.658   8.529   7.781  2.9739  2.3744  2.1085
  850MOL0     H12196   5.870   8.471   7.892 -0.2424  0.8333  0.2407
  850MOL0     H12197   5.814   8.306   7.935 -1.8761 -0.3469 -0.3750
  850MOL0     H12198   5.913   8.250   7.537  1.1854  2.5033  0.3238
  850MOL0     H12199   5.161   8.478   7.769  0.7248  0.1504  0.3149
  850MOL0     H12200   4.987   8.604   7.781  2.5736 -3.1386 -2.1502
  851MOL0     O12201  10.974   2.834   1.701 -0.3463  0.1286  0.0088
  851MOL0     C12202  10.974   2.946   1.758 -0.1437  0.0993 -0.3790
  851MOL0     O12203  10.858   3.009   1.801 -0.1018 -0.2175 -0.6467
  851MOL0     C12204  10.742   3.007   1.737  0.4263  0.1119 -0.0736
  851MOL0     C12205  10.627   3.021   1.814 -0.0878  0.9604 -0.0233
  851MOL0     C12206  10.501   2.998   1.754 -0.2898 -0.4603  0.7855
  851MOL0     C12207  10.490   2.966   1.617  0.2186 -0.4229  0.2416
  851MOL0     O12208  10.367   2.960   1.557  0.1281  0.0887 -0.0444
  851MOL0     C12209  10.344   2.846   1.473  0.1260  0.2368 -0.7191
  851MOL0     C12210  10.223   2.833   1.387 -0.2723 -0.2213 -0.4339
  851MOL0     C12211  10.219   2.957   1.294  0.6076 -0.9739  0.4867
  851MOL0     C12212  10.079   2.984   1.234 -0.1898  0.3525 -0.6256
  851MOL0     C12213  10.077   3.114   1.161  0.2067 -0.4765 -0.3947
  851MOL0     C12214   9.944   3.127   1.081  0.3330 -0.9126  0.5073
  851MOL0     C12215   9.815   3.109   1.169  0.5494 -0.4105 -0.0987
  851MOL0     C12216   9.690   3.069   1.080 -0.0380  0.1817 -0.3546
  851MOL0     N12217   9.662   3.168   0.974  0.4405 -0.4198  0.7888
  851MOL0     C12218   9.562   3.274   0.981  0.5930 -0.2843 -0.2947
  851MOL0     C12219   9.581   3.347   0.864 -0.6572 -0.4789  0.7528
  851MOL0     C12220   9.500   3.471   0.836 -0.2664  0.7383 -0.3265
  851MOL0     C12221   9.347   3.440   0.830  0.3743 -0.2846  0.2405
  851MOL0     C12222   9.268   3.522   0.735  0.4768  0.0403  0.8504
  851MOL0     C12223   9.129   3.456   0.719 -0.6584 -0.1859  0.7800
  851MOL0     O12224   9.053   3.515   0.613 -0.6621 -0.2502  0.4282
  851MOL0     C12225   8.911   3.493   0.607 -0.0330 -1.3864 -0.0295
  851MOL0     C12226   8.852   3.561   0.500  0.1486  0.9166 -0.6320
  851MOL0     C12227   8.715   3.550   0.475  0.4330  0.2802 -0.3271
  851MOL0     C12228   8.636   3.484   0.573  0.7402 -0.1530  0.0354
  851MOL0     C12229   8.493   3.463   0.554 -1.0125  0.7693  0.4446
  851MOL0     O12230   8.442   3.362   0.632  1.3359  0.5739  0.4470
  851MOL0     C12231   8.302   3.348   0.618  0.5942  0.3083 -0.0031
  851MOL0     C12232   8.253   3.227   0.564  0.0869  1.1990 -0.3664
  851MOL0     C12233   8.115   3.203   0.558 -0.5502 -0.1344  0.1078
  851MOL0     C12234   8.019   3.291   0.607  0.6980 -0.1540 -0.3158
  851MOL0     O12235   7.884   3.259   0.591 -0.3386  0.0663 -0.4067
  851MOL0     C12236   7.780   3.322   0.665  0.0617  0.3213 -0.3608
  851MOL0     C12237   7.649   3.291   0.606  0.4771 -0.6158  0.2731
  851MOL0     C12238   7.645   3.328   0.456 -0.0786 -0.2577 -0.5664
  851MOL0     C12239   7.495   3.363   0.420  0.0307  1.1437  0.1792
  851MOL0     C12240   7.469   3.405   0.280 -0.5247  0.1378  0.7406
  851MOL0     C12241   7.329   3.409   0.240 -0.2338 -0.4624 -0.3751
  851MOL0     C12242   7.284   3.467   0.103 -0.3918 -1.0538 -0.7697
  851MOL0     C12243   7.336   3.391  -0.019  0.4748  0.5851  0.4134
  851MOL0    Cl12244   7.273   3.223  -0.021 -0.1187  0.2080  0.0292
  851MOL0     C12245   8.064   3.414   0.646  0.8322  1.0487 -0.9371
  851MOL0     C12246   8.204   3.441   0.657 -0.3531 -0.1335  0.2774
  851MOL0     O12247   8.430   3.542   0.488 -0.2470 -0.1948  0.9010
  851MOL0     C12248   8.692   3.425   0.688  0.2119 -0.1977  0.7515
  851MOL0     C12249   8.831   3.410   0.689 -0.0005  0.4994  0.2441
  851MOL0     N12250   9.679   3.284   0.786  0.0924 -0.4056 -0.5072
  851MOL0     N12251   9.717   3.177   0.845 -0.3257 -0.5501 -0.6312
  851MOL0     C12252  10.611   2.954   1.546  0.0973 -0.5854 -0.2364
  851MOL0     C12253  10.735   2.974   1.603 -0.2181 -0.0067  1.5687
  851MOL0     C12254  11.108   3.009   1.797  0.2048  0.0182 -0.4156
  851MOL0     C12255  11.109   3.144   1.839  0.8348 -0.5381  0.1768
  851MOL0     C12256  11.227   3.210   1.884  1.1653  0.5532 -0.5414
  851MOL0     C12257  11.341   3.137   1.876 -0.1329 -0.0464  0.6783
  851MOL0     O12258  11.462   3.184   1.918 -0.2186 -0.0752  0.3536
  851MOL0     C12259  11.462   3.280   2.021  0.1212 -0.2458 -0.7204
  851MOL0     C12260  11.586   3.276   2.109 -0.3800  0.3558  0.7520
  851MOL0     C12261  11.706   3.317   2.021  0.3427 -0.0350  0.2654
  851MOL0     C12262  11.827   3.363   2.103  0.8645  0.5465  0.1266
  851MOL0     C12263  11.942   3.385   2.011  1.3253  0.9593  0.3135
  851MOL0     C12264  12.036   3.396   1.936 -0.0746  0.3394  0.2807
  851MOL0     C12265  11.340   3.007   1.831 -0.2108 -0.7291  0.2631
  851MOL0     C12266  11.227   2.933   1.789 -0.0824 -0.6849  0.3433
  851MOL0     H12267  10.654   3.023   1.919  0.8275 -3.4920  0.0109
  851MOL0     H12268  10.406   3.024   1.799 -0.0402  0.1088  0.9866
  851MOL0     H12269  10.345   2.757   1.535 -0.3900  0.0809 -0.9307
  851MOL0     H12270  10.422   2.841   1.396  1.3208  0.9636  0.4107
  851MOL0     H12271  10.131   2.821   1.445  0.3600  1.2777  0.9562
  851MOL0     H12272  10.240   2.742   1.329  0.3162 -0.1280 -0.4101
  851MOL0     H12273  10.290   2.958   1.211 -0.0535 -0.6979 -0.0817
  851MOL0     H12274  10.243   3.049   1.348 -1.0285 -0.8653  1.0890
  851MOL0     H12275  10.052   2.898   1.171  0.1529 -1.6498  1.7784
  851MOL0     H12276  10.006   2.968   1.315  0.5021  4.3895  1.0208
  851MOL0     H12277  10.160   3.113   1.089 -0.6506 -0.5258 -1.4102
  851MOL0     H12278  10.095   3.191   1.236 -0.6896 -1.2644  0.6511
  851MOL0     H12279   9.952   3.053   1.000  1.8310 -0.7314  0.4599
  851MOL0     H12280   9.943   3.218   1.021  2.2581 -2.7690 -2.5989
  851MOL0     H12281   9.817   3.031   1.245 -2.0499 -0.5576 -0.0915
  851MOL0     H12282   9.793   3.197   1.230 -0.2122 -0.1476 -0.7348
  851MOL0     H12283   9.605   3.054   1.147  0.5920 -1.0268  0.1887
  851MOL0     H12284   9.726   2.972   1.043 -1.1067 -0.2212 -0.3769
  851MOL0     H12285   9.504   3.289   1.072  0.1983 -1.8625 -0.2571
  851MOL0     H12286   9.531   3.511   0.739  0.6288 -0.1239 -0.4154
  851MOL0     H12287   9.519   3.549   0.910  2.5079  1.4134 -1.6219
  851MOL0     H12288   9.305   3.447   0.931  1.4276  1.9391  0.5689
  851MOL0     H12289   9.333   3.335   0.801 -3.1302 -0.2710  1.3348
  851MOL0     H12290   9.262   3.624   0.774  2.3913  0.5164  0.0395
  851MOL0     H12291   9.323   3.510   0.640  1.5369 -0.9173  1.5577
  851MOL0     H12292   9.073   3.469   0.812  1.0340 -1.0525  1.9854
  851MOL0     H12293   9.139   3.348   0.707  1.0869 -0.0947  1.0649
  851MOL0     H12294   8.907   3.611   0.421 -0.5133 -0.6834 -2.1583
  851MOL0     H12295   8.672   3.579   0.380  0.5384  0.9031 -0.1840
  851MOL0     H12296   8.331   3.159   0.533 -0.9754 -0.9282  1.3647
  851MOL0     H12297   8.077   3.105   0.530 -0.4611  0.2977 -1.6516
  851MOL0     H12298   7.799   3.429   0.658  3.8684 -0.2638 -1.3019
  851MOL0     H12299   7.781   3.293   0.771 -0.8483  0.6714 -0.2470
  851MOL0     H12300   7.573   3.344   0.663  0.8474 -1.1688  1.3120
  851MOL0     H12301   7.620   3.185   0.608 -2.1239  0.0589  1.0029
  851MOL0     H12302   7.687   3.245   0.400  0.1976 -0.1694 -0.4929
  851MOL0     H12303   7.716   3.411   0.443  1.1879 -1.5606 -2.3258
  851MOL0     H12304   7.432   3.274   0.430  0.5696  0.8924  1.5794
  851MOL0     H12305   7.460   3.443   0.486 -1.9228 -0.3821  1.1041
  851MOL0     H12306   7.514   3.337   0.207 -2.6274  0.1488 -0.6517
  851MOL0     H12307   7.518   3.499   0.252  1.6313 -1.5171 -1.4667
  851MOL0     H12308   7.274   3.460   0.320 -1.0641 -2.2533  0.2498
  851MOL0     H12309   7.287   3.308   0.249  0.9710 -0.9356  0.2140
  851MOL0     H12310   7.175   3.466   0.102 -0.4597 -3.8292  0.5383
  851MOL0     H12311   7.324   3.569   0.105  0.9365 -1.4766 -2.6214
  851MOL0     H12312   7.444   3.377  -0.020  0.6193  1.6761 -0.4227
  851MOL0     H12313   7.313   3.433  -0.117  2.4719 -2.7801 -1.7293
  851MOL0     H12314   7.994   3.480   0.696 -0.9614 -1.6473  0.3684
  851MOL0     H12315   8.236   3.536   0.697 -1.3562  0.8944 -1.2513
  851MOL0     H12316   8.628   3.384   0.766 -1.6282  0.2586 -0.4549
  851MOL0     H12317   8.893   3.357   0.761  1.7172  2.1632  0.1015
  851MOL0     H12318  10.603   2.926   1.441  4.7656 -0.5696 -0.7951
  851MOL0     H12319  10.824   2.953   1.544 -1.0093  1.3980 -0.2351
  851MOL0     H12320  11.016   3.200   1.837  1.9298  1.3656 -0.2725
  851MOL0     H12321  11.236   3.316   1.908 -1.3999  0.6466  0.2116
  851MOL0     H12322  11.377   3.253   2.084  2.0626 -0.0314  2.2232
  851MOL0     H12323  11.451   3.381   1.980 -0.1838  0.4500  1.0028
  851MOL0     H12324  11.573   3.355   2.184  0.9110  2.0984 -0.7460
  851MOL0     H12325  11.592   3.178   2.157 -1.9059  0.3231  0.9286
  851MOL0     H12326  11.674   3.391   1.946 -1.8376 -2.9030 -1.9228
  851MOL0     H12327  11.733   3.227   1.965 -1.8148 -0.7666  0.2729
  851MOL0     H12328  11.812   3.449   2.169 -2.6277  0.3424 -0.2226
  851MOL0     H12329  11.857   3.280   2.169 -0.0682  0.1380  0.0476
  851MOL0     H12330  12.117   3.414   1.868 -0.5951  1.9460  0.0545
  851MOL0     H12331  11.433   2.954   1.811  0.3253  0.8749 -1.8898
  851MOL0     H12332  11.221   2.832   1.749  1.7159 -0.4805 -0.5530
  852MOL0     O12333   9.810   2.992  11.138 -0.3677  0.0880  0.0680
  852MOL0     C12334   9.892   3.037  11.055 -0.0456 -0.1423 -0.1859
  852MOL0     O12335   9.865   3.051  10.928  0.1479  0.2211  1.1186
  852MOL0     C12336   9.737   3.053  10.895  0.3922  0.6056  0.1324
  852MOL0     C12337   9.697   2.956  10.808 -0.5220 -0.5028  0.0791
  852MOL0     C12338   9.563   2.926  10.784 -0.8065 -0.0065  0.3970
  852MOL0     C12339   9.463   3.012  10.838 -0.1657  1.1263 -0.0404
  852MOL0     O12340   9.329   2.994  10.822  0.0180 -0.0197 -0.2198
  852MOL0     C12341   9.278   2.860  10.777 -0.1182  0.1355  0.3540
  852MOL0     C12342   9.142   2.849  10.831 -0.2193 -0.2218  0.1385
  852MOL0     C12343   9.066   2.727  10.780  0.4690  0.0111  0.2821
  852MOL0     C12344   8.949   2.687  10.860 -0.9267 -0.2386 -0.0238
  852MOL0     C12345   8.861   2.575  10.799  1.0064 -0.3313  0.6842
  852MOL0     C12346   8.798   2.615  10.661 -0.4598 -0.4146 -0.4215
  852MOL0     C12347   8.679   2.521  10.619  0.6282  0.4294  0.8327
  852MOL0     C12348   8.611   2.559  10.483 -0.0883 -0.3526  0.0134
  852MOL0     N12349   8.638   2.454  10.382  0.6806  0.1194 -0.8053
  852MOL0     C12350   8.581   2.325  10.383 -0.0698 -0.5276 -0.8562
  852MOL0     C12351   8.638   2.268  10.281 -0.3408 -0.4290  0.6365
  852MOL0     C12352   8.614   2.124  10.251 -0.6804  0.0753  1.2272
  852MOL0     C12353   8.491   2.122  10.154 -0.0459 -0.1784 -0.1231
  852MOL0     C12354   8.379   2.036  10.219  0.2726  0.0567 -0.3013
  852MOL0     C12355   8.262   1.999  10.125  1.1636 -0.4961 -0.2858
  852MOL0     O12356   8.162   2.096  10.107  0.6009  0.2483  0.8968
  852MOL0     C12357   8.036   2.072  10.162 -0.0172 -0.1035 -0.7671
  852MOL0     C12358   7.918   2.066  10.084  1.3292 -0.4243  0.5485
  852MOL0     C12359   7.795   2.034  10.143 -0.2468  0.1906  0.4711
  852MOL0     C12360   7.782   2.029  10.282  0.3323 -0.3259 -0.5933
  852MOL0     C12361   7.646   2.011  10.341  0.1525 -0.1356 -0.4037
  852MOL0     O12362   7.544   1.971  10.259 -0.1133  0.1366 -0.1445
  852MOL0     C12363   7.418   1.932  10.300 -0.2766  0.3539 -0.8849
  852MOL0     C12364   7.402   1.842  10.409  0.1922 -0.0906 -0.3199
  852MOL0     C12365   7.272   1.801  10.449  0.2990 -0.3627 -0.6222
  852MOL0     C12366   7.158   1.846  10.373 -0.2508 -0.5487  0.3888
  852MOL0     O12367   7.034   1.790  10.399 -0.4044  0.3404 -0.4527
  852MOL0     C12368   7.007   1.789  10.540  0.4259  0.4025  0.1331
  852MOL0     C12369   6.980   1.647  10.589 -0.3746  0.6490 -0.3157
  852MOL0     C12370   6.832   1.621  10.620 -1.1830 -0.6563 -0.7839
  852MOL0     C12371   6.732   1.622  10.505  0.1463  0.4121 -0.1853
  852MOL0     C12372   6.593   1.568  10.553  0.1520 -0.6605 -0.5245
  852MOL0     C12373   6.510   1.523  10.437 -0.4576  0.5692 -0.4693
  852MOL0     C12374   6.375   1.457  10.477  0.1721 -0.4408  0.4595
  852MOL0     C12375   6.277   1.577  10.498 -0.4883 -0.3350  0.2827
  852MOL0    Cl12376   6.122   1.492  10.574 -0.2534 -0.2537 -0.0134
  852MOL0     C12377   7.176   1.935  10.263 -0.7866 -0.3007  0.4647
  852MOL0     C12378   7.308   1.973  10.223  0.5307 -0.1929  0.3708
  852MOL0     O12379   7.643   2.002  10.467  0.3439 -0.3275 -0.2900
  852MOL0     C12380   7.895   2.039  10.361 -0.5467 -0.2309  0.0111
  852MOL0     C12381   8.022   2.053  10.302  0.7239 -0.0170  0.3024
  852MOL0     N12382   8.731   2.353  10.224  0.1920 -0.6975 -0.9070
  852MOL0     N12383   8.735   2.454  10.287 -0.3307  0.2022 -0.1936
  852MOL0     C12384   9.504   3.114  10.924 -0.6035 -0.1135  1.0244
  852MOL0     C12385   9.638   3.147  10.947  0.1717 -0.4619 -0.2663
  852MOL0     C12386  10.036   3.072  11.097  0.5017  1.2480 -0.0170
  852MOL0     C12387  10.116   3.125  10.990 -0.3623  0.2831 -1.3005
  852MOL0     C12388  10.249   3.153  11.013 -0.2871 -0.0851 -0.5900
  852MOL0     C12389  10.305   3.141  11.142 -0.9591 -0.4856 -0.3606
  852MOL0     O12390  10.432   3.165  11.178  0.1117  0.1308  0.2650
  852MOL0     C12391  10.481   3.295  11.144  0.2384 -0.6991  0.4903
  852MOL0     C12392  10.599   3.280  11.049  0.0500 -0.4196  0.1032
  852MOL0     C12393  10.729   3.231  11.111  0.4570  0.6096 -0.1826
  852MOL0     C12394  10.847   3.285  11.026  1.4854 -0.0829  0.2366
  852MOL0     C12395  10.972   3.232  11.062 -0.0693  0.0035  0.1499
  852MOL0     C12396  11.073   3.171  11.098 -0.6293  0.7700 -0.0333
  852MOL0     C12397  10.223   3.094  11.247  0.5557  0.3962  0.7287
  852MOL0     C12398  10.087   3.053  11.226 -0.6750  0.3855  0.2463
  852MOL0     H12399   9.770   2.891  10.761 -0.6425 -0.1527 -0.6068
  852MOL0     H12400   9.526   2.850  10.715 -2.1263  0.7098  0.2745
  852MOL0     H12401   9.340   2.778  10.814 -1.4612 -0.8147  0.6087
  852MOL0     H12402   9.274   2.865  10.668 -1.4471 -0.0570  0.3678
  852MOL0     H12403   9.084   2.940  10.813 -1.4002 -0.8254  0.7836
  852MOL0     H12404   9.150   2.832  10.939  2.4178 -1.4406 -0.1769
  852MOL0     H12405   9.125   2.636  10.768  0.4464  0.0091  0.1838
  852MOL0     H12406   9.041   2.751  10.676 -2.2284  0.0556  0.8487
  852MOL0     H12407   8.985   2.649  10.956  1.8941  1.9088 -0.1038
  852MOL0     H12408   8.882   2.769  10.885  2.8589  2.6028  1.7074
  852MOL0     H12409   8.777   2.561  10.868  1.7409 -2.3829  1.2299
  852MOL0     H12410   8.900   2.473  10.804  0.2892 -0.5883  1.2758
  852MOL0     H12411   8.873   2.601  10.583 -1.2733  1.8709 -1.7034
  852MOL0     H12412   8.758   2.716  10.670 -1.6832 -0.6834 -2.3144
  852MOL0     H12413   8.712   2.417  10.607 -1.8646 -0.1614 -2.0503
  852MOL0     H12414   8.603   2.520  10.698 -0.8680 -1.7069 -0.5165
  852MOL0     H12415   8.649   2.650  10.437  0.5871 -0.6000  0.0805
  852MOL0     H12416   8.503   2.573  10.495 -0.2302 -0.6637 -0.8358
  852MOL0     H12417   8.522   2.279  10.462 -1.3886 -0.9760 -2.0704
  852MOL0     H12418   8.602   2.070  10.346  1.4808 -0.1197  1.4258
  852MOL0     H12419   8.703   2.074  10.213  0.7973  3.5567 -0.3183
  852MOL0     H12420   8.531   2.078  10.062  2.2925  2.3473 -0.4458
  852MOL0     H12421   8.455   2.226  10.148 -0.4922 -0.2463  1.1645
  852MOL0     H12422   8.412   1.940  10.260 -2.7603 -0.3617  1.5055
  852MOL0     H12423   8.339   2.091  10.305  0.0226  1.0071 -1.0095
  852MOL0     H12424   8.222   1.901  10.153  0.7691 -0.4478 -0.6684
  852MOL0     H12425   8.312   1.996  10.028  1.9174 -2.3928  0.1153
  852MOL0     H12426   7.916   2.064   9.976 -1.5852  1.8621  0.4299
  852MOL0     H12427   7.710   2.024  10.076 -0.3606  0.4503  0.5717
  852MOL0     H12428   7.487   1.808  10.468 -0.6792  0.3891  1.2905
  852MOL0     H12429   7.265   1.737  10.537 -1.6327  1.2135  0.4425
  852MOL0     H12430   6.914   1.845  10.553  0.7665  1.2390 -0.8072
  852MOL0     H12431   7.084   1.839  10.599  0.8266  0.2472 -0.2511
  852MOL0     H12432   7.029   1.629  10.685  0.1602 -3.1115 -1.1324
  852MOL0     H12433   7.016   1.569  10.521 -0.9225  0.5536 -0.5028
  852MOL0     H12434   6.804   1.694  10.697  0.8795 -1.6879  1.0383
  852MOL0     H12435   6.828   1.525  10.673  2.6578  0.1051  1.2831
  852MOL0     H12436   6.734   1.719  10.455  1.9818  0.0092 -0.9732
  852MOL0     H12437   6.767   1.542  10.439 -0.5195 -0.7258  0.8105
  852MOL0     H12438   6.530   1.632  10.616 -2.0968 -3.8024  0.6821
  852MOL0     H12439   6.617   1.484  10.619  0.4287  0.2678  0.5928
  852MOL0     H12440   6.571   1.446  10.390 -2.1135 -1.1915  0.1224
  852MOL0     H12441   6.493   1.595  10.355 -2.1116 -2.7877 -3.3557
  852MOL0     H12442   6.333   1.392  10.399 -0.2093 -0.3689  0.6062
  852MOL0     H12443   6.380   1.400  10.570 -1.2057  0.2495  0.9809
  852MOL0     H12444   6.258   1.617  10.399 -0.1896  0.3831  0.5103
  852MOL0     H12445   6.320   1.659  10.556 -2.3997  0.3479  0.7949
  852MOL0     H12446   7.085   1.952  10.205  1.1379  1.5579 -2.2213
  852MOL0     H12447   7.315   2.036  10.135  3.0170 -0.1198  0.5317
  852MOL0     H12448   7.894   2.046  10.469  1.9031  1.7278  0.0067
  852MOL0     H12449   8.110   2.051  10.366  2.1028  2.1935 -1.3365
  852MOL0     H12450   9.430   3.173  10.977  2.3258  0.8184  4.4701
  852MOL0     H12451   9.657   3.228  11.016  0.1597 -1.8563  1.4525
  852MOL0     H12452  10.081   3.138  10.888  1.9739 -1.5935 -2.4471
  852MOL0     H12453  10.322   3.167  10.934 -0.9716 -1.7708 -1.5664
  852MOL0     H12454  10.509   3.353  11.232 -0.8026 -0.3963  0.6357
  852MOL0     H12455  10.404   3.352  11.092  3.0430  0.6862 -2.5112
  852MOL0     H12456  10.575   3.208  10.970 -0.8052  1.9586 -1.9626
  852MOL0     H12457  10.613   3.384  11.015 -1.0492  0.1881  1.4176
  852MOL0     H12458  10.723   3.122  11.105  0.1957  0.6306 -0.3411
  852MOL0     H12459  10.736   3.264  11.215  2.2373  1.3688 -0.5050
  852MOL0     H12460  10.834   3.256  10.921  0.3663  0.8411  0.1050
  852MOL0     H12461  10.858   3.392  11.044 -0.3485  0.1801 -0.0489
  852MOL0     H12462  11.148   3.099  11.124 -0.8124 -0.3610 -2.3218
  852MOL0     H12463  10.279   3.079  11.339  0.9311 -1.7906  0.2076
  852MOL0     H12464  10.031   3.009  11.307  1.5064 -2.9077  0.1294
  853MOL0     O12465   7.556  10.300   0.214  0.0900 -0.0767  0.0145
  853MOL0     C12466   7.505  10.412   0.213 -0.1303  1.0320  0.3875
  853MOL0     O12467   7.380  10.440   0.215  0.6652 -0.0648  0.4766
  853MOL0     C12468   7.290  10.338   0.202 -1.0830  0.2051 -0.1810
  853MOL0     C12469   7.175  10.348   0.288  0.3055 -0.5690  0.0289
  853MOL0     C12470   7.066  10.266   0.270  0.3967  0.3868  0.1654
  853MOL0     C12471   7.079  10.158   0.183  0.9359  1.1257 -0.3664
  853MOL0     O12472   6.978  10.063   0.161 -1.0320  0.1815  0.1594
  853MOL0     C12473   6.846  10.085   0.204 -0.9210  0.1411  0.1416
  853MOL0     C12474   6.832  10.060   0.356 -0.4380  0.5975 -0.4752
  853MOL0     C12475   6.693  10.057   0.401  0.2047 -0.1264  0.1057
  853MOL0     C12476   6.646  10.203   0.402 -0.0159  0.7349 -0.0549
  853MOL0     C12477   6.501  10.194   0.452 -0.4036 -0.6722 -1.1386
  853MOL0     C12478   6.432  10.325   0.447  0.1742  0.3242  0.1583
  853MOL0     C12479   6.296  10.315   0.497 -0.0888  0.5524 -0.8488
  853MOL0     C12480   6.225  10.451   0.480 -0.5407  0.4489 -0.5254
  853MOL0     N12481   6.094  10.452   0.544  0.1630 -0.2992  0.6170
  853MOL0     C12482   6.065  10.516   0.653 -0.0752 -0.0979  0.4546
  853MOL0     C12483   5.937  10.488   0.674  0.6395  0.4249  0.3315
  853MOL0     C12484   5.847  10.536   0.786 -0.5999  0.6677  0.4382
  853MOL0     C12485   5.814  10.681   0.769 -0.5801 -0.3140  0.1211
  853MOL0     C12486   5.680  10.713   0.837  0.8227  0.1013  0.6226
  853MOL0     C12487   5.642  10.866   0.813  0.1723  0.2464 -0.0717
  853MOL0     O12488   5.537  10.907   0.900  0.1579  0.3014  0.5465
  853MOL0     C12489   5.401  10.884   0.874 -0.3146  0.2347 -0.4203
  853MOL0     C12490   5.353  10.818   0.752  0.4473  0.2631  0.5402
  853MOL0     C12491   5.222  10.808   0.730 -0.0066  0.5166 -0.2417
  853MOL0     C12492   5.127  10.869   0.814 -1.0283  0.2744 -0.5467
  853MOL0     C12493   4.985  10.865   0.777 -0.5901  0.5449 -0.1943
  853MOL0     O12494   4.909  10.950   0.852  0.3622 -0.5160 -0.5259
  853MOL0     C12495   4.782  10.976   0.811 -0.8213  0.2499  0.8678
  853MOL0     C12496   4.676  10.976   0.901  0.2543 -0.0434  0.0610
  853MOL0     C12497   4.543  10.994   0.858  0.2915 -0.6765  0.1134
  853MOL0     C12498   4.524  11.029   0.724  0.5354  0.9513  0.8764
  853MOL0     O12499   4.399  11.044   0.679 -0.5467 -0.6239 -0.1624
  853MOL0     C12500   4.317  11.138   0.752  0.3972 -0.2561 -0.1153
  853MOL0     C12501   4.185  11.070   0.801 -0.3228 -0.4661  0.0893
  853MOL0     C12502   4.079  11.176   0.844  0.0254  0.6599 -0.0511
  853MOL0     C12503   3.938  11.112   0.864  0.7782 -0.0452 -0.2643
  853MOL0     C12504   3.834  11.229   0.887 -0.5788  1.4081  0.5190
  853MOL0     C12505   3.830  11.328   0.777  0.0355  0.3882  0.6741
  853MOL0     C12506   3.697  11.412   0.781  0.4613  0.0597  0.0978
  853MOL0     C12507   3.598  11.354   0.680 -0.0913  0.1209 -0.3057
  853MOL0    Cl12508   3.434  11.423   0.716 -0.3825 -0.1356 -0.6130
  853MOL0     C12509   4.625  11.030   0.630  0.2258  0.8434 -0.8405
  853MOL0     C12510   4.758  10.998   0.671 -0.8400  1.5112 -0.4712
  853MOL0     O12511   4.944  10.781   0.692 -0.1276 -0.0770  0.4549
  853MOL0     C12512   5.169  10.953   0.928  0.0435  0.4476  0.5368
  853MOL0     C12513   5.305  10.949   0.962 -0.2232 -0.0599  0.2787
  853MOL0     N12514   5.891  10.411   0.574  0.2987 -0.0402 -0.0171
  853MOL0     N12515   5.981  10.387   0.492  0.1316 -0.5420  0.5916
  853MOL0     C12516   7.193  10.141   0.109 -0.0429 -0.0503 -0.9482
  853MOL0     C12517   7.297  10.235   0.109  0.2844  0.4015 -0.4892
  853MOL0     C12518   7.594  10.522   0.215  0.1732  0.4896  0.6650
  853MOL0     C12519   7.724  10.493   0.269 -0.2831  0.0870  0.5134
  853MOL0     C12520   7.807  10.602   0.277  0.3124 -0.2880  0.2275
  853MOL0     C12521   7.766  10.735   0.255 -0.5179 -0.6004 -0.1458
  853MOL0     O12522   7.851  10.836   0.289  0.8384 -0.3845 -0.7526
  853MOL0     C12523   7.807  10.964   0.340  0.3541  0.6037 -0.3179
  853MOL0     C12524   7.911  11.075   0.358  0.3150  0.6919 -0.1745
  853MOL0     C12525   8.027  11.024   0.444  0.1818 -0.4904 -0.0907
  853MOL0     C12526   8.136  11.133   0.449 -0.5602 -0.0117 -0.2974
  853MOL0     C12527   8.210  11.150   0.322 -0.0846  0.4070 -1.2222
  853MOL0     C12528   8.233  11.135   0.204 -0.3737  0.1259  1.0765
  853MOL0     C12529   7.646  10.756   0.192 -0.1159 -0.0264  1.0226
  853MOL0     C12530   7.559  10.649   0.175  0.7456  0.1134 -0.3756
  853MOL0     H12531   7.172  10.429   0.360 -1.2230  2.4090 -3.1269
  853MOL0     H12532   6.972  10.290   0.318 -1.9740 -0.7975 -3.4945
  853MOL0     H12533   6.778  10.014   0.156 -2.4236  0.8952  1.0760
  853MOL0     H12534   6.813  10.186   0.178 -0.2060  0.4045  0.2372
  853MOL0     H12535   6.897  10.124   0.416 -1.3834 -0.6080  1.9378
  853MOL0     H12536   6.873   9.959   0.369  0.1039  1.0222  1.4216
  853MOL0     H12537   6.688  10.022   0.504  1.7425 -0.2006  0.1752
  853MOL0     H12538   6.621   9.995   0.347 -0.1465 -2.4155  2.9420
  853MOL0     H12539   6.712  10.258   0.471  0.6130 -1.4413  1.1737
  853MOL0     H12540   6.648  10.249   0.303 -6.4642 -1.0343 -1.4804
  853MOL0     H12541   6.509  10.156   0.554  0.7229  4.0946  0.7799
  853MOL0     H12542   6.444  10.119   0.395 -0.7514 -0.9723 -0.4098
  853MOL0     H12543   6.422  10.363   0.345 -0.7289 -0.8871 -0.2379
  853MOL0     H12544   6.478  10.397   0.515 -0.8471  2.0496 -0.8982
  853MOL0     H12545   6.241  10.228   0.459 -0.5695 -0.5859  2.1754
  853MOL0     H12546   6.293  10.302   0.606 -1.1837  1.9926 -0.6681
  853MOL0     H12547   6.209  10.485   0.377 -0.6660  0.4991 -0.4900
  853MOL0     H12548   6.287  10.529   0.526  0.9056 -1.1455  0.3176
  853MOL0     H12549   6.124  10.588   0.710  0.5789 -0.7453  0.6195
  853MOL0     H12550   5.906  10.525   0.877 -0.2893  2.7078  0.5283
  853MOL0     H12551   5.753  10.479   0.792 -0.0157 -0.4746 -0.6683
  853MOL0     H12552   5.810  10.709   0.663  2.4534  4.4593  0.9534
  853MOL0     H12553   5.901  10.740   0.798 -0.1223 -0.9234  0.0138
  853MOL0     H12554   5.593  10.655   0.804 -1.0066  1.2486  3.1001
  853MOL0     H12555   5.692  10.687   0.942  2.3540 -1.7700  0.0418
  853MOL0     H12556   5.621  10.875   0.706  3.4923  1.6852 -0.7264
  853MOL0     H12557   5.725  10.931   0.844  0.0939  0.3004  0.0233
  853MOL0     H12558   5.426  10.784   0.680  2.0784 -0.7187  2.5271
  853MOL0     H12559   5.172  10.743   0.660 -2.5375  2.0964 -0.0164
  853MOL0     H12560   4.709  10.960   1.003  0.6745  1.1204  0.1238
  853MOL0     H12561   4.452  10.973   0.913  1.1203 -1.7064  1.1278
  853MOL0     H12562   4.301  11.228   0.693  1.5912  1.5502  2.1497
  853MOL0     H12563   4.368  11.181   0.839 -0.7071  2.0919 -0.5519
  853MOL0     H12564   4.213  11.004   0.883  2.6516  2.5807  1.7793
  853MOL0     H12565   4.153  11.006   0.719  1.2496  0.9210 -1.7037
  853MOL0     H12566   4.077  11.250   0.762  1.6438  0.0731 -0.6527
  853MOL0     H12567   4.106  11.228   0.936  0.0834 -2.2280  1.6876
  853MOL0     H12568   3.914  11.047   0.780  1.2379  1.0013 -1.2344
  853MOL0     H12569   3.930  11.057   0.958 -0.3632 -0.8985 -0.8522
  853MOL0     H12570   3.858  11.279   0.981 -1.5404  0.2467  1.4065
  853MOL0     H12571   3.739  11.178   0.900  0.9503 -2.7455 -2.3858
  853MOL0     H12572   3.834  11.271   0.684  2.1698  0.0785  0.9081
  853MOL0     H12573   3.908  11.403   0.795 -1.3985  1.8177  1.2030
  853MOL0     H12574   3.642  11.400   0.875  0.9176 -0.7094  0.2778
  853MOL0     H12575   3.726  11.514   0.756 -2.2152  0.1886 -3.1099
  853MOL0     H12576   3.597  11.246   0.699 -2.2078  0.5309  2.5981
  853MOL0     H12577   3.633  11.393   0.585 -0.3545 -0.6261 -0.7229
  853MOL0     H12578   4.583  11.047   0.531 -1.4624  0.4077 -0.2283
  853MOL0     H12579   4.842  10.993   0.603  0.1748  1.7285  0.7292
  853MOL0     H12580   5.108  11.003   1.002  0.2444  0.6611  0.5575
  853MOL0     H12581   5.343  11.014   1.040 -3.3314  1.3110  0.7806
  853MOL0     H12582   7.211  10.051   0.051  1.9546 -0.2171 -0.1640
  853MOL0     H12583   7.388  10.221   0.053 -0.6651  0.5729 -2.1261
  853MOL0     H12584   7.754  10.398   0.310 -4.1182 -0.8765  1.4984
  853MOL0     H12585   7.907  10.572   0.309  0.2757 -1.7352 -0.8742
  853MOL0     H12586   7.774  10.944   0.443  1.0405 -1.7800 -0.5075
  853MOL0     H12587   7.712  11.001   0.300 -2.5290 -4.2291  1.1077
  853MOL0     H12588   7.947  11.093   0.257 -3.6055 -4.4791 -2.9976
  853MOL0     H12589   7.854  11.161   0.395  3.3062  3.0858 -0.7189
  853MOL0     H12590   8.075  10.932   0.410  0.8892 -0.5394  0.9835
  853MOL0     H12591   7.983  11.005   0.543 -0.8521 -0.4831 -0.5322
  853MOL0     H12592   8.092  11.229   0.477 -0.0785  0.5899 -1.5308
  853MOL0     H12593   8.214  11.108   0.521  0.9757 -0.5325 -2.0581
  853MOL0     H12594   8.261  11.126   0.102 -0.3903  2.9822  0.7377
  853MOL0     H12595   7.615  10.859   0.183  2.9535  1.0051  1.0976
  853MOL0     H12596   7.454  10.671   0.157 -1.5330 -4.3413  4.6499
  854MOL0     O12597   2.153   2.803   0.627 -0.3485  0.3479 -0.3177
  854MOL0     C12598   2.202   2.784   0.736 -0.1967  0.5301  0.0460
  854MOL0     O12599   2.132   2.750   0.848  0.2335 -0.4918 -0.1154
  854MOL0     C12600   1.999   2.757   0.842  0.2034  0.1327  0.0372
  854MOL0     C12601   1.927   2.654   0.789 -0.0449 -0.7900 -0.2571
  854MOL0     C12602   1.788   2.662   0.784 -0.0117  0.7154  0.3659
  854MOL0     C12603   1.716   2.761   0.849 -0.5569 -0.2728  0.9108
  854MOL0     O12604   1.584   2.757   0.814 -0.1663 -0.6649  0.1918
  854MOL0     C12605   1.499   2.864   0.874 -0.2564  0.6250  0.1899
  854MOL0     C12606   1.360   2.867   0.806 -0.2731 -0.4282  0.0552
  854MOL0     C12607   1.365   2.911   0.651 -0.4984  0.1728  0.6286
  854MOL0     C12608   1.394   2.789   0.559  0.0791 -0.4488  0.0048
  854MOL0     C12609   1.411   2.841   0.417 -0.2812  0.8798  0.1370
  854MOL0     C12610   1.439   2.724   0.311 -0.1311 -0.3339 -0.3452
  854MOL0     C12611   1.346   2.599   0.311  0.9051  0.0787 -0.4337
  854MOL0     C12612   1.186   2.626   0.308 -0.7087 -0.1579  0.3897
  854MOL0     N12613   1.115   2.502   0.289  0.9516 -0.0643  0.1822
  854MOL0     C12614   1.003   2.481   0.222  0.1179 -0.1358  0.6137
  854MOL0     C12615   0.970   2.348   0.231 -0.0478  0.2819 -0.7016
  854MOL0     C12616   0.840   2.282   0.168  0.0182 -0.7181  0.2494
  854MOL0     C12617   0.733   2.305   0.278  0.1198  0.0625 -0.1038
  854MOL0     C12618   0.614   2.236   0.231  0.4501 -0.3286  0.1732
  854MOL0     C12619   0.482   2.253   0.308  0.3051  0.0249 -0.1353
  854MOL0     O12620   0.380   2.172   0.266 -1.4811  0.0329 -0.7891
  854MOL0     C12621   0.262   2.164   0.334  0.2802 -0.4148  1.1825
  854MOL0     C12622   0.212   2.256   0.433 -0.1118  0.7006  0.7518
  854MOL0     C12623   0.094   2.244   0.498  0.4274  0.6777  0.3575
  854MOL0     C12624   0.010   2.128   0.479 -0.1347 -0.3256 -0.1820
  854MOL0     C12625  -0.125   2.118   0.536 -0.1320  0.2693  0.0783
  854MOL0     O12626  -0.212   2.034   0.488 -0.1063  0.1089 -0.1533
  854MOL0     C12627  -0.338   2.007   0.543 -0.1095  0.1791 -0.0989
  854MOL0     C12628  -0.450   1.984   0.463 -0.2412 -0.4456  0.4013
  854MOL0     C12629  -0.574   1.962   0.518  0.2067  0.4306  0.6516
  854MOL0     C12630  -0.594   1.966   0.653  0.0252 -0.2721  0.0550
  854MOL0     O12631  -0.721   1.976   0.689  0.3640  0.5909 -0.0596
  854MOL0     C12632  -0.750   1.986   0.828  0.5388 -1.4450  0.1633
  854MOL0     C12633  -0.897   2.000   0.850 -1.0466  0.8306  0.8090
  854MOL0     C12634  -0.931   1.985   0.998  0.1057 -1.1655 -0.6862
  854MOL0     C12635  -1.080   2.007   1.036 -0.5162  0.5663  0.3812
  854MOL0     C12636  -1.119   2.148   1.000 -0.3550  0.0708  0.4325
  854MOL0     C12637  -1.241   2.210   1.065  0.5920  0.3679  0.0220
  854MOL0     C12638  -1.378   2.146   1.043 -0.2807  0.7881  0.6148
  854MOL0     C12639  -1.498   2.229   1.079  0.5492  0.3982 -0.4346
  854MOL0    Cl12640  -1.488   2.288   1.248 -0.5262  0.0438 -0.1429
  854MOL0     C12641  -0.480   1.978   0.737 -0.8150  0.2535  0.2109
  854MOL0     C12642  -0.352   1.999   0.681 -0.5284  0.1600 -0.0900
  854MOL0     O12643  -0.148   2.212   0.609 -0.0133 -0.0150 -0.3002
  854MOL0     C12644   0.055   2.031   0.386 -0.4642  0.1007  0.1363
  854MOL0     C12645   0.180   2.045   0.321 -0.5925 -0.1161 -0.0112
  854MOL0     N12646   1.063   2.287   0.317 -0.4383 -0.3817 -0.8471
  854MOL0     N12647   1.149   2.380   0.337  0.4246  0.2030  0.0958
  854MOL0     C12648   1.786   2.865   0.922 -0.2940 -0.5773  0.8809
  854MOL0     C12649   1.926   2.858   0.910 -0.6802 -0.1792 -0.6953
  854MOL0     C12650   2.344   2.814   0.729  0.3728  0.1726 -0.6970
  854MOL0     C12651   2.402   2.893   0.629  0.4747 -0.5934 -0.1776
  854MOL0     C12652   2.534   2.937   0.624  0.0095 -0.2609  0.2708
  854MOL0     C12653   2.618   2.886   0.714  0.0910 -0.0469  0.2198
  854MOL0     O12654   2.750   2.928   0.699  0.1480 -0.2360 -0.3516
  854MOL0     C12655   2.831   2.898   0.814  0.2494  0.5766  0.3128
  854MOL0     C12656   2.966   2.961   0.800  0.2927 -0.8810 -0.1669
  854MOL0     C12657   3.052   2.946   0.932  0.0940 -0.1899 -0.7384
  854MOL0     C12658   3.210   2.950   0.929 -0.0796 -0.1144  0.0366
  854MOL0     C12659   3.244   3.085   0.869 -0.5513  0.1359 -0.6613
  854MOL0     C12660   3.279   3.191   0.814 -0.0140  0.2661  0.0561
  854MOL0     C12661   2.572   2.800   0.811  0.0311  0.0106 -0.2671
  854MOL0     C12662   2.435   2.768   0.817 -0.3279  0.0584 -0.0996
  854MOL0     H12663   1.979   2.565   0.757  1.0335 -1.0277  1.9763
  854MOL0     H12664   1.737   2.587   0.725 -1.1687  0.9370  1.0542
  854MOL0     H12665   1.539   2.966   0.880  1.0946  0.0460  1.6211
  854MOL0     H12666   1.476   2.826   0.974 -1.5475  0.5848 -0.0999
  854MOL0     H12667   1.293   2.938   0.855  0.3974  1.2485 -1.3361
  854MOL0     H12668   1.331   2.762   0.808  0.5349 -0.7163 -1.4703
  854MOL0     H12669   1.448   2.981   0.647  1.1116 -1.5784  1.8498
  854MOL0     H12670   1.272   2.960   0.621 -0.4982  1.0755  2.0374
  854MOL0     H12671   1.474   2.722   0.594 -0.7966 -2.5547 -1.8064
  854MOL0     H12672   1.298   2.737   0.556 -0.2679  0.1697  0.2178
  854MOL0     H12673   1.488   2.916   0.399 -1.6549  1.9800 -1.4204
  854MOL0     H12674   1.319   2.890   0.385  2.0210  5.2225 -0.5657
  854MOL0     H12675   1.539   2.685   0.329  0.0724  0.2334 -0.2193
  854MOL0     H12676   1.442   2.763   0.209  0.7273 -0.4018 -0.3463
  854MOL0     H12677   1.379   2.544   0.222 -2.0279 -0.0070 -1.5932
  854MOL0     H12678   1.375   2.545   0.401  2.3117  2.4081  0.6021
  854MOL0     H12679   1.166   2.681   0.215  2.6338 -0.3561 -0.5884
  854MOL0     H12680   1.156   2.684   0.396 -1.2680  2.4584 -1.3899
  854MOL0     H12681   0.957   2.568   0.176  1.5060  1.4953  2.1593
  854MOL0     H12682   0.851   2.174   0.158  1.4961 -0.4148 -2.1913
  854MOL0     H12683   0.797   2.328   0.078 -0.4043 -2.9918 -0.7884
  854MOL0     H12684   0.707   2.411   0.286  0.3794  0.0497  1.1011
  854MOL0     H12685   0.764   2.266   0.376  1.6089  0.1833 -0.4988
  854MOL0     H12686   0.598   2.279   0.132 -1.4419 -0.9015  0.1876
  854MOL0     H12687   0.627   2.128   0.216 -0.4997 -0.4046 -0.1923
  854MOL0     H12688   0.440   2.352   0.293 -1.8438 -0.6169  1.1580
  854MOL0     H12689   0.504   2.237   0.414 -0.5693 -2.1488 -0.2262
  854MOL0     H12690   0.262   2.349   0.460  2.3612  1.8580 -6.0039
  854MOL0     H12691   0.057   2.313   0.573  2.4073  1.8661  0.3052
  854MOL0     H12692  -0.440   1.986   0.355 -2.4830 -0.9034  0.1298
  854MOL0     H12693  -0.665   1.926   0.472  0.0487 -3.1493  3.2480
  854MOL0     H12694  -0.689   2.069   0.865  0.9287 -1.7831  0.2952
  854MOL0     H12695  -0.722   1.897   0.885 -2.4636 -0.3272  3.7627
  854MOL0     H12696  -0.952   1.921   0.798 -0.2775  0.3407  0.7259
  854MOL0     H12697  -0.929   2.097   0.812  0.4954  0.5182 -1.5220
  854MOL0     H12698  -0.876   2.052   1.064 -0.6032 -1.4228  0.1916
  854MOL0     H12699  -0.914   1.880   1.027  4.7743 -0.6690 -0.9372
  854MOL0     H12700  -1.140   1.934   0.981 -0.9480 -0.0855  1.6757
  854MOL0     H12701  -1.100   1.996   1.143  2.1021  2.0851  1.1339
  854MOL0     H12702  -1.131   2.148   0.891  1.8650  1.8347  0.1165
  854MOL0     H12703  -1.036   2.214   1.028  0.0117 -0.1182 -0.1936
  854MOL0     H12704  -1.250   2.309   1.020  5.8838  1.7279  1.1826
  854MOL0     H12705  -1.220   2.222   1.172  3.9394 -0.3216 -0.4285
  854MOL0     H12706  -1.389   2.119   0.937  1.9675  1.9251  0.0096
  854MOL0     H12707  -1.388   2.051   1.097 -1.5203 -0.4617 -1.6544
  854MOL0     H12708  -1.589   2.170   1.071  0.2950  0.3396  2.1188
  854MOL0     H12709  -1.501   2.315   1.012 -0.9811 -0.2111 -1.2030
  854MOL0     H12710  -0.489   1.991   0.844 -1.5591  1.0961  0.0605
  854MOL0     H12711  -0.264   2.003   0.745  0.0909  0.0807 -0.9097
  854MOL0     H12712  -0.002   1.941   0.369  0.4662 -0.4678 -0.0189
  854MOL0     H12713   0.212   1.968   0.253  2.2877  0.5674  0.4565
  854MOL0     H12714   1.740   2.950   0.970 -0.3132 -0.9517  1.5437
  854MOL0     H12715   1.981   2.945   0.945 -0.3164 -0.5917 -0.2341
  854MOL0     H12716   2.344   2.949   0.555  1.1841  1.6356  0.8716
  854MOL0     H12717   2.579   3.011   0.558  1.8945 -1.8036 -0.2764
  854MOL0     H12718   2.833   2.788   0.818  0.2155  0.6128  2.0278
  854MOL0     H12719   2.784   2.946   0.901  1.2911  1.4090  0.4255
  854MOL0     H12720   3.016   2.909   0.718  2.4702  0.2884  0.3392
  854MOL0     H12721   2.949   3.069   0.791  0.7885 -0.8209 -0.4105
  854MOL0     H12722   3.024   2.851   0.978 -1.1571  0.5244  0.0493
  854MOL0     H12723   3.018   3.015   1.010 -0.2645 -2.8545  1.6273
  854MOL0     H12724   3.252   2.936   1.029  0.2095 -2.4949 -0.3618
  854MOL0     H12725   3.262   2.876   0.868  0.4022 -1.5393  2.0710
  854MOL0     H12726   3.290   3.290   0.773 -1.1314  0.9757  1.4041
  854MOL0     H12727   2.639   2.757   0.885  1.2778 -1.4188 -2.1339
  854MOL0     H12728   2.395   2.705   0.896 -0.6594 -0.2903 -0.5399
  855MOL0     O12729   8.514   9.706   4.307 -0.4977  0.0275 -0.4126
  855MOL0     C12730   8.535   9.590   4.287 -0.0825  0.2958  0.7772
  855MOL0     O12731   8.448   9.483   4.290  0.0275 -0.1231  0.0602
  855MOL0     C12732   8.312   9.499   4.309 -0.4412 -1.0611 -0.8750
  855MOL0     C12733   8.230   9.408   4.246 -0.2650 -0.4287 -0.3011
  855MOL0     C12734   8.091   9.416   4.264 -0.0034  0.4722  0.9513
  855MOL0     C12735   8.041   9.493   4.363  0.0327  0.2100 -0.1584
  855MOL0     O12736   7.908   9.486   4.400 -0.7176 -0.1113  0.3167
  855MOL0     C12737   7.899   9.462   4.544  0.4867  0.9111  0.4045
  855MOL0     C12738   7.769   9.388   4.584  0.7374 -0.6860 -0.1596
  855MOL0     C12739   7.736   9.360   4.732  0.8797  0.0054  0.4454
  855MOL0     C12740   7.577   9.333   4.742  1.1522 -0.0049 -0.3033
  855MOL0     C12741   7.532   9.294   4.884 -0.4317 -0.1443 -0.3557
  855MOL0     C12742   7.552   9.411   4.982  0.2100  0.0366  0.1122
  855MOL0     C12743   7.477   9.389   5.118  0.0922  0.0464  0.4908
  855MOL0     C12744   7.345   9.453   5.104  1.0145  0.3634  0.1062
  855MOL0     N12745   7.254   9.398   5.205 -0.3833 -0.7232  0.0107
  855MOL0     C12746   7.114   9.416   5.198 -0.2028 -0.2943 -0.4680
  855MOL0     C12747   7.057   9.322   5.275  0.8431  1.6818  0.0082
  855MOL0     C12748   6.909   9.322   5.304  0.5740 -0.0666 -0.3554
  855MOL0     C12749   6.892   9.381   5.452  0.0783 -0.1172 -0.3228
  855MOL0     C12750   6.747   9.368   5.518 -1.2687 -0.9008 -0.5327
  855MOL0     C12751   6.648   9.485   5.494 -0.5937  0.5522 -0.5843
  855MOL0     O12752   6.604   9.485   5.359 -0.2257 -0.1508 -0.3601
  855MOL0     C12753   6.476   9.533   5.329 -0.4796 -0.3390 -0.5280
  855MOL0     C12754   6.378   9.587   5.414 -0.7418  0.7592 -0.5910
  855MOL0     C12755   6.246   9.610   5.361  0.7203 -1.3028  0.5880
  855MOL0     C12756   6.216   9.585   5.228  0.4476  0.0289 -0.4647
  855MOL0     C12757   6.073   9.602   5.184 -0.2586 -0.1809 -0.5978
  855MOL0     O12758   6.002   9.690   5.257  0.1426  0.4299  0.7306
  855MOL0     C12759   5.870   9.709   5.221  0.4909 -0.6336 -0.1812
  855MOL0     C12760   5.826   9.839   5.193  0.0987 -0.4775 -1.6406
  855MOL0     C12761   5.693   9.872   5.165  0.2575  0.4669 -0.1917
  855MOL0     C12762   5.597   9.777   5.157 -0.5823  0.2798 -0.1349
  855MOL0     O12763   5.468   9.812   5.144 -0.5763  0.1936 -0.3043
  855MOL0     C12764   5.389   9.740   5.050  0.6739 -0.1286  0.1502
  855MOL0     C12765   5.273   9.674   5.125  0.1261 -0.5485  0.1669
  855MOL0     C12766   5.146   9.678   5.044 -0.0085 -0.1007 -0.1026
  855MOL0     C12767   5.018   9.628   5.118  0.4873 -0.1874  1.1501
  855MOL0     C12768   4.887   9.665   5.054 -0.4013 -0.0970 -0.8944
  855MOL0     C12769   4.763   9.634   5.135 -0.0404 -0.1018  0.7222
  855MOL0     C12770   4.737   9.490   5.130  0.0202  0.0437 -0.1715
  855MOL0     C12771   4.599   9.435   5.171  0.7663 -1.0116 -0.1165
  855MOL0    Cl12772   4.481   9.524   5.058  0.7262  0.0541  0.2703
  855MOL0     C12773   5.635   9.647   5.193  0.4029 -0.7749  0.4435
  855MOL0     C12774   5.770   9.612   5.216 -0.2997  1.0110  0.2194
  855MOL0     O12775   6.039   9.537   5.090 -0.1095 -0.0232 -0.1237
  855MOL0     C12776   6.316   9.525   5.148  0.2347  0.8904  0.0214
  855MOL0     C12777   6.452   9.503   5.198  0.1921 -0.3063 -0.6106
  855MOL0     N12778   7.159   9.243   5.321  0.3730  0.5286  0.3533
  855MOL0     N12779   7.275   9.296   5.285 -0.4350  0.2046 -0.0580
  855MOL0     C12780   8.127   9.592   4.423  0.2480 -0.1417  0.4051
  855MOL0     C12781   8.262   9.591   4.409  0.3748  0.4008  0.3857
  855MOL0     C12782   8.678   9.563   4.292 -0.1441 -0.6742  0.1688
  855MOL0     C12783   8.727   9.456   4.372  0.4305  0.5524  0.1012
  855MOL0     C12784   8.864   9.434   4.381 -0.5484 -0.5355  0.2699
  855MOL0     C12785   8.958   9.523   4.315  0.8334  0.8338  0.1714
  855MOL0     O12786   9.082   9.482   4.338 -0.4409 -0.1771  0.7399
  855MOL0     C12787   9.187   9.543   4.262  0.2077 -0.6627  0.2544
  855MOL0     C12788   9.305   9.451   4.251  0.1003 -0.2937 -0.7789
  855MOL0     C12789   9.357   9.419   4.391 -0.1577 -0.3889  0.0878
  855MOL0     C12790   9.504   9.354   4.389 -0.1389  0.7605 -0.3013
  855MOL0     C12791   9.540   9.341   4.529 -0.4060  0.0575  0.7000
  855MOL0     C12792   9.568   9.347   4.645  0.0648  0.1060 -0.2451
  855MOL0     C12793   8.906   9.622   4.230 -0.7261 -0.3166  0.1636
  855MOL0     C12794   8.771   9.650   4.224  0.2274 -0.1926 -0.0641
  855MOL0     H12795   8.273   9.331   4.183  4.3189  0.5364  1.3056
  855MOL0     H12796   8.029   9.343   4.213  1.9043 -1.4197  1.1661
  855MOL0     H12797   7.901   9.558   4.596  1.7388  0.6930  0.8186
  855MOL0     H12798   7.978   9.396   4.584 -0.4367 -0.2491  0.3733
  855MOL0     H12799   7.766   9.289   4.536  0.5002 -1.1947  0.8622
  855MOL0     H12800   7.698   9.462   4.548  1.2206  3.2434  5.6418
  855MOL0     H12801   7.760   9.442   4.800  1.0191 -0.2424  0.6963
  855MOL0     H12802   7.785   9.267   4.762  0.5097  0.1292  1.4626
  855MOL0     H12803   7.526   9.423   4.705  0.1881  1.0458  3.1774
  855MOL0     H12804   7.546   9.252   4.676  0.1999 -1.8385  2.2219
  855MOL0     H12805   7.587   9.212   4.932 -1.8613 -0.9564 -0.0495
  855MOL0     H12806   7.427   9.264   4.882 -0.0016 -2.2820  2.5862
  855MOL0     H12807   7.525   9.505   4.934 -1.6943  0.1967  1.3989
  855MOL0     H12808   7.658   9.407   5.011 -0.0270 -0.3337  0.9455
  855MOL0     H12809   7.469   9.282   5.141 -3.3771  0.8322  4.0254
  855MOL0     H12810   7.534   9.432   5.201  2.1239 -1.2983 -0.1181
  855MOL0     H12811   7.301   9.416   5.011 -1.6594 -2.1783  2.2051
  855MOL0     H12812   7.343   9.562   5.113 -1.6633  0.2574  2.0980
  855MOL0     H12813   7.054   9.489   5.144  1.5441  0.0590 -2.0201
  855MOL0     H12814   6.870   9.220   5.298  0.7812 -0.0690 -3.1441
  855MOL0     H12815   6.858   9.378   5.225 -1.3093 -1.2513 -0.0625
  855MOL0     H12816   6.915   9.487   5.441  1.2049 -0.3676 -0.5208
  855MOL0     H12817   6.967   9.335   5.516 -3.2565 -2.2077  2.4200
  855MOL0     H12818   6.705   9.271   5.493 -2.3373 -0.5175 -0.2802
  855MOL0     H12819   6.774   9.361   5.624  0.3440 -2.5929 -1.0052
  855MOL0     H12820   6.697   9.580   5.517  0.3952 -0.3961  1.4525
  855MOL0     H12821   6.560   9.469   5.557  0.3014 -1.1909  0.2745
  855MOL0     H12822   6.411   9.614   5.514  1.1004 -1.7408 -0.4368
  855MOL0     H12823   6.166   9.658   5.416 -0.3578 -1.9160 -0.3988
  855MOL0     H12824   5.906   9.912   5.195 -0.1082 -0.1170  2.3210
  855MOL0     H12825   5.664   9.971   5.129  1.5861  1.8511  2.2754
  855MOL0     H12826   5.450   9.661   5.006 -0.7059 -0.7716 -0.7012
  855MOL0     H12827   5.354   9.805   4.969 -1.5205 -2.2836 -0.7746
  855MOL0     H12828   5.263   9.734   5.217  0.2374 -0.0684 -0.1285
  855MOL0     H12829   5.300   9.572   5.152 -2.2189 -1.6013 -1.2228
  855MOL0     H12830   5.157   9.621   4.952 -0.1657 -1.9577  0.9713
  855MOL0     H12831   5.139   9.787   5.032  0.8482 -0.1134 -0.8011
  855MOL0     H12832   5.030   9.520   5.118 -0.4609 -0.3526 -1.3531
  855MOL0     H12833   5.011   9.675   5.217  0.7259  3.4851 -0.3999
  855MOL0     H12834   4.881   9.615   4.957 -1.7540  0.2611 -1.0235
  855MOL0     H12835   4.883   9.774   5.038  1.0906  0.0921 -0.1186
  855MOL0     H12836   4.679   9.683   5.086 -0.2378 -2.3718 -1.4389
  855MOL0     H12837   4.785   9.672   5.235  1.5798  1.0258 -0.0165
  855MOL0     H12838   4.755   9.454   5.028  1.2614 -1.0377  0.4045
  855MOL0     H12839   4.821   9.452   5.188 -0.2981  1.8003  1.5398
  855MOL0     H12840   4.581   9.459   5.276 -1.3360  2.2627 -1.0790
  855MOL0     H12841   4.594   9.328   5.150 -1.0262 -1.3428  1.7137
  855MOL0     H12842   5.549   9.581   5.198 -1.2660  1.1206 -1.3238
  855MOL0     H12843   5.797   9.509   5.238  1.6698  1.1078 -1.3584
  855MOL0     H12844   6.292   9.504   5.045 -1.8706  3.9091 -0.2473
  855MOL0     H12845   6.536   9.462   5.143  0.6908  0.1638 -0.2110
  855MOL0     H12846   8.074   9.669   4.478 -1.7374  3.5560 -5.6913
  855MOL0     H12847   8.317   9.673   4.455  0.3858  0.9934 -0.6552
  855MOL0     H12848   8.664   9.387   4.427 -1.2734  0.3732 -1.9538
  855MOL0     H12849   8.898   9.352   4.443  1.2463  1.2478  1.7657
  855MOL0     H12850   9.198   9.638   4.315 -1.2169 -1.7709  2.7232
  855MOL0     H12851   9.157   9.567   4.160  1.5145 -0.9118 -0.2129
  855MOL0     H12852   9.268   9.358   4.206  2.2129 -1.2920 -0.5762
  855MOL0     H12853   9.392   9.496   4.202  1.0883  0.0493  1.2127
  855MOL0     H12854   9.294   9.344   4.439 -0.8661 -2.1270 -3.2803
  855MOL0     H12855   9.361   9.514   4.445 -1.0941 -0.4044  0.1978
  855MOL0     H12856   9.489   9.255   4.344 -2.5443  0.9926 -0.1186
  855MOL0     H12857   9.572   9.419   4.334 -1.6473  2.5797 -0.1193
  855MOL0     H12858   9.580   9.356   4.751 -1.2290 -1.6477  0.0993
  855MOL0     H12859   8.971   9.685   4.171 -0.9144 -0.1621  0.1169
  855MOL0     H12860   8.734   9.733   4.164 -2.5398 -1.3123 -0.0680
  856MOL0     O12861   8.980   6.308   4.306 -0.0110 -0.0263 -0.6341
  856MOL0     C12862   9.072   6.259   4.371 -0.1663  0.7386  0.3541
  856MOL0     O12863   9.089   6.257   4.505  0.0464 -0.4763 -0.4623
  856MOL0     C12864   8.990   6.310   4.589  0.1495  0.4180  0.1644
  856MOL0     C12865   9.026   6.410   4.687 -0.1051 -0.1479 -0.2111
  856MOL0     C12866   8.930   6.468   4.769 -0.4096 -1.0122  0.2182
  856MOL0     C12867   8.800   6.414   4.772 -0.0324 -0.3622 -0.0968
  856MOL0     O12868   8.698   6.455   4.851  0.2408 -0.6134  0.6927
  856MOL0     C12869   8.724   6.571   4.926 -0.0836 -0.5200 -0.1069
  856MOL0     C12870   8.616   6.606   5.029  0.0275  0.0770 -0.5071
  856MOL0     C12871   8.499   6.700   4.974 -0.3737  0.1054 -0.0518
  856MOL0     C12872   8.419   6.767   5.078  0.5090 -0.3266  0.3676
  856MOL0     C12873   8.310   6.691   5.150 -1.3500  0.7178  0.9566
  856MOL0     C12874   8.205   6.784   5.214 -0.3136  0.6863  0.0094
  856MOL0     C12875   8.103   6.698   5.292 -0.2606 -0.4417 -0.9918
  856MOL0     C12876   8.167   6.610   5.392  0.1980  0.5218 -0.3811
  856MOL0     N12877   8.065   6.572   5.489 -0.0233 -0.0276 -0.2203
  856MOL0     C12878   7.982   6.461   5.480 -1.4629  0.0232  0.0997
  856MOL0     C12879   7.897   6.474   5.584 -0.4376  0.0456 -0.1289
  856MOL0     C12880   7.787   6.388   5.633  0.3958  0.2870  0.7946
  856MOL0     C12881   7.650   6.418   5.579 -0.0600  0.5600  0.5366
  856MOL0     C12882   7.534   6.355   5.659  0.1738 -0.5488  1.3193
  856MOL0     C12883   7.406   6.384   5.583  0.2228 -0.4545  0.3195
  856MOL0     O12884   7.309   6.401   5.685  0.3230 -0.0024 -0.1578
  856MOL0     C12885   7.170   6.428   5.659  0.5625 -0.7206 -0.2127
  856MOL0     C12886   7.070   6.428   5.758 -0.2549 -0.2073 -0.2494
  856MOL0     C12887   6.937   6.462   5.728 -0.1058  0.1485  0.9393
  856MOL0     C12888   6.901   6.476   5.589 -0.2488  0.4238 -1.0725
  856MOL0     C12889   6.758   6.480   5.549 -0.5141  0.3535  0.1358
  856MOL0     O12890   6.676   6.420   5.652  0.2569  0.5308  1.0805
  856MOL0     C12891   6.543   6.423   5.626 -0.2157  0.9317 -1.6974
  856MOL0     C12892   6.470   6.396   5.511  0.6872 -0.2296  0.1008
  856MOL0     C12893   6.331   6.396   5.518 -0.9120  0.0695 -1.0117
  856MOL0     C12894   6.256   6.410   5.635  0.3851 -0.1549 -0.4796
  856MOL0     O12895   6.123   6.398   5.633 -0.0048  0.0763 -0.6578
  856MOL0     C12896   6.071   6.532   5.661 -0.2860  0.0701  0.7623
  856MOL0     C12897   5.957   6.522   5.759  0.4593  0.3700 -0.2051
  856MOL0     C12898   5.844   6.431   5.705 -0.0354  0.3889 -0.0138
  856MOL0     C12899   5.735   6.406   5.812  0.5031 -0.0507 -0.8001
  856MOL0     C12900   5.610   6.341   5.758 -0.3951  0.3898  0.2716
  856MOL0     C12901   5.626   6.193   5.714  0.1842 -0.3826 -0.6763
  856MOL0     C12902   5.504   6.159   5.625  0.0605  0.7930  0.1722
  856MOL0     C12903   5.487   6.239   5.501 -0.7121 -0.9478 -0.0226
  856MOL0    Cl12904   5.647   6.239   5.419 -0.6761 -0.1505  0.3559
  856MOL0     C12905   6.328   6.423   5.751 -0.0519 -0.8440 -1.1540
  856MOL0     C12906   6.475   6.426   5.752  0.5692 -0.2517 -0.4504
  856MOL0     O12907   6.716   6.534   5.451 -0.0755 -0.6001  0.9280
  856MOL0     C12908   7.000   6.478   5.490  1.5407  0.8230 -0.3557
  856MOL0     C12909   7.131   6.455   5.530  0.7443  0.3445  0.8734
  856MOL0     N12910   7.935   6.583   5.660  0.2101  0.3575 -0.0343
  856MOL0     N12911   8.029   6.641   5.599 -0.1877  0.4161 -0.3608
  856MOL0     C12912   8.774   6.302   4.684  0.6727 -0.3145 -0.6618
  856MOL0     C12913   8.859   6.250   4.590 -0.5691 -0.7031  0.1211
  856MOL0     C12914   9.175   6.194   4.290 -0.0782 -1.0686 -0.8149
  856MOL0     C12915   9.142   6.115   4.178 -0.3587 -0.9337  0.4013
  856MOL0     C12916   9.245   6.052   4.108 -0.0999  1.1258 -0.4563
  856MOL0     C12917   9.378   6.057   4.153 -0.1884  0.3724 -0.0384
  856MOL0     O12918   9.464   5.965   4.077 -0.4234 -0.1195 -0.0383
  856MOL0     C12919   9.603   5.980   4.103  0.1023  0.0858 -0.4192
  856MOL0     C12920   9.662   6.101   4.025  0.7157  0.1064  0.3406
  856MOL0     C12921   9.802   6.129   4.065 -0.6136 -0.2637  0.5524
  856MOL0     C12922   9.851   6.256   4.008  0.0182 -0.1148  0.6982
  856MOL0     C12923   9.997   6.281   4.029 -0.3937  0.3135  0.4840
  856MOL0     C12924  10.113   6.297   4.061 -1.0375 -0.5989  0.0242
  856MOL0     C12925   9.412   6.139   4.262  0.4554  0.4694 -0.0159
  856MOL0     C12926   9.309   6.213   4.332 -0.7660  0.9068  0.8398
  856MOL0     H12927   9.122   6.456   4.670  0.5335 -0.9217  1.0684
  856MOL0     H12928   8.970   6.558   4.816  1.8543 -0.5660 -2.3200
  856MOL0     H12929   8.737   6.654   4.857 -1.3356 -0.6621 -0.5483
  856MOL0     H12930   8.816   6.560   4.984  0.3603 -1.4506 -0.9679
  856MOL0     H12931   8.668   6.659   5.109  0.6514 -0.3367 -0.6285
  856MOL0     H12932   8.561   6.516   5.057 -1.4140  1.4963  1.4636
  856MOL0     H12933   8.441   6.652   4.895 -0.0036  1.1353 -0.9833
  856MOL0     H12934   8.552   6.785   4.928  1.5039 -0.3203  1.2165
  856MOL0     H12935   8.485   6.813   5.152 -1.5196  1.3937  1.2174
  856MOL0     H12936   8.380   6.857   5.030  1.3731 -0.3362 -0.3884
  856MOL0     H12937   8.358   6.616   5.214 -1.7239  0.3759  0.8440
  856MOL0     H12938   8.246   6.643   5.075 -2.7317  2.6108  0.8529
  856MOL0     H12939   8.147   6.846   5.145 -0.3739 -0.2019 -0.7620
  856MOL0     H12940   8.256   6.850   5.284  1.9408  0.9298 -1.7658
  856MOL0     H12941   8.024   6.752   5.345 -0.2503 -2.5105  1.2828
  856MOL0     H12942   8.041   6.635   5.226 -0.5553 -2.5585  1.1837
  856MOL0     H12943   8.249   6.664   5.441  1.9257  0.9123 -3.4564
  856MOL0     H12944   8.203   6.521   5.340 -0.9666  0.7222 -1.5910
  856MOL0     H12945   7.982   6.390   5.398  0.9782 -1.4212  1.2137
  856MOL0     H12946   7.786   6.389   5.743 -0.5200  1.5849  0.8003
  856MOL0     H12947   7.809   6.285   5.602 -2.4410 -0.5237  1.2040
  856MOL0     H12948   7.645   6.389   5.474  0.6115 -2.6264  1.2698
  856MOL0     H12949   7.644   6.527   5.584  1.3095  0.6552  0.3243
  856MOL0     H12950   7.535   6.248   5.682  0.2473 -0.5196  1.4601
  856MOL0     H12951   7.528   6.403   5.757 -2.6564  0.3930  0.7771
  856MOL0     H12952   7.375   6.304   5.515 -2.5755  1.6468 -1.0697
  856MOL0     H12953   7.421   6.472   5.521 -1.2190 -1.6251 -1.8282
  856MOL0     H12954   7.099   6.420   5.862  2.9205  1.5223 -0.8721
  856MOL0     H12955   6.867   6.469   5.810 -0.2976  0.7152  0.7293
  856MOL0     H12956   6.519   6.372   5.418 -0.8126 -1.0028 -0.5240
  856MOL0     H12957   6.276   6.386   5.425 -5.2686 -0.7815  1.4241
  856MOL0     H12958   6.024   6.581   5.576 -0.3085 -1.6783 -0.2802
  856MOL0     H12959   6.146   6.600   5.702 -0.7727 -0.4717  2.6902
  856MOL0     H12960   5.920   6.622   5.784 -0.0552 -0.2382  1.6072
  856MOL0     H12961   6.004   6.481   5.849  1.4754 -0.2856 -1.0069
  856MOL0     H12962   5.887   6.336   5.672  5.2103  2.6972 -0.8083
  856MOL0     H12963   5.789   6.487   5.629 -2.1763 -1.0859  0.3496
  856MOL0     H12964   5.778   6.341   5.889  0.8690 -0.4246 -1.3195
  856MOL0     H12965   5.707   6.493   5.873  0.7030 -1.1752  0.9960
  856MOL0     H12966   5.595   6.406   5.671  1.2080  0.8262  0.2970
  856MOL0     H12967   5.522   6.347   5.822 -0.0754  1.4856  0.6361
  856MOL0     H12968   5.623   6.132   5.804 -0.8269  0.7332  0.0737
  856MOL0     H12969   5.724   6.179   5.667  1.9520  1.9428  2.0198
  856MOL0     H12970   5.523   6.056   5.594 -2.4119  0.6458 -1.1072
  856MOL0     H12971   5.413   6.170   5.685 -1.0584 -0.1683 -1.2796
  856MOL0     H12972   5.457   6.342   5.520  1.5715 -0.2471  0.1530
  856MOL0     H12973   5.412   6.194   5.436 -2.4831 -0.2245  1.4581
  856MOL0     H12974   6.275   6.427   5.846  3.5453 -0.0023  1.0297
  856MOL0     H12975   6.526   6.439   5.847  0.5761  2.7589 -0.7796
  856MOL0     H12976   6.980   6.491   5.384 -0.4458 -0.6359 -0.2241
  856MOL0     H12977   7.209   6.454   5.455  3.0663 -2.5507  3.0643
  856MOL0     H12978   8.682   6.244   4.683 -0.2919  1.0026  2.1084
  856MOL0     H12979   8.825   6.167   4.530 -1.3753 -2.1182  2.4061
  856MOL0     H12980   9.039   6.101   4.146 -0.0209 -0.3191 -1.0494
  856MOL0     H12981   9.215   5.996   4.020 -0.3710 -0.6535  0.7098
  856MOL0     H12982   9.639   5.882   4.071 -1.2390 -0.2146 -1.0894
  856MOL0     H12983   9.630   5.986   4.209  0.3814 -0.6359 -0.4419
  856MOL0     H12984   9.654   6.086   3.917 -0.1627  1.6945  0.1532
  856MOL0     H12985   9.595   6.183   4.054  1.0673  0.0168  1.4546
  856MOL0     H12986   9.858   6.042   4.027 -1.8301 -1.2262  0.8851
  856MOL0     H12987   9.806   6.137   4.174  1.0751 -0.8851  0.5710
  856MOL0     H12988   9.839   6.253   3.899  1.7688  1.3396  0.4257
  856MOL0     H12989   9.781   6.330   4.046  0.1021 -0.0113  0.6512
  856MOL0     H12990  10.213   6.308   4.098 -1.1759 -2.9128  1.2284
  856MOL0     H12991   9.516   6.147   4.291  1.0975 -0.8355 -1.7404
  856MOL0     H12992   9.350   6.277   4.409 -2.2373 -0.3761  2.7790
  857MOL0     O12993  10.111   2.145   1.948 -0.2238 -0.9765  0.0091
  857MOL0     C12994  10.085   2.209   2.053 -0.0119 -0.1693 -0.0884
  857MOL0     O12995   9.963   2.261   2.094  0.1415 -0.4293  0.6295
  857MOL0     C12996   9.849   2.218   2.034  0.7363 -0.0502 -0.6011
  857MOL0     C12997   9.841   2.083   2.011  0.9166 -0.5065 -0.1782
  857MOL0     C12998   9.728   2.033   1.933 -0.4203 -0.4380 -0.2509
  857MOL0     C12999   9.623   2.117   1.899  0.7819 -0.4668  0.3941
  857MOL0     O13000   9.518   2.067   1.820 -1.1929 -0.2996 -0.5232
  857MOL0     C13001   9.380   2.089   1.871  0.2443 -0.0377 -0.8836
  857MOL0     C13002   9.284   2.066   1.751  0.2272 -1.0590  0.1167
  857MOL0     C13003   9.151   2.137   1.774  0.5111 -0.0066  0.5053
  857MOL0     C13004   9.054   2.082   1.876  0.0932 -0.0235  0.4506
  857MOL0     C13005   8.921   2.154   1.884  0.5126  0.0527 -1.1358
  857MOL0     C13006   8.841   2.129   1.761 -0.4281  0.0486  0.3077
  857MOL0     C13007   8.687   2.146   1.773  0.2072 -0.1762  0.2461
  857MOL0     C13008   8.630   2.286   1.737  0.0118  1.2346  0.6132
  857MOL0     N13009   8.487   2.281   1.772  0.2338  0.1820 -0.0492
  857MOL0     C13010   8.389   2.215   1.702 -0.9671 -0.3263 -0.2055
  857MOL0     C13011   8.298   2.200   1.797  0.1427 -0.2123  0.0589
  857MOL0     C13012   8.158   2.132   1.778 -0.6089  0.8368 -0.0750
  857MOL0     C13013   8.146   2.028   1.661 -0.3885  0.5049 -0.4852
  857MOL0     C13014   8.021   1.954   1.650 -0.5734 -0.9628  0.7182
  857MOL0     C13015   7.994   1.872   1.512 -0.5892 -0.4720  0.0079
  857MOL0     O13016   7.879   1.791   1.525 -0.4748  0.3923  0.0514
  857MOL0     C13017   7.751   1.850   1.538  0.0158  0.7626  0.0524
  857MOL0     C13018   7.640   1.762   1.553  0.2665 -0.0744  0.6741
  857MOL0     C13019   7.506   1.808   1.556  0.5165  0.2765 -0.5659
  857MOL0     C13020   7.480   1.949   1.540  0.7534  0.8897  0.1340
  857MOL0     C13021   7.336   1.996   1.527  0.2210  0.9200  0.3773
  857MOL0     O13022   7.245   1.914   1.593 -0.4936 -0.5390  0.3472
  857MOL0     C13023   7.112   1.932   1.563 -0.3475 -0.0154 -0.4823
  857MOL0     C13024   7.034   1.835   1.501 -0.0953 -0.4416  0.1624
  857MOL0     C13025   6.899   1.853   1.469 -0.3546 -0.3645 -0.1333
  857MOL0     C13026   6.829   1.953   1.530  0.7967 -0.1759  0.5005
  857MOL0     O13027   6.693   1.963   1.529 -0.3954 -0.1008  0.0011
  857MOL0     C13028   6.619   1.887   1.430  0.2168  0.5565 -0.0565
  857MOL0     C13029   6.471   1.934   1.424  0.2436 -0.7463  0.6973
  857MOL0     C13030   6.399   1.890   1.288  0.8764  0.2902 -0.8712
  857MOL0     C13031   6.247   1.931   1.311 -0.3504  0.1757  0.4212
  857MOL0     C13032   6.168   1.947   1.179  0.4706  0.2005 -0.3035
  857MOL0     C13033   6.183   1.817   1.089 -0.0604  0.0703  0.0665
  857MOL0     C13034   6.102   1.818   0.954  0.8210  0.0891 -0.3416
  857MOL0     C13035   6.154   1.921   0.858 -0.7386  0.5881 -0.0698
  857MOL0    Cl13036   6.042   1.896   0.716  0.0663 -0.3693 -0.4894
  857MOL0     C13037   6.901   2.039   1.605  0.3330  0.2616  0.0610
  857MOL0     C13038   7.040   2.032   1.620  0.1282  0.6869 -0.6108
  857MOL0     O13039   7.315   2.098   1.470  0.2446  0.1056 -0.1136
  857MOL0     C13040   7.592   2.023   1.513  0.0510 -0.0645 -0.1320
  857MOL0     C13041   7.728   1.984   1.515  0.4563  0.2853  1.6245
  857MOL0     N13042   8.317   2.269   1.918 -1.0829  0.4231  0.3030
  857MOL0     N13043   8.440   2.317   1.900  0.0418  0.8604 -0.3989
  857MOL0     C13044   9.625   2.249   1.936 -0.2044 -0.4383  0.1382
  857MOL0     C13045   9.741   2.293   2.001 -0.4315  0.8640  0.2884
  857MOL0     C13046  10.205   2.245   2.139  0.4919 -0.0898  0.4501
  857MOL0     C13047  10.179   2.285   2.269  0.4371  0.4382 -0.0081
  857MOL0     C13048  10.284   2.315   2.361  0.0641  0.0734 -0.1421
  857MOL0     C13049  10.412   2.296   2.328  0.3085 -0.4883 -0.1770
  857MOL0     O13050  10.502   2.301   2.430 -0.1831 -0.5257  0.3927
  857MOL0     C13051  10.535   2.187   2.502 -0.6038 -0.2719  0.4073
  857MOL0     C13052  10.543   2.060   2.426  0.4333  0.5974  0.2280
  857MOL0     C13053  10.607   1.950   2.508 -0.8729  0.9231  0.5890
  857MOL0     C13054  10.625   1.821   2.428  0.0390  0.0426  0.1174
  857MOL0     C13055  10.729   1.733   2.484  0.3800 -0.3288  0.0724
  857MOL0     C13056  10.811   1.653   2.514 -0.2124 -0.4214  0.8416
  857MOL0     C13057  10.440   2.267   2.189 -0.1523  0.1876  0.1229
  857MOL0     C13058  10.333   2.242   2.101 -0.4642 -0.0134 -0.1161
  857MOL0     H13059   9.920   2.017   2.046  0.9100 -0.0547  0.7042
  857MOL0     H13060   9.727   1.929   1.901  0.9570 -0.4537 -0.3241
  857MOL0     H13061   9.358   2.189   1.912 -3.4862 -0.5608 -1.2531
  857MOL0     H13062   9.361   2.020   1.953  0.7563 -1.2560 -1.7523
  857MOL0     H13063   9.260   1.961   1.732 -0.9690 -1.0036  1.1763
  857MOL0     H13064   9.329   2.100   1.657  2.0981  1.2586  1.7208
  857MOL0     H13065   9.098   2.131   1.679 -0.5922  3.0357  0.8131
  857MOL0     H13066   9.162   2.245   1.788  1.8299 -0.1241  0.5269
  857MOL0     H13067   9.043   1.974   1.859  1.2612 -0.4501  2.1496
  857MOL0     H13068   9.110   2.098   1.968 -2.2664 -1.3930  2.2359
  857MOL0     H13069   8.928   2.260   1.910 -1.5643 -0.3634  1.5986
  857MOL0     H13070   8.856   2.116   1.963  3.1507 -0.5125  0.8817
  857MOL0     H13071   8.862   2.029   1.722  0.9182  0.4619 -0.0753
  857MOL0     H13072   8.885   2.190   1.682  2.5028 -1.7278  0.4165
  857MOL0     H13073   8.648   2.067   1.708  0.7294 -1.1172  1.0397
  857MOL0     H13074   8.657   2.129   1.877 -2.4220 -2.0196 -0.7109
  857MOL0     H13075   8.645   2.298   1.629 -1.9229 -1.0184 -0.0027
  857MOL0     H13076   8.680   2.364   1.796 -0.0903  0.9560  1.0663
  857MOL0     H13077   8.392   2.170   1.603 -1.3054  0.2282 -0.4723
  857MOL0     H13078   8.075   2.202   1.769  0.2521  2.0762  1.1227
  857MOL0     H13079   8.147   2.066   1.865 -0.4520  3.1083  1.7605
  857MOL0     H13080   8.226   1.954   1.669  1.1491  2.0737 -0.6286
  857MOL0     H13081   8.167   2.076   1.565 -2.2235  2.8987  0.1886
  857MOL0     H13082   8.008   1.875   1.724  3.4845 -3.0624 -0.5669
  857MOL0     H13083   7.938   2.021   1.676  1.0626  0.2582  3.1926
  857MOL0     H13084   8.078   1.802   1.510 -0.0093  0.2314 -1.4049
  857MOL0     H13085   8.009   1.931   1.422  0.7205 -0.3264  0.2911
  857MOL0     H13086   7.656   1.655   1.563 -1.7586 -0.5111 -0.1882
  857MOL0     H13087   7.422   1.740   1.558 -1.9644  3.1629 -0.6339
  857MOL0     H13088   7.094   1.752   1.466  3.0209  0.5702  2.6731
  857MOL0     H13089   6.843   1.776   1.418  3.4031 -2.3232 -1.6597
  857MOL0     H13090   6.619   1.779   1.449  0.0271  0.8432  1.8489
  857MOL0     H13091   6.664   1.899   1.331 -1.9834 -0.0117 -1.1968
  857MOL0     H13092   6.475   2.044   1.423  0.5144 -0.7607 -0.1417
  857MOL0     H13093   6.419   1.893   1.511  1.4523 -0.6340  1.4950
  857MOL0     H13094   6.406   1.781   1.273  0.9533 -0.1345  1.7853
  857MOL0     H13095   6.427   1.954   1.204 -1.2539  1.0245 -1.0938
  857MOL0     H13096   6.188   1.861   1.370 -1.6578 -1.0565 -2.1963
  857MOL0     H13097   6.245   2.021   1.374 -1.3379  1.7735 -1.7424
  857MOL0     H13098   6.201   2.033   1.120 -3.8859  0.7291 -2.3428
  857MOL0     H13099   6.062   1.957   1.200  0.2212 -3.0482  0.5317
  857MOL0     H13100   6.145   1.738   1.154  3.9035  0.1415  2.8904
  857MOL0     H13101   6.288   1.796   1.065  0.4961 -0.0879  2.3778
  857MOL0     H13102   6.107   1.714   0.922 -3.1828 -1.0380  2.0652
  857MOL0     H13103   5.999   1.838   0.982  0.0810 -0.7414 -2.2909
  857MOL0     H13104   6.259   1.894   0.845 -1.3368 -3.2406  1.5053
  857MOL0     H13105   6.137   2.012   0.917 -2.0301  1.0341 -1.0814
  857MOL0     H13106   6.854   2.119   1.661 -1.2009 -1.1896  0.9259
  857MOL0     H13107   7.089   2.101   1.688  0.5258 -1.5264  1.5314
  857MOL0     H13108   7.576   2.128   1.487 -0.0826 -0.2159 -0.6638
  857MOL0     H13109   7.808   2.056   1.498 -1.6486  2.4080  0.1539
  857MOL0     H13110   9.544   2.319   1.923  0.2364  0.1164  0.3156
  857MOL0     H13111   9.743   2.393   2.042  0.1791  1.6478 -1.5531
  857MOL0     H13112  10.077   2.285   2.307  0.0136 -1.6192 -1.0277
  857MOL0     H13113  10.246   2.349   2.457 -2.2524  0.8395 -1.2531
  857MOL0     H13114  10.472   2.177   2.590  1.1761  3.2314  2.3148
  857MOL0     H13115  10.635   2.207   2.542 -1.0370  1.0625  0.8990
  857MOL0     H13116  10.440   2.034   2.399  0.7974 -0.2037 -0.4731
  857MOL0     H13117  10.590   2.074   2.328 -2.3200 -0.0954 -1.3127
  857MOL0     H13118  10.548   1.937   2.599 -2.0603  0.5925 -0.2023
  857MOL0     H13119  10.705   1.971   2.553 -1.0600  1.7078  0.6380
  857MOL0     H13120  10.528   1.772   2.438 -1.1691  2.0599 -0.9554
  857MOL0     H13121  10.634   1.841   2.321  0.2017 -3.5078 -0.6557
  857MOL0     H13122  10.864   1.562   2.536 -1.2720 -1.2018  0.2739
  857MOL0     H13123  10.541   2.257   2.151  0.2047 -0.5778  1.2385
  857MOL0     H13124  10.355   2.215   1.998  2.7614 -1.7035  0.8486
  858MOL0     O13125   0.512   4.991   8.274 -0.9550  0.2728 -0.2117
  858MOL0     C13126   0.543   4.918   8.182 -0.9871 -0.2351  0.3076
  858MOL0     O13127   0.460   4.842   8.110  0.0163 -0.0029 -0.4059
  858MOL0     C13128   0.332   4.837   8.134 -1.1330 -0.0413 -0.1206
  858MOL0     C13129   0.276   4.711   8.144  0.1253 -0.5467 -0.7842
  858MOL0     C13130   0.139   4.692   8.168  0.2847 -0.5760  0.1874
  858MOL0     C13131   0.054   4.802   8.178  0.0166 -0.9359  0.7056
  858MOL0     O13132  -0.086   4.806   8.172  0.3471  0.1206  0.0646
  858MOL0     C13133  -0.157   4.687   8.204 -0.0048 -0.5793  0.6596
  858MOL0     C13134  -0.306   4.718   8.238 -0.6854 -0.2938  0.0001
  858MOL0     C13135  -0.388   4.606   8.291  1.2636 -0.2936  0.1056
  858MOL0     C13136  -0.523   4.657   8.337  0.0189 -0.0294 -0.5186
  858MOL0     C13137  -0.625   4.697   8.228 -0.5496 -0.4570  0.3492
  858MOL0     C13138  -0.733   4.779   8.297  0.1278 -0.0473  0.6061
  858MOL0     C13139  -0.833   4.691   8.375  0.0445 -0.1432  0.0392
  858MOL0     C13140  -0.929   4.776   8.453  0.5396 -0.4745  0.4964
  858MOL0     N13141  -1.016   4.848   8.363 -1.1651 -0.5566  0.5418
  858MOL0     C13142  -1.107   4.793   8.278  0.6609 -0.0474  0.0921
  858MOL0     C13143  -1.211   4.887   8.266 -0.8391 -0.2555 -0.6907
  858MOL0     C13144  -1.340   4.877   8.192  1.4425  0.2136 -0.2563
  858MOL0     C13145  -1.457   4.948   8.269  0.0269 -0.1577 -0.4461
  858MOL0     C13146  -1.590   4.916   8.202 -0.2304  0.3279 -0.2453
  858MOL0     C13147  -1.708   4.988   8.261  0.2923 -0.0990  0.6044
  858MOL0     O13148  -1.799   5.025   8.152 -0.3944 -0.0962 -0.2491
  858MOL0     C13149  -1.931   4.991   8.153 -0.5018 -0.4218 -0.8384
  858MOL0     C13150  -1.997   4.919   8.252 -0.0156  0.9638  0.4124
  858MOL0     C13151  -2.134   4.887   8.258 -0.2248  0.1093  0.5182
  858MOL0     C13152  -2.214   4.907   8.144 -0.4938 -0.3111  0.7622
  858MOL0     C13153  -2.353   4.880   8.159 -0.6188 -0.4205  0.6374
  858MOL0     O13154  -2.440   4.911   8.049 -0.4181  0.4629 -0.5950
  858MOL0     C13155  -2.565   4.859   8.062  0.1157 -0.3913 -0.4247
  858MOL0     C13156  -2.586   4.716   8.065  1.2600 -0.6293  0.4363
  858MOL0     C13157  -2.721   4.671   8.075  0.6352 -0.3842  0.0054
  858MOL0     C13158  -2.829   4.765   8.098 -0.9804 -0.6739  0.1206
  858MOL0     O13159  -2.961   4.728   8.119 -0.3900 -0.3119 -0.1969
  858MOL0     C13160  -2.982   4.627   8.217 -0.2734 -0.2926 -0.7865
  858MOL0     C13161  -3.113   4.619   8.287  0.4196  0.0279  0.7488
  858MOL0     C13162  -3.165   4.755   8.329  0.0553  0.6190  0.2947
  858MOL0     C13163  -3.293   4.740   8.408  0.2448  0.1397 -0.3664
  858MOL0     C13164  -3.345   4.877   8.455  0.2146  0.0374 -0.0917
  858MOL0     C13165  -3.428   4.921   8.329 -0.2134  0.0715 -0.5457
  858MOL0     C13166  -3.517   5.047   8.356 -0.2213  0.9892 -0.2315
  858MOL0     C13167  -3.567   5.124   8.240 -0.3715 -0.3714  0.7925
  858MOL0    Cl13168  -3.669   5.030   8.132  0.0486 -0.2607 -0.7508
  858MOL0     C13169  -2.804   4.898   8.099 -0.2483  0.1055 -0.3385
  858MOL0     C13170  -2.679   4.944   8.069  0.1268 -0.4252 -0.2442
  858MOL0     O13171  -2.391   4.818   8.257  0.0230 -0.2745  0.2527
  858MOL0     C13172  -2.154   4.983   8.043 -0.4906 -0.5807  1.0186
  858MOL0     C13173  -2.013   5.029   8.051 -0.7689  0.5870  0.3473
  858MOL0     N13174  -1.168   4.997   8.342  0.1046  0.2086 -0.0564
  858MOL0     N13175  -1.046   4.977   8.386 -0.5713  0.0417  0.3264
  858MOL0     C13176   0.111   4.931   8.167  0.3971  0.3786 -0.1308
  858MOL0     C13177   0.248   4.943   8.149 -0.1864  0.7225  0.2401
  858MOL0     C13178   0.688   4.903   8.157  0.1410 -0.6238  0.1160
  858MOL0     C13179   0.740   4.837   8.042 -0.2909  0.1512 -0.3857
  858MOL0     C13180   0.876   4.852   8.018  0.7518 -0.6044 -0.5354
  858MOL0     C13181   0.966   4.909   8.102 -0.3043 -0.4988 -0.2309
  858MOL0     O13182   1.103   4.909   8.089 -0.0414  0.4193 -0.2421
  858MOL0     C13183   1.166   4.816   8.004 -0.0587  0.8638  0.6420
  858MOL0     C13184   1.301   4.862   7.967 -0.3247  0.7272  0.3174
  858MOL0     C13185   1.388   4.887   8.090 -0.3884 -0.1372 -0.2216
  858MOL0     C13186   1.521   4.937   8.039 -0.3047 -0.3186 -0.0614
  858MOL0     C13187   1.608   4.977   8.151 -0.1053 -0.0456 -0.2281
  858MOL0     C13188   1.683   4.993   8.243  1.1157 -0.3488  0.1840
  858MOL0     C13189   0.916   4.976   8.215 -0.0939 -0.1577 -0.4708
  858MOL0     C13190   0.783   4.969   8.241 -0.0577  0.9422 -0.3270
  858MOL0     H13191   0.342   4.625   8.141 -0.6408 -1.2634  1.1118
  858MOL0     H13192   0.106   4.589   8.156  4.0452 -1.8734 -0.4968
  858MOL0     H13193  -0.107   4.636   8.287  0.2948  0.2790  1.0128
  858MOL0     H13194  -0.152   4.620   8.118  0.4429  1.6790 -1.1642
  858MOL0     H13195  -0.354   4.766   8.152  0.3997  0.9680  0.0675
  858MOL0     H13196  -0.302   4.789   8.321  1.6895 -3.0799  2.5242
  858MOL0     H13197  -0.339   4.561   8.378  3.1143  0.4877 -0.4646
  858MOL0     H13198  -0.397   4.522   8.222 -2.5441  0.5577 -0.6062
  858MOL0     H13199  -0.568   4.583   8.404  0.7644 -0.2175 -0.2181
  858MOL0     H13200  -0.515   4.750   8.394  0.0833  0.9336 -2.0492
  858MOL0     H13201  -0.659   4.606   8.178 -1.8574  1.0747 -1.6879
  858MOL0     H13202  -0.568   4.752   8.153  1.5011 -3.5056 -0.5397
  858MOL0     H13203  -0.785   4.840   8.223  0.5589 -1.3738 -0.8366
  858MOL0     H13204  -0.686   4.850   8.366 -0.4258 -0.7324  1.7329
  858MOL0     H13205  -0.890   4.623   8.311 -1.0023  0.1351  0.6468
  858MOL0     H13206  -0.774   4.626   8.442 -0.2813  0.0027  0.4741
  858MOL0     H13207  -0.868   4.846   8.512  2.8406 -1.4225 -0.6297
  858MOL0     H13208  -0.989   4.714   8.520  1.0600 -2.4860 -0.8293
  858MOL0     H13209  -1.125   4.690   8.247  0.7403 -0.3645  1.0611
  858MOL0     H13210  -1.373   4.774   8.176 -2.1387  0.4192  3.9082
  858MOL0     H13211  -1.328   4.927   8.095  4.4372  0.0982 -0.0358
  858MOL0     H13212  -1.437   5.055   8.252 -3.2459  0.6882  0.3431
  858MOL0     H13213  -1.474   4.930   8.375 -0.0247 -0.7310 -0.5481
  858MOL0     H13214  -1.580   4.943   8.096 -0.3964 -0.6698 -0.5284
  858MOL0     H13215  -1.627   4.813   8.204 -3.8709  1.4841  0.8947
  858MOL0     H13216  -1.663   5.075   8.310  0.3566 -1.3557  2.9102
  858MOL0     H13217  -1.753   4.919   8.333  0.1355  0.8993  1.4984
  858MOL0     H13218  -1.938   4.900   8.341  0.5341  2.8922  0.5100
  858MOL0     H13219  -2.182   4.843   8.344  1.8185  0.1468  1.7516
  858MOL0     H13220  -2.506   4.645   8.045 -0.8507 -3.1269  0.2793
  858MOL0     H13221  -2.754   4.568   8.076 -2.1606  0.3244 -2.8529
  858MOL0     H13222  -2.902   4.645   8.290  0.0081 -2.9740 -0.3155
  858MOL0     H13223  -2.965   4.524   8.183 -1.9619 -1.3277  1.2604
  858MOL0     H13224  -3.091   4.568   8.382  0.9814  2.2177  1.8525
  858MOL0     H13225  -3.184   4.557   8.231  2.0935 -0.2472 -1.1754
  858MOL0     H13226  -3.179   4.815   8.239  2.0076  2.5325  1.1931
  858MOL0     H13227  -3.094   4.815   8.386  0.2255 -0.0582  0.8093
  858MOL0     H13228  -3.373   4.676   8.372 -1.4070  1.8698  0.0990
  858MOL0     H13229  -3.265   4.696   8.504  0.0840  3.4600  1.3369
  858MOL0     H13230  -3.266   4.951   8.468 -0.3843  0.4025  1.7449
  858MOL0     H13231  -3.398   4.882   8.551  0.4012 -1.1262  0.0870
  858MOL0     H13232  -3.505   4.846   8.308 -0.1631  0.1369 -0.9627
  858MOL0     H13233  -3.357   4.942   8.249 -0.9299  0.0577 -1.2013
  858MOL0     H13234  -3.604   5.011   8.412  0.6494 -0.6795  0.1307
  858MOL0     H13235  -3.459   5.119   8.414  1.6463 -0.2717 -0.4484
  858MOL0     H13236  -3.478   5.166   8.192  1.0974 -1.9868  1.9920
  858MOL0     H13237  -3.622   5.215   8.266 -0.9880 -0.6933  0.6466
  858MOL0     H13238  -2.883   4.965   8.130 -0.1620 -0.4291  1.0943
  858MOL0     H13239  -2.671   5.052   8.068 -3.9423  0.0189 -0.5122
  858MOL0     H13240  -2.217   5.026   7.965  1.4605 -1.4016 -1.1400
  858MOL0     H13241  -1.990   5.114   7.988 -1.5881 -0.0002 -0.7833
  858MOL0     H13242   0.049   5.021   8.170 -0.0452  0.0556  0.6872
  858MOL0     H13243   0.284   5.044   8.137 -0.2552  0.4882 -2.6844
  858MOL0     H13244   0.686   4.775   7.972  0.5098 -1.2552  0.2009
  858MOL0     H13245   0.907   4.818   7.919  1.2753  1.4543 -1.1208
  858MOL0     H13246   1.105   4.788   7.918 -2.1287 -1.4862  2.7302
  858MOL0     H13247   1.172   4.722   8.059  0.4588  0.3793 -0.2148
  858MOL0     H13248   1.339   4.780   7.905 -1.8453 -1.3516  1.9674
  858MOL0     H13249   1.297   4.953   7.907 -0.8116  0.3245 -0.2761
  858MOL0     H13250   1.403   4.798   8.151  2.2899 -0.6615 -1.4948
  858MOL0     H13251   1.339   4.966   8.147 -1.6481 -0.9119 -0.2076
  858MOL0     H13252   1.576   4.870   7.971  1.8582  0.3027  0.9932
  858MOL0     H13253   1.515   5.033   7.987  1.5352  0.6473  1.3882
  858MOL0     H13254   1.748   4.998   8.328 -0.4779  1.5860  1.3809
  858MOL0     H13255   0.980   5.026   8.287 -0.0368 -0.8764 -0.0130
  858MOL0     H13256   0.753   5.029   8.327  0.8674  1.4071 -0.3161
  859MOL0     O13257   3.319   0.932   0.829  0.0660 -0.0190 -0.2253
  859MOL0     C13258   3.406   0.968   0.902 -0.1956  0.3259 -0.4828
  859MOL0     O13259   3.437   0.919   1.027 -0.2497  0.0621 -0.4049
  859MOL0     C13260   3.346   0.844   1.099  0.9902 -0.2416 -0.6035
  859MOL0     C13261   3.208   0.872   1.092  0.6395 -0.2424  0.5594
  859MOL0     C13262   3.109   0.789   1.132  0.6670 -0.1226  0.1387
  859MOL0     C13263   3.153   0.681   1.213 -0.0867  0.6368 -1.3128
  859MOL0     O13264   3.069   0.583   1.271 -0.8775  0.4270 -0.4579
  859MOL0     C13265   2.933   0.569   1.234 -0.0666  0.3622 -0.3543
  859MOL0     C13266   2.842   0.643   1.341 -0.2460 -0.1939  1.1307
  859MOL0     C13267   2.698   0.665   1.297 -0.3685  0.2519 -0.4056
  859MOL0     C13268   2.607   0.546   1.325  0.8299  1.2811  0.3066
  859MOL0     C13269   2.494   0.549   1.226  0.4183 -0.1192  0.8427
  859MOL0     C13270   2.421   0.681   1.208 -0.8325 -0.2790 -1.2177
  859MOL0     C13271   2.294   0.674   1.137  0.6091  1.3262 -0.5143
  859MOL0     C13272   2.321   0.660   0.987 -0.1864 -0.8205 -0.2538
  859MOL0     N13273   2.199   0.674   0.902 -0.3759 -0.2843 -1.0057
  859MOL0     C13274   2.141   0.792   0.913  0.7449  0.4936 -0.5297
  859MOL0     C13275   2.060   0.789   0.805 -0.4391 -0.3959 -0.5422
  859MOL0     C13276   1.944   0.884   0.781 -0.4607  0.4402 -0.3394
  859MOL0     C13277   1.892   0.933   0.917  0.3276  0.1750 -0.7435
  859MOL0     C13278   1.765   1.043   0.914 -0.8869  0.0484 -0.9548
  859MOL0     C13279   1.644   0.981   0.841 -0.2793  0.9243  0.5326
  859MOL0     O13280   1.533   1.071   0.833  0.5103 -0.5617  0.1217
  859MOL0     C13281   1.461   1.092   0.954 -0.4097 -0.4109  0.9171
  859MOL0     C13282   1.441   1.002   1.061 -0.1062 -0.4860 -0.1146
  859MOL0     C13283   1.376   1.052   1.176  0.4795 -0.2251  0.7544
  859MOL0     C13284   1.318   1.180   1.182 -0.4746  0.5906 -0.5310
  859MOL0     C13285   1.217   1.215   1.291 -0.6984  0.0435 -1.1677
  859MOL0     O13286   1.160   1.337   1.301  0.4645 -0.3689 -0.0659
  859MOL0     C13287   1.074   1.371   1.400 -0.7647 -0.9687  0.0128
  859MOL0     C13288   0.959   1.451   1.373  0.3638 -0.0471 -0.6779
  859MOL0     C13289   0.872   1.490   1.466 -0.0395 -0.0029 -0.3768
  859MOL0     C13290   0.890   1.451   1.598 -0.0298 -0.3241 -0.0417
  859MOL0     O13291   0.798   1.488   1.693  0.0609  0.0543  0.0160
  859MOL0     C13292   0.718   1.378   1.728  0.3645  0.0726 -0.8238
  859MOL0     C13293   0.638   1.324   1.608 -0.0499 -0.1610 -0.2512
  859MOL0     C13294   0.507   1.244   1.647 -0.2448  0.3433 -0.3216
  859MOL0     C13295   0.536   1.102   1.693 -0.6527 -0.8313 -0.1519
  859MOL0     C13296   0.406   1.015   1.713 -1.2300  0.4936  0.3774
  859MOL0     C13297   0.310   1.084   1.810 -0.1360  0.0297 -0.2240
  859MOL0     C13298   0.195   0.977   1.830 -0.8059  1.0498  0.2290
  859MOL0     C13299   0.093   0.948   1.712 -0.1925 -0.4909 -0.6863
  859MOL0    Cl13300   0.052   1.092   1.611 -0.0476  0.3979  0.3354
  859MOL0     C13301   1.013   1.381   1.634  0.6230 -0.8261  0.3377
  859MOL0     C13302   1.097   1.339   1.535 -0.8133 -0.3656 -0.6199
  859MOL0     O13303   1.176   1.120   1.362 -0.3575 -0.5127  0.7134
  859MOL0     C13304   1.326   1.264   1.072 -0.4927  0.4509 -0.2490
  859MOL0     C13305   1.401   1.222   0.960 -1.0885 -0.0452 -0.4754
  859MOL0     N13306   2.079   0.683   0.723 -0.3708 -0.1310  0.0408
  859MOL0     N13307   2.180   0.620   0.778  0.2940  0.2543  0.2206
  859MOL0     C13308   3.288   0.651   1.236  0.0716 -0.4755 -0.1955
  859MOL0     C13309   3.386   0.725   1.164  0.2470  0.6014 -0.2734
  859MOL0     C13310   3.506   1.059   0.845  0.6028  0.1640 -0.4132
  859MOL0     C13311   3.638   1.038   0.866 -0.3468  0.3901  0.2947
  859MOL0     C13312   3.741   1.109   0.820 -0.2949  0.4957 -0.3222
  859MOL0     C13313   3.703   1.226   0.744  0.3158  0.4353 -0.4604
  859MOL0     O13314   3.785   1.313   0.670  0.6150  0.1148  0.2338
  859MOL0     C13315   3.914   1.269   0.636 -0.4226 -0.2189  0.0316
  859MOL0     C13316   3.986   1.363   0.535  0.1492  0.7302  0.8922
  859MOL0     C13317   3.949   1.361   0.388 -0.1286  0.3627  0.1502
  859MOL0     C13318   3.960   1.219   0.325 -0.7538 -0.4131 -0.5283
  859MOL0     C13319   4.094   1.157   0.324  0.0596  0.2544  0.2588
  859MOL0     C13320   4.201   1.098   0.310  0.2350  0.1445 -0.0357
  859MOL0     C13321   3.568   1.251   0.733  0.1714 -0.3885  0.9707
  859MOL0     C13322   3.466   1.166   0.767 -0.9154 -0.7060 -0.1972
  859MOL0     H13323   3.180   0.957   1.030 -2.1498  0.1563  2.2153
  859MOL0     H13324   3.005   0.801   1.103  1.3600 -0.8263 -3.0036
  859MOL0     H13325   2.901   0.464   1.234  3.1890 -0.7965 -2.0769
  859MOL0     H13326   2.914   0.606   1.133  2.0224 -0.5318 -1.1441
  859MOL0     H13327   2.882   0.745   1.342 -0.2329 -0.2007  1.4407
  859MOL0     H13328   2.862   0.601   1.440  2.5884 -1.7897  0.0132
  859MOL0     H13329   2.697   0.689   1.190  0.3039 -0.8913 -0.6870
  859MOL0     H13330   2.649   0.742   1.357 -1.9755 -2.2773  1.7342
  859MOL0     H13331   2.656   0.448   1.318 -0.7606  0.4417  0.5626
  859MOL0     H13332   2.569   0.553   1.428  0.3668  2.2357  0.0800
  859MOL0     H13333   2.418   0.479   1.261 -0.2560 -0.9394 -2.0586
  859MOL0     H13334   2.522   0.516   1.126  0.8151 -0.3714  1.0332
  859MOL0     H13335   2.487   0.747   1.152  0.0181  0.9716  1.1115
  859MOL0     H13336   2.408   0.730   1.305  3.5188 -1.6421  0.2961
  859MOL0     H13337   2.231   0.591   1.170 -1.2132  3.5323  1.9730
  859MOL0     H13338   2.227   0.756   1.165 -0.4628 -0.7122  3.9484
  859MOL0     H13339   2.381   0.577   0.949 -1.0553  0.0951 -4.0228
  859MOL0     H13340   2.386   0.742   0.953  2.0629 -1.8018  1.4185
  859MOL0     H13341   2.122   0.858   0.997 -1.1014 -2.2704  1.4022
  859MOL0     H13342   1.871   0.844   0.710  0.6552 -0.6005 -0.9433
  859MOL0     H13343   1.976   0.975   0.729  1.1207  0.2083  0.1957
  859MOL0     H13344   1.962   0.982   0.984 -0.3207  1.0790 -0.7154
  859MOL0     H13345   1.856   0.849   0.977  1.0276  0.1825 -0.3147
  859MOL0     H13346   1.727   1.067   1.013  0.8723  0.6664 -0.3958
  859MOL0     H13347   1.785   1.137   0.862 -1.1246 -0.3526 -1.7980
  859MOL0     H13348   1.614   0.886   0.886  0.7676 -0.1328 -0.9338
  859MOL0     H13349   1.670   0.950   0.740 -1.6794 -0.5306  0.5715
  859MOL0     H13350   1.469   0.898   1.070  1.6253 -0.0695 -0.3384
  859MOL0     H13351   1.375   0.986   1.262 -0.1247 -0.5311  0.5187
  859MOL0     H13352   0.942   1.491   1.274 -1.4930  2.5030  0.5766
  859MOL0     H13353   0.778   1.534   1.432  0.2977 -0.8774 -2.5925
  859MOL0     H13354   0.649   1.417   1.804  1.7600  1.6815 -0.3260
  859MOL0     H13355   0.777   1.295   1.767  3.1200  1.6727 -1.3289
  859MOL0     H13356   0.699   1.258   1.545  0.7823  2.4725 -2.4239
  859MOL0     H13357   0.612   1.408   1.543 -0.3615 -0.0559  0.0058
  859MOL0     H13358   0.435   1.233   1.566 -0.6945 -3.7013  0.3885
  859MOL0     H13359   0.457   1.297   1.729 -0.5177  1.0386 -0.9331
  859MOL0     H13360   0.604   1.049   1.625  0.2484  1.2995 -0.9994
  859MOL0     H13361   0.593   1.112   1.786 -0.2378 -0.5173 -0.4342
  859MOL0     H13362   0.429   0.914   1.749 -0.0867  0.4478 -0.4390
  859MOL0     H13363   0.355   1.008   1.616  3.3381  1.8148 -2.4417
  859MOL0     H13364   0.269   1.177   1.768 -0.2452  0.3469  0.5609
  859MOL0     H13365   0.358   1.110   1.905  0.1628  0.2604 -0.4347
  859MOL0     H13366   0.225   0.874   1.854  0.4817  1.0662 -1.2194
  859MOL0     H13367   0.145   1.011   1.921  0.3230 -0.2529  1.3924
  859MOL0     H13368  -0.002   0.921   1.759 -0.3905  1.7477  0.3564
  859MOL0     H13369   0.134   0.871   1.646  0.0936  1.1394 -2.5326
  859MOL0     H13370   1.034   1.342   1.733  0.0679  0.2766  0.9160
  859MOL0     H13371   1.186   1.301   1.584 -0.8168  1.9637  1.3334
  859MOL0     H13372   1.284   1.364   1.084 -1.1088  0.0437  1.3438
  859MOL0     H13373   1.405   1.280   0.869 -0.6096  1.9883  0.7766
  859MOL0     H13374   3.303   0.564   1.300 -2.2598 -1.0368 -0.3163
  859MOL0     H13375   3.493   0.709   1.171 -0.0045 -0.4407  4.2269
  859MOL0     H13376   3.659   0.948   0.922 -0.9362 -0.2645 -0.5012
  859MOL0     H13377   3.847   1.087   0.825  0.4826  3.6643 -0.5113
  859MOL0     H13378   3.896   1.171   0.591 -0.3739 -0.7630  1.1760
  859MOL0     H13379   3.977   1.247   0.722 -2.4062 -2.8892  0.9435
  859MOL0     H13380   3.974   1.468   0.562 -0.9805  0.5818  1.0189
  859MOL0     H13381   4.093   1.343   0.542  0.5878 -0.3672 -4.6037
  859MOL0     H13382   4.029   1.416   0.337 -0.3404 -0.5996 -1.2552
  859MOL0     H13383   3.848   1.398   0.367 -1.6523  0.0001  5.4316
  859MOL0     H13384   3.895   1.141   0.365  0.0306 -1.7914 -1.8584
  859MOL0     H13385   3.925   1.233   0.223 -2.5613 -2.2708 -0.2277
  859MOL0     H13386   4.292   1.043   0.297  1.0686  0.2445  3.9288
  859MOL0     H13387   3.537   1.336   0.673 -0.6410 -1.1116  0.3395
  859MOL0     H13388   3.364   1.183   0.733 -1.5301 -1.7965  0.9636
  860MOL0     O13389   9.565   5.132   8.886 -0.7099 -0.4016 -0.0131
  860MOL0     C13390   9.633   5.115   8.790 -0.3532  0.2264  1.4207
  860MOL0     O13391   9.590   5.075   8.664 -0.0760  0.1421  0.7171
  860MOL0     C13392   9.457   5.050   8.640 -0.6660  0.2729 -0.4789
  860MOL0     C13393   9.383   5.128   8.551 -0.1350 -0.5004 -0.2260
  860MOL0     C13394   9.250   5.106   8.534  0.5149  0.1824  0.4584
  860MOL0     C13395   9.185   4.993   8.592  0.5057  0.1361  0.4714
  860MOL0     O13396   9.054   4.983   8.562  0.1191 -0.0422 -0.1414
  860MOL0     C13397   8.985   4.862   8.588  0.9339 -0.0042  0.3787
  860MOL0     C13398   8.918   4.857   8.727  0.1276 -0.4526  0.2411
  860MOL0     C13399   8.827   4.739   8.731  0.0803 -1.7520 -0.3033
  860MOL0     C13400   8.778   4.718   8.876  0.0911  0.0072  0.1951
  860MOL0     C13401   8.645   4.640   8.900 -0.2274  1.1660 -0.1533
  860MOL0     C13402   8.535   4.661   8.794  0.5522 -0.0732 -1.1107
  860MOL0     C13403   8.394   4.615   8.828 -0.0060 -0.1393 -0.9535
  860MOL0     C13404   8.285   4.641   8.728  0.7301 -0.9257 -0.0204
  860MOL0     N13405   8.183   4.541   8.743  0.4952 -0.1289  1.1412
  860MOL0     C13406   8.166   4.426   8.667 -0.7933 -0.0753  0.2805
  860MOL0     C13407   8.036   4.395   8.686  0.8309 -0.1121  0.4264
  860MOL0     C13408   7.941   4.286   8.634 -0.6461 -1.3152  0.5797
  860MOL0     C13409   7.882   4.314   8.497  0.1634 -0.3187 -0.0206
  860MOL0     C13410   7.762   4.222   8.486  0.2446  0.4432  0.2473
  860MOL0     C13411   7.719   4.184   8.342 -0.6090 -0.3980  0.5415
  860MOL0     O13412   7.834   4.135   8.261 -0.3123 -0.7066 -0.4600
  860MOL0     C13413   7.816   4.109   8.131  0.4351  0.9938  0.3934
  860MOL0     C13414   7.923   4.074   8.048 -0.2280  0.5411 -1.0275
  860MOL0     C13415   7.894   4.042   7.917  0.5644  0.5853  0.4731
  860MOL0     C13416   7.769   4.034   7.861 -0.5009 -0.4507  0.5442
  860MOL0     C13417   7.763   4.002   7.716 -0.5379 -0.2252  0.2959
  860MOL0     O13418   7.638   3.956   7.680 -0.2141  0.3537  0.0291
  860MOL0     C13419   7.624   3.871   7.571 -0.3651 -0.0727  0.2797
  860MOL0     C13420   7.726   3.788   7.505 -0.1854  0.0738 -0.1015
  860MOL0     C13421   7.691   3.727   7.384 -0.5030  0.7046  0.3979
  860MOL0     C13422   7.557   3.742   7.336 -0.1208 -0.7077  0.0457
  860MOL0     O13423   7.516   3.668   7.226 -0.3972 -1.2796  0.4228
  860MOL0     C13424   7.520   3.529   7.239 -0.8992 -0.7175 -0.4686
  860MOL0     C13425   7.377   3.464   7.225 -0.2741 -0.1841  0.0584
  860MOL0     C13426   7.311   3.496   7.089 -1.2437  0.6206 -0.1005
  860MOL0     C13427   7.359   3.402   6.983  0.2130 -0.6719 -0.6847
  860MOL0     C13428   7.271   3.423   6.856 -0.3755 -0.0472 -0.4065
  860MOL0     C13429   7.230   3.306   6.771 -0.0717  0.3433  0.2135
  860MOL0     C13430   7.161   3.338   6.635 -0.3159 -0.1624 -0.4112
  860MOL0     C13431   7.188   3.232   6.527  0.5607 -0.5990  0.1216
  860MOL0    Cl13432   7.104   3.083   6.563 -0.4462  0.4302  0.0109
  860MOL0     C13433   7.468   3.832   7.397 -0.0385 -0.3180  0.3767
  860MOL0     C13434   7.495   3.892   7.511  0.3213 -0.4609  0.7899
  860MOL0     O13435   7.864   4.021   7.649  0.4625  1.0260 -0.0827
  860MOL0     C13436   7.665   4.072   7.941 -0.2549 -0.2600 -0.6371
  860MOL0     C13437   7.690   4.112   8.069  0.4788 -0.3454 -0.2999
  860MOL0     N13438   7.976   4.482   8.775  0.8082  0.4245 -0.0100
  860MOL0     N13439   8.064   4.563   8.813  0.5640  0.4090  0.8113
  860MOL0     C13440   9.260   4.908   8.676  0.0096  0.4467 -0.0062
  860MOL0     C13441   9.400   4.940   8.704 -0.1061  0.3436  0.1601
  860MOL0     C13442   9.778   5.107   8.808  0.1190  0.9079 -0.4119
  860MOL0     C13443   9.833   5.127   8.940 -0.3042 -0.0703  0.3007
  860MOL0     C13444   9.970   5.098   8.957  0.2302 -0.1614 -0.0800
  860MOL0     C13445  10.056   5.074   8.847 -0.0530 -0.4546 -0.0938
  860MOL0     O13446  10.193   5.055   8.859  0.0593  0.3920  0.7906
  860MOL0     C13447  10.247   5.067   8.994 -0.8262 -0.1954 -0.0550
  860MOL0     C13448  10.399   5.070   8.971 -0.3235 -1.0025  0.0069
  860MOL0     C13449  10.453   5.175   8.877 -0.1389 -0.0459 -0.2136
  860MOL0     C13450  10.598   5.219   8.885 -0.9364 -0.4156 -0.5882
  860MOL0     C13451  10.684   5.098   8.870  0.0500  0.0471 -0.0173
  860MOL0     C13452  10.753   5.006   8.842  0.4119  0.1020  0.1188
  860MOL0     C13453   9.995   5.054   8.721  0.4349  0.1423 -0.2765
  860MOL0     C13454   9.863   5.059   8.708  0.1046  0.2644 -0.4170
  860MOL0     H13455   9.420   5.212   8.493 -0.0391 -0.5779 -0.2787
  860MOL0     H13456   9.193   5.171   8.469  0.2586  1.8858  2.2803
  860MOL0     H13457   9.051   4.777   8.573 -0.6040 -0.7126 -3.4016
  860MOL0     H13458   8.909   4.861   8.510 -0.3766  1.0596  1.5692
  860MOL0     H13459   8.861   4.950   8.740 -4.7428 -3.1426  0.7456
  860MOL0     H13460   8.999   4.863   8.800 -0.0404  2.7956  0.3289
  860MOL0     H13461   8.874   4.648   8.693  1.2371 -0.8536 -1.0878
  860MOL0     H13462   8.743   4.762   8.665  1.2497  1.3838 -0.8692
  860MOL0     H13463   8.866   4.672   8.923  1.5542 -0.2525 -2.6097
  860MOL0     H13464   8.763   4.821   8.911 -0.0609  0.2067 -0.4585
  860MOL0     H13465   8.623   4.659   9.006  0.3556  0.7937  0.0408
  860MOL0     H13466   8.667   4.532   8.897 -1.1446  0.9318  0.7577
  860MOL0     H13467   8.562   4.601   8.706  0.8673 -2.1852  0.3430
  860MOL0     H13468   8.534   4.765   8.759  1.2156  0.8661  1.4411
  860MOL0     H13469   8.395   4.506   8.839  3.4517 -0.3519 -2.0351
  860MOL0     H13470   8.369   4.656   8.926  0.1566 -0.8614 -0.6058
  860MOL0     H13471   8.321   4.652   8.626 -0.8146 -0.9531 -0.5962
  860MOL0     H13472   8.245   4.735   8.768 -1.4948 -2.3613  1.3665
  860MOL0     H13473   8.228   4.362   8.606 -2.4041 -0.0103 -1.5407
  860MOL0     H13474   7.858   4.295   8.704 -1.9246 -2.3608 -0.7224
  860MOL0     H13475   7.980   4.185   8.651  0.3680 -0.6437  2.5123
  860MOL0     H13476   7.954   4.304   8.415 -1.4018  2.3211 -1.8597
  860MOL0     H13477   7.845   4.416   8.505  1.1516 -0.1113  3.4162
  860MOL0     H13478   7.764   4.127   8.540  0.4201 -2.2915 -4.0889
  860MOL0     H13479   7.677   4.277   8.528  0.8924  1.9298 -0.3063
  860MOL0     H13480   7.673   4.273   8.299  0.6155  1.0867  2.0984
  860MOL0     H13481   7.637   4.112   8.347 -1.8305  1.0160  3.7117
  860MOL0     H13482   8.028   4.074   8.074 -0.8914 -0.4397  2.0611
  860MOL0     H13483   7.978   4.021   7.851 -0.8246  0.6937 -1.4194
  860MOL0     H13484   7.823   3.782   7.553 -1.0598 -3.7769  1.5424
  860MOL0     H13485   7.766   3.661   7.342  2.6194  0.6629  5.2957
  860MOL0     H13486   7.566   3.504   7.335  1.0057 -0.6189 -1.3104
  860MOL0     H13487   7.590   3.486   7.166 -0.9819 -0.5568 -0.6429
  860MOL0     H13488   7.315   3.503   7.307  1.6628  1.6249  0.7598
  860MOL0     H13489   7.376   3.357   7.245 -3.5928 -0.4355 -0.8800
  860MOL0     H13490   7.330   3.601   7.066 -1.4729  0.9546  1.1529
  860MOL0     H13491   7.206   3.483   7.118 -1.1438 -0.8577 -0.3130
  860MOL0     H13492   7.463   3.426   6.960 -0.2037 -0.4983 -2.5917
  860MOL0     H13493   7.351   3.301   7.023 -3.4594  0.6471  2.5140
  860MOL0     H13494   7.326   3.494   6.793  0.7077 -0.2136  0.3188
  860MOL0     H13495   7.179   3.476   6.884 -1.3842 -1.8743 -0.1496
  860MOL0     H13496   7.167   3.244   6.835  0.2493  0.1926  0.3876
  860MOL0     H13497   7.317   3.245   6.744  1.0256  2.6414 -1.9101
  860MOL0     H13498   7.055   3.343   6.658  0.0974 -0.3678  1.7598
  860MOL0     H13499   7.203   3.430   6.593  0.9597 -1.2633 -1.6662
  860MOL0     H13500   7.295   3.217   6.505  0.7163  0.8358 -0.2166
  860MOL0     H13501   7.149   3.270   6.432  1.6657 -0.2228 -0.2034
  860MOL0     H13502   7.373   3.847   7.346 -0.7945 -0.6579  1.6559
  860MOL0     H13503   7.430   3.973   7.545  1.5170  1.9072 -2.1238
  860MOL0     H13504   7.563   4.072   7.903 -0.1645 -2.1361 -0.9621
  860MOL0     H13505   7.595   4.131   8.119 -2.4151 -3.7216 -3.8394
  860MOL0     H13506   9.213   4.831   8.737 -1.2759  1.6607  0.5884
  860MOL0     H13507   9.454   4.893   8.785 -1.7194 -0.3068  0.9075
  860MOL0     H13508   9.770   5.155   9.024 -2.9061 -0.0793 -1.5421
  860MOL0     H13509  10.012   5.092   9.057  2.7928  0.8532 -1.0144
  860MOL0     H13510  10.220   4.988   9.065  0.8893  1.2064  2.3433
  860MOL0     H13511  10.237   5.167   9.038  2.1231  1.0139 -1.8103
  860MOL0     H13512  10.438   5.085   9.072 -1.4044 -0.6088  0.3826
  860MOL0     H13513  10.441   4.971   8.950  0.7836 -0.2185 -1.6780
  860MOL0     H13514  10.389   5.264   8.883  1.2822  0.9152  4.4271
  860MOL0     H13515  10.445   5.125   8.780  0.8689 -1.6389  0.4901
  860MOL0     H13516  10.610   5.300   8.811 -1.7945  2.2176  1.9528
  860MOL0     H13517  10.627   5.259   8.983 -0.8377 -3.4991  0.7333
  860MOL0     H13518  10.824   4.929   8.820 -0.4923 -1.6326  2.8526
  860MOL0     H13519  10.057   5.015   8.640 -0.3408  0.1064 -0.8595
  860MOL0     H13520   9.817   5.026   8.616 -0.0506 -0.7200 -0.0000
  861MOL0     O13521  10.372   1.586  10.587 -0.1134  0.2402  0.0501
  861MOL0     C13522  10.443   1.566  10.685 -0.3108 -0.1214  0.1891
  861MOL0     O13523  10.399   1.524  10.804  0.5200 -0.4273  0.1182
  861MOL0     C13524  10.264   1.516  10.823 -0.0051  0.6556  0.5176
  861MOL0     C13525  10.212   1.606  10.915  1.1035 -1.0300  0.4556
  861MOL0     C13526  10.073   1.614  10.931  0.1316 -0.5416  0.2402
  861MOL0     C13527   9.993   1.513  10.870 -0.5103 -0.1188 -0.2289
  861MOL0     O13528   9.853   1.507  10.881 -0.1283 -0.2848 -0.1016
  861MOL0     C13529   9.778   1.632  10.891 -0.0864  0.1923 -0.4526
  861MOL0     C13530   9.627   1.596  10.915 -0.2658  0.2390  0.4190
  861MOL0     C13531   9.605   1.545  11.055  0.1696  0.6796  0.5280
  861MOL0     C13532   9.466   1.549  11.105 -1.0439 -0.6675  1.0215
  861MOL0     C13533   9.359   1.462  11.029 -0.2825  0.0563  0.0863
  861MOL0     C13534   9.238   1.470  11.115  0.5196 -0.1377  0.1359
  861MOL0     C13535   9.116   1.427  11.033 -0.0001  0.1436 -0.2088
  861MOL0     C13536   9.086   1.277  11.025  0.3570  0.3218  0.1512
  861MOL0     N13537   9.028   1.226  11.147 -0.3079 -0.1016 -0.3669
  861MOL0     C13538   9.097   1.179  11.254 -0.5607  0.0896 -0.9791
  861MOL0     C13539   8.999   1.163  11.356 -0.0155  0.3636 -1.1119
  861MOL0     C13540   8.993   1.145  11.509  0.0607  0.2311  0.7001
  861MOL0     C13541   9.060   1.009  11.550 -0.7902  0.9653 -0.3646
  861MOL0     C13542   9.027   0.942  11.684  0.3596 -0.0523 -0.8479
  861MOL0     C13543   8.877   0.895  11.693  0.2202 -0.7980 -0.4244
  861MOL0     O13544   8.845   0.810  11.584  0.2506  0.4439 -0.4684
  861MOL0     C13545   8.713   0.783  11.546  0.4011  1.1161  0.2867
  861MOL0     C13546   8.607   0.789  11.635  0.2385 -0.0693 -0.7331
  861MOL0     C13547   8.475   0.765  11.602 -0.9734  0.2081 -0.7457
  861MOL0     C13548   8.446   0.722  11.474  0.0545  0.2307 -0.2199
  861MOL0     C13549   8.307   0.681  11.439  0.4410 -0.2621 -0.2195
  861MOL0     O13550   8.202   0.697  11.525  0.1613 -0.6183  0.1274
  861MOL0     C13551   8.077   0.691  11.479  0.7184 -0.0304  0.5217
  861MOL0     C13552   7.982   0.638  11.570  0.2172 -0.9578 -0.7615
  861MOL0     C13553   7.844   0.641  11.532  0.4505  0.3971 -0.0460
  861MOL0     C13554   7.805   0.683  11.398 -0.0637 -0.1200 -0.8962
  861MOL0     O13555   7.672   0.672  11.364 -0.0458  0.0681  0.1897
  861MOL0     C13556   7.567   0.705  11.460 -0.2389 -0.5065  0.1229
  861MOL0     C13557   7.432   0.736  11.395 -0.8621  0.3241 -0.2092
  861MOL0     C13558   7.357   0.600  11.363 -0.1649  0.5731  0.2536
  861MOL0     C13559   7.241   0.612  11.260  0.7369  0.3274  0.6780
  861MOL0     C13560   7.173   0.480  11.211  0.0840  0.1233  0.6693
  861MOL0     C13561   7.090   0.513  11.085 -0.2062  0.1668 -0.8018
  861MOL0     C13562   7.023   0.389  11.028 -0.1767 -0.0278  0.4305
  861MOL0     C13563   6.918   0.324  11.112 -0.0254 -0.7702  0.1844
  861MOL0    Cl13564   6.768   0.423  11.120  0.0017 -0.3409  0.1747
  861MOL0     C13565   7.895   0.722  11.307  0.5518 -0.6518 -0.0746
  861MOL0     C13566   8.030   0.734  11.349 -0.4627  0.2654  0.1075
  861MOL0     O13567   8.296   0.631  11.330 -0.6112 -0.8072 -0.2354
  861MOL0     C13568   8.552   0.724  11.375 -0.2576  0.1651 -0.5107
  861MOL0     C13569   8.686   0.744  11.415 -0.4599  0.9451  0.5061
  861MOL0     N13570   8.880   1.199  11.287  0.1942  0.5198 -0.7401
  861MOL0     N13571   8.894   1.240  11.171  0.1076  0.9130 -0.7018
  861MOL0     C13572  10.054   1.415  10.789  0.0774 -0.8530  0.1559
  861MOL0     C13573  10.185   1.418  10.760  0.0596  0.4611  0.1128
  861MOL0     C13574  10.591   1.561  10.650  0.2003 -0.6023  0.5410
  861MOL0     C13575  10.649   1.659  10.561 -0.2593 -0.1925 -0.3459
  861MOL0     C13576  10.792   1.665  10.549 -0.1089 -0.1136  0.1336
  861MOL0     C13577  10.875   1.570  10.617  0.3510 -0.3289 -0.4690
  861MOL0     O13578  11.012   1.559  10.620  0.4891 -0.2953 -0.5779
  861MOL0     C13579  11.087   1.627  10.523  0.0405 -0.7302 -0.9226
  861MOL0     C13580  11.236   1.632  10.562 -0.5690 -0.3193 -0.2459
  861MOL0     C13581  11.285   1.681  10.705  0.1063  0.4722 -0.2900
  861MOL0     C13582  11.433   1.707  10.703  0.3349 -0.7539  0.7136
  861MOL0     C13583  11.506   1.581  10.686 -0.5521 -0.9101 -0.1746
  861MOL0     C13584  11.574   1.486  10.672 -0.6775 -0.0655 -0.3261
  861MOL0     C13585  10.814   1.471  10.701 -0.5301 -0.1717 -0.4881
  861MOL0     C13586  10.680   1.470  10.724  0.2043  0.2817  0.1505
  861MOL0     H13587  10.286   1.667  10.965  1.0050 -2.2778  2.2155
  861MOL0     H13588  10.025   1.694  10.986 -4.3165 -2.4373 -0.4535
  861MOL0     H13589   9.780   1.691  10.799 -2.7594  1.6490  0.2987
  861MOL0     H13590   9.812   1.694  10.974  2.9098  0.0082 -1.4328
  861MOL0     H13591   9.594   1.528  10.836  2.0460  0.1298 -0.5285
  861MOL0     H13592   9.572   1.687  10.891  0.0823  0.2740 -0.2712
  861MOL0     H13593   9.676   1.592  11.124 -0.4061  1.3271  0.6910
  861MOL0     H13594   9.626   1.438  11.054 -0.9862  0.4242 -1.1029
  861MOL0     H13595   9.464   1.507  11.206 -0.9480  0.9629  1.7316
  861MOL0     H13596   9.428   1.651  11.105 -1.3870 -0.5272 -4.5821
  861MOL0     H13597   9.396   1.364  10.998  1.6578  0.6488  0.4135
  861MOL0     H13598   9.344   1.513  10.933  2.1067 -0.7750 -0.7916
  861MOL0     H13599   9.220   1.570  11.154  1.7533 -0.6564  2.2066
  861MOL0     H13600   9.246   1.401  11.200 -2.6554  2.4751  2.8154
  861MOL0     H13601   9.026   1.476  11.071 -0.0284 -1.2267  1.6312
  861MOL0     H13602   9.132   1.458  10.929  1.4781 -3.2687 -1.1152
  861MOL0     H13603   9.173   1.211  11.012 -2.0107 -2.9767 -0.3537
  861MOL0     H13604   9.010   1.245  10.953  2.1290 -3.2937 -0.3413
  861MOL0     H13605   9.202   1.154  11.266 -1.1014 -2.0812 -0.3547
  861MOL0     H13606   8.886   1.145  11.530 -0.0149  0.1909  0.3269
  861MOL0     H13607   9.044   1.230  11.557  1.1976 -0.7261  1.2332
  861MOL0     H13608   9.168   1.026  11.545 -1.0698  2.9127 -0.5303
  861MOL0     H13609   9.038   0.934  11.474 -0.5473 -2.3225  2.5270
  861MOL0     H13610   9.092   0.854  11.689 -0.9893 -1.0355 -0.1579
  861MOL0     H13611   9.055   1.005  11.769 -1.5118 -3.5609  2.6993
  861MOL0     H13612   8.821   0.989  11.688 -0.0561 -0.8439  1.1884
  861MOL0     H13613   8.844   0.853  11.789  1.3617  2.9837  1.8597
  861MOL0     H13614   8.641   0.826  11.732 -2.3600  1.2526 -0.2417
  861MOL0     H13615   8.405   0.770  11.684 -0.4999 -0.2378 -0.3085
  861MOL0     H13616   8.007   0.581  11.659 -1.5002 -0.0092  0.3864
  861MOL0     H13617   7.769   0.618  11.607 -2.9882  0.4688 -3.1862
  861MOL0     H13618   7.605   0.793  11.514 -0.7211 -0.3929  0.2852
  861MOL0     H13619   7.562   0.630  11.540  3.3707  0.6402  1.6302
  861MOL0     H13620   7.441   0.788  11.299 -2.4248 -1.1609 -1.2062
  861MOL0     H13621   7.363   0.795  11.456  0.1254 -0.0518  1.3323
  861MOL0     H13622   7.314   0.553  11.452 -0.4472 -1.9209 -1.0933
  861MOL0     H13623   7.429   0.531  11.318 -1.6473 -0.7340 -0.2089
  861MOL0     H13624   7.155   0.663  11.305 -0.5130 -0.9851 -0.1180
  861MOL0     H13625   7.269   0.673  11.174  0.1954  1.3982  1.2354
  861MOL0     H13626   7.101   0.453  11.288  0.0241  0.1250  0.6144
  861MOL0     H13627   7.240   0.397  11.187 -0.2672  0.4832 -1.8908
  861MOL0     H13628   7.160   0.551  11.010  1.6402 -0.3674  0.5677
  861MOL0     H13629   7.015   0.592  11.091 -0.7091 -0.1697 -2.2043
  861MOL0     H13630   6.987   0.415  10.928  2.2154  1.5860 -0.0825
  861MOL0     H13631   7.091   0.307  11.004 -0.1237  0.4093 -1.0180
  861MOL0     H13632   6.953   0.299  11.213  2.0429 -0.7470 -0.4888
  861MOL0     H13633   6.892   0.235  11.055  3.4270 -2.2373  0.6805
  861MOL0     H13634   7.867   0.752  11.207  1.4607  1.2662  0.1878
  861MOL0     H13635   8.105   0.768  11.279  1.2415 -1.0466  1.2026
  861MOL0     H13636   8.534   0.677  11.279 -1.2469 -0.2178 -0.1554
  861MOL0     H13637   8.768   0.746  11.344 -0.4472 -1.4446  0.3708
  861MOL0     H13638   9.980   1.343  10.756 -2.3245  0.1808  2.8410
  861MOL0     H13639  10.219   1.340  10.693  0.4733 -1.8513  2.8348
  861MOL0     H13640  10.585   1.727  10.506 -4.9855 -1.5641  2.8963
  861MOL0     H13641  10.839   1.742  10.488  0.7916 -0.7580 -0.0170
  861MOL0     H13642  11.059   1.727  10.488  0.3320 -1.5157 -3.5782
  861MOL0     H13643  11.070   1.571  10.431 -1.2203 -0.3870 -0.9162
  861MOL0     H13644  11.264   1.526  10.560 -1.0546 -0.4770  0.8499
  861MOL0     H13645  11.301   1.674  10.484  0.6562 -0.0710  0.8808
  861MOL0     H13646  11.255   1.611  10.784  1.5439 -0.3066 -0.4031
  861MOL0     H13647  11.222   1.770  10.721 -1.6357 -0.5044 -1.3348
  861MOL0     H13648  11.454   1.775  10.620 -1.2626 -2.0404 -0.8163
  861MOL0     H13649  11.461   1.750  10.800  1.5760  0.1594 -0.0192
  861MOL0     H13650  11.636   1.404  10.644 -0.9990 -0.0502 -1.1312
  861MOL0     H13651  10.876   1.404  10.760 -1.1796  0.3754  0.8491
  861MOL0     H13652  10.636   1.396  10.789  1.2911 -0.9231 -0.4566
  862MOL0     O13653  11.123   3.062   9.937 -0.0680  0.9233  0.0583
  862MOL0     C13654  11.101   3.003  10.044 -0.7379  0.0746 -0.8653
  862MOL0     O13655  10.986   2.937  10.072  0.4794 -0.2628  0.1463
  862MOL0     C13656  10.906   2.887   9.969 -0.3586  0.8670 -0.5282
  862MOL0     C13657  10.776   2.862   9.996 -0.1002  0.1096 -0.7701
  862MOL0     C13658  10.685   2.817   9.901  0.2365 -0.5087 -0.7781
  862MOL0     C13659  10.730   2.782   9.778  0.0148  0.5191  1.0529
  862MOL0     O13660  10.644   2.724   9.689 -0.2878  0.0018  0.7103
  862MOL0     C13661  10.634   2.773   9.553 -0.3470  0.6454  0.2996
  862MOL0     C13662  10.490   2.775   9.511 -0.0867 -0.8171 -0.2475
  862MOL0     C13663  10.448   2.634   9.481 -0.8028  0.2350 -0.9221
  862MOL0     C13664  10.303   2.624   9.445 -0.5035 -0.5690 -0.1164
  862MOL0     C13665  10.253   2.487   9.408 -0.9255 -0.0035  0.1279
  862MOL0     C13666  10.112   2.510   9.354 -0.1950  0.7133 -0.4461
  862MOL0     C13667  10.022   2.380   9.322  0.2583  0.1564  0.5034
  862MOL0     C13668  10.071   2.302   9.199 -0.0241  0.4810 -0.4514
  862MOL0     N13669  10.008   2.165   9.183 -0.1965 -0.3063 -0.1489
  862MOL0     C13670   9.950   2.105   9.069  0.3171 -0.4091  0.2854
  862MOL0     C13671   9.933   1.980   9.111 -0.1968 -0.6978  0.5419
  862MOL0     C13672   9.883   1.879   9.013 -0.9281  0.4633 -0.2079
  862MOL0     C13673   9.744   1.837   9.048  0.0512 -0.3984 -0.7768
  862MOL0     C13674   9.635   1.943   9.020  0.2084  0.6920  0.3617
  862MOL0     C13675   9.490   1.884   9.011 -0.3912  0.2403 -0.7572
  862MOL0     O13676   9.397   1.988   9.016 -0.0249  0.1882 -0.2236
  862MOL0     C13677   9.264   1.955   9.013 -0.2411 -0.1719  0.9651
  862MOL0     C13678   9.220   1.823   9.019 -0.1989  0.4717 -0.8234
  862MOL0     C13679   9.083   1.790   8.998 -0.0888 -0.9044 -0.0176
  862MOL0     C13680   8.984   1.887   8.973  0.6179  0.0749  0.2712
  862MOL0     C13681   8.838   1.841   8.971  0.5526  1.2237  0.1429
  862MOL0     O13682   8.746   1.938   8.955 -0.6856  0.1385 -0.1885
  862MOL0     C13683   8.613   1.907   8.957 -0.1315 -0.3560  0.3555
  862MOL0     C13684   8.559   1.789   8.912 -0.5750 -0.0226  0.6710
  862MOL0     C13685   8.413   1.767   8.906 -0.0863 -1.0388 -0.3103
  862MOL0     C13686   8.325   1.878   8.944  0.3071  0.3018  0.5861
  862MOL0     O13687   8.188   1.854   8.937  0.2054 -0.0023  0.1382
  862MOL0     C13688   8.113   1.963   8.872  0.4584  0.1466 -0.2075
  862MOL0     C13689   7.967   1.919   8.856 -0.4739 -0.7849 -0.3604
  862MOL0     C13690   7.941   1.810   8.762  0.2019  0.5737 -0.2160
  862MOL0     C13691   7.810   1.726   8.790 -0.7100  0.1393  0.1021
  862MOL0     C13692   7.682   1.806   8.781  0.4468 -0.2778  0.4106
  862MOL0     C13693   7.561   1.717   8.816  0.1509 -0.2469  0.1074
  862MOL0     C13694   7.543   1.588   8.745 -0.7632  0.2003 -0.2525
  862MOL0     C13695   7.413   1.521   8.793 -0.8028  0.9218 -0.2833
  862MOL0    Cl13696   7.271   1.622   8.746 -0.0628  0.2512 -0.4001
  862MOL0     C13697   8.381   2.005   8.985 -0.1810  1.0651  0.0078
  862MOL0     C13698   8.522   2.017   8.990  0.2375  0.2520  0.1961
  862MOL0     O13699   8.821   1.721   8.996 -0.2501 -0.4947 -0.2016
  862MOL0     C13700   9.031   2.022   8.976  0.0298  0.3259 -0.0507
  862MOL0     C13701   9.165   2.055   8.998 -0.2899 -0.0034 -0.6528
  862MOL0     N13702   9.986   1.964   9.244 -0.6744  1.0351  0.6062
  862MOL0     N13703  10.022   2.078   9.286 -0.2058  0.1411 -0.0762
  862MOL0     C13704  10.870   2.795   9.745  0.4056  0.0215  0.1498
  862MOL0     C13705  10.954   2.851   9.838 -0.7053 -0.3289 -0.5676
  862MOL0     C13706  11.190   3.039  10.162 -0.0003  0.7792  0.4566
  862MOL0     C13707  11.191   2.958  10.278 -0.5041 -0.0534 -1.0071
  862MOL0     C13708  11.276   2.974  10.383 -0.2779 -0.6112 -1.0715
  862MOL0     C13709  11.372   3.075  10.380 -0.3547 -0.1324  0.3269
  862MOL0     O13710  11.475   3.072  10.469  0.4915 -0.5542  0.0604
  862MOL0     C13711  11.480   2.983  10.584  0.7365  0.0261  1.1213
  862MOL0     C13712  11.475   3.075  10.704 -0.3955  0.8273 -0.4636
  862MOL0     C13713  11.480   2.994  10.846  0.0196 -0.2025  1.5102
  862MOL0     C13714  11.466   3.099  10.955  0.1781 -0.2071 -0.5790
  862MOL0     C13715  11.418   3.031  11.073  0.6923  0.5479  0.1893
  862MOL0     C13716  11.368   2.984  11.176 -0.1323 -0.6391 -0.0570
  862MOL0     C13717  11.378   3.155  10.261 -0.2160  0.4814  0.6116
  862MOL0     C13718  11.289   3.139  10.155  0.5941  0.0758  0.2729
  862MOL0     H13719  10.745   2.899  10.093 -1.1121 -2.3327 -0.0893
  862MOL0     H13720  10.580   2.798   9.921  0.3822 -1.8551 -1.2109
  862MOL0     H13721  10.691   2.708   9.486  0.5262  0.3829  1.2778
  862MOL0     H13722  10.687   2.868   9.540  1.0035 -0.2127 -0.8019
  862MOL0     H13723  10.463   2.832   9.422 -4.3497 -1.3021  0.5144
  862MOL0     H13724  10.422   2.817   9.586  0.6276  0.7932 -0.4650
  862MOL0     H13725  10.478   2.573   9.566 -2.7616 -2.1635 -1.8406
  862MOL0     H13726  10.505   2.591   9.399  3.1147  2.2676  0.4938
  862MOL0     H13727  10.256   2.656   9.538 -0.9748 -0.4474 -0.3976
  862MOL0     H13728  10.295   2.696   9.363  0.6850 -0.5729 -0.2668
  862MOL0     H13729  10.250   2.424   9.497  0.0002  0.8458  0.7952
  862MOL0     H13730  10.311   2.450   9.323 -2.0316  0.8479 -1.0398
  862MOL0     H13731  10.129   2.561   9.258  1.2513  0.3783 -0.3927
  862MOL0     H13732  10.055   2.575   9.422 -1.5044  1.0874 -1.8357
  862MOL0     H13733  10.032   2.310   9.405  0.7327  1.1413  1.2977
  862MOL0     H13734   9.921   2.418   9.300  0.6939  0.2407 -1.5851
  862MOL0     H13735  10.178   2.283   9.216  0.3836  3.4866  1.0500
  862MOL0     H13736  10.055   2.366   9.112  0.4403  1.3564  0.0954
  862MOL0     H13737   9.933   2.159   8.976 -0.1313  2.4543  1.8938
  862MOL0     H13738   9.951   1.794   9.024 -0.1856  1.0189 -0.4176
  862MOL0     H13739   9.887   1.893   8.905 -0.9385  0.3032 -0.2293
  862MOL0     H13740   9.743   1.811   9.155 -0.7624 -0.4866 -0.7994
  862MOL0     H13741   9.719   1.747   8.991 -1.6831  0.7666 -1.9519
  862MOL0     H13742   9.646   2.017   9.099 -1.9615  1.5207 -0.0532
  862MOL0     H13743   9.662   1.993   8.926  0.1320  0.3929  0.1803
  862MOL0     H13744   9.498   1.823   9.102  2.3636  0.6172 -0.6666
  862MOL0     H13745   9.485   1.825   8.919 -2.2178  1.4182 -1.4902
  862MOL0     H13746   9.293   1.745   9.035  0.1249  0.2598 -2.9837
  862MOL0     H13747   9.059   1.686   9.020 -2.2217 -0.2969  0.8098
  862MOL0     H13748   8.618   1.707   8.873  2.1333  1.4503  1.3842
  862MOL0     H13749   8.370   1.678   8.862 -2.7336  1.0112 -2.1851
  862MOL0     H13750   8.165   1.992   8.780  1.0371 -0.9980 -0.2669
  862MOL0     H13751   8.113   2.046   8.942 -4.1593  0.1432  0.0618
  862MOL0     H13752   7.903   2.006   8.839 -1.0660 -0.9452  0.9229
  862MOL0     H13753   7.931   1.876   8.950  0.1990 -0.5867 -0.0029
  862MOL0     H13754   8.023   1.739   8.771 -1.8357 -1.7780  1.3210
  862MOL0     H13755   7.928   1.850   8.661  0.1736 -0.7020 -0.7377
  862MOL0     H13756   7.800   1.637   8.727  1.2341  0.9554 -1.4614
  862MOL0     H13757   7.817   1.695   8.895 -1.4317 -0.5032 -0.0326
  862MOL0     H13758   7.663   1.832   8.677  0.6009  0.2656  0.5139
  862MOL0     H13759   7.680   1.898   8.841 -3.0336 -1.0316  1.7041
  862MOL0     H13760   7.476   1.783   8.799  1.7942  2.3859  1.4653
  862MOL0     H13761   7.571   1.685   8.920 -0.1281  1.3247  0.6501
  862MOL0     H13762   7.555   1.608   8.638 -0.5590  0.0298 -0.2633
  862MOL0     H13763   7.627   1.531   8.785  2.1578  4.1590 -0.2086
  862MOL0     H13764   7.414   1.510   8.902 -2.5077 -1.1506 -0.4134
  862MOL0     H13765   7.401   1.421   8.750 -0.0570  0.8886 -0.4283
  862MOL0     H13766   8.320   2.092   9.002 -0.3307  0.7989  0.9249
  862MOL0     H13767   8.562   2.113   9.022  1.0779 -0.1157  0.2759
  862MOL0     H13768   8.956   2.101   8.977  0.5653  0.9052  2.5120
  862MOL0     H13769   9.195   2.159   9.006 -0.8034  0.1687 -0.9348
  862MOL0     H13770  10.921   2.759   9.656  5.1558  3.1623  1.2377
  862MOL0     H13771  11.059   2.868   9.818 -1.0512  2.0908 -0.5707
  862MOL0     H13772  11.109   2.887  10.293 -1.7890  1.7009  0.9184
  862MOL0     H13773  11.262   2.910  10.469  0.0653  1.8581  0.9330
  862MOL0     H13774  11.576   2.931  10.577  0.2489 -0.8148  0.5470
  862MOL0     H13775  11.411   2.898  10.585  0.1634  0.3290 -2.1349
  862MOL0     H13776  11.549   3.156  10.700 -1.8468  2.2402  0.2870
  862MOL0     H13777  11.378   3.124  10.697 -0.9949 -0.4679 -1.6573
  862MOL0     H13778  11.581   2.954  10.857 -0.6199 -1.9913  1.0995
  862MOL0     H13779  11.397   2.924  10.856  0.3390 -0.4739  2.3138
  862MOL0     H13780  11.561   3.146  10.981 -0.4596  1.0667 -0.4380
  862MOL0     H13781  11.395   3.179  10.931  0.5388  0.1206 -0.5606
  862MOL0     H13782  11.339   2.940  11.269  2.4213 -2.2249  0.0737
  862MOL0     H13783  11.457   3.225  10.237 -1.9479  2.1810 -0.4590
  862MOL0     H13784  11.294   3.203  10.067 -1.3674 -1.0747 -0.7727
  863MOL0     O13785   7.841   5.337   9.066 -0.1787 -0.0235  0.2512
  863MOL0     C13786   7.876   5.434   9.129 -0.7967 -0.3090  0.0453
  863MOL0     O13787   7.793   5.524   9.182 -0.2565 -0.8212  0.3961
  863MOL0     C13788   7.656   5.520   9.168 -0.1991 -0.4248  0.3677
  863MOL0     C13789   7.578   5.533   9.281  0.3016 -0.9328 -0.0020
  863MOL0     C13790   7.433   5.534   9.268  0.1123 -0.6318 -0.6950
  863MOL0     C13791   7.368   5.523   9.147  0.3063  0.7781 -0.8656
  863MOL0     O13792   7.233   5.532   9.137  0.3593 -0.5622  0.8274
  863MOL0     C13793   7.157   5.481   9.028  1.0930 -0.2749  0.3223
  863MOL0     C13794   7.081   5.363   9.070  0.0370  0.0766  0.3028
  863MOL0     C13795   6.937   5.404   9.087 -0.2694 -0.3302 -0.3379
  863MOL0     C13796   6.909   5.500   9.205  0.9616  0.5869  0.0111
  863MOL0     C13797   6.773   5.560   9.208 -0.4550 -0.2493  0.0194
  863MOL0     C13798   6.665   5.469   9.161 -0.3613 -0.5641  0.6303
  863MOL0     C13799   6.527   5.537   9.182 -0.7910 -1.0037 -1.0296
  863MOL0     C13800   6.499   5.665   9.099 -0.2080 -0.2420 -0.4137
  863MOL0     N13801   6.359   5.711   9.103  0.0214  0.4411  0.3752
  863MOL0     C13802   6.244   5.639   9.066  0.2532  0.4130  0.3007
  863MOL0     C13803   6.150   5.728   9.046 -0.1021  0.0054  0.2347
  863MOL0     C13804   6.018   5.683   8.992 -0.2005 -0.0842  0.6559
  863MOL0     C13805   5.956   5.787   8.895 -0.3293 -0.9538 -0.5241
  863MOL0     C13806   6.041   5.801   8.764  0.0926 -0.3612 -0.0661
  863MOL0     C13807   5.978   5.882   8.649 -0.6390  0.3562  0.2276
  863MOL0     O13808   5.900   5.993   8.686 -0.4003 -0.5201  0.1616
  863MOL0     C13809   5.772   6.012   8.639  0.7237 -0.2265 -0.3905
  863MOL0     C13810   5.650   5.951   8.682 -0.6158 -0.0753 -0.5102
  863MOL0     C13811   5.528   5.989   8.622 -0.2849 -0.0207  0.0746
  863MOL0     C13812   5.525   6.077   8.520  0.4677  0.0628  0.6031
  863MOL0     C13813   5.400   6.136   8.464  0.3023  0.4688 -0.2794
  863MOL0     O13814   5.410   6.235   8.369 -0.1892 -0.0602  0.4643
  863MOL0     C13815   5.296   6.279   8.304  0.5221  0.1651  0.7824
  863MOL0     C13816   5.198   6.194   8.249 -0.5591  0.5958 -0.1059
  863MOL0     C13817   5.080   6.245   8.195 -0.8927 -0.8616  0.0803
  863MOL0     C13818   5.063   6.385   8.174 -0.0609  0.2698 -0.9220
  863MOL0     O13819   4.950   6.443   8.132  0.8886  0.3736  0.4126
  863MOL0     C13820   4.836   6.373   8.077 -0.3496  0.6744  0.3525
  863MOL0     C13821   4.735   6.309   8.164  0.5813  0.6686  0.1531
  863MOL0     C13822   4.639   6.217   8.085 -0.7010  0.4988 -0.0903
  863MOL0     C13823   4.498   6.212   8.147  0.3020 -0.5490  0.3515
  863MOL0     C13824   4.408   6.114   8.072  0.0682 -0.1556 -0.1462
  863MOL0     C13825   4.268   6.125   8.114  0.5647  0.0251 -0.1942
  863MOL0     C13826   4.177   6.034   8.033  0.5371 -0.2637  0.3526
  863MOL0     C13827   4.027   6.058   8.041  0.1381 -0.3938 -0.7195
  863MOL0    Cl13828   3.940   5.970   8.176 -0.1090  0.1339  0.0345
  863MOL0     C13829   5.169   6.466   8.207  0.3835  0.0653  0.1654
  863MOL0     C13830   5.285   6.419   8.275  0.6017  0.5978 -0.0210
  863MOL0     O13831   5.299   6.094   8.519  0.2268  0.0763  0.1255
  863MOL0     C13832   5.650   6.136   8.480  0.3643 -0.1355  0.1369
  863MOL0     C13833   5.766   6.099   8.538 -0.3107 -0.8959  0.0701
  863MOL0     N13834   6.200   5.850   9.091  0.5021  0.2484 -0.5594
  863MOL0     N13835   6.327   5.840   9.122  0.2721 -0.8998 -0.3699
  863MOL0     C13836   7.448   5.516   9.030  0.1209  0.2052 -0.3990
  863MOL0     C13837   7.586   5.520   9.045  0.3344 -0.0590  1.3761
  863MOL0     C13838   8.017   5.442   9.162  0.8183  0.5570 -0.5346
  863MOL0     C13839   8.080   5.556   9.222  1.2066  0.9729 -0.6535
  863MOL0     C13840   8.219   5.556   9.256  0.6347 -0.2978  0.1965
  863MOL0     C13841   8.290   5.436   9.235 -0.2108 -0.0995  0.3930
  863MOL0     O13842   8.425   5.421   9.269  0.5574 -0.8164  0.3269
  863MOL0     C13843   8.509   5.538   9.271  0.3968  0.3695 -0.2357
  863MOL0     C13844   8.655   5.490   9.285  0.3539 -0.1988  0.9254
  863MOL0     C13845   8.743   5.598   9.342 -0.2460  0.0022 -0.5813
  863MOL0     C13846   8.783   5.697   9.238  0.2515 -0.5511 -0.2991
  863MOL0     C13847   8.873   5.655   9.129 -0.2682 -0.0397  0.4910
  863MOL0     C13848   8.952   5.615   9.048  0.5269  0.5581  0.1082
  863MOL0     C13849   8.228   5.325   9.174  0.0196 -0.2467 -0.0345
  863MOL0     C13850   8.094   5.329   9.142  0.1704  0.4483  0.4520
  863MOL0     H13851   7.622   5.559   9.376 -1.5649  1.3245  0.3244
  863MOL0     H13852   7.375   5.550   9.358  1.4781 -2.0887  0.5064
  863MOL0     H13853   7.223   5.449   8.947  2.5573 -1.7682  2.0237
  863MOL0     H13854   7.089   5.559   8.991  4.1192  3.0849  1.3322
  863MOL0     H13855   7.124   5.327   9.164  2.1135 -1.8138 -1.2625
  863MOL0     H13856   7.083   5.272   9.009 -3.8977 -3.6036  4.8546
  863MOL0     H13857   6.881   5.311   9.103  0.4416 -0.6447  0.3808
  863MOL0     H13858   6.904   5.452   8.995 -0.0275  1.5182  0.4940
  863MOL0     H13859   6.934   5.456   9.302 -2.9419  0.5519  1.1843
  863MOL0     H13860   6.988   5.574   9.193  2.6962 -0.8331  1.8752
  863MOL0     H13861   6.770   5.651   9.146 -2.8522 -0.6486 -0.5750
  863MOL0     H13862   6.759   5.580   9.314  0.0396 -1.6980  0.3790
  863MOL0     H13863   6.670   5.383   9.228  3.1199  1.2518  3.0389
  863MOL0     H13864   6.678   5.448   9.054  0.5605 -0.0741  0.6352
  863MOL0     H13865   6.443   5.474   9.153 -1.5849  0.3493 -1.7940
  863MOL0     H13866   6.509   5.567   9.285  2.8676  2.6401 -1.2021
  863MOL0     H13867   6.537   5.655   8.996  1.4440 -1.9384  0.2937
  863MOL0     H13868   6.550   5.743   9.155 -0.8997  1.4982 -2.0693
  863MOL0     H13869   6.239   5.532   9.050 -1.5559  0.5240 -0.1226
  863MOL0     H13870   5.958   5.674   9.082 -2.5219  1.3173 -0.6641
  863MOL0     H13871   6.026   5.578   8.960 -2.9163 -0.4491  0.9561
  863MOL0     H13872   5.945   5.889   8.934 -1.5645 -0.1941 -2.7164
  863MOL0     H13873   5.854   5.753   8.875 -0.9858  0.0388  1.0081
  863MOL0     H13874   6.132   5.853   8.795  0.1338 -0.3679 -0.1765
  863MOL0     H13875   6.079   5.706   8.725  1.4751  0.1615 -0.0642
  863MOL0     H13876   5.916   5.818   8.585 -0.0127  1.5343 -1.6292
  863MOL0     H13877   6.062   5.914   8.587  0.1105  0.2365  1.1382
  863MOL0     H13878   5.640   5.869   8.752 -2.3776  0.9590  0.5197
  863MOL0     H13879   5.432   5.953   8.658 -1.5077  1.8540 -1.1768
  863MOL0     H13880   5.216   6.087   8.258 -0.3429  0.3290 -2.9007
  863MOL0     H13881   4.993   6.183   8.177 -2.1869  1.0760 -0.7891
  863MOL0     H13882   4.876   6.313   7.995 -0.0942  1.9060 -0.4438
  863MOL0     H13883   4.781   6.447   8.018 -1.4716 -0.3529  0.0725
  863MOL0     H13884   4.679   6.386   8.217 -0.7364  0.3023 -0.6446
  863MOL0     H13885   4.781   6.247   8.241  0.2497 -0.7228 -0.7209
  863MOL0     H13886   4.684   6.120   8.065  1.5888  1.9902 -3.0660
  863MOL0     H13887   4.628   6.259   7.984 -1.2594 -0.5711 -0.4947
  863MOL0     H13888   4.510   6.178   8.250 -0.3770 -1.0795  0.2618
  863MOL0     H13889   4.441   6.305   8.148  0.2773 -0.4727 -2.3104
  863MOL0     H13890   4.448   6.015   8.097  2.2138  0.6386 -0.2044
  863MOL0     H13891   4.427   6.128   7.965 -1.3114 -4.3221 -1.1436
  863MOL0     H13892   4.244   6.228   8.087 -0.1242  0.0944  0.6189
  863MOL0     H13893   4.266   6.099   8.221 -0.8628 -3.4451 -0.9468
  863MOL0     H13894   4.204   6.023   7.928  0.3312 -0.0839  0.2800
  863MOL0     H13895   4.199   5.933   8.068 -3.2855 -0.4935  2.5683
  863MOL0     H13896   3.976   6.016   7.954 -1.6225  1.0117 -0.4264
  863MOL0     H13897   4.014   6.167   8.048  0.2897 -0.3904 -0.4768
  863MOL0     H13898   5.158   6.572   8.185  1.7842 -0.1271 -1.6407
  863MOL0     H13899   5.371   6.483   8.296  0.7033  0.5174 -0.1898
  863MOL0     H13900   5.656   6.208   8.399 -1.4049 -0.7373 -0.5777
  863MOL0     H13901   5.857   6.155   8.518 -1.1779  1.7002  2.7090
  863MOL0     H13902   7.402   5.504   8.933 -2.0369 -4.0758  0.8742
  863MOL0     H13903   7.653   5.523   8.959  0.0597  2.0595  1.2023
  863MOL0     H13904   8.018   5.645   9.230  1.0621  0.8556 -0.4499
  863MOL0     H13905   8.256   5.647   9.301 -3.8162  1.2761  1.2509
  863MOL0     H13906   8.481   5.590   9.363 -1.1223  0.9670 -1.0093
  863MOL0     H13907   8.495   5.598   9.181  1.6107 -1.4283 -1.6912
  863MOL0     H13908   8.652   5.409   9.359 -0.5440  3.0013  4.7655
  863MOL0     H13909   8.693   5.446   9.193 -2.7507  3.1633 -2.2681
  863MOL0     H13910   8.834   5.563   9.391  1.2167  3.7481 -0.3442
  863MOL0     H13911   8.685   5.649   9.419 -0.2064 -2.3045  1.0988
  863MOL0     H13912   8.701   5.750   9.189  0.0687  1.1294  1.6418
  863MOL0     H13913   8.848   5.769   9.290 -0.3280  1.2110 -1.8839
  863MOL0     H13914   9.015   5.570   8.973 -1.8003  0.6540 -2.0587
  863MOL0     H13915   8.277   5.231   9.152 -2.0780 -1.3991 -0.0682
  863MOL0     H13916   8.052   5.236   9.105  0.1866  0.8727 -0.6722
  864MOL0     O13917   0.759   6.816   9.136  0.1865  0.3718  0.2501
  864MOL0     C13918   0.725   6.936   9.122 -0.4246 -0.5616 -0.7641
  864MOL0     O13919   0.810   7.046   9.133  0.0392  0.0136  0.3573
  864MOL0     C13920   0.947   7.029   9.146 -0.3270 -0.3154  0.2848
  864MOL0     C13921   1.020   7.139   9.185 -0.1155  0.2340  0.1024
  864MOL0     C13922   1.156   7.140   9.183 -0.2152 -0.3670  0.5247
  864MOL0     C13923   1.228   7.027   9.135  0.6947 -1.0027  0.1010
  864MOL0     O13924   1.362   7.038   9.134  0.0890 -0.0664 -0.1960
  864MOL0     C13925   1.440   6.926   9.108  0.1244  0.1856  0.4155
  864MOL0     C13926   1.586   6.957   9.150 -0.2420  0.0850 -0.8698
  864MOL0     C13927   1.678   6.831   9.178 -0.1152 -1.0608  0.5330
  864MOL0     C13928   1.803   6.880   9.262 -0.0785 -0.3890  1.0089
  864MOL0     C13929   1.893   6.758   9.302  0.2789 -0.4218 -0.2449
  864MOL0     C13930   1.834   6.684   9.418 -0.2427  0.0936  0.7698
  864MOL0     C13931   1.934   6.591   9.493  0.1918  0.3695  0.4616
  864MOL0     C13932   1.955   6.452   9.430 -0.5823  0.2076 -0.2329
  864MOL0     N13933   1.838   6.369   9.453  0.1112  0.2564  0.8763
  864MOL0     C13934   1.803   6.298   9.562 -0.5921 -0.4571 -0.2339
  864MOL0     C13935   1.681   6.250   9.534  0.5473  1.0526 -0.6672
  864MOL0     C13936   1.595   6.170   9.632  1.1801  0.4705 -0.3540
  864MOL0     C13937   1.445   6.188   9.627 -0.5723  0.3209  0.1908
  864MOL0     C13938   1.379   6.091   9.724  0.3825 -0.1963 -0.7893
  864MOL0     C13939   1.235   6.056   9.691 -0.3818 -0.1675 -0.4895
  864MOL0     O13940   1.199   5.938   9.769  0.0769 -0.6097 -0.3226
  864MOL0     C13941   1.081   5.885   9.727  0.3355  0.2349  0.9991
  864MOL0     C13942   1.076   5.746   9.751  0.0174  0.3781 -0.5475
  864MOL0     C13943   0.962   5.673   9.720  0.8213  0.4421  0.6346
  864MOL0     C13944   0.851   5.743   9.665  0.1157 -0.1054  0.9773
  864MOL0     C13945   0.722   5.681   9.645 -0.4370  0.0270  0.0422
  864MOL0     O13946   0.610   5.758   9.625  0.2252  0.0915 -0.2731
  864MOL0     C13947   0.493   5.694   9.648 -0.3056 -0.1192  0.3904
  864MOL0     C13948   0.419   5.642   9.540  0.2299 -0.3139  0.2755
  864MOL0     C13949   0.300   5.572   9.571  0.4081 -0.8541 -0.0471
  864MOL0     C13950   0.238   5.566   9.698 -0.3419 -0.6701  0.3886
  864MOL0     O13951   0.131   5.489   9.725 -0.1368 -0.8845  0.9255
  864MOL0     C13952   0.020   5.512   9.647  0.0482  0.7778  0.3601
  864MOL0     C13953  -0.053   5.375   9.646 -0.4674 -0.1878  0.0324
  864MOL0     C13954  -0.208   5.395   9.632  0.5884 -0.4250 -0.1283
  864MOL0     C13955  -0.292   5.267   9.645 -0.3787  0.9532  0.5067
  864MOL0     C13956  -0.446   5.299   9.645  0.5755  0.7373 -0.0720
  864MOL0     C13957  -0.529   5.164   9.668  0.1102 -0.7131 -0.3967
  864MOL0     C13958  -0.676   5.204   9.661 -0.1305  0.5266 -0.5334
  864MOL0     C13959  -0.770   5.077   9.669 -0.4746 -0.1316  0.3780
  864MOL0    Cl13960  -0.762   5.035   9.846 -0.1433 -0.2184 -0.3669
  864MOL0     C13961   0.309   5.634   9.800 -0.0669  0.5092  0.0408
  864MOL0     C13962   0.433   5.692   9.775  0.1513 -0.2495  0.4321
  864MOL0     O13963   0.732   5.560   9.638  0.8425  0.0791 -0.4746
  864MOL0     C13964   0.858   5.878   9.634  0.3085 -0.5057 -0.3930
  864MOL0     C13965   0.971   5.950   9.668  0.1683  0.5403  0.8871
  864MOL0     N13966   1.636   6.287   9.416 -0.2996  0.6627  0.0841
  864MOL0     N13967   1.732   6.362   9.371 -0.6611 -0.0233  0.0184
  864MOL0     C13968   1.155   6.913   9.091  0.1276  0.2906 -0.3107
  864MOL0     C13969   1.019   6.914   9.093  0.1755 -0.1912  0.1577
  864MOL0     C13970   0.575   6.961   9.134  0.1073 -0.5875 -0.9073
  864MOL0     C13971   0.480   6.856   9.100 -0.3543 -0.5530 -0.5053
  864MOL0     C13972   0.340   6.884   9.086 -1.0905 -0.3855  0.8581
  864MOL0     C13973   0.299   7.017   9.114  0.1444 -0.0086 -0.4582
  864MOL0     O13974   0.164   7.041   9.095 -0.6806  0.2126  0.2412
  864MOL0     C13975   0.112   7.164   9.161  0.1526 -0.2467 -0.2783
  864MOL0     C13976  -0.041   7.171   9.159  0.4546  1.2644  0.1024
  864MOL0     C13977  -0.095   7.214   9.018 -0.7607  0.2385  0.6734
  864MOL0     C13978  -0.060   7.115   8.904  0.5231  0.1438 -0.0334
  864MOL0     C13979  -0.095   6.970   8.922  0.0949 -1.1342  0.4129
  864MOL0     C13980  -0.107   6.848   8.915 -0.6060 -0.4209 -0.1068
  864MOL0     C13981   0.394   7.110   9.164  0.5142 -0.0402 -0.5271
  864MOL0     C13982   0.521   7.083   9.175 -0.4131  0.2187  1.0479
  864MOL0     H13983   0.975   7.228   9.228 -0.5293 -0.2034  0.5944
  864MOL0     H13984   1.197   7.234   9.218 -0.0558 -0.5705  0.8947
  864MOL0     H13985   1.432   6.890   9.005  1.5770 -1.6756  0.8861
  864MOL0     H13986   1.408   6.838   9.166  0.4825 -0.2526 -0.0448
  864MOL0     H13987   1.577   7.011   9.245 -0.9624 -1.5647  0.0376
  864MOL0     H13988   1.632   7.032   9.084  0.8988  2.1895  2.1082
  864MOL0     H13989   1.705   6.802   9.076 -1.3002 -0.8964  0.1548
  864MOL0     H13990   1.618   6.751   9.222 -3.8348  0.3332 -1.5325
  864MOL0     H13991   1.861   6.953   9.205  0.4660  1.5604  3.8207
  864MOL0     H13992   1.767   6.944   9.343 -0.0792  2.0972 -0.8695
  864MOL0     H13993   1.990   6.792   9.339 -0.7416  0.9218  1.3269
  864MOL0     H13994   1.903   6.694   9.213 -1.5698 -3.4282  1.5642
  864MOL0     H13995   1.750   6.630   9.372  1.4107 -2.6153  0.7253
  864MOL0     H13996   1.789   6.753   9.489 -0.8316  2.0154 -1.3386
  864MOL0     H13997   2.028   6.648   9.488 -0.1268  0.8612 -3.4282
  864MOL0     H13998   1.891   6.576   9.592 -0.8388  1.6928  0.2438
  864MOL0     H13999   2.039   6.393   9.469  0.2456  0.3156 -1.7670
  864MOL0     H14000   1.971   6.466   9.323  2.6961 -0.1152  0.0934
  864MOL0     H14001   1.855   6.286   9.657 -0.0274  2.1334 -0.1270
  864MOL0     H14002   1.636   6.187   9.733  1.9824 -0.6453 -0.4726
  864MOL0     H14003   1.613   6.068   9.598 -0.9865  0.0222 -0.2824
  864MOL0     H14004   1.415   6.171   9.523 -0.2373 -1.0981  0.3070
  864MOL0     H14005   1.416   6.290   9.652 -0.2133  0.0378  1.8784
  864MOL0     H14006   1.440   6.001   9.733  0.8095  0.1673  0.0712
  864MOL0     H14007   1.379   6.133   9.825 -2.5317 -0.3732 -0.6259
  864MOL0     H14008   1.225   6.024   9.587 -1.8943  1.5653 -0.9261
  864MOL0     H14009   1.163   6.136   9.708  1.6612  2.1169 -1.7650
  864MOL0     H14010   1.165   5.704   9.796  3.2847  1.0758 -5.5793
  864MOL0     H14011   0.950   5.575   9.766 -1.3193  1.0528  1.4428
  864MOL0     H14012   0.461   5.649   9.440 -2.9830  3.4472 -1.0797
  864MOL0     H14013   0.244   5.537   9.484  0.2394  0.2667 -0.4037
  864MOL0     H14014   0.038   5.561   9.550  2.0469 -0.5650 -0.0234
  864MOL0     H14015  -0.039   5.581   9.707  1.5995  1.0732  1.6212
  864MOL0     H14016  -0.031   5.318   9.736  1.8431  2.1738  1.0924
  864MOL0     H14017  -0.015   5.313   9.564  3.8440  3.2329 -0.9462
  864MOL0     H14018  -0.225   5.435   9.532  3.7721 -2.0842 -1.4671
  864MOL0     H14019  -0.243   5.461   9.712  0.5932 -1.8703  1.1248
  864MOL0     H14020  -0.255   5.200   9.567 -1.6413  0.6095  0.1854
  864MOL0     H14021  -0.276   5.205   9.734  0.4908 -1.7612 -1.4040
  864MOL0     H14022  -0.478   5.344   9.551 -1.8679  0.6087  0.6157
  864MOL0     H14023  -0.478   5.370   9.722 -1.9296 -2.9298  2.6472
  864MOL0     H14024  -0.499   5.116   9.762  1.5718  2.5281  0.9438
  864MOL0     H14025  -0.515   5.093   9.586 -3.6741 -1.6356 -0.4018
  864MOL0     H14026  -0.694   5.273   9.744  0.6559 -1.3826  1.3102
  864MOL0     H14027  -0.695   5.266   9.573  1.5317  0.4742 -0.9641
  864MOL0     H14028  -0.730   4.999   9.605 -1.0542  1.2279 -1.7370
  864MOL0     H14029  -0.872   5.110   9.651 -1.1602 -1.2871  1.8959
  864MOL0     H14030   0.269   5.621   9.900 -1.4580 -0.8652 -0.6522
  864MOL0     H14031   0.490   5.751   9.846 -0.0854  2.6206 -1.5971
  864MOL0     H14032   0.783   5.943   9.590  0.5614 -1.0062 -1.5806
  864MOL0     H14033   0.964   6.058   9.656 -3.0495  0.2378 -0.9850
  864MOL0     H14034   1.213   6.826   9.060 -0.4181 -0.0689 -0.3424
  864MOL0     H14035   0.966   6.828   9.052  1.0942 -0.9987  0.6008
  864MOL0     H14036   0.525   6.760   9.075  0.8239 -0.9765  2.6607
  864MOL0     H14037   0.275   6.812   9.039  0.7378 -2.4360  1.2812
  864MOL0     H14038   0.146   7.259   9.119 -0.2590 -0.4561 -1.0935
  864MOL0     H14039   0.152   7.157   9.263 -0.7147  0.7655  0.1529
  864MOL0     H14040  -0.085   7.077   9.194 -1.5770 -0.0353 -5.0144
  864MOL0     H14041  -0.084   7.246   9.226  0.9724  1.0186  0.7220
  864MOL0     H14042  -0.044   7.310   9.003  1.1422 -0.8083  0.0743
  864MOL0     H14043  -0.204   7.223   9.026 -1.1676 -0.8950 -2.2721
  864MOL0     H14044  -0.117   7.139   8.814  0.0017 -5.3455 -1.5443
  864MOL0     H14045   0.048   7.120   8.887  0.3390 -0.5376 -1.5867
  864MOL0     H14046  -0.111   6.741   8.912  0.1878 -0.4368 -1.3680
  864MOL0     H14047   0.363   7.210   9.194 -2.0455 -0.2478 -2.1590
  864MOL0     H14048   0.583   7.168   9.205 -2.0249  1.3324  1.3433
  865MOL0     O14049   5.676   1.690   1.895 -0.4459 -0.5190 -0.7498
  865MOL0     C14050   5.664   1.726   1.780 -0.9394 -0.1482  0.6580
  865MOL0     O14051   5.757   1.803   1.708 -0.0439 -1.0131 -0.3775
  865MOL0     C14052   5.881   1.835   1.758  0.9931 -0.1334  0.3935
  865MOL0     C14053   5.933   1.953   1.705  0.2820 -0.5617 -0.5084
  865MOL0     C14054   6.060   2.001   1.742  0.5495  0.4114 -0.3306
  865MOL0     C14055   6.140   1.917   1.819 -1.2858 -0.3793 -0.6622
  865MOL0     O14056   6.271   1.957   1.833  0.0636  0.6642  0.1966
  865MOL0     C14057   6.369   1.848   1.861  1.1069  0.4662  0.9005
  865MOL0     C14058   6.521   1.871   1.855 -0.0033 -0.1242  0.1503
  865MOL0     C14059   6.598   1.743   1.898  0.1754 -0.0562 -0.3516
  865MOL0     C14060   6.747   1.759   1.858  0.2416  0.2128  0.2285
  865MOL0     C14061   6.844   1.667   1.937 -0.7868  1.1068 -0.1456
  865MOL0     C14062   6.987   1.718   1.928  1.0466 -0.7994  0.1748
  865MOL0     C14063   7.096   1.606   1.970  1.0462  0.5102  0.3363
  865MOL0     C14064   7.232   1.675   1.941  0.4063  0.2545 -0.7633
  865MOL0     N14065   7.245   1.818   1.976 -0.0509  0.6401  0.4775
  865MOL0     C14066   7.292   1.868   2.098 -0.2636  0.1256 -0.5023
  865MOL0     C14067   7.295   2.001   2.084  0.1871 -0.4633 -1.4474
  865MOL0     C14068   7.330   2.107   2.187  0.1585  0.6134  0.6617
  865MOL0     C14069   7.486   2.128   2.184  0.2812  0.2181  0.6723
  865MOL0     C14070   7.511   2.231   2.297  0.0545  0.1606 -0.1051
  865MOL0     C14071   7.657   2.266   2.305 -0.0139 -0.5019 -0.0208
  865MOL0     O14072   7.683   2.376   2.402 -0.5079 -0.5964 -0.6164
  865MOL0     C14073   7.734   2.346   2.531  0.0616  0.1150  0.2972
  865MOL0     C14074   7.696   2.236   2.600  0.2847 -0.1862 -0.6370
  865MOL0     C14075   7.760   2.207   2.720  0.7834  0.2655  0.2357
  865MOL0     C14076   7.860   2.287   2.766  0.5830  0.2347 -0.7186
  865MOL0     C14077   7.923   2.258   2.898  0.2923 -0.1102  0.7199
  865MOL0     O14078   7.941   2.356   2.988  0.3889 -0.0457 -0.8996
  865MOL0     C14079   8.055   2.382   3.063  0.1912 -0.1952  0.4030
  865MOL0     C14080   8.167   2.295   3.069 -0.2369 -1.0045  1.2047
  865MOL0     C14081   8.286   2.337   3.129  0.3863 -0.5577  0.4511
  865MOL0     C14082   8.295   2.457   3.195 -0.8620  0.2543  1.0497
  865MOL0     O14083   8.417   2.475   3.255 -0.4676  1.0099  0.2623
  865MOL0     C14084   8.431   2.576   3.354  0.0391  0.0533  0.2237
  865MOL0     C14085   8.574   2.596   3.388  0.2002  0.7114  0.3979
  865MOL0     C14086   8.653   2.466   3.411  0.2732  0.3870 -0.6156
  865MOL0     C14087   8.801   2.499   3.449 -0.0796  0.1114 -0.1311
  865MOL0     C14088   8.862   2.359   3.487  0.9710 -0.2165 -0.2389
  865MOL0     C14089   9.014   2.372   3.479 -0.2047  0.3049  0.1034
  865MOL0     C14090   9.069   2.233   3.528 -0.0866  0.3109 -0.8116
  865MOL0     C14091   9.219   2.245   3.527 -0.0145 -0.6802 -0.1169
  865MOL0    Cl14092   9.269   2.275   3.360  0.3173  0.1047  0.2088
  865MOL0     C14093   8.184   2.535   3.206 -0.0257  0.9296  0.1647
  865MOL0     C14094   8.059   2.504   3.144  0.0469  0.7368  0.6152
  865MOL0     O14095   7.931   2.138   2.927  0.4706 -0.2745  0.2002
  865MOL0     C14096   7.892   2.404   2.700 -0.1977  0.2853  0.7746
  865MOL0     C14097   7.824   2.436   2.584  0.2799  0.5011 -0.2073
  865MOL0     N14098   7.247   2.028   1.955 -0.8776  0.0729  0.2571
  865MOL0     N14099   7.232   1.915   1.895  0.2283  0.0078  0.3562
  865MOL0     C14100   6.092   1.796   1.871  0.1535 -1.0403 -0.2162
  865MOL0     C14101   5.957   1.763   1.849 -0.8360  0.0635  0.2236
  865MOL0     C14102   5.548   1.687   1.705 -1.2151 -0.3056 -0.6497
  865MOL0     C14103   5.540   1.710   1.564 -0.2085  0.5695 -0.5013
  865MOL0     C14104   5.434   1.658   1.496  0.3854 -0.7770  0.6503
  865MOL0     C14105   5.320   1.594   1.558  0.4840 -0.8103  0.1239
  865MOL0     O14106   5.210   1.577   1.480 -0.7968 -0.2903 -0.1874
  865MOL0     C14107   5.112   1.495   1.530  0.1709 -0.0656  0.6083
  865MOL0     C14108   5.011   1.464   1.421 -0.5989  1.2399  0.0738
  865MOL0     C14109   4.891   1.380   1.463 -0.5795 -0.5205  0.0088
  865MOL0     C14110   4.930   1.236   1.505 -0.1269  1.1534  0.0432
  865MOL0     C14111   4.957   1.157   1.377  0.5590  0.1276  0.0927
  865MOL0     C14112   4.982   1.102   1.269 -0.5675 -1.1904  0.0637
  865MOL0     C14113   5.330   1.573   1.694 -0.2348 -0.1328  0.3531
  865MOL0     C14114   5.441   1.620   1.772  0.5738  0.9477  0.4914
  865MOL0     H14115   5.868   2.011   1.641 -0.4593 -2.5443 -1.6412
  865MOL0     H14116   6.097   2.092   1.696  0.3972  1.9761  2.4181
  865MOL0     H14117   6.350   1.770   1.787  0.1221  0.6731  0.9255
  865MOL0     H14118   6.356   1.811   1.964  0.8638  2.9586  1.8308
  865MOL0     H14119   6.539   1.952   1.925 -2.2602 -0.1379  0.8137
  865MOL0     H14120   6.538   1.890   1.749 -1.6310 -1.9577 -0.5014
  865MOL0     H14121   6.556   1.648   1.864  0.8873 -1.4529  2.4212
  865MOL0     H14122   6.591   1.738   2.007  1.1831  1.2288 -0.1989
  865MOL0     H14123   6.774   1.729   1.756  1.3932 -0.2570  0.6466
  865MOL0     H14124   6.794   1.858   1.858  0.3679  0.4271 -4.6951
  865MOL0     H14125   6.836   1.569   1.889 -0.0582  2.5935 -3.6558
  865MOL0     H14126   6.815   1.643   2.039  0.5288 -4.0183 -0.7235
  865MOL0     H14127   6.992   1.793   2.007  0.1212 -0.9438  0.3751
  865MOL0     H14128   7.003   1.760   1.828  0.8468 -2.2270 -0.4757
  865MOL0     H14129   7.081   1.580   2.075  0.7803 -1.0474 -0.0648
  865MOL0     H14130   7.086   1.522   1.900 -0.0902  1.5778 -0.8285
  865MOL0     H14131   7.250   1.672   1.833  1.2933  3.1404 -0.7800
  865MOL0     H14132   7.308   1.616   1.992  0.7860 -1.5570 -3.2311
  865MOL0     H14133   7.326   1.812   2.184 -0.0407 -2.2811 -2.0684
  865MOL0     H14134   7.294   2.080   2.287 -0.0061 -1.4052  0.0882
  865MOL0     H14135   7.288   2.204   2.160 -0.8330 -0.0345 -0.1608
  865MOL0     H14136   7.525   2.168   2.090  0.0541  1.9913  1.2987
  865MOL0     H14137   7.540   2.037   2.211 -3.0291 -2.0756  0.2448
  865MOL0     H14138   7.457   2.325   2.281 -0.4423 -0.0337  0.3883
  865MOL0     H14139   7.467   2.193   2.390  1.1658 -1.3940 -0.1763
  865MOL0     H14140   7.690   2.303   2.208  1.6855 -2.0177 -0.0561
  865MOL0     H14141   7.725   2.184   2.329 -0.6021 -1.0437 -0.1810
  865MOL0     H14142   7.625   2.161   2.565  2.3581 -3.3215  1.3240
  865MOL0     H14143   7.718   2.121   2.771  2.0303 -0.0972  0.6775
  865MOL0     H14144   8.170   2.192   3.033  1.1250  0.7109 -4.7619
  865MOL0     H14145   8.369   2.268   3.131  1.3238  0.5284  2.5062
  865MOL0     H14146   8.385   2.537   3.445 -2.2243  3.2353  0.5899
  865MOL0     H14147   8.387   2.673   3.327  3.3962  1.1766 -1.9057
  865MOL0     H14148   8.579   2.667   3.471 -0.4039  4.4532 -2.4593
  865MOL0     H14149   8.626   2.647   3.306 -1.0767 -0.3091 -1.0972
  865MOL0     H14150   8.631   2.385   3.340  0.4448  0.2505 -0.5159
  865MOL0     H14151   8.611   2.423   3.503 -1.0839  0.1100 -1.3285
  865MOL0     H14152   8.859   2.538   3.365 -0.8847 -1.6091 -1.5486
  865MOL0     H14153   8.820   2.573   3.528  0.9860  0.0434 -0.3042
  865MOL0     H14154   8.830   2.282   3.415  2.8744  1.3220 -2.9022
  865MOL0     H14155   8.825   2.333   3.586 -0.4603  0.4873 -0.5717
  865MOL0     H14156   9.029   2.456   3.548 -1.0336  1.4744 -1.0738
  865MOL0     H14157   9.051   2.402   3.381 -3.1204 -2.1480 -1.9261
  865MOL0     H14158   9.038   2.217   3.632 -0.7628 -0.2910 -1.0944
  865MOL0     H14159   9.043   2.143   3.471  0.7925 -1.2865  1.1745
  865MOL0     H14160   9.256   2.146   3.554 -1.3521 -1.6815 -1.7751
  865MOL0     H14161   9.259   2.326   3.589 -0.8679 -0.2227 -0.1504
  865MOL0     H14162   8.176   2.627   3.262  0.2129  0.1485  1.5469
  865MOL0     H14163   7.973   2.569   3.154 -0.4915  0.2184 -0.4059
  865MOL0     H14164   7.966   2.473   2.738 -2.0433  3.2265 -0.5918
  865MOL0     H14165   7.859   2.516   2.521  2.5858  0.6460  1.1381
  865MOL0     H14166   6.160   1.743   1.936  1.8112 -2.3546 -2.8507
  865MOL0     H14167   5.927   1.673   1.901 -2.8547  1.2936  1.2963
  865MOL0     H14168   5.599   1.778   1.503 -1.8757  1.9154 -0.6989
  865MOL0     H14169   5.411   1.684   1.393 -2.3711  2.7087  1.9495
  865MOL0     H14170   5.050   1.526   1.614 -0.9401 -4.4990  1.6624
  865MOL0     H14171   5.158   1.409   1.579  1.5094  0.8717  1.0712
  865MOL0     H14172   4.986   1.556   1.368 -2.1745  1.0789  0.4764
  865MOL0     H14173   5.059   1.406   1.341  1.1427  1.9935  0.5269
  865MOL0     H14174   4.815   1.386   1.385  0.3226  1.0384 -0.8079
  865MOL0     H14175   4.854   1.430   1.553  0.1780  1.2573 -0.6117
  865MOL0     H14176   5.012   1.237   1.577 -0.9949  0.0723  1.0932
  865MOL0     H14177   4.851   1.186   1.563  0.3564 -1.1469 -1.1485
  865MOL0     H14178   5.005   1.043   1.183  1.3101  0.6351 -0.7607
  865MOL0     H14179   5.249   1.527   1.751  1.0451 -1.6192  1.0444
  865MOL0     H14180   5.444   1.608   1.880 -1.0160 -0.1343  0.4460
  866MOL0     O14181   7.693   1.558   2.352  0.3997 -1.0587 -0.5357
  866MOL0     C14182   7.723   1.507   2.463  0.5623 -0.2420  0.4373
  866MOL0     O14183   7.633   1.460   2.560 -0.2950 -1.0235  0.4690
  866MOL0     C14184   7.518   1.401   2.535  0.9160  0.3158  0.3422
  866MOL0     C14185   7.479   1.338   2.416  0.1886  0.5724  0.2268
  866MOL0     C14186   7.354   1.272   2.403 -0.6761  0.3881  0.3004
  866MOL0     C14187   7.268   1.260   2.515 -0.3932 -0.1551 -0.7883
  866MOL0     O14188   7.145   1.190   2.492 -0.5525 -0.0538 -0.0847
  866MOL0     C14189   7.029   1.214   2.582  0.3519 -0.0586 -0.2195
  866MOL0     C14190   6.920   1.106   2.558  0.0118 -0.4895 -0.2031
  866MOL0     C14191   6.851   1.130   2.426  0.1325  0.2292 -0.2863
  866MOL0     C14192   6.752   1.018   2.392  0.5296 -0.0484 -0.6038
  866MOL0     C14193   6.687   1.017   2.250  0.6795 -0.1272  0.1194
  866MOL0     C14194   6.572   0.908   2.235 -0.3291 -0.8836  0.0038
  866MOL0     C14195   6.496   0.905   2.105 -0.4948 -0.8600  0.8820
  866MOL0     C14196   6.396   1.033   2.093  0.2815  0.2896  0.5724
  866MOL0     N14197   6.267   0.991   2.151 -0.4760 -0.2283  0.3805
  866MOL0     C14198   6.147   0.987   2.084  0.3729  0.6029 -0.4265
  866MOL0     C14199   6.063   0.928   2.176 -0.3284  0.8009  0.2566
  866MOL0     C14200   5.918   0.890   2.149 -0.2845  0.2349 -0.5359
  866MOL0     C14201   5.827   1.005   2.209 -0.2639  0.5967 -0.0221
  866MOL0     C14202   5.679   0.978   2.178 -0.2701  0.1417  0.2500
  866MOL0     C14203   5.593   0.887   2.272 -0.0324 -1.0795  0.1172
  866MOL0     O14204   5.466   0.869   2.202 -0.0584 -0.5458  0.0244
  866MOL0     C14205   5.371   0.798   2.276 -0.1927 -0.2165  0.9203
  866MOL0     C14206   5.384   0.743   2.398  0.4856 -0.0507  0.8628
  866MOL0     C14207   5.285   0.668   2.463  0.1655  0.3524 -0.4283
  866MOL0     C14208   5.156   0.650   2.404 -0.5767  0.4225 -0.0486
  866MOL0     C14209   5.050   0.573   2.484 -0.4016 -0.9953 -0.4943
  866MOL0     O14210   4.926   0.564   2.432 -0.2768  0.3758  0.3191
  866MOL0     C14211   4.813   0.510   2.497  0.1702 -0.5068  1.0521
  866MOL0     C14212   4.689   0.501   2.430 -0.0458 -0.3402  0.5361
  866MOL0     C14213   4.574   0.455   2.483  0.7252 -0.4447  0.0968
  866MOL0     C14214   4.571   0.413   2.616 -0.7159 -0.1303  0.1332
  866MOL0     O14215   4.466   0.355   2.684  0.4419 -0.0053  1.0048
  866MOL0     C14216   4.331   0.342   2.626  0.5623 -0.0445 -0.6399
  866MOL0     C14217   4.247   0.282   2.734  1.4636  0.2355 -0.0597
  866MOL0     C14218   4.097   0.317   2.719  0.1539 -0.2670  0.1615
  866MOL0     C14219   4.010   0.276   2.835  0.9218 -0.2857 -0.4421
  866MOL0     C14220   3.862   0.293   2.791  0.2394 -0.0183  0.0983
  866MOL0     C14221   3.771   0.238   2.906 -0.2436  0.3132 -0.6600
  866MOL0     C14222   3.630   0.198   2.842  0.4113 -0.2963 -0.2633
  866MOL0     C14223   3.543   0.121   2.945 -0.4922  0.2367 -0.2739
  866MOL0    Cl14224   3.376   0.106   2.893  0.4326 -0.1254  0.1959
  866MOL0     C14225   4.688   0.435   2.689  0.6039  0.3886 -0.1152
  866MOL0     C14226   4.809   0.486   2.629  1.0495 -0.3887  0.8952
  866MOL0     O14227   5.088   0.500   2.577  0.2348 -0.0274  0.2137
  866MOL0     C14228   5.133   0.708   2.278 -0.4865 -0.6674  0.5868
  866MOL0     C14229   5.241   0.780   2.216 -0.0830  0.0303  0.6747
  866MOL0     N14230   6.126   0.910   2.300  0.5088  0.0441  0.5208
  866MOL0     N14231   6.248   0.950   2.280 -0.4452 -0.3306  0.5993
  866MOL0     C14232   7.315   1.308   2.638  0.5183 -0.1745  0.3760
  866MOL0     C14233   7.435   1.374   2.654 -0.4896  0.3949  0.7559
  866MOL0     C14234   7.860   1.515   2.496  1.1292 -0.7427  0.0030
  866MOL0     C14235   7.961   1.522   2.403 -0.3020  0.2397 -0.3774
  866MOL0     C14236   8.096   1.501   2.441  0.7106 -0.1255  0.6446
  866MOL0     C14237   8.120   1.509   2.580 -0.4607  1.1832  0.0109
  866MOL0     O14238   8.257   1.507   2.601  0.4030  0.0228 -0.0252
  866MOL0     C14239   8.315   1.538   2.723  0.3241  0.0425  1.3652
  866MOL0     C14240   8.331   1.687   2.744 -0.0663  0.3425 -0.0728
  866MOL0     C14241   8.436   1.747   2.638 -0.5791 -0.6389  0.4298
  866MOL0     C14242   8.548   1.822   2.720  0.6197 -0.0443  0.1961
  866MOL0     C14243   8.625   1.733   2.806  0.4528  0.5297  0.3433
  866MOL0     C14244   8.697   1.667   2.880 -0.3457 -0.1750  0.4046
  866MOL0     C14245   8.021   1.504   2.679 -0.6162  0.3784 -0.6724
  866MOL0     C14246   7.891   1.495   2.629  0.2217 -0.8726  0.1369
  866MOL0     H14247   7.552   1.333   2.335  1.5331  0.6115  1.3883
  866MOL0     H14248   7.323   1.241   2.304  2.8187 -0.4344 -0.7054
  866MOL0     H14249   6.981   1.311   2.566 -2.4131 -1.2378  0.3447
  866MOL0     H14250   7.061   1.208   2.687  1.2443  1.2696 -0.3832
  866MOL0     H14251   6.843   1.110   2.637 -1.1395  0.4303 -1.3152
  866MOL0     H14252   6.959   1.004   2.562 -1.5083 -1.0927  3.1078
  866MOL0     H14253   6.933   1.137   2.354  0.4756 -0.0448  0.0715
  866MOL0     H14254   6.792   1.220   2.413 -1.1656 -0.4451  0.6964
  866MOL0     H14255   6.779   0.915   2.418  3.3709  0.8101  0.2406
  866MOL0     H14256   6.671   1.049   2.458  0.7981  1.3002 -0.8962
  866MOL0     H14257   6.757   0.999   2.167  0.9351  2.9117 -0.4164
  866MOL0     H14258   6.652   1.120   2.239 -1.2209 -0.7109  0.3280
  866MOL0     H14259   6.500   0.924   2.315  0.1261  1.3880  0.0321
  866MOL0     H14260   6.614   0.808   2.245  1.4804 -0.3297 -1.3975
  866MOL0     H14261   6.556   0.910   2.014 -1.0711 -0.2153  0.5199
  866MOL0     H14262   6.437   0.814   2.092  0.4181 -1.5173  1.3045
  866MOL0     H14263   6.375   1.058   1.988  2.1834  1.2233  0.3833
  866MOL0     H14264   6.441   1.122   2.138  2.0214  0.0317 -0.5678
  866MOL0     H14265   6.112   1.025   1.989 -1.8180 -0.8799 -0.3005
  866MOL0     H14266   5.900   0.790   2.190 -2.3682  1.5558  2.0627
  866MOL0     H14267   5.909   0.876   2.041 -2.4962 -1.5983 -0.1867
  866MOL0     H14268   5.856   1.099   2.162 -1.6724  0.9404 -0.2397
  866MOL0     H14269   5.841   1.013   2.317 -1.7308  3.2372  0.0488
  866MOL0     H14270   5.628   1.074   2.170  1.2524  0.9777  0.1524
  866MOL0     H14271   5.686   0.930   2.080  0.1219 -1.9405  1.2424
  866MOL0     H14272   5.571   0.934   2.369  1.8665 -2.2161  1.1475
  866MOL0     H14273   5.648   0.795   2.294 -0.6632 -1.6671 -0.7107
  866MOL0     H14274   5.471   0.754   2.462  0.4009  1.1588  0.7868
  866MOL0     H14275   5.306   0.625   2.561  3.5394 -2.0584 -2.0143
  866MOL0     H14276   4.679   0.515   2.323 -2.6477 -0.6299  0.6738
  866MOL0     H14277   4.483   0.454   2.425  0.7623 -2.0751  0.0294
  866MOL0     H14278   4.332   0.270   2.543  3.2439 -1.3924  0.3952
  866MOL0     H14279   4.303   0.443   2.598  2.4865  0.7065 -0.0400
  866MOL0     H14280   4.294   0.322   2.825  1.2685  0.6375 -0.1350
  866MOL0     H14281   4.253   0.173   2.730  2.9710  0.3157 -0.9172
  866MOL0     H14282   4.050   0.273   2.631 -2.3159  0.2628  1.1482
  866MOL0     H14283   4.075   0.424   2.715  1.6862  0.0765  0.2629
  866MOL0     H14284   4.037   0.173   2.856 -2.1219 -1.0648  0.0677
  866MOL0     H14285   4.035   0.339   2.921  2.2107 -0.3320 -0.7611
  866MOL0     H14286   3.850   0.243   2.694 -0.0112  4.1418 -2.2553
  866MOL0     H14287   3.836   0.397   2.768 -0.1044 -0.3188 -0.9496
  866MOL0     H14288   3.762   0.319   2.979  0.5880 -0.3194  0.1676
  866MOL0     H14289   3.820   0.145   2.938 -0.2764  0.3855 -0.3975
  866MOL0     H14290   3.581   0.292   2.817  0.6630 -0.1432 -0.1870
  866MOL0     H14291   3.651   0.142   2.750  0.2991 -1.3757  0.3512
  866MOL0     H14292   3.543   0.172   3.041 -0.0046  0.1381 -0.2155
  866MOL0     H14293   3.592   0.027   2.973  0.1926  0.8989  0.8263
  866MOL0     H14294   4.697   0.417   2.795  2.3664 -0.4140 -0.3658
  866MOL0     H14295   4.893   0.493   2.698  0.4809  0.9930  1.4812
  866MOL0     H14296   5.033   0.700   2.237  0.3637 -2.5077 -1.3779
  866MOL0     H14297   5.216   0.831   2.124 -0.2638 -1.7937 -0.3173
  866MOL0     H14298   7.250   1.303   2.724  1.6659 -0.0380  1.2764
  866MOL0     H14299   7.477   1.395   2.751  1.5721 -1.6282  0.3900
  866MOL0     H14300   7.954   1.524   2.294  1.0412 -1.1741 -0.5150
  866MOL0     H14301   8.169   1.481   2.363  1.0461 -0.0296  0.9304
  866MOL0     H14302   8.411   1.485   2.728 -0.6541 -1.9322  0.2288
  866MOL0     H14303   8.243   1.507   2.799 -0.1484 -0.5896  0.6731
  866MOL0     H14304   8.231   1.729   2.734  0.2974  0.9896 -1.2721
  866MOL0     H14305   8.358   1.699   2.849 -1.5525  0.6285  0.2983
  866MOL0     H14306   8.370   1.804   2.572  0.4546 -1.1151 -1.0895
  866MOL0     H14307   8.490   1.670   2.581 -1.0860 -0.4541 -0.3165
  866MOL0     H14308   8.610   1.876   2.648  1.9875 -1.4083  0.2829
  866MOL0     H14309   8.516   1.908   2.781  2.6631  1.1657 -0.3258
  866MOL0     H14310   8.771   1.628   2.948 -0.6680 -0.0238  0.8463
  866MOL0     H14311   8.033   1.508   2.787 -1.0896 -3.3699 -0.3641
  866MOL0     H14312   7.819   1.477   2.707  1.5711 -1.6461  1.2531
  867MOL0     O14313   5.870   5.775   1.730 -0.1477 -0.2498 -0.4619
  867MOL0     C14314   5.913   5.883   1.684  0.2282  1.1739 -0.6405
  867MOL0     O14315   6.030   5.900   1.604  0.4927 -0.0865 -0.1297
  867MOL0     C14316   6.088   5.797   1.536  0.6191 -0.7113  0.4984
  867MOL0     C14317   6.228   5.773   1.555  0.3325 -1.2793  0.3652
  867MOL0     C14318   6.284   5.666   1.487 -0.3284 -0.4462 -0.0701
  867MOL0     C14319   6.202   5.574   1.424 -0.3469  0.8334 -0.7020
  867MOL0     O14320   6.249   5.460   1.368  0.1905  0.1976 -0.1634
  867MOL0     C14321   6.391   5.431   1.366  0.0873 -0.5870 -0.1118
  867MOL0     C14322   6.408   5.292   1.311 -0.5050  0.2924 -0.2717
  867MOL0     C14323   6.550   5.244   1.312 -0.0289  0.8406  1.1164
  867MOL0     C14324   6.627   5.272   1.443 -0.8744  0.9725 -0.4960
  867MOL0     C14325   6.775   5.249   1.428  0.3689 -0.0126  0.5329
  867MOL0     C14326   6.821   5.112   1.385 -0.4233  0.4907  0.2091
  867MOL0     C14327   6.978   5.101   1.391  0.7216 -0.2788 -0.4788
  867MOL0     C14328   7.028   4.951   1.401 -0.6059  0.5787  0.2152
  867MOL0     N14329   7.172   4.942   1.400 -0.4850  0.0550  1.0468
  867MOL0     C14330   7.252   5.032   1.471 -0.6939  1.2384 -0.2524
  867MOL0     C14331   7.380   5.008   1.437 -0.4345 -0.4008 -0.3730
  867MOL0     C14332   7.504   5.080   1.479 -0.5113  0.3411 -0.0796
  867MOL0     C14333   7.501   5.231   1.490  0.0921 -0.8460 -0.4206
  867MOL0     C14334   7.436   5.289   1.368 -0.1236  0.7891  0.0032
  867MOL0     C14335   7.403   5.435   1.384  0.5248 -0.4017 -0.9146
  867MOL0     O14336   7.296   5.449   1.486 -0.8381 -0.5675  0.6671
  867MOL0     C14337   7.184   5.512   1.446  0.5175  0.1005 -0.4852
  867MOL0     C14338   7.152   5.589   1.332 -0.5885 -0.0049  0.0333
  867MOL0     C14339   7.021   5.637   1.312 -0.5185  0.2840  0.2522
  867MOL0     C14340   6.916   5.610   1.397  0.6365 -0.0865  0.1434
  867MOL0     C14341   6.773   5.666   1.373 -0.2790  0.3925  0.3201
  867MOL0     O14342   6.733   5.719   1.255 -0.1379 -0.1317 -0.0156
  867MOL0     C14343   6.621   5.795   1.260  0.1337  1.1139  0.0688
  867MOL0     C14344   6.604   5.896   1.356  0.5569 -1.0707  0.1437
  867MOL0     C14345   6.493   5.986   1.358 -0.2117 -0.4848 -0.3211
  867MOL0     C14346   6.397   5.974   1.257  0.1144  0.2210 -0.3088
  867MOL0     O14347   6.283   6.057   1.245 -0.2019  0.1212  0.4873
  867MOL0     C14348   6.250   6.135   1.360 -0.2024  1.0561  0.0629
  867MOL0     C14349   6.106   6.187   1.353 -0.6341 -1.2386  0.1372
  867MOL0     C14350   6.097   6.295   1.245 -1.1417 -0.5806 -0.1417
  867MOL0     C14351   5.958   6.334   1.217  0.7815 -1.0306 -0.2193
  867MOL0     C14352   5.951   6.463   1.136  0.4322 -0.3994 -0.3259
  867MOL0     C14353   5.809   6.530   1.136 -0.7421 -0.2292 -0.4209
  867MOL0     C14354   5.704   6.459   1.047 -0.0543 -0.0251  0.3949
  867MOL0     C14355   5.758   6.410   0.914 -0.2019  0.8752 -0.3176
  867MOL0    Cl14356   5.852   6.535   0.817  0.0672 -0.2439 -0.0200
  867MOL0     C14357   6.416   5.879   1.161 -0.2458 -0.2829 -0.1826
  867MOL0     C14358   6.525   5.789   1.162  0.3183  0.1964  0.5957
  867MOL0     O14359   6.706   5.652   1.475 -0.0377 -0.7303  0.7091
  867MOL0     C14360   6.951   5.531   1.510  0.2867  0.2017  0.5712
  867MOL0     C14361   7.076   5.492   1.532 -0.4528  0.1943  0.2650
  867MOL0     N14362   7.389   4.892   1.355  0.2082 -0.0291  0.5625
  867MOL0     N14363   7.264   4.871   1.327  0.7868 -0.0102  0.1301
  867MOL0     C14364   6.071   5.596   1.406  0.6864  0.0042  0.2631
  867MOL0     C14365   6.009   5.704   1.466  0.2208  0.4893  0.6027
  867MOL0     C14366   5.828   6.002   1.711 -0.9264  0.4063 -0.3722
  867MOL0     C14367   5.876   6.125   1.667 -0.0125 -0.3074  0.8456
  867MOL0     C14368   5.794   6.240   1.674 -0.4181  0.2089  0.4653
  867MOL0     C14369   5.666   6.228   1.723  0.3511  0.6003  0.3899
  867MOL0     O14370   5.585   6.342   1.722  0.6258  0.3762  0.0447
  867MOL0     C14371   5.572   6.391   1.588  0.4427 -0.5640  0.5355
  867MOL0     C14372   5.488   6.517   1.588 -1.3194  0.3659  0.0157
  867MOL0     C14373   5.552   6.643   1.645 -0.6626  0.5739  0.3832
  867MOL0     C14374   5.560   6.647   1.800  0.5869 -0.2554 -0.6460
  867MOL0     C14375   5.639   6.765   1.840 -0.4231  0.5245  0.0379
  867MOL0     C14376   5.714   6.855   1.887 -1.2237  0.6030 -0.0981
  867MOL0     C14377   5.620   6.103   1.760  0.8719 -0.2735  0.8137
  867MOL0     C14378   5.700   5.995   1.754 -0.0207 -0.6205 -0.2072
  867MOL0     H14379   6.288   5.847   1.606 -2.4253  1.5519 -0.2122
  867MOL0     H14380   6.392   5.654   1.496 -0.1332  1.8119  1.6492
  867MOL0     H14381   6.425   5.434   1.470 -3.0626  0.1496  1.0006
  867MOL0     H14382   6.448   5.504   1.308  0.2959  0.9060  1.8407
  867MOL0     H14383   6.375   5.298   1.206 -0.6630  2.5354 -0.1527
  867MOL0     H14384   6.344   5.224   1.369 -1.5797  0.9501 -0.6536
  867MOL0     H14385   6.598   5.316   1.246 -1.0693  0.6840  0.1483
  867MOL0     H14386   6.548   5.142   1.273 -2.4366  0.8136  1.1621
  867MOL0     H14387   6.629   5.377   1.474 -2.7730  0.6697  0.8319
  867MOL0     H14388   6.587   5.210   1.523 -0.9258 -0.6824 -1.7620
  867MOL0     H14389   6.823   5.283   1.521 -1.9173 -0.2266  1.8594
  867MOL0     H14390   6.810   5.318   1.351  0.4421  0.5284  1.0380
  867MOL0     H14391   6.793   5.081   1.284  0.1889 -2.4478  0.8489
  867MOL0     H14392   6.780   5.047   1.463 -0.9581  0.6969  0.1057
  867MOL0     H14393   7.011   5.159   1.305 -1.3047  0.8282 -0.5782
  867MOL0     H14394   7.015   5.150   1.481 -1.2038  0.9552 -0.2925
  867MOL0     H14395   7.000   4.887   1.316  1.2980 -2.0363  1.4401
  867MOL0     H14396   6.995   4.909   1.496 -3.6189  1.1998 -0.4250
  867MOL0     H14397   7.213   5.100   1.547 -2.8131 -0.7040  0.5182
  867MOL0     H14398   7.588   5.038   1.425 -0.2229 -0.3619  0.8809
  867MOL0     H14399   7.534   5.051   1.580  0.9556 -1.4667 -0.9866
  867MOL0     H14400   7.600   5.277   1.504 -0.9503  1.7805 -1.0949
  867MOL0     H14401   7.437   5.261   1.573 -0.3099  1.6445 -1.5532
  867MOL0     H14402   7.515   5.286   1.292 -1.5246 -0.5663 -1.4724
  867MOL0     H14403   7.349   5.238   1.327  0.1461 -0.4187  0.8510
  867MOL0     H14404   7.363   5.453   1.284 -0.9461  0.6895 -0.1685
  867MOL0     H14405   7.484   5.502   1.413 -0.8866  0.4405  1.3985
  867MOL0     H14406   7.222   5.622   1.256 -1.4037  2.2199  0.2017
  867MOL0     H14407   7.008   5.695   1.222 -0.5226 -0.5874 -0.3192
  867MOL0     H14408   6.674   5.908   1.438  0.5440  1.4706 -0.1297
  867MOL0     H14409   6.490   6.056   1.441  1.3691 -0.9605  0.1578
  867MOL0     H14410   6.311   6.225   1.362  0.4117  0.6449  0.1130
  867MOL0     H14411   6.256   6.073   1.450  0.6086 -1.9330 -1.8966
  867MOL0     H14412   6.078   6.230   1.450 -2.0774 -3.4829  0.8176
  867MOL0     H14413   6.036   6.105   1.333 -1.6459 -0.0775 -1.3185
  867MOL0     H14414   6.150   6.268   1.153  1.7611  2.2714  0.4978
  867MOL0     H14415   6.150   6.377   1.295  0.4320 -2.1026  0.7523
  867MOL0     H14416   5.909   6.250   1.166  0.9394 -1.5734  0.5037
  867MOL0     H14417   5.909   6.363   1.311  1.3021  1.4400 -0.6669
  867MOL0     H14418   5.997   6.464   1.037  2.0180  3.1960  0.2907
  867MOL0     H14419   6.017   6.534   1.187  2.7620 -2.8112  0.2522
  867MOL0     H14420   5.829   6.630   1.096 -2.5143  0.0401 -0.7013
  867MOL0     H14421   5.775   6.542   1.239  2.0995 -0.6253  0.6566
  867MOL0     H14422   5.677   6.369   1.103 -1.3508 -0.2588 -0.5535
  867MOL0     H14423   5.614   6.519   1.032 -0.6704 -0.6776  1.3444
  867MOL0     H14424   5.675   6.380   0.849 -1.0903  1.3219  0.5866
  867MOL0     H14425   5.827   6.325   0.922 -1.1064  0.2186  0.7013
  867MOL0     H14426   6.339   5.856   1.088  0.7902 -3.8200 -0.3447
  867MOL0     H14427   6.537   5.721   1.078 -1.3756  2.9245 -2.0769
  867MOL0     H14428   6.878   5.511   1.588 -2.7790  1.7691 -1.6824
  867MOL0     H14429   7.104   5.421   1.609 -0.8444 -1.1381 -0.7995
  867MOL0     H14430   6.008   5.520   1.360 -1.8381  2.6257 -0.9054
  867MOL0     H14431   5.903   5.720   1.452  0.1124  2.6653  2.9659
  867MOL0     H14432   5.977   6.135   1.627 -0.5866  0.9252 -0.3586
  867MOL0     H14433   5.830   6.340   1.649  0.0968  0.8131  3.3015
  867MOL0     H14434   5.521   6.308   1.539  3.2433 -4.6155  3.7846
  867MOL0     H14435   5.661   6.391   1.526  0.2172  2.5645  0.0461
  867MOL0     H14436   5.461   6.544   1.485  0.2528 -0.3888 -0.6227
  867MOL0     H14437   5.400   6.505   1.652 -0.3140 -1.1773  1.1657
  867MOL0     H14438   5.502   6.732   1.605 -2.3237 -1.2958 -2.0449
  867MOL0     H14439   5.656   6.632   1.612 -0.5930 -1.3085  1.1519
  867MOL0     H14440   5.460   6.661   1.841  0.7936 -1.4163  0.3280
  867MOL0     H14441   5.608   6.557   1.841 -3.4335 -1.4628  1.9851
  867MOL0     H14442   5.782   6.923   1.934 -1.3017  0.2738  0.5151
  867MOL0     H14443   5.518   6.114   1.796  0.4901  2.3775 -0.8298
  867MOL0     H14444   5.663   5.899   1.789  2.8689 -1.1474  1.7994
  868MOL0     O14445   9.345   3.464   3.661  1.2381 -0.0009  0.1138
  868MOL0     C14446   9.322   3.585   3.649 -0.3142  0.0029  0.7157
  868MOL0     O14447   9.235   3.645   3.560 -0.2412  0.0398  0.5520
  868MOL0     C14448   9.133   3.574   3.487 -0.3494  0.2970 -1.0529
  868MOL0     C14449   9.038   3.653   3.414  0.1888  0.3339  0.5979
  868MOL0     C14450   8.935   3.589   3.348 -0.2450  0.2271 -0.0005
  868MOL0     C14451   8.918   3.450   3.351 -0.0225 -0.1570 -0.0077
  868MOL0     O14452   8.818   3.376   3.291  0.3598  0.0439  0.0136
  868MOL0     C14453   8.732   3.429   3.186 -0.3614  0.1298 -0.1097
  868MOL0     C14454   8.621   3.322   3.171 -0.1576  0.5770  0.0912
  868MOL0     C14455   8.511   3.392   3.093  1.2775 -0.3474  0.0161
  868MOL0     C14456   8.401   3.294   3.061  0.2406  0.6009  0.3363
  868MOL0     C14457   8.285   3.379   3.005  0.4928  0.2451  0.6355
  868MOL0     C14458   8.188   3.414   3.114  0.3682  0.7316 -0.3087
  868MOL0     C14459   8.066   3.499   3.063  0.5300  0.3588 -0.8031
  868MOL0     C14460   7.983   3.433   2.947  1.0030 -0.3597 -0.8728
  868MOL0     N14461   7.837   3.471   2.954 -0.2959  0.3176 -0.7213
  868MOL0     C14462   7.761   3.447   3.066 -0.3381 -1.2055 -0.5938
  868MOL0     C14463   7.645   3.513   3.046  0.8941 -0.3295  1.2714
  868MOL0     C14464   7.520   3.505   3.132  0.8189 -0.1222  0.6348
  868MOL0     C14465   7.507   3.387   3.236 -0.1396 -0.8956  0.3264
  868MOL0     C14466   7.448   3.270   3.156 -0.2538  0.0012  0.2999
  868MOL0     C14467   7.450   3.146   3.252 -0.0511  0.0286 -0.0563
  868MOL0     O14468   7.394   3.036   3.185  0.0353 -0.5073  0.4964
  868MOL0     C14469   7.257   3.021   3.176 -0.3980 -1.2334  0.0648
  868MOL0     C14470   7.168   3.116   3.223 -0.1297 -0.8660 -0.3213
  868MOL0     C14471   7.026   3.108   3.192 -0.1404  0.2757 -0.9170
  868MOL0     C14472   6.972   2.992   3.125 -0.1951  0.4804  0.3300
  868MOL0     C14473   6.826   2.982   3.100 -0.4559 -0.4160 -0.5852
  868MOL0     O14474   6.784   2.867   3.033 -0.0013  0.0071 -0.0202
  868MOL0     C14475   6.647   2.846   2.998  0.0120  1.8506  0.7332
  868MOL0     C14476   6.544   2.939   3.002 -0.0287  0.3843 -0.7380
  868MOL0     C14477   6.417   2.904   2.955 -0.0399 -0.0622  0.2838
  868MOL0     C14478   6.384   2.772   2.919  0.2494 -0.1455  0.5647
  868MOL0     O14479   6.261   2.724   2.889 -0.8331 -0.4050  0.0704
  868MOL0     C14480   6.171   2.820   2.831  0.4677  0.2239 -0.0174
  868MOL0     C14481   6.052   2.756   2.760  0.4719 -0.3746  0.5397
  868MOL0     C14482   5.953   2.706   2.864 -0.2217  0.3971 -0.6001
  868MOL0     C14483   5.817   2.659   2.814  0.2064 -0.2898  0.7342
  868MOL0     C14484   5.725   2.605   2.925  0.0399  0.2713 -0.1611
  868MOL0     C14485   5.591   2.541   2.867 -0.1512 -0.4085 -0.3469
  868MOL0     C14486   5.484   2.557   2.972  0.2919  0.4022 -0.0226
  868MOL0     C14487   5.363   2.470   2.972 -0.1602  0.5308 -0.6467
  868MOL0    Cl14488   5.255   2.505   3.091 -0.0668 -0.2151 -0.0719
  868MOL0     C14489   6.477   2.678   2.923  0.2381 -0.2798 -0.8334
  868MOL0     C14490   6.611   2.707   2.973  0.1873 -0.1045  0.2647
  868MOL0     O14491   6.755   3.061   3.157 -0.2794  0.3580 -1.0155
  868MOL0     C14492   7.066   2.896   3.070  0.3845 -0.7935  0.3913
  868MOL0     C14493   7.207   2.913   3.099  0.6164 -0.2443 -0.3134
  868MOL0     N14494   7.647   3.580   2.922  0.9429  0.2230  0.9198
  868MOL0     N14495   7.761   3.558   2.874 -0.0878  0.4378  0.3529
  868MOL0     C14496   9.017   3.373   3.407  1.0474 -0.5253 -0.8352
  868MOL0     C14497   9.121   3.435   3.472  0.0544  0.2992  1.4953
  868MOL0     C14498   9.411   3.679   3.724  0.5605  0.5957 -0.1756
  868MOL0     C14499   9.438   3.807   3.663 -0.7489  0.4263 -0.7102
  868MOL0     C14500   9.537   3.896   3.719 -0.6912  1.5570  0.1005
  868MOL0     C14501   9.619   3.849   3.823 -0.1899  0.5226  0.6187
  868MOL0     O14502   9.702   3.932   3.886 -0.2360 -0.3762  0.6144
  868MOL0     C14503   9.830   3.878   3.911  0.4529  0.1840  0.3577
  868MOL0     C14504   9.840   3.863   4.070 -0.2939  0.1798  0.6248
  868MOL0     C14505   9.819   3.996   4.148 -0.3533 -0.3118 -0.0033
  868MOL0     C14506   9.922   4.112   4.097 -0.0945  0.8737 -0.3070
  868MOL0     C14507  10.057   4.049   4.086  0.5649 -0.2114 -0.2143
  868MOL0     C14508  10.164   3.992   4.064 -0.3203  0.6267 -0.1599
  868MOL0     C14509   9.595   3.721   3.876 -0.2993 -0.1723 -0.0213
  868MOL0     C14510   9.483   3.639   3.836 -1.0240  0.2251  0.4667
  868MOL0     H14511   9.062   3.759   3.411  1.1614  0.1154 -1.8864
  868MOL0     H14512   8.872   3.648   3.283  1.0738  0.0145 -1.5288
  868MOL0     H14513   8.791   3.444   3.096  0.0197 -2.5452 -0.3616
  868MOL0     H14514   8.682   3.519   3.225  0.1139 -0.1302  1.1400
  868MOL0     H14515   8.578   3.298   3.268 -2.1319  0.8625 -0.6730
  868MOL0     H14516   8.657   3.243   3.104  1.6010  4.4729 -4.0664
  868MOL0     H14517   8.544   3.446   3.004  0.2401 -0.8797 -0.7094
  868MOL0     H14518   8.471   3.469   3.159  0.3124 -0.9806  0.1939
  868MOL0     H14519   8.428   3.218   2.987  0.5535  0.6842  0.3622
  868MOL0     H14520   8.369   3.241   3.151 -1.5912  0.1714 -0.5368
  868MOL0     H14521   8.228   3.313   2.939 -0.0760 -1.4555  2.6858
  868MOL0     H14522   8.320   3.469   2.954  0.6923  0.2041  0.7005
  868MOL0     H14523   8.247   3.477   3.182 -0.9435  3.0678 -1.1873
  868MOL0     H14524   8.136   3.331   3.162 -1.6457  1.2346 -1.4893
  868MOL0     H14525   8.003   3.513   3.151  1.7915  2.0465 -0.1152
  868MOL0     H14526   8.086   3.602   3.033 -0.1251  0.6854 -0.1456
  868MOL0     H14527   7.997   3.325   2.953  4.5796  0.0050  3.6315
  868MOL0     H14528   8.021   3.466   2.850  0.7796  0.7117 -0.6103
  868MOL0     H14529   7.804   3.385   3.144  1.4139 -1.3343 -1.6223
  868MOL0     H14530   7.431   3.507   3.068  0.7219  2.6233  0.7523
  868MOL0     H14531   7.524   3.592   3.199 -0.4904 -1.2101  2.2149
  868MOL0     H14532   7.435   3.423   3.310  0.6793  1.7758 -0.0556
  868MOL0     H14533   7.603   3.355   3.278 -0.5474 -2.6882 -0.0212
  868MOL0     H14534   7.350   3.302   3.120 -0.1081  0.7522  0.5571
  868MOL0     H14535   7.510   3.261   3.066 -1.7548 -0.0873 -0.7648
  868MOL0     H14536   7.392   3.175   3.341  2.0289  0.0552  1.3455
  868MOL0     H14537   7.553   3.129   3.285  1.2320  0.5523 -3.3788
  868MOL0     H14538   7.205   3.212   3.259  0.9613 -1.4146  0.0750
  868MOL0     H14539   6.959   3.188   3.222  0.4626  1.3700 -2.3921
  868MOL0     H14540   6.560   3.043   3.028 -0.0983  0.1383  0.3472
  868MOL0     H14541   6.335   2.974   2.960 -1.3954 -1.7033  3.3474
  868MOL0     H14542   6.217   2.883   2.754  1.3971  1.6147  1.6105
  868MOL0     H14543   6.118   2.888   2.899  2.5807 -1.1336  3.2254
  868MOL0     H14544   6.081   2.680   2.687 -3.3089  0.0343 -1.6697
  868MOL0     H14545   6.000   2.829   2.698  0.9897  0.4976  1.1090
  868MOL0     H14546   5.937   2.788   2.935 -0.0945  0.3451 -0.5114
  868MOL0     H14547   6.001   2.620   2.911 -1.2920 -0.9898 -1.9321
  868MOL0     H14548   5.780   2.753   2.770  0.3353  0.2607  1.7808
  868MOL0     H14549   5.824   2.579   2.739 -1.0875 -0.9415  1.2933
  868MOL0     H14550   5.681   2.694   2.970 -0.9912 -0.2053 -0.1827
  868MOL0     H14551   5.769   2.535   2.997 -3.1663  0.1737  1.8922
  868MOL0     H14552   5.608   2.433   2.855 -0.0002 -0.3865 -0.3334
  868MOL0     H14553   5.558   2.577   2.769  1.2507 -2.7366 -1.7824
  868MOL0     H14554   5.533   2.548   3.069 -0.2801  0.0543  0.2374
  868MOL0     H14555   5.440   2.656   2.962 -1.6707 -0.5427 -1.4309
  868MOL0     H14556   5.401   2.368   2.977  1.1325  0.9573 -1.4640
  868MOL0     H14557   5.301   2.488   2.883 -0.0882  0.0384 -0.7989
  868MOL0     H14558   6.453   2.575   2.897  1.0046 -0.8243  0.5276
  868MOL0     H14559   6.686   2.629   2.986  0.3148 -0.2764 -1.2515
  868MOL0     H14560   7.036   2.804   3.022  0.0050  0.5649 -2.1667
  868MOL0     H14561   7.276   2.838   3.061 -1.1246 -3.3350  2.0670
  868MOL0     H14562   9.011   3.265   3.406  0.4248 -0.5207 -2.9262
  868MOL0     H14563   9.194   3.373   3.522  1.7480  0.2695 -0.8368
  868MOL0     H14564   9.386   3.840   3.573 -2.0398  2.8506  0.8145
  868MOL0     H14565   9.564   3.994   3.682  0.2893  0.8217 -1.2545
  868MOL0     H14566   9.910   3.942   3.872 -0.8832 -0.5523 -4.1345
  868MOL0     H14567   9.849   3.780   3.866  2.6127 -0.7892  3.1142
  868MOL0     H14568   9.762   3.795   4.107 -1.4038 -0.2298 -2.2109
  868MOL0     H14569   9.936   3.819   4.097 -0.4093 -1.1387 -0.9915
  868MOL0     H14570   9.839   3.967   4.252 -0.1678 -1.9702 -0.4743
  868MOL0     H14571   9.717   4.036   4.149 -0.2181  0.0713  1.6074
  868MOL0     H14572   9.880   4.146   4.002 -1.0044  1.3915  0.2589
  868MOL0     H14573   9.920   4.192   4.172 -2.0971 -1.0186  1.8025
  868MOL0     H14574  10.261   3.949   4.047  0.4253  1.8068  0.9456
  868MOL0     H14575   9.653   3.682   3.960 -0.1844  1.8546  0.9057
  868MOL0     H14576   9.467   3.547   3.891  2.5641  0.7299  2.6651
  869MOL0     O14577   7.237  10.800   8.384 -0.5675  0.8714 -0.1583
  869MOL0     C14578   7.266  10.833   8.501  0.3764  0.1512  0.0965
  869MOL0     O14579   7.185  10.904   8.584  0.0722 -0.4573 -0.8673
  869MOL0     C14580   7.052  10.927   8.559  0.0459  0.0165 -0.6660
  869MOL0     C14581   6.996  10.967   8.440 -0.0798 -0.0897  0.4024
  869MOL0     C14582   6.859  11.012   8.437  0.3929 -0.2630 -0.3799
  869MOL0     C14583   6.766  10.999   8.553  0.3175 -0.1961  0.8735
  869MOL0     O14584   6.636  11.045   8.542 -0.7156 -0.0353 -0.8235
  869MOL0     C14585   6.584  11.083   8.669  0.0602  0.9506 -1.3184
  869MOL0     C14586   6.457  11.171   8.671  0.4688 -0.5970  0.2968
  869MOL0     C14587   6.364  11.144   8.552 -0.2752  0.1732 -0.6773
  869MOL0     C14588   6.247  11.255   8.544  0.2767  0.2256  0.4883
  869MOL0     C14589   6.151  11.228   8.427 -0.4584 -0.0422  0.4912
  869MOL0     C14590   6.023  11.299   8.458 -0.5975 -0.4930 -0.0306
  869MOL0     C14591   5.919  11.277   8.349 -0.2959  0.6148  0.2551
  869MOL0     C14592   5.808  11.382   8.381  0.8972 -0.1817 -0.0751
  869MOL0     N14593   5.703  11.366   8.286  0.5284  0.4830  0.0375
  869MOL0     C14594   5.712  11.383   8.148 -0.9996  0.6929  0.1111
  869MOL0     C14595   5.596  11.361   8.098 -0.8144  0.6131  0.0943
  869MOL0     C14596   5.554  11.362   7.948 -0.1699  0.0492 -0.4670
  869MOL0     C14597   5.455  11.468   7.926  0.8195 -0.9162 -0.6347
  869MOL0     C14598   5.367  11.443   7.794 -0.7033 -0.0853  0.1008
  869MOL0     C14599   5.251  11.544   7.774 -0.3095 -0.1189  0.0136
  869MOL0     O14600   5.153  11.545   7.877  0.1280 -0.3246  0.1504
  869MOL0     C14601   5.023  11.545   7.835 -0.3850 -1.4098 -0.3451
  869MOL0     C14602   4.963  11.670   7.808 -0.3551  0.0705 -0.0056
  869MOL0     C14603   4.823  11.666   7.766 -0.7276 -0.3154  0.5113
  869MOL0     C14604   4.750  11.550   7.755 -0.7604 -0.4140  0.1484
  869MOL0     C14605   4.602  11.546   7.723 -0.3901  0.2294  0.4112
  869MOL0     O14606   4.535  11.430   7.743 -0.2322 -0.5176  0.6497
  869MOL0     C14607   4.399  11.408   7.761 -0.3515  0.8290 -0.0412
  869MOL0     C14608   4.363  11.271   7.771  0.4060 -0.3204  0.3207
  869MOL0     C14609   4.232  11.236   7.783 -0.1417 -0.1931 -0.4783
  869MOL0     C14610   4.131  11.325   7.814  0.5305  0.6013  0.1357
  869MOL0     O14611   4.013  11.268   7.849  0.6082 -0.0523  0.5671
  869MOL0     C14612   3.909  11.364   7.888  0.2370 -0.4004 -0.2262
  869MOL0     C14613   3.777  11.298   7.887  0.4105  0.8991  0.1222
  869MOL0     C14614   3.677  11.390   7.960 -0.6222 -0.0323  0.0836
  869MOL0     C14615   3.531  11.342   7.934  0.2218  0.3587 -0.3218
  869MOL0     C14616   3.416  11.430   7.972 -0.0217 -0.5292 -0.1312
  869MOL0     C14617   3.285  11.356   8.008  0.2756  0.2004 -0.7038
  869MOL0     C14618   3.182  11.457   8.037  0.3056  0.8175 -0.9043
  869MOL0     C14619   3.044  11.390   8.050  0.8166 -0.7955  1.1198
  869MOL0    Cl14620   2.907  11.504   8.029  0.4988  0.0917  0.7049
  869MOL0     C14621   4.168  11.468   7.808 -0.0119  0.4491 -0.1718
  869MOL0     C14622   4.297  11.501   7.776  0.7676 -0.2578 -0.6114
  869MOL0     O14623   4.552  11.651   7.687  0.2678  0.6040 -0.3691
  869MOL0     C14624   4.816  11.432   7.786 -0.5122  1.8058 -0.0419
  869MOL0     C14625   4.954  11.426   7.825  0.2938 -0.4398  0.2745
  869MOL0     N14626   5.503  11.339   8.198  0.6692 -0.3116  0.2874
  869MOL0     N14627   5.566  11.331   8.314 -0.6612 -0.6065 -0.8069
  869MOL0     C14628   6.826  10.946   8.667  0.7443  0.3125 -0.7646
  869MOL0     C14629   6.965  10.917   8.669 -0.0434  0.2989  0.0855
  869MOL0     C14630   7.405  10.800   8.550  0.4783  0.7903 -0.8417
  869MOL0     C14631   7.450  10.849   8.672  0.0947  0.1775 -0.8572
  869MOL0     C14632   7.570  10.803   8.716 -0.2208 -0.2631 -0.1756
  869MOL0     C14633   7.658  10.715   8.645  0.4890 -0.4782  0.2667
  869MOL0     O14634   7.775  10.669   8.708  0.3767  0.0136  0.8722
  869MOL0     C14635   7.879  10.598   8.640  0.0773 -0.5769  0.1261
  869MOL0     C14636   7.963  10.516   8.725  0.7654 -0.0282  0.3374
  869MOL0     C14637   8.060  10.589   8.811 -0.5643 -1.2598 -0.0300
  869MOL0     C14638   8.157  10.511   8.903  0.8306  0.7817  0.2155
  869MOL0     C14639   8.275  10.459   8.835  0.5850 -0.1866  0.1889
  869MOL0     C14640   8.371  10.431   8.772  0.6452  0.8628  0.3091
  869MOL0     C14641   7.623  10.691   8.516  0.7697  0.4395  0.7678
  869MOL0     C14642   7.491  10.718   8.470  0.2151  0.4804 -0.8764
  869MOL0     H14643   7.062  10.988   8.356 -2.5191  0.6327 -1.4437
  869MOL0     H14644   6.823  11.065   8.349  1.1923 -0.1037 -0.6128
  869MOL0     H14645   6.652  11.146   8.727 -1.8225  1.1228  0.8453
  869MOL0     H14646   6.576  10.986   8.719  1.8413  2.3344  2.0010
  869MOL0     H14647   6.488  11.276   8.682  1.6902 -1.1144  2.2908
  869MOL0     H14648   6.412  11.150   8.768  0.3894  2.7268  1.1203
  869MOL0     H14649   6.320  11.044   8.547  1.0990 -0.4365 -0.9954
  869MOL0     H14650   6.432  11.154   8.467  3.1047 -1.0164  1.7047
  869MOL0     H14651   6.198  11.262   8.641  0.6378 -0.3493  0.7155
  869MOL0     H14652   6.290  11.355   8.556  4.0765 -0.7830 -2.6082
  869MOL0     H14653   6.137  11.120   8.428  2.7156 -0.5623  0.6411
  869MOL0     H14654   6.192  11.252   8.329  2.2114 -3.6239  0.5178
  869MOL0     H14655   6.041  11.407   8.456 -4.4447  0.3217  1.3527
  869MOL0     H14656   5.978  11.279   8.556 -1.8274  1.7554 -0.0823
  869MOL0     H14657   5.948  11.285   8.244 -0.5035  3.5142  0.3338
  869MOL0     H14658   5.880  11.175   8.354  1.9054 -0.2620  0.8424
  869MOL0     H14659   5.841  11.486   8.369  0.0719  0.2697  1.3106
  869MOL0     H14660   5.758  11.355   8.475 -2.5906 -0.5154 -1.8683
  869MOL0     H14661   5.803  11.390   8.089 -1.0981 -0.9443 -0.2815
  869MOL0     H14662   5.520  11.261   7.924  5.4296 -2.2534 -0.0545
  869MOL0     H14663   5.650  11.371   7.898  0.9972  0.1225  1.6793
  869MOL0     H14664   5.508  11.563   7.931 -2.2966  0.9712 -1.1728
  869MOL0     H14665   5.389  11.473   8.014  1.5870  2.6719 -0.1091
  869MOL0     H14666   5.443  11.466   7.719  1.5472  2.5441  2.9095
  869MOL0     H14667   5.345  11.336   7.787  2.9557 -0.9909  0.0057
  869MOL0     H14668   5.203  11.517   7.680 -2.4216 -2.3698  1.6078
  869MOL0     H14669   5.287  11.647   7.769 -0.1005 -0.2242 -0.7311
  869MOL0     H14670   5.014  11.763   7.833 -0.8049  0.6314 -1.0983
  869MOL0     H14671   4.786  11.768   7.755 -1.3120 -0.5808 -0.0549
  869MOL0     H14672   4.444  11.202   7.749  2.3730  1.6786  0.9362
  869MOL0     H14673   4.203  11.133   7.764 -1.5743  0.0361  0.3085
  869MOL0     H14674   3.911  11.438   7.807  4.0561 -0.3714 -0.2644
  869MOL0     H14675   3.936  11.404   7.986  1.5129 -2.0738  0.1527
  869MOL0     H14676   3.800  11.202   7.932  3.8296  2.0595  1.1388
  869MOL0     H14677   3.749  11.279   7.783 -0.6290 -2.3395  0.8974
  869MOL0     H14678   3.673  11.496   7.933 -0.7638  0.4123  1.7507
  869MOL0     H14679   3.706  11.379   8.065 -1.6413  2.0493  0.6329
  869MOL0     H14680   3.522  11.314   7.829  0.5927 -1.9327  0.1980
  869MOL0     H14681   3.513  11.249   7.989 -1.4038  0.5622 -0.4686
  869MOL0     H14682   3.392  11.499   7.890  0.8655  0.5909  0.5270
  869MOL0     H14683   3.448  11.484   8.061 -0.7382 -0.5551  0.1457
  869MOL0     H14684   3.298  11.305   8.103  0.3099  1.8984  0.2444
  869MOL0     H14685   3.258  11.281   7.933  1.3694 -2.2371  1.2202
  869MOL0     H14686   3.195  11.512   8.131 -0.0425  2.2608 -1.6653
  869MOL0     H14687   3.174  11.533   7.958  0.0065  0.9278 -0.7696
  869MOL0     H14688   3.033  11.335   8.144 -3.2658 -0.0760  1.2433
  869MOL0     H14689   3.035  11.322   7.965  2.7642  0.9378 -0.5812
  869MOL0     H14690   4.084  11.536   7.820  0.5099  1.5382 -2.2018
  869MOL0     H14691   4.320  11.606   7.757  0.2592 -0.1129 -0.4562
  869MOL0     H14692   4.780  11.329   7.784 -0.7218  1.6619  3.4839
  869MOL0     H14693   4.999  11.330   7.847  2.0925  0.0824 -0.8901
  869MOL0     H14694   6.777  10.934   8.764  2.2693  2.0216  0.2818
  869MOL0     H14695   7.008  10.874   8.760  1.5084  1.8435  0.1418
  869MOL0     H14696   7.408  10.925   8.737  2.6825  0.3718  0.7262
  869MOL0     H14697   7.604  10.828   8.816 -2.0297 -1.6198  0.8393
  869MOL0     H14698   7.928  10.670   8.574  0.1154 -1.9290 -1.3848
  869MOL0     H14699   7.821  10.531   8.576 -0.4509  0.6148 -0.6626
  869MOL0     H14700   7.893  10.461   8.789 -2.0034  0.2463 -2.2584
  869MOL0     H14701   8.010  10.437   8.666  0.6726  0.8449 -0.9374
  869MOL0     H14702   8.009  10.662   8.875  3.2405  0.1163  1.7220
  869MOL0     H14703   8.133  10.649   8.756  0.8146 -0.2640  2.6804
  869MOL0     H14704   8.183  10.566   8.994  1.8641  1.2943 -0.3780
  869MOL0     H14705   8.091  10.433   8.943  0.3076  1.2997  0.3654
  869MOL0     H14706   8.462  10.429   8.715 -0.2698  3.7361 -1.4462
  869MOL0     H14707   7.681  10.629   8.448 -1.7663  1.4954 -2.6576
  869MOL0     H14708   7.439  10.661   8.394 -1.8644 -3.3020  2.9236
  870MOL0     O14709   0.669   3.747  10.542 -0.1385 -0.1014  0.1219
  870MOL0     C14710   0.665   3.792  10.657 -0.5778 -0.6114  0.4763
  870MOL0     O14711   0.559   3.854  10.718  0.1610 -0.4298  0.0604
  870MOL0     C14712   0.433   3.875  10.655 -0.4196 -0.6678  0.0689
  870MOL0     C14713   0.321   3.867  10.732  0.3514  0.1927 -0.4200
  870MOL0     C14714   0.195   3.904  10.678  0.4105  0.2661 -0.0762
  870MOL0     C14715   0.180   3.944  10.545  0.5791  0.0035 -0.3503
  870MOL0     O14716   0.065   3.956  10.470 -0.6563  0.5333 -0.8775
  870MOL0     C14717  -0.054   3.903  10.515  0.4841  0.8638 -0.1663
  870MOL0     C14718  -0.164   3.933  10.401 -1.0328  0.2028 -0.6937
  870MOL0     C14719  -0.300   3.883  10.450 -0.7418  0.1408  0.9264
  870MOL0     C14720  -0.407   3.903  10.345 -0.0871  0.8654  0.0166
  870MOL0     C14721  -0.508   3.786  10.329  0.4644  0.4389  0.0021
  870MOL0     C14722  -0.612   3.814  10.218 -0.7429 -0.3140 -0.5405
  870MOL0     C14723  -0.733   3.714  10.239 -0.3523 -0.9402 -0.4654
  870MOL0     C14724  -0.822   3.750  10.127  0.5542  0.7235 -0.6520
  870MOL0     N14725  -0.936   3.662  10.100 -0.8329 -0.1613 -0.1501
  870MOL0     C14726  -0.924   3.529  10.054  0.3632 -0.0069 -0.4129
  870MOL0     C14727  -1.049   3.495  10.001  0.6247  0.8116 -0.7447
  870MOL0     C14728  -1.098   3.362   9.975  0.5194 -0.1230  0.5756
  870MOL0     C14729  -1.142   3.295  10.104  0.1049 -0.8017  0.1011
  870MOL0     C14730  -1.216   3.175  10.059  0.8809 -0.0497  0.7048
  870MOL0     C14731  -1.246   3.088  10.181  0.4221  0.8444 -0.0653
  870MOL0     O14732  -1.363   3.136  10.252 -0.4384 -0.7072  0.6975
  870MOL0     C14733  -1.489   3.136  10.200  0.2171  0.1700 -0.2184
  870MOL0     C14734  -1.593   3.209  10.263 -0.0242 -0.8537  0.3223
  870MOL0     C14735  -1.723   3.221  10.219 -0.0794  0.6018  1.0236
  870MOL0     C14736  -1.761   3.169  10.097  0.3746  0.4655  0.6527
  870MOL0     C14737  -1.898   3.189  10.047  0.2029 -0.4649 -0.2291
  870MOL0     O14738  -1.965   3.089   9.985  0.1053  0.6403  0.2819
  870MOL0     C14739  -2.102   3.090   9.941 -0.7885 -0.3924 -0.0986
  870MOL0     C14740  -2.147   2.981   9.867 -0.2564  0.6948 -0.3768
  870MOL0     C14741  -2.284   2.960   9.844  1.2078 -0.5485  0.3619
  870MOL0     C14742  -2.383   3.045   9.889  0.7977 -0.0096  0.1359
  870MOL0     O14743  -2.514   3.006   9.868  0.5940 -0.9446  0.1618
  870MOL0     C14744  -2.610   3.093   9.931 -0.7644 -0.0596  0.4474
  870MOL0     C14745  -2.754   3.040   9.891  1.0186  0.5023  0.2566
  870MOL0     C14746  -2.865   3.118   9.971 -0.4504 -0.8437  1.2882
  870MOL0     C14747  -2.998   3.072   9.908  0.3953  1.0758  0.4788
  870MOL0     C14748  -3.038   2.931   9.956  0.4690  0.2566 -0.0280
  870MOL0     C14749  -3.187   2.898   9.928  0.1973 -0.8769  0.5712
  870MOL0     C14750  -3.212   2.853   9.778 -0.0626  1.1060  0.3853
  870MOL0     C14751  -3.325   2.941   9.715 -0.4035  0.6688  0.6544
  870MOL0    Cl14752  -3.488   2.915   9.785 -0.0356  0.4021  0.1013
  870MOL0     C14753  -2.337   3.151   9.962  0.3577 -0.2856  0.6641
  870MOL0     C14754  -2.204   3.190   9.978  0.3647  0.2548 -0.1208
  870MOL0     O14755  -1.940   3.304  10.075 -0.6186 -0.4268 -0.4772
  870MOL0     C14756  -1.659   3.091  10.031 -0.7220  0.4341  0.1219
  870MOL0     C14757  -1.526   3.077  10.077 -0.0579  0.2156  0.0257
  870MOL0     N14758  -1.119   3.610   9.995  0.0893 -0.4432  0.1668
  870MOL0     N14759  -1.049   3.707  10.054 -0.2257  0.5248  0.2101
  870MOL0     C14760   0.297   3.947  10.468  0.0321 -0.0995 -0.1513
  870MOL0     C14761   0.425   3.926  10.525  0.3705  0.0451 -0.4215
  870MOL0     C14762   0.797   3.806  10.729 -0.1846  0.1904 -0.9207
  870MOL0     C14763   0.804   3.812  10.871  0.9590  0.3335  0.0797
  870MOL0     C14764   0.926   3.828  10.937  0.9140  0.2454 -0.7097
  870MOL0     C14765   1.042   3.853  10.868 -0.7832  0.5943  0.7956
  870MOL0     O14766   1.173   3.866  10.914  1.4155  0.3520 -0.1754
  870MOL0     C14767   1.181   3.991  10.975 -0.9994 -0.0076  0.2447
  870MOL0     C14768   1.289   4.078  10.923 -0.2462  0.1342 -0.0065
  870MOL0     C14769   1.434   4.031  10.936 -0.1197 -0.2077 -0.8346
  870MOL0     C14770   1.532   4.130  10.870  0.4647  0.1074 -0.2795
  870MOL0     C14771   1.673   4.084  10.863 -0.2174  0.6021  1.0817
  870MOL0     C14772   1.784   4.043  10.842  0.0647 -0.0613  0.4233
  870MOL0     C14773   1.033   3.845  10.722  0.8254  0.5613  0.2059
  870MOL0     C14774   0.916   3.820  10.659  0.0996 -0.6986  0.1653
  870MOL0     H14775   0.332   3.837  10.836 -1.6985 -0.5775 -0.3841
  870MOL0     H14776   0.101   3.889  10.730  0.2516  1.6661  0.0699
  870MOL0     H14777  -0.080   3.945  10.612  0.3733  0.3657  0.0203
  870MOL0     H14778  -0.044   3.797  10.539  0.7998  0.6011 -1.4022
  870MOL0     H14779  -0.118   3.881  10.316 -0.2962  0.4944 -0.4853
  870MOL0     H14780  -0.170   4.038  10.371 -2.3246  0.1124 -0.8043
  870MOL0     H14781  -0.329   3.931  10.544 -1.5361  1.9583 -0.1815
  870MOL0     H14782  -0.278   3.778  10.472  3.8011  0.1652 -2.1976
  870MOL0     H14783  -0.475   3.983  10.378  1.1234  1.5092  1.0555
  870MOL0     H14784  -0.361   3.925  10.248 -0.3159 -1.1024 -0.5686
  870MOL0     H14785  -0.555   3.775  10.427  1.2922  1.4749  0.5436
  870MOL0     H14786  -0.445   3.700  10.304 -2.2286 -2.2004  1.7181
  870MOL0     H14787  -0.568   3.804  10.118  1.4237  0.6347  0.2550
  870MOL0     H14788  -0.648   3.914  10.241  0.7673 -0.5487  3.6952
  870MOL0     H14789  -0.706   3.608  10.245 -0.2273 -0.9687 -1.3970
  870MOL0     H14790  -0.780   3.742  10.334  1.8454  3.5288 -0.4481
  870MOL0     H14791  -0.775   3.767  10.031 -3.4110  1.1406 -2.7428
  870MOL0     H14792  -0.862   3.851  10.140  0.0334  0.4731 -0.2144
  870MOL0     H14793  -0.842   3.460  10.072  1.5013  1.7862  1.9935
  870MOL0     H14794  -1.011   3.316   9.927  1.1975  0.9623  0.7417
  870MOL0     H14795  -1.184   3.371   9.908  0.4556  1.0518  0.7987
  870MOL0     H14796  -1.217   3.356  10.155 -1.4033 -2.5018  0.0163
  870MOL0     H14797  -1.056   3.276  10.169 -0.1664  1.5359  1.2446
  870MOL0     H14798  -1.296   3.194   9.987  1.6937  0.3620 -0.0978
  870MOL0     H14799  -1.149   3.115   9.997  0.4779 -0.2459  0.4539
  870MOL0     H14800  -1.158   3.079  10.245 -0.6899 -0.4506  1.3914
  870MOL0     H14801  -1.272   2.987  10.147 -1.7681  0.6595  1.8399
  870MOL0     H14802  -1.566   3.263  10.354  1.1299 -0.6896 -0.1030
  870MOL0     H14803  -1.794   3.279  10.278 -0.3147  1.0183  0.3358
  870MOL0     H14804  -2.073   2.909   9.834 -3.0395 -0.3952 -5.0229
  870MOL0     H14805  -2.318   2.867   9.800 -1.4688  1.2796 -1.8054
  870MOL0     H14806  -2.605   3.193   9.887  0.5441 -0.3082  0.0038
  870MOL0     H14807  -2.593   3.104  10.038  2.1140  1.8843 -0.1077
  870MOL0     H14808  -2.763   2.931   9.889  0.5726  0.5063  1.4139
  870MOL0     H14809  -2.774   3.085   9.793 -2.5502 -1.9885 -0.3780
  870MOL0     H14810  -2.854   3.226   9.972 -0.9774 -0.7745  0.5897
  870MOL0     H14811  -2.861   3.099  10.079  0.7294  0.9049  1.5859
  870MOL0     H14812  -3.082   3.132   9.945 -0.2285 -0.5278  1.8064
  870MOL0     H14813  -2.997   3.085   9.800 -0.1178  3.6692  0.7097
  870MOL0     H14814  -3.024   2.917  10.064  3.8781 -0.9942 -0.5161
  870MOL0     H14815  -2.980   2.848   9.914  1.5618  0.5363  0.8970
  870MOL0     H14816  -3.246   2.988   9.947  1.3460  0.0189  0.0375
  870MOL0     H14817  -3.227   2.818   9.992 -0.5994  0.2504  1.5268
  870MOL0     H14818  -3.124   2.861   9.714 -0.4494 -2.4875 -0.8707
  870MOL0     H14819  -3.235   2.746   9.769  1.4096  0.8526 -0.7239
  870MOL0     H14820  -3.320   2.932   9.606  1.1137  1.5268  0.6244
  870MOL0     H14821  -3.293   3.045   9.719 -2.1441  1.3300 -0.9515
  870MOL0     H14822  -2.406   3.210  10.022  1.3874 -0.5519  2.1739
  870MOL0     H14823  -2.179   3.262  10.055 -0.5699  2.1348 -1.4683
  870MOL0     H14824  -1.689   3.036   9.942 -1.4856  0.0667  0.5947
  870MOL0     H14825  -1.466   3.012  10.014 -3.1807 -2.2074 -0.7126
  870MOL0     H14826   0.284   3.969  10.363 -0.4229 -0.1072 -0.1003
  870MOL0     H14827   0.515   3.947  10.468  0.4546 -0.8117 -0.6092
  870MOL0     H14828   0.719   3.806  10.938  1.0483 -0.1651  0.1552
  870MOL0     H14829   0.922   3.830  11.045  0.1082 -2.2182 -0.6497
  870MOL0     H14830   1.214   3.976  11.078  0.6969  2.4894  0.1597
  870MOL0     H14831   1.089   4.052  10.971 -0.4016  0.8779 -0.4070
  870MOL0     H14832   1.268   4.104  10.819 -2.9688  0.8870  0.6415
  870MOL0     H14833   1.281   4.170  10.983 -2.8062  0.6868 -1.0466
  870MOL0     H14834   1.446   3.932  10.890  2.9520 -0.6100  0.5778
  870MOL0     H14835   1.466   4.015  11.039 -0.5791 -0.6136 -0.7504
  870MOL0     H14836   1.480   4.142  10.774 -0.5933 -1.2023  0.1048
  870MOL0     H14837   1.524   4.230  10.915 -2.3604  0.0654 -0.4726
  870MOL0     H14838   1.883   4.006  10.826 -1.2169 -2.8400 -2.0209
  870MOL0     H14839   1.122   3.852  10.661 -0.1730 -1.8660 -1.6739
  870MOL0     H14840   0.924   3.814  10.551  2.2196 -0.7087  0.2695
  871MOL0     O14841   4.417   3.962   3.626  0.3269  0.2168 -0.0133
  871MOL0     C14842   4.392   3.888   3.719 -0.1780  0.3042  0.2103
  871MOL0     O14843   4.267   3.843   3.760  0.0945  0.5307  0.7345
  871MOL0     C14844   4.159   3.848   3.679 -0.3230  0.6333  0.1238
  871MOL0     C14845   4.157   3.853   3.531  0.1825  0.2915 -0.3828
  871MOL0     C14846   4.043   3.839   3.457  0.0743  0.8746  0.1867
  871MOL0     C14847   3.920   3.829   3.522  0.9602  0.0734  0.1689
  871MOL0     O14848   3.803   3.847   3.452 -0.3027  0.3766  0.5092
  871MOL0     C14849   3.798   3.790   3.322 -0.2763 -0.2824 -0.6453
  871MOL0     C14850   3.663   3.804   3.267 -0.6612  0.6217  0.3119
  871MOL0     C14851   3.570   3.710   3.348 -0.3755 -0.5581  0.0853
  871MOL0     C14852   3.426   3.750   3.311  0.2617 -0.4198  0.6969
  871MOL0     C14853   3.324   3.658   3.389 -0.2838 -0.6593  0.0940
  871MOL0     C14854   3.183   3.717   3.399  0.8820  0.5259 -0.0904
  871MOL0     C14855   3.085   3.616   3.463 -0.0249  0.0488  0.3297
  871MOL0     C14856   2.962   3.684   3.522  0.5666  0.7664 -0.2466
  871MOL0     N14857   2.880   3.592   3.607  0.0104  0.4405 -0.3325
  871MOL0     C14858   2.886   3.452   3.631  1.0655  0.2778 -0.0004
  871MOL0     C14859   2.782   3.430   3.718 -0.6825  0.0883 -0.4155
  871MOL0     C14860   2.738   3.301   3.784 -0.0047 -0.0154  0.5455
  871MOL0     C14861   2.681   3.322   3.920  2.1328  0.7509 -0.4534
  871MOL0     C14862   2.599   3.206   3.965  1.2535 -0.6391  0.1694
  871MOL0     C14863   2.475   3.177   3.888 -0.0402 -0.2134  0.5319
  871MOL0     O14864   2.434   3.047   3.946 -0.3919 -0.2660 -0.1102
  871MOL0     C14865   2.314   3.000   3.917  0.4487 -0.9630 -0.2681
  871MOL0     C14866   2.298   2.871   3.957  0.0119 -0.9406  0.7234
  871MOL0     C14867   2.179   2.802   3.925  0.6857 -0.1622 -1.3106
  871MOL0     C14868   2.076   2.854   3.848 -0.4675 -1.4760 -0.5639
  871MOL0     C14869   1.945   2.782   3.827 -0.3548 -0.5361 -0.2490
  871MOL0     O14870   1.911   2.665   3.902  0.1178  0.0897 -0.0205
  871MOL0     C14871   1.789   2.598   3.888 -0.1543  0.3111  0.7094
  871MOL0     C14872   1.787   2.462   3.885 -0.3154  0.2792  0.1299
  871MOL0     C14873   1.671   2.395   3.882  0.0640  0.2162  0.2873
  871MOL0     C14874   1.546   2.469   3.857 -0.7323  0.1766  0.2316
  871MOL0     O14875   1.424   2.412   3.844 -0.3755 -0.2055  0.2133
  871MOL0     C14876   1.414   2.272   3.804  0.2869 -0.1711 -0.0845
  871MOL0     C14877   1.269   2.256   3.742 -0.1465 -0.4404 -0.5108
  871MOL0     C14878   1.234   2.115   3.680  0.3576 -0.2878  0.1738
  871MOL0     C14879   1.073   2.111   3.636 -0.3256 -0.2966  0.7855
  871MOL0     C14880   1.030   1.966   3.600 -0.0026  0.2307 -0.1893
  871MOL0     C14881   1.091   1.917   3.466  0.1903  0.1594 -0.1258
  871MOL0     C14882   1.034   1.782   3.433 -0.3081 -0.3127  0.0300
  871MOL0     C14883   0.914   1.811   3.340 -0.1402  0.1156 -0.0007
  871MOL0    Cl14884   0.932   1.903   3.178 -0.0044  0.8853 -0.4233
  871MOL0     C14885   1.561   2.607   3.844  0.3756  0.8259 -0.9341
  871MOL0     C14886   1.673   2.671   3.862 -1.5209 -0.0102  0.3281
  871MOL0     O14887   1.870   2.827   3.739 -0.3016  0.1177  0.3970
  871MOL0     C14888   2.101   2.988   3.799  0.7917  0.8255  0.4385
  871MOL0     C14889   2.221   3.057   3.827  0.7990  0.7523 -0.1768
  871MOL0     N14890   2.713   3.546   3.730  0.4216 -0.2147  0.6897
  871MOL0     N14891   2.764   3.642   3.658  0.0950 -0.7549 -0.0770
  871MOL0     C14892   3.918   3.828   3.662  0.5119  0.2599 -0.4183
  871MOL0     C14893   4.029   3.828   3.741 -1.0413  0.8661 -0.5616
  871MOL0     C14894   4.512   3.835   3.789  0.6018  0.8075  0.6162
  871MOL0     C14895   4.643   3.855   3.740  0.0265  0.1937  0.4367
  871MOL0     C14896   4.753   3.793   3.806  0.2887 -0.4461  0.3128
  871MOL0     C14897   4.737   3.680   3.894 -0.4706 -0.3287 -0.8342
  871MOL0     O14898   4.832   3.594   3.948 -0.5748 -0.2430  0.2771
  871MOL0     C14899   4.969   3.627   3.916 -0.4305  0.0584  0.0209
  871MOL0     C14900   5.073   3.529   3.970 -0.0455 -0.5762  0.1097
  871MOL0     C14901   5.084   3.543   4.126 -0.2847  0.0459  0.2875
  871MOL0     C14902   5.174   3.439   4.193 -0.0541 -0.9194  0.9936
  871MOL0     C14903   5.092   3.316   4.204  0.0061 -0.1276  0.6418
  871MOL0     C14904   5.032   3.217   4.225  0.2141  0.2849 -0.5491
  871MOL0     C14905   4.606   3.660   3.932  0.0510 -0.4662  0.9017
  871MOL0     C14906   4.494   3.731   3.887 -0.2279 -0.7333 -0.1066
  871MOL0     H14907   4.251   3.869   3.480  1.4496  1.3400  2.1059
  871MOL0     H14908   4.060   3.831   3.351  1.0260 -0.8476  0.4412
  871MOL0     H14909   3.827   3.684   3.325 -0.0109 -0.1941  0.7742
  871MOL0     H14910   3.863   3.847   3.255 -2.5788  0.0304 -2.7592
  871MOL0     H14911   3.665   3.768   3.164  0.8489  0.8688  0.2338
  871MOL0     H14912   3.645   3.912   3.263 -1.3205  0.4849 -1.0279
  871MOL0     H14913   3.584   3.723   3.455 -1.3623  0.7650  0.0820
  871MOL0     H14914   3.583   3.605   3.320 -1.3511 -0.2073 -1.8785
  871MOL0     H14915   3.418   3.854   3.344  3.1622 -0.3718  1.4931
  871MOL0     H14916   3.404   3.741   3.204  0.2854 -0.2529  0.6782
  871MOL0     H14917   3.369   3.641   3.487 -1.8676 -0.2746  0.9139
  871MOL0     H14918   3.315   3.568   3.327  0.5092 -1.3376  0.9547
  871MOL0     H14919   3.131   3.731   3.304 -1.6671  0.3418  1.1912
  871MOL0     H14920   3.200   3.810   3.453 -3.5137  1.0778  0.6888
  871MOL0     H14921   3.068   3.533   3.394  0.2862  0.0050  0.3024
  871MOL0     H14922   3.133   3.571   3.550 -0.9779 -1.4150  0.1408
  871MOL0     H14923   2.899   3.738   3.450  2.2121 -0.6315 -2.8764
  871MOL0     H14924   2.996   3.765   3.586 -1.6900  0.6170  1.2669
  871MOL0     H14925   2.947   3.377   3.582 -0.1723 -0.1841 -0.8747
  871MOL0     H14926   2.822   3.232   3.782 -0.8275 -1.0455 -1.1273
  871MOL0     H14927   2.658   3.271   3.716 -1.9827  0.8795  2.3734
  871MOL0     H14928   2.626   3.416   3.924 -3.9946 -2.1769 -2.6127
  871MOL0     H14929   2.766   3.326   3.989  1.8203  0.4393 -0.0464
  871MOL0     H14930   2.664   3.119   3.971  0.0206 -1.6549 -0.5791
  871MOL0     H14931   2.576   3.218   4.071 -0.3420  2.8957 -0.4261
  871MOL0     H14932   2.491   3.156   3.782 -1.3489  3.6450 -0.6165
  871MOL0     H14933   2.401   3.258   3.896 -0.0957 -0.1464 -0.6015
  871MOL0     H14934   2.377   2.843   4.027 -0.5217  1.2035  2.3209
  871MOL0     H14935   2.165   2.702   3.966  3.2861 -0.2470 -0.4420
  871MOL0     H14936   1.872   2.397   3.903  0.2778  0.8067 -0.7262
  871MOL0     H14937   1.671   2.288   3.899  0.5331  0.4619  2.1909
  871MOL0     H14938   1.412   2.215   3.897 -1.0674 -1.3469 -0.7978
  871MOL0     H14939   1.485   2.228   3.733  0.0963 -0.3942 -0.1403
  871MOL0     H14940   1.250   2.328   3.663  0.1788 -0.4902 -0.6373
  871MOL0     H14941   1.205   2.274   3.829  1.7554 -0.7461  1.0448
  871MOL0     H14942   1.250   2.038   3.756 -1.1256 -0.6016  0.1970
  871MOL0     H14943   1.298   2.093   3.594  1.9325  1.5498  0.8264
  871MOL0     H14944   1.005   2.148   3.713 -0.6754  0.9342 -0.0922
  871MOL0     H14945   1.059   2.176   3.550  1.1157  2.1489  2.2628
  871MOL0     H14946   0.921   1.956   3.594  0.0253 -1.2353  1.2362
  871MOL0     H14947   1.061   1.898   3.679  2.1982 -1.4343 -2.3190
  871MOL0     H14948   1.196   1.904   3.491 -0.0003 -0.7027  0.2870
  871MOL0     H14949   1.087   1.988   3.383  0.0887 -1.4160 -1.5330
  871MOL0     H14950   1.111   1.716   3.393  1.3822  1.5264  0.1528
  871MOL0     H14951   0.997   1.728   3.521 -0.0249 -1.1592 -0.3634
  871MOL0     H14952   0.832   1.859   3.393 -0.3152  0.9711 -0.9989
  871MOL0     H14953   0.870   1.716   3.308  1.7190 -0.4241 -1.1326
  871MOL0     H14954   1.469   2.660   3.820 -0.0651  1.3666  1.6145
  871MOL0     H14955   1.665   2.779   3.853 -3.7942 -0.3424 -4.4024
  871MOL0     H14956   2.026   3.027   3.730  2.9338 -0.6168 -2.9837
  871MOL0     H14957   2.227   3.156   3.783  0.5759  0.5082 -0.7656
  871MOL0     H14958   3.823   3.817   3.715 -0.1782  1.8934 -1.2265
  871MOL0     H14959   4.018   3.829   3.849  0.9006 -0.8854 -0.2767
  871MOL0     H14960   4.655   3.931   3.664 -0.4915 -0.3973 -0.2553
  871MOL0     H14961   4.856   3.827   3.798 -0.2432  1.2009  0.1339
  871MOL0     H14962   4.988   3.728   3.955 -1.1036  0.4169 -0.5572
  871MOL0     H14963   4.987   3.627   3.808  1.5047  3.6165  0.1772
  871MOL0     H14964   5.045   3.429   3.935 -0.2691 -0.6892  0.6022
  871MOL0     H14965   5.167   3.551   3.920  0.6071 -2.5728  0.3971
  871MOL0     H14966   4.983   3.530   4.166 -0.0998 -0.4308  0.6016
  871MOL0     H14967   5.115   3.648   4.130 -0.6040  0.3867 -2.9322
  871MOL0     H14968   5.259   3.418   4.127  1.0809  1.0798  1.7709
  871MOL0     H14969   5.208   3.463   4.293 -0.4181  0.4987  0.7923
  871MOL0     H14970   4.968   3.135   4.250 -1.2119  1.8306  1.1654
  871MOL0     H14971   4.583   3.575   3.995 -0.0813 -0.6114  0.6613
  871MOL0     H14972   4.397   3.696   3.921 -0.4761 -1.1470 -1.1928
  872MOL0     O14973   3.382   1.328   3.962 -0.0613 -0.2503  0.7018
  872MOL0     C14974   3.430   1.429   4.009  0.4692  0.3501 -0.3516
  872MOL0     O14975   3.360   1.521   4.078  1.3089  0.2873 -0.0379
  872MOL0     C14976   3.229   1.502   4.114  0.0309 -0.6878  0.0184
  872MOL0     C14977   3.154   1.385   4.119  0.1108 -0.3879 -0.2057
  872MOL0     C14978   3.008   1.389   4.148  0.0170  0.1952 -0.8111
  872MOL0     C14979   2.941   1.514   4.159  0.6185  0.0751 -0.2846
  872MOL0     O14980   2.815   1.529   4.195 -0.3159 -0.0833  0.2063
  872MOL0     C14981   2.744   1.407   4.172  0.3881 -0.4890 -0.0873
  872MOL0     C14982   2.597   1.444   4.165  0.3167  0.2573  0.2732
  872MOL0     C14983   2.500   1.328   4.176  0.5946 -0.2736 -0.4449
  872MOL0     C14984   2.361   1.370   4.162  0.1528 -0.4855  0.7580
  872MOL0     C14985   2.270   1.241   4.141  0.1528 -0.6031 -0.4282
  872MOL0     C14986   2.129   1.264   4.081 -0.1713 -0.1835 -0.3307
  872MOL0     C14987   2.042   1.346   4.183  0.1796 -0.2782  0.2174
  872MOL0     C14988   1.896   1.371   4.136  0.1251 -0.1835  0.6068
  872MOL0     N14989   1.819   1.248   4.166 -0.1335 -0.9220 -0.8151
  872MOL0     C14990   1.747   1.231   4.286 -0.2207 -0.7252  0.9696
  872MOL0     C14991   1.718   1.103   4.295 -0.4802  0.5065  0.3247
  872MOL0     C14992   1.643   1.014   4.401  0.2446  0.5507 -0.1931
  872MOL0     C14993   1.513   0.955   4.340  0.0996  0.5027 -0.8810
  872MOL0     C14994   1.421   0.918   4.458  0.3248  0.9651 -1.0639
  872MOL0     C14995   1.299   0.840   4.410  1.0078  0.2304  0.3707
  872MOL0     O14996   1.207   0.824   4.521  0.1005  1.4263 -0.2412
  872MOL0     C14997   1.098   0.747   4.496 -0.6159 -0.8003 -0.3030
  872MOL0     C14998   1.005   0.731   4.605 -0.2027  0.1466  0.3234
  872MOL0     C14999   0.888   0.646   4.589  0.1618 -1.1161 -0.0446
  872MOL0     C15000   0.862   0.578   4.465 -0.2922  0.4678  0.4465
  872MOL0     C15001   0.743   0.496   4.455  0.0267  0.5921  0.4903
  872MOL0     O15002   0.724   0.443   4.331 -0.2040 -0.0778  0.0401
  872MOL0     C15003   0.629   0.338   4.316 -0.8162  0.3790 -0.1247
  872MOL0     C15004   0.661   0.196   4.339  0.5545  0.0502 -0.0975
  872MOL0     C15005   0.563   0.102   4.307  0.6544 -0.3608  0.0996
  872MOL0     C15006   0.438   0.139   4.250 -0.9694  0.6016 -0.3439
  872MOL0     O15007   0.360   0.030   4.223  0.0163  0.4110  0.4584
  872MOL0     C15008   0.235   0.032   4.291 -0.2686  0.0380  0.7095
  872MOL0     C15009   0.176  -0.104   4.256 -0.4809  0.2897 -0.2024
  872MOL0     C15010   0.046  -0.131   4.330 -0.1434  0.5452  0.5412
  872MOL0     C15011  -0.020  -0.242   4.259  0.7824 -0.2031 -0.3228
  872MOL0     C15012  -0.164  -0.286   4.322  0.5496  0.1046 -0.1509
  872MOL0     C15013  -0.211  -0.432   4.302 -0.6855  0.5629  0.7495
  872MOL0     C15014  -0.316  -0.455   4.406 -0.5229  0.7485  0.9546
  872MOL0     C15015  -0.349  -0.606   4.423 -0.6211  0.2924  0.5126
  872MOL0    Cl15016  -0.208  -0.706   4.460 -0.5014  0.5828  0.0152
  872MOL0     C15017   0.414   0.276   4.235 -0.2772  0.3598  0.1536
  872MOL0     C15018   0.509   0.373   4.268 -0.1807 -0.3083  0.2712
  872MOL0     O15019   0.666   0.488   4.549  0.2424  0.1885 -0.2717
  872MOL0     C15020   0.957   0.597   4.362 -0.3600  0.7424 -0.1147
  872MOL0     C15021   1.071   0.683   4.373  0.2991  0.0656  0.9550
  872MOL0     N15022   1.778   1.039   4.180  0.5318 -0.1315  0.0543
  872MOL0     N15023   1.834   1.123   4.099  0.4734 -1.3203 -0.8261
  872MOL0     C15024   3.014   1.631   4.153 -0.4075  0.3177  0.1983
  872MOL0     C15025   3.157   1.621   4.137 -0.8400 -0.1662  0.0353
  872MOL0     C15026   3.582   1.451   4.003  0.0685 -0.0018  0.0130
  872MOL0     C15027   3.645   1.378   3.902  0.3976  0.5581 -0.1808
  872MOL0     C15028   3.782   1.385   3.902  0.5609  0.1232 -0.2217
  872MOL0     C15029   3.856   1.448   4.002 -0.6381 -0.6206 -0.5247
  872MOL0     O15030   3.984   1.425   3.975 -0.8473 -0.7248  0.7069
  872MOL0     C15031   4.076   1.463   4.072  0.1022 -0.4517 -0.0750
  872MOL0     C15032   4.227   1.445   4.038  0.8579 -0.7727 -0.1263
  872MOL0     C15033   4.278   1.513   3.916  0.4519  0.4727  0.6177
  872MOL0     C15034   4.430   1.554   3.940  0.9568  0.4542 -0.1934
  872MOL0     C15035   4.523   1.442   3.975 -0.4049 -0.8560 -0.1885
  872MOL0     C15036   4.594   1.344   3.991  0.5697 -0.2221  0.6484
  872MOL0     C15037   3.793   1.511   4.106 -1.4517 -0.5076 -0.4867
  872MOL0     C15038   3.655   1.526   4.096 -1.0074  0.5490  0.1593
  872MOL0     H15039   3.204   1.290   4.111 -0.8929 -0.7860 -2.4146
  872MOL0     H15040   2.965   1.293   4.174  0.7925 -0.3514 -1.4840
  872MOL0     H15041   2.762   1.339   4.256  3.5078 -2.2949 -2.0360
  872MOL0     H15042   2.771   1.357   4.078  1.1256 -5.4473  2.4198
  872MOL0     H15043   2.579   1.499   4.071  1.8323 -0.9374 -0.7708
  872MOL0     H15044   2.585   1.514   4.248  1.3643  1.5730 -0.6323
  872MOL0     H15045   2.521   1.276   4.270 -3.9516  1.3802  1.7682
  872MOL0     H15046   2.538   1.250   4.109  1.3383  1.7045 -2.4617
  872MOL0     H15047   2.329   1.432   4.246 -0.6778 -1.0439  0.8652
  872MOL0     H15048   2.346   1.428   4.070 -1.8814 -0.9488  0.7488
  872MOL0     H15049   2.270   1.181   4.233 -0.2957 -1.7889 -1.1860
  872MOL0     H15050   2.317   1.187   4.060 -0.5634 -1.7647 -0.0938
  872MOL0     H15051   2.084   1.170   4.049  2.2182 -0.6402 -2.7375
  872MOL0     H15052   2.133   1.318   3.986 -1.4322  0.3359 -0.1018
  872MOL0     H15053   2.039   1.285   4.274 -1.2781  1.1128  1.1469
  872MOL0     H15054   2.087   1.441   4.213  1.5348 -1.1320  0.9994
  872MOL0     H15055   1.902   1.395   4.029  1.0061 -0.6985  0.5301
  872MOL0     H15056   1.846   1.457   4.181  1.2096  0.4907  0.5612
  872MOL0     H15057   1.696   1.313   4.336 -0.0725  3.2283 -4.4778
  872MOL0     H15058   1.629   1.080   4.486  3.6926 -0.0061  0.9732
  872MOL0     H15059   1.708   0.934   4.437  0.8548  0.9355 -0.4145
  872MOL0     H15060   1.531   0.869   4.274  1.4844 -0.1438  0.2815
  872MOL0     H15061   1.453   1.025   4.282 -2.2507 -1.7127 -1.2809
  872MOL0     H15062   1.468   0.860   4.537  0.3744  1.9839 -0.3307
  872MOL0     H15063   1.377   1.010   4.497  0.9367  1.1207 -0.7312
  872MOL0     H15064   1.318   0.738   4.378 -1.1347 -0.1220  0.0942
  872MOL0     H15065   1.257   0.901   4.330  1.3859 -1.1046 -0.8724
  872MOL0     H15066   1.037   0.788   4.692  1.4248  0.0977 -0.1994
  872MOL0     H15067   0.813   0.626   4.665 -2.4699  1.2324 -1.8316
  872MOL0     H15068   0.753   0.157   4.381  0.0976 -0.8177  0.1242
  872MOL0     H15069   0.572  -0.005   4.319 -0.1449 -0.8860 -3.0372
  872MOL0     H15070   0.176   0.119   4.262  0.7577  1.0788  1.6218
  872MOL0     H15071   0.249   0.025   4.399  2.7867 -2.9935  0.2921
  872MOL0     H15072   0.247  -0.184   4.276 -2.9347 -1.9486  0.0297
  872MOL0     H15073   0.157  -0.110   4.148  0.7508  1.6591 -0.5259
  872MOL0     H15074  -0.005  -0.034   4.332 -0.3207  0.4605  2.5194
  872MOL0     H15075   0.053  -0.153   4.437 -3.4317 -0.4796  0.6751
  872MOL0     H15076  -0.038  -0.226   4.153 -1.3490 -2.2474 -0.3371
  872MOL0     H15077   0.047  -0.328   4.262 -1.2608 -1.9452 -1.8987
  872MOL0     H15078  -0.244  -0.220   4.286  0.1486 -0.1511  0.2686
  872MOL0     H15079  -0.163  -0.270   4.430  1.1846 -0.8840 -0.0002
  872MOL0     H15080  -0.128  -0.500   4.322 -0.8321 -0.0738 -0.7227
  872MOL0     H15081  -0.249  -0.446   4.201 -0.8510  0.1112  0.8732
  872MOL0     H15082  -0.298  -0.409   4.503  0.4484 -0.3924  1.3427
  872MOL0     H15083  -0.406  -0.400   4.375 -0.8161  0.9865  2.1849
  872MOL0     H15084  -0.393  -0.640   4.329  1.0027  2.8248 -1.2989
  872MOL0     H15085  -0.420  -0.616   4.506 -0.3601 -0.3052  0.6635
  872MOL0     H15086   0.330   0.301   4.171 -1.1280 -0.2523  0.9853
  872MOL0     H15087   0.480   0.474   4.243  0.7759 -0.9902 -4.6018
  872MOL0     H15088   0.947   0.541   4.270 -2.1116  0.0812  0.4387
  872MOL0     H15089   1.146   0.675   4.295  1.7253  0.4124  2.2611
  872MOL0     H15090   2.964   1.727   4.165 -1.9650 -0.5028  0.5784
  872MOL0     H15091   3.225   1.706   4.138 -1.5254  0.4769 -1.9712
  872MOL0     H15092   3.595   1.309   3.835  1.7033 -2.3941  1.6465
  872MOL0     H15093   3.834   1.339   3.818 -0.8600 -1.4371 -0.2887
  872MOL0     H15094   4.056   1.413   4.167  3.8057 -0.2845  0.9380
  872MOL0     H15095   4.071   1.570   4.090  0.3637 -0.0610 -2.1092
  872MOL0     H15096   4.277   1.481   4.128  0.9813  1.4822 -1.0358
  872MOL0     H15097   4.244   1.338   4.025  1.8488 -0.5163 -1.1751
  872MOL0     H15098   4.209   1.594   3.890 -1.7401 -2.1062 -2.3059
  872MOL0     H15099   4.279   1.439   3.835 -1.1110  1.0091  0.0746
  872MOL0     H15100   4.472   1.613   3.858 -0.5898 -2.8105 -3.6765
  872MOL0     H15101   4.423   1.625   4.023  1.2894  2.3021 -1.6879
  872MOL0     H15102   4.660   1.259   3.991 -0.2020 -0.9441 -2.6787
  872MOL0     H15103   3.842   1.555   4.192  3.8266 -3.5928 -1.4563
  872MOL0     H15104   3.600   1.575   4.175 -1.3526 -2.4214  1.9180
  873MOL0     O15105   1.436  11.230   7.356  0.2245  0.0466 -0.4076
  873MOL0     C15106   1.412  11.198   7.470  0.2200 -0.5417 -0.7084
  873MOL0     O15107   1.294  11.149   7.521  0.1493  0.9523 -0.7823
  873MOL0     C15108   1.185  11.142   7.439  0.1651  0.1924  0.2743
  873MOL0     C15109   1.117  11.265   7.414  0.4422 -0.0736  0.0112
  873MOL0     C15110   1.005  11.270   7.332  0.2397  0.1404 -0.0938
  873MOL0     C15111   0.959  11.148   7.274 -0.2858 -0.5287  0.6450
  873MOL0     O15112   0.859  11.143   7.182 -0.3503 -0.0234 -0.3037
  873MOL0     C15113   0.734  11.210   7.211  0.0545 -0.9972  0.3843
  873MOL0     C15114   0.638  11.184   7.090 -0.1865 -0.0364 -0.2047
  873MOL0     C15115   0.554  11.307   7.047  0.4667  0.7563 -0.3374
  873MOL0     C15116   0.472  11.272   6.923  0.1356  0.4533  0.2583
  873MOL0     C15117   0.392  11.396   6.870  1.2359 -0.7264  0.5184
  873MOL0     C15118   0.331  11.372   6.734 -0.7534  0.5266  0.4093
  873MOL0     C15119   0.228  11.477   6.704  0.9260  0.1391 -0.4882
  873MOL0     C15120   0.107  11.481   6.794 -0.6511 -0.2407 -0.0609
  873MOL0     N15121   0.013  11.597   6.783  0.8782 -0.4086  0.3899
  873MOL0     C15122   0.032  11.708   6.702  0.9240  0.2628 -0.8770
  873MOL0     C15123  -0.098  11.764   6.692  0.1991  0.8955  0.3850
  873MOL0     C15124  -0.129  11.890   6.609 -0.2398 -0.0264 -0.3610
  873MOL0     C15125  -0.283  11.883   6.564  0.3466  0.3219 -0.0972
  873MOL0     C15126  -0.309  11.819   6.435 -0.2215  0.1146 -0.2575
  873MOL0     C15127  -0.454  11.778   6.413 -0.3453  0.1538  0.0176
  873MOL0     O15128  -0.525  11.895   6.368  0.1200 -0.2700  0.1348
  873MOL0     C15129  -0.664  11.881   6.360  0.2171  0.1972  0.3325
  873MOL0     C15130  -0.746  11.787   6.426 -0.2701  0.5342 -0.7467
  873MOL0     C15131  -0.881  11.797   6.409  0.5562 -0.0753 -0.0311
  873MOL0     C15132  -0.944  11.870   6.307  0.6772  0.1136 -0.4418
  873MOL0     C15133  -1.092  11.879   6.280 -0.5030  0.0068  0.3128
  873MOL0     O15134  -1.168  11.806   6.365  0.0286  0.2526 -0.3366
  873MOL0     C15135  -1.300  11.792   6.345  0.2433 -0.1050 -0.0225
  873MOL0     C15136  -1.377  11.864   6.430 -0.7894  0.3929  0.4155
  873MOL0     C15137  -1.517  11.863   6.423  0.0883  1.0093  0.3459
  873MOL0     C15138  -1.580  11.787   6.333 -0.0894 -0.7402 -0.4329
  873MOL0     O15139  -1.717  11.787   6.347  0.3032 -0.8141 -0.0794
  873MOL0     C15140  -1.802  11.685   6.309 -0.4664  1.0545  0.0039
  873MOL0     C15141  -1.940  11.701   6.381  0.3667  0.1279  0.3823
  873MOL0     C15142  -2.040  11.607   6.296  0.2898  0.1448 -0.6794
  873MOL0     C15143  -2.179  11.618   6.357 -0.0199  0.2853 -1.1320
  873MOL0     C15144  -2.261  11.491   6.326  0.6632  0.7112  1.1759
  873MOL0     C15145  -2.352  11.445   6.447  0.0677  0.3006 -0.0112
  873MOL0     C15146  -2.447  11.557   6.475  0.1927 -0.3971 -0.1359
  873MOL0     C15147  -2.547  11.579   6.370  1.1553  0.3106 -0.3515
  873MOL0    Cl15148  -2.676  11.688   6.429  0.2268 -0.6398  0.0595
  873MOL0     C15149  -1.501  11.710   6.243 -0.2920 -0.7079  0.4041
  873MOL0     C15150  -1.363  11.716   6.242  0.3265 -0.7547  0.0455
  873MOL0     O15151  -1.127  11.943   6.182 -0.4103 -0.0808 -0.1026
  873MOL0     C15152  -0.865  11.966   6.237 -0.6250 -0.4184  0.4043
  873MOL0     C15153  -0.728  11.967   6.266 -0.1087  0.3184 -0.4778
  873MOL0     N15154  -0.188  11.677   6.745  1.0773 -0.5034  0.5174
  873MOL0     N15155  -0.126  11.581   6.797 -0.4392 -0.4911 -0.2045
  873MOL0     C15156   1.035  11.030   7.291 -0.2419  0.0834  0.3311
  873MOL0     C15157   1.145  11.026   7.374  0.7806 -0.3277  0.2361
  873MOL0     C15158   1.522  11.212   7.561  0.3253 -0.0296 -0.5867
  873MOL0     C15159   1.507  11.221   7.704  0.3375  0.3890 -0.1434
  873MOL0     C15160   1.621  11.249   7.776 -0.7429  1.3614  0.2177
  873MOL0     C15161   1.746  11.253   7.720  0.6618 -0.6255  1.0279
  873MOL0     O15162   1.850  11.285   7.801 -0.8458 -0.5173  0.3268
  873MOL0     C15163   1.956  11.360   7.743 -0.2236 -0.2227  0.4308
  873MOL0     C15164   2.047  11.389   7.858  0.1605  0.4593 -0.3229
  873MOL0     C15165   2.140  11.499   7.807 -0.3629  0.4014  0.3703
  873MOL0     C15166   2.230  11.554   7.916 -0.0905 -0.2219  0.5635
  873MOL0     C15167   2.316  11.454   7.976 -0.3019 -0.7143  0.6082
  873MOL0     C15168   2.386  11.368   8.028  0.0018  0.1670  0.3683
  873MOL0     C15169   1.762  11.219   7.587  0.8423 -0.7320 -0.8123
  873MOL0     C15170   1.649  11.202   7.504 -0.9195 -0.1115 -0.5689
  873MOL0     H15171   1.163  11.356   7.450 -0.4954  0.1517  0.6751
  873MOL0     H15172   0.959  11.367   7.318 -0.2153 -0.0125  0.3140
  873MOL0     H15173   0.755  11.316   7.223 -1.3075 -0.5527 -0.8847
  873MOL0     H15174   0.685  11.177   7.302  2.0201  0.1503  1.9390
  873MOL0     H15175   0.581  11.092   7.108 -0.8732  0.8894  2.8118
  873MOL0     H15176   0.709  11.164   7.008  0.4306 -1.3111  0.6017
  873MOL0     H15177   0.618  11.395   7.032  3.2153 -0.7319  1.6119
  873MOL0     H15178   0.480  11.344   7.119  0.0221  3.3388 -2.0063
  873MOL0     H15179   0.546  11.260   6.843 -1.1544  1.6701 -1.2035
  873MOL0     H15180   0.403  11.189   6.941 -2.9938  2.4339 -1.6201
  873MOL0     H15181   0.447  11.490   6.867 -0.5702  0.4388  1.5110
  873MOL0     H15182   0.310  11.416   6.940 -0.8408 -2.6598 -1.2205
  873MOL0     H15183   0.282  11.275   6.727  3.8555 -2.0172 -1.9279
  873MOL0     H15184   0.418  11.368   6.667  0.3019 -0.4684  1.7786
  873MOL0     H15185   0.277  11.574   6.700  1.0183  0.1144 -0.0177
  873MOL0     H15186   0.187  11.445   6.607 -0.4637 -1.8922  0.6850
  873MOL0     H15187   0.131  11.491   6.900  0.1419 -2.9660  0.1007
  873MOL0     H15188   0.060  11.383   6.784 -2.9141  0.8683 -1.0127
  873MOL0     H15189   0.127  11.738   6.660  0.5873  1.5688 -0.7533
  873MOL0     H15190  -0.051  11.914   6.537  2.7734 -0.1390  2.5928
  873MOL0     H15191  -0.133  11.972   6.682 -3.2909 -0.4159  0.0219
  873MOL0     H15192  -0.324  11.984   6.557  0.9023  0.8701  3.0806
  873MOL0     H15193  -0.336  11.842   6.651 -1.7247  2.4143 -0.2741
  873MOL0     H15194  -0.273  11.892   6.361  2.5118  0.2782  1.1166
  873MOL0     H15195  -0.251  11.728   6.420 -2.2367 -1.2656 -0.0301
  873MOL0     H15196  -0.483  11.729   6.507 -0.4769 -0.2042 -0.2036
  873MOL0     H15197  -0.457  11.706   6.331 -0.9157 -0.8913  0.9179
  873MOL0     H15198  -0.706  11.713   6.494 -3.0222  2.4821  3.4118
  873MOL0     H15199  -0.924  11.727   6.480 -0.6898  0.7308  0.0265
  873MOL0     H15200  -1.337  11.938   6.498 -1.2717  1.5793 -0.5483
  873MOL0     H15201  -1.569  11.937   6.482  0.1236  3.8423 -2.8789
  873MOL0     H15202  -1.753  11.589   6.328  0.1168  1.1984 -0.7271
  873MOL0     H15203  -1.814  11.679   6.200  2.4505 -0.1391 -0.3369
  873MOL0     H15204  -1.993  11.795   6.361 -1.4695 -1.3910 -2.5004
  873MOL0     H15205  -1.937  11.693   6.490 -1.4065 -0.2108  0.4395
  873MOL0     H15206  -1.997  11.508   6.315 -0.0764 -0.2354 -1.7432
  873MOL0     H15207  -2.033  11.627   6.188 -0.9989  0.2310 -0.7514
  873MOL0     H15208  -2.149  11.622   6.462  0.7782 -0.5547 -1.3215
  873MOL0     H15209  -2.229  11.713   6.334 -0.2936  0.2443 -0.7197
  873MOL0     H15210  -2.198  11.404   6.304 -3.1819 -2.0396 -0.0484
  873MOL0     H15211  -2.319  11.503   6.234  2.5892 -0.5698 -0.2766
  873MOL0     H15212  -2.284  11.427   6.530 -1.1463 -2.3541  0.5215
  873MOL0     H15213  -2.404  11.353   6.418  1.0338  0.6057 -3.0481
  873MOL0     H15214  -2.498  11.552   6.571 -1.2944  3.9662 -0.4788
  873MOL0     H15215  -2.392  11.652   6.474  3.2868 -2.0549 -0.9678
  873MOL0     H15216  -2.586  11.486   6.326  0.8150 -1.0128  2.5590
  873MOL0     H15217  -2.502  11.631   6.285  1.7580 -0.0453 -0.2492
  873MOL0     H15218  -1.541  11.645   6.165  2.0046 -1.1907 -0.4514
  873MOL0     H15219  -1.299  11.659   6.175 -2.0058 -0.4266 -2.6602
  873MOL0     H15220  -0.901  12.034   6.160  2.3933 -1.2698 -1.9397
  873MOL0     H15221  -0.664  12.040   6.217  0.7421 -0.0063  0.1325
  873MOL0     H15222   0.983  10.946   7.247  0.2068  0.0542 -0.1436
  873MOL0     H15223   1.205  10.937   7.384  0.6561 -0.2170  2.3238
  873MOL0     H15224   1.410  11.222   7.751 -0.5272 -2.0219 -1.6882
  873MOL0     H15225   1.609  11.255   7.884 -0.2229 -1.4657  0.4933
  873MOL0     H15226   1.924  11.455   7.700 -2.1981 -0.3301  1.5767
  873MOL0     H15227   2.014  11.299   7.673  2.0024  2.9844 -0.7332
  873MOL0     H15228   1.992  11.435   7.940  1.2517 -1.5468  1.6365
  873MOL0     H15229   2.083  11.303   7.914  0.1080  0.8894  0.3882
  873MOL0     H15230   2.084  11.582   7.764 -0.1202 -0.1277 -1.0309
  873MOL0     H15231   2.205  11.446   7.736 -0.7187  0.4593 -0.0025
  873MOL0     H15232   2.293  11.636   7.881  0.3533 -0.8656 -0.1701
  873MOL0     H15233   2.172  11.579   8.005  1.5761 -2.1174  2.2657
  873MOL0     H15234   2.450  11.287   8.054  0.7563 -0.1649 -2.2100
  873MOL0     H15235   1.864  11.215   7.548  0.8124 -0.7574 -0.8892
  873MOL0     H15236   1.676  11.175   7.402  1.8679  0.2675 -0.0162
  874MOL0     O15237   4.508   0.815   1.661 -0.4978  0.1724 -0.0513
  874MOL0     C15238   4.524   0.878   1.555  0.0004  0.9210  0.1421
  874MOL0     O15239   4.434   0.963   1.492 -0.2953 -0.6949 -0.1365
  874MOL0     C15240   4.316   0.963   1.553 -0.0582 -0.3692  0.6055
  874MOL0     C15241   4.205   0.887   1.501  0.0794  0.3349  0.3802
  874MOL0     C15242   4.079   0.905   1.551 -0.8751 -0.7847  0.4508
  874MOL0     C15243   4.058   0.990   1.658 -0.1129 -0.1129 -0.5900
  874MOL0     O15244   3.931   1.002   1.708  1.4002  0.5192 -0.0468
  874MOL0     C15245   3.916   1.094   1.817  0.5140 -0.2689 -0.1626
  874MOL0     C15246   3.768   1.126   1.822  1.2319 -0.1741  0.0452
  874MOL0     C15247   3.718   1.209   1.700 -0.1672 -0.3682 -0.4029
  874MOL0     C15248   3.568   1.245   1.694 -0.6022 -0.0394 -0.4441
  874MOL0     C15249   3.541   1.359   1.784  0.9357  0.7481 -0.0723
  874MOL0     C15250   3.407   1.426   1.741  0.9122 -0.5638 -0.3511
  874MOL0     C15251   3.416   1.513   1.618 -0.9166  0.5298 -0.5816
  874MOL0     C15252   3.539   1.592   1.592 -0.3748 -0.5000 -0.0193
  874MOL0     N15253   3.563   1.700   1.686 -0.4887 -0.5247  0.7642
  874MOL0     C15254   3.683   1.746   1.731  0.2579  0.6194 -0.4781
  874MOL0     C15255   3.657   1.855   1.809 -0.2382  0.2218  1.0639
  874MOL0     C15256   3.762   1.922   1.891  0.4040  0.4017  0.6925
  874MOL0     C15257   3.853   2.024   1.811 -0.0950  0.5085 -0.7491
  874MOL0     C15258   3.790   2.160   1.773  0.2257  0.5725 -0.4646
  874MOL0     C15259   3.771   2.248   1.888 -0.0495 -0.3694 -0.1826
  874MOL0     O15260   3.699   2.368   1.869  0.2174 -0.5377  0.4655
  874MOL0     C15261   3.569   2.367   1.832 -0.3854  0.6256 -0.3262
  874MOL0     C15262   3.483   2.252   1.853 -0.2996 -0.5643 -0.0062
  874MOL0     C15263   3.345   2.263   1.837  0.0206  0.0908  0.3054
  874MOL0     C15264   3.299   2.377   1.770  0.0461 -0.0658  0.3696
  874MOL0     C15265   3.162   2.372   1.718  0.0796  0.1106  0.1355
  874MOL0     O15266   3.108   2.245   1.699 -1.0631 -0.0210  0.7449
  874MOL0     C15267   2.998   2.232   1.626 -0.5265 -0.0793 -0.4882
  874MOL0     C15268   2.874   2.272   1.661  0.3492  0.3162 -0.8415
  874MOL0     C15269   2.753   2.235   1.600 -0.3591  1.0590 -0.0161
  874MOL0     C15270   2.755   2.159   1.475  0.3943  0.1141 -1.1505
  874MOL0     O15271   2.638   2.147   1.408  0.5014  0.0092  0.3096
  874MOL0     C15272   2.646   2.156   1.265  0.2055 -0.3858 -0.0762
  874MOL0     C15273   2.508   2.155   1.209 -0.1793  0.1396  0.4148
  874MOL0     C15274   2.462   2.008   1.196  0.8250  0.1971 -0.1810
  874MOL0     C15275   2.311   1.998   1.218  0.9266 -0.5835 -0.0631
  874MOL0     C15276   2.245   1.867   1.182  0.0610  0.6640  0.1407
  874MOL0     C15277   2.091   1.869   1.192  0.7715  0.4721  0.0639
  874MOL0     C15278   2.034   1.734   1.134  0.1563  0.1507 -0.1026
  874MOL0     C15279   1.878   1.740   1.118 -0.6442  0.2748 -0.2988
  874MOL0    Cl15280   1.837   1.840   0.984  0.1848  0.0888 -0.0917
  874MOL0     C15281   2.881   2.111   1.436  0.6092 -0.8951  0.4793
  874MOL0     C15282   2.998   2.147   1.509  0.3967  0.6151  0.8389
  874MOL0     O15283   3.109   2.474   1.670  0.0510  0.1784  0.2548
  874MOL0     C15284   3.379   2.485   1.738  0.0885 -0.2620 -1.2424
  874MOL0     C15285   3.512   2.481   1.776  0.3138 -0.5887 -0.1553
  874MOL0     N15286   3.531   1.883   1.792  0.6127  0.6404 -0.2215
  874MOL0     N15287   3.477   1.788   1.726  1.0019 -1.0920  0.4666
  874MOL0     C15288   4.168   1.061   1.710  1.4428 -0.6118  1.0625
  874MOL0     C15289   4.304   1.054   1.660  0.5414  1.2624  0.0646
  874MOL0     C15290   4.644   0.853   1.473 -0.1269  0.5216 -0.5342
  874MOL0     C15291   4.735   0.767   1.519 -0.6823  1.5336  0.2890
  874MOL0     C15292   4.842   0.725   1.446 -0.0432  0.1737  0.3498
  874MOL0     C15293   4.857   0.774   1.313  0.5402 -0.6867  0.5350
  874MOL0     O15294   4.963   0.753   1.226  0.2710  0.6713  0.1919
  874MOL0     C15295   5.067   0.684   1.289 -0.6451 -0.3173  0.8027
  874MOL0     C15296   5.180   0.668   1.191 -0.6654 -0.2178  1.3195
  874MOL0     C15297   5.269   0.804   1.189 -0.1252  0.7063  0.0748
  874MOL0     C15298   5.336   0.833   1.059  0.7768 -0.9497  0.4285
  874MOL0     C15299   5.412   0.952   1.062 -0.0643 -0.4715 -0.3514
  874MOL0     C15300   5.471   1.051   1.048  0.5245 -0.1837 -0.1665
  874MOL0     C15301   4.761   0.864   1.267 -0.2403 -0.8859 -0.5604
  874MOL0     C15302   4.650   0.894   1.333  0.7943  0.1384 -0.6571
  874MOL0     H15303   4.205   0.840   1.403 -2.1768 -0.0079  0.4959
  874MOL0     H15304   4.001   0.848   1.502 -0.9629 -1.0748  0.9304
  874MOL0     H15305   3.959   1.192   1.795  1.3820 -0.7937 -0.8547
  874MOL0     H15306   3.952   1.066   1.916 -0.1631  0.0351  0.1753
  874MOL0     H15307   3.735   1.193   1.902 -0.8373  0.5147 -1.2909
  874MOL0     H15308   3.710   1.033   1.828  0.4247  0.0849 -2.6045
  874MOL0     H15309   3.741   1.157   1.607  3.2692  3.5795 -2.0626
  874MOL0     H15310   3.770   1.305   1.704 -2.5130  0.9485 -0.2079
  874MOL0     H15311   3.533   1.259   1.592 -0.9521 -1.2317 -0.4987
  874MOL0     H15312   3.512   1.164   1.740  0.2959  1.2197  3.2989
  874MOL0     H15313   3.626   1.428   1.793  1.0814  0.9216 -2.3336
  874MOL0     H15314   3.520   1.319   1.883 -2.7648  1.7110 -0.3123
  874MOL0     H15315   3.373   1.494   1.820 -0.1786 -0.3737 -0.9721
  874MOL0     H15316   3.326   1.353   1.728 -0.1218  0.5493 -0.3181
  874MOL0     H15317   3.415   1.442   1.535  5.4637 -1.8202  0.7812
  874MOL0     H15318   3.327   1.575   1.630 -1.6542 -0.4230 -0.9946
  874MOL0     H15319   3.536   1.631   1.489  1.8006 -2.4877 -0.9424
  874MOL0     H15320   3.625   1.525   1.601  0.3555  0.5968  1.7163
  874MOL0     H15321   3.778   1.696   1.714  0.7891  2.0732 -1.9834
  874MOL0     H15322   3.825   1.839   1.924  0.5584 -0.7063 -2.0855
  874MOL0     H15323   3.714   1.977   1.973  1.2177  3.5397 -0.7809
  874MOL0     H15324   3.899   1.973   1.726 -1.7241  0.1984 -1.4736
  874MOL0     H15325   3.932   2.050   1.882 -2.8447 -0.4391  2.9578
  874MOL0     H15326   3.846   2.217   1.699 -2.3766  0.9865 -2.2443
  874MOL0     H15327   3.692   2.134   1.731  0.2482 -1.9458  0.8348
  874MOL0     H15328   3.869   2.281   1.922 -1.6139 -0.2234  4.9991
  874MOL0     H15329   3.747   2.211   1.988  2.8211  1.2511  1.2234
  874MOL0     H15330   3.528   2.156   1.876  1.7655 -0.6773 -3.6149
  874MOL0     H15331   3.282   2.176   1.850  0.6978 -0.3107  1.0152
  874MOL0     H15332   2.861   2.326   1.754 -0.5876 -0.0553 -0.7471
  874MOL0     H15333   2.657   2.259   1.644  0.2443  1.9570  0.8468
  874MOL0     H15334   2.698   2.065   1.234 -0.7771 -1.9272  2.4731
  874MOL0     H15335   2.700   2.248   1.239 -1.8207  0.9328  0.1030
  874MOL0     H15336   2.504   2.212   1.115 -1.6036  0.3217  0.5482
  874MOL0     H15337   2.457   2.227   1.274  4.1786  1.9754  2.2093
  874MOL0     H15338   2.504   1.941   1.273 -1.1329  0.8777  1.5972
  874MOL0     H15339   2.493   1.972   1.098 -0.0028 -0.8165 -0.1027
  874MOL0     H15340   2.287   2.026   1.321 -0.4612  1.4172 -0.8800
  874MOL0     H15341   2.266   2.079   1.160 -1.6296 -0.5011  1.8441
  874MOL0     H15342   2.286   1.780   1.235  1.3621 -0.2275 -2.1449
  874MOL0     H15343   2.262   1.844   1.076 -3.0607  1.1069 -0.5497
  874MOL0     H15344   2.055   1.957   1.139  0.1243 -0.4088 -1.0094
  874MOL0     H15345   2.063   1.878   1.298 -1.2073 -2.8159  0.0024
  874MOL0     H15346   2.074   1.709   1.035  0.5695 -1.2782  0.4024
  874MOL0     H15347   2.070   1.651   1.195  3.7853  0.4598 -1.5558
  874MOL0     H15348   1.822   1.770   1.207 -0.8981  0.5166 -0.5354
  874MOL0     H15349   1.839   1.641   1.093 -1.2758  0.4691 -0.0925
  874MOL0     H15350   2.889   2.039   1.355 -1.7641 -0.8301  0.1198
  874MOL0     H15351   3.087   2.100   1.468  0.6592  2.1327 -0.4167
  874MOL0     H15352   3.337   2.565   1.678 -2.2136 -0.5666 -0.1302
  874MOL0     H15353   3.564   2.574   1.758 -1.5203  0.2695 -1.2608
  874MOL0     H15354   4.152   1.126   1.795  1.4466  0.7638  0.0539
  874MOL0     H15355   4.396   1.103   1.689  0.9101  0.0427  1.0604
  874MOL0     H15356   4.709   0.711   1.608 -1.3748  0.1442 -0.7437
  874MOL0     H15357   4.902   0.648   1.494 -0.3978  0.1988  0.8477
  874MOL0     H15358   5.034   0.582   1.311 -0.8064 -0.1335  1.4524
  874MOL0     H15359   5.106   0.731   1.380  3.9798  2.7905 -2.3576
  874MOL0     H15360   5.247   0.585   1.213  0.1881 -1.3373 -4.2229
  874MOL0     H15361   5.136   0.657   1.092  0.5441  0.9488  0.6216
  874MOL0     H15362   5.350   0.795   1.263 -0.0678  4.9484  0.8005
  874MOL0     H15363   5.205   0.888   1.219 -1.1461 -0.2390  0.6164
  874MOL0     H15364   5.404   0.751   1.030  0.2836 -1.1507 -0.1943
  874MOL0     H15365   5.265   0.858   0.979  2.5672  3.0612 -0.1429
  874MOL0     H15366   5.509   1.151   1.043  1.7022 -0.4120  2.3293
  874MOL0     H15367   4.772   0.911   1.169 -0.2367  1.7371  0.5969
  874MOL0     H15368   4.569   0.956   1.296 -1.0477 -1.3404  0.6671
  875MOL0     O15369   7.134   1.797   2.854  0.3583  0.2497 -0.5852
  875MOL0     C15370   7.089   1.881   2.930 -0.1156 -0.1338 -0.6103
  875MOL0     O15371   6.960   1.917   2.951  0.1381  0.0701  0.0556
  875MOL0     C15372   6.876   1.842   2.876  0.4113 -0.3468 -0.1014
  875MOL0     C15373   6.822   1.877   2.754 -0.7635  0.6950 -0.8355
  875MOL0     C15374   6.737   1.794   2.677 -0.2572 -0.1785 -0.4762
  875MOL0     C15375   6.698   1.674   2.742 -0.2821  0.7778 -0.3297
  875MOL0     O15376   6.617   1.581   2.669  0.2633 -0.0525 -0.3204
  875MOL0     C15377   6.630   1.439   2.680  0.7005  1.0250  0.0238
  875MOL0     C15378   6.540   1.370   2.571 -0.1888  0.4876 -0.2492
  875MOL0     C15379   6.391   1.408   2.579  0.4464  0.5065  0.0102
  875MOL0     C15380   6.303   1.328   2.476 -0.3087  0.2910 -0.4346
  875MOL0     C15381   6.155   1.365   2.491  0.2032 -0.3536 -0.8577
  875MOL0     C15382   6.069   1.267   2.411  0.2253  0.2769  0.0488
  875MOL0     C15383   5.940   1.330   2.372  0.4479 -0.3333 -0.2236
  875MOL0     C15384   5.839   1.340   2.497 -0.2981  0.5089 -0.0850
  875MOL0     N15385   5.718   1.260   2.468 -0.6139 -0.0008  0.2607
  875MOL0     C15386   5.619   1.268   2.379  0.0557  0.4546  0.6029
  875MOL0     C15387   5.508   1.194   2.419 -0.8558  0.0461 -0.0878
  875MOL0     C15388   5.373   1.201   2.348  0.4021  0.8032  0.6206
  875MOL0     C15389   5.270   1.109   2.412 -1.0096  0.0556 -0.5161
  875MOL0     C15390   5.130   1.084   2.345  0.6021  0.6446 -0.8226
  875MOL0     C15391   5.047   1.213   2.377 -0.7321  0.3089 -0.2570
  875MOL0     O15392   4.918   1.199   2.317 -0.0545  0.0142 -0.5374
  875MOL0     C15393   4.834   1.307   2.307  0.4258  0.3499  0.3368
  875MOL0     C15394   4.695   1.275   2.303 -0.0709 -0.4390  0.0908
  875MOL0     C15395   4.601   1.380   2.291 -0.3055 -0.5236 -0.3923
  875MOL0     C15396   4.640   1.517   2.263  0.5147  0.5379  0.2550
  875MOL0     C15397   4.543   1.624   2.231 -0.8718  0.5395  0.2687
  875MOL0     O15398   4.411   1.602   2.254 -0.9539 -0.0089 -0.4574
  875MOL0     C15399   4.312   1.697   2.239 -0.0254 -0.2256 -0.0777
  875MOL0     C15400   4.190   1.647   2.286  0.1608 -0.0217 -0.5004
  875MOL0     C15401   4.070   1.724   2.273  0.0519 -0.2743  0.3183
  875MOL0     C15402   4.070   1.830   2.190 -0.0902  0.6460 -0.2341
  875MOL0     O15403   3.942   1.883   2.178 -0.3297 -0.4561 -0.2535
  875MOL0     C15404   3.925   2.024   2.209 -0.6972  0.1540  0.0735
  875MOL0     C15405   3.859   2.057   2.351  0.1653  0.4439  0.0652
  875MOL0     C15406   3.716   2.000   2.361 -0.3400  0.4716  0.0996
  875MOL0     C15407   3.649   2.020   2.490 -0.1934 -0.5044 -0.0805
  875MOL0     C15408   3.497   1.992   2.485 -0.5640 -0.6177  0.3279
  875MOL0     C15409   3.444   1.960   2.621 -0.1763  0.5477 -0.1269
  875MOL0     C15410   3.291   1.939   2.624  0.4254  0.3279  0.0697
  875MOL0     C15411   3.224   1.876   2.754 -0.2136 -0.1466  0.3259
  875MOL0    Cl15412   3.045   1.912   2.735  0.0846 -0.3576  0.8113
  875MOL0     C15413   4.183   1.868   2.128  0.2473 -0.9268  0.4664
  875MOL0     C15414   4.306   1.809   2.148  0.8150 -0.5280 -0.4873
  875MOL0     O15415   4.586   1.724   2.168 -0.8476  0.8975  0.3018
  875MOL0     C15416   4.776   1.542   2.260 -0.1187 -0.5366  0.9585
  875MOL0     C15417   4.868   1.442   2.285 -0.2574 -0.6643  0.0876
  875MOL0     N15418   5.543   1.141   2.540  0.1215  0.6425  0.1090
  875MOL0     N15419   5.664   1.178   2.561  0.8747 -0.1501 -0.0623
  875MOL0     C15420   6.748   1.634   2.874  0.0438 -0.3504  0.3163
  875MOL0     C15421   6.825   1.729   2.944  0.1270  0.0550 -0.5064
  875MOL0     C15422   7.197   1.951   3.007  0.2983 -0.3411  0.3578
  875MOL0     C15423   7.330   1.946   2.951  0.9349 -0.0782  0.2545
  875MOL0     C15424   7.424   2.018   3.016 -0.3308 -0.1746  0.1355
  875MOL0     C15425   7.396   2.077   3.146 -0.8941  0.6625  0.5412
  875MOL0     O15426   7.493   2.141   3.215  0.3337  0.8333  0.6983
  875MOL0     C15427   7.633   2.126   3.192  0.0494  0.1418  0.1483
  875MOL0     C15428   7.672   1.999   3.265 -0.1720  0.0334 -0.6694
  875MOL0     C15429   7.827   2.011   3.284  0.2000 -0.8821 -0.1556
  875MOL0     C15430   7.886   1.895   3.364 -0.2048 -0.6799  0.8701
  875MOL0     C15431   8.027   1.926   3.383  0.1215 -0.0112 -0.3012
  875MOL0     C15432   8.144   1.950   3.399  0.5199 -0.1725 -0.0211
  875MOL0     C15433   7.270   2.066   3.205  0.5947  0.0117 -0.5749
  875MOL0     C15434   7.170   1.992   3.138 -0.1999 -0.3347  0.0144
  875MOL0     H15435   6.864   1.969   2.714  0.1873  0.4360 -0.4729
  875MOL0     H15436   6.692   1.819   2.581 -1.9983 -3.1359 -0.5865
  875MOL0     H15437   6.597   1.398   2.776  1.8135  0.8669  0.3502
  875MOL0     H15438   6.733   1.409   2.661  0.7532  1.8676 -1.0979
  875MOL0     H15439   6.554   1.262   2.582 -0.7518  0.3953 -0.3761
  875MOL0     H15440   6.582   1.400   2.475  0.0932 -0.0249 -0.2847
  875MOL0     H15441   6.378   1.513   2.554 -1.3758  0.4323  0.5304
  875MOL0     H15442   6.357   1.390   2.682  0.0869  2.6908  0.3077
  875MOL0     H15443   6.334   1.343   2.372 -1.2576 -0.6146 -0.8636
  875MOL0     H15444   6.321   1.221   2.492  1.6821  0.8451  1.4382
  875MOL0     H15445   6.147   1.468   2.456 -1.2762 -0.3158 -0.4571
  875MOL0     H15446   6.113   1.357   2.592 -0.9529 -2.5960 -1.4611
  875MOL0     H15447   6.042   1.177   2.466  2.5565  0.3348  1.4008
  875MOL0     H15448   6.127   1.241   2.321  1.1633  0.9364  0.4518
  875MOL0     H15449   5.958   1.425   2.320 -1.4319  0.2717  0.1506
  875MOL0     H15450   5.892   1.273   2.293 -1.0589  0.1420  0.3173
  875MOL0     H15451   5.805   1.441   2.523 -0.9150  0.1484  0.5243
  875MOL0     H15452   5.882   1.297   2.588 -5.9470  0.3444  2.9009
  875MOL0     H15453   5.621   1.331   2.290 -2.2036  0.5920  0.5811
  875MOL0     H15454   5.372   1.160   2.246 -2.4119 -0.7051  1.1409
  875MOL0     H15455   5.329   1.301   2.354 -1.2615  0.1983 -0.5670
  875MOL0     H15456   5.259   1.138   2.516 -0.9232  0.1830 -0.5426
  875MOL0     H15457   5.318   1.012   2.430 -1.3270  0.2520  1.6480
  875MOL0     H15458   5.137   1.080   2.235  1.7521  0.5275 -0.7500
  875MOL0     H15459   5.078   0.995   2.381  0.9521  0.0990 -1.6345
  875MOL0     H15460   5.083   1.306   2.333 -0.3358  0.7687  1.0173
  875MOL0     H15461   5.036   1.234   2.483 -0.2589  2.4421 -0.5991
  875MOL0     H15462   4.654   1.175   2.313 -0.2828 -0.3153  0.4583
  875MOL0     H15463   4.496   1.352   2.290 -0.1873 -1.0482  0.7951
  875MOL0     H15464   4.197   1.565   2.357  1.5653  0.4852 -0.0310
  875MOL0     H15465   3.977   1.708   2.328 -0.5373 -0.6764 -0.7700
  875MOL0     H15466   3.853   2.059   2.135  0.4600 -3.5989 -3.1791
  875MOL0     H15467   4.021   2.076   2.196 -0.1222 -1.2968 -1.9108
  875MOL0     H15468   3.858   2.166   2.346  1.4523  0.4446 -0.4610
  875MOL0     H15469   3.916   2.019   2.437 -1.8604 -1.0748  0.8259
  875MOL0     H15470   3.721   1.896   2.330  0.3526  0.7476 -0.7616
  875MOL0     H15471   3.658   2.052   2.284  0.8695  0.6938 -0.6772
  875MOL0     H15472   3.700   1.954   2.561 -3.0966 -2.7848  0.0922
  875MOL0     H15473   3.652   2.122   2.530 -0.2594 -0.9168  1.0203
  875MOL0     H15474   3.481   1.911   2.413 -0.6055 -1.4561  1.2628
  875MOL0     H15475   3.448   2.080   2.444 -1.1231 -0.3622  1.5202
  875MOL0     H15476   3.460   2.043   2.690  0.1933 -1.5509  2.4853
  875MOL0     H15477   3.493   1.868   2.656  2.9256  1.7461 -1.0480
  875MOL0     H15478   3.250   2.037   2.599 -0.8133  0.2464  1.6510
  875MOL0     H15479   3.261   1.869   2.546  0.2530 -0.0930  0.5110
  875MOL0     H15480   3.263   1.931   2.840  0.6253  2.6096 -1.6814
  875MOL0     H15481   3.248   1.770   2.764  0.0271  0.0740  2.7649
  875MOL0     H15482   4.175   1.953   2.061 -1.6879 -2.2739 -1.1268
  875MOL0     H15483   4.393   1.851   2.099 -0.0364  2.7766  0.5395
  875MOL0     H15484   4.816   1.640   2.238  0.8219 -1.1279 -0.0373
  875MOL0     H15485   4.972   1.468   2.267 -0.1624  3.1634  4.3036
  875MOL0     H15486   6.708   1.546   2.925  0.2114 -0.7058 -0.1583
  875MOL0     H15487   6.844   1.712   3.050  1.6088  0.6979 -0.6477
  875MOL0     H15488   7.353   1.885   2.864  0.7871 -0.4902  0.4990
  875MOL0     H15489   7.524   2.014   2.972 -0.6211 -0.5511 -0.5077
  875MOL0     H15490   7.687   2.217   3.220 -2.3050  0.7722  3.2059
  875MOL0     H15491   7.652   2.122   3.085 -0.4669  1.4477  0.0001
  875MOL0     H15492   7.619   1.995   3.361  0.0306 -1.3547 -0.5969
  875MOL0     H15493   7.652   1.909   3.206 -4.1673  0.5193 -0.3239
  875MOL0     H15494   7.841   2.105   3.338 -1.4263 -0.9911  0.5212
  875MOL0     H15495   7.859   2.026   3.181 -1.2995  1.9770 -0.3124
  875MOL0     H15496   7.844   1.885   3.465 -0.7458  0.0907  0.7290
  875MOL0     H15497   7.870   1.799   3.313  2.8980 -0.0585 -1.6035
  875MOL0     H15498   8.248   1.959   3.424  1.6226  1.4310 -4.2999
  875MOL0     H15499   7.262   2.109   3.304 -0.6596  0.2941 -0.7782
  875MOL0     H15500   7.078   1.973   3.191 -0.6580 -0.7051 -0.8941
  876MOL0     O15501   4.105   9.880   0.521 -0.1520  0.1802  0.3416
  876MOL0     C15502   4.146   9.942   0.621  0.0055  1.1975 -0.5994
  876MOL0     O15503   4.270   9.916   0.677 -0.3283  0.1990  0.6049
  876MOL0     C15504   4.363   9.835   0.616  0.1536 -0.3497 -0.3249
  876MOL0     C15505   4.354   9.736   0.515 -0.2003 -0.3895 -0.7478
  876MOL0     C15506   4.465   9.673   0.468  0.1974 -0.1838 -1.0572
  876MOL0     C15507   4.603   9.698   0.502 -0.7613  0.0119 -0.3676
  876MOL0     O15508   4.721   9.647   0.447  0.9987  0.3731  0.1789
  876MOL0     C15509   4.725   9.636   0.304  0.5181 -0.5974 -0.2318
  876MOL0     C15510   4.865   9.653   0.261 -0.5794  0.1935 -0.0130
  876MOL0     C15511   4.898   9.613   0.122  1.0052 -0.2210  1.0570
  876MOL0     C15512   5.049   9.585   0.091  0.0941 -0.3404  0.1245
  876MOL0     C15513   5.080   9.592  -0.063  0.8341  0.4367  0.6727
  876MOL0     C15514   5.054   9.458  -0.136  0.4426 -0.0247  0.0503
  876MOL0     C15515   4.925   9.391  -0.120  0.4099 -0.1922  1.8860
  876MOL0     C15516   4.805   9.476  -0.171  0.4813  0.8307  0.6824
  876MOL0     N15517   4.679   9.432  -0.111 -0.5482  0.2600  0.2378
  876MOL0     C15518   4.556   9.464  -0.156 -0.0549 -0.1461  0.2058
  876MOL0     C15519   4.470   9.390  -0.085 -0.6580  0.1611 -0.0291
  876MOL0     C15520   4.320   9.380  -0.089 -0.1610 -0.0684  0.9730
  876MOL0     C15521   4.262   9.352   0.054 -0.3255  0.5889  0.0030
  876MOL0     C15522   4.114   9.364   0.037  0.3728  0.4129  0.4960
  876MOL0     C15523   4.050   9.353   0.173  0.9111 -0.1621  0.9370
  876MOL0     O15524   4.068   9.468   0.246 -0.4933 -0.2912 -0.3455
  876MOL0     C15525   3.971   9.507   0.332 -0.0589 -0.6665 -1.2205
  876MOL0     C15526   3.976   9.644   0.369  0.8752 -0.4749  0.9815
  876MOL0     C15527   3.873   9.694   0.444  0.2925  0.4375 -0.6361
  876MOL0     C15528   3.789   9.608   0.513  0.0873 -0.8118 -0.4508
  876MOL0     C15529   3.687   9.657   0.613  0.2575  0.3875 -0.8350
  876MOL0     O15530   3.578   9.574   0.645 -0.2337 -0.6375  0.1679
  876MOL0     C15531   3.498   9.601   0.755 -0.0378  0.1532  0.7156
  876MOL0     C15532   3.379   9.533   0.747 -0.6550  0.2872 -0.4170
  876MOL0     C15533   3.280   9.546   0.851 -0.2664  0.2756 -0.4558
  876MOL0     C15534   3.300   9.630   0.960  0.4609 -0.0714  0.5177
  876MOL0     O15535   3.211   9.632   1.060  0.3435 -0.1673  0.3110
  876MOL0     C15536   3.070   9.657   1.016 -0.4658  0.4455  0.5718
  876MOL0     C15537   2.980   9.717   1.119  0.4418  0.0479 -0.8847
  876MOL0     C15538   2.968   9.616   1.236 -0.1108 -0.4644 -0.0060
  876MOL0     C15539   2.878   9.496   1.214  0.4888 -0.0390  0.0546
  876MOL0     C15540   2.939   9.382   1.286  0.1992  0.3553  0.1157
  876MOL0     C15541   3.058   9.310   1.210 -0.0123 -0.0351  0.1402
  876MOL0     C15542   3.098   9.189   1.288  0.1258 -0.3374 -0.1965
  876MOL0     C15543   3.183   9.087   1.217  0.9524  0.1591 -0.3367
  876MOL0    Cl15544   3.181   8.944   1.323 -0.1456 -0.3887  0.3324
  876MOL0     C15545   3.423   9.708   0.965  0.6869 -0.1037 -0.8350
  876MOL0     C15546   3.519   9.683   0.873 -0.1918  0.1972  0.2492
  876MOL0     O15547   3.703   9.768   0.663 -0.0324  0.3465  0.2662
  876MOL0     C15548   3.794   9.468   0.492 -0.5353  0.6683 -0.2659
  876MOL0     C15549   3.881   9.418   0.395 -0.6368  0.3228 -0.8237
  876MOL0     N15550   4.541   9.309   0.003  1.1289  0.4082  0.3219
  876MOL0     N15551   4.666   9.337  -0.021 -0.2941  0.0438  0.6912
  876MOL0     C15552   4.608   9.785   0.615  0.8542  0.1185  0.2594
  876MOL0     C15553   4.490   9.848   0.665  0.6866  0.5445  0.0082
  876MOL0     C15554   4.062  10.039   0.683  0.7857  0.1315  0.5171
  876MOL0     C15555   3.939  10.064   0.622  0.5143 -0.3989  0.3623
  876MOL0     C15556   3.850  10.154   0.675 -0.4941 -0.3095  0.7628
  876MOL0     C15557   3.894  10.223   0.788  1.1632  0.9448 -0.8440
  876MOL0     O15558   3.802  10.312   0.834 -0.0985  0.5263 -0.1386
  876MOL0     C15559   3.845  10.445   0.882 -0.2519  0.0123 -0.5360
  876MOL0     C15560   3.801  10.453   1.032  0.5637  0.4898  0.0504
  876MOL0     C15561   3.659  10.505   1.043 -0.2472 -0.3558 -0.6897
  876MOL0     C15562   3.552  10.396   1.013 -1.0018 -0.3179 -0.0994
  876MOL0     C15563   3.428  10.457   1.043  0.0922  0.1929  0.0014
  876MOL0     C15564   3.316  10.507   1.066 -0.2810  0.1821  0.3656
  876MOL0     C15565   4.015  10.196   0.842  0.0478  0.8614 -0.8873
  876MOL0     C15566   4.101  10.105   0.797  0.2289  0.2510  0.5372
  876MOL0     H15567   4.251   9.716   0.488 -1.0051  1.4603  0.7342
  876MOL0     H15568   4.453   9.599   0.389  2.0453 -1.4871 -0.1909
  876MOL0     H15569   4.670   9.722   0.263  2.2701  0.6945  0.0209
  876MOL0     H15570   4.690   9.540   0.265 -0.4478 -0.0563 -0.7495
  876MOL0     H15571   4.929   9.590   0.324 -0.2149 -1.6963 -2.1410
  876MOL0     H15572   4.889   9.758   0.279  0.7000  0.2520 -1.7658
  876MOL0     H15573   4.844   9.674   0.050  2.2060  0.5501  0.7779
  876MOL0     H15574   4.853   9.514   0.109  1.6315 -0.1822 -2.2109
  876MOL0     H15575   5.106   9.669   0.131 -0.9540  1.9187 -2.7502
  876MOL0     H15576   5.084   9.497   0.146 -2.4431 -0.5393  1.5321
  876MOL0     H15577   5.184   9.626  -0.073  0.4840  0.7920 -3.1563
  876MOL0     H15578   5.026   9.675  -0.109 -1.1278 -2.1906 -2.1814
  876MOL0     H15579   5.130   9.383  -0.110  0.1236 -0.3803 -0.0189
  876MOL0     H15580   5.078   9.469  -0.242  0.2166 -2.1654 -0.2666
  876MOL0     H15581   4.934   9.302  -0.182  1.8109  1.4843 -0.4853
  876MOL0     H15582   4.907   9.368  -0.014 -2.9132 -0.6079  1.3513
  876MOL0     H15583   4.799   9.480  -0.280 -0.4745 -2.4926  0.5283
  876MOL0     H15584   4.821   9.579  -0.138  3.0087  0.3492  1.1619
  876MOL0     H15585   4.530   9.527  -0.241 -2.8197 -3.8013 -1.9753
  876MOL0     H15586   4.292   9.303  -0.161 -1.9644  2.2174 -0.9209
  876MOL0     H15587   4.285   9.472  -0.136  0.9399 -0.8596 -1.5680
  876MOL0     H15588   4.298   9.436   0.114  0.5457  0.6742 -0.6242
  876MOL0     H15589   4.302   9.258   0.094 -0.4033  0.5371 -0.0400
  876MOL0     H15590   4.094   9.460  -0.010 -1.6577  0.2857  1.0413
  876MOL0     H15591   4.074   9.299  -0.042 -1.5598  1.1552  0.8203
  876MOL0     H15592   4.096   9.270   0.228  1.7312 -1.7667 -1.9669
  876MOL0     H15593   3.942   9.344   0.159  0.4321  4.5598  0.2266
  876MOL0     H15594   4.044   9.713   0.322 -0.2490  0.1928  0.2795
  876MOL0     H15595   3.872   9.801   0.460 -0.6891  0.0395  2.8904
  876MOL0     H15596   3.359   9.467   0.664  3.2717  2.9485 -3.8432
  876MOL0     H15597   3.195   9.478   0.855 -1.8458  2.2443  1.4027
  876MOL0     H15598   3.025   9.558   1.007  0.3719  0.0410  0.7412
  876MOL0     H15599   3.054   9.711   0.922 -1.5988  1.7083  1.4557
  876MOL0     H15600   2.879   9.730   1.079 -0.1736 -2.2111 -0.2363
  876MOL0     H15601   3.030   9.807   1.156 -3.2547  1.7700  0.3256
  876MOL0     H15602   2.908   9.672   1.309 -3.2025 -0.4339 -2.3668
  876MOL0     H15603   3.067   9.582   1.268  0.8750  0.8834 -1.4793
  876MOL0     H15604   2.780   9.505   1.262  0.3778 -6.6575  2.0513
  876MOL0     H15605   2.866   9.463   1.111 -0.6646 -0.5164  0.3219
  876MOL0     H15606   2.864   9.304   1.298  1.2851 -0.4473  2.1042
  876MOL0     H15607   2.968   9.416   1.386  2.7012  0.4478 -0.5711
  876MOL0     H15608   3.147   9.373   1.200  0.9267 -0.9562  2.2065
  876MOL0     H15609   3.021   9.279   1.111  0.0901 -2.2603  0.7397
  876MOL0     H15610   3.151   9.219   1.378 -0.5427  0.9082 -0.1945
  876MOL0     H15611   3.008   9.141   1.327 -1.7131  2.2121 -1.0171
  876MOL0     H15612   3.285   9.126   1.206  0.7920  1.0922  1.2113
  876MOL0     H15613   3.133   9.057   1.125 -1.2885 -1.2958  1.2404
  876MOL0     H15614   3.427   9.793   1.032 -0.3207 -1.5391  1.1675
  876MOL0     H15615   3.619   9.721   0.894  0.2258 -1.4049  1.3523
  876MOL0     H15616   3.728   9.397   0.540  0.1030 -1.2516 -2.0522
  876MOL0     H15617   3.904   9.315   0.370 -0.4013  0.6441 -1.9928
  876MOL0     H15618   4.705   9.805   0.661  2.5800 -0.1630 -2.9766
  876MOL0     H15619   4.501   9.912   0.751 -2.4580 -1.4490  2.0989
  876MOL0     H15620   3.908  10.012   0.531  2.6477 -2.2184  0.5789
  876MOL0     H15621   3.755  10.178   0.628 -1.1263  0.2401  2.2475
  876MOL0     H15622   3.791  10.521   0.825 -0.8451 -0.5657 -0.7581
  876MOL0     H15623   3.953  10.457   0.871  0.4088 -0.6928  3.5540
  876MOL0     H15624   3.797  10.349   1.067  0.0742  0.2448 -0.6952
  876MOL0     H15625   3.872  10.514   1.088  1.5940 -1.0140  0.4536
  876MOL0     H15626   3.643  10.588   0.974 -0.8272  1.2891  1.3044
  876MOL0     H15627   3.647  10.553   1.141  0.3349  5.7155 -3.1536
  876MOL0     H15628   3.557  10.375   0.906 -2.0248  3.2306 -0.9917
  876MOL0     H15629   3.565  10.309   1.078 -1.5302  0.0715  0.5285
  876MOL0     H15630   3.221  10.548   1.094 -1.3229 -2.2403  0.6879
  876MOL0     H15631   4.040  10.254   0.931 -0.2731  0.8906 -0.8120
  876MOL0     H15632   4.198  10.089   0.844  0.2534 -1.0321  0.0753
  877MOL0     O15633   9.086   3.657   2.008 -0.7325 -0.3861 -0.4545
  877MOL0     C15634   9.047   3.558   2.059 -0.4507  0.0124 -0.4685
  877MOL0     O15635   8.929   3.531   2.115 -0.0248  0.3137 -0.8307
  877MOL0     C15636   8.813   3.606   2.110  0.0491 -0.0766 -0.1984
  877MOL0     C15637   8.792   3.722   2.032  0.6141  0.4548  0.3445
  877MOL0     C15638   8.665   3.777   2.011 -0.3294 -0.3157  0.1799
  877MOL0     C15639   8.554   3.717   2.081  0.1314 -0.6539  0.1355
  877MOL0     O15640   8.419   3.758   2.083 -0.0150  0.0733  0.2516
  877MOL0     C15641   8.381   3.847   1.976 -0.1854 -0.2132  0.1688
  877MOL0     C15642   8.228   3.870   1.977  0.3387 -0.2417  0.8958
  877MOL0     C15643   8.173   3.982   1.876  0.2938 -0.1674  0.0924
  877MOL0     C15644   8.216   3.964   1.731 -0.3503  0.2183 -0.2715
  877MOL0     C15645   8.149   4.056   1.628 -0.3307  0.1267 -0.8410
  877MOL0     C15646   7.996   4.062   1.637 -0.3897 -0.1826 -0.4088
  877MOL0     C15647   7.942   4.186   1.557  0.4557 -1.0708 -0.0238
  877MOL0     C15648   7.787   4.173   1.531  1.0941  0.0805  0.1327
  877MOL0     N15649   7.736   4.311   1.508  0.2952 -0.1608  0.0086
  877MOL0     C15650   7.676   4.389   1.604  0.5885 -0.4406 -0.1232
  877MOL0     C15651   7.686   4.513   1.563  0.0986  0.1554 -0.1493
  877MOL0     C15652   7.641   4.647   1.620 -0.7395 -0.1956  0.6994
  877MOL0     C15653   7.512   4.699   1.571  0.2719 -0.8095  0.8341
  877MOL0     C15654   7.397   4.616   1.644 -0.2198  0.7951  0.4163
  877MOL0     C15655   7.262   4.647   1.574 -0.4201  0.1931 -0.5362
  877MOL0     O15656   7.173   4.561   1.640  0.0705 -0.7865  0.0536
  877MOL0     C15657   7.040   4.590   1.608 -0.1292  0.2947  0.0585
  877MOL0     C15658   7.001   4.581   1.473  0.3031  0.6479 -0.6182
  877MOL0     C15659   6.874   4.627   1.433  0.2849 -0.3443 -0.5048
  877MOL0     C15660   6.778   4.670   1.524  0.8663  0.3759  0.1441
  877MOL0     C15661   6.642   4.713   1.486  0.1113 -0.4662  0.1143
  877MOL0     O15662   6.549   4.761   1.574 -0.2597  0.0483 -0.5060
  877MOL0     C15663   6.422   4.805   1.529 -0.0638  0.1298  0.0753
  877MOL0     C15664   6.372   4.929   1.577 -0.4540  1.1549  0.1776
  877MOL0     C15665   6.236   4.972   1.557 -0.3432 -0.7718  0.0443
  877MOL0     C15666   6.150   4.890   1.477 -0.4796  0.4550 -0.1796
  877MOL0     O15667   6.021   4.940   1.458  0.2106  0.0878  0.6631
  877MOL0     C15668   5.933   4.851   1.408  0.7481 -0.2089  0.5429
  877MOL0     C15669   5.804   4.903   1.343  0.6621  0.3617 -0.1921
  877MOL0     C15670   5.717   4.987   1.442  0.1609 -0.3866  0.8629
  877MOL0     C15671   5.576   5.021   1.380 -0.3208  0.1189 -0.1482
  877MOL0     C15672   5.479   5.046   1.496  0.0163 -0.0573  0.7504
  877MOL0     C15673   5.422   5.186   1.474 -1.0058  0.0780  0.0371
  877MOL0     C15674   5.311   5.220   1.572 -0.5641 -0.0668 -0.2585
  877MOL0     C15675   5.291   5.370   1.607  0.6101  0.3474  0.0042
  877MOL0    Cl15676   5.140   5.386   1.686  0.3367  0.4984  0.1696
  877MOL0     C15677   6.200   4.769   1.424  0.8525  0.5562 -0.3102
  877MOL0     C15678   6.337   4.734   1.447  0.6827  0.6216 -0.1273
  877MOL0     O15679   6.619   4.690   1.368 -0.1894  0.5913  0.3618
  877MOL0     C15680   6.813   4.669   1.661  0.7770  0.0067 -0.3474
  877MOL0     C15681   6.945   4.640   1.697  0.1371  0.6602  0.9289
  877MOL0     N15682   7.741   4.509   1.432  0.0470 -0.2328 -0.2992
  877MOL0     N15683   7.777   4.394   1.402 -1.1924 -0.5754  0.2832
  877MOL0     C15684   8.579   3.615   2.178  0.0781  0.8488  0.3004
  877MOL0     C15685   8.704   3.560   2.189  0.3353  0.6486  0.3092
  877MOL0     C15686   9.149   3.456   2.100 -0.1844 -1.4744  0.1586
  877MOL0     C15687   9.126   3.347   2.180 -0.2591 -0.8988 -0.8203
  877MOL0     C15688   9.231   3.250   2.196  0.3283  0.7859 -0.0366
  877MOL0     C15689   9.355   3.257   2.132  0.6894 -0.9290 -0.6290
  877MOL0     O15690   9.447   3.159   2.159 -0.4555 -0.6780  0.2498
  877MOL0     C15691   9.588   3.187   2.144  1.3984 -0.0512 -0.3412
  877MOL0     C15692   9.671   3.067   2.149 -0.1911  0.2982 -0.0046
  877MOL0     C15693   9.662   2.984   2.025  0.7251  0.3363 -0.0513
  877MOL0     C15694   9.765   2.873   2.013  1.1870 -0.7133  0.2987
  877MOL0     C15695   9.723   2.769   1.919  0.2049  0.3083  0.7860
  877MOL0     C15696   9.660   2.686   1.853 -0.4464 -0.0432 -0.2708
  877MOL0     C15697   9.377   3.374   2.057 -0.0859 -0.6090  0.0314
  877MOL0     C15698   9.276   3.470   2.040  0.0457 -0.2013 -0.8742
  877MOL0     H15699   8.870   3.767   1.971  1.4453 -1.4950 -0.1140
  877MOL0     H15700   8.661   3.864   1.947 -1.4165  0.7690  1.6534
  877MOL0     H15701   8.414   3.812   1.878  1.7075  0.9990  0.3161
  877MOL0     H15702   8.426   3.947   1.984  0.1999 -0.2861 -0.8737
  877MOL0     H15703   8.199   3.888   2.081 -2.3287  1.7681 -0.0775
  877MOL0     H15704   8.177   3.781   1.938 -0.9531  1.8102 -2.6655
  877MOL0     H15705   8.215   4.075   1.915  0.2301  0.3118 -0.9533
  877MOL0     H15706   8.063   3.975   1.879  0.2673 -1.8004 -2.0800
  877MOL0     H15707   8.324   3.976   1.733 -0.5807  3.1858 -1.4472
  877MOL0     H15708   8.181   3.865   1.699  0.6572 -0.6426  1.1932
  877MOL0     H15709   8.177   4.017   1.529  0.7983 -0.7367 -0.2090
  877MOL0     H15710   8.197   4.153   1.645  0.5312 -0.2483 -1.0498
  877MOL0     H15711   7.960   4.067   1.740 -0.1942  1.2337 -0.3905
  877MOL0     H15712   7.951   3.969   1.599 -0.5828 -1.1755  2.0737
  877MOL0     H15713   7.960   4.278   1.612  2.5631 -3.3766  3.5625
  877MOL0     H15714   8.001   4.191   1.465  0.4886  0.0490  0.0461
  877MOL0     H15715   7.740   4.123   1.616  0.3562  0.6465  0.0744
  877MOL0     H15716   7.772   4.103   1.449  1.5177 -2.7980  2.3434
  877MOL0     H15717   7.643   4.362   1.704  1.3477  0.1070  0.2910
  877MOL0     H15718   7.715   4.715   1.578 -1.1248  0.5333  1.1741
  877MOL0     H15719   7.655   4.657   1.728 -0.5387  0.6833  0.5998
  877MOL0     H15720   7.517   4.691   1.462 -2.2704  2.4348  0.3117
  877MOL0     H15721   7.496   4.806   1.587 -0.9999 -0.6889 -0.9575
  877MOL0     H15722   7.415   4.509   1.639  1.9817  1.1203  0.4840
  877MOL0     H15723   7.395   4.636   1.751 -0.0658 -2.8558  1.2105
  877MOL0     H15724   7.275   4.622   1.469  1.6540  1.6158 -0.6840
  877MOL0     H15725   7.241   4.754   1.586 -3.2729 -0.4547  1.2164
  877MOL0     H15726   7.067   4.531   1.403 -0.0036 -2.1514  0.9512
  877MOL0     H15727   6.851   4.606   1.329  2.4300 -0.2028 -1.0555
  877MOL0     H15728   6.445   4.984   1.635  0.4560  0.1883 -0.0008
  877MOL0     H15729   6.229   5.072   1.597 -1.3027 -1.1232  0.8039
  877MOL0     H15730   5.909   4.777   1.486 -1.1332 -1.3051 -1.0020
  877MOL0     H15731   5.984   4.806   1.322  0.5382  1.8898 -0.7421
  877MOL0     H15732   5.754   4.811   1.310  0.5167 -0.6265  2.5859
  877MOL0     H15733   5.835   4.961   1.255  5.1459 -0.3516  0.6667
  877MOL0     H15734   5.768   5.078   1.476  0.6980 -0.3339 -0.0727
  877MOL0     H15735   5.707   4.923   1.530  1.6726  0.7404  1.9028
  877MOL0     H15736   5.595   5.105   1.312 -0.9689 -0.8658 -1.6016
  877MOL0     H15737   5.555   4.938   1.312  5.2383  0.8507 -3.4110
  877MOL0     H15738   5.525   5.041   1.595  1.7165 -0.0026 -0.0162
  877MOL0     H15739   5.394   4.977   1.495 -0.1342  0.1185 -0.3465
  877MOL0     H15740   5.402   5.218   1.372  1.0234 -0.4618 -0.5824
  877MOL0     H15741   5.500   5.253   1.513 -0.3225 -0.2037 -0.8305
  877MOL0     H15742   5.219   5.175   1.534  0.6258 -3.4324  0.4781
  877MOL0     H15743   5.342   5.180   1.669  3.5874  0.9069 -0.9950
  877MOL0     H15744   5.311   5.429   1.517  1.9602  1.6514  1.1098
  877MOL0     H15745   5.375   5.399   1.671  0.0212 -0.0142  0.9542
  877MOL0     H15746   6.148   4.697   1.361  1.8212  1.8299 -2.7132
  877MOL0     H15747   6.362   4.643   1.394  1.2942  1.8629 -2.0662
  877MOL0     H15748   6.740   4.697   1.736  3.6092 -0.3716  2.8115
  877MOL0     H15749   6.986   4.652   1.797 -1.0268 -1.8265  1.8006
  877MOL0     H15750   8.504   3.578   2.247  1.1197 -1.9040  0.0592
  877MOL0     H15751   8.735   3.483   2.259  1.3465 -0.1365 -0.9375
  877MOL0     H15752   9.035   3.324   2.235  0.2673 -1.4181 -0.1401
  877MOL0     H15753   9.220   3.157   2.250 -0.6609  1.0368  0.2236
  877MOL0     H15754   9.612   3.256   2.226 -1.7752 -0.0129  0.7101
  877MOL0     H15755   9.603   3.229   2.045  0.8729 -0.2668 -0.5188
  877MOL0     H15756   9.774   3.104   2.153 -0.0763 -0.0650  0.4977
  877MOL0     H15757   9.653   3.007   2.238  2.1652  1.0408  1.0353
  877MOL0     H15758   9.670   3.050   1.939  1.7802  2.2654  1.4622
  877MOL0     H15759   9.561   2.943   2.018  0.4117  0.2338  3.5066
  877MOL0     H15760   9.867   2.909   1.998  0.0440  1.9415 -2.0358
  877MOL0     H15761   9.771   2.820   2.108 -0.0386 -2.1994 -0.4177
  877MOL0     H15762   9.586   2.614   1.823 -3.2439  2.4666  0.1236
  877MOL0     H15763   9.466   3.396   1.999 -1.9333 -0.1116 -2.8122
  877MOL0     H15764   9.292   3.551   1.969 -0.0118 -0.7127 -1.4795
  878MOL0     O15765   9.989   9.007   9.951  0.5384  0.5912  0.4179
  878MOL0     C15766  10.051   8.994   9.847 -0.4186  0.4181 -0.2221
  878MOL0     O15767   9.999   8.960   9.728  0.6280  0.6703  0.0972
  878MOL0     C15768   9.878   8.901   9.714 -0.2664  0.1066 -1.0319
  878MOL0     C15769   9.831   8.887   9.587  0.4205  0.0701 -0.5810
  878MOL0     C15770   9.706   8.835   9.552  0.2789 -0.3720  0.6301
  878MOL0     C15771   9.616   8.786   9.646  0.9434 -0.3208 -0.2742
  878MOL0     O15772   9.485   8.747   9.625 -0.7989 -0.3936  0.6541
  878MOL0     C15773   9.431   8.748   9.498 -0.2734  0.5305  0.3882
  878MOL0     C15774   9.276   8.780   9.500 -0.6758 -0.5800 -0.1251
  878MOL0     C15775   9.191   8.701   9.600 -0.4830 -0.1785  0.7629
  878MOL0     C15776   9.043   8.727   9.579  0.5896 -0.0342  0.2761
  878MOL0     C15777   8.947   8.654   9.681 -0.2525  0.0689  0.2401
  878MOL0     C15778   8.924   8.746   9.808 -0.3070 -0.1600  0.1397
  878MOL0     C15779   8.850   8.665   9.912 -0.7856  0.4050  0.3651
  878MOL0     C15780   8.825   8.744  10.040 -0.8730  0.7065  0.0003
  878MOL0     N15781   8.709   8.830  10.019 -0.1119 -0.3707  0.3968
  878MOL0     C15782   8.715   8.968  10.027 -1.9198 -1.0818  0.4612
  878MOL0     C15783   8.597   9.000   9.987  0.4468 -0.9078 -0.2953
  878MOL0     C15784   8.548   9.143   9.975  0.0692  0.8350  0.2481
  878MOL0     C15785   8.411   9.164  10.050 -0.6096  0.1177  0.7628
  878MOL0     C15786   8.387   9.317  10.044  0.1627  0.2230  0.3955
  878MOL0     C15787   8.247   9.337  10.096 -0.9261 -0.0217  0.2023
  878MOL0     O15788   8.238   9.467  10.145 -0.0484 -0.4784  0.5198
  878MOL0     C15789   8.123   9.513  10.201 -0.0925  0.0581  0.1735
  878MOL0     C15790   8.010   9.434  10.217 -0.2449  0.5507 -0.0794
  878MOL0     C15791   7.890   9.498  10.248 -0.0405 -0.0214 -0.0968
  878MOL0     C15792   7.888   9.633  10.283  0.6169  0.6754  0.2452
  878MOL0     C15793   7.757   9.680  10.317 -0.4205 -1.0102  0.2291
  878MOL0     O15794   7.647   9.621  10.257 -0.2094 -0.0684 -0.4930
  878MOL0     C15795   7.521   9.656  10.313  1.0821  0.1091  0.2040
  878MOL0     C15796   7.474   9.790  10.309  0.1268 -0.8515  0.4377
  878MOL0     C15797   7.337   9.816  10.342 -1.3595 -0.2586  0.6555
  878MOL0     C15798   7.247   9.713  10.380 -1.2165  0.5697 -0.3323
  878MOL0     O15799   7.120   9.739  10.404  1.0868 -0.2684 -0.1707
  878MOL0     C15800   7.034   9.785  10.300 -0.0472 -0.7437  0.2253
  878MOL0     C15801   6.931   9.894  10.349  0.0105  0.4255 -0.3226
  878MOL0     C15802   6.808   9.905  10.254 -0.3765  0.4383 -0.2128
  878MOL0     C15803   6.719  10.018  10.302  0.7610  0.2643 -0.1984
  878MOL0     C15804   6.630  10.063  10.189  0.3917 -0.3438 -0.1925
  878MOL0     C15805   6.558  10.196  10.224  0.3435  0.1853  0.2793
  878MOL0     C15806   6.476  10.261  10.106 -0.0551  1.4374  0.5285
  878MOL0     C15807   6.333  10.302  10.144  0.0104  1.1276  0.0803
  878MOL0    Cl15808   6.263  10.151  10.217  0.4097 -0.0054  0.1469
  878MOL0     C15809   7.307   9.581  10.391  0.0201  0.7334 -0.2253
  878MOL0     C15810   7.435   9.550  10.357 -0.1355 -0.5091 -0.1015
  878MOL0     O15811   7.755   9.772  10.395  0.4155  0.3961 -0.8170
  878MOL0     C15812   8.003   9.707  10.270  0.0318 -0.2428  0.1114
  878MOL0     C15813   8.116   9.646  10.229 -0.3826 -0.1199 -0.6743
  878MOL0     N15814   8.517   8.887   9.967 -0.2443  0.0256  0.0755
  878MOL0     N15815   8.581   8.784  10.001 -0.4248  0.5623  0.2883
  878MOL0     C15816   9.660   8.802   9.773 -0.2303  0.2364  1.2811
  878MOL0     C15817   9.786   8.859   9.808  0.4898 -0.1461  0.5696
  878MOL0     C15818  10.199   9.013   9.859  0.1066 -0.0356  0.9121
  878MOL0     C15819  10.278   9.026   9.743 -0.3469  0.0827  0.0051
  878MOL0     C15820  10.416   9.052   9.755  0.1614 -1.2209 -0.0487
  878MOL0     C15821  10.467   9.094   9.880 -0.2975  0.2246 -0.0456
  878MOL0     O15822  10.595   9.143   9.905 -0.5639  0.0084  0.1013
  878MOL0     C15823  10.684   9.170   9.790 -0.0118 -0.0214  0.7260
  878MOL0     C15824  10.802   9.264   9.810  0.6208  0.4933 -0.3171
  878MOL0     C15825  10.869   9.249   9.948  0.1921  0.2908 -0.7002
  878MOL0     C15826  10.833   9.358  10.048 -0.7296  0.3133  0.2038
  878MOL0     C15827  10.924   9.355  10.163  0.2725  0.0597 -0.4366
  878MOL0     C15828  10.986   9.357  10.265  0.9936  0.5278 -0.1922
  878MOL0     C15829  10.384   9.094   9.993  0.2261  0.4127  0.6385
  878MOL0     C15830  10.256   9.045   9.991  0.1965 -0.2747  0.8125
  878MOL0     H15831   9.884   8.926   9.501 -0.0578  1.1275 -0.4192
  878MOL0     H15832   9.672   8.842   9.449 -0.7127  0.4281  0.9924
  878MOL0     H15833   9.434   8.655   9.442 -2.4424  1.2259 -0.9989
  878MOL0     H15834   9.485   8.819   9.435  0.8878 -1.8058 -1.3944
  878MOL0     H15835   9.236   8.779   9.398 -2.7882  2.5020  0.5130
  878MOL0     H15836   9.269   8.885   9.528  2.8787  0.0756 -1.2537
  878MOL0     H15837   9.214   8.734   9.702 -1.5153  0.1004  0.9167
  878MOL0     H15838   9.212   8.594   9.595 -0.6328 -0.1297 -2.1681
  878MOL0     H15839   9.027   8.835   9.574  3.3935  0.4160 -3.7046
  878MOL0     H15840   9.014   8.692   9.480 -0.5759  0.0060  0.5894
  878MOL0     H15841   8.990   8.554   9.696 -1.5765 -0.6333 -0.5022
  878MOL0     H15842   8.847   8.644   9.638  1.1111 -1.3439 -2.8864
  878MOL0     H15843   8.867   8.833   9.778  0.8612  1.1745  1.5813
  878MOL0     H15844   9.020   8.774   9.854 -1.1439  1.8418  0.7316
  878MOL0     H15845   8.755   8.628   9.872 -0.4464 -1.2432  1.0108
  878MOL0     H15846   8.905   8.573   9.934 -2.4806 -1.4438 -2.5298
  878MOL0     H15847   8.913   8.808  10.055 -0.4767  0.6629 -1.9361
  878MOL0     H15848   8.816   8.678  10.127 -1.3127 -0.6612 -1.0612
  878MOL0     H15849   8.792   9.038  10.059 -2.0356 -0.0443 -1.3982
  878MOL0     H15850   8.539   9.165   9.868  1.9039  1.5630  0.2152
  878MOL0     H15851   8.617   9.216  10.018  0.4744  1.1330 -0.8848
  878MOL0     H15852   8.426   9.147  10.157  2.8269 -0.3538  0.3171
  878MOL0     H15853   8.323   9.116  10.007 -0.6830  0.2749  0.7337
  878MOL0     H15854   8.469   9.362  10.101  0.6113  1.7532 -1.3722
  878MOL0     H15855   8.381   9.351   9.940  0.7921  1.5542  0.7704
  878MOL0     H15856   8.213   9.257  10.162  0.6262  0.6557  1.8902
  878MOL0     H15857   8.185   9.328  10.006 -0.0623 -1.4398 -0.2835
  878MOL0     H15858   7.995   9.330  10.189 -0.3971  0.7727 -0.8444
  878MOL0     H15859   7.795   9.445  10.251 -0.2618  0.3605 -0.3004
  878MOL0     H15860   7.537   9.870  10.273 -1.2718  0.9876  1.8794
  878MOL0     H15861   7.308   9.920  10.331  1.7615  0.6572  0.3229
  878MOL0     H15862   6.983   9.695  10.264 -2.0364 -0.3311  1.8242
  878MOL0     H15863   7.090   9.828  10.216  0.7758  1.9922  2.0532
  878MOL0     H15864   6.981   9.991  10.358 -0.3673  0.6071 -0.1482
  878MOL0     H15865   6.890   9.875  10.449  3.9732  0.9980  1.5768
  878MOL0     H15866   6.752   9.812  10.239 -3.2356  2.2246 -1.4480
  878MOL0     H15867   6.845   9.928  10.154  0.8452  2.1872  0.5893
  878MOL0     H15868   6.667  10.004  10.397 -1.4200  2.7983 -0.9054
  878MOL0     H15869   6.790  10.099  10.322 -1.5946  2.4843 -0.3013
  878MOL0     H15870   6.561   9.980  10.172 -0.3735  0.1157  0.5546
  878MOL0     H15871   6.698  10.080  10.105 -0.8916  0.4749 -1.0902
  878MOL0     H15872   6.634  10.271  10.248  0.8013 -0.5730  1.2618
  878MOL0     H15873   6.502  10.186  10.317 -0.2689  0.5442 -0.0446
  878MOL0     H15874   6.535  10.345  10.069 -0.6994  2.6630  2.1794
  878MOL0     H15875   6.466  10.193  10.020  2.8067 -0.8375  1.7988
  878MOL0     H15876   6.277  10.337  10.057  0.6960  0.1989 -0.7548
  878MOL0     H15877   6.348  10.384  10.215 -0.9338  2.1776 -0.8809
  878MOL0     H15878   7.237   9.504  10.421 -1.5091  2.0799 -0.1547
  878MOL0     H15879   7.469   9.447  10.359  0.2661 -0.3731  0.3582
  878MOL0     H15880   7.985   9.810  10.299  1.0285  0.2908 -1.0655
  878MOL0     H15881   8.207   9.704  10.217 -0.3244 -0.4296 -1.8147
  878MOL0     H15882   9.598   8.791   9.862 -0.7674  2.8676  1.3179
  878MOL0     H15883   9.795   8.880   9.914 -0.2730  2.5909  0.1681
  878MOL0     H15884  10.232   9.047   9.647 -1.0764  2.0713  0.7511
  878MOL0     H15885  10.479   9.049   9.666 -1.0305 -0.6441 -0.9467
  878MOL0     H15886  10.634   9.210   9.702  0.8679  1.0542  0.6864
  878MOL0     H15887  10.717   9.071   9.757 -0.6117  0.3418 -1.0739
  878MOL0     H15888  10.883   9.238   9.742  0.5772  2.7223 -1.3146
  878MOL0     H15889  10.790   9.372   9.802 -0.3861  0.3729 -0.5156
  878MOL0     H15890  10.978   9.258   9.939 -0.0395  3.9924 -1.0830
  878MOL0     H15891  10.839   9.151   9.988  1.2673  0.2945  0.1729
  878MOL0     H15892  10.840   9.454   9.996 -3.7607  0.5388  0.0899
  878MOL0     H15893  10.727   9.345  10.067 -0.7885  1.4104  0.6694
  878MOL0     H15894  11.026   9.381  10.361 -0.4128  0.6845  0.3738
  878MOL0     H15895  10.423   9.124  10.089  2.3204  0.0045 -0.0320
  878MOL0     H15896  10.199   9.046  10.083 -1.3693  4.3574  0.0816
  879MOL0     O15897   1.328   8.319   0.803 -0.2035  0.2283  0.2331
  879MOL0     C15898   1.296   8.229   0.732  0.0014  0.1835  0.2960
  879MOL0     O15899   1.169   8.216   0.678  0.0486 -0.5563 -0.9145
  879MOL0     C15900   1.057   8.288   0.709 -0.1906  0.0592 -0.0796
  879MOL0     C15901   1.044   8.397   0.792 -0.3663  0.1776 -0.0371
  879MOL0     C15902   0.923   8.472   0.792  0.4427 -0.0253  0.1726
  879MOL0     C15903   0.805   8.438   0.716 -0.2577 -0.9485  0.3166
  879MOL0     O15904   0.692   8.522   0.721  0.2048 -0.8168 -0.2535
  879MOL0     C15905   0.564   8.476   0.665 -0.1809  0.2046  0.1088
  879MOL0     C15906   0.464   8.584   0.688  0.5118 -1.1278 -0.1725
  879MOL0     C15907   0.338   8.561   0.595  0.3708 -0.8491  0.0488
  879MOL0     C15908   0.220   8.645   0.643  1.2642  0.2505 -0.6478
  879MOL0     C15909   0.082   8.604   0.572  0.1298 -0.0047  0.0164
  879MOL0     C15910   0.080   8.604   0.416 -0.1471  0.7726  0.0718
  879MOL0     C15911  -0.050   8.559   0.362  0.5085  0.5245  0.5109
  879MOL0     C15912  -0.164   8.656   0.379 -0.1406 -0.2423 -0.4626
  879MOL0     N15913  -0.279   8.609   0.313 -0.8151  0.0109  0.6058
  879MOL0     C15914  -0.405   8.588   0.370 -0.6837  0.0162  0.2981
  879MOL0     C15915  -0.480   8.568   0.268  1.2260 -0.0088  0.1072
  879MOL0     C15916  -0.635   8.551   0.260 -0.6468  0.3325  0.2949
  879MOL0     C15917  -0.665   8.440   0.156 -0.0315 -0.5772 -0.0899
  879MOL0     C15918  -0.816   8.425   0.135  0.2331 -0.3317  0.2748
  879MOL0     C15919  -0.847   8.340   0.008 -1.1341  0.3535 -0.0392
  879MOL0     O15920  -0.979   8.373  -0.041  0.2796  0.7821 -0.2566
  879MOL0     C15921  -1.091   8.313   0.020 -0.1013  0.1906  0.3590
  879MOL0     C15922  -1.212   8.339  -0.035  0.5163 -0.3392  0.7554
  879MOL0     C15923  -1.325   8.283   0.018  0.6853  0.1620  0.5355
  879MOL0     C15924  -1.321   8.188   0.130  0.6490 -0.1255 -0.3499
  879MOL0     C15925  -1.444   8.110   0.175 -0.8113 -0.5261 -0.4728
  879MOL0     O15926  -1.420   8.006   0.248  0.2703 -0.0480  0.5849
  879MOL0     C15927  -1.530   7.939   0.281  0.1194 -0.3464 -0.1277
  879MOL0     C15928  -1.587   7.837   0.198 -0.1867  0.7729 -0.3548
  879MOL0     C15929  -1.690   7.753   0.249  0.1712  0.0118 -0.0849
  879MOL0     C15930  -1.732   7.764   0.382  0.6435  0.0728 -0.7757
  879MOL0     O15931  -1.845   7.706   0.438 -0.2994 -0.2345 -0.7385
  879MOL0     C15932  -1.803   7.598   0.529  0.2369 -0.2015 -0.5279
  879MOL0     C15933  -1.914   7.514   0.592 -0.5073  0.6676  0.4785
  879MOL0     C15934  -2.005   7.445   0.487  0.4512 -0.4480  0.2249
  879MOL0     C15935  -2.141   7.413   0.550  0.5707 -0.2415  0.8323
  879MOL0     C15936  -2.236   7.348   0.442 -0.3075 -0.1855  0.5136
  879MOL0     C15937  -2.377   7.311   0.491  0.0162 -0.3679  0.2019
  879MOL0     C15938  -2.485   7.386   0.429  0.1467 -0.7046  0.5751
  879MOL0     C15939  -2.627   7.310   0.455  0.2429 -0.2782  0.7851
  879MOL0    Cl15940  -2.651   7.171   0.333  0.0950 -0.6642 -0.0387
  879MOL0     C15941  -1.678   7.868   0.463  0.0446  0.6410  0.0087
  879MOL0     C15942  -1.572   7.948   0.411 -0.2071  0.4471 -1.1115
  879MOL0     O15943  -1.555   8.142   0.129  0.2298 -0.2430 -0.3046
  879MOL0     C15944  -1.200   8.168   0.186  0.1460 -0.2150 -0.2140
  879MOL0     C15945  -1.085   8.224   0.126  0.4808  0.1230 -0.5308
  879MOL0     N15946  -0.415   8.589   0.150  0.3267  0.0798 -0.3977
  879MOL0     N15947  -0.294   8.603   0.176 -0.6894 -0.4256  0.8468
  879MOL0     C15948   0.818   8.321   0.642  0.5027  0.2082  0.4581
  879MOL0     C15949   0.938   8.248   0.643 -0.6119 -0.4815 -0.1267
  879MOL0     C15950   1.386   8.116   0.702  0.5131 -0.8458 -0.4384
  879MOL0     C15951   1.351   8.023   0.610  0.3350 -0.9452 -0.5145
  879MOL0     C15952   1.431   7.914   0.582  0.6977 -0.1114  0.5344
  879MOL0     C15953   1.549   7.896   0.651  0.5071  0.0795  0.6317
  879MOL0     O15954   1.615   7.782   0.611 -0.4249  0.3717  0.7433
  879MOL0     C15955   1.689   7.718   0.715  0.6519  0.5536  0.2996
  879MOL0     C15956   1.719   7.571   0.676  0.2471 -0.1566  0.4139
  879MOL0     C15957   1.785   7.488   0.790  0.7488 -0.2554 -0.4325
  879MOL0     C15958   1.810   7.351   0.746 -0.5849  0.1055  0.6473
  879MOL0     C15959   1.910   7.340   0.639  1.3298  0.7391 -0.2091
  879MOL0     C15960   1.988   7.324   0.548  0.7214 -0.2574  0.3037
  879MOL0     C15961   1.586   7.988   0.751  0.1524 -0.5641  0.3919
  879MOL0     C15962   1.508   8.100   0.773 -0.3195  0.0527  0.3526
  879MOL0     H15963   1.125   8.443   0.848 -0.5888  2.2071 -1.2496
  879MOL0     H15964   0.929   8.568   0.842 -1.9530 -0.7137  1.9928
  879MOL0     H15965   0.531   8.377   0.697  0.0042 -0.6626 -2.1678
  879MOL0     H15966   0.585   8.477   0.558  0.1542  0.2652  0.1761
  879MOL0     H15967   0.508   8.679   0.657  0.5560 -1.1496 -0.1751
  879MOL0     H15968   0.441   8.589   0.795  2.7900 -2.9232  0.4874
  879MOL0     H15969   0.311   8.456   0.600 -0.4384 -0.6404  0.1378
  879MOL0     H15970   0.357   8.584   0.490 -1.4166  1.1678  0.1033
  879MOL0     H15971   0.207   8.643   0.752 -1.4942 -1.9928 -0.8953
  879MOL0     H15972   0.235   8.750   0.617 -0.2938  0.8845  0.7728
  879MOL0     H15973   0.015   8.685   0.602  0.2940  0.4338 -0.7876
  879MOL0     H15974   0.030   8.511   0.601 -0.1611 -0.3621 -1.5766
  879MOL0     H15975   0.152   8.524   0.395  1.0891  1.3011  2.0539
  879MOL0     H15976   0.122   8.697   0.376  2.2476 -0.7629 -1.2192
  879MOL0     H15977  -0.023   8.560   0.256  3.5260  3.3021  1.1289
  879MOL0     H15978  -0.082   8.457   0.380 -3.5953  1.1545 -1.9217
  879MOL0     H15979  -0.134   8.746   0.326  1.4678 -0.4021  0.1418
  879MOL0     H15980  -0.196   8.660   0.484  1.8977 -3.5427  0.4459
  879MOL0     H15981  -0.426   8.599   0.476  1.9062  2.2716  0.6837
  879MOL0     H15982  -0.685   8.648   0.257 -0.8479  0.2791  1.5209
  879MOL0     H15983  -0.661   8.527   0.363  3.8131  2.4616  2.1894
  879MOL0     H15984  -0.630   8.351   0.209 -1.9907 -0.5073  1.4887
  879MOL0     H15985  -0.610   8.448   0.063  0.7965 -1.6384  0.2888
  879MOL0     H15986  -0.860   8.386   0.227 -1.3624 -1.3063 -0.8410
  879MOL0     H15987  -0.865   8.516   0.101 -2.8385 -2.5225 -1.7165
  879MOL0     H15988  -0.821   8.236   0.032  1.1395  1.1128  1.1687
  879MOL0     H15989  -0.776   8.367  -0.071  1.4577 -2.5997  1.0311
  879MOL0     H15990  -1.224   8.417  -0.109 -1.0199  2.1721  3.4100
  879MOL0     H15991  -1.421   8.308  -0.027  1.0997  0.3631 -0.2550
  879MOL0     H15992  -1.542   7.823   0.100  1.2493 -0.8192  0.4715
  879MOL0     H15993  -1.739   7.685   0.180  1.6972 -0.2863 -0.9353
  879MOL0     H15994  -1.756   7.635   0.621 -1.5685  1.3529 -0.1881
  879MOL0     H15995  -1.740   7.528   0.473 -1.5533 -0.4486 -2.3152
  879MOL0     H15996  -1.978   7.582   0.650 -1.8433  0.6987 -0.9735
  879MOL0     H15997  -1.859   7.441   0.652  1.3037  2.4259  1.0792
  879MOL0     H15998  -1.954   7.355   0.451 -0.0151 -1.8077  2.7201
  879MOL0     H15999  -2.035   7.515   0.408 -0.6655 -2.0925 -0.8847
  879MOL0     H16000  -2.128   7.340   0.631  0.8902 -1.1105  0.0218
  879MOL0     H16001  -2.182   7.508   0.586  0.8689  0.6804 -1.1310
  879MOL0     H16002  -2.179   7.265   0.399 -1.7091 -1.2535  0.6291
  879MOL0     H16003  -2.252   7.420   0.362  2.1040  0.4045  0.4831
  879MOL0     H16004  -2.387   7.331   0.598 -0.7044 -2.0028  0.4657
  879MOL0     H16005  -2.397   7.204   0.478  0.1392 -0.3899  0.1899
  879MOL0     H16006  -2.492   7.487   0.472  2.8704 -0.2239  0.0658
  879MOL0     H16007  -2.471   7.395   0.321 -0.4461  0.7305  0.5842
  879MOL0     H16008  -2.708   7.383   0.448 -0.9634 -1.1121  4.2583
  879MOL0     H16009  -2.637   7.268   0.555 -0.8257  0.2452  0.9117
  879MOL0     H16010  -1.702   7.881   0.569  1.3610 -1.5337  0.6512
  879MOL0     H16011  -1.513   8.014   0.473  0.4928  0.2407 -1.5550
  879MOL0     H16012  -1.187   8.095   0.265  0.2181 -0.9255 -0.8620
  879MOL0     H16013  -0.991   8.198   0.175 -0.7098 -3.2134  0.2868
  879MOL0     H16014   0.735   8.289   0.581 -0.6205  0.6452  1.7055
  879MOL0     H16015   0.948   8.158   0.584  3.0844 -1.4418  1.6606
  879MOL0     H16016   1.259   8.038   0.555  0.7371  5.7327 -0.1963
  879MOL0     H16017   1.399   7.846   0.504 -1.2688  0.8900  0.4138
  879MOL0     H16018   1.621   7.710   0.801  0.0704  0.4470 -0.1668
  879MOL0     H16019   1.784   7.764   0.745  2.2634 -2.7900  0.8205
  879MOL0     H16020   1.621   7.529   0.652  0.4178 -0.1379 -0.3075
  879MOL0     H16021   1.775   7.568   0.582  0.8465  1.0787  0.7037
  879MOL0     H16022   1.711   7.494   0.870  0.2798  2.0900 -0.9580
  879MOL0     H16023   1.878   7.519   0.839 -0.3684 -0.0040  1.6008
  879MOL0     H16024   1.829   7.301   0.842  0.1248  4.4263  3.0395
  879MOL0     H16025   1.724   7.301   0.700  1.5196 -1.2386 -2.1770
  879MOL0     H16026   2.064   7.307   0.474 -0.3492  1.7716 -1.3838
  879MOL0     H16027   1.678   7.980   0.809  0.4183 -0.0861  0.0529
  879MOL0     H16028   1.537   8.181   0.838 -0.8974  1.5762 -1.2102
  880MOL0     O16029   7.227   1.350   6.567  0.0873  0.4741 -0.2925
  880MOL0     C16030   7.338   1.404   6.553 -0.4394 -0.4294  0.0538
  880MOL0     O16031   7.373   1.533   6.579  0.1759  0.7610  0.2469
  880MOL0     C16032   7.298   1.624   6.650  0.3031 -0.2074 -0.2264
  880MOL0     C16033   7.351   1.758   6.648 -0.3495 -0.4330  0.1632
  880MOL0     C16034   7.290   1.862   6.723  0.9455  0.0917 -0.7054
  880MOL0     C16035   7.178   1.828   6.806 -0.2074  0.4882 -0.3279
  880MOL0     O16036   7.095   1.919   6.871  0.6394 -0.1940  0.1472
  880MOL0     C16037   7.110   2.052   6.824  0.1224  0.2517 -0.3653
  880MOL0     C16038   7.028   2.147   6.911 -0.3310  0.2592  0.3354
  880MOL0     C16039   6.884   2.110   6.899 -0.2803  0.7850  0.7161
  880MOL0     C16040   6.796   2.214   6.972  0.4612 -0.1757  0.1563
  880MOL0     C16041   6.775   2.189   7.122 -0.2183 -0.4797 -0.1010
  880MOL0     C16042   6.651   2.265   7.175 -0.1682 -0.0126 -0.2549
  880MOL0     C16043   6.619   2.220   7.322 -0.3147 -1.0171  0.3183
  880MOL0     C16044   6.507   2.288   7.402  0.2818  0.7951  0.4029
  880MOL0     N16045   6.381   2.241   7.348  0.2817 -0.2791 -0.2766
  880MOL0     C16046   6.290   2.146   7.411 -0.2020 -0.3069 -0.3607
  880MOL0     C16047   6.168   2.175   7.354 -0.0521  0.6661 -0.3509
  880MOL0     C16048   6.042   2.089   7.359 -0.2269  0.4328 -0.3294
  880MOL0     C16049   6.040   1.968   7.267 -0.3230 -0.5335  0.4336
  880MOL0     C16050   5.924   1.867   7.292  0.8259  0.2101  0.2943
  880MOL0     C16051   5.783   1.931   7.291 -0.0959  0.3213  0.6073
  880MOL0     O16052   5.748   1.984   7.420 -0.2223 -0.0786  0.4423
  880MOL0     C16053   5.614   2.013   7.417 -0.8013 -0.1175 -0.7850
  880MOL0     C16054   5.522   1.915   7.441  0.7011  0.4566 -0.1028
  880MOL0     C16055   5.387   1.944   7.433  0.2297 -1.1909  0.1134
  880MOL0     C16056   5.339   2.067   7.391 -0.0971  0.4913 -0.5303
  880MOL0     C16057   5.193   2.106   7.378  0.5136 -0.1648  0.2265
  880MOL0     O16058   5.099   2.021   7.445  0.4581  0.3167  0.0989
  880MOL0     C16059   4.967   2.059   7.458 -0.3454 -0.4733 -0.9383
  880MOL0     C16060   4.919   2.118   7.576 -0.2697  0.7117  0.4107
  880MOL0     C16061   4.784   2.152   7.578 -0.3164 -0.6971 -0.4393
  880MOL0     C16062   4.700   2.134   7.474  0.6158 -0.1280 -0.6906
  880MOL0     O16063   4.564   2.161   7.487  0.3704 -0.4869  0.0902
  880MOL0     C16064   4.534   2.303   7.524 -0.4370 -0.1445  0.5988
  880MOL0     C16065   4.422   2.356   7.435  0.4708 -1.1330 -0.4076
  880MOL0     C16066   4.296   2.379   7.517 -0.3051  0.4388  0.0020
  880MOL0     C16067   4.242   2.247   7.568 -0.0961 -1.2290  0.3588
  880MOL0     C16068   4.097   2.268   7.620  0.0228 -0.2177 -0.4608
  880MOL0     C16069   4.079   2.372   7.724 -0.1130 -0.3104 -0.2559
  880MOL0     C16070   3.938   2.384   7.788  0.3343 -0.0850  0.5242
  880MOL0     C16071   3.945   2.469   7.913 -0.5043  0.0411 -0.5551
  880MOL0    Cl16072   3.777   2.502   7.980  0.3421 -0.1064  0.1855
  880MOL0     C16073   4.744   2.057   7.364 -1.0143  0.0319 -0.2208
  880MOL0     C16074   4.881   2.033   7.348  0.7992 -0.2356 -0.2963
  880MOL0     O16075   5.163   2.206   7.317 -0.0852 -0.5420  0.4012
  880MOL0     C16076   5.436   2.168   7.365 -0.5614 -0.1577 -0.0548
  880MOL0     C16077   5.569   2.135   7.367  0.1201  0.6626  0.3730
  880MOL0     N16078   6.181   2.277   7.260 -0.3103 -0.3207 -0.7341
  880MOL0     N16079   6.308   2.298   7.243 -0.3135  0.6254 -0.2950
  880MOL0     C16080   7.129   1.698   6.805 -0.0045 -0.9227 -0.0932
  880MOL0     C16081   7.185   1.601   6.730 -1.2720  0.9590 -0.5624
  880MOL0     C16082   7.451   1.331   6.485  0.6967  0.0823 -0.5269
  880MOL0     C16083   7.433   1.199   6.443  0.1011  1.0429 -0.0321
  880MOL0     C16084   7.540   1.126   6.385 -0.6701  0.8261  0.1099
  880MOL0     C16085   7.676   1.184   6.380 -0.2894  0.5834 -0.6780
  880MOL0     O16086   7.788   1.123   6.331  0.3966  0.3462 -0.1308
  880MOL0     C16087   7.789   0.980   6.312  0.2457 -0.0055  0.7039
  880MOL0     C16088   7.925   0.916   6.272 -0.6011 -0.0852 -0.5767
  880MOL0     C16089   7.981   0.987   6.151  1.1176  0.2610 -0.8095
  880MOL0     C16090   8.126   0.948   6.122  0.1113  0.3909 -0.0825
  880MOL0     C16091   8.176   0.998   6.002 -0.5373 -0.9817  0.5170
  880MOL0     C16092   8.212   1.050   5.901 -0.5995 -0.3981  0.1340
  880MOL0     C16093   7.688   1.319   6.423 -0.9844 -0.2202 -0.9328
  880MOL0     C16094   7.576   1.391   6.466  0.0105  0.3571  0.1369
  880MOL0     H16095   7.447   1.771   6.599 -0.5288  2.8840  0.4726
  880MOL0     H16096   7.334   1.961   6.717 -0.1434  0.5406 -1.5821
  880MOL0     H16097   7.090   2.066   6.718  0.2960  2.1632 -0.1834
  880MOL0     H16098   7.210   2.088   6.848 -1.0250  1.5044  3.2010
  880MOL0     H16099   7.046   2.250   6.879 -0.4616  0.2240  0.1480
  880MOL0     H16100   7.055   2.139   7.017 -4.1987 -0.4089  1.4532
  880MOL0     H16101   6.865   2.014   6.948  0.5429  0.4757  0.4376
  880MOL0     H16102   6.858   2.109   6.793 -3.7403 -0.1403  1.4291
  880MOL0     H16103   6.850   2.307   6.955  2.2493 -0.9525  1.3021
  880MOL0     H16104   6.699   2.205   6.923  0.0421 -2.1064  1.2540
  880MOL0     H16105   6.867   2.209   7.177  0.0314  2.5140 -1.4054
  880MOL0     H16106   6.752   2.082   7.127 -1.6131 -0.3516 -2.3638
  880MOL0     H16107   6.566   2.251   7.107 -0.0565  1.4501 -0.7459
  880MOL0     H16108   6.675   2.372   7.178 -3.0239  0.6793  1.8045
  880MOL0     H16109   6.595   2.113   7.320 -1.1455 -0.8284 -0.8021
  880MOL0     H16110   6.709   2.229   7.384 -1.2398 -0.7966  1.6874
  880MOL0     H16111   6.509   2.392   7.370  2.8197  0.8462  0.5475
  880MOL0     H16112   6.525   2.293   7.510  3.4763  1.3026 -0.0599
  880MOL0     H16113   6.319   2.073   7.486  1.4379  0.1275 -0.5364
  880MOL0     H16114   5.964   2.158   7.326 -0.8983 -0.2149 -0.1503
  880MOL0     H16115   6.028   2.066   7.465 -4.6866  3.3094 -0.0233
  880MOL0     H16116   6.134   1.913   7.255 -1.4925 -2.0380 -3.0029
  880MOL0     H16117   6.025   2.007   7.166  1.2086 -0.9760  0.0039
  880MOL0     H16118   5.927   1.788   7.216 -2.3222 -0.0413  0.3318
  880MOL0     H16119   5.940   1.824   7.391  3.5894 -0.9783 -0.5439
  880MOL0     H16120   5.710   1.858   7.255  0.7909  0.6994 -2.2198
  880MOL0     H16121   5.778   2.014   7.219  3.0504 -0.4655 -0.7136
  880MOL0     H16122   5.572   1.824   7.474  3.4475  1.4546 -1.2129
  880MOL0     H16123   5.315   1.866   7.456 -3.0557  1.2895 -0.9438
  880MOL0     H16124   4.987   2.116   7.661  2.3857 -3.0725 -1.5341
  880MOL0     H16125   4.751   2.199   7.670 -0.7923 -2.6350  0.4183
  880MOL0     H16126   4.619   2.364   7.490 -0.6824 -0.2217 -0.1869
  880MOL0     H16127   4.500   2.315   7.627 -0.2890  1.2544  0.5086
  880MOL0     H16128   4.396   2.297   7.347  1.4835 -3.5555  0.8301
  880MOL0     H16129   4.458   2.458   7.414  0.3659 -0.6484  1.5736
  880MOL0     H16130   4.223   2.427   7.452 -0.2991  1.2797  0.5981
  880MOL0     H16131   4.315   2.446   7.602 -2.1058  1.7936 -0.6123
  880MOL0     H16132   4.249   2.170   7.491 -0.8650 -1.8925  0.9281
  880MOL0     H16133   4.303   2.200   7.645  0.2791 -1.7609 -0.2566
  880MOL0     H16134   4.069   2.176   7.672 -0.3884  0.3198  0.2899
  880MOL0     H16135   4.033   2.281   7.531 -0.9767  0.5050  0.3406
  880MOL0     H16136   4.102   2.466   7.671  3.4831 -0.7835  0.1932
  880MOL0     H16137   4.155   2.370   7.802 -1.3324 -1.8914  0.9602
  880MOL0     H16138   3.867   2.421   7.713  0.5886 -0.7266 -0.0305
  880MOL0     H16139   3.912   2.283   7.819  2.5040 -1.4718 -1.8344
  880MOL0     H16140   3.998   2.561   7.887  1.6950 -0.8354  0.6316
  880MOL0     H16141   3.997   2.399   7.979 -1.3175 -1.8140 -1.8031
  880MOL0     H16142   4.674   2.028   7.287 -0.8725  0.0673 -0.3646
  880MOL0     H16143   4.914   1.989   7.254 -0.9858 -1.1704 -0.5417
  880MOL0     H16144   5.413   2.270   7.337 -2.7300 -0.1140  1.5792
  880MOL0     H16145   5.646   2.208   7.345  2.9049 -2.9241 -3.2724
  880MOL0     H16146   7.050   1.664   6.870 -0.4443  0.4444  0.1155
  880MOL0     H16147   7.139   1.502   6.738  1.3950 -0.5214 -2.1115
  880MOL0     H16148   7.331   1.161   6.446 -0.8206  3.3515  1.4689
  880MOL0     H16149   7.520   1.029   6.341  1.3378  0.3228  0.2186
  880MOL0     H16150   7.725   0.959   6.225  0.0019  1.6956  0.4401
  880MOL0     H16151   7.756   0.929   6.403 -0.6394 -0.7985 -0.0356
  880MOL0     H16152   7.998   0.920   6.353  0.7036  2.2516 -1.7590
  880MOL0     H16153   7.912   0.811   6.246  2.1248 -0.0317 -2.6643
  880MOL0     H16154   7.972   1.096   6.157 -2.2580  0.0202  3.5985
  880MOL0     H16155   7.919   0.951   6.068  1.0937 -1.5340 -0.0630
  880MOL0     H16156   8.179   0.976   6.214 -1.3762 -0.2371  1.0059
  880MOL0     H16157   8.126   0.839   6.112 -1.2325  0.4833 -1.2081
  880MOL0     H16158   8.250   1.101   5.815  2.8998 -0.0470  1.7106
  880MOL0     H16159   7.782   1.368   6.403  0.1465 -2.2215 -0.7633
  880MOL0     H16160   7.590   1.497   6.483 -0.7123  0.6852 -1.1542
  881MOL0     O16161   5.294   0.786   3.602 -0.6565  0.0545 -0.6152
  881MOL0     C16162   5.240   0.890   3.649 -0.6083  1.3305  1.1190
  881MOL0     O16163   5.301   0.987   3.714  0.1971 -0.3232 -0.3419
  881MOL0     C16164   5.439   1.001   3.749  0.2479  0.6906 -0.6270
  881MOL0     C16165   5.459   1.063   3.869  0.2348  0.2681 -0.1424
  881MOL0     C16166   5.583   1.098   3.905  0.0502  0.0456  0.0565
  881MOL0     C16167   5.691   1.068   3.829 -0.7237 -0.1421 -1.6550
  881MOL0     O16168   5.815   1.103   3.886  0.6979  0.9861  0.1028
  881MOL0     C16169   5.925   1.061   3.805  0.1753 -0.6622 -1.2627
  881MOL0     C16170   6.048   1.096   3.877 -0.2689 -0.4262 -0.4892
  881MOL0     C16171   6.174   1.034   3.816  0.1896  0.3656  0.8904
  881MOL0     C16172   6.300   1.124   3.838  0.6206  0.4111 -0.3843
  881MOL0     C16173   6.344   1.133   3.978 -0.5192 -0.4184 -0.2778
  881MOL0     C16174   6.458   1.236   3.999  0.4299 -0.3346  0.0455
  881MOL0     C16175   6.590   1.187   3.948 -0.4011 -0.7953 -1.5298
  881MOL0     C16176   6.699   1.295   3.948 -0.0186 -0.2419  0.6646
  881MOL0     N16177   6.680   1.393   3.847  0.1258  0.2173  0.7998
  881MOL0     C16178   6.629   1.369   3.714  0.3425  0.3667 -0.4351
  881MOL0     C16179   6.589   1.498   3.669  0.1541  0.6688  0.3187
  881MOL0     C16180   6.530   1.528   3.529 -0.3428 -1.0794 -0.2294
  881MOL0     C16181   6.471   1.402   3.451 -0.3266  0.1430 -0.3036
  881MOL0     C16182   6.339   1.350   3.508  0.0344 -0.6306  0.5402
  881MOL0     C16183   6.226   1.453   3.473  0.3234  0.4998  0.4157
  881MOL0     O16184   6.158   1.432   3.345  0.6687  0.1322  0.2750
  881MOL0     C16185   6.096   1.311   3.331  0.1073  0.1547  0.5041
  881MOL0     C16186   5.999   1.264   3.421 -0.6140 -0.5627 -0.0806
  881MOL0     C16187   5.941   1.138   3.392 -0.1719 -0.4390 -0.2832
  881MOL0     C16188   5.961   1.075   3.275 -0.2387  0.0192  0.6942
  881MOL0     C16189   5.900   0.951   3.244  0.8800 -0.0884 -0.4927
  881MOL0     O16190   5.814   0.904   3.337  0.6482 -0.0860 -0.7153
  881MOL0     C16191   5.771   0.773   3.312  0.2195 -0.2154 -0.8740
  881MOL0     C16192   5.860   0.666   3.329 -0.0629  0.4399  0.1264
  881MOL0     C16193   5.819   0.533   3.286 -0.9403 -0.8917  0.4184
  881MOL0     C16194   5.685   0.512   3.262  0.4644  0.2300 -0.0858
  881MOL0     O16195   5.632   0.394   3.221 -0.3612  0.4741  0.4000
  881MOL0     C16196   5.686   0.270   3.255  0.3938 -0.8448 -0.0407
  881MOL0     C16197   5.581   0.166   3.297  0.4202 -0.2574 -0.2626
  881MOL0     C16198   5.475   0.131   3.185  0.2081  0.0574 -0.1611
  881MOL0     C16199   5.360   0.227   3.192 -0.2476 -0.1073 -0.4803
  881MOL0     C16200   5.260   0.244   3.077 -1.3192  0.1540 -0.2227
  881MOL0     C16201   5.195   0.110   3.047  0.5342 -0.0813  0.1134
  881MOL0     C16202   5.104   0.131   2.923 -0.1776 -0.0559  0.0969
  881MOL0     C16203   5.034  -0.002   2.903  0.3120 -0.6017  0.1795
  881MOL0    Cl16204   4.901   0.013   2.781 -0.1015 -0.1902 -0.4872
  881MOL0     C16205   5.593   0.621   3.265 -0.1984  0.2018  1.0818
  881MOL0     C16206   5.638   0.749   3.288  0.2525 -0.4896  0.0254
  881MOL0     O16207   5.940   0.888   3.150 -0.3584 -0.1032 -0.1961
  881MOL0     C16208   6.046   1.130   3.182 -0.9325 -0.8560 -0.2130
  881MOL0     C16209   6.114   1.247   3.209  0.0101 -0.4024 -0.5962
  881MOL0     N16210   6.605   1.585   3.777  0.2283  0.0181  0.4384
  881MOL0     N16211   6.668   1.524   3.878 -0.5361  1.2236  0.2760
  881MOL0     C16212   5.676   0.995   3.712  0.9923  0.1518 -0.1844
  881MOL0     C16213   5.548   0.957   3.671 -0.0566  0.1744 -0.1747
  881MOL0     C16214   5.096   0.887   3.620  0.3028 -0.2287 -0.1387
  881MOL0     C16215   5.028   0.770   3.616 -0.6730 -0.5468  0.0253
  881MOL0     C16216   4.886   0.770   3.599  0.3724  0.1946 -1.2459
  881MOL0     C16217   4.817   0.890   3.577 -0.9851  0.2206  0.6646
  881MOL0     O16218   4.681   0.880   3.559  0.2826 -0.1432  0.5010
  881MOL0     C16219   4.604   0.986   3.507  0.0636 -0.5086 -0.3395
  881MOL0     C16220   4.467   0.943   3.456 -0.0710 -0.2962  0.1895
  881MOL0     C16221   4.401   1.047   3.375 -0.2920  0.8391 -0.3330
  881MOL0     C16222   4.250   1.019   3.341 -0.6376  0.7183  0.0141
  881MOL0     C16223   4.165   1.003   3.458  0.5106  0.1344  1.1593
  881MOL0     C16224   4.106   0.965   3.555  0.3896  0.4628  0.0750
  881MOL0     C16225   4.897   1.012   3.575  0.2816 -0.0529 -0.6325
  881MOL0     C16226   5.034   1.015   3.595  0.1954  0.4083  0.0278
  881MOL0     H16227   5.374   1.086   3.932 -1.8751 -3.2628 -1.4110
  881MOL0     H16228   5.599   1.134   4.006  5.3808 -2.0688  0.3024
  881MOL0     H16229   5.934   1.104   3.705 -3.4575  0.0254 -1.4485
  881MOL0     H16230   5.915   0.953   3.803 -0.5351 -0.5969 -1.3694
  881MOL0     H16231   6.054   1.073   3.984  1.0267  1.8323 -0.0192
  881MOL0     H16232   6.055   1.205   3.877  1.9648 -0.4562  2.2645
  881MOL0     H16233   6.163   1.017   3.708 -2.8454  1.0387  1.0078
  881MOL0     H16234   6.191   0.935   3.860 -1.4489 -0.8767 -1.0330
  881MOL0     H16235   6.381   1.074   3.783 -1.0031 -2.7050 -0.1532
  881MOL0     H16236   6.280   1.222   3.794 -0.5809  0.4050  0.1380
  881MOL0     H16237   6.376   1.040   4.025 -0.3194 -0.3817 -0.3391
  881MOL0     H16238   6.258   1.158   4.040  0.1028 -2.2816  1.4449
  881MOL0     H16239   6.464   1.271   4.103  1.1566 -1.2712  0.3287
  881MOL0     H16240   6.423   1.324   3.944  0.8914  0.1926  0.5879
  881MOL0     H16241   6.621   1.117   4.025 -0.8146  0.1358 -0.4804
  881MOL0     H16242   6.592   1.130   3.855  1.1174  0.1653 -2.1306
  881MOL0     H16243   6.800   1.253   3.936 -0.8785 -1.7026 -2.4371
  881MOL0     H16244   6.696   1.350   4.042  1.5613 -1.3405  1.4019
  881MOL0     H16245   6.623   1.273   3.665  0.7204  0.1655 -0.0914
  881MOL0     H16246   6.617   1.568   3.477  0.1376  1.9919  2.5523
  881MOL0     H16247   6.456   1.608   3.544 -0.3690 -1.1377 -0.0416
  881MOL0     H16248   6.542   1.320   3.467  0.4192  0.9380  0.6644
  881MOL0     H16249   6.444   1.418   3.347 -0.4036 -1.1428 -0.5037
  881MOL0     H16250   6.319   1.244   3.485 -1.4348 -0.6041  1.5413
  881MOL0     H16251   6.344   1.352   3.617  1.0740 -0.0470  0.4877
  881MOL0     H16252   6.264   1.555   3.468 -0.2430  0.6507 -1.3483
  881MOL0     H16253   6.148   1.449   3.550  1.2299 -0.3449  1.3170
  881MOL0     H16254   5.974   1.326   3.506 -1.4305 -2.7230  1.3235
  881MOL0     H16255   5.872   1.101   3.467 -0.9817  0.5239 -0.5337
  881MOL0     H16256   5.961   0.691   3.361  0.4494 -1.0439 -0.2513
  881MOL0     H16257   5.894   0.454   3.282 -0.0768 -0.2213  2.2365
  881MOL0     H16258   5.768   0.287   3.325  0.7554  1.7114 -0.9517
  881MOL0     H16259   5.717   0.239   3.155 -1.2447 -1.2425 -0.4558
  881MOL0     H16260   5.529   0.202   3.386  1.2670  0.1125  0.0950
  881MOL0     H16261   5.637   0.077   3.326 -0.3792 -1.2084 -1.5502
  881MOL0     H16262   5.438   0.031   3.211 -0.3743  0.4750  0.6739
  881MOL0     H16263   5.511   0.129   3.082  2.1731  1.6543  0.4363
  881MOL0     H16264   5.309   0.196   3.284  2.6565  3.8000  2.8233
  881MOL0     H16265   5.395   0.328   3.213  1.2195 -0.9214  1.2600
  881MOL0     H16266   5.310   0.280   2.987  1.9568 -1.1969  0.8766
  881MOL0     H16267   5.188   0.322   3.103 -1.9524 -0.2867 -0.6165
  881MOL0     H16268   5.142   0.073   3.135  2.3537 -1.4581  0.6854
  881MOL0     H16269   5.277   0.041   3.027  1.8777  1.6453 -0.6949
  881MOL0     H16270   5.035   0.216   2.935 -1.0598 -0.4340 -1.9413
  881MOL0     H16271   5.170   0.148   2.838  0.2110 -0.3838  0.3282
  881MOL0     H16272   4.994  -0.033   3.000 -0.1424  0.7563  0.4565
  881MOL0     H16273   5.108  -0.077   2.876  0.9393 -0.2164  0.7970
  881MOL0     H16274   5.490   0.602   3.238  0.2582  2.2164 -2.8011
  881MOL0     H16275   5.563   0.827   3.283  2.0262  1.5375  2.3553
  881MOL0     H16276   6.056   1.074   3.090 -1.4955 -1.0733 -0.1446
  881MOL0     H16277   6.190   1.290   3.145  1.1449 -0.8533  0.4059
  881MOL0     H16278   5.762   0.965   3.653 -1.1320 -1.6370 -2.5596
  881MOL0     H16279   5.531   0.901   3.580  3.0186 -3.3285  1.1590
  881MOL0     H16280   5.078   0.676   3.637 -0.0353 -0.7525 -2.2041
  881MOL0     H16281   4.829   0.679   3.609  0.1153  0.5125  0.5028
  881MOL0     H16282   4.652   1.033   3.421 -0.4485 -1.5955 -1.2404
  881MOL0     H16283   4.589   1.068   3.578 -2.8309 -0.1043 -1.2481
  881MOL0     H16284   4.477   0.851   3.398  1.2991 -1.3543  2.0101
  881MOL0     H16285   4.398   0.923   3.539  1.0540 -0.7426  1.0447
  881MOL0     H16286   4.444   1.048   3.274 -1.5001  0.2036 -0.8698
  881MOL0     H16287   4.410   1.142   3.427 -1.8973  0.5072  0.5866
  881MOL0     H16288   4.223   1.109   3.285  0.7462  1.5211  0.5964
  881MOL0     H16289   4.247   0.930   3.277  1.2348 -0.2022  1.1355
  881MOL0     H16290   4.063   0.927   3.645 -1.3805 -4.7174 -2.5623
  881MOL0     H16291   4.843   1.106   3.566 -1.6575 -1.0445  0.2155
  881MOL0     H16292   5.082   1.112   3.601  0.3895  0.2441  1.5865
  882MOL0     O16293   0.161   7.760   3.815  0.6780 -0.1696  0.8773
  882MOL0     C16294   0.159   7.877   3.772  0.5197  0.3221  0.0388
  882MOL0     O16295   0.035   7.939   3.727 -0.5206 -0.4591 -0.4444
  882MOL0     C16296  -0.093   7.878   3.711 -0.5503  0.8917 -1.0605
  882MOL0     C16297  -0.122   7.736   3.715 -0.0668  1.4330  0.7551
  882MOL0     C16298  -0.251   7.694   3.696  0.8154  0.3190  0.0912
  882MOL0     C16299  -0.353   7.783   3.660 -0.2376  1.1759  0.2167
  882MOL0     O16300  -0.483   7.739   3.642 -0.1237 -0.0994  0.3830
  882MOL0     C16301  -0.585   7.811   3.714 -0.3062 -0.2757 -0.0243
  882MOL0     C16302  -0.727   7.777   3.663  0.9739 -0.6293  0.3315
  882MOL0     C16303  -0.747   7.627   3.656  0.3041 -0.2810  0.6756
  882MOL0     C16304  -0.885   7.579   3.671  0.5912  0.4588  0.1139
  882MOL0     C16305  -0.963   7.611   3.545 -1.5803 -0.1368  0.0198
  882MOL0     C16306  -1.114   7.627   3.581  0.3230 -0.3464 -0.3577
  882MOL0     C16307  -1.169   7.500   3.639 -0.1989  0.7213  0.3913
  882MOL0     C16308  -1.319   7.525   3.652  0.3672  0.1970 -0.0196
  882MOL0     N16309  -1.392   7.405   3.687 -0.1203  0.6227  0.5296
  882MOL0     C16310  -1.516   7.411   3.751  0.0542 -0.1892  0.3279
  882MOL0     C16311  -1.560   7.286   3.734  0.0847  0.2687 -1.1282
  882MOL0     C16312  -1.677   7.209   3.786  0.9515 -0.2184  0.4158
  882MOL0     C16313  -1.697   7.201   3.944 -0.5395  0.1954 -0.3262
  882MOL0     C16314  -1.737   7.327   4.015 -0.0369 -0.0732  0.0356
  882MOL0     C16315  -1.770   7.298   4.157  0.0825 -1.2027 -0.8955
  882MOL0     O16316  -1.765   7.423   4.234  0.7013  0.1834 -0.0609
  882MOL0     C16317  -1.880   7.496   4.256  0.3641  0.2507 -0.1008
  882MOL0     C16318  -1.987   7.491   4.162 -0.2473  0.1012 -0.4237
  882MOL0     C16319  -2.100   7.574   4.175 -0.3835 -0.0871 -0.6822
  882MOL0     C16320  -2.105   7.663   4.287  0.1270  0.8623  0.2967
  882MOL0     C16321  -2.214   7.760   4.305  0.0502  0.9186  0.4255
  882MOL0     O16322  -2.323   7.740   4.215  0.3216  0.0278  0.0738
  882MOL0     C16323  -2.435   7.812   4.250 -0.2930 -0.2921  0.0982
  882MOL0     C16324  -2.531   7.758   4.328 -0.6821 -0.3617  1.0549
  882MOL0     C16325  -2.652   7.819   4.329  0.5737 -0.5116  0.2300
  882MOL0     C16326  -2.672   7.954   4.279  0.8206  0.7904 -0.0320
  882MOL0     O16327  -2.791   8.016   4.261  0.3613  0.0634  0.3978
  882MOL0     C16328  -2.908   7.932   4.258  0.3771  0.3568 -0.3169
  882MOL0     C16329  -3.031   8.016   4.248 -0.1300  0.3436 -0.4364
  882MOL0     C16330  -3.154   7.926   4.246  0.5520  0.3036  0.2865
  882MOL0     C16331  -3.285   7.970   4.171 -0.2684 -0.0789 -0.2351
  882MOL0     C16332  -3.398   7.861   4.181  0.3348 -0.7102 -0.1856
  882MOL0     C16333  -3.538   7.915   4.129 -0.4607  0.4079 -0.6130
  882MOL0     C16334  -3.657   7.812   4.169  0.6909 -0.9679 -0.3557
  882MOL0     C16335  -3.780   7.860   4.104  0.4844  0.0471  1.0288
  882MOL0    Cl16336  -3.897   7.734   4.164 -0.2465  0.0893 -0.8008
  882MOL0     C16337  -2.567   8.012   4.215 -0.2522  0.8962 -0.0547
  882MOL0     C16338  -2.444   7.942   4.200  0.3109 -0.2187  0.3183
  882MOL0     O16339  -2.205   7.848   4.394 -0.0308  0.3707 -0.4224
  882MOL0     C16340  -1.989   7.663   4.374  0.1520 -0.3049 -0.4169
  882MOL0     C16341  -1.872   7.582   4.358  0.0108  0.2698 -0.0491
  882MOL0     N16342  -1.468   7.207   3.670  0.0111  0.3542 -1.0789
  882MOL0     N16343  -1.380   7.285   3.625 -0.0411 -0.1033 -0.0658
  882MOL0     C16344  -0.325   7.918   3.652 -1.4312 -0.2856 -0.7222
  882MOL0     C16345  -0.195   7.962   3.686 -0.5327  0.3939 -0.4591
  882MOL0     C16346   0.281   7.957   3.769 -0.5201 -0.1624  1.1402
  882MOL0     C16347   0.404   7.917   3.829  0.0246  0.4492 -0.0926
  882MOL0     C16348   0.521   7.994   3.827 -0.8385 -0.8236  0.4354
  882MOL0     C16349   0.523   8.125   3.773  0.1176  0.2399 -0.4868
  882MOL0     O16350   0.626   8.221   3.779 -0.0465 -0.6398  0.0738
  882MOL0     C16351   0.753   8.165   3.812  0.9880 -0.1678  1.3572
  882MOL0     C16352   0.855   8.244   3.738 -0.6492  0.3563 -0.5423
  882MOL0     C16353   0.976   8.269   3.839 -0.6275 -0.0468  0.0063
  882MOL0     C16354   1.068   8.144   3.856  0.3802 -0.0639  0.0105
  882MOL0     C16355   1.180   8.168   3.771  0.2127 -0.0879 -0.3057
  882MOL0     C16356   1.277   8.176   3.703 -0.7212 -0.2282  0.3096
  882MOL0     C16357   0.403   8.166   3.717 -0.6600  0.3497  0.6518
  882MOL0     C16358   0.287   8.086   3.714 -0.3867  0.4408  0.6194
  882MOL0     H16359  -0.038   7.669   3.731  1.3022  2.8397 -0.1915
  882MOL0     H16360  -0.276   7.589   3.687  0.6522  0.1029  2.4715
  882MOL0     H16361  -0.574   7.920   3.703 -4.1516  0.4719  1.6249
  882MOL0     H16362  -0.561   7.784   3.818 -1.3491 -1.5405 -0.0933
  882MOL0     H16363  -0.742   7.806   3.558  1.7270 -0.2837  0.3135
  882MOL0     H16364  -0.808   7.819   3.723  0.4715 -2.7986  1.2545
  882MOL0     H16365  -0.700   7.582   3.744 -0.6578 -1.8988  0.4023
  882MOL0     H16366  -0.706   7.581   3.566  4.2456  1.3688  1.4323
  882MOL0     H16367  -0.878   7.470   3.683  1.6830  0.2472 -1.9571
  882MOL0     H16368  -0.929   7.616   3.764 -2.1161 -0.8190 -0.5697
  882MOL0     H16369  -0.948   7.554   3.453  0.0557  1.5905 -0.8480
  882MOL0     H16370  -0.936   7.713   3.515  0.6386 -1.2663 -2.2142
  882MOL0     H16371  -1.177   7.653   3.495 -0.9297 -0.9279  0.3577
  882MOL0     H16372  -1.125   7.704   3.658 -1.7961 -1.5999  0.6744
  882MOL0     H16373  -1.151   7.427   3.560  4.1269 -0.5979  2.2412
  882MOL0     H16374  -1.123   7.460   3.730 -0.7375 -1.2080 -0.1474
  882MOL0     H16375  -1.358   7.579   3.566 -1.5509  0.1297  0.7489
  882MOL0     H16376  -1.349   7.596   3.730  0.0789  0.8545 -0.7177
  882MOL0     H16377  -1.553   7.496   3.808 -3.7549 -3.4573  3.3596
  882MOL0     H16378  -1.679   7.110   3.739  2.7969 -0.3600  0.5848
  882MOL0     H16379  -1.771   7.249   3.747  1.0202  0.3821  0.8482
  882MOL0     H16380  -1.605   7.161   3.988  0.0290 -1.0279 -2.4943
  882MOL0     H16381  -1.767   7.117   3.957  0.6849 -0.6654  0.9749
  882MOL0     H16382  -1.661   7.405   4.012 -0.4009  0.3054  0.3369
  882MOL0     H16383  -1.823   7.382   3.976  1.1330  2.0685  0.3329
  882MOL0     H16384  -1.695   7.227   4.193 -1.4736 -1.4941  2.1005
  882MOL0     H16385  -1.870   7.256   4.163  0.9240 -3.1324  0.9969
  882MOL0     H16386  -2.000   7.424   4.078 -0.2201  0.7514 -0.9630
  882MOL0     H16387  -2.183   7.574   4.105  0.6924  3.1607 -2.1495
  882MOL0     H16388  -2.517   7.660   4.372 -2.0566 -0.3024  1.6579
  882MOL0     H16389  -2.731   7.769   4.384  0.1527 -2.4285 -1.9608
  882MOL0     H16390  -2.911   7.874   4.351 -2.2206  0.7472 -0.0959
  882MOL0     H16391  -2.895   7.864   4.173  0.7364 -1.9174  1.4448
  882MOL0     H16392  -3.035   8.076   4.157  1.5127  0.7464 -0.2795
  882MOL0     H16393  -3.044   8.080   4.335  0.3507 -0.9662  0.6405
  882MOL0     H16394  -3.188   7.907   4.349 -0.1968  0.3213  0.0510
  882MOL0     H16395  -3.121   7.831   4.204  1.6369  1.2226 -0.9734
  882MOL0     H16396  -3.320   8.063   4.218  1.4027 -0.0526  1.0513
  882MOL0     H16397  -3.278   7.994   4.065 -3.3353  2.7099  0.0183
  882MOL0     H16398  -3.419   7.830   4.284 -3.7808 -1.5475 -1.0958
  882MOL0     H16399  -3.377   7.761   4.143  0.7197 -0.8057  0.2693
  882MOL0     H16400  -3.513   7.920   4.022 -1.0371 -2.2004 -0.9350
  882MOL0     H16401  -3.552   8.015   4.170 -2.0327  0.1492 -0.4636
  882MOL0     H16402  -3.634   7.709   4.143  1.7919 -0.6615 -0.6363
  882MOL0     H16403  -3.673   7.806   4.277  5.1478  0.6958  0.6252
  882MOL0     H16404  -3.769   7.853   3.995 -1.8262  2.2985  0.5464
  882MOL0     H16405  -3.809   7.963   4.125  0.0446 -0.2006  1.6700
  882MOL0     H16406  -2.573   8.103   4.156  1.0895  0.7747 -0.4124
  882MOL0     H16407  -2.353   7.985   4.158  0.4213  1.0266  1.7408
  882MOL0     H16408  -1.996   7.736   4.454  2.9475  1.3749 -1.5713
  882MOL0     H16409  -1.789   7.598   4.427 -0.0448  3.0591 -0.4818
  882MOL0     H16410  -0.395   7.992   3.616 -0.1370  0.0871 -2.6420
  882MOL0     H16411  -0.173   8.068   3.676 -0.4419  1.0596  4.4216
  882MOL0     H16412   0.400   7.821   3.880 -0.0533  0.2826 -0.4142
  882MOL0     H16413   0.610   7.961   3.878 -0.8779 -1.2517  0.2333
  882MOL0     H16414   0.756   8.061   3.779  3.3068  0.9898 -2.8107
  882MOL0     H16415   0.762   8.178   3.921 -2.5888 -1.6096  1.9631
  882MOL0     H16416   0.889   8.199   3.645  1.6196  1.3298 -0.2344
  882MOL0     H16417   0.808   8.340   3.716 -0.7044  0.3980 -0.2458
  882MOL0     H16418   0.943   8.303   3.938  2.2107 -0.4539  1.1933
  882MOL0     H16419   1.031   8.356   3.801 -0.1134  0.9725  2.8307
  882MOL0     H16420   1.100   8.116   3.956 -0.8392 -1.0878  0.1494
  882MOL0     H16421   1.001   8.060   3.835 -0.4639  0.5982 -0.0057
  882MOL0     H16422   1.374   8.182   3.659 -1.1746  2.2290 -0.5166
  882MOL0     H16423   0.402   8.268   3.681 -0.0798 -0.2089 -1.0327
  882MOL0     H16424   0.198   8.135   3.676 -0.5812 -1.5143 -1.6530
  883MOL0     O16425  10.053   9.804   7.656 -0.0888 -0.5695 -0.2029
  883MOL0     C16426  10.136   9.785   7.566  0.2488 -0.3426 -0.1495
  883MOL0     O16427  10.107   9.754   7.438  0.8868 -0.7793  0.1926
  883MOL0     C16428   9.973   9.724   7.410  0.8587  0.2412  0.0684
  883MOL0     C16429   9.935   9.754   7.272 -0.0206 -0.4288  0.1835
  883MOL0     C16430   9.800   9.728   7.227  0.4932 -0.1384 -0.3681
  883MOL0     C16431   9.713   9.659   7.318  1.2020  0.0634 -0.7829
  883MOL0     O16432   9.579   9.661   7.281 -0.5155 -0.4427 -0.1235
  883MOL0     C16433   9.496   9.546   7.337 -1.0285 -0.0019  0.0814
  883MOL0     C16434   9.367   9.555   7.264  0.5497  0.1569  1.1572
  883MOL0     C16435   9.275   9.441   7.295 -0.0877 -0.0816  0.3684
  883MOL0     C16436   9.138   9.445   7.219 -0.5988 -0.6188  0.4681
  883MOL0     C16437   9.062   9.314   7.218  0.2625  0.0386 -0.2810
  883MOL0     C16438   8.908   9.308   7.191  1.1304 -0.7249  0.6598
  883MOL0     C16439   8.873   9.376   7.060 -0.3758 -0.5810 -0.6008
  883MOL0     C16440   8.858   9.526   7.053  0.4767 -0.4167  0.2297
  883MOL0     N16441   8.721   9.573   7.060 -0.3260 -0.5828 -0.9470
  883MOL0     C16442   8.651   9.588   7.177 -0.5439 -0.5177 -0.5450
  883MOL0     C16443   8.523   9.620   7.146  0.0837 -0.0949 -0.6941
  883MOL0     C16444   8.414   9.632   7.255  0.6737  0.6363 -0.2392
  883MOL0     C16445   8.406   9.507   7.350 -0.0726 -0.7940 -0.0564
  883MOL0     C16446   8.406   9.362   7.297  0.1717 -1.2506 -0.5039
  883MOL0     C16447   8.352   9.264   7.403 -0.5172  0.2334 -0.5792
  883MOL0     O16448   8.232   9.294   7.477  0.1209  0.1668  0.2482
  883MOL0     C16449   8.114   9.265   7.410  0.3907 -0.0639  0.4773
  883MOL0     C16450   8.082   9.189   7.287  0.2113  0.3155  1.2150
  883MOL0     C16451   7.945   9.169   7.251 -0.1106 -0.3273 -0.2452
  883MOL0     C16452   7.842   9.220   7.331 -0.1829  0.2190 -0.4318
  883MOL0     C16453   7.698   9.189   7.292 -0.8655 -0.6330 -0.2752
  883MOL0     O16454   7.600   9.236   7.374 -0.3261 -0.4211  0.2734
  883MOL0     C16455   7.473   9.212   7.336  0.1200 -0.1844  0.1691
  883MOL0     C16456   7.416   9.306   7.243 -0.3699 -0.2601  0.5910
  883MOL0     C16457   7.289   9.292   7.191 -0.2786 -0.1310  0.5417
  883MOL0     C16458   7.211   9.176   7.227 -0.3452 -0.4700 -0.3350
  883MOL0     O16459   7.100   9.143   7.160  0.8124 -0.4081  0.7045
  883MOL0     C16460   6.994   9.231   7.198 -0.2073  0.2148  0.5431
  883MOL0     C16461   6.861   9.197   7.133 -0.2849 -0.1484  0.3555
  883MOL0     C16462   6.758   9.303   7.151  0.0212 -0.1104  0.3227
  883MOL0     C16463   6.627   9.275   7.075 -0.2767  0.1289 -0.0278
  883MOL0     C16464   6.521   9.378   7.117 -0.3361  0.2422  0.1146
  883MOL0     C16465   6.390   9.345   7.048 -0.2194  1.1475  0.5942
  883MOL0     C16466   6.277   9.439   7.096 -1.2129 -0.5985 -0.1043
  883MOL0     C16467   6.138   9.382   7.081  0.0633  0.3969 -0.0940
  883MOL0    Cl16468   6.017   9.499   7.139  0.6942  0.0773 -0.0441
  883MOL0     C16469   7.255   9.093   7.330  0.8529  0.0305  0.4450
  883MOL0     C16470   7.382   9.110   7.385 -0.5572  0.0628  0.5492
  883MOL0     O16471   7.674   9.106   7.205 -0.1715  0.1162 -0.7977
  883MOL0     C16472   7.879   9.291   7.442  0.2518  1.1468  0.1611
  883MOL0     C16473   8.010   9.306   7.482 -0.5201 -0.6396  0.4367
  883MOL0     N16474   8.509   9.622   7.004  0.5595 -0.1828  0.7018
  883MOL0     N16475   8.632   9.603   6.964  0.5621  0.1649  0.5558
  883MOL0     C16476   9.751   9.617   7.444 -0.7307 -0.4923 -0.7684
  883MOL0     C16477   9.882   9.644   7.486  1.0122  0.4436 -0.1281
  883MOL0     C16478  10.280   9.811   7.603  0.9218  0.0771  0.4004
  883MOL0     C16479  10.310   9.871   7.727 -0.1613 -0.2201  0.0423
  883MOL0     C16480  10.446   9.902   7.760 -0.5270  0.2939  0.3872
  883MOL0     C16481  10.552   9.864   7.672  0.2454  0.0633  0.2315
  883MOL0     O16482  10.684   9.886   7.708  0.8798 -0.1234  0.3916
  883MOL0     C16483  10.734  10.016   7.679 -0.3461 -0.4751 -0.2071
  883MOL0     C16484  10.887  10.018   7.699  0.3802 -0.3630 -0.3259
  883MOL0     C16485  10.942  10.164   7.684 -0.3692  0.0446  0.6704
  883MOL0     C16486  11.095  10.168   7.682 -0.2644  0.1011 -0.3402
  883MOL0     C16487  11.166  10.163   7.811  0.5293 -0.7032  0.1423
  883MOL0     C16488  11.222  10.155   7.911  0.4125 -0.4644 -0.0829
  883MOL0     C16489  10.515   9.793   7.557 -0.4833  0.0560 -1.1305
  883MOL0     C16490  10.386   9.766   7.523  0.3019  0.0001 -0.1871
  883MOL0     H16491  10.011   9.813   7.222 -3.1703  1.0294 -3.2393
  883MOL0     H16492   9.751   9.761   7.136 -1.9186 -2.6781 -0.1228
  883MOL0     H16493   9.473   9.570   7.441 -1.7480  2.5448 -0.5942
  883MOL0     H16494   9.541   9.448   7.317 -0.3843  0.8412 -3.1908
  883MOL0     H16495   9.393   9.568   7.159 -4.3360 -0.5763 -0.3677
  883MOL0     H16496   9.317   9.651   7.274 -1.4821 -0.6988 -0.2482
  883MOL0     H16497   9.251   9.440   7.402  0.8712  0.9001  0.6092
  883MOL0     H16498   9.317   9.342   7.271  0.0916  0.5200 -2.1069
  883MOL0     H16499   9.072   9.518   7.268 -0.2679  0.3149 -0.4477
  883MOL0     H16500   9.149   9.484   7.117 -1.7712 -1.0030  0.1832
  883MOL0     H16501   9.083   9.258   7.310  2.2503  1.5660  0.2851
  883MOL0     H16502   9.113   9.261   7.137  1.3583  0.9390 -0.2007
  883MOL0     H16503   8.863   9.358   7.277  1.1261 -2.1146  1.4977
  883MOL0     H16504   8.865   9.208   7.181 -0.2911  0.0977 -2.6115
  883MOL0     H16505   8.945   9.335   6.989  1.2515 -2.8064  2.1566
  883MOL0     H16506   8.778   9.337   7.021 -0.4884  0.6098 -1.5904
  883MOL0     H16507   8.897   9.548   6.953  1.6568 -1.5420  0.4305
  883MOL0     H16508   8.913   9.571   7.136 -1.9364 -0.9416  2.2372
  883MOL0     H16509   8.694   9.572   7.275 -0.2806  2.4521 -0.0900
  883MOL0     H16510   8.318   9.650   7.205  0.6662 -0.9997 -0.8564
  883MOL0     H16511   8.436   9.722   7.314 -0.0175 -0.0968  1.1915
  883MOL0     H16512   8.319   9.523   7.414  0.9772 -0.2404  1.2793
  883MOL0     H16513   8.480   9.520   7.429 -0.1482 -4.0180  0.6898
  883MOL0     H16514   8.344   9.356   7.207  0.8119 -0.5397 -1.0071
  883MOL0     H16515   8.507   9.333   7.266  1.3755  2.5112 -0.5718
  883MOL0     H16516   8.432   9.264   7.477 -0.5382  2.2849 -0.5156
  883MOL0     H16517   8.343   9.162   7.364  0.2388  0.7199 -2.1398
  883MOL0     H16518   8.163   9.157   7.223 -1.7207  1.2639 -1.9640
  883MOL0     H16519   7.919   9.114   7.161  3.0220 -1.8337 -0.3856
  883MOL0     H16520   7.482   9.385   7.209 -0.7002  0.1250  0.8398
  883MOL0     H16521   7.241   9.351   7.113 -0.0788  1.5205  1.6165
  883MOL0     H16522   7.016   9.333   7.166  1.5121 -0.5248 -0.7458
  883MOL0     H16523   6.971   9.229   7.305 -1.2215 -2.5894  0.3425
  883MOL0     H16524   6.822   9.109   7.187 -1.6438  1.6154  2.4245
  883MOL0     H16525   6.880   9.184   7.026  1.3077  0.7608  0.4937
  883MOL0     H16526   6.787   9.406   7.128 -1.5045  0.4383  0.7243
  883MOL0     H16527   6.742   9.304   7.260  5.1188 -1.2989  1.3388
  883MOL0     H16528   6.640   9.285   6.966 -0.6408  0.5790 -0.0308
  883MOL0     H16529   6.598   9.171   7.094 -0.3769  0.6699  3.3122
  883MOL0     H16530   6.554   9.479   7.092  0.4351  0.5495  2.2116
  883MOL0     H16531   6.503   9.387   7.224 -1.5151 -1.2682  0.0927
  883MOL0     H16532   6.353   9.244   7.068 -0.7152  1.1078 -0.4409
  883MOL0     H16533   6.406   9.360   6.941  1.1293 -1.6476  0.3047
  883MOL0     H16534   6.289   9.463   7.202 -2.7746  1.5023 -0.3457
  883MOL0     H16535   6.287   9.531   7.038 -3.2864 -0.2763 -0.0101
  883MOL0     H16536   6.121   9.296   7.147 -1.3471 -0.1383 -1.0865
  883MOL0     H16537   6.113   9.354   6.979 -1.3347  1.3233 -0.0364
  883MOL0     H16538   7.197   9.014   7.376  2.9141 -1.0917  1.2451
  883MOL0     H16539   7.418   9.039   7.459 -1.3976 -1.9146 -0.8748
  883MOL0     H16540   7.791   9.325   7.496 -0.4674  2.0062 -1.4837
  883MOL0     H16541   8.030   9.368   7.569  1.5238 -3.0461  1.7837
  883MOL0     H16542   9.685   9.563   7.511  0.5372  0.6076  1.4700
  883MOL0     H16543   9.908   9.599   7.581 -0.7434 -4.1307 -1.5448
  883MOL0     H16544  10.234   9.908   7.795 -0.9848  0.3863 -1.1610
  883MOL0     H16545  10.455   9.954   7.855  0.1603 -1.5286  1.3667
  883MOL0     H16546  10.700  10.104   7.734 -0.5816 -1.4129  1.2343
  883MOL0     H16547  10.712  10.036   7.574 -0.8509 -1.1742 -0.2439
  883MOL0     H16548  10.916   9.983   7.798  1.6221 -0.1274 -0.5776
  883MOL0     H16549  10.932   9.967   7.613 -0.1304 -0.2254 -0.6793
  883MOL0     H16550  10.906  10.228   7.766 -3.8913  0.2529 -0.8455
  883MOL0     H16551  10.897  10.200   7.591  2.0909 -3.9189 -2.3640
  883MOL0     H16552  11.131  10.087   7.617 -0.5474 -0.2532 -0.0597
  883MOL0     H16553  11.133  10.262   7.642 -0.9974  2.3461  3.6908
  883MOL0     H16554  11.274  10.172   8.003  0.2851 -0.5680  0.0087
  883MOL0     H16555  10.588   9.770   7.481  0.2022 -0.7297 -0.2685
  883MOL0     H16556  10.357   9.722   7.428  0.4228  1.1259 -0.7607
  884MOL0     O16557   3.959   9.194   6.525  0.2895 -0.3163  0.3163
  884MOL0     C16558   4.000   9.263   6.616  0.2438  0.4698 -0.4309
  884MOL0     O16559   3.923   9.316   6.721  0.1662 -0.5675 -0.8543
  884MOL0     C16560   3.788   9.306   6.732 -0.2077 -0.1029  1.0138
  884MOL0     C16561   3.750   9.298   6.865 -0.1487 -0.6895  0.0037
  884MOL0     C16562   3.616   9.289   6.896 -0.6012 -0.2532  0.5486
  884MOL0     C16563   3.523   9.264   6.794 -0.0781 -0.0662 -0.0356
  884MOL0     O16564   3.392   9.272   6.850  0.0337  0.3382 -0.1251
  884MOL0     C16565   3.280   9.274   6.768  0.9540  0.3377 -0.2519
  884MOL0     C16566   3.162   9.273   6.856 -0.6141 -0.9419 -0.3284
  884MOL0     C16567   3.045   9.327   6.783  0.1341  0.1834  1.4029
  884MOL0     C16568   2.921   9.332   6.867  0.8604 -0.4378 -0.4738
  884MOL0     C16569   2.804   9.379   6.789  0.4404  0.1419  0.4146
  884MOL0     C16570   2.734   9.259   6.719  0.0442 -0.6656  0.6095
  884MOL0     C16571   2.582   9.285   6.722  0.1301 -0.5352  0.5585
  884MOL0     C16572   2.525   9.281   6.864  0.4629 -0.4190  0.8615
  884MOL0     N16573   2.380   9.307   6.860 -0.0161 -0.0668 -0.0535
  884MOL0     C16574   2.351   9.438   6.831  0.2582  0.4387 -0.1618
  884MOL0     C16575   2.215   9.443   6.821  0.1980  0.3147 -0.2234
  884MOL0     C16576   2.125   9.553   6.791 -0.9208 -0.2426  0.1610
  884MOL0     C16577   2.187   9.690   6.817  0.2891 -0.0682  0.8090
  884MOL0     C16578   2.100   9.791   6.737 -0.0523  0.6196 -0.1366
  884MOL0     C16579   2.120   9.942   6.779  0.1151 -0.0045 -0.8701
  884MOL0     O16580   2.033  10.018   6.706 -0.6064  0.0861  0.6654
  884MOL0     C16581   1.897  10.021   6.740  0.6794 -0.4964  0.2174
  884MOL0     C16582   1.845  10.044   6.874  0.7455 -0.2130  0.1196
  884MOL0     C16583   1.711  10.052   6.904  0.2919 -0.2965  0.9718
  884MOL0     C16584   1.614  10.045   6.800 -0.2144  0.3228  0.5198
  884MOL0     C16585   1.479  10.084   6.819  0.5140  0.7759  0.0716
  884MOL0     O16586   1.394  10.098   6.704 -0.4646  0.2274  0.0167
  884MOL0     C16587   1.259  10.105   6.710 -0.1040  0.4878  0.1843
  884MOL0     C16588   1.202  10.088   6.581  0.2651  0.4928 -0.8288
  884MOL0     C16589   1.071  10.097   6.553 -0.1486 -0.1795  0.4508
  884MOL0     C16590   0.988  10.136   6.655  0.0454 -0.1522 -0.7611
  884MOL0     O16591   0.855  10.167   6.633 -0.4551 -0.2162  0.0032
  884MOL0     C16592   0.781  10.104   6.527 -0.6466 -0.0574  0.5678
  884MOL0     C16593   0.633  10.143   6.534 -0.1697 -0.0911  0.3788
  884MOL0     C16594   0.535  10.062   6.443  0.2552  0.4547  0.4647
  884MOL0     C16595   0.395  10.033   6.514  0.6846 -0.3025 -0.0301
  884MOL0     C16596   0.288  10.143   6.522 -0.2430 -0.7773  0.1333
  884MOL0     C16597   0.218  10.183   6.383  0.7041 -0.1720 -0.3762
  884MOL0     C16598   0.197  10.068   6.287 -0.3667  0.1701  0.5239
  884MOL0     C16599   0.127  10.119   6.157 -0.2514 -0.5036 -0.6128
  884MOL0    Cl16600   0.224  10.250   6.083  0.0018  0.0985  0.1637
  884MOL0     C16601   1.037  10.147   6.783 -0.1282 -0.0229  1.0358
  884MOL0     C16602   1.172  10.129   6.815 -0.7731  0.2507  0.1531
  884MOL0     O16603   1.436  10.096   6.934 -0.0231  0.0449 -0.4872
  884MOL0     C16604   1.660  10.013   6.671  0.0521  1.0114  0.1396
  884MOL0     C16605   1.798   9.999   6.645 -0.4083 -0.0613 -0.2795
  884MOL0     N16606   2.175   9.313   6.852  0.3163  0.0758 -0.5268
  884MOL0     N16607   2.269   9.225   6.869 -0.7096  0.8355  0.6349
  884MOL0     C16608   3.562   9.270   6.662  0.9655 -0.5196 -0.5580
  884MOL0     C16609   3.696   9.296   6.628  0.0121  1.7456 -0.4454
  884MOL0     C16610   4.144   9.283   6.631  0.8267  0.7982  0.0317
  884MOL0     C16611   4.228   9.191   6.571 -0.2898  0.9648 -0.4385
  884MOL0     C16612   4.365   9.208   6.601 -0.5050 -1.4136 -0.5826
  884MOL0     C16613   4.410   9.314   6.684  0.0304 -0.4850  0.0453
  884MOL0     O16614   4.537   9.327   6.706 -0.1131 -0.2131  0.9072
  884MOL0     C16615   4.608   9.430   6.639 -0.0400 -0.3855 -0.0838
  884MOL0     C16616   4.619   9.432   6.483  0.7806 -0.5030 -0.2242
  884MOL0     C16617   4.664   9.297   6.426  0.1460 -0.0453 -0.2041
  884MOL0     C16618   4.745   9.316   6.292 -0.0142  1.0629 -0.4231
  884MOL0     C16619   4.658   9.373   6.185 -0.7866  0.1941  0.5515
  884MOL0     C16620   4.591   9.414   6.090  0.0930  0.2376 -0.3180
  884MOL0     C16621   4.321   9.403   6.738  0.1622 -0.4058  0.6870
  884MOL0     C16622   4.187   9.385   6.713  0.4201  0.7560 -0.0691
  884MOL0     H16623   3.830   9.323   6.934 -1.3974  1.7343  0.6895
  884MOL0     H16624   3.580   9.295   6.998 -2.2222  2.8349 -0.0674
  884MOL0     H16625   3.280   9.189   6.700 -0.4846  0.0361  0.0758
  884MOL0     H16626   3.286   9.374   6.724  0.0538  1.2163  1.4647
  884MOL0     H16627   3.186   9.329   6.947  2.0432 -0.2445 -1.3479
  884MOL0     H16628   3.141   9.168   6.878 -0.4561 -0.9257 -0.1033
  884MOL0     H16629   3.023   9.272   6.691 -0.3769  0.0285  1.6137
  884MOL0     H16630   3.066   9.431   6.756 -2.0976  0.3614  0.0648
  884MOL0     H16631   2.893   9.241   6.922  4.3733 -0.1990  2.0695
  884MOL0     H16632   2.928   9.411   6.943  1.2021 -0.0645 -0.8914
  884MOL0     H16633   2.828   9.456   6.715 -0.1792 -0.0149  0.0436
  884MOL0     H16634   2.740   9.429   6.862 -0.6029  1.0275 -1.0491
  884MOL0     H16635   2.751   9.160   6.762  0.4620  0.4029  3.0495
  884MOL0     H16636   2.771   9.251   6.616 -0.3422  0.7351  0.3372
  884MOL0     H16637   2.572   9.387   6.684  0.9765 -0.7505 -0.2833
  884MOL0     H16638   2.534   9.220   6.648 -0.6870  3.4007 -2.7240
  884MOL0     H16639   2.566   9.345   6.943 -4.0609  4.0485  0.1272
  884MOL0     H16640   2.538   9.176   6.892 -0.2007 -0.8978 -0.5132
  884MOL0     H16641   2.415   9.526   6.824 -3.1415  3.1315 -0.4354
  884MOL0     H16642   2.039   9.547   6.858 -0.7031  1.4516  0.6448
  884MOL0     H16643   2.099   9.548   6.685  1.5931  0.1420 -0.5309
  884MOL0     H16644   2.291   9.696   6.783  0.7546 -0.3010  2.1293
  884MOL0     H16645   2.181   9.704   6.926 -0.5321 -1.6899  0.9886
  884MOL0     H16646   2.119   9.779   6.630  1.1749 -0.0959  0.1299
  884MOL0     H16647   1.995   9.764   6.751  0.4840 -1.2055  0.6707
  884MOL0     H16648   2.225   9.960   6.756  0.6896  0.3846  1.7932
  884MOL0     H16649   2.101   9.950   6.886  1.6253  0.6871 -0.6333
  884MOL0     H16650   1.916  10.040   6.956  0.6108  1.6571  0.3878
  884MOL0     H16651   1.671  10.062   7.004  0.7974  1.6268  1.0313
  884MOL0     H16652   1.271  10.057   6.503 -0.6724 -0.2406 -1.3824
  884MOL0     H16653   1.039  10.074   6.452  2.1813 -1.7033 -0.0022
  884MOL0     H16654   0.792   9.996   6.540 -0.2752 -0.1470 -0.4145
  884MOL0     H16655   0.808  10.136   6.426  0.5203  0.8956  1.1479
  884MOL0     H16656   0.625  10.247   6.502 -0.9054 -0.4308 -0.5746
  884MOL0     H16657   0.608  10.128   6.639 -0.5147 -0.5417  0.2372
  884MOL0     H16658   0.574   9.964   6.414  1.4460  0.3075  2.3613
  884MOL0     H16659   0.515  10.106   6.345 -2.5597 -2.9454 -0.6773
  884MOL0     H16660   0.360   9.937   6.475 -2.0178  0.4806  0.2609
  884MOL0     H16661   0.426  10.010   6.616 -0.7830 -2.6747 -0.0562
  884MOL0     H16662   0.331  10.226   6.578 -2.5471 -1.3903  3.0806
  884MOL0     H16663   0.207  10.108   6.587  0.8270 -0.1659  1.8546
  884MOL0     H16664   0.283  10.260   6.340  0.9855  0.3840  1.0021
  884MOL0     H16665   0.118  10.215   6.413  0.8375  1.1863 -1.2931
  884MOL0     H16666   0.294  10.023   6.266 -0.0194  0.7832  0.7563
  884MOL0     H16667   0.135   9.996   6.341  3.7280 -2.5490  2.1149
  884MOL0     H16668   0.029  10.165   6.175 -0.1012 -1.0845  2.1682
  884MOL0     H16669   0.103  10.036   6.090  0.1579 -3.0426  2.1342
  884MOL0     H16670   0.971  10.191   6.857  2.9088  0.7233  3.5086
  884MOL0     H16671   1.208  10.149   6.915  0.7559  5.4879 -1.0982
  884MOL0     H16672   1.593  10.002   6.587 -1.1897  3.3045  0.7515
  884MOL0     H16673   1.841   9.987   6.546  0.2467  0.9040 -0.1262
  884MOL0     H16674   3.478   9.262   6.593  0.1417 -0.2442  0.3806
  884MOL0     H16675   3.729   9.300   6.525  2.0156 -0.4649  0.0075
  884MOL0     H16676   4.201   9.110   6.505  0.9232 -0.3763  0.6390
  884MOL0     H16677   4.438   9.132   6.575 -0.4085 -1.6946  0.4483
  884MOL0     H16678   4.705   9.425   6.687 -1.2147 -0.0346  2.4782
  884MOL0     H16679   4.557   9.524   6.666 -0.2747 -0.8365  1.0918
  884MOL0     H16680   4.516   9.454   6.454 -0.0522  0.7020  3.1554
  884MOL0     H16681   4.679   9.515   6.444 -2.3783  1.5348 -1.0822
  884MOL0     H16682   4.573   9.239   6.412 -0.4988  0.5261  1.3935
  884MOL0     H16683   4.730   9.250   6.500  1.4321  3.1374  0.8426
  884MOL0     H16684   4.826   9.386   6.317  0.4077  0.2746  0.4728
  884MOL0     H16685   4.791   9.228   6.249 -1.7823  1.3565 -3.1769
  884MOL0     H16686   4.534   9.451   6.007  1.1486 -1.1275 -1.7005
  884MOL0     H16687   4.352   9.484   6.803 -1.0398  1.5780 -1.0783
  884MOL0     H16688   4.120   9.460   6.753 -2.2403 -1.4889 -0.0349
  885MOL0     O16689   9.518   0.353   7.267 -0.9731  0.5806 -0.4711
  885MOL0     C16690   9.630   0.333   7.227 -0.1266 -0.4545  0.3367
  885MOL0     O16691   9.684   0.216   7.178  0.5178 -0.0251  0.2081
  885MOL0     C16692   9.625   0.091   7.182  0.5142  0.3750  0.0317
  885MOL0     C16693   9.488   0.062   7.221 -0.4272  0.2349 -1.3202
  885MOL0     C16694   9.449  -0.070   7.250  0.2610 -0.4557 -0.0749
  885MOL0     C16695   9.538  -0.176   7.234 -0.1302  0.5910  0.7967
  885MOL0     O16696   9.504  -0.304   7.266  0.2932  0.5323 -0.2176
  885MOL0     C16697   9.527  -0.407   7.171 -0.2377 -0.8132 -0.4571
  885MOL0     C16698   9.470  -0.535   7.242  1.2762 -0.8125  0.3410
  885MOL0     C16699   9.322  -0.514   7.272 -1.0444 -0.1703  0.6174
  885MOL0     C16700   9.264  -0.627   7.361  0.6006  0.1820 -0.5264
  885MOL0     C16701   9.119  -0.615   7.408  0.0440 -0.4712 -0.7966
  885MOL0     C16702   9.011  -0.634   7.303 -0.8828 -0.4083  0.8500
  885MOL0     C16703   8.869  -0.636   7.375 -0.7424 -0.7392  0.8924
  885MOL0     C16704   8.847  -0.760   7.447 -0.9145  0.2443 -0.0121
  885MOL0     N16705   8.706  -0.778   7.482  0.0621 -0.3133  0.2100
  885MOL0     C16706   8.624  -0.699   7.559 -0.6871  0.5358 -0.6621
  885MOL0     C16707   8.504  -0.764   7.565  0.0247 -0.4837  0.8989
  885MOL0     C16708   8.389  -0.719   7.639 -0.7186 -1.0149  0.4423
  885MOL0     C16709   8.378  -0.810   7.761 -0.5826  0.5532 -0.0121
  885MOL0     C16710   8.255  -0.775   7.841  0.3030  0.2336 -0.3787
  885MOL0     C16711   8.262  -0.842   7.980 -0.2108  0.2035 -0.9800
  885MOL0     O16712   8.248  -0.988   7.971  0.6488  0.2556 -0.5485
  885MOL0     C16713   8.122  -1.045   7.969 -0.8326 -0.1627 -0.0760
  885MOL0     C16714   8.114  -1.184   7.971  0.1964 -0.5596 -0.5483
  885MOL0     C16715   7.988  -1.250   7.968 -0.3193 -0.0444  0.0487
  885MOL0     C16716   7.872  -1.178   7.959 -0.1701  0.3884 -0.9129
  885MOL0     C16717   7.740  -1.252   7.946  0.4699  0.4569 -0.6336
  885MOL0     O16718   7.626  -1.178   7.943 -0.0033  0.0532 -0.5553
  885MOL0     C16719   7.502  -1.238   7.929  0.1413  0.5151 -0.3617
  885MOL0     C16720   7.430  -1.248   7.807  0.1148 -0.3518 -0.9841
  885MOL0     C16721   7.305  -1.314   7.799 -0.6767  0.2706 -0.7047
  885MOL0     C16722   7.245  -1.363   7.919  0.2703 -0.3843  0.1622
  885MOL0     O16723   7.118  -1.410   7.916 -0.6835 -0.4943  1.0777
  885MOL0     C16724   7.028  -1.364   7.806  0.1417  0.1503 -0.0927
  885MOL0     C16725   6.881  -1.376   7.849 -1.0885  0.5521 -0.2252
  885MOL0     C16726   6.787  -1.327   7.738 -0.1385 -0.6460 -0.8227
  885MOL0     C16727   6.642  -1.356   7.780 -0.2704 -0.6727  0.9410
  885MOL0     C16728   6.551  -1.317   7.664  1.0196 -0.5934 -0.7918
  885MOL0     C16729   6.400  -1.332   7.688  0.1793 -0.7582 -0.1338
  885MOL0     C16730   6.322  -1.300   7.553 -0.9452 -0.1181 -0.3453
  885MOL0     C16731   6.347  -1.155   7.496  0.0921 -0.3446  0.7733
  885MOL0    Cl16732   6.361  -1.033   7.623  0.0566 -0.2478 -0.2517
  885MOL0     C16733   7.318  -1.352   8.036  0.3912 -0.0093  0.6061
  885MOL0     C16734   7.437  -1.288   8.047  0.2053 -0.6824  0.7698
  885MOL0     O16735   7.752  -1.373   7.930  0.2214  0.5663  0.2576
  885MOL0     C16736   7.886  -1.035   7.955  0.1229  0.4281  0.9895
  885MOL0     C16737   8.007  -0.971   7.959  0.1206 -0.8370 -0.4191
  885MOL0     N16738   8.519  -0.880   7.493 -0.3347 -0.6893  1.0879
  885MOL0     N16739   8.631  -0.885   7.436  0.7206 -0.5680 -0.4515
  885MOL0     C16740   9.670  -0.152   7.204 -0.4407  0.4824  0.4872
  885MOL0     C16741   9.711  -0.017   7.173 -0.2430 -0.0259  0.0861
  885MOL0     C16742   9.713   0.446   7.223  0.4181  1.0991 -0.4499
  885MOL0     C16743   9.819   0.465   7.138 -0.0962 -0.2543  0.1510
  885MOL0     C16744   9.900   0.579   7.144 -0.0171  0.5784 -0.1011
  885MOL0     C16745   9.882   0.678   7.239 -0.8658  0.3924 -0.2534
  885MOL0     O16746   9.967   0.778   7.223  1.1880  0.2898  0.1697
  885MOL0     C16747   9.979   0.881   7.320 -0.2542  0.5287 -0.4657
  885MOL0     C16748  10.104   0.862   7.413  0.2632  0.0102 -0.2060
  885MOL0     C16749  10.110   0.983   7.508  0.2626 -0.3607 -0.2111
  885MOL0     C16750  10.206   0.966   7.619 -0.4576  0.7575 -0.1333
  885MOL0     C16751  10.331   1.034   7.582 -0.2368  1.0213 -0.0055
  885MOL0     C16752  10.442   1.092   7.556  0.4546  0.0513 -0.4579
  885MOL0     C16753   9.781   0.657   7.332 -0.9005 -0.5584  0.3857
  885MOL0     C16754   9.700   0.544   7.325  0.6278 -0.2315  0.2553
  885MOL0     H16755   9.417   0.139   7.250 -0.5973  0.2254 -1.7194
  885MOL0     H16756   9.349  -0.089   7.287 -0.0820 -1.4393 -1.4439
  885MOL0     H16757   9.634  -0.429   7.166 -0.0709 -0.1528  0.0870
  885MOL0     H16758   9.483  -0.392   7.072  3.1309  2.1677 -1.7186
  885MOL0     H16759   9.524  -0.556   7.335  0.2682  0.8015  1.3333
  885MOL0     H16760   9.487  -0.628   7.187  2.1526 -1.9472  2.4206
  885MOL0     H16761   9.279  -0.507   7.172  1.0712  1.9355 -0.2436
  885MOL0     H16762   9.309  -0.416   7.318  2.7402  0.1872  1.2612
  885MOL0     H16763   9.271  -0.726   7.317  0.0571  0.0742 -0.3826
  885MOL0     H16764   9.325  -0.623   7.452  0.7144  0.5451 -0.6152
  885MOL0     H16765   9.122  -0.516   7.454 -1.1726  0.2411 -2.1541
  885MOL0     H16766   9.091  -0.697   7.475 -1.9426  0.0698 -0.8968
  885MOL0     H16767   9.025  -0.728   7.248 -2.5143 -0.3813  0.3535
  885MOL0     H16768   9.031  -0.554   7.231  0.4217 -0.4046  1.1924
  885MOL0     H16769   8.844  -0.552   7.441 -0.7877 -1.4339  1.7801
  885MOL0     H16770   8.797  -0.622   7.294 -0.7522 -1.4558  0.7787
  885MOL0     H16771   8.897  -0.761   7.545 -1.4112 -0.2862  0.2399
  885MOL0     H16772   8.873  -0.846   7.385 -1.4675  0.7018 -0.9074
  885MOL0     H16773   8.665  -0.602   7.587  4.9873 -2.5000  3.6098
  885MOL0     H16774   8.305  -0.720   7.569  0.3224  1.8843 -1.0335
  885MOL0     H16775   8.410  -0.615   7.665  2.1397 -0.4657 -3.2356
  885MOL0     H16776   8.470  -0.805   7.820  0.4065  1.6285 -1.5542
  885MOL0     H16777   8.358  -0.914   7.735  0.6814 -1.1960  4.8876
  885MOL0     H16778   8.261  -0.667   7.849  3.1781  0.1444 -0.3596
  885MOL0     H16779   8.171  -0.818   7.784  1.1109  1.0404 -2.2630
  885MOL0     H16780   8.193  -0.797   8.052  1.8656  1.3645  0.3777
  885MOL0     H16781   8.355  -0.823   8.033 -1.5563  1.5517  1.0483
  885MOL0     H16782   8.205  -1.243   7.973  0.6549  0.0710  2.6762
  885MOL0     H16783   7.994  -1.357   7.984  2.4624  0.2761  1.7969
  885MOL0     H16784   7.476  -1.200   7.722 -0.1056 -1.0260 -1.4970
  885MOL0     H16785   7.253  -1.315   7.703 -3.2719  1.2473  0.5848
  885MOL0     H16786   7.042  -1.417   7.712 -2.1077  2.1718 -1.6599
  885MOL0     H16787   7.033  -1.258   7.780 -1.8882  0.9423  2.3142
  885MOL0     H16788   6.864  -1.303   7.929 -0.3269 -0.7316  1.1842
  885MOL0     H16789   6.860  -1.481   7.874  3.3120 -1.1115 -2.3183
  885MOL0     H16790   6.818  -1.384   7.650  1.5333 -2.5571  0.8797
  885MOL0     H16791   6.804  -1.220   7.723  0.9085 -0.8279 -1.0572
  885MOL0     H16792   6.633  -1.462   7.806 -1.6069 -0.1296  2.9754
  885MOL0     H16793   6.617  -1.299   7.870 -3.6308 -0.6198  0.1167
  885MOL0     H16794   6.597  -1.367   7.579  0.3307 -1.6448 -0.5640
  885MOL0     H16795   6.571  -1.210   7.657  1.5662 -0.1300  4.2864
  885MOL0     H16796   6.355  -1.286   7.776  1.0105 -3.1165  1.6242
  885MOL0     H16797   6.381  -1.438   7.704 -1.3736 -0.2153  2.0654
  885MOL0     H16798   6.368  -1.379   7.492 -2.3981  0.7808 -2.7611
  885MOL0     H16799   6.215  -1.324   7.553 -0.9600 -0.0725  0.6951
  885MOL0     H16800   6.261  -1.125   7.436  1.3984  1.6344 -0.2226
  885MOL0     H16801   6.443  -1.145   7.443  0.0066  2.6933  1.0037
  885MOL0     H16802   7.275  -1.409   8.117  1.8939 -1.2604  0.5841
  885MOL0     H16803   7.488  -1.280   8.143 -0.3581  2.4780  0.9073
  885MOL0     H16804   7.796  -0.976   7.944 -1.5667 -1.7670  2.3136
  885MOL0     H16805   7.994  -0.863   7.951 -0.1194 -0.9471 -1.7786
  885MOL0     H16806   9.746  -0.229   7.206 -1.5293 -0.6262  1.5073
  885MOL0     H16807   9.812   0.000   7.138 -0.8335  0.0276 -1.7063
  885MOL0     H16808   9.841   0.403   7.052 -0.2967  1.0727 -0.8926
  885MOL0     H16809   9.976   0.608   7.073 -2.1371  0.7574 -2.4543
  885MOL0     H16810   9.897   0.893   7.391  0.8063 -0.7018  1.0235
  885MOL0     H16811   9.997   0.968   7.255  2.6207  0.5311  0.1814
  885MOL0     H16812  10.079   0.767   7.462  3.4010 -0.4309  0.7486
  885MOL0     H16813  10.191   0.861   7.348  0.5339 -0.0606  0.1532
  885MOL0     H16814  10.015   0.996   7.559 -0.4187 -1.9670 -0.9817
  885MOL0     H16815  10.137   1.079   7.464  1.8108  0.2882  2.0121
  885MOL0     H16816  10.168   0.999   7.716  0.8156 -0.9693  1.0044
  885MOL0     H16817  10.241   0.864   7.632 -1.6726  0.2626 -0.6039
  885MOL0     H16818  10.540   1.127   7.529 -0.0685  1.5387 -0.5345
  885MOL0     H16819   9.778   0.726   7.416 -2.0107 -1.1310  0.8486
  885MOL0     H16820   9.620   0.527   7.396 -2.1952  2.6460 -1.8935
  886MOL0     O16821   6.468  10.232   0.827  0.4232 -0.0710  0.2612
  886MOL0     C16822   6.533  10.243   0.930 -0.1045 -0.6938 -0.0409
  886MOL0     O16823   6.491  10.303   1.053  0.2379 -0.0237  0.0215
  886MOL0     C16824   6.370  10.352   1.060 -0.2741 -0.1100 -0.2074
  886MOL0     C16825   6.325  10.353   1.190 -0.2481 -0.1643 -0.0256
  886MOL0     C16826   6.216  10.422   1.238 -0.5749 -0.3313  0.2511
  886MOL0     C16827   6.139  10.491   1.147 -0.3342 -0.4355  1.5076
  886MOL0     O16828   6.042  10.561   1.192  0.9132  0.6381  0.2590
  886MOL0     C16829   6.035  10.700   1.156 -0.2829  0.3444  0.5241
  886MOL0     C16830   5.902  10.748   1.207 -0.0222 -0.2809  0.4526
  886MOL0     C16831   5.857  10.880   1.141  0.0579  0.6635 -0.5889
  886MOL0     C16832   5.704  10.917   1.182 -1.3512 -0.4618 -0.4676
  886MOL0     C16833   5.695  10.930   1.331  0.4754 -0.4111 -0.5138
  886MOL0     C16834   5.563  11.001   1.378  0.0641  0.4675  0.3641
  886MOL0     C16835   5.436  10.921   1.346  0.5660  0.1919 -0.1021
  886MOL0     C16836   5.305  10.988   1.372 -1.0003 -1.1362  0.3939
  886MOL0     N16837   5.291  10.999   1.519 -0.4193 -0.3726  0.7213
  886MOL0     C16838   5.233  10.913   1.603 -0.8787  0.0235  0.4656
  886MOL0     C16839   5.238  10.963   1.721 -0.8117 -0.2649 -1.4573
  886MOL0     C16840   5.173  10.931   1.851 -0.6232  0.3063  0.0204
  886MOL0     C16841   5.023  10.977   1.834 -0.5565  0.2741 -0.4986
  886MOL0     C16842   5.008  11.127   1.863 -0.3180  0.2582 -0.0472
  886MOL0     C16843   4.861  11.164   1.871  0.5115 -0.3182  0.7864
  886MOL0     O16844   4.825  11.135   2.000 -0.4564  0.2625  0.4322
  886MOL0     C16845   4.694  11.098   2.030  0.0378  0.9415  0.4917
  886MOL0     C16846   4.590  11.153   1.952  0.5014 -1.1965  0.9081
  886MOL0     C16847   4.455  11.143   1.980  0.5647 -0.3656  0.5891
  886MOL0     C16848   4.408  11.063   2.095 -0.6464 -0.7617  0.3249
  886MOL0     C16849   4.269  11.073   2.146 -0.6611  0.1764  0.3296
  886MOL0     O16850   4.254  11.104   2.278 -0.5651  0.0567  0.3955
  886MOL0     C16851   4.141  11.097   2.345  0.5718  0.2015  0.4097
  886MOL0     C16852   4.021  11.028   2.299 -0.1544  0.2154 -0.0413
  886MOL0     C16853   3.893  11.057   2.366 -0.2301  1.2911 -0.6563
  886MOL0     C16854   3.886  11.142   2.475 -0.4760  0.3321 -0.1037
  886MOL0     O16855   3.767  11.163   2.546 -0.2607 -0.0436 -0.6020
  886MOL0     C16856   3.723  11.039   2.601 -0.6775 -0.2145  0.7042
  886MOL0     C16857   3.624  11.061   2.725 -0.1787 -0.1025 -0.1466
  886MOL0     C16858   3.543  10.935   2.763  0.2452 -0.2556 -0.2985
  886MOL0     C16859   3.413  10.997   2.828 -0.5915  0.6408  0.9244
  886MOL0     C16860   3.331  10.893   2.902  0.3330  0.0787  0.6584
  886MOL0     C16861   3.218  10.954   2.973  0.5366  0.0492 -1.5078
  886MOL0     C16862   3.142  10.847   3.051 -0.2066  0.0664  0.0857
  886MOL0     C16863   3.012  10.909   3.105 -0.2690  0.4728 -0.0637
  886MOL0    Cl16864   2.897  10.966   2.965 -0.1136 -0.3235  0.1965
  886MOL0     C16865   4.001  11.212   2.513  0.8882 -0.4520  0.1407
  886MOL0     C16866   4.120  11.192   2.449  0.6237  0.8774  0.2513
  886MOL0     O16867   4.182  11.055   2.061  0.0865  0.2949  0.6008
  886MOL0     C16868   4.516  11.008   2.168  0.1636  0.0139 -0.6772
  886MOL0     C16869   4.657  11.019   2.140  0.5952 -0.3770 -0.7760
  886MOL0     N16870   5.306  11.081   1.712 -0.1142  0.4042 -0.2052
  886MOL0     N16871   5.340  11.107   1.590  0.7839 -0.4063 -0.9981
  886MOL0     C16872   6.191  10.502   1.011  0.3074  0.4956 -0.5029
  886MOL0     C16873   6.304  10.426   0.965  0.7228  0.1601  0.0562
  886MOL0     C16874   6.668  10.175   0.920 -0.0802  0.1639 -0.1691
  886MOL0     C16875   6.722  10.150   0.793 -0.1408 -0.0142 -0.4469
  886MOL0     C16876   6.847  10.095   0.779  0.4108  0.4832  0.0941
  886MOL0     C16877   6.925  10.062   0.889  0.6090  0.6286  0.1023
  886MOL0     O16878   7.040  10.007   0.864 -0.0005 -0.0918 -0.8466
  886MOL0     C16879   7.089   9.887   0.922  0.9345  0.2037 -0.5221
  886MOL0     C16880   7.221   9.844   0.875  0.7985 -0.6016 -0.0660
  886MOL0     C16881   7.247   9.846   0.725 -0.1370  0.3678  1.0107
  886MOL0     C16882   7.386   9.789   0.686 -0.0429  0.3459  0.6017
  886MOL0     C16883   7.490   9.867   0.743  0.1161 -0.7353 -0.5497
  886MOL0     C16884   7.576   9.941   0.796  0.4031  0.2833  0.5183
  886MOL0     C16885   6.872  10.083   1.014 -0.2111  1.2288 -0.9452
  886MOL0     C16886   6.746  10.137   1.027 -0.2216 -0.4623 -0.7319
  886MOL0     H16887   6.380  10.298   1.265  0.4500 -0.3304 -0.6470
  886MOL0     H16888   6.199  10.434   1.345  0.5081 -2.2921  0.6991
  886MOL0     H16889   6.036  10.700   1.046  0.2037 -0.8799  0.5176
  886MOL0     H16890   6.114  10.771   1.180 -0.3310  1.6910 -2.6813
  886MOL0     H16891   5.895  10.761   1.316 -1.8026 -1.6620  0.5499
  886MOL0     H16892   5.829  10.668   1.195 -1.3623  0.8926  0.3966
  886MOL0     H16893   5.854  10.882   1.031 -0.2425 -1.3377 -0.6681
  886MOL0     H16894   5.924  10.953   1.186 -0.7014  0.9838  0.0466
  886MOL0     H16895   5.671  11.006   1.128  1.1859  0.9597  0.1867
  886MOL0     H16896   5.635  10.837   1.155 -1.5215 -0.0237 -1.3799
  886MOL0     H16897   5.779  10.991   1.364 -0.6011  0.4334  0.7677
  886MOL0     H16898   5.700  10.830   1.376 -0.0211 -0.4592 -0.5556
  886MOL0     H16899   5.557  11.101   1.333 -0.6371  0.9736  1.5416
  886MOL0     H16900   5.569  11.007   1.487 -1.4706  1.8355  0.4122
  886MOL0     H16901   5.424  10.899   1.239 -1.9574 -0.8437  0.3098
  886MOL0     H16902   5.437  10.823   1.394 -3.3842  0.3834  0.7194
  886MOL0     H16903   5.217  10.936   1.332 -0.7533 -0.5617 -0.9450
  886MOL0     H16904   5.303  11.090   1.332  0.6223 -0.4109  2.0292
  886MOL0     H16905   5.165  10.831   1.583 -0.5333 -0.8699  2.6349
  886MOL0     H16906   5.214  10.978   1.941 -0.9814 -0.6191  0.6895
  886MOL0     H16907   5.179  10.829   1.891  1.6360  1.2131  2.2183
  886MOL0     H16908   4.958  10.918   1.900  0.1309 -1.5074 -1.3413
  886MOL0     H16909   4.985  10.966   1.732 -0.3907 -0.2695 -0.5054
  886MOL0     H16910   5.065  11.167   1.947 -0.7238 -2.7464  1.8093
  886MOL0     H16911   5.052  11.175   1.776 -0.0119  0.9787  0.5025
  886MOL0     H16912   4.811  11.098   1.800  1.2013 -0.5509  0.5035
  886MOL0     H16913   4.850  11.270   1.848 -1.3299 -0.9270 -1.4567
  886MOL0     H16914   4.621  11.229   1.881  0.2164 -1.8511  0.0697
  886MOL0     H16915   4.373  11.192   1.928 -1.9387 -2.2064  2.5140
  886MOL0     H16916   4.008  10.951   2.224 -1.9547 -1.1547  1.5652
  886MOL0     H16917   3.802  11.006   2.336 -0.3127  1.2236 -0.2990
  886MOL0     H16918   3.801  10.970   2.634  2.5479  2.9365  0.2688
  886MOL0     H16919   3.668  10.980   2.528 -0.7009  0.1342  0.4393
  886MOL0     H16920   3.554  11.142   2.702 -2.3201 -1.1075  2.3753
  886MOL0     H16921   3.670  11.094   2.818 -2.2726  3.3740 -0.1470
  886MOL0     H16922   3.593  10.860   2.825 -0.4909 -0.6129 -0.1200
  886MOL0     H16923   3.528  10.875   2.673  2.8892 -2.4814  0.6136
  886MOL0     H16924   3.452  11.068   2.901 -1.8180  1.7972  0.5051
  886MOL0     H16925   3.353  11.057   2.759  0.7426 -0.1901 -1.0635
  886MOL0     H16926   3.399  10.824   2.952  1.5315 -3.7926 -5.2635
  886MOL0     H16927   3.276  10.832   2.830 -1.5817  0.1947  1.9634
  886MOL0     H16928   3.151  11.006   2.903 -5.2341  0.3117  3.3781
  886MOL0     H16929   3.250  11.029   3.045 -2.4890  0.7695 -0.7818
  886MOL0     H16930   3.123  10.768   2.978  2.9421 -0.7665  0.0028
  886MOL0     H16931   3.202  10.801   3.131 -1.4873 -0.0803  0.9907
  886MOL0     H16932   3.042  10.995   3.166  1.7201  0.5447 -1.0941
  886MOL0     H16933   2.955  10.830   3.156 -1.7521  1.1553 -0.5834
  886MOL0     H16934   3.976  11.293   2.581 -2.7672 -0.8793 -0.4532
  886MOL0     H16935   4.202  11.253   2.485  0.3812 -0.0385  2.5659
  886MOL0     H16936   4.493  10.954   2.259  1.6861  1.5193  0.6699
  886MOL0     H16937   4.732  10.977   2.206 -0.9549  0.6949  1.8215
  886MOL0     H16938   6.122  10.543   0.937  1.2739 -1.3069 -2.5247
  886MOL0     H16939   6.340  10.419   0.863  2.5101 -1.9787  0.7381
  886MOL0     H16940   6.668  10.185   0.706 -0.2510  3.1939  0.7809
  886MOL0     H16941   6.886  10.080   0.679  0.3930 -1.4897  0.3460
  886MOL0     H16942   7.015   9.808   0.913 -1.1012  1.7914  1.3364
  886MOL0     H16943   7.107   9.901   1.029  2.2353 -0.4443 -0.6377
  886MOL0     H16944   7.298   9.908   0.920  0.2518  0.6721 -0.8737
  886MOL0     H16945   7.232   9.740   0.907  4.2303 -0.1631  0.5652
  886MOL0     H16946   7.252   9.950   0.693 -2.6843  0.7368  1.6116
  886MOL0     H16947   7.176   9.793   0.661  1.2443  0.6704 -0.8720
  886MOL0     H16948   7.391   9.682   0.709  1.7304 -0.1082 -1.5421
  886MOL0     H16949   7.387   9.788   0.576 -1.2507  0.3660  0.5767
  886MOL0     H16950   7.635  10.018   0.840  2.2077  0.5306 -2.1298
  886MOL0     H16951   6.930  10.049   1.099  0.3859 -0.1186 -1.8600
  886MOL0     H16952   6.721  10.149   1.132 -3.0996 -2.0104 -1.1307
  887MOL0     O16953   5.653   2.273   2.636 -0.3818  0.2689 -0.3170
  887MOL0     C16954   5.722   2.176   2.688  0.1380 -0.4361 -0.2493
  887MOL0     O16955   5.671   2.051   2.730 -0.0785 -0.7450  0.0652
  887MOL0     C16956   5.550   2.004   2.678 -0.2141 -0.5261 -0.0235
  887MOL0     C16957   5.521   2.014   2.542  0.3707  0.2741 -0.0601
  887MOL0     C16958   5.402   1.963   2.493  1.0643  0.2394  0.1634
  887MOL0     C16959   5.308   1.905   2.584 -0.0113  1.2986 -0.1060
  887MOL0     O16960   5.188   1.844   2.556 -0.3945 -0.8685 -0.9129
  887MOL0     C16961   5.138   1.852   2.421 -0.1268  0.2824  0.1467
  887MOL0     C16962   4.990   1.803   2.414 -0.6725 -0.8376  0.8009
  887MOL0     C16963   4.893   1.894   2.485  0.1325  0.6067  0.2688
  887MOL0     C16964   4.749   1.863   2.435  0.4179  0.3772  0.8076
  887MOL0     C16965   4.648   1.961   2.515 -0.2678  0.4133  0.0981
  887MOL0     C16966   4.502   1.927   2.461  1.1242 -0.1163 -0.5443
  887MOL0     C16967   4.400   2.009   2.551 -0.6981 -0.2755 -0.1012
  887MOL0     C16968   4.256   1.990   2.500  0.2650  0.3102  0.1522
  887MOL0     N16969   4.167   2.068   2.586 -0.4843  0.1851 -0.2460
  887MOL0     C16970   4.100   2.197   2.572 -0.7659 -0.3332  0.7248
  887MOL0     C16971   4.030   2.208   2.684  0.1111  0.1700  0.7589
  887MOL0     C16972   3.938   2.321   2.710  0.7594 -0.5521 -0.2402
  887MOL0     C16973   3.800   2.269   2.778 -0.9931  0.2087 -0.2183
  887MOL0     C16974   3.709   2.380   2.830 -0.1528 -0.7135  1.2464
  887MOL0     C16975   3.573   2.323   2.867 -0.1373  0.3183  0.8142
  887MOL0     O16976   3.491   2.430   2.926 -0.4364  0.4357 -0.2733
  887MOL0     C16977   3.349   2.410   2.938 -0.4456 -0.0212 -0.7671
  887MOL0     C16978   3.273   2.509   3.002  0.1594  0.3683  0.1261
  887MOL0     C16979   3.138   2.502   3.022 -0.4708  0.0190 -0.1059
  887MOL0     C16980   3.071   2.383   3.003  0.1514  0.7445  0.5716
  887MOL0     C16981   2.927   2.368   3.026 -0.4968 -0.3500 -0.6552
  887MOL0     O16982   2.856   2.476   3.070  0.2886  0.0472  0.3568
  887MOL0     C16983   2.727   2.477   3.033  1.1069  1.0131 -0.0137
  887MOL0     C16984   2.627   2.511   3.122 -0.1281 -0.5403 -0.4530
  887MOL0     C16985   2.498   2.521   3.081 -0.3325  0.2306 -0.0423
  887MOL0     C16986   2.470   2.505   2.942  0.0811 -0.7288 -1.2550
  887MOL0     O16987   2.343   2.514   2.882 -0.0545 -0.3258 -0.2871
  887MOL0     C16988   2.234   2.567   2.953  0.9348 -0.2327 -0.5213
  887MOL0     C16989   2.134   2.630   2.859  0.3273  0.0700 -0.6999
  887MOL0     C16990   2.007   2.687   2.931 -0.8647  0.0335 -0.1905
  887MOL0     C16991   1.884   2.723   2.844  0.2671  0.0064  0.2867
  887MOL0     C16992   1.897   2.838   2.745  0.9399 -1.4537 -0.2789
  887MOL0     C16993   1.894   2.975   2.808  0.9249 -0.9287 -0.5018
  887MOL0     C16994   1.900   3.092   2.705  0.0097  0.0740  0.1397
  887MOL0     C16995   1.871   3.232   2.761 -0.9587  1.0398  0.3726
  887MOL0    Cl16996   1.706   3.273   2.791 -0.5955  0.1726 -0.2845
  887MOL0     C16997   2.565   2.472   2.852  0.6745 -0.5437  0.0309
  887MOL0     C16998   2.692   2.459   2.897 -1.0881  0.2715 -0.2094
  887MOL0     O16999   2.884   2.253   3.027  0.1485  0.6123 -0.2793
  887MOL0     C17000   3.149   2.276   2.952 -0.7045 -0.0575  0.1280
  887MOL0     C17001   3.286   2.287   2.921 -0.1266 -0.2293 -0.1597
  887MOL0     N17002   4.061   2.110   2.770 -0.1414 -0.6730  0.1153
  887MOL0     N17003   4.150   2.031   2.717  0.2999  0.3584 -0.0033
  887MOL0     C17004   5.339   1.908   2.717  0.3528  0.1812  0.0222
  887MOL0     C17005   5.452   1.959   2.763 -0.0494  0.0568 -0.0701
  887MOL0     C17006   5.863   2.196   2.724 -0.0663 -0.2098  0.7348
  887MOL0     C17007   5.938   2.098   2.785 -0.5860 -0.0933 -0.6539
  887MOL0     C17008   6.065   2.129   2.828  0.1501 -0.5442 -0.1152
  887MOL0     C17009   6.127   2.251   2.806  0.5826  0.3490  0.7133
  887MOL0     O17010   6.248   2.285   2.850  0.1196 -0.2873  0.1743
  887MOL0     C17011   6.360   2.217   2.791  0.8062  0.1553 -0.3863
  887MOL0     C17012   6.489   2.226   2.883 -0.3701 -0.0900 -0.1806
  887MOL0     C17013   6.619   2.166   2.823  0.5419 -0.1977 -0.8934
  887MOL0     C17014   6.670   2.229   2.696 -0.3020 -1.1539  0.6204
  887MOL0     C17015   6.706   2.369   2.715  1.4081 -0.1474  0.2038
  887MOL0     C17016   6.743   2.483   2.734  0.9148  0.2732  0.0083
  887MOL0     C17017   6.048   2.347   2.739  0.7683  0.0539 -0.3549
  887MOL0     C17018   5.916   2.322   2.696 -0.6946 -0.8991  0.0709
  887MOL0     H17019   5.596   2.046   2.470  0.4422  2.5166  0.9341
  887MOL0     H17020   5.375   1.950   2.389  2.2636 -2.0661  0.0666
  887MOL0     H17021   5.200   1.797   2.349 -1.5635 -1.0666 -0.1342
  887MOL0     H17022   5.137   1.957   2.392  0.1456  0.3584  0.4122
  887MOL0     H17023   4.988   1.702   2.455  0.8168 -1.1745  0.1217
  887MOL0     H17024   4.963   1.813   2.309 -0.4482 -0.9175  0.7336
  887MOL0     H17025   4.911   2.001   2.473 -1.5527  0.6294 -3.8936
  887MOL0     H17026   4.917   1.867   2.588 -0.7316 -0.9457  0.0917
  887MOL0     H17027   4.750   1.856   2.326  0.5763 -0.2400  0.8400
  887MOL0     H17028   4.713   1.761   2.454 -0.1131  0.8866  2.7671
  887MOL0     H17029   4.680   2.059   2.479  1.1575 -0.5144 -1.3234
  887MOL0     H17030   4.640   1.960   2.624 -0.8264  1.6850  0.0838
  887MOL0     H17031   4.476   1.823   2.482 -0.3866  0.2984 -0.1791
  887MOL0     H17032   4.503   1.950   2.354  2.0050  2.2414 -0.0840
  887MOL0     H17033   4.410   1.967   2.652  4.1390 -1.5304 -0.8641
  887MOL0     H17034   4.426   2.116   2.557 -0.4597 -0.4180  2.3274
  887MOL0     H17035   4.233   1.884   2.491  1.1978  0.0636  0.4963
  887MOL0     H17036   4.243   2.028   2.399  0.7238  0.8507  0.2921
  887MOL0     H17037   4.091   2.267   2.490  1.0945  2.8764  3.0344
  887MOL0     H17038   3.913   2.375   2.618  0.9060  0.9119  0.5599
  887MOL0     H17039   3.983   2.395   2.776  1.5928 -1.1152 -0.1704
  887MOL0     H17040   3.827   2.215   2.870 -0.3371  4.1413  2.1244
  887MOL0     H17041   3.758   2.199   2.706  1.0757 -0.5609 -0.7553
  887MOL0     H17042   3.749   2.438   2.914  0.4650 -1.6926  1.6361
  887MOL0     H17043   3.678   2.437   2.742  2.6545 -2.9117 -1.3943
  887MOL0     H17044   3.586   2.246   2.945 -2.6729  1.5685  2.6092
  887MOL0     H17045   3.519   2.281   2.782 -2.6613  1.2073  1.8879
  887MOL0     H17046   3.320   2.605   3.023 -3.1082  2.2286 -0.3799
  887MOL0     H17047   3.082   2.586   3.062 -0.7951 -0.8880  1.4157
  887MOL0     H17048   2.646   2.553   3.221 -1.0800 -1.9682  0.3581
  887MOL0     H17049   2.430   2.542   3.164  0.6951 -2.7106  1.7328
  887MOL0     H17050   2.276   2.647   3.015 -1.8148  0.1745  0.9521
  887MOL0     H17051   2.186   2.500   3.025 -1.4608  0.3541 -1.5020
  887MOL0     H17052   2.093   2.561   2.785 -0.8996  0.9690 -0.9020
  887MOL0     H17053   2.186   2.710   2.804 -0.1565  0.5972 -0.4043
  887MOL0     H17054   2.031   2.783   2.976 -2.5602 -0.4771  1.9456
  887MOL0     H17055   1.976   2.624   3.014 -1.2000  1.4311  0.7669
  887MOL0     H17056   1.857   2.636   2.783  0.8003  0.5559 -0.7686
  887MOL0     H17057   1.801   2.747   2.910 -0.2674  0.2269 -0.4578
  887MOL0     H17058   1.818   2.842   2.669  0.2690 -0.1868  0.4473
  887MOL0     H17059   1.994   2.815   2.701  2.0412 -0.8114  1.7097
  887MOL0     H17060   1.977   2.986   2.879 -1.0878  0.9931  1.7748
  887MOL0     H17061   1.808   2.989   2.875  0.6166  0.0740 -1.0790
  887MOL0     H17062   2.006   3.095   2.677  0.2304  0.0269  0.9320
  887MOL0     H17063   1.831   3.089   2.621  2.4557  1.4124 -2.0800
  887MOL0     H17064   1.911   3.309   2.694 -0.3450  1.6125  1.3543
  887MOL0     H17065   1.930   3.243   2.853  1.5992  0.8866 -1.1480
  887MOL0     H17066   2.547   2.444   2.748  0.1260  1.8730 -0.5833
  887MOL0     H17067   2.765   2.425   2.824  0.7473  0.6222  1.3809
  887MOL0     H17068   3.113   2.173   2.948  1.5397 -0.8943 -0.0123
  887MOL0     H17069   3.331   2.198   2.879 -1.1450 -0.4537 -0.8014
  887MOL0     H17070   5.266   1.889   2.795  0.2857  2.8682  0.7112
  887MOL0     H17071   5.483   1.961   2.867 -1.6010 -1.0962  0.4562
  887MOL0     H17072   5.898   1.999   2.803  0.7237 -0.9429 -2.1243
  887MOL0     H17073   6.122   2.054   2.882 -1.1087 -1.5483 -0.1184
  887MOL0     H17074   6.386   2.244   2.688  1.1120 -1.4904 -0.7754
  887MOL0     H17075   6.342   2.110   2.780  0.4323  0.1588  0.1770
  887MOL0     H17076   6.512   2.329   2.912 -2.0536 -0.4230  2.6975
  887MOL0     H17077   6.467   2.172   2.976  2.5377  0.5220  0.9786
  887MOL0     H17078   6.607   2.058   2.805 -1.4545 -0.2505  0.4511
  887MOL0     H17079   6.692   2.176   2.904 -2.9733  0.9179  2.4449
  887MOL0     H17080   6.765   2.179   2.673 -0.3245 -2.6626  3.4025
  887MOL0     H17081   6.595   2.226   2.617 -0.4824  0.6614  0.6909
  887MOL0     H17082   6.782   2.582   2.748  0.8907  0.6083 -1.9914
  887MOL0     H17083   6.097   2.440   2.711 -0.8675  0.7017 -1.2450
  887MOL0     H17084   5.860   2.391   2.635  0.0683  0.3552  0.7522
  888MOL0     O17085   0.080   5.714   6.672  0.4672  0.0588 -0.3059
  888MOL0     C17086   0.118   5.755   6.780 -0.4893 -0.2607 -0.6291
  888MOL0     O17087   0.040   5.781   6.899  0.8484  0.8296  0.1187
  888MOL0     C17088  -0.101   5.784   6.895  0.2065 -0.5852 -0.2396
  888MOL0     C17089  -0.169   5.827   6.787 -0.3816 -0.1552  0.6184
  888MOL0     C17090  -0.310   5.821   6.793 -0.2533  0.1809  1.4606
  888MOL0     C17091  -0.382   5.776   6.901 -1.0234  0.2968 -0.1481
  888MOL0     O17092  -0.518   5.761   6.908 -0.3784 -0.0037 -0.2452
  888MOL0     C17093  -0.599   5.791   6.804 -0.2080  0.3046 -0.0794
  888MOL0     C17094  -0.747   5.799   6.856 -0.2619  0.7102 -0.9620
  888MOL0     C17095  -0.851   5.874   6.769 -0.4265  0.2986  0.4120
  888MOL0     C17096  -0.988   5.851   6.845 -0.3972 -0.3561 -0.2326
  888MOL0     C17097  -1.103   5.915   6.768  0.1054 -0.3317  0.2811
  888MOL0     C17098  -1.230   5.882   6.854  0.6594  0.0602  0.5817
  888MOL0     C17099  -1.352   5.942   6.778  0.2460 -1.1918 -0.6128
  888MOL0     C17100  -1.389   5.889   6.641  0.1321 -0.9361  0.0114
  888MOL0     N17101  -1.406   5.746   6.662 -0.2249  0.2207  0.3299
  888MOL0     C17102  -1.521   5.692   6.708  0.3734 -0.5475  0.9016
  888MOL0     C17103  -1.512   5.560   6.712  0.2001  0.0058 -0.9102
  888MOL0     C17104  -1.638   5.486   6.750 -0.5401  0.3660 -0.2405
  888MOL0     C17105  -1.621   5.353   6.823  0.3918  0.3131  0.5772
  888MOL0     C17106  -1.593   5.233   6.726 -0.1908 -0.4509  0.2948
  888MOL0     C17107  -1.595   5.104   6.810  0.3528 -0.4735  0.8090
  888MOL0     O17108  -1.724   5.060   6.853 -0.1583 -0.8431  0.1307
  888MOL0     C17109  -1.806   4.993   6.775 -0.0405 -0.0621  1.1970
  888MOL0     C17110  -1.939   4.990   6.811 -0.3366  0.5339 -0.0964
  888MOL0     C17111  -2.026   4.903   6.740  1.4418 -0.7874  0.1383
  888MOL0     C17112  -1.991   4.846   6.616  0.0233  0.9190 -0.8328
  888MOL0     C17113  -2.092   4.759   6.542  0.1670 -0.3134 -0.0253
  888MOL0     O17114  -2.216   4.764   6.601 -0.5141  0.1786  0.9856
  888MOL0     C17115  -2.325   4.703   6.543  0.3160  0.5235  0.5242
  888MOL0     C17116  -2.320   4.597   6.442  0.6092  0.0300 -0.1511
  888MOL0     C17117  -2.446   4.561   6.383 -0.2474 -0.4440  0.8701
  888MOL0     C17118  -2.558   4.634   6.415 -0.0703  0.5411  0.1422
  888MOL0     O17119  -2.678   4.588   6.366 -0.2043 -0.1054 -0.6866
  888MOL0     C17120  -2.686   4.493   6.259  0.1083 -0.7479 -0.1349
  888MOL0     C17121  -2.830   4.497   6.203  0.1088 -0.0766 -0.0301
  888MOL0     C17122  -2.924   4.458   6.317  0.0959 -0.1812 -0.6539
  888MOL0     C17123  -3.074   4.449   6.259 -0.7734 -0.2970 -0.5747
  888MOL0     C17124  -3.090   4.363   6.135  0.6045  0.0778 -0.0385
  888MOL0     C17125  -3.042   4.209   6.136 -0.3472 -0.0798 -0.2494
  888MOL0     C17126  -3.064   4.143   6.004 -0.6462  0.4937  0.4453
  888MOL0     C17127  -2.966   4.192   5.893  0.5240  0.7706  0.5292
  888MOL0    Cl17128  -2.795   4.178   5.933  0.1155  0.3875 -0.0656
  888MOL0     C17129  -2.558   4.735   6.507  0.0496  0.8678 -0.6790
  888MOL0     C17130  -2.438   4.768   6.571  0.3918  0.4903 -0.6398
  888MOL0     O17131  -2.060   4.709   6.432  0.0933 -0.5594  0.4204
  888MOL0     C17132  -1.859   4.852   6.578 -0.3291 -0.3715 -0.6610
  888MOL0     C17133  -1.766   4.920   6.659 -0.7233 -0.6144 -0.4004
  888MOL0     N17134  -1.388   5.526   6.665  0.2297 -0.2980  0.1647
  888MOL0     N17135  -1.322   5.638   6.640 -0.4091  0.7866 -0.0628
  888MOL0     C17136  -0.306   5.748   7.013 -0.7838 -0.3300  0.2450
  888MOL0     C17137  -0.167   5.751   7.012 -0.7722 -0.4866  0.2862
  888MOL0     C17138   0.265   5.763   6.809 -0.3808  0.3198 -0.6116
  888MOL0     C17139   0.363   5.774   6.705  0.2797  0.3766  0.8171
  888MOL0     C17140   0.498   5.773   6.727 -0.5548  0.1894 -0.3710
  888MOL0     C17141   0.546   5.772   6.860 -1.5588 -0.6991 -0.6098
  888MOL0     O17142   0.682   5.783   6.888 -0.8900  0.5024 -0.7198
  888MOL0     C17143   0.762   5.820   6.779 -0.2296 -0.4959  0.1937
  888MOL0     C17144   0.907   5.865   6.799 -0.0837 -0.5682 -0.4569
  888MOL0     C17145   0.911   5.995   6.891  0.4496  0.3227 -0.5083
  888MOL0     C17146   1.043   6.038   6.940  0.1894  0.0682 -0.2697
  888MOL0     C17147   1.127   6.105   6.840 -0.2068  0.3061  0.0875
  888MOL0     C17148   1.210   6.171   6.774 -0.3787 -0.0674 -0.3754
  888MOL0     C17149   0.452   5.756   6.969  0.2967 -0.8922  1.0604
  888MOL0     C17150   0.317   5.746   6.945  0.6760 -0.1697  0.5026
  888MOL0     H17151  -0.108   5.856   6.703 -0.0009  0.5594  1.1324
  888MOL0     H17152  -0.368   5.854   6.707 -1.6063 -1.6033  1.6335
  888MOL0     H17153  -0.592   5.723   6.718 -1.7301  1.0471 -0.8243
  888MOL0     H17154  -0.577   5.895   6.781 -0.5839  0.5070  0.4844
  888MOL0     H17155  -0.753   5.847   6.954  2.4231 -0.2214 -0.2654
  888MOL0     H17156  -0.789   5.701   6.881 -1.1434  0.6916 -2.3981
  888MOL0     H17157  -0.859   5.823   6.673 -1.0180 -0.4775  0.8684
  888MOL0     H17158  -0.832   5.981   6.778 -0.9121  0.2867  1.9486
  888MOL0     H17159  -1.005   5.743   6.847  2.8595 -0.9521  1.4212
  888MOL0     H17160  -0.976   5.902   6.940 -0.0909 -0.1700 -0.3683
  888MOL0     H17161  -1.110   5.867   6.669  1.5834  0.8233 -0.4203
  888MOL0     H17162  -1.096   6.023   6.753 -5.4611  0.1282 -1.3888
  888MOL0     H17163  -1.222   5.914   6.958 -0.5116 -0.0239  0.7099
  888MOL0     H17164  -1.256   5.776   6.861  2.3609 -0.4455 -0.1804
  888MOL0     H17165  -1.431   5.940   6.853  2.0694 -1.8158  1.3865
  888MOL0     H17166  -1.327   6.048   6.764 -2.9850 -0.1595  0.5081
  888MOL0     H17167  -1.312   5.913   6.567  0.0228  0.9995  0.4893
  888MOL0     H17168  -1.470   5.948   6.599  1.4031 -0.3416 -1.7210
  888MOL0     H17169  -1.605   5.740   6.758 -0.5701 -0.6357 -0.5333
  888MOL0     H17170  -1.690   5.462   6.657  0.0077 -1.1462 -0.1693
  888MOL0     H17171  -1.703   5.551   6.810  1.2989  1.4097  0.7046
  888MOL0     H17172  -1.711   5.333   6.881  1.2020  1.9235  2.5308
  888MOL0     H17173  -1.545   5.357   6.902 -0.3819  3.9502  1.2849
  888MOL0     H17174  -1.672   5.226   6.651 -0.3317  1.9510  0.1423
  888MOL0     H17175  -1.491   5.239   6.685 -0.0220 -0.0703  0.7615
  888MOL0     H17176  -1.532   5.122   6.899  1.1348 -0.0653  0.1856
  888MOL0     H17177  -1.546   5.028   6.749  0.3918  0.7027 -0.6949
  888MOL0     H17178  -1.971   5.034   6.905 -2.7305  1.1093 -1.1265
  888MOL0     H17179  -2.124   4.888   6.784  1.7472 -2.6313  0.2515
  888MOL0     H17180  -2.224   4.548   6.431  1.6063  1.7190  0.5725
  888MOL0     H17181  -2.442   4.469   6.326 -1.6272 -0.1603  0.2779
  888MOL0     H17182  -2.656   4.395   6.295  3.6595  0.1325 -0.3809
  888MOL0     H17183  -2.626   4.520   6.172  2.6196 -2.7266  0.8627
  888MOL0     H17184  -2.831   4.434   6.114 -3.9236  0.7030 -0.7274
  888MOL0     H17185  -2.845   4.600   6.171  0.4984 -0.7345 -2.5444
  888MOL0     H17186  -2.909   4.527   6.400 -0.2182  0.2633 -0.9615
  888MOL0     H17187  -2.896   4.361   6.358 -0.7495 -0.5918 -1.0267
  888MOL0     H17188  -3.141   4.426   6.342  0.8251 -0.9689  0.5738
  888MOL0     H17189  -3.092   4.553   6.230  3.7343  0.2446 -2.1666
  888MOL0     H17190  -3.042   4.413   6.050  0.0722  1.0177  0.1994
  888MOL0     H17191  -3.194   4.365   6.102  1.4143  2.1472 -2.9202
  888MOL0     H17192  -3.102   4.153   6.209 -0.7220 -0.5743 -0.9318
  888MOL0     H17193  -2.937   4.200   6.164 -1.1954 -2.2362  2.7517
  888MOL0     H17194  -3.030   4.039   6.010  0.7007  0.8070 -1.1391
  888MOL0     H17195  -3.168   4.146   5.969 -0.5042  1.3841  0.0735
  888MOL0     H17196  -2.978   4.301   5.885  0.6898  1.1603  3.9814
  888MOL0     H17197  -2.994   4.142   5.800 -1.7505  1.2420  0.8921
  888MOL0     H17198  -2.659   4.763   6.537 -1.3043 -3.3341 -0.6903
  888MOL0     H17199  -2.436   4.833   6.658 -1.0792  0.8448 -0.8375
  888MOL0     H17200  -1.834   4.786   6.496  2.6539 -2.4050  1.6411
  888MOL0     H17201  -1.663   4.910   6.628 -1.3143 -0.3216 -2.6156
  888MOL0     H17202  -0.351   5.721   7.108 -1.2076 -0.8166 -0.0893
  888MOL0     H17203  -0.104   5.732   7.099  0.4399  0.4038 -0.3660
  888MOL0     H17204   0.327   5.779   6.603 -3.0653 -2.0518  1.7006
  888MOL0     H17205   0.570   5.777   6.646  1.1964  0.9761  1.1378
  888MOL0     H17206   0.719   5.896   6.713 -0.1608 -1.7602 -1.3627
  888MOL0     H17207   0.766   5.727   6.722  0.5080 -0.5628  0.3461
  888MOL0     H17208   0.957   5.780   6.847  0.1930 -0.5890 -0.7777
  888MOL0     H17209   0.954   5.876   6.701  2.8224 -1.8309  0.6788
  888MOL0     H17210   0.859   5.972   6.984 -2.4454  1.3468 -1.7592
  888MOL0     H17211   0.868   6.084   6.843  1.3988  1.6047  0.9109
  888MOL0     H17212   1.021   6.108   7.021  2.2004 -0.7501  1.0666
  888MOL0     H17213   1.096   5.952   6.982  0.7510  0.6324  0.1884
  888MOL0     H17214   1.260   6.244   6.713  1.4666 -2.2578 -1.6967
  888MOL0     H17215   0.491   5.751   7.070 -1.1928  2.1411  1.9168
  888MOL0     H17216   0.247   5.726   7.025 -1.4963 -0.0226 -1.2615
  889MOL0     O17217   9.391   9.357  10.410 -0.3919 -0.8825 -0.8880
  889MOL0     C17218   9.433   9.418  10.312  0.6177 -0.0871 -0.4962
  889MOL0     O17219   9.364   9.420  10.195  0.9035 -0.2557  0.2199
  889MOL0     C17220   9.232   9.369  10.200  0.6311 -0.5701 -1.0847
  889MOL0     C17221   9.196   9.254  10.138 -0.1424  0.3494  0.3403
  889MOL0     C17222   9.066   9.209  10.148 -0.4115 -0.0236  0.6349
  889MOL0     C17223   8.969   9.268  10.228  1.4368 -0.2004  0.4065
  889MOL0     O17224   8.847   9.211  10.233  1.0839  0.0443 -0.0750
  889MOL0     C17225   8.785   9.185  10.357  0.5576  0.3556  0.1743
  889MOL0     C17226   8.683   9.073  10.341 -0.5614 -0.5522  0.5568
  889MOL0     C17227   8.624   9.021  10.472  0.7235  0.3137 -0.1210
  889MOL0     C17228   8.563   8.878  10.469  0.9135  0.6654  0.0461
  889MOL0     C17229   8.474   8.846  10.346 -0.2814 -0.3815  0.8499
  889MOL0     C17230   8.346   8.924  10.354 -0.6378  0.4635 -0.6381
  889MOL0     C17231   8.250   8.879  10.249  0.1791  0.0050  0.0028
  889MOL0     C17232   8.114   8.949  10.289 -0.1362 -0.8065  0.6512
  889MOL0     N17233   8.017   8.950  10.177 -0.4881  0.0638  0.1100
  889MOL0     C17234   7.949   8.842  10.136 -0.9077  0.7669  0.1253
  889MOL0     C17235   7.870   8.884  10.037 -0.4602 -0.5793 -0.3227
  889MOL0     C17236   7.779   8.801   9.962  0.3326  0.1806 -0.1002
  889MOL0     C17237   7.642   8.853   9.983 -0.5997  0.3779  0.8113
  889MOL0     C17238   7.541   8.782   9.881  0.6029  0.8116 -0.0101
  889MOL0     C17239   7.405   8.849   9.859 -0.2521 -0.4748 -0.5680
  889MOL0     O17240   7.363   8.865   9.994  0.2590 -1.0789  0.4825
  889MOL0     C17241   7.226   8.894  10.003  1.0262  0.2220 -0.3072
  889MOL0     C17242   7.162   8.898  10.127  0.5495  0.5373  0.1010
  889MOL0     C17243   7.025   8.922  10.143  0.0862  0.3155  0.4304
  889MOL0     C17244   6.944   8.965  10.040 -0.0860 -0.0417  0.1819
  889MOL0     C17245   6.812   9.001  10.066  0.2218 -0.1166 -0.4339
  889MOL0     O17246   6.756   8.958  10.178  0.6109  0.2242  0.6620
  889MOL0     C17247   6.631   8.997  10.210  0.6992  0.6758  0.0238
  889MOL0     C17248   6.538   8.898  10.240  0.4410 -0.7672  0.2421
  889MOL0     C17249   6.414   8.937  10.295  0.8574 -0.8622  0.1908
  889MOL0     C17250   6.372   9.068  10.301  0.2718  0.4135 -0.1932
  889MOL0     O17251   6.246   9.096  10.338 -0.2748 -0.3231 -1.2727
  889MOL0     C17252   6.212   9.230  10.355  0.2692  0.2685  0.4414
  889MOL0     C17253   6.066   9.242  10.391  0.7232  0.2810  0.1579
  889MOL0     C17254   6.044   9.192  10.533  0.0906  0.9424 -0.0967
  889MOL0     C17255   5.907   9.243  10.577 -0.2926 -0.0639  0.1827
  889MOL0     C17256   5.886   9.201  10.721 -0.3328  0.3260  0.1068
  889MOL0     C17257   5.766   9.258  10.800 -0.1384  0.1002  0.2541
  889MOL0     C17258   5.789   9.401  10.845  0.3643 -0.8492  0.5381
  889MOL0     C17259   5.698   9.455  10.953 -0.5655 -0.2600 -1.1629
  889MOL0    Cl17260   5.530   9.474  10.900 -0.2030  0.1169 -0.2238
  889MOL0     C17261   6.473   9.162  10.278 -0.9004 -0.5830 -0.1852
  889MOL0     C17262   6.591   9.126  10.226 -0.1601 -0.2104  0.3752
  889MOL0     O17263   6.755   9.064   9.977 -0.2946 -0.1571  0.2052
  889MOL0     C17264   7.011   8.971   9.918  0.6182 -0.3593  0.7060
  889MOL0     C17265   7.144   8.936   9.900 -0.6550  0.5629  0.5682
  889MOL0     N17266   7.891   9.015  10.023  0.0243  0.7616  0.1423
  889MOL0     N17267   7.975   9.061  10.108 -0.8604  1.1314  0.0483
  889MOL0     C17268   9.008   9.378  10.300  1.3218  0.2781 -0.1496
  889MOL0     C17269   9.134   9.435  10.284 -0.0527 -0.6098  1.0165
  889MOL0     C17270   9.566   9.489  10.326  0.9209  0.6861  0.5729
  889MOL0     C17271   9.631   9.505  10.451  0.1263  0.5937  0.1637
  889MOL0     C17272   9.755   9.564  10.462  0.3776  0.5697 -0.9898
  889MOL0     C17273   9.822   9.624  10.352  0.7529  0.1229 -1.0680
  889MOL0     O17274   9.934   9.697  10.378  0.3534 -0.0341  0.1252
  889MOL0     C17275  10.004   9.752  10.264 -0.1568  0.3301 -1.0813
  889MOL0     C17276  10.147   9.786  10.314 -0.1863  0.5702 -0.9040
  889MOL0     C17277  10.201   9.901  10.232 -0.1841  0.4602 -0.1042
  889MOL0     C17278  10.353   9.905  10.259 -0.3381  0.2226  0.1549
  889MOL0     C17279  10.413   9.979  10.141 -0.4541 -0.3949 -0.0093
  889MOL0     C17280  10.478  10.024  10.047  0.4447 -0.8689  0.2620
  889MOL0     C17281   9.763   9.595  10.230 -0.6470  0.2970  0.5592
  889MOL0     C17282   9.644   9.529  10.213 -0.5334  0.4545  0.4862
  889MOL0     H17283   9.270   9.217  10.068 -1.3940 -0.8332 -0.3823
  889MOL0     H17284   9.046   9.113  10.101 -0.7570 -0.0005  0.7357
  889MOL0     H17285   8.749   9.274  10.409  3.4562  0.8984  1.4664
  889MOL0     H17286   8.868   9.150  10.418 -0.7838 -1.5272  0.9959
  889MOL0     H17287   8.725   8.987  10.289  2.5661  2.1350 -1.7477
  889MOL0     H17288   8.602   9.116  10.282  1.0266  0.7690 -0.7570
  889MOL0     H17289   8.554   9.092  10.518  0.4103 -0.5118  0.7115
  889MOL0     H17290   8.700   9.005  10.549 -1.7071 -2.9060  1.8915
  889MOL0     H17291   8.642   8.803  10.470 -0.4806 -1.1651 -4.3081
  889MOL0     H17292   8.501   8.877  10.559 -0.4897  0.7794 -0.8738
  889MOL0     H17293   8.445   8.741  10.353 -2.0310  0.0109  0.2222
  889MOL0     H17294   8.529   8.860  10.252 -0.5172 -2.5922  0.3257
  889MOL0     H17295   8.370   9.028  10.329 -1.8760  1.3196  1.4120
  889MOL0     H17296   8.310   8.930  10.457  1.9766  3.3001  0.2444
  889MOL0     H17297   8.286   8.907  10.149 -0.7761 -3.0776 -1.3259
  889MOL0     H17298   8.244   8.770  10.251  1.2052 -0.1318 -1.9858
  889MOL0     H17299   8.139   9.052  10.315 -0.6580 -0.7552  0.9584
  889MOL0     H17300   8.064   8.894  10.370  0.1610  1.1005  2.1891
  889MOL0     H17301   7.967   8.743  10.178  5.0838  1.5127  0.1008
  889MOL0     H17302   7.786   8.698  10.001  0.8927  1.3083  3.0903
  889MOL0     H17303   7.804   8.800   9.855 -1.7900 -0.8189 -0.6337
  889MOL0     H17304   7.646   8.960   9.961 -0.0962  0.5472  1.6742
  889MOL0     H17305   7.597   8.833  10.081 -0.6100  1.8843  1.1400
  889MOL0     H17306   7.590   8.766   9.784 -2.3252 -1.7983 -1.2403
  889MOL0     H17307   7.538   8.676   9.910 -0.9204  0.9115  0.2895
  889MOL0     H17308   7.343   8.776   9.805 -0.7920 -0.3543 -0.1228
  889MOL0     H17309   7.424   8.943   9.807 -0.3258  0.3752  0.8951
  889MOL0     H17310   7.216   8.877  10.219 -0.4331  1.0676  0.8162
  889MOL0     H17311   6.993   8.903  10.245  1.2486  0.1876  0.7835
  889MOL0     H17312   6.551   8.791  10.228 -1.3584 -1.7216  4.6418
  889MOL0     H17313   6.349   8.850  10.307  0.7337 -0.9576 -1.0310
  889MOL0     H17314   6.222   9.278  10.257  0.1994 -1.5673 -0.5041
  889MOL0     H17315   6.275   9.278  10.431 -0.8188  0.7901  1.0320
  889MOL0     H17316   6.008   9.180  10.322 -1.2631 -0.3817  2.2847
  889MOL0     H17317   6.028   9.344  10.379 -0.6098 -0.3174 -1.1876
  889MOL0     H17318   6.127   9.224  10.596  0.7964  0.4566 -0.7683
  889MOL0     H17319   6.037   9.084  10.546  2.6875  1.1190  6.1208
  889MOL0     H17320   5.891   9.350  10.559 -2.0436 -0.4242 -0.6534
  889MOL0     H17321   5.835   9.195  10.509  1.4832 -1.2712 -0.9130
  889MOL0     H17322   5.970   9.233  10.784  0.5147 -0.6181 -0.5072
  889MOL0     H17323   5.886   9.092  10.729  2.5574  0.1880 -0.5242
  889MOL0     H17324   5.753   9.198  10.891  1.6384 -0.0538  0.4464
  889MOL0     H17325   5.682   9.259  10.730  0.9170  1.3962 -1.0460
  889MOL0     H17326   5.891   9.419  10.880  0.4820  0.7700 -0.5358
  889MOL0     H17327   5.778   9.465  10.757 -6.6169  2.5548  3.1613
  889MOL0     H17328   5.724   9.556  10.986 -2.6668 -1.1821  4.4783
  889MOL0     H17329   5.704   9.396  11.045  0.6880 -1.1101 -1.7722
  889MOL0     H17330   6.453   9.267  10.296 -0.5846 -0.4860 -0.3877
  889MOL0     H17331   6.672   9.195  10.201  0.7845 -0.9667  1.2654
  889MOL0     H17332   6.956   8.994   9.827 -0.1809 -1.0801  0.9882
  889MOL0     H17333   7.192   8.951   9.803  1.1259 -0.3837  1.2688
  889MOL0     H17334   8.940   9.422  10.372 -0.3377 -1.3532 -0.6271
  889MOL0     H17335   9.155   9.521  10.347 -3.0830  2.1276 -1.3517
  889MOL0     H17336   9.602   9.448  10.539  2.1094 -1.7180 -0.5571
  889MOL0     H17337   9.799   9.558  10.561 -2.6645  0.7666  0.5049
  889MOL0     H17338   9.949   9.841  10.232  2.2592  2.4788  0.4512
  889MOL0     H17339  10.011   9.675  10.186  0.9640 -2.1515  1.3138
  889MOL0     H17340  10.150   9.805  10.422 -1.9033 -0.6276 -0.6027
  889MOL0     H17341  10.200   9.691  10.303 -0.5098 -0.0847  2.1372
  889MOL0     H17342  10.146   9.987  10.270  0.2224  0.5360  0.3226
  889MOL0     H17343  10.176   9.874  10.129 -2.3562 -2.1492  0.9850
  889MOL0     H17344  10.372   9.960  10.351  2.5561 -1.0537  0.4291
  889MOL0     H17345  10.386   9.801  10.270 -2.8414 -0.3504  3.7235
  889MOL0     H17346  10.542  10.068   9.973 -0.4694 -0.0852 -0.0957
  889MOL0     H17347   9.821   9.627  10.144 -1.8382 -0.7283 -0.6517
  889MOL0     H17348   9.593   9.515  10.119  1.0792  1.4427 -0.5814
  890MOL0     O17349   8.017   3.700   4.870 -0.1662 -0.0913 -0.2077
  890MOL0     C17350   7.988   3.624   4.783 -0.7405  0.2310 -0.1664
  890MOL0     O17351   8.077   3.538   4.721  0.9471  0.1921  0.4170
  890MOL0     C17352   8.206   3.534   4.762  0.9142 -0.5286  0.8889
  890MOL0     C17353   8.233   3.437   4.859  0.5216  0.2897  0.4857
  890MOL0     C17354   8.365   3.428   4.903  0.0761 -0.0977  0.1006
  890MOL0     C17355   8.461   3.527   4.866 -0.4124  0.5635 -0.9244
  890MOL0     O17356   8.592   3.527   4.908 -0.1427  0.1808 -0.0244
  890MOL0     C17357   8.637   3.444   5.016 -0.7799  0.5271 -0.3045
  890MOL0     C17358   8.783   3.437   5.030  0.1906 -0.7262 -0.3518
  890MOL0     C17359   8.842   3.341   4.924 -0.3471  0.4525  0.3476
  890MOL0     C17360   8.847   3.402   4.782  0.6268 -0.2058 -0.8122
  890MOL0     C17361   8.913   3.333   4.669  0.4314 -0.8221 -0.0384
  890MOL0     C17362   9.062   3.305   4.707 -0.1553  0.6281  0.0982
  890MOL0     C17363   9.141   3.269   4.574  1.2166 -0.3381  0.0322
  890MOL0     C17364   9.170   3.390   4.479 -0.0043  0.5737 -0.2079
  890MOL0     N17365   9.058   3.414   4.383  0.0693 -0.8070 -0.0629
  890MOL0     C17366   8.963   3.513   4.391  0.2545 -0.0957 -0.2228
  890MOL0     C17367   8.874   3.475   4.295  0.4547 -0.6486  0.3516
  890MOL0     C17368   8.748   3.556   4.279  1.3059  0.4811 -0.8693
  890MOL0     C17369   8.625   3.475   4.330  0.0324  0.2664 -0.1842
  890MOL0     C17370   8.500   3.556   4.306 -0.1665 -0.0787 -0.2687
  890MOL0     C17371   8.387   3.457   4.272 -0.3584  0.3212 -0.6528
  890MOL0     O17372   8.399   3.407   4.136 -0.4049  0.3454 -0.0159
  890MOL0     C17373   8.285   3.356   4.071  0.6275 -0.4348  0.5752
  890MOL0     C17374   8.152   3.366   4.120 -0.4790  0.5711 -0.3943
  890MOL0     C17375   8.045   3.317   4.060 -0.5190  0.1237  0.3591
  890MOL0     C17376   8.054   3.260   3.934  0.1739  0.4074 -0.9686
  890MOL0     C17377   7.928   3.217   3.867 -0.7601  0.1951 -0.2848
  890MOL0     O17378   7.943   3.178   3.738 -0.0281 -0.6164 -0.4095
  890MOL0     C17379   7.830   3.109   3.673 -0.4195 -1.0252 -0.5097
  890MOL0     C17380   7.857   2.980   3.630 -0.5535 -0.6990 -0.1357
  890MOL0     C17381   7.751   2.905   3.590  0.2989 -0.2793 -0.0158
  890MOL0     C17382   7.621   2.961   3.559  0.9616 -0.6188  0.1486
  890MOL0     O17383   7.514   2.904   3.504 -0.2780 -0.0455  0.7747
  890MOL0     C17384   7.524   2.764   3.464 -0.4003 -0.3152  0.2967
  890MOL0     C17385   7.395   2.704   3.411  0.7258  0.4945 -0.1981
  890MOL0     C17386   7.415   2.569   3.350  0.2196 -0.2034 -0.7359
  890MOL0     C17387   7.288   2.479   3.324  0.8057 -0.5775  0.4743
  890MOL0     C17388   7.170   2.561   3.267  0.1037  0.5079 -0.5061
  890MOL0     C17389   7.082   2.459   3.189  0.0424 -0.4529 -0.9782
  890MOL0     C17390   6.965   2.524   3.119 -0.8435  0.2941  0.0350
  890MOL0     C17391   6.885   2.422   3.027 -0.5273  0.4991 -0.6359
  890MOL0    Cl17392   6.859   2.275   3.130  0.0960  0.1105 -0.2539
  890MOL0     C17393   7.602   3.094   3.578 -0.2682 -0.1355 -0.4192
  890MOL0     C17394   7.706   3.166   3.638  0.5391 -0.0892  0.1681
  890MOL0     O17395   7.821   3.209   3.932 -0.4627 -0.7268 -0.4279
  890MOL0     C17396   8.182   3.253   3.873  0.4230 -0.5676  0.3501
  890MOL0     C17397   8.291   3.293   3.947 -0.0010 -0.0797 -0.3616
  890MOL0     N17398   8.910   3.350   4.242  0.6881 -0.1821  0.2340
  890MOL0     N17399   9.030   3.321   4.289 -0.5037  0.1479  0.0062
  890MOL0     C17400   8.432   3.628   4.776 -0.4876 -0.2145 -0.0782
  890MOL0     C17401   8.303   3.629   4.727 -0.5694  0.9386 -0.6890
  890MOL0     C17402   7.845   3.616   4.736 -0.7260 -0.0274  0.4489
  890MOL0     C17403   7.796   3.507   4.652  0.8024 -0.5871  0.1579
  890MOL0     C17404   7.661   3.511   4.617  0.5097  0.7210  0.2533
  890MOL0     C17405   7.577   3.621   4.647 -0.5523 -0.8617 -0.1378
  890MOL0     O17406   7.443   3.615   4.599  0.0876  0.1306 -0.1492
  890MOL0     C17407   7.340   3.706   4.654  0.4788  0.9952 -0.3106
  890MOL0     C17408   7.206   3.656   4.606 -0.5839 -0.4122 -0.4288
  890MOL0     C17409   7.179   3.672   4.455 -0.6701 -0.3827 -0.3105
  890MOL0     C17410   7.047   3.611   4.420  0.6635  0.1112 -0.0462
  890MOL0     C17411   6.941   3.690   4.487  0.5180 -0.4357  0.3438
  890MOL0     C17412   6.871   3.762   4.552 -0.0536  0.4864  0.8431
  890MOL0     C17413   7.624   3.725   4.729 -0.2007  0.4252  0.7599
  890MOL0     C17414   7.757   3.718   4.778 -0.0680 -0.1782  0.0843
  890MOL0     H17415   8.159   3.367   4.896  0.3834  0.8327  1.2514
  890MOL0     H17416   8.397   3.346   4.966  1.2481  1.7469  2.0268
  890MOL0     H17417   8.598   3.343   5.005  0.0724  0.1137  0.3454
  890MOL0     H17418   8.602   3.483   5.112  2.6393  1.1029  0.8632
  890MOL0     H17419   8.821   3.403   5.127  0.7850 -0.6292 -0.5437
  890MOL0     H17420   8.814   3.539   5.004 -3.6575  1.2838  2.0372
  890MOL0     H17421   8.783   3.249   4.930 -0.3986  0.5178  0.8573
  890MOL0     H17422   8.943   3.319   4.961 -0.8940  0.6057  2.0311
  890MOL0     H17423   8.741   3.425   4.763  0.6719  2.0841  1.1759
  890MOL0     H17424   8.896   3.500   4.782  4.0706 -1.6759 -4.2038
  890MOL0     H17425   8.895   3.385   4.574  0.5382 -2.8458 -1.2493
  890MOL0     H17426   8.854   3.241   4.659 -2.2215  0.3714  3.0919
  890MOL0     H17427   9.079   3.236   4.790 -0.9078  1.1851  0.7359
  890MOL0     H17428   9.097   3.403   4.740  0.5356 -0.2625  2.1011
  890MOL0     H17429   9.238   3.226   4.601  1.3975  0.3222  0.4595
  890MOL0     H17430   9.082   3.188   4.530  1.0605 -2.6920  4.0216
  890MOL0     H17431   9.254   3.364   4.414  0.3489 -3.0212  1.4575
  890MOL0     H17432   9.196   3.478   4.538 -2.9267  1.3549  0.0588
  890MOL0     H17433   8.945   3.591   4.464 -2.6415 -1.1829  0.3282
  890MOL0     H17434   8.730   3.587   4.176  0.1779  0.5131 -0.6779
  890MOL0     H17435   8.754   3.651   4.333  0.6474  1.5258 -2.5724
  890MOL0     H17436   8.631   3.436   4.431 -1.5866 -2.3207 -0.9943
  890MOL0     H17437   8.621   3.385   4.268  1.6761 -1.0931  1.5818
  890MOL0     H17438   8.478   3.613   4.397 -2.4954  1.7175 -1.8543
  890MOL0     H17439   8.514   3.624   4.222 -3.0744  2.7987  1.3631
  890MOL0     H17440   8.301   3.522   4.289 -0.6759  0.2206 -1.7617
  890MOL0     H17441   8.386   3.381   4.350  1.3122  0.4950 -0.4392
  890MOL0     H17442   8.139   3.430   4.207  0.1264  0.5219 -0.2653
  890MOL0     H17443   7.947   3.320   4.104  0.2723  2.1837  2.1413
  890MOL0     H17444   7.950   2.928   3.653 -0.4935  0.0450  1.5000
  890MOL0     H17445   7.764   2.797   3.581  1.2806 -0.0772 -1.3332
  890MOL0     H17446   7.556   2.699   3.546  1.6319 -1.6215 -1.4428
  890MOL0     H17447   7.593   2.756   3.381 -0.8617 -3.6563  0.1054
  890MOL0     H17448   7.334   2.763   3.342  0.9930  0.2123 -0.6725
  890MOL0     H17449   7.331   2.712   3.500  2.6249  2.8299  1.0982
  890MOL0     H17450   7.478   2.513   3.420  0.0327  1.9659  1.2992
  890MOL0     H17451   7.468   2.587   3.256  3.5009 -2.4214  0.4972
  890MOL0     H17452   7.318   2.392   3.265  1.1341 -1.0775  1.3463
  890MOL0     H17453   7.256   2.435   3.419  0.6099 -1.5815 -0.0453
  890MOL0     H17454   7.210   2.630   3.192 -2.4362  0.5304 -1.9296
  890MOL0     H17455   7.107   2.614   3.338  1.3166  2.6028 -0.9192
  890MOL0     H17456   7.062   2.380   3.261 -0.8906 -0.1988 -0.9531
  890MOL0     H17457   7.142   2.411   3.111 -0.1852  0.1306 -1.5231
  890MOL0     H17458   6.894   2.568   3.189 -0.3490 -0.4590  1.0406
  890MOL0     H17459   7.008   2.603   3.057  0.4443 -0.6565 -0.3374
  890MOL0     H17460   6.946   2.401   2.938  3.3931  1.3695  1.6005
  890MOL0     H17461   6.793   2.471   2.992 -0.1298  0.6429 -1.5128
  890MOL0     H17462   7.512   3.155   3.574  0.2925  0.6846 -0.7616
  890MOL0     H17463   7.696   3.272   3.660  2.6918 -0.4327  3.7045
  890MOL0     H17464   8.190   3.219   3.770  1.6677  0.3833  0.1059
  890MOL0     H17465   8.382   3.296   3.887 -0.4495  3.9113 -1.1439
  890MOL0     H17466   8.502   3.706   4.746 -1.6954  0.6053 -0.8821
  890MOL0     H17467   8.288   3.708   4.654  2.3072  1.3148 -0.9804
  890MOL0     H17468   7.849   3.421   4.613  2.6026 -0.0992  1.3938
  890MOL0     H17469   7.613   3.431   4.562  1.7409 -0.8157  1.3128
  890MOL0     H17470   7.360   3.810   4.628 -0.7578  1.3719  0.1644
  890MOL0     H17471   7.348   3.703   4.763  1.0153  0.5744 -0.3628
  890MOL0     H17472   7.206   3.549   4.627  2.2336 -0.2578  0.9492
  890MOL0     H17473   7.124   3.697   4.665 -1.9322 -1.2962 -1.6429
  890MOL0     H17474   7.258   3.622   4.399 -0.9218  0.4853 -1.4816
  890MOL0     H17475   7.187   3.776   4.422  2.6321 -0.9245 -1.6517
  890MOL0     H17476   7.028   3.619   4.313  0.2359  1.3263  0.0977
  890MOL0     H17477   7.046   3.505   4.444  3.3120 -0.0208 -0.2515
  890MOL0     H17478   6.809   3.832   4.606 -0.8252  2.7562 -2.6547
  890MOL0     H17479   7.571   3.813   4.761 -1.9828 -0.9594  1.7493
  890MOL0     H17480   7.785   3.807   4.834 -2.0390  1.6067 -1.5975
  891MOL0     O17481   5.478   9.053  10.736  0.6549 -0.2562  0.0824
  891MOL0     C17482   5.447   9.003  10.631 -0.4236  0.2926  0.2841
  891MOL0     O17483   5.330   9.007  10.576  0.3957 -0.1109  0.2783
  891MOL0     C17484   5.224   9.081  10.620 -0.2026  1.8432 -0.6849
  891MOL0     C17485   5.100   9.019  10.604  0.0104  0.2790  0.3724
  891MOL0     C17486   4.988   9.073  10.655  0.5795  1.0325 -0.1690
  891MOL0     C17487   4.984   9.205  10.711  0.5385  0.6461  0.0045
  891MOL0     O17488   4.879   9.266  10.773  0.2964 -0.8193  0.6548
  891MOL0     C17489   4.746   9.214  10.724 -0.3664 -1.4820 -0.0907
  891MOL0     C17490   4.635   9.300  10.780 -0.3551  0.5669 -0.6444
  891MOL0     C17491   4.518   9.293  10.690  0.1421 -0.3132  0.1907
  891MOL0     C17492   4.408   9.367  10.771 -0.1545  1.0987  0.2944
  891MOL0     C17493   4.288   9.408  10.675 -0.0919 -0.8353  0.9076
  891MOL0     C17494   4.222   9.290  10.612 -0.2128 -0.2808  0.2303
  891MOL0     C17495   4.101   9.344  10.526  0.1367  0.1183  0.2885
  891MOL0     C17496   4.000   9.228  10.496  0.3315  0.0005  0.5149
  891MOL0     N17497   3.886   9.218  10.589  0.1979  0.0434  0.4095
  891MOL0     C17498   3.818   9.327  10.618  0.4705 -0.0021 -0.2207
  891MOL0     C17499   3.743   9.292  10.727  0.0361  0.6336 -0.0795
  891MOL0     C17500   3.658   9.379  10.816  0.7531 -0.3084  0.0901
  891MOL0     C17501   3.524   9.419  10.752 -0.6072  0.0023 -0.3730
  891MOL0     C17502   3.449   9.523  10.832 -0.2027  0.2352  1.0636
  891MOL0     C17503   3.416   9.483  10.977  0.0879  1.0814  0.1014
  891MOL0     O17504   3.341   9.581  11.044  0.1367  0.2465 -0.2459
  891MOL0     C17505   3.210   9.561  11.075 -0.0132 -0.5397  0.4923
  891MOL0     C17506   3.145   9.685  11.094  0.1459 -0.6426  0.1960
  891MOL0     C17507   3.010   9.697  11.104  0.4439 -0.7127 -0.6134
  891MOL0     C17508   2.927   9.581  11.107  0.0257  0.1622 -0.1919
  891MOL0     C17509   2.775   9.593  11.126  0.9246  0.6625  0.1787
  891MOL0     O17510   2.698   9.481  11.118  0.5047 -0.2884 -0.7263
  891MOL0     C17511   2.560   9.491  11.136 -0.5954  0.6628  0.1533
  891MOL0     C17512   2.474   9.590  11.083 -0.1964  0.9862  0.0757
  891MOL0     C17513   2.333   9.571  11.090 -0.3389 -0.4114  0.6835
  891MOL0     C17514   2.273   9.463  11.154 -0.4924  0.6202 -0.7523
  891MOL0     O17515   2.136   9.431  11.158  0.1238  0.3773 -0.2832
  891MOL0     C17516   2.058   9.525  11.086  0.4151  0.1508 -0.6419
  891MOL0     C17517   1.924   9.471  11.085 -0.0859  0.3763 -0.2768
  891MOL0     C17518   1.835   9.576  11.007 -0.4503  0.7622 -0.5634
  891MOL0     C17519   1.697   9.514  10.995 -0.2126  1.1871  0.0785
  891MOL0     C17520   1.614   9.590  10.896  0.5495 -0.0111 -0.9413
  891MOL0     C17521   1.549   9.728  10.947  0.6595  0.7407  0.3118
  891MOL0     C17522   1.429   9.768  10.862  0.2139 -0.0930 -0.0848
  891MOL0     C17523   1.387   9.913  10.905 -0.7319  0.3061 -1.1775
  891MOL0    Cl17524   1.306   9.912  11.069  0.1996 -0.3198  0.2042
  891MOL0     C17525   2.363   9.376  11.225 -0.5033  0.3963  0.2282
  891MOL0     C17526   2.507   9.384  11.211 -0.7508  0.3800  0.3175
  891MOL0     O17527   2.736   9.710  11.130 -0.1804 -0.0038  1.0500
  891MOL0     C17528   2.990   9.456  11.089  0.3898 -0.0701  0.1116
  891MOL0     C17529   3.132   9.446  11.062  0.2458  1.2493  0.7202
  891MOL0     N17530   3.777   9.160  10.760 -0.1637 -0.3468  0.6064
  891MOL0     N17531   3.868   9.116  10.673  0.3844  0.5171 -0.6570
  891MOL0     C17532   5.105   9.275  10.711  0.4433  0.0957  0.3931
  891MOL0     C17533   5.223   9.210  10.667  0.8853 -0.0601 -0.6292
  891MOL0     C17534   5.561   8.931  10.557  0.3672 -0.0978 -0.7691
  891MOL0     C17535   5.548   8.880  10.430  1.5221 -0.3201 -0.1619
  891MOL0     C17536   5.662   8.838  10.357  0.3261 -0.3278  0.2929
  891MOL0     C17537   5.794   8.843  10.413 -0.8535 -0.0743 -0.0493
  891MOL0     O17538   5.903   8.803  10.348  0.7495 -0.1010 -0.8494
  891MOL0     C17539   5.884   8.682  10.263  0.1344 -0.5173  1.1607
  891MOL0     C17540   6.014   8.607  10.207  0.8193 -0.0755  0.0958
  891MOL0     C17541   6.111   8.565  10.315  0.1513  0.0914  0.2697
  891MOL0     C17542   6.215   8.459  10.263  0.2427 -0.4751 -0.5174
  891MOL0     C17543   6.333   8.517  10.188 -0.2423  0.1573 -0.4756
  891MOL0     C17544   6.425   8.577  10.127  0.2860 -0.2240 -0.8126
  891MOL0     C17545   5.807   8.871  10.553  0.3423 -0.7704  0.2187
  891MOL0     C17546   5.691   8.919  10.618  0.0365  0.6483 -0.3255
  891MOL0     H17547   5.107   8.915  10.575  1.6328  0.1685  1.0607
  891MOL0     H17548   4.898   9.013  10.645  0.6042  0.8217  0.8055
  891MOL0     H17549   4.732   9.110  10.752 -2.4618 -1.2740 -0.2336
  891MOL0     H17550   4.744   9.225  10.616 -4.2010  2.4504  0.0988
  891MOL0     H17551   4.668   9.403  10.796  0.7632 -0.1689  2.4924
  891MOL0     H17552   4.609   9.257  10.876  4.6175 -2.5514 -0.3226
  891MOL0     H17553   4.487   9.189  10.672  2.4709 -0.6029 -2.8492
  891MOL0     H17554   4.538   9.343  10.595 -2.1982  2.1747  0.8682
  891MOL0     H17555   4.369   9.296  10.844  0.9980  1.4663  1.3150
  891MOL0     H17556   4.443   9.454  10.828 -0.3805  1.4585 -0.1121
  891MOL0     H17557   4.323   9.476  10.597  2.2249 -2.7360  0.1741
  891MOL0     H17558   4.208   9.449  10.737  1.6253  0.3322  2.4324
  891MOL0     H17559   4.189   9.228  10.695 -2.0827  2.5435  1.7645
  891MOL0     H17560   4.290   9.237  10.544  0.8383  3.0955 -1.6352
  891MOL0     H17561   4.051   9.430  10.571 -0.7120 -1.0668  1.6864
  891MOL0     H17562   4.136   9.378  10.428  1.3302 -0.2615  0.5671
  891MOL0     H17563   4.058   9.136  10.498  1.1507  0.5000  0.3661
  891MOL0     H17564   3.965   9.237  10.392  1.1540 -3.0790 -0.1128
  891MOL0     H17565   3.822   9.421  10.564 -0.6554  0.2920  0.1578
  891MOL0     H17566   3.713   9.470  10.843  1.5515 -0.9531  0.6847
  891MOL0     H17567   3.648   9.326  10.911 -1.9695  0.5626  0.3754
  891MOL0     H17568   3.463   9.329  10.738 -0.0206 -0.5272  0.3746
  891MOL0     H17569   3.548   9.471  10.659  1.3088 -0.4061 -0.1395
  891MOL0     H17570   3.506   9.616  10.830  0.5184 -0.2118 -1.0971
  891MOL0     H17571   3.351   9.540  10.785 -0.5831 -0.3753  1.6162
  891MOL0     H17572   3.511   9.481  11.032  1.6890  0.2724 -2.5192
  891MOL0     H17573   3.364   9.387  10.976 -0.0254  1.1512 -0.9138
  891MOL0     H17574   3.208   9.774  11.085  0.3463 -0.7708  0.3407
  891MOL0     H17575   2.976   9.800  11.113  0.7031 -0.4785 -2.0920
  891MOL0     H17576   2.517   9.667  11.020  2.3523  0.5278  1.1297
  891MOL0     H17577   2.279   9.651  11.040 -0.6308 -0.7650  0.4352
  891MOL0     H17578   2.096   9.537  10.983 -0.1359  2.6044 -0.6281
  891MOL0     H17579   2.052   9.624  11.131  0.3144 -0.5724  0.9909
  891MOL0     H17580   1.884   9.460  11.186  0.2429  1.5453 -0.0066
  891MOL0     H17581   1.920   9.371  11.040 -1.9528  0.6121 -0.7283
  891MOL0     H17582   1.860   9.590  10.902 -3.5902 -0.3083 -1.5771
  891MOL0     H17583   1.836   9.678  11.047 -1.1884  0.3406  0.5817
  891MOL0     H17584   1.697   9.408  10.965  1.6383  0.6063  1.8753
  891MOL0     H17585   1.653   9.516  11.095 -0.0104  1.9159  0.1552
  891MOL0     H17586   1.528   9.530  10.864  0.1787  0.8156 -1.5219
  891MOL0     H17587   1.678   9.596  10.807 -0.6410 -1.6772 -1.9579
  891MOL0     H17588   1.627   9.805  10.951  1.9743 -0.3524 -2.0798
  891MOL0     H17589   1.510   9.701  11.046  0.9255 -1.4602 -0.1327
  891MOL0     H17590   1.455   9.773  10.756 -0.5917  0.8004 -0.2591
  891MOL0     H17591   1.346   9.696  10.859  0.9198 -0.8965 -0.8549
  891MOL0     H17592   1.305   9.944  10.841 -2.0010 -3.0633 -1.4023
  891MOL0     H17593   1.474   9.979  10.901 -0.8942  0.8148  1.4780
  891MOL0     H17594   2.321   9.297  11.286  0.5430 -1.0716 -0.8889
  891MOL0     H17595   2.569   9.310  11.261 -0.6049  1.4141  1.7333
  891MOL0     H17596   2.936   9.361  11.088  0.3742 -0.0676  0.4020
  891MOL0     H17597   3.169   9.346  11.046 -1.9913  0.5367 -0.4803
  891MOL0     H17598   5.116   9.377  10.745  1.9282  0.3550 -0.7647
  891MOL0     H17599   5.311   9.270  10.686 -0.0351  0.9538  0.5390
  891MOL0     H17600   5.455   8.902  10.380  0.0763  0.2400  2.6147
  891MOL0     H17601   5.649   8.835  10.250 -1.1149 -0.8226  0.4600
  891MOL0     H17602   5.825   8.702  10.173 -0.0609 -0.2874  1.3411
  891MOL0     H17603   5.833   8.609  10.327 -1.6360 -0.9428 -0.6233
  891MOL0     H17604   5.983   8.517  10.153  0.4864  0.5608 -0.7974
  891MOL0     H17605   6.059   8.668  10.128 -3.0228  0.9746 -1.4931
  891MOL0     H17606   6.069   8.536  10.412 -1.1763  2.0869  0.3634
  891MOL0     H17607   6.171   8.651  10.348 -1.6496  1.1306  1.0333
  891MOL0     H17608   6.254   8.414  10.354 -2.8363 -0.9237  0.7100
  891MOL0     H17609   6.166   8.382  10.203  1.4613  0.1323 -2.3767
  891MOL0     H17610   6.489   8.637  10.065  0.0961  0.2461 -0.5538
  891MOL0     H17611   5.905   8.867  10.600  0.7257 -0.8257 -0.5669
  891MOL0     H17612   5.701   8.946  10.723  1.1703  1.5583 -0.6504
  892MOL0     O17613   3.443  10.917   3.549 -0.0272  0.0921 -0.3197
  892MOL0     C17614   3.478  10.866   3.438  0.3094  0.0306  0.1867
  892MOL0     O17615   3.443  10.741   3.394  0.4167  0.3701  0.0761
  892MOL0     C17616   3.342  10.675   3.463 -0.2911  0.4425  0.3031
  892MOL0     C17617   3.354  10.556   3.535 -0.7547  0.3763 -0.3550
  892MOL0     C17618   3.253  10.505   3.611 -0.1695  0.5721  0.7076
  892MOL0     C17619   3.130  10.566   3.604 -0.4278  0.4919 -0.1130
  892MOL0     O17620   3.032  10.495   3.671  0.1030 -0.1899 -0.0738
  892MOL0     C17621   2.888  10.523   3.663  0.2287  0.5444  0.5988
  892MOL0     C17622   2.844  10.484   3.515  0.7683 -0.0945 -0.1013
  892MOL0     C17623   2.687  10.501   3.515  0.4167  0.5925  0.4568
  892MOL0     C17624   2.621  10.462   3.376  0.1704  0.0974 -0.6622
  892MOL0     C17625   2.468  10.450   3.390  0.2315  0.0514 -0.0234
  892MOL0     C17626   2.396  10.590   3.431  0.0860  0.3625 -0.1827
  892MOL0     C17627   2.235  10.584   3.430  0.3702 -0.0604 -0.9074
  892MOL0     C17628   2.176  10.579   3.286  0.4685 -0.1862  0.0565
  892MOL0     N17629   2.032  10.579   3.298  1.0548 -0.4264 -0.3638
  892MOL0     C17630   1.944  10.683   3.305  0.6898  0.6462  0.0263
  892MOL0     C17631   1.824  10.623   3.292  0.0763 -0.0337  0.0639
  892MOL0     C17632   1.693  10.690   3.280 -0.2606  0.4107  0.0500
  892MOL0     C17633   1.621  10.649   3.153 -0.1125  0.1675 -0.8049
  892MOL0     C17634   1.476  10.693   3.137  0.1033  0.6209 -0.2748
  892MOL0     C17635   1.397  10.732   3.266 -0.1383  0.4092 -0.1026
  892MOL0     O17636   1.274  10.799   3.218 -0.7786  1.0470  0.2546
  892MOL0     C17637   1.176  10.702   3.192 -0.2257  0.8844 -0.6495
  892MOL0     C17638   1.083  10.684   3.301 -0.9140 -0.6874 -0.3755
  892MOL0     C17639   0.971  10.600   3.281  0.1498  0.3172 -1.0122
  892MOL0     C17640   0.942  10.540   3.167  0.1116 -0.4868  0.4293
  892MOL0     C17641   0.811  10.471   3.136 -0.0120 -0.0550  0.2916
  892MOL0     O17642   0.787  10.423   3.015 -0.1169  1.0760 -0.1687
  892MOL0     C17643   0.665  10.378   2.979 -0.8775  1.0077 -1.0492
  892MOL0     C17644   0.645  10.250   2.918  0.2537  0.2370 -0.4131
  892MOL0     C17645   0.522  10.201   2.885 -0.5561  0.5808  0.4927
  892MOL0     C17646   0.411  10.278   2.891 -0.1056  0.5911 -0.0753
  892MOL0     O17647   0.290  10.229   2.855  0.7622  0.3284  0.0051
  892MOL0     C17648   0.227  10.165   2.971 -0.9604 -0.3319  0.4089
  892MOL0     C17649   0.089  10.210   2.961  0.5965 -0.2056 -0.4201
  892MOL0     C17650  -0.009  10.104   2.903 -0.8210  0.6983 -0.3111
  892MOL0     C17651  -0.032  10.001   3.019  0.3657  0.2203  0.1141
  892MOL0     C17652  -0.135   9.893   2.977  0.9506  1.2655 -0.0938
  892MOL0     C17653  -0.278   9.945   2.936 -0.6363 -0.4968 -0.0453
  892MOL0     C17654  -0.384   9.835   2.915 -0.1661  1.5297  0.5222
  892MOL0     C17655  -0.518   9.892   2.859 -0.1495 -1.2962  0.3419
  892MOL0    Cl17656  -0.660   9.784   2.888 -0.4111  0.3416 -0.0872
  892MOL0     C17657   0.423  10.409   2.950 -1.0210  0.9116 -0.1200
  892MOL0     C17658   0.550  10.458   2.985  0.3688 -0.2496 -0.2129
  892MOL0     O17659   0.743  10.454   3.236 -0.3820  0.2877 -0.0539
  892MOL0     C17660   1.039  10.557   3.060 -0.1236 -0.7679  0.5109
  892MOL0     C17661   1.152  10.632   3.070 -0.0565 -0.4062 -0.1649
  892MOL0     N17662   1.841  10.482   3.266  0.1248  0.3675 -0.4240
  892MOL0     N17663   1.963  10.464   3.267  0.2301 -0.3154  0.4114
  892MOL0     C17664   3.109  10.677   3.531  0.5317  1.6520  0.2005
  892MOL0     C17665   3.214  10.729   3.455  0.0958  0.2028 -0.0259
  892MOL0     C17666   3.583  10.937   3.364 -0.7063  0.3435  0.6622
  892MOL0     C17667   3.672  11.029   3.424  0.7264 -0.4864 -0.4012
  892MOL0     C17668   3.784  11.073   3.353  0.3379  0.3784 -0.9035
  892MOL0     C17669   3.809  11.037   3.225 -0.3589 -0.5069 -0.3739
  892MOL0     O17670   3.918  11.099   3.172 -0.6515 -0.4408  0.5130
  892MOL0     C17671   3.928  11.083   3.027 -0.1467  0.2418  0.0060
  892MOL0     C17672   4.049  11.166   2.984  0.2193  0.1445 -0.0192
  892MOL0     C17673   4.176  11.097   3.037  0.6299  0.2468  0.2479
  892MOL0     C17674   4.211  10.965   2.968 -0.1219  0.1383  0.0849
  892MOL0     C17675   4.164  10.847   3.048  0.2286 -0.1261  0.9497
  892MOL0     C17676   4.118  10.747   3.098  0.3217 -0.4301  0.1109
  892MOL0     C17677   3.709  10.968   3.163 -0.2340  0.8023  0.3857
  892MOL0     C17678   3.608  10.899   3.232 -0.6196 -0.0744  0.1448
  892MOL0     H17679   3.449  10.504   3.533 -0.8446  0.2231 -0.6056
  892MOL0     H17680   3.271  10.412   3.665 -0.7475 -1.1824 -1.9682
  892MOL0     H17681   2.862  10.627   3.685 -0.8599  0.4754 -0.2669
  892MOL0     H17682   2.848  10.455   3.740 -1.7033 -0.7163 -1.3914
  892MOL0     H17683   2.866  10.379   3.492  0.9558 -0.0192 -0.2676
  892MOL0     H17684   2.894  10.547   3.441 -0.6861 -0.1415 -1.1703
  892MOL0     H17685   2.669  10.605   3.543 -3.9606 -0.9510  4.7538
  892MOL0     H17686   2.644  10.437   3.593 -0.7138  0.4931 -0.2293
  892MOL0     H17687   2.647  10.532   3.296 -1.7301  2.3166  0.5621
  892MOL0     H17688   2.665  10.363   3.357 -1.0962 -1.0260  1.9089
  892MOL0     H17689   2.453  10.389   3.479  2.6612  1.6039  1.5738
  892MOL0     H17690   2.422  10.423   3.295 -2.7353  2.0883  0.7072
  892MOL0     H17691   2.436  10.664   3.361  0.5688 -0.1357 -0.4410
  892MOL0     H17692   2.429  10.630   3.528  3.4020  1.4660 -1.6054
  892MOL0     H17693   2.198  10.499   3.488 -1.0515  1.5430  0.6220
  892MOL0     H17694   2.195  10.676   3.472 -0.7391  1.1160 -4.1901
  892MOL0     H17695   2.206  10.491   3.229 -2.1589 -0.2863 -1.3548
  892MOL0     H17696   2.209  10.671   3.237 -1.6466  0.7477  0.2586
  892MOL0     H17697   1.948  10.791   3.313  0.8797  0.7415 -1.1553
  892MOL0     H17698   1.702  10.799   3.273 -1.0874  0.6859  2.2629
  892MOL0     H17699   1.635  10.676   3.372  0.0063  3.9320  0.8878
  892MOL0     H17700   1.626  10.540   3.157 -2.7778 -0.0636  4.6738
  892MOL0     H17701   1.667  10.697   3.065 -0.0397  2.2961  0.3379
  892MOL0     H17702   1.471  10.774   3.064  0.3728 -0.5392 -1.6335
  892MOL0     H17703   1.423  10.607   3.094  0.2976  0.6756 -0.6276
  892MOL0     H17704   1.454  10.809   3.318 -1.2761  2.3627 -1.5824
  892MOL0     H17705   1.363  10.646   3.325 -1.7614  0.4002 -0.9914
  892MOL0     H17706   1.114  10.732   3.393 -1.5805 -1.9610  0.5489
  892MOL0     H17707   0.911  10.582   3.370  0.7890  2.7856  0.0073
  892MOL0     H17708   0.737  10.194   2.904  0.3732  0.1926  0.5335
  892MOL0     H17709   0.508  10.098   2.853  0.7774  0.4493  0.2603
  892MOL0     H17710   0.280  10.189   3.064 -1.0480 -0.3600  0.4659
  892MOL0     H17711   0.233  10.057   2.953  0.0829  0.1416 -2.5797
  892MOL0     H17712   0.071  10.292   2.890 -3.0599  0.5266  1.0960
  892MOL0     H17713   0.052  10.238   3.060 -1.4887 -1.1349 -0.8680
  892MOL0     H17714   0.045  10.064   2.816  3.4562  1.5862  1.6857
  892MOL0     H17715  -0.104  10.151   2.876  0.4356  1.7121 -3.3484
  892MOL0     H17716   0.056   9.947   3.056  0.9359  1.8734  1.2945
  892MOL0     H17717  -0.063  10.057   3.108  0.5374 -0.6032  0.6993
  892MOL0     H17718  -0.140   9.828   3.065  2.1944  0.5872 -0.4873
  892MOL0     H17719  -0.094   9.831   2.896  0.5012  1.5322 -0.5319
  892MOL0     H17720  -0.267   9.996   2.840  0.1278  0.0732  0.3366
  892MOL0     H17721  -0.314  10.025   3.001 -1.9985  0.4594 -1.8752
  892MOL0     H17722  -0.345   9.758   2.849  0.6872 -0.8971  3.6107
  892MOL0     H17723  -0.387   9.773   3.006 -0.6757 -1.4239 -1.3783
  892MOL0     H17724  -0.507   9.897   2.750  2.3219  0.6911  0.5849
  892MOL0     H17725  -0.532   9.988   2.911  2.6967 -1.2629  1.2218
  892MOL0     H17726   0.327  10.461   2.954 -1.1213  0.7163  0.0253
  892MOL0     H17727   0.552  10.558   3.029  0.6183 -0.9465  1.4444
  892MOL0     H17728   1.021  10.506   2.966 -2.3307 -0.9302  0.9529
  892MOL0     H17729   1.218  10.639   2.984 -1.2137  1.2844 -0.9889
  892MOL0     H17730   3.008  10.715   3.519 -0.2657  0.1350  1.5843
  892MOL0     H17731   3.206  10.823   3.401  3.5058 -0.1127 -1.3118
  892MOL0     H17732   3.662  11.065   3.526 -2.0375 -0.1417 -0.6975
  892MOL0     H17733   3.854  11.136   3.408  2.1351 -3.4768  1.7276
  892MOL0     H17734   3.837  11.118   2.976 -0.7574 -1.3084 -0.0106
  892MOL0     H17735   3.937  10.979   2.994 -3.5738 -0.2164  0.0844
  892MOL0     H17736   4.065  11.154   2.876 -0.5663 -0.7518 -0.0437
  892MOL0     H17737   4.046  11.271   3.015 -0.8817 -0.8689  3.7869
  892MOL0     H17738   4.171  11.076   3.144 -0.5282  0.5463  0.2652
  892MOL0     H17739   4.261  11.163   3.016  1.4358 -1.4425 -2.2429
  892MOL0     H17740   4.158  10.957   2.872 -0.9775  0.8801  0.4840
  892MOL0     H17741   4.320  10.954   2.959  0.2475  1.9758  1.7896
  892MOL0     H17742   4.076  10.670   3.159  0.1525 -0.4414 -0.0192
  892MOL0     H17743   3.712  10.943   3.057 -0.2712  2.4217 -0.0124
  892MOL0     H17744   3.548  10.829   3.174 -1.2054 -0.1733  0.8527
  893MOL0     O17745   4.533   8.107   8.473 -0.5066  0.1649 -0.9221
  893MOL0     C17746   4.639   8.172   8.482  0.3492 -0.1379  0.2008
  893MOL0     O17747   4.644   8.301   8.521 -0.3070 -0.2688  0.0150
  893MOL0     C17748   4.525   8.361   8.555  0.5270 -1.0793 -0.2320
  893MOL0     C17749   4.434   8.308   8.655 -0.4298 -0.0990  0.2824
  893MOL0     C17750   4.316   8.382   8.688 -0.3648 -0.1958  0.5333
  893MOL0     C17751   4.289   8.510   8.627 -0.5638  1.1772  0.4343
  893MOL0     O17752   4.176   8.591   8.651 -0.7991 -0.4726  0.3170
  893MOL0     C17753   4.073   8.529   8.722  0.3160 -0.4158 -0.6519
  893MOL0     C17754   3.961   8.628   8.734  0.3255  0.8311 -0.4718
  893MOL0     C17755   3.842   8.568   8.814  0.4529 -0.4718  0.1137
  893MOL0     C17756   3.733   8.670   8.829  0.8906 -0.2083  0.4462
  893MOL0     C17757   3.619   8.627   8.924  0.7591  0.5330 -0.4846
  893MOL0     C17758   3.557   8.757   8.976  0.4251  0.2164 -0.5954
  893MOL0     C17759   3.465   8.728   9.094 -0.4596 -0.3541 -0.0394
  893MOL0     C17760   3.351   8.835   9.089 -0.6179  0.4543 -0.3500
  893MOL0     N17761   3.260   8.797   9.198  0.6950 -0.2386  0.0364
  893MOL0     C17762   3.162   8.696   9.198 -0.5740  0.7127 -0.3118
  893MOL0     C17763   3.084   8.721   9.308 -0.0734  0.5360 -0.0197
  893MOL0     C17764   2.965   8.630   9.339  0.7381  0.0215 -1.4038
  893MOL0     C17765   2.857   8.644   9.230  0.3508 -0.6187 -0.0074
  893MOL0     C17766   2.752   8.739   9.300  1.4178 -0.1734  0.1313
  893MOL0     C17767   2.661   8.804   9.200 -0.0738 -0.6038  0.4622
  893MOL0     O17768   2.603   8.917   9.262 -0.5005  0.4723 -0.0763
  893MOL0     C17769   2.518   8.989   9.183  1.2408  0.0348  0.4557
  893MOL0     C17770   2.496   8.965   9.042  0.1896 -0.4596 -0.1546
  893MOL0     C17771   2.396   9.042   8.980  0.4887  0.2604 -0.6079
  893MOL0     C17772   2.318   9.143   9.038  0.5489  0.2866  0.5266
  893MOL0     C17773   2.211   9.208   8.965  0.5048 -0.6295 -1.2740
  893MOL0     O17774   2.158   9.146   8.852 -0.5197 -0.1335 -0.1793
  893MOL0     C17775   2.060   9.211   8.780  0.0283 -0.5376  0.2265
  893MOL0     C17776   1.938   9.254   8.831 -0.3318 -0.5839 -0.8227
  893MOL0     C17777   1.842   9.304   8.739  0.2577 -0.1243 -0.0953
  893MOL0     C17778   1.871   9.308   8.596  0.4440  0.3137  0.2793
  893MOL0     O17779   1.785   9.355   8.496  0.0964 -0.6860 -0.0400
  893MOL0     C17780   1.654   9.401   8.532  0.2264 -1.4147  0.1926
  893MOL0     C17781   1.553   9.291   8.494  0.6107 -0.1652 -0.4956
  893MOL0     C17782   1.558   9.228   8.349  0.3650  0.2460 -0.2314
  893MOL0     C17783   1.546   9.332   8.237 -0.3841 -1.2123  0.6493
  893MOL0     C17784   1.413   9.413   8.232  0.7185  0.2479 -0.4719
  893MOL0     C17785   1.280   9.337   8.234 -0.5322  0.1831 -0.0057
  893MOL0     C17786   1.165   9.434   8.217 -1.1217 -0.2616  0.3905
  893MOL0     C17787   1.036   9.374   8.168  0.5919 -0.0141 -0.1389
  893MOL0    Cl17788   0.901   9.502   8.171 -0.1017 -0.2780 -0.1505
  893MOL0     C17789   1.999   9.283   8.557  0.5645 -0.5508 -0.2561
  893MOL0     C17790   2.091   9.241   8.646 -1.1242 -0.3970  0.0579
  893MOL0     O17791   2.182   9.317   9.005 -0.0452  0.0238 -0.0258
  893MOL0     C17792   2.347   9.170   9.178  1.6079  0.8866 -0.1908
  893MOL0     C17793   2.448   9.095   9.245 -0.6275  0.3830 -0.0483
  893MOL0     N17794   3.140   8.823   9.377  0.0940  0.1318  0.1325
  893MOL0     N17795   3.241   8.871   9.310 -0.1917  0.4004  0.9789
  893MOL0     C17796   4.380   8.563   8.536 -0.6966 -0.2649 -0.7894
  893MOL0     C17797   4.498   8.485   8.495 -0.0074  0.9815 -0.1492
  893MOL0     C17798   4.771   8.099   8.477 -0.4326  0.6849 -0.2827
  893MOL0     C17799   4.891   8.159   8.504 -0.3481  0.8934 -1.0485
  893MOL0     C17800   5.012   8.099   8.499 -1.4114 -0.6350 -0.8203
  893MOL0     C17801   5.022   7.963   8.478 -0.6330  0.7875  1.0371
  893MOL0     O17802   5.154   7.908   8.446  0.4207  0.0180  0.3682
  893MOL0     C17803   5.169   7.774   8.482  0.1996 -0.3695 -0.0025
  893MOL0     C17804   5.196   7.748   8.632 -0.0718 -0.2145 -0.1269
  893MOL0     C17805   5.333   7.762   8.677 -0.2160  0.3763 -0.2628
  893MOL0     C17806   5.350   7.736   8.820 -0.7351 -0.8496 -0.3229
  893MOL0     C17807   5.486   7.696   8.874  0.5803  0.6609  0.5498
  893MOL0     C17808   5.596   7.670   8.910 -0.2026 -0.8633  0.1646
  893MOL0     C17809   4.903   7.891   8.448  0.3957 -0.6208 -0.8354
  893MOL0     C17810   4.780   7.960   8.442 -0.1696 -0.4071 -0.4531
  893MOL0     H17811   4.447   8.214   8.708 -0.6346 -0.8962 -1.0509
  893MOL0     H17812   4.244   8.334   8.753 -0.5159  0.5169  0.9026
  893MOL0     H17813   4.098   8.495   8.824 -0.7454  1.1029  0.1534
  893MOL0     H17814   4.038   8.441   8.668 -4.4619  0.9019 -0.1411
  893MOL0     H17815   3.937   8.638   8.628 -0.0678  2.4385 -0.2620
  893MOL0     H17816   3.999   8.719   8.782  0.2140  0.1183  1.0446
  893MOL0     H17817   3.870   8.557   8.919 -1.0390 -1.4356  0.4418
  893MOL0     H17818   3.811   8.471   8.775  1.6498 -0.4340 -0.9840
  893MOL0     H17819   3.767   8.769   8.860  0.7853 -0.3418  1.0010
  893MOL0     H17820   3.683   8.694   8.734  0.6154  1.9962  1.1044
  893MOL0     H17821   3.659   8.567   9.006  2.5452  0.8832 -1.0576
  893MOL0     H17822   3.553   8.562   8.867  1.5875  0.8321 -1.8410
  893MOL0     H17823   3.509   8.797   8.886  0.6773 -1.5671 -1.5755
  893MOL0     H17824   3.628   8.826   9.022 -0.5948 -0.1585  1.6792
  893MOL0     H17825   3.437   8.622   9.093 -0.2731 -0.4606  1.8780
  893MOL0     H17826   3.515   8.752   9.188 -0.0420  5.4378 -1.3849
  893MOL0     H17827   3.295   8.837   8.995 -0.5058  2.0569 -0.4201
  893MOL0     H17828   3.394   8.936   9.100 -1.1187  0.3656  3.7487
  893MOL0     H17829   3.160   8.602   9.142  3.1930 -1.7832  3.2122
  893MOL0     H17830   2.925   8.646   9.440  3.0598  0.1548 -0.4454
  893MOL0     H17831   2.995   8.525   9.340 -2.1588 -0.8954  0.5651
  893MOL0     H17832   2.807   8.556   9.189 -1.4002 -0.1597  1.0506
  893MOL0     H17833   2.895   8.693   9.140 -2.7041 -1.9847 -2.2104
  893MOL0     H17834   2.673   8.685   9.352 -0.1677  2.1319  0.2490
  893MOL0     H17835   2.793   8.808   9.374  1.3910 -1.0798  1.0226
  893MOL0     H17836   2.584   8.733   9.169 -0.5109 -0.7593  1.8244
  893MOL0     H17837   2.715   8.844   9.114  0.5807 -3.0706 -0.3559
  893MOL0     H17838   2.540   8.904   8.964 -2.7166  1.3857 -3.5600
  893MOL0     H17839   2.379   9.032   8.873 -1.0451 -0.1369 -0.3475
  893MOL0     H17840   1.931   9.233   8.937  0.1195  1.0604 -0.4378
  893MOL0     H17841   1.749   9.328   8.788  1.2781 -1.0944  2.4662
  893MOL0     H17842   1.631   9.483   8.463  6.3699 -0.6022 -1.4783
  893MOL0     H17843   1.641   9.439   8.634  0.3286  3.3276 -1.3368
  893MOL0     H17844   1.451   9.329   8.509 -0.4108 -2.1761 -1.8489
  893MOL0     H17845   1.566   9.213   8.570  1.3101  1.0113  0.6177
  893MOL0     H17846   1.473   9.160   8.334 -1.0672  1.9771 -0.3018
  893MOL0     H17847   1.644   9.162   8.334  0.6304 -1.0289  5.0022
  893MOL0     H17848   1.621   9.411   8.241 -0.9271 -0.6313 -0.2501
  893MOL0     H17849   1.559   9.279   8.142  0.7524  3.1217 -1.8815
  893MOL0     H17850   1.412   9.474   8.142  0.1070  0.7928 -0.1005
  893MOL0     H17851   1.418   9.492   8.307 -2.7513  0.9879 -0.8487
  893MOL0     H17852   1.255   9.276   8.321  2.9172 -2.2071 -0.5233
  893MOL0     H17853   1.279   9.274   8.145 -2.0046 -0.8285  0.6911
  893MOL0     H17854   1.148   9.499   8.304 -0.8352  2.8794 -1.7274
  893MOL0     H17855   1.197   9.508   8.143  1.5380 -1.2829  0.4379
  893MOL0     H17856   1.006   9.296   8.238 -1.1280  0.7627  0.0658
  893MOL0     H17857   1.046   9.336   8.066  0.8177  1.3898 -0.6640
  893MOL0     H17858   2.030   9.303   8.455  0.5870  2.4140  0.2362
  893MOL0     H17859   2.189   9.252   8.602 -1.3649  3.3008  0.1212
  893MOL0     H17860   2.291   9.247   9.229  0.3980  0.2680 -0.5516
  893MOL0     H17861   2.466   9.102   9.351  0.3693 -2.8126  0.0974
  893MOL0     H17862   4.361   8.660   8.490  0.6222 -0.8063 -2.6030
  893MOL0     H17863   4.557   8.509   8.407  0.1491 -1.0860 -0.6505
  893MOL0     H17864   4.882   8.264   8.529 -0.7623  0.9675 -1.4859
  893MOL0     H17865   5.100   8.162   8.511 -2.1129  0.2422 -0.2753
  893MOL0     H17866   5.258   7.736   8.431  3.1849  1.1910  3.5584
  893MOL0     H17867   5.090   7.707   8.450  0.3397  0.3119 -1.8603
  893MOL0     H17868   5.132   7.816   8.688  1.2774 -0.8305  2.2850
  893MOL0     H17869   5.152   7.648   8.640  0.5289 -0.4514  0.2546
  893MOL0     H17870   5.358   7.867   8.661 -0.2382  0.7458  1.8885
  893MOL0     H17871   5.402   7.712   8.607  0.6705  1.6582 -0.3356
  893MOL0     H17872   5.302   7.819   8.872 -0.1311 -2.0659  2.3438
  893MOL0     H17873   5.284   7.654   8.850  1.1729 -1.7719  1.6213
  893MOL0     H17874   5.695   7.661   8.950  0.2563 -1.6523 -1.0867
  893MOL0     H17875   4.909   7.785   8.425 -3.7680 -2.1324  3.4748
  893MOL0     H17876   4.692   7.897   8.437 -1.2217  0.9203  0.4114
  894MOL0     O17877   0.261   9.163   6.558 -1.2952 -0.4875  0.1699
  894MOL0     C17878   0.282   9.180   6.676 -0.6598 -0.4026 -1.1735
  894MOL0     O17879   0.188   9.202   6.773  0.4433  0.4938  0.0921
  894MOL0     C17880   0.056   9.196   6.735  0.1193 -0.6745 -0.1711
  894MOL0     C17881  -0.010   9.299   6.660  0.4414  0.3733 -0.6061
  894MOL0     C17882  -0.144   9.287   6.625  0.0107 -0.8896  0.0049
  894MOL0     C17883  -0.221   9.173   6.665 -0.1484  0.8588  0.3880
  894MOL0     O17884  -0.357   9.150   6.644  0.4734 -0.4819  0.0043
  894MOL0     C17885  -0.435   9.241   6.571  0.3919 -0.8788  0.0621
  894MOL0     C17886  -0.581   9.196   6.568  0.7336  0.4504 -0.7794
  894MOL0     C17887  -0.609   9.097   6.460 -0.0985  0.1067 -0.8549
  894MOL0     C17888  -0.743   9.019   6.497 -0.2847 -0.1573  0.5598
  894MOL0     C17889  -0.755   8.887   6.419  0.0360 -0.6767  0.6569
  894MOL0     C17890  -0.745   8.916   6.258  0.5551 -0.2605 -0.0162
  894MOL0     C17891  -0.834   9.022   6.203  0.1603  0.4136  0.2119
  894MOL0     C17892  -0.984   8.994   6.225 -0.2463  0.9478  0.1308
  894MOL0     N17893  -1.033   8.932   6.104 -0.8107  0.5979 -0.7648
  894MOL0     C17894  -1.051   8.991   5.981 -0.5379  0.5831 -0.0567
  894MOL0     C17895  -1.118   8.898   5.917  0.1746 -0.2725  0.0584
  894MOL0     C17896  -1.192   8.918   5.783 -0.5336 -0.7306 -0.2646
  894MOL0     C17897  -1.304   8.813   5.762  0.2880  0.5653  0.3290
  894MOL0     C17898  -1.433   8.858   5.827 -0.1208 -0.0594 -0.6687
  894MOL0     C17899  -1.550   8.775   5.780 -0.2415  0.6094  0.4403
  894MOL0     O17900  -1.662   8.819   5.849  0.1393  0.0185 -0.2614
  894MOL0     C17901  -1.786   8.794   5.805  0.4237 -0.6658  0.2105
  894MOL0     C17902  -1.874   8.896   5.827  0.0723 -0.5752  0.6394
  894MOL0     C17903  -2.006   8.890   5.791  0.6676  0.1354 -0.1890
  894MOL0     C17904  -2.055   8.768   5.733 -0.3869  0.0951 -0.5803
  894MOL0     C17905  -2.200   8.742   5.700 -0.2369 -0.9217  0.5996
  894MOL0     O17906  -2.273   8.846   5.728  0.0189  0.0609  0.0118
  894MOL0     C17907  -2.403   8.867   5.692 -0.1516  0.2893  0.0344
  894MOL0     C17908  -2.493   8.770   5.649 -0.1296 -0.0116 -0.0384
  894MOL0     C17909  -2.621   8.806   5.602  0.2129  0.2242  0.3101
  894MOL0     C17910  -2.655   8.942   5.591  0.7768  0.4577 -0.1272
  894MOL0     O17911  -2.785   8.962   5.543 -0.0106  0.3648  0.6182
  894MOL0     C17912  -2.840   9.087   5.561 -0.3238 -0.7315 -0.7997
  894MOL0     C17913  -2.974   9.097   5.496  0.3388  0.0523 -0.6585
  894MOL0     C17914  -3.097   9.002   5.548 -0.3915  0.4460 -0.4021
  894MOL0     C17915  -3.168   9.051   5.678 -0.6607 -0.0174  0.0274
  894MOL0     C17916  -3.292   8.973   5.720 -0.7293  0.0752  0.4536
  894MOL0     C17917  -3.351   9.018   5.853  0.7185  0.9216  0.0522
  894MOL0     C17918  -3.272   8.980   5.978 -0.0862  0.8613  0.3373
  894MOL0     C17919  -3.344   8.993   6.113  0.6965  0.2830  0.4616
  894MOL0    Cl17920  -3.255   8.884   6.230 -0.1775 -0.0043  0.0564
  894MOL0     C17921  -2.573   9.038   5.653 -0.5446  0.4528  0.8668
  894MOL0     C17922  -2.452   8.994   5.709  1.0569 -0.6662  0.6135
  894MOL0     O17923  -2.237   8.636   5.655 -0.4814  0.2545 -0.1248
  894MOL0     C17924  -1.961   8.661   5.712  0.2504  0.5162 -0.5823
  894MOL0     C17925  -1.829   8.677   5.739 -0.8055 -0.3407 -0.3319
  894MOL0     N17926  -1.141   8.788   5.997  0.4572  0.1978 -0.8505
  894MOL0     N17927  -1.086   8.805   6.109 -0.7473  0.4279 -0.0003
  894MOL0     C17928  -0.149   9.076   6.731  0.8605 -0.6009 -0.1992
  894MOL0     C17929  -0.016   9.088   6.768  0.5779  0.5980 -0.3038
  894MOL0     C17930   0.418   9.204   6.718  1.5565  0.7063  0.5591
  894MOL0     C17931   0.515   9.172   6.630  0.5025 -0.5531 -0.7806
  894MOL0     C17932   0.649   9.179   6.669  0.0876 -0.0675  0.2082
  894MOL0     C17933   0.691   9.228   6.791  0.0121  0.1600  0.7521
  894MOL0     O17934   0.817   9.215   6.844  0.3604 -0.0026  0.9483
  894MOL0     C17935   0.929   9.184   6.763  0.0834  0.2539  0.8343
  894MOL0     C17936   0.949   9.300   6.649  0.0410 -0.6161 -0.8501
  894MOL0     C17937   1.058   9.254   6.551  0.6161 -0.2449  1.0933
  894MOL0     C17938   1.026   9.136   6.470  0.3690  0.1603  0.4309
  894MOL0     C17939   0.901   9.150   6.394  0.0440  0.0516  0.3148
  894MOL0     C17940   0.796   9.176   6.339 -0.8032  0.3265  0.4578
  894MOL0     C17941   0.593   9.274   6.875 -0.8460  0.0707 -0.8112
  894MOL0     C17942   0.456   9.255   6.844 -0.5006  0.1217 -0.6992
  894MOL0     H17943   0.048   9.387   6.636 -1.4112  1.7017 -0.4135
  894MOL0     H17944  -0.193   9.373   6.580 -2.6903 -1.8983  0.8096
  894MOL0     H17945  -0.402   9.244   6.467 -0.3288 -0.8294 -0.1703
  894MOL0     H17946  -0.420   9.338   6.620 -0.7311 -0.7005  0.0779
  894MOL0     H17947  -0.645   9.284   6.552 -1.3523 -0.1869  2.9239
  894MOL0     H17948  -0.610   9.153   6.665 -0.4722  0.2637 -1.2148
  894MOL0     H17949  -0.530   9.026   6.434  1.3552  1.6488 -0.7340
  894MOL0     H17950  -0.630   9.156   6.371  0.5742  1.0643 -0.4001
  894MOL0     H17951  -0.731   9.001   6.604 -0.5298  0.9388  0.7820
  894MOL0     H17952  -0.826   9.085   6.471  1.0976  0.3803 -3.1566
  894MOL0     H17953  -0.856   8.846   6.427 -2.1812  3.0809 -3.5253
  894MOL0     H17954  -0.689   8.809   6.456 -1.3947 -1.8301  0.8907
  894MOL0     H17955  -0.763   8.820   6.209  1.0878 -0.0540 -0.6253
  894MOL0     H17956  -0.642   8.947   6.237  1.1980 -1.0411  1.7347
  894MOL0     H17957  -0.794   9.114   6.245 -1.0097 -0.0104  2.3790
  894MOL0     H17958  -0.819   9.029   6.095 -1.5624  0.2785 -0.0614
  894MOL0     H17959  -1.040   9.087   6.229 -1.4559  0.3551 -1.7005
  894MOL0     H17960  -1.001   8.935   6.315 -1.4451  0.8010 -0.1721
  894MOL0     H17961  -1.015   9.087   5.943 -1.5395  0.3921 -1.5877
  894MOL0     H17962  -1.120   8.913   5.700 -0.9910 -0.7842 -0.6627
  894MOL0     H17963  -1.234   9.018   5.771 -0.5657 -0.5994  0.8412
  894MOL0     H17964  -1.282   8.713   5.801 -1.0803 -0.1638 -0.6571
  894MOL0     H17965  -1.325   8.798   5.656 -0.1407 -0.4292  0.5422
  894MOL0     H17966  -1.426   8.836   5.934  0.6127  1.3325 -0.4066
  894MOL0     H17967  -1.450   8.965   5.818 -0.9378 -0.2066 -1.0230
  894MOL0     H17968  -1.526   8.670   5.798 -0.4239  0.3884 -0.5702
  894MOL0     H17969  -1.572   8.780   5.673 -1.2700  0.1878  0.6136
  894MOL0     H17970  -1.835   8.991   5.863  2.2529 -1.0466 -0.3214
  894MOL0     H17971  -2.079   8.971   5.798 -0.8516 -1.3197  2.2167
  894MOL0     H17972  -2.461   8.667   5.661  3.1526  0.6069 -2.1375
  894MOL0     H17973  -2.687   8.725   5.574 -1.6494  0.4934  3.4261
  894MOL0     H17974  -2.775   9.163   5.516  1.0361 -0.9486  0.7225
  894MOL0     H17975  -2.843   9.113   5.667 -0.2149  0.0108 -0.9734
  894MOL0     H17976  -2.967   9.073   5.389  0.4957 -0.8241 -0.4590
  894MOL0     H17977  -3.009   9.201   5.497  0.5005  0.1762 -2.5391
  894MOL0     H17978  -3.056   8.901   5.559 -0.8633  0.1054 -1.5699
  894MOL0     H17979  -3.168   8.988   5.466 -0.2829 -1.9896 -0.1475
  894MOL0     H17980  -3.089   9.039   5.753  1.2799  3.1663 -1.2632
  894MOL0     H17981  -3.190   9.158   5.669  2.1736  1.0615  3.5554
  894MOL0     H17982  -3.269   8.866   5.725  1.0840  0.4509  0.6913
  894MOL0     H17983  -3.361   8.986   5.635 -0.4266  1.8111  0.4400
  894MOL0     H17984  -3.456   8.985   5.861 -0.2412  3.7587  0.2866
  894MOL0     H17985  -3.346   9.127   5.857 -2.0795  1.1639 -0.6061
  894MOL0     H17986  -3.254   8.873   5.970 -1.0244  0.7880 -1.6613
  894MOL0     H17987  -3.178   9.033   5.962 -1.1196  3.0005  0.9369
  894MOL0     H17988  -3.450   8.968   6.110  0.2273  1.9572  1.8737
  894MOL0     H17989  -3.332   9.095   6.150 -1.2777  0.0425  1.9044
  894MOL0     H17990  -2.602   9.142   5.668  3.8182  1.9240  0.3134
  894MOL0     H17991  -2.384   9.053   5.770 -2.3594 -0.7064  4.9812
  894MOL0     H17992  -1.987   8.564   5.672  0.5457 -0.1244  0.7211
  894MOL0     H17993  -1.752   8.606   5.713  0.2762  0.9650 -0.8452
  894MOL0     H17994  -0.211   8.993   6.764  0.5866 -1.4462 -2.6161
  894MOL0     H17995   0.038   9.006   6.814  2.7899  2.8424  1.3463
  894MOL0     H17996   0.483   9.114   6.544 -1.7101  0.8989 -1.0175
  894MOL0     H17997   0.718   9.136   6.597 -0.3046  0.1252 -0.2914
  894MOL0     H17998   0.932   9.080   6.730 -1.0138  0.0885  1.2133
  894MOL0     H17999   1.021   9.179   6.821  0.6307  0.0772 -0.0368
  894MOL0     H18000   0.858   9.334   6.599 -0.1337  2.4581  1.2226
  894MOL0     H18001   0.984   9.389   6.702 -2.3726 -0.2806  0.2824
  894MOL0     H18002   1.147   9.231   6.610  0.6176 -0.6289  0.9479
  894MOL0     H18003   1.076   9.338   6.484 -1.2310 -2.2377 -2.2221
  894MOL0     H18004   1.104   9.121   6.394 -0.5020 -1.3352 -0.2204
  894MOL0     H18005   1.013   9.054   6.541 -2.2487  1.3632  1.4669
  894MOL0     H18006   0.703   9.196   6.290  0.3269  1.4836 -1.3192
  894MOL0     H18007   0.625   9.310   6.972 -1.3100 -1.9525  0.1622
  894MOL0     H18008   0.384   9.281   6.922  1.6819  1.5880  0.9342
  895MOL0     O18009  10.870   8.321   9.015 -0.8307  0.4820 -0.0759
  895MOL0     C18010  10.911   8.393   9.103 -0.5984 -0.1708 -0.1551
  895MOL0     O18011  10.891   8.389   9.239 -0.5701 -0.3774  0.5055
  895MOL0     C18012  10.820   8.284   9.279 -0.3482 -0.6301 -0.4501
  895MOL0     C18013  10.882   8.186   9.358  0.4685 -0.3233  0.0504
  895MOL0     C18014  10.804   8.085   9.408  1.4094 -0.6702 -0.4288
  895MOL0     C18015  10.674   8.069   9.388  0.7320  0.7778  1.4072
  895MOL0     O18016  10.621   7.951   9.451  0.2155  0.5048 -0.8138
  895MOL0     C18017  10.504   7.903   9.384 -0.2854  0.3381 -0.5794
  895MOL0     C18018  10.461   7.775   9.447  0.3339  0.3824  1.1328
  895MOL0     C18019  10.330   7.716   9.390 -0.5149 -0.4893 -0.1718
  895MOL0     C18020  10.255   7.645   9.500 -1.2037  0.8957  0.5274
  895MOL0     C18021  10.136   7.570   9.441 -0.6244 -0.4907 -0.3268
  895MOL0     C18022  10.040   7.528   9.546  0.6143 -0.6619 -0.4318
  895MOL0     C18023   9.921   7.449   9.484 -0.5354 -0.4560 -0.4297
  895MOL0     C18024   9.866   7.355   9.588 -0.0364 -0.4732  0.1819
  895MOL0     N18025   9.731   7.411   9.612  0.2833 -0.0984 -0.5472
  895MOL0     C18026   9.700   7.496   9.722  0.0909 -0.2911 -0.0737
  895MOL0     C18027   9.564   7.501   9.721 -0.0104  0.5701 -0.4725
  895MOL0     C18028   9.485   7.567   9.835  1.2719 -0.0736 -0.5126
  895MOL0     C18029   9.418   7.462   9.926 -0.8798 -0.1533  0.2595
  895MOL0     C18030   9.520   7.368  10.003 -0.5361  0.9172 -0.4081
  895MOL0     C18031   9.567   7.434  10.132 -0.0509 -0.0144 -0.5534
  895MOL0     O18032   9.657   7.542  10.104  0.1600  0.2848  0.2321
  895MOL0     C18033   9.789   7.508  10.073 -0.0539  0.2864 -0.9578
  895MOL0     C18034   9.869   7.616  10.040  0.2809 -0.4811  0.3539
  895MOL0     C18035   9.998   7.602   9.990  0.5099  0.8918 -0.0217
  895MOL0     C18036  10.055   7.473   9.980 -0.1674  0.4485  0.0864
  895MOL0     C18037  10.191   7.448   9.940  0.2451  0.0712 -0.4472
  895MOL0     O18038  10.261   7.560   9.908  0.5505 -0.3334 -0.0864
  895MOL0     C18039  10.397   7.562   9.880 -0.0639 -0.3166  0.7990
  895MOL0     C18040  10.437   7.691   9.842  0.2083  0.1989  0.5530
  895MOL0     C18041  10.571   7.723   9.821 -0.3495 -0.4314 -0.3420
  895MOL0     C18042  10.676   7.625   9.830 -0.9327 -0.2421 -0.1414
  895MOL0     O18043  10.807   7.646   9.805 -0.5358 -0.2189  0.0695
  895MOL0     C18044  10.842   7.722   9.691  0.4050  0.0682 -0.4079
  895MOL0     C18045  10.970   7.655   9.632  0.1242 -0.6121 -0.5571
  895MOL0     C18046  11.032   7.725   9.514  0.4511  0.1838 -0.0900
  895MOL0     C18047  11.156   7.651   9.477 -0.7310  0.1481  0.0946
  895MOL0     C18048  11.228   7.724   9.370  0.3416  0.5453  0.9947
  895MOL0     C18049  11.383   7.739   9.381  0.6116  0.4083 -0.0942
  895MOL0     C18050  11.439   7.862   9.308 -0.2980  0.0519  0.0279
  895MOL0     C18051  11.582   7.907   9.314 -0.2906  0.0962 -0.2053
  895MOL0    Cl18052  11.610   8.015   9.454  0.7927 -0.0512 -0.1173
  895MOL0     C18053  10.632   7.495   9.860  0.0219  0.3037  0.2668
  895MOL0     C18054  10.493   7.464   9.890  0.6800 -0.1064  0.1422
  895MOL0     O18055  10.229   7.334   9.945  0.7845 -0.3167  0.9087
  895MOL0     C18056   9.977   7.365  10.023  0.7652  0.5623  0.5442
  895MOL0     C18057   9.843   7.379  10.061  0.3766  0.0990 -1.2678
  895MOL0     N18058   9.513   7.443   9.604 -0.4015 -0.2269 -0.8969
  895MOL0     N18059   9.612   7.388   9.544 -0.7538  0.5253  0.1262
  895MOL0     C18060  10.611   8.177   9.328 -0.0677  0.0726  0.6288
  895MOL0     C18061  10.680   8.285   9.268 -0.6678 -0.0075 -0.4438
  895MOL0     C18062  10.989   8.509   9.055 -0.3842 -0.5442 -0.3433
  895MOL0     C18063  11.043   8.521   8.928  0.2365  0.2779 -0.5469
  895MOL0     C18064  11.102   8.634   8.880  0.7494  0.1959 -0.4388
  895MOL0     C18065  11.124   8.744   8.965  0.3844 -0.1069 -0.1376
  895MOL0     O18066  11.209   8.838   8.932 -0.3260 -0.6396  0.4334
  895MOL0     C18067  11.226   8.884   8.794 -0.5524  0.9576 -0.4909
  895MOL0     C18068  11.223   9.035   8.788 -0.3856 -0.2398 -0.2090
  895MOL0     C18069  11.087   9.095   8.821 -0.3106  0.6373  1.1228
  895MOL0     C18070  11.072   9.243   8.831 -1.0260 -0.0109  0.3748
  895MOL0     C18071  10.930   9.268   8.828  0.8644  1.0879  0.8269
  895MOL0     C18072  10.808   9.271   8.815 -0.4151  0.0769  0.4485
  895MOL0     C18073  11.075   8.737   9.097 -0.0342 -0.0673 -0.1573
  895MOL0     C18074  11.009   8.626   9.142 -0.4875  0.7586 -0.2101
  895MOL0     H18075  10.988   8.190   9.379  0.3992 -0.5357  0.4430
  895MOL0     H18076  10.843   8.016   9.482  1.2566  0.3657  0.6395
  895MOL0     H18077  10.535   7.880   9.281  3.8152 -1.8584  0.9296
  895MOL0     H18078  10.422   7.974   9.399 -3.0536 -2.4408 -1.4194
  895MOL0     H18079  10.456   7.787   9.556  0.4296  0.0960  1.1670
  895MOL0     H18080  10.535   7.697   9.432 -0.3067 -0.2792  1.3635
  895MOL0     H18081  10.360   7.646   9.312 -0.3132 -0.9479  0.3148
  895MOL0     H18082  10.272   7.795   9.341 -2.4460  0.1325  2.8231
  895MOL0     H18083  10.314   7.570   9.553 -0.4678 -0.6048 -2.1845
  895MOL0     H18084  10.237   7.717   9.580 -0.2289 -1.2782  2.8055
  895MOL0     H18085  10.176   7.479   9.395  1.0539 -0.2794  0.6073
  895MOL0     H18086  10.096   7.634   9.362 -1.7981 -1.0561 -0.2170
  895MOL0     H18087  10.007   7.616   9.600 -0.3908 -0.3547 -1.5168
  895MOL0     H18088  10.093   7.469   9.621  1.1193 -1.2717 -1.2447
  895MOL0     H18089   9.856   7.520   9.432  1.1940 -0.5934 -2.9812
  895MOL0     H18090   9.972   7.400   9.401 -0.4236  4.0075 -3.3557
  895MOL0     H18091   9.928   7.341   9.677  1.5750 -0.4744 -0.9143
  895MOL0     H18092   9.871   7.257   9.539 -0.2301  0.2209 -1.2635
  895MOL0     H18093   9.758   7.532   9.806  0.9798 -1.6251 -0.0780
  895MOL0     H18094   9.400   7.620   9.790 -0.6876 -2.4541  0.1431
  895MOL0     H18095   9.549   7.634   9.893  3.4265  0.1874 -3.0029
  895MOL0     H18096   9.357   7.399   9.861  1.3469  1.3584 -3.5943
  895MOL0     H18097   9.343   7.508   9.991 -1.0395  0.2398 -0.2034
  895MOL0     H18098   9.470   7.275  10.029  2.0674 -0.7730 -1.1122
  895MOL0     H18099   9.608   7.337   9.945  0.1636  0.2232  0.9742
  895MOL0     H18100   9.623   7.364  10.195  3.9972  0.9218 -2.7664
  895MOL0     H18101   9.484   7.466  10.195 -1.2836 -1.9651 -1.0816
  895MOL0     H18102   9.815   7.706  10.067 -0.9572 -2.2149  4.3682
  895MOL0     H18103  10.054   7.690   9.962 -0.2222  1.3574 -0.0504
  895MOL0     H18104  10.370   7.777   9.832 -1.4033 -0.8436  1.8429
  895MOL0     H18105  10.601   7.821   9.785 -0.0348 -0.7075 -0.8493
  895MOL0     H18106  10.872   7.821   9.728 -0.8954  0.3132  0.0406
  895MOL0     H18107  10.766   7.713   9.612 -0.8920  3.1488  0.3232
  895MOL0     H18108  10.957   7.552   9.600 -1.3931  0.2834 -3.1338
  895MOL0     H18109  11.046   7.657   9.711 -1.0698  1.7014  0.6802
  895MOL0     H18110  11.061   7.824   9.549  4.1907 -1.5833  2.5698
  895MOL0     H18111  10.956   7.729   9.435 -0.2959 -2.0998  0.4297
  895MOL0     H18112  11.222   7.643   9.563  1.0820  1.0423 -1.1543
  895MOL0     H18113  11.134   7.548   9.446  0.3753  0.5144 -2.1242
  895MOL0     H18114  11.187   7.825   9.365 -3.2217 -0.6609  2.5396
  895MOL0     H18115  11.201   7.666   9.281  0.6498 -2.0667  2.4974
  895MOL0     H18116  11.433   7.655   9.332  2.4815  0.2777  1.8771
  895MOL0     H18117  11.406   7.740   9.488  0.9636 -0.0428 -0.1651
  895MOL0     H18118  11.405   7.853   9.205  0.3763  0.1140 -0.2046
  895MOL0     H18119  11.381   7.941   9.356  1.0452 -0.4599  2.6800
  895MOL0     H18120  11.603   7.967   9.226 -2.0726  0.1140 -0.6540
  895MOL0     H18121  11.646   7.818   9.321  1.2599  1.0609 -1.5190
  895MOL0     H18122  10.701   7.415   9.885 -1.9946 -1.5675  0.1780
  895MOL0     H18123  10.469   7.363   9.922 -1.4075 -0.1728 -1.4219
  895MOL0     H18124  10.010   7.262  10.036 -1.4070 -0.5056 -1.5911
  895MOL0     H18125   9.778   7.294  10.081 -2.0572  2.1522  0.2118
  895MOL0     H18126  10.505   8.175   9.308  0.2770  0.3581 -1.5341
  895MOL0     H18127  10.640   8.369   9.212  0.1073  0.7433  0.1020
  895MOL0     H18128  11.046   8.436   8.859 -1.3980 -1.2150  1.1264
  895MOL0     H18129  11.136   8.628   8.777 -1.5180 -0.3056 -1.2234
  895MOL0     H18130  11.146   8.836   8.737  0.6875  1.1866 -2.4971
  895MOL0     H18131  11.328   8.862   8.762 -0.8182 -0.3155 -0.5411
  895MOL0     H18132  11.296   9.074   8.860  1.6935 -0.2438 -2.2014
  895MOL0     H18133  11.254   9.056   8.685 -1.9638  1.6532 -0.3495
  895MOL0     H18134  11.054   9.058   8.918  1.0029  3.2546  2.6973
  895MOL0     H18135  11.023   9.061   8.739  0.4459  1.6097  0.1016
  895MOL0     H18136  11.113   9.283   8.924 -0.3318 -2.1724  1.0656
  895MOL0     H18137  11.106   9.285   8.736  0.1046 -0.4540  0.5677
  895MOL0     H18138  10.706   9.244   8.802  0.1823 -2.9522  1.2606
  895MOL0     H18139  11.079   8.828   9.157 -0.6275 -0.4936  0.5343
  895MOL0     H18140  10.980   8.634   9.246  3.6018  1.2846  1.0491
  896MOL0     O18141   5.587   3.694   0.108 -0.3980  0.2933 -0.4107
  896MOL0     C18142   5.633   3.755   0.014 -0.4029 -0.2066  0.4432
  896MOL0     O18143   5.556   3.821  -0.077 -0.6814  0.3236  0.0830
  896MOL0     C18144   5.419   3.819  -0.068 -0.0301 -0.1838  0.3189
  896MOL0     C18145   5.356   3.937  -0.097 -0.0696 -1.2236 -0.0938
  896MOL0     C18146   5.215   3.946  -0.085  0.8251 -0.1139  0.5569
  896MOL0     C18147   5.135   3.836  -0.049  0.5642  0.9583  0.5182
  896MOL0     O18148   4.998   3.828  -0.027  0.5122  0.2644  0.1114
  896MOL0     C18149   4.922   3.939  -0.082 -0.3327  0.1890 -0.4725
  896MOL0     C18150   4.771   3.911  -0.072 -0.2561  0.0174 -0.0847
  896MOL0     C18151   4.740   3.912   0.083  0.8396 -0.5530  0.2243
  896MOL0     C18152   4.586   3.911   0.118 -0.4804 -0.2464 -0.3632
  896MOL0     C18153   4.517   3.775   0.118  0.1938 -0.3856 -0.1078
  896MOL0     C18154   4.540   3.692  -0.011 -0.5437 -0.4933 -0.2706
  896MOL0     C18155   4.428   3.587  -0.041  0.5651 -0.3750  0.0325
  896MOL0     C18156   4.284   3.649  -0.035  0.1684  0.1272  0.7959
  896MOL0     N18157   4.182   3.554  -0.095  0.3786  0.0463  0.1409
  896MOL0     C18158   4.117   3.580  -0.218  0.0711  0.1790  0.7386
  896MOL0     C18159   4.001   3.509  -0.215  0.6802 -0.1043 -0.6291
  896MOL0     C18160   3.898   3.509  -0.325  0.3588  0.7943  0.2748
  896MOL0     C18161   3.767   3.452  -0.272  0.1498  0.5442  0.2920
  896MOL0     C18162   3.661   3.449  -0.380 -0.1133  0.4280  0.0106
  896MOL0     C18163   3.527   3.390  -0.337  0.9016  0.1373  0.0807
  896MOL0     O18164   3.440   3.489  -0.270 -0.3377  0.5169  0.8182
  896MOL0     C18165   3.305   3.463  -0.276  0.8028 -1.2973 -0.3818
  896MOL0     C18166   3.242   3.358  -0.335  0.7691  0.0201  0.5324
  896MOL0     C18167   3.104   3.358  -0.348 -0.1414 -0.0608  0.0569
  896MOL0     C18168   3.021   3.464  -0.306  0.6377  0.4491  0.0959
  896MOL0     C18169   2.868   3.452  -0.323  0.1467 -0.4655 -0.3275
  896MOL0     O18170   2.797   3.563  -0.349  0.9177 -0.8793  0.1473
  896MOL0     C18171   2.659   3.553  -0.374 -0.5739  0.0391  0.3263
  896MOL0     C18172   2.616   3.684  -0.402  0.3069 -0.5589 -0.5191
  896MOL0     C18173   2.492   3.700  -0.469  0.0769 -0.3369  0.1777
  896MOL0     C18174   2.412   3.586  -0.501 -0.2526  0.0061 -0.7611
  896MOL0     O18175   2.286   3.613  -0.549 -0.2721 -0.0346  0.4037
  896MOL0     C18176   2.187   3.511  -0.529 -0.2172  0.7661 -0.4580
  896MOL0     C18177   2.051   3.565  -0.572 -0.0198 -0.1082 -0.9411
  896MOL0     C18178   1.974   3.620  -0.447 -0.6802 -0.0505  0.2517
  896MOL0     C18179   1.851   3.702  -0.489  0.0919  0.6487  0.3982
  896MOL0     C18180   1.763   3.622  -0.591 -0.5639  0.0538 -0.7613
  896MOL0     C18181   1.626   3.681  -0.607 -0.8962 -0.0647  0.2958
  896MOL0     C18182   1.535   3.671  -0.479  0.2029  0.6254  0.6913
  896MOL0     C18183   1.391   3.688  -0.528  0.5113  0.5189 -0.0758
  896MOL0    Cl18184   1.363   3.834  -0.636  0.2318 -0.3949  0.2477
  896MOL0     C18185   2.460   3.461  -0.476  0.0308 -0.4407  0.8875
  896MOL0     C18186   2.586   3.443  -0.423 -0.3044 -0.5042 -0.1682
  896MOL0     O18187   2.828   3.338  -0.308  0.0437 -0.3310 -0.0730
  896MOL0     C18188   3.084   3.571  -0.248 -0.1045  0.2153  0.2224
  896MOL0     C18189   3.221   3.564  -0.231 -0.0620  0.3641 -0.5609
  896MOL0     N18190   4.001   3.436  -0.100 -0.3204 -0.1149 -0.9218
  896MOL0     N18191   4.112   3.459  -0.032 -0.3744 -0.6484  0.4563
  896MOL0     C18192   5.202   3.713  -0.030 -0.2522 -0.0579  0.7349
  896MOL0     C18193   5.340   3.705  -0.039  0.8141 -0.1898 -0.4649
  896MOL0     C18194   5.782   3.778   0.009 -0.6807  0.1823 -0.3571
  896MOL0     C18195   5.871   3.714   0.092  1.0864 -0.1030  0.0622
  896MOL0     C18196   6.010   3.740   0.085  0.8671 -0.0291 -0.5011
  896MOL0     C18197   6.058   3.837   0.004  0.0603 -0.0347  0.7575
  896MOL0     O18198   6.195   3.873  -0.013  0.1014 -0.0171 -0.0855
  896MOL0     C18199   6.284   3.779   0.053 -0.2938  0.0393  0.6041
  896MOL0     C18200   6.423   3.815   0.001 -0.4609 -0.4789 -0.9980
  896MOL0     C18201   6.533   3.716   0.043  0.2607 -0.1261  0.1136
  896MOL0     C18202   6.584   3.735   0.183 -0.3189  0.0675 -0.5747
  896MOL0     C18203   6.705   3.660   0.185 -0.2852  0.4924  0.3976
  896MOL0     C18204   6.809   3.588   0.177  0.9851  1.0625  0.8699
  896MOL0     C18205   5.965   3.914  -0.061 -0.5495  1.0076  0.1657
  896MOL0     C18206   5.830   3.890  -0.059  0.5939  0.4496 -0.2709
  896MOL0     H18207   5.421   4.021  -0.122 -3.0943  2.3009  2.8128
  896MOL0     H18208   5.161   4.039  -0.101 -2.3441 -2.2264 -2.5243
  896MOL0     H18209   4.949   3.950  -0.188  2.0450  2.5567  0.2831
  896MOL0     H18210   4.943   4.035  -0.033 -1.6253  0.2582 -0.0114
  896MOL0     H18211   4.749   3.815  -0.119  2.5453 -0.6606 -0.1840
  896MOL0     H18212   4.711   3.992  -0.113  0.5765  0.0732 -1.2455
  896MOL0     H18213   4.784   4.005   0.121 -0.4455  1.4211 -2.6705
  896MOL0     H18214   4.787   3.822   0.124 -0.1238 -0.1988  2.2152
  896MOL0     H18215   4.577   3.957   0.217 -1.2711 -1.8689  0.3444
  896MOL0     H18216   4.539   3.970   0.039  0.5976 -0.6658 -1.3541
  896MOL0     H18217   4.411   3.801   0.121 -0.0852 -1.1543 -1.7761
  896MOL0     H18218   4.539   3.710   0.203 -1.0917 -0.2113  0.3810
  896MOL0     H18219   4.625   3.624   0.005 -0.4464  0.0039  1.5451
  896MOL0     H18220   4.551   3.761  -0.094 -1.7016  2.9889  2.2151
  896MOL0     H18221   4.455   3.534  -0.133  0.5070 -2.1966  1.0047
  896MOL0     H18222   4.432   3.512   0.039 -2.0558  1.1797  1.7811
  896MOL0     H18223   4.278   3.741  -0.094 -0.8012 -1.3880 -1.6616
  896MOL0     H18224   4.246   3.675   0.064  0.5543  2.3752  0.4036
  896MOL0     H18225   4.143   3.657  -0.289 -2.2375 -0.4477 -0.9147
  896MOL0     H18226   3.940   3.456  -0.411 -1.8106  1.4943 -1.2778
  896MOL0     H18227   3.880   3.608  -0.367 -0.1797  0.0495 -1.3303
  896MOL0     H18228   3.732   3.507  -0.184 -1.6173  0.4244 -0.3158
  896MOL0     H18229   3.793   3.350  -0.241  0.7897 -0.1705 -2.3597
  896MOL0     H18230   3.637   3.544  -0.428 -1.4895  0.3241  0.4372
  896MOL0     H18231   3.702   3.385  -0.458  0.0795  0.8212 -0.2098
  896MOL0     H18232   3.541   3.298  -0.280 -0.8683 -1.0574 -1.2733
  896MOL0     H18233   3.481   3.368  -0.434  1.1111  2.6798 -0.6563
  896MOL0     H18234   3.299   3.267  -0.347  1.7106  0.5152  1.0931
  896MOL0     H18235   3.053   3.265  -0.371 -0.7381  0.5911 -1.3945
  896MOL0     H18236   2.682   3.768  -0.386 -1.2697  0.4507  1.0824
  896MOL0     H18237   2.449   3.798  -0.485  1.0031  0.1267  0.4606
  896MOL0     H18238   2.196   3.454  -0.436  1.6086  2.3526  0.3920
  896MOL0     H18239   2.215   3.432  -0.599 -2.5099  0.8006 -1.5103
  896MOL0     H18240   1.977   3.496  -0.613 -0.5588  0.0688 -0.2847
  896MOL0     H18241   2.073   3.631  -0.657 -1.2716 -1.1481 -2.1138
  896MOL0     H18242   2.039   3.673  -0.377 -2.2691  0.6943  1.2194
  896MOL0     H18243   1.957   3.531  -0.386  1.5053  0.3900  1.6344
  896MOL0     H18244   1.793   3.713  -0.397  0.1299 -0.7093  0.6111
  896MOL0     H18245   1.878   3.805  -0.512  1.1889  0.5045  0.9507
  896MOL0     H18246   1.738   3.518  -0.569 -5.7166  0.8892 -1.5595
  896MOL0     H18247   1.818   3.616  -0.686  0.2793 -3.5764 -0.1922
  896MOL0     H18248   1.576   3.622  -0.685  0.0088 -0.9789  0.3716
  896MOL0     H18249   1.636   3.788  -0.625  2.7020 -0.1956  0.7416
  896MOL0     H18250   1.543   3.575  -0.427 -0.3037  0.6653  0.8481
  896MOL0     H18251   1.569   3.749  -0.409  0.6955 -1.6998  3.2366
  896MOL0     H18252   1.333   3.703  -0.437  1.0915 -3.6593  1.1866
  896MOL0     H18253   1.341   3.600  -0.569 -0.5916  2.1213 -2.4630
  896MOL0     H18254   2.417   3.363  -0.497  1.1774 -0.9789  0.9756
  896MOL0     H18255   2.610   3.337  -0.410 -2.9922 -0.9136  2.3221
  896MOL0     H18256   3.026   3.656  -0.215  0.1984  2.5843 -4.3936
  896MOL0     H18257   3.267   3.650  -0.184 -4.1770  2.1971  0.5621
  896MOL0     H18258   5.149   3.618  -0.027  2.0481 -1.4142  0.6500
  896MOL0     H18259   5.399   3.615  -0.025  1.1196  0.0004 -0.5171
  896MOL0     H18260   5.832   3.641   0.162 -0.1840 -1.7637 -2.2579
  896MOL0     H18261   6.072   3.674   0.144  1.4572 -3.4828 -4.5240
  896MOL0     H18262   6.265   3.681   0.008 -0.2208 -1.6064  3.8775
  896MOL0     H18263   6.286   3.781   0.162 -0.2198 -0.4247  0.6152
  896MOL0     H18264   6.413   3.812  -0.108  1.4330 -1.0836 -1.1941
  896MOL0     H18265   6.451   3.914   0.037 -1.5285 -1.0515  1.6504
  896MOL0     H18266   6.612   3.735  -0.030 -0.7738  0.0385 -1.0150
  896MOL0     H18267   6.493   3.615   0.025  0.0002 -0.1455  0.7888
  896MOL0     H18268   6.608   3.841   0.191  1.3237 -0.3312  0.1594
  896MOL0     H18269   6.509   3.700   0.253 -1.2718  0.1316 -1.5355
  896MOL0     H18270   6.886   3.514   0.165 -2.9421 -3.1586 -1.0718
  896MOL0     H18271   6.010   3.986  -0.129 -0.3513  0.4615 -0.2871
  896MOL0     H18272   5.766   3.947  -0.125 -1.6306 -2.7945 -1.1664
  897MOL0     O18273   4.857   6.312   9.550  0.1808 -0.1795  0.0153
  897MOL0     C18274   4.892   6.223   9.630  0.4199 -0.5642  0.2371
  897MOL0     O18275   4.807   6.132   9.690 -0.1314  0.2054 -0.5948
  897MOL0     C18276   4.671   6.138   9.657 -0.3031  0.8067 -0.1925
  897MOL0     C18277   4.585   6.250   9.660  0.3222 -0.4089  0.7935
  897MOL0     C18278   4.451   6.235   9.654 -0.3380 -0.8435 -0.2021
  897MOL0     C18279   4.387   6.113   9.637 -0.3598  0.2147 -0.2104
  897MOL0     O18280   4.256   6.104   9.619  0.4048 -0.3313  0.3024
  897MOL0     C18281   4.176   6.196   9.704  0.9093 -0.0002 -0.6290
  897MOL0     C18282   4.015   6.164   9.698 -0.8758  0.2355  0.1442
  897MOL0     C18283   3.990   6.118   9.550 -0.3790  0.1029 -0.4100
  897MOL0     C18284   3.845   6.114   9.511  0.8083  0.0331  0.2907
  897MOL0     C18285   3.764   6.000   9.570  0.4883 -0.4712  0.1010
  897MOL0     C18286   3.628   6.004   9.516  1.1330 -0.1185 -0.5320
  897MOL0     C18287   3.549   5.892   9.566  0.1792  0.0495  0.6260
  897MOL0     C18288   3.409   5.872   9.505 -1.1580  0.4899 -0.3103
  897MOL0     N18289   3.318   5.983   9.524 -0.4895 -0.1047  0.2858
  897MOL0     C18290   3.274   6.063   9.625  0.3561 -0.3204 -0.6411
  897MOL0     C18291   3.223   6.170   9.566  0.3649 -0.5049  0.3739
  897MOL0     C18292   3.169   6.299   9.638 -0.1547 -0.6806  0.0281
  897MOL0     C18293   3.281   6.409   9.652  0.3803 -0.0066  0.5645
  897MOL0     C18294   3.417   6.366   9.707 -0.1648 -0.3852  0.6240
  897MOL0     C18295   3.530   6.444   9.630 -0.9339 -0.2435 -0.5666
  897MOL0     O18296   3.530   6.573   9.681 -0.0286 -0.0617  0.1608
  897MOL0     C18297   3.650   6.617   9.715 -0.4414 -0.0276 -0.6000
  897MOL0     C18298   3.661   6.636   9.854  0.4183  1.2012  0.0178
  897MOL0     C18299   3.790   6.652   9.904  0.1915  0.4997 -0.9251
  897MOL0     C18300   3.899   6.665   9.812 -0.2382  0.1295  0.2725
  897MOL0     C18301   4.035   6.683   9.857 -1.2765  0.3333  0.1949
  897MOL0     O18302   4.129   6.672   9.761  0.3679 -0.0967  0.4131
  897MOL0     C18303   4.256   6.677   9.814 -1.2774 -0.2974  1.0345
  897MOL0     C18304   4.326   6.801   9.818 -0.0353  0.6939 -0.0844
  897MOL0     C18305   4.459   6.803   9.845  0.5473 -0.5672  0.2471
  897MOL0     C18306   4.524   6.684   9.886 -0.3136 -0.7744  0.5899
  897MOL0     O18307   4.655   6.686   9.922  0.1533 -0.2302 -0.4341
  897MOL0     C18308   4.762   6.734   9.835 -0.0900  0.2899  0.1192
  897MOL0     C18309   4.875   6.771   9.917  0.0099 -0.7659 -0.5760
  897MOL0     C18310   4.971   6.666   9.954  0.6063 -0.8400 -0.3741
  897MOL0     C18311   5.083   6.726  10.045 -0.9778  0.2200 -0.0393
  897MOL0     C18312   5.186   6.616  10.078  0.3214  0.1479  0.3905
  897MOL0     C18313   5.281   6.673  10.187  0.2570 -0.1349 -0.4953
  897MOL0     C18314   5.402   6.581  10.205  0.7196  0.0349 -0.2079
  897MOL0     C18315   5.469   6.621  10.335  0.2376  0.4007 -0.2865
  897MOL0    Cl18316   5.530   6.790  10.319  0.0171  0.2929  0.0184
  897MOL0     C18317   4.445   6.570   9.910 -0.1194  1.4526 -0.5686
  897MOL0     C18318   4.318   6.561   9.863 -0.9492 -0.3177 -0.1476
  897MOL0     O18319   4.054   6.715   9.978  0.9808  0.4766  0.5391
  897MOL0     C18320   3.875   6.670   9.670  0.3212 -0.6768 -0.0666
  897MOL0     C18321   3.752   6.636   9.623  0.1204 -0.1532 -0.5398
  897MOL0     N18322   3.239   6.166   9.430  0.4628 -0.4077 -0.2635
  897MOL0     N18323   3.289   6.051   9.405 -0.0436 -0.2966 -0.2280
  897MOL0     C18324   4.474   5.999   9.624 -0.1951 -1.0669 -0.0321
  897MOL0     C18325   4.613   6.004   9.647  0.4133  0.5372 -0.7351
  897MOL0     C18326   5.041   6.217   9.667  0.5809  0.0692  0.7762
  897MOL0     C18327   5.125   6.329   9.643 -0.1319  0.1519  0.0364
  897MOL0     C18328   5.251   6.329   9.691 -0.4397 -0.1129  1.1744
  897MOL0     C18329   5.300   6.229   9.774 -0.8612  0.3179  0.8301
  897MOL0     O18330   5.426   6.246   9.821  0.0136 -0.6107 -0.1535
  897MOL0     C18331   5.465   6.177   9.937  0.2208 -0.0219 -0.2708
  897MOL0     C18332   5.607   6.220   9.960 -0.8856  0.4426  1.0360
  897MOL0     C18333   5.618   6.369   9.994 -0.3819  0.3157  0.7290
  897MOL0     C18334   5.764   6.419  10.002  0.1045  0.8401 -0.0917
  897MOL0     C18335   5.839   6.366  10.116 -0.0844 -0.4049 -0.2241
  897MOL0     C18336   5.897   6.308  10.203  0.2069 -0.0155  0.8812
  897MOL0     C18337   5.210   6.128   9.809 -0.0719  0.1730 -0.0622
  897MOL0     C18338   5.082   6.118   9.749 -0.1288  0.3133 -0.2497
  897MOL0     H18339   4.626   6.349   9.672  0.3783 -0.3258 -0.0434
  897MOL0     H18340   4.393   6.326   9.663 -2.1239 -1.5251 -3.3186
  897MOL0     H18341   4.195   6.291   9.652  1.6110  0.8811  1.1587
  897MOL0     H18342   4.206   6.200   9.809 -0.6580  0.0815 -0.1614
  897MOL0     H18343   3.953   6.250   9.723 -0.4383  0.3040  1.0403
  897MOL0     H18344   4.007   6.083   9.771  0.0471  0.0114  0.0032
  897MOL0     H18345   4.021   6.013   9.546 -3.9512 -1.1386  0.5283
  897MOL0     H18346   4.041   6.182   9.477  2.7480 -2.9388 -1.1638
  897MOL0     H18347   3.802   6.209   9.547  2.4735  1.0102 -0.2029
  897MOL0     H18348   3.844   6.107   9.402 -0.0954  1.3094  0.1920
  897MOL0     H18349   3.759   6.020   9.678 -1.1740 -0.3857  0.0318
  897MOL0     H18350   3.820   5.909   9.551  4.1995  1.5814  0.2153
  897MOL0     H18351   3.629   5.996   9.407 -0.7017 -1.4569 -0.4873
  897MOL0     H18352   3.576   6.096   9.545 -2.3304 -2.0030 -0.2913
  897MOL0     H18353   3.601   5.801   9.537 -1.0051 -0.3754 -0.2796
  897MOL0     H18354   3.541   5.888   9.675 -1.7186 -3.0985  0.5158
  897MOL0     H18355   3.365   5.779   9.542  0.8166  0.6172  2.7749
  897MOL0     H18356   3.427   5.855   9.399 -1.3650  2.9518 -0.8135
  897MOL0     H18357   3.288   6.053   9.732  2.9150  2.0422 -0.6556
  897MOL0     H18358   3.140   6.272   9.740 -2.8016 -0.4400 -0.6122
  897MOL0     H18359   3.084   6.349   9.592  1.6869  0.0124 -2.9181
  897MOL0     H18360   3.239   6.488   9.715 -0.9952 -0.4917  0.2936
  897MOL0     H18361   3.301   6.458   9.556  0.2933  0.9612  1.0293
  897MOL0     H18362   3.424   6.379   9.815  2.4644  0.7543  0.3832
  897MOL0     H18363   3.440   6.261   9.689  0.5941  0.0858 -1.4451
  897MOL0     H18364   3.516   6.460   9.523  1.0382 -1.2987 -1.0253
  897MOL0     H18365   3.617   6.377   9.639 -1.5699 -0.8915  1.2073
  897MOL0     H18366   3.576   6.631   9.921  0.1464 -1.2450 -0.3992
  897MOL0     H18367   3.808   6.660  10.010  3.4139  0.0287 -1.3229
  897MOL0     H18368   4.267   6.881   9.776 -1.1599  0.5573  1.2059
  897MOL0     H18369   4.510   6.899   9.847 -1.1219  0.4092 -0.7700
  897MOL0     H18370   4.730   6.825   9.782  0.5251  1.2530  1.3539
  897MOL0     H18371   4.778   6.654   9.762 -0.2771  0.8538 -0.5605
  897MOL0     H18372   4.837   6.825  10.004  3.9566 -1.7201  2.0315
  897MOL0     H18373   4.935   6.844   9.861  0.5442  0.1537  1.1212
  897MOL0     H18374   5.008   6.621   9.862  1.2267 -1.8381  0.3502
  897MOL0     H18375   4.925   6.587  10.013  0.7077 -1.5017 -1.1781
  897MOL0     H18376   5.134   6.806   9.991  0.1738  0.3695  1.2123
  897MOL0     H18377   5.047   6.762  10.142 -2.4075  2.1040 -1.2079
  897MOL0     H18378   5.230   6.586   9.982 -2.0420 -2.4039 -0.0127
  897MOL0     H18379   5.133   6.531  10.122  1.7019 -0.1293  1.5781
  897MOL0     H18380   5.225   6.685  10.281  0.6935 -1.1040 -0.0888
  897MOL0     H18381   5.317   6.768  10.150  0.8120  0.2939  1.0508
  897MOL0     H18382   5.362   6.479  10.209  0.6119  0.0345 -1.0609
  897MOL0     H18383   5.474   6.584  10.123 -0.8030 -1.4427 -1.6919
  897MOL0     H18384   5.558   6.563  10.360 -0.9959 -0.2085  3.1314
  897MOL0     H18385   5.398   6.605  10.417  1.3703 -1.4941  0.3670
  897MOL0     H18386   4.474   6.477   9.956 -1.7892 -0.7463 -3.5780
  897MOL0     H18387   4.260   6.470   9.871 -1.2286 -0.2104 -0.8618
  897MOL0     H18388   3.962   6.689   9.607  1.0384 -0.8458  0.8534
  897MOL0     H18389   3.742   6.623   9.515  0.7661 -0.9383 -0.5068
  897MOL0     H18390   4.426   5.904   9.602  1.9872 -2.1226 -0.5163
  897MOL0     H18391   4.662   5.908   9.639 -0.2572  0.1347 -0.0797
  897MOL0     H18392   5.090   6.406   9.575 -1.3636  1.6055  2.1738
  897MOL0     H18393   5.330   6.400   9.669 -0.7943  0.3838  1.4918
  897MOL0     H18394   5.451   6.068   9.934  1.6667 -0.2175 -0.7380
  897MOL0     H18395   5.400   6.213  10.018  0.1722  0.9232 -0.7241
  897MOL0     H18396   5.644   6.169  10.049 -1.5080 -0.2078  0.9260
  897MOL0     H18397   5.671   6.196   9.874  1.1206 -0.8279  2.8005
  897MOL0     H18398   5.556   6.395  10.080 -2.9185  4.1887 -1.9408
  897MOL0     H18399   5.562   6.429   9.922 -1.0050  1.4435  2.1155
  897MOL0     H18400   5.818   6.389   9.911  0.9655 -0.2611  0.7626
  897MOL0     H18401   5.769   6.528  10.009  1.3800  0.8537 -0.8869
  897MOL0     H18402   5.951   6.247  10.273  2.9713  0.4034 -0.7367
  897MOL0     H18403   5.246   6.049   9.876  0.6456  0.9376  0.4786
  897MOL0     H18404   5.024   6.033   9.785  2.5691 -1.7508 -0.4144
  898MOL0     O18405   3.288  10.671   9.245  0.2276 -0.2825 -0.5452
  898MOL0     C18406   3.364  10.715   9.330 -0.3034 -0.4028 -0.7776
  898MOL0     O18407   3.319  10.778   9.445  0.9366 -0.6077  1.0940
  898MOL0     C18408   3.185  10.814   9.444  0.4701 -0.1541  0.1228
  898MOL0     C18409   3.131  10.894   9.342  0.1808 -0.2379  0.1313
  898MOL0     C18410   3.000  10.932   9.349  0.0237  0.0185  0.4058
  898MOL0     C18411   2.924  10.898   9.461  0.1101 -0.7314  1.0387
  898MOL0     O18412   2.791  10.942   9.456  0.1534 -0.1629 -0.2349
  898MOL0     C18413   2.701  10.862   9.376 -0.0385  0.6631 -0.1928
  898MOL0     C18414   2.571  10.954   9.341 -0.4698  1.0275  0.4272
  898MOL0     C18415   2.457  10.872   9.290 -0.3246  0.3130 -0.1207
  898MOL0     C18416   2.324  10.940   9.312  0.5599  0.7105 -0.3806
  898MOL0     C18417   2.214  10.872   9.230  0.6432 -1.4298 -0.2349
  898MOL0     C18418   2.068  10.931   9.230 -0.2765 -0.4397 -0.5038
  898MOL0     C18419   1.998  10.920   9.363  0.2199 -0.3997  0.2222
  898MOL0     C18420   1.880  11.020   9.377 -0.2393  0.9143 -0.3596
  898MOL0     N18421   1.746  10.960   9.407 -0.3136  0.3593  0.6951
  898MOL0     C18422   1.679  10.965   9.529 -0.1260 -0.1826  0.3370
  898MOL0     C18423   1.583  10.867   9.523  0.8780 -0.4891  0.5730
  898MOL0     C18424   1.497  10.806   9.636  0.4158 -0.1900 -0.1070
  898MOL0     C18425   1.365  10.871   9.674  0.2606  0.2179  0.5666
  898MOL0     C18426   1.291  10.923   9.542 -0.1737 -0.3824 -0.3007
  898MOL0     C18427   1.138  10.941   9.568  0.8591  0.0439  0.2544
  898MOL0     O18428   1.111  11.031   9.678 -0.8146 -0.1218  0.0337
  898MOL0     C18429   0.978  11.058   9.703 -0.4740 -0.5196 -1.0856
  898MOL0     C18430   0.967  11.148   9.806 -0.1323  0.5921  0.1071
  898MOL0     C18431   0.843  11.203   9.852  0.5470  0.7588  0.6243
  898MOL0     C18432   0.730  11.155   9.782  1.0973  0.6708 -0.9701
  898MOL0     C18433   0.592  11.181   9.833  0.4578 -0.7090  1.5611
  898MOL0     O18434   0.487  11.113   9.766 -0.0460  0.0391 -0.0390
  898MOL0     C18435   0.350  11.151   9.797 -0.2706 -0.2278 -0.5031
  898MOL0     C18436   0.240  11.063   9.794  0.2100  0.6282  0.5180
  898MOL0     C18437   0.102  11.109   9.797 -0.3302  0.0823  0.0887
  898MOL0     C18438   0.076  11.245   9.823  0.4930  1.1318  0.1321
  898MOL0     O18439  -0.063  11.276   9.821 -0.3583  0.5898  0.0517
  898MOL0     C18440  -0.098  11.416   9.821  0.1965 -0.4845 -0.1277
  898MOL0     C18441  -0.250  11.435   9.817  0.5119 -0.1136 -0.2680
  898MOL0     C18442  -0.285  11.582   9.793 -0.6805  0.7380  0.4118
  898MOL0     C18443  -0.438  11.598   9.817 -0.0361 -0.9832  0.4564
  898MOL0     C18444  -0.499  11.729   9.778  1.4027  0.8477  0.7090
  898MOL0     C18445  -0.647  11.742   9.797 -0.2048  0.6370  1.5659
  898MOL0     C18446  -0.703  11.878   9.754 -1.4931  0.7863  0.2005
  898MOL0     C18447  -0.852  11.893   9.769 -0.2569 -0.6553 -0.4830
  898MOL0    Cl18448  -0.938  11.788   9.656 -0.3406 -0.0834  0.0495
  898MOL0     C18449   0.187  11.332   9.835  0.4878 -0.0400 -0.5354
  898MOL0     C18450   0.314  11.288   9.818 -0.3471  0.4684 -0.1321
  898MOL0     O18451   0.582  11.246   9.936  0.1688 -0.4278  0.9848
  898MOL0     C18452   0.741  11.060   9.679 -0.0271  0.2450  0.1499
  898MOL0     C18453   0.862  11.014   9.637 -0.1549  0.3561 -0.9241
  898MOL0     N18454   1.578  10.820   9.388  0.3426 -1.0217 -0.3836
  898MOL0     N18455   1.671  10.877   9.323  0.1018  1.2892  1.1570
  898MOL0     C18456   2.974  10.814   9.564  0.0852 -0.1780  0.0718
  898MOL0     C18457   3.111  10.767   9.554  0.0375 -0.8370 -0.7932
  898MOL0     C18458   3.507  10.719   9.289 -0.1797  0.5285  0.0931
  898MOL0     C18459   3.555  10.631   9.187  0.5009 -1.2691  0.6095
  898MOL0     C18460   3.688  10.631   9.146 -0.2420  0.0458 -0.4215
  898MOL0     C18461   3.781  10.726   9.192  0.5368  0.2186  0.5477
  898MOL0     O18462   3.918  10.733   9.170  0.2316  0.3254  0.2790
  898MOL0     C18463   3.963  10.630   9.078 -0.6440 -0.1578  0.6071
  898MOL0     C18464   4.114  10.630   9.089  0.7471 -0.5374  0.5601
  898MOL0     C18465   4.176  10.530   8.992 -0.2739 -0.7835 -0.3498
  898MOL0     C18466   4.324  10.509   9.023  0.1704  0.6467 -0.1176
  898MOL0     C18467   4.352  10.387   9.107  0.1280  0.5289  0.7261
  898MOL0     C18468   4.354  10.294   9.178 -0.2545 -0.1843 -0.4100
  898MOL0     C18469   3.727  10.818   9.291 -0.2138 -0.5055  0.4389
  898MOL0     C18470   3.601  10.815   9.348  0.2170 -0.1605  0.0582
  898MOL0     H18471   3.191  10.927   9.258 -0.3183  1.4817  0.4104
  898MOL0     H18472   2.952  10.993   9.274  1.1295 -0.5405 -0.8020
  898MOL0     H18473   2.682  10.770   9.431 -0.5264  1.0733  0.3345
  898MOL0     H18474   2.745  10.840   9.278 -0.9485 -1.5899 -0.1476
  898MOL0     H18475   2.602  11.024   9.263  0.5883 -0.8707 -0.9367
  898MOL0     H18476   2.537  11.024   9.418 -2.8199 -0.6683  1.0624
  898MOL0     H18477   2.464  10.780   9.349  0.1911  0.2118 -0.3395
  898MOL0     H18478   2.484  10.846   9.188  1.3811 -2.1117  0.8648
  898MOL0     H18479   2.293  10.934   9.417  1.0754  0.1815 -0.2511
  898MOL0     H18480   2.320  11.048   9.295  0.5488  0.7241 -0.2951
  898MOL0     H18481   2.222  10.771   9.271  3.4294 -0.5219  1.7697
  898MOL0     H18482   2.246  10.884   9.127 -0.5653 -0.5267 -0.5358
  898MOL0     H18483   2.002  10.882   9.158 -0.7870  0.4155 -0.6434
  898MOL0     H18484   2.076  11.036   9.201  1.6354 -0.1476  0.8890
  898MOL0     H18485   1.961  10.821   9.390 -1.1473  0.0632  0.1227
  898MOL0     H18486   2.072  10.953   9.437  0.9029 -2.2207  0.3938
  898MOL0     H18487   1.875  11.085   9.290  0.1897  0.6943 -0.5495
  898MOL0     H18488   1.900  11.086   9.462  2.1381  0.8437 -0.8052
  898MOL0     H18489   1.699  11.017   9.622 -0.9684 -1.7066  1.4002
  898MOL0     H18490   1.565  10.805   9.722  1.9088  0.0089 -1.2530
  898MOL0     H18491   1.482  10.698   9.624  4.1187 -0.5868 -2.8486
  898MOL0     H18492   1.383  10.961   9.733 -0.1503  0.6301  0.0800
  898MOL0     H18493   1.295  10.805   9.726  0.3311 -0.1145  0.2512
  898MOL0     H18494   1.333  11.021   9.517 -0.8913 -0.7655 -3.5066
  898MOL0     H18495   1.302  10.857   9.455 -1.6735 -0.0118 -0.8075
  898MOL0     H18496   1.086  10.847   9.590  0.3582  0.1958 -0.2570
  898MOL0     H18497   1.105  10.993   9.478  1.7445  0.3541  0.1011
  898MOL0     H18498   1.065  11.180   9.839  0.6168  1.6246 -2.8658
  898MOL0     H18499   0.832  11.272   9.935 -1.9738  0.7751  0.3254
  898MOL0     H18500   0.248  10.955   9.790 -1.5019  0.4803  0.0454
  898MOL0     H18501   0.014  11.047   9.782 -1.3744  1.9517 -2.4791
  898MOL0     H18502  -0.062  11.458   9.726  2.0304 -0.5578  0.5051
  898MOL0     H18503  -0.054  11.465   9.908 -1.4268  2.1896 -0.6886
  898MOL0     H18504  -0.300  11.391   9.904 -0.4756 -2.0695 -1.7378
  898MOL0     H18505  -0.288  11.378   9.732 -0.3323 -1.3383  0.8904
  898MOL0     H18506  -0.250  11.605   9.691  0.3791 -0.4057  0.4971
  898MOL0     H18507  -0.237  11.647   9.867  1.2277  0.5677 -0.6101
  898MOL0     H18508  -0.489  11.519   9.761 -0.8863 -0.1682  0.0286
  898MOL0     H18509  -0.458  11.572   9.921 -2.2018 -1.6865 -0.0703
  898MOL0     H18510  -0.489  11.731   9.669  1.9552 -0.4591  0.7124
  898MOL0     H18511  -0.442  11.809   9.825  3.3947  1.5882 -2.6398
  898MOL0     H18512  -0.678  11.733   9.901  0.0121 -0.7626  1.5190
  898MOL0     H18513  -0.692  11.665   9.733  0.3448  2.3596 -1.0847
  898MOL0     H18514  -0.655  11.957   9.813 -0.0222 -2.0301  3.0964
  898MOL0     H18515  -0.679  11.889   9.647 -2.1493  1.6712  0.1296
  898MOL0     H18516  -0.873  12.000   9.771  0.7980 -0.3055  4.1397
  898MOL0     H18517  -0.883  11.862   9.869  1.9994 -1.6617 -0.0344
  898MOL0     H18518   0.173  11.437   9.856  2.1556  0.0317  0.3473
  898MOL0     H18519   0.389  11.365   9.808  0.2502 -0.2586 -1.6134
  898MOL0     H18520   0.651  11.022   9.631 -1.1426  2.2080  0.5598
  898MOL0     H18521   0.875  10.953   9.549 -1.7076  0.2423 -1.1143
  898MOL0     H18522   2.904  10.799   9.645  1.8057  5.1501  3.0416
  898MOL0     H18523   3.156  10.708   9.633 -2.7863 -0.3057  1.3933
  898MOL0     H18524   3.507  10.549   9.133  2.5987 -2.4419  0.4155
  898MOL0     H18525   3.698  10.554   9.070 -2.6379 -0.9989  0.2263
  898MOL0     H18526   3.948  10.665   8.976 -3.1695  0.9887  1.2971
  898MOL0     H18527   3.915  10.532   9.087  0.0476 -0.7756 -1.7973
  898MOL0     H18528   4.153  10.725   9.052  2.7072 -1.1229  1.0083
  898MOL0     H18529   4.149  10.602   9.189  0.7918  1.4522  1.1305
  898MOL0     H18530   4.166  10.564   8.888  1.7982 -1.7585 -0.9308
  898MOL0     H18531   4.126  10.434   8.980 -2.6088  0.4347 -1.0275
  898MOL0     H18532   4.376  10.505   8.927  0.1668  2.5120 -0.2406
  898MOL0     H18533   4.367  10.588   9.087  0.5386 -1.1663  1.9813
  898MOL0     H18534   4.361  10.217   9.252 -1.2590 -1.0328 -1.1718
  898MOL0     H18535   3.788  10.899   9.330 -0.9322 -0.7674  2.2224
  898MOL0     H18536   3.568  10.888   9.421 -0.3600  0.2464 -0.5934
  899MOL0     O18537  10.749   2.404   9.991  0.3442  0.0601 -0.4713
  899MOL0     C18538  10.717   2.445  10.098  0.1460 -0.7861  0.0337
  899MOL0     O18539  10.592   2.447  10.157  0.5433  0.2973 -0.7951
  899MOL0     C18540  10.489   2.390  10.081 -0.0279  0.2736 -0.4144
  899MOL0     C18541  10.463   2.425   9.950  0.0001  0.3516 -0.5188
  899MOL0     C18542  10.349   2.377   9.885  0.3879  0.6071 -0.6511
  899MOL0     C18543  10.260   2.289   9.954  0.0908 -0.5206 -0.2345
  899MOL0     O18544  10.150   2.253   9.886 -1.3129 -0.5804 -0.1294
  899MOL0     C18545  10.046   2.184   9.958  0.3145 -0.7439 -0.1414
  899MOL0     C18546   9.959   2.109   9.855  0.4000 -0.6808  1.1824
  899MOL0     C18547   9.887   2.185   9.746 -0.4516 -0.3613  0.4842
  899MOL0     C18548   9.800   2.077   9.674  0.0807  0.3079  0.5743
  899MOL0     C18549   9.741   2.112   9.542 -0.4958 -0.3307 -0.0859
  899MOL0     C18550   9.687   1.992   9.456  0.1408 -0.8578  0.2577
  899MOL0     C18551   9.589   1.899   9.534  0.0015 -0.0196  0.4657
  899MOL0     C18552   9.541   1.782   9.442  0.1757 -0.1579 -0.5425
  899MOL0     N18553   9.396   1.757   9.469  0.7693  1.2960  0.2512
  899MOL0     C18554   9.302   1.805   9.389 -0.2459 -0.4487  0.3711
  899MOL0     C18555   9.189   1.750   9.444 -1.0964 -0.1189  0.3414
  899MOL0     C18556   9.057   1.763   9.374 -0.2125  0.3069  0.1981
  899MOL0     C18557   8.936   1.724   9.466  0.1383  0.2463 -0.7580
  899MOL0     C18558   8.805   1.742   9.391 -0.7620  1.2089  0.4381
  899MOL0     C18559   8.686   1.679   9.463 -0.3015  0.2561  0.4371
  899MOL0     O18560   8.583   1.672   9.362  0.5031  0.0374 -0.4025
  899MOL0     C18561   8.466   1.628   9.414 -0.3212  0.1435 -0.5266
  899MOL0     C18562   8.361   1.648   9.328 -0.5007 -0.1434  1.3790
  899MOL0     C18563   8.228   1.622   9.357  0.2227  0.3305 -0.4468
  899MOL0     C18564   8.195   1.553   9.482 -0.4114  0.1081  0.0062
  899MOL0     C18565   8.051   1.534   9.518  0.4265  1.1799  0.9964
  899MOL0     O18566   8.026   1.471   9.633  0.1565  0.4585 -0.2129
  899MOL0     C18567   7.902   1.433   9.668  0.1674  0.0976  0.5656
  899MOL0     C18568   7.777   1.494   9.635 -0.1768  0.6249  0.1033
  899MOL0     C18569   7.654   1.436   9.658  0.3594  0.4619 -0.1200
  899MOL0     C18570   7.653   1.314   9.725  0.7559  0.4608 -0.2106
  899MOL0     O18571   7.542   1.235   9.761  0.7062 -0.6879  0.0991
  899MOL0     C18572   7.423   1.261   9.699  0.3150  0.7525 -0.1903
  899MOL0     C18573   7.339   1.133   9.698  0.1676  0.2414  0.9601
  899MOL0     C18574   7.202   1.172   9.654 -0.0310  0.1090 -0.3295
  899MOL0     C18575   7.103   1.055   9.648  0.4215 -0.8308  0.0840
  899MOL0     C18576   7.024   1.027   9.774 -0.4557 -0.2779  0.5380
  899MOL0     C18577   6.912   1.125   9.792  0.5609 -0.1371 -0.5390
  899MOL0     C18578   6.784   1.112   9.716  0.0939  0.9214 -0.5811
  899MOL0     C18579   6.676   1.206   9.767 -0.5786  0.5141  0.5422
  899MOL0    Cl18580   6.632   1.178   9.938  0.1294  0.1544  0.2515
  899MOL0     C18581   7.771   1.262   9.783  0.1983 -1.0406 -0.5090
  899MOL0     C18582   7.895   1.323   9.743  0.6340  0.4084 -0.8181
  899MOL0     O18583   7.969   1.565   9.439 -0.2858 -0.4606  0.2746
  899MOL0     C18584   8.301   1.529   9.566  1.4812  1.1296  0.2082
  899MOL0     C18585   8.436   1.563   9.538 -0.3911 -0.3906  0.5836
  899MOL0     N18586   9.218   1.663   9.547  0.4722 -0.5956 -0.0075
  899MOL0     N18587   9.345   1.673   9.566 -1.2035  0.6689 -0.1808
  899MOL0     C18588  10.290   2.256  10.090 -1.1681  0.2201  0.5319
  899MOL0     C18589  10.414   2.300  10.147  0.4983  0.6165 -0.6396
  899MOL0     C18590  10.822   2.503  10.176  0.4806 -0.0567 -0.2696
  899MOL0     C18591  10.942   2.532  10.110  0.2081 -1.3874 -0.5426
  899MOL0     C18592  11.052   2.576  10.184 -0.2961 -0.0030 -0.0662
  899MOL0     C18593  11.039   2.585  10.325 -0.9089  0.0371  0.4817
  899MOL0     O18594  11.153   2.629  10.396 -0.4690  0.0760 -0.3016
  899MOL0     C18595  11.290   2.609  10.345  0.4324 -0.5176  0.1812
  899MOL0     C18596  11.385   2.590  10.456  1.3951  0.0703 -0.3050
  899MOL0     C18597  11.522   2.565  10.411  0.5508 -0.0840  0.0588
  899MOL0     C18598  11.617   2.538  10.531  0.2209  0.2014  0.4154
  899MOL0     C18599  11.749   2.502  10.477  1.2721 -0.2390 -0.1240
  899MOL0     C18600  11.861   2.487  10.434 -0.4900  0.0982  0.3480
  899MOL0     C18601  10.922   2.577  10.386  0.1627 -1.1416 -0.3868
  899MOL0     C18602  10.808   2.533  10.310  0.6915 -0.0315  0.1096
  899MOL0     H18603  10.527   2.499   9.903  0.0490  2.0207  1.9570
  899MOL0     H18604  10.332   2.397   9.780  0.1888 -1.1989 -0.9932
  899MOL0     H18605   9.979   2.256  10.005  0.1960 -1.5568  0.9596
  899MOL0     H18606  10.072   2.108  10.032 -1.3126 -3.4494 -2.1907
  899MOL0     H18607   9.891   2.057   9.923  0.1833  0.6884  2.0431
  899MOL0     H18608  10.027   2.040   9.802  0.3543  0.7239 -0.8242
  899MOL0     H18609   9.960   2.240   9.686 -1.9190  2.2250  0.9626
  899MOL0     H18610   9.822   2.266   9.780  0.8660  0.6982  0.5633
  899MOL0     H18611   9.865   1.992   9.648 -1.4550 -0.6119 -0.3791
  899MOL0     H18612   9.723   2.045   9.745  0.5715 -0.7541  0.6588
  899MOL0     H18613   9.812   2.178   9.490 -0.9302  0.9366  0.8861
  899MOL0     H18614   9.659   2.183   9.557  0.6713  0.4513  3.9281
  899MOL0     H18615   9.770   1.932   9.419 -0.0005  0.0928 -1.7150
  899MOL0     H18616   9.628   2.039   9.377 -0.1923  1.2364  1.6592
  899MOL0     H18617   9.617   1.850   9.627  1.0379 -1.6203 -0.6547
  899MOL0     H18618   9.502   1.958   9.566 -1.0003 -2.5295  2.6917
  899MOL0     H18619   9.602   1.700   9.481  1.0669  0.8070  0.1492
  899MOL0     H18620   9.549   1.810   9.337 -1.9498 -0.0492 -0.7280
  899MOL0     H18621   9.312   1.884   9.316 -0.1485  0.5398  1.4336
  899MOL0     H18622   9.058   1.710   9.278 -0.4240  1.3034 -0.3688
  899MOL0     H18623   9.039   1.868   9.346 -3.1386 -0.3930 -0.9630
  899MOL0     H18624   8.940   1.786   9.556  0.2204  1.6061 -1.6752
  899MOL0     H18625   8.951   1.621   9.499  3.0662  0.8617  0.0523
  899MOL0     H18626   8.785   1.846   9.362 -0.0699  0.8643 -1.4223
  899MOL0     H18627   8.799   1.688   9.296 -1.8944  0.6932  0.7794
  899MOL0     H18628   8.658   1.749   9.542 -3.1483  3.7078 -3.1530
  899MOL0     H18629   8.709   1.583   9.509 -1.8365  0.7292  2.3092
  899MOL0     H18630   8.389   1.705   9.240  1.6156 -0.6404  1.6676
  899MOL0     H18631   8.146   1.647   9.291 -2.6789  0.8011  3.0235
  899MOL0     H18632   7.771   1.586   9.579 -3.2323 -0.0274 -0.8010
  899MOL0     H18633   7.558   1.478   9.628 -0.1032 -0.9748 -0.7311
  899MOL0     H18634   7.442   1.306   9.600 -0.3105  2.6746  0.5209
  899MOL0     H18635   7.374   1.329   9.769  1.7263 -0.9633  2.6377
  899MOL0     H18636   7.338   1.081   9.794 -1.3303  0.4853  1.0990
  899MOL0     H18637   7.376   1.057   9.629 -2.8186 -2.1825  1.7902
  899MOL0     H18638   7.211   1.228   9.561  1.9224  1.8396  0.8128
  899MOL0     H18639   7.165   1.241   9.730 -0.8590 -1.1881  0.5004
  899MOL0     H18640   7.033   1.086   9.570  1.3282 -1.4660 -1.0051
  899MOL0     H18641   7.154   0.971   9.600 -1.6655 -0.6484 -2.7026
  899MOL0     H18642   7.087   1.026   9.863 -2.7030  1.7587  2.3040
  899MOL0     H18643   6.977   0.928   9.773  0.1634 -0.5936  1.3394
  899MOL0     H18644   6.946   1.229   9.780  0.8244  0.1909  2.2071
  899MOL0     H18645   6.885   1.108   9.897 -3.4734  1.1845 -1.1955
  899MOL0     H18646   6.808   1.138   9.613 -1.3150 -1.2832 -1.5516
  899MOL0     H18647   6.748   1.008   9.715 -0.3690  1.0821 -0.4610
  899MOL0     H18648   6.588   1.193   9.704 -0.7274  0.8273  0.6849
  899MOL0     H18649   6.709   1.309   9.749 -1.0373  0.4164 -1.0471
  899MOL0     H18650   7.767   1.180   9.854  1.2602 -0.8680 -0.2397
  899MOL0     H18651   7.984   1.286   9.792 -0.1191 -0.0371  0.2674
  899MOL0     H18652   8.282   1.472   9.657  1.3045  0.7024 -0.0922
  899MOL0     H18653   8.510   1.529   9.610 -1.8115 -1.4131  1.6183
  899MOL0     H18654  10.230   2.187  10.147  1.9718 -0.6364  3.0934
  899MOL0     H18655  10.457   2.270  10.242  0.5101 -1.0497 -1.1354
  899MOL0     H18656  10.954   2.522  10.003  0.1959 -1.6099 -0.5242
  899MOL0     H18657  11.149   2.588  10.138 -0.3066  2.4990  0.4182
  899MOL0     H18658  11.320   2.694  10.283 -0.3998 -1.3904 -1.4972
  899MOL0     H18659  11.301   2.517  10.288  0.4385 -1.2806  1.3776
  899MOL0     H18660  11.376   2.669  10.531 -0.5057 -0.1933 -0.2062
  899MOL0     H18661  11.351   2.499  10.507  1.3134 -0.4607 -1.2945
  899MOL0     H18662  11.561   2.645  10.348 -2.6396  0.9726 -0.7339
  899MOL0     H18663  11.506   2.474  10.353 -1.3421 -0.5718  1.2364
  899MOL0     H18664  11.622   2.633  10.585  2.2098  0.5190 -0.2549
  899MOL0     H18665  11.581   2.455  10.592 -2.1291  1.2692  0.5910
  899MOL0     H18666  11.962   2.477  10.398 -0.9339 -1.5576 -0.5264
  899MOL0     H18667  10.917   2.606  10.490 -1.0125 -1.6154 -0.2911
  899MOL0     H18668  10.712   2.536  10.361  0.3195  1.2591 -0.6304
  900MOL0     O18669   5.763   3.334   8.887 -0.2682  0.0732 -0.2591
  900MOL0     C18670   5.769   3.261   8.795 -0.2321  0.3667  1.0747
  900MOL0     O18671   5.700   3.273   8.674 -0.0892  0.1060 -0.5101
  900MOL0     C18672   5.597   3.359   8.670 -0.3921 -0.1714  0.7854
  900MOL0     C18673   5.573   3.405   8.538  0.7517  0.0477  0.1901
  900MOL0     C18674   5.456   3.479   8.515 -0.4726  0.2890  0.5091
  900MOL0     C18675   5.363   3.514   8.616 -0.6756 -0.3719 -0.2520
  900MOL0     O18676   5.259   3.606   8.597 -0.0420  0.2628  0.4934
  900MOL0     C18677   5.225   3.645   8.455 -0.3714 -0.3701  0.4686
  900MOL0     C18678   5.116   3.756   8.463 -0.2927 -0.2864  0.0069
  900MOL0     C18679   4.982   3.699   8.522 -0.2630 -0.0103 -0.1374
  900MOL0     C18680   4.910   3.600   8.425 -0.2615  0.2301 -0.9028
  900MOL0     C18681   4.918   3.456   8.458 -0.3800  0.1399  0.2227
  900MOL0     C18682   4.851   3.369   8.343  0.0220 -0.2794 -0.1031
  900MOL0     C18683   4.705   3.402   8.301 -0.9898 -0.2811  0.1130
  900MOL0     C18684   4.605   3.374   8.410 -0.0051 -0.4418 -0.4232
  900MOL0     N18685   4.475   3.408   8.350 -0.0763  0.2736  0.5748
  900MOL0     C18686   4.397   3.337   8.256  0.8842 -0.5342 -1.2434
  900MOL0     C18687   4.280   3.405   8.253  0.1953  0.4935  0.0686
  900MOL0     C18688   4.162   3.347   8.176 -0.2272  0.2650 -0.7507
  900MOL0     C18689   4.035   3.412   8.205  0.4658  0.3177  0.5585
  900MOL0     C18690   3.934   3.325   8.141 -0.2244 -0.0020 -0.3655
  900MOL0     C18691   3.798   3.360   8.211  0.3323  0.5033  0.1813
  900MOL0     O18692   3.698   3.268   8.167 -0.2817 -0.2993 -0.1624
  900MOL0     C18693   3.621   3.288   8.054  0.5810  0.6124 -0.2556
  900MOL0     C18694   3.565   3.170   7.992 -0.9310 -0.4855 -0.0931
  900MOL0     C18695   3.486   3.183   7.876 -0.5252 -0.2130 -0.1957
  900MOL0     C18696   3.456   3.305   7.823  0.7439  0.5180  0.0644
  900MOL0     C18697   3.372   3.304   7.695 -0.7581  0.3884  0.2076
  900MOL0     O18698   3.376   3.186   7.620 -0.2076 -0.7307  0.0866
  900MOL0     C18699   3.295   3.177   7.514 -0.0488  1.0765 -0.2017
  900MOL0     C18700   3.158   3.216   7.514 -0.0255  1.0523 -0.2730
  900MOL0     C18701   3.085   3.221   7.391 -0.3945  0.1659  0.1591
  900MOL0     C18702   3.148   3.180   7.275  0.0928  0.0298  0.3574
  900MOL0     O18703   3.068   3.182   7.155  0.5839 -0.9225 -0.2180
  900MOL0     C18704   3.071   3.312   7.082  0.6555  0.1504 -0.9223
  900MOL0     C18705   3.195   3.320   6.991  0.2099 -0.9851 -0.4841
  900MOL0     C18706   3.326   3.388   7.032 -0.3599 -0.1120 -0.3801
  900MOL0     C18707   3.298   3.518   7.096 -1.3733  0.2768 -0.7505
  900MOL0     C18708   3.420   3.608   7.096  0.5069  0.2143  0.5197
  900MOL0     C18709   3.539   3.568   7.174  0.2072  0.0986 -0.0676
  900MOL0     C18710   3.514   3.577   7.321 -0.5050 -0.0448 -1.4840
  900MOL0     C18711   3.629   3.518   7.403 -0.2236 -0.4424 -0.1976
  900MOL0    Cl18712   3.786   3.621   7.398 -0.3477  0.3192  0.2277
  900MOL0     C18713   3.275   3.131   7.278 -0.2919 -0.7484 -0.5011
  900MOL0     C18714   3.348   3.133   7.390  0.5156  0.0360 -0.9002
  900MOL0     O18715   3.317   3.410   7.666 -0.0625  0.5149  0.0141
  900MOL0     C18716   3.512   3.421   7.879 -0.1648  0.7273  0.2235
  900MOL0     C18717   3.594   3.411   7.995 -0.2061  0.5600  0.2153
  900MOL0     N18718   4.298   3.521   8.322  0.4775 -0.4189 -0.3726
  900MOL0     N18719   4.407   3.518   8.387 -0.3812 -0.5333 -0.5349
  900MOL0     C18720   5.400   3.473   8.745  0.4357 -0.4805 -0.6074
  900MOL0     C18721   5.509   3.404   8.772  0.0658 -0.2565  0.0296
  900MOL0     C18722   5.870   3.152   8.790  0.0080  0.0618  0.2637
  900MOL0     C18723   5.983   3.164   8.871  0.8505  0.1121 -0.2692
  900MOL0     C18724   6.074   3.052   8.856  0.5320 -0.5839  0.9173
  900MOL0     C18725   6.066   2.957   8.751 -0.2063  0.9924 -0.1280
  900MOL0     O18726   6.182   2.882   8.732 -0.0689  0.8910 -0.4429
  900MOL0     C18727   6.178   2.788   8.621 -0.3961  1.0770 -0.7548
  900MOL0     C18728   6.292   2.687   8.642 -0.0219  0.1664  0.7993
  900MOL0     C18729   6.269   2.610   8.775 -0.7031  0.5645 -0.2037
  900MOL0     C18730   6.372   2.504   8.818  0.1976  0.4033 -0.1020
  900MOL0     C18731   6.504   2.565   8.820  0.6492  0.1219 -0.7922
  900MOL0     C18732   6.613   2.609   8.830 -0.7710  0.0698  0.5112
  900MOL0     C18733   5.945   2.954   8.682  0.0251 -0.7798  0.6532
  900MOL0     C18734   5.854   3.051   8.696 -0.6223  0.3112  0.0193
  900MOL0     H18735   5.627   3.362   8.455 -0.1257 -1.9847  0.6135
  900MOL0     H18736   5.426   3.512   8.416  0.5628 -2.9049 -0.9970
  900MOL0     H18737   5.195   3.562   8.390 -1.2588 -0.0754  0.4909
  900MOL0     H18738   5.316   3.690   8.416  1.7152 -1.2475  3.8814
  900MOL0     H18739   5.101   3.804   8.366  0.4790  0.8588  0.4382
  900MOL0     H18740   5.164   3.836   8.520 -1.4607  0.1892  0.3677
  900MOL0     H18741   4.912   3.781   8.539 -0.8785 -0.7058  0.7873
  900MOL0     H18742   5.004   3.641   8.613 -0.4083  1.7301  1.0639
  900MOL0     H18743   4.803   3.620   8.433 -0.0023  1.1869  0.2975
  900MOL0     H18744   4.941   3.625   8.323  0.3287  2.4237 -0.2223
  900MOL0     H18745   4.883   3.426   8.557  0.7392 -1.0416  0.2786
  900MOL0     H18746   5.026   3.442   8.455 -0.4358 -0.1125 -1.3576
  900MOL0     H18747   4.863   3.264   8.368 -3.8020 -1.1450 -1.2391
  900MOL0     H18748   4.911   3.397   8.255 -0.9309  0.8972 -0.4122
  900MOL0     H18749   4.706   3.503   8.258  2.0620 -0.6155 -0.9045
  900MOL0     H18750   4.697   3.339   8.212  3.6728  1.1447 -1.6408
  900MOL0     H18751   4.620   3.440   8.496  1.4759  0.4528 -1.3120
  900MOL0     H18752   4.607   3.269   8.439  0.1653 -0.5050 -0.6520
  900MOL0     H18753   4.425   3.242   8.211  1.6393 -0.1706 -1.5655
  900MOL0     H18754   4.162   3.241   8.206 -1.1093 -0.5586 -3.3636
  900MOL0     H18755   4.193   3.350   8.071  0.3766  0.5814 -0.5677
  900MOL0     H18756   4.021   3.516   8.173 -1.5268 -0.1873 -0.3813
  900MOL0     H18757   4.031   3.418   8.314  2.4313  3.0389  0.5745
  900MOL0     H18758   3.922   3.349   8.034 -1.5040  0.0014 -0.2406
  900MOL0     H18759   3.959   3.220   8.154 -3.8082 -1.2648 -2.2468
  900MOL0     H18760   3.776   3.462   8.178  4.1314  1.4591  0.1115
  900MOL0     H18761   3.814   3.371   8.318  1.5987  1.7202 -0.0960
  900MOL0     H18762   3.588   3.071   8.030 -1.3453 -0.4024  0.3831
  900MOL0     H18763   3.452   3.091   7.829 -2.8244  0.5477 -0.1580
  900MOL0     H18764   3.112   3.253   7.605  2.1199  1.6721  0.6368
  900MOL0     H18765   2.983   3.258   7.385 -0.7320 -0.9252 -1.3416
  900MOL0     H18766   3.054   3.402   7.142 -2.2128  1.5443 -3.5345
  900MOL0     H18767   2.988   3.309   7.010 -2.4389  1.6943  2.2959
  900MOL0     H18768   3.163   3.379   6.905 -0.4286 -0.6493 -0.0228
  900MOL0     H18769   3.217   3.219   6.953 -2.0114 -0.6361 -2.9825
  900MOL0     H18770   3.399   3.406   6.952  0.5719  0.2609  0.5400
  900MOL0     H18771   3.376   3.316   7.097  1.3328  1.8940  0.6722
  900MOL0     H18772   3.222   3.575   7.041  0.2668  2.7294 -0.6392
  900MOL0     H18773   3.268   3.512   7.201  3.8438 -3.0901  0.9175
  900MOL0     H18774   3.389   3.706   7.133  2.7310  1.2819 -0.2428
  900MOL0     H18775   3.456   3.620   6.993 -0.8941 -1.8067 -0.2622
  900MOL0     H18776   3.610   3.645   7.141 -1.4473  1.5766 -0.2919
  900MOL0     H18777   3.577   3.474   7.133 -1.1073 -0.4411 -0.0876
  900MOL0     H18778   3.494   3.682   7.344  1.4937 -0.1897  1.4563
  900MOL0     H18779   3.422   3.521   7.340  0.5873 -0.7919  2.5755
  900MOL0     H18780   3.668   3.421   7.371  0.7922  1.2548 -4.8465
  900MOL0     H18781   3.596   3.507   7.507  2.5803  1.6242  1.0598
  900MOL0     H18782   3.318   3.094   7.184  2.6179  2.7128 -0.7577
  900MOL0     H18783   3.453   3.108   7.374  0.1007 -2.8914  0.3684
  900MOL0     H18784   3.506   3.516   7.826  0.5857  0.6529 -0.0025
  900MOL0     H18785   3.646   3.500   8.028  3.8051 -0.9838 -1.3064
  900MOL0     H18786   5.344   3.502   8.833  1.1837 -0.8171 -0.0062
  900MOL0     H18787   5.527   3.355   8.868 -0.1695  0.1879  0.3066
  900MOL0     H18788   5.991   3.249   8.938 -1.1666 -1.3488  1.9946
  900MOL0     H18789   6.166   3.039   8.912  2.3878  0.9769 -1.5654
  900MOL0     H18790   6.183   2.835   8.522  0.5186  0.8262 -0.8408
  900MOL0     H18791   6.083   2.735   8.617  0.8761 -1.3931 -0.4815
  900MOL0     H18792   6.296   2.629   8.549 -2.8298  1.0367  0.0290
  900MOL0     H18793   6.390   2.733   8.654  0.2767 -0.0529 -0.6807
  900MOL0     H18794   6.169   2.566   8.768 -0.6865  0.5606 -0.4004
  900MOL0     H18795   6.264   2.683   8.857  1.4819  2.4334 -1.6307
  900MOL0     H18796   6.352   2.458   8.915 -1.8444  1.3078 -0.0425
  900MOL0     H18797   6.359   2.431   8.738 -1.0334  3.0701 -2.5321
  900MOL0     H18798   6.715   2.640   8.840 -1.8503  4.0591  0.6264
  900MOL0     H18799   5.931   2.882   8.602  1.0728  1.0386 -1.2765
  900MOL0     H18800   5.770   3.054   8.627 -1.2120  0.0425  0.7190
  901MOL0     O18801  11.164   2.833   5.188 -0.0896  0.6754  0.0730
  901MOL0     C18802  11.113   2.931   5.137 -0.0388 -0.1515  0.1793
  901MOL0     O18803  11.002   2.992   5.183  0.4850  0.0081 -0.0576
  901MOL0     C18804  10.918   2.913   5.256  0.9313 -0.3161  0.1347
  901MOL0     C18805  10.895   2.779   5.228 -0.1701  0.1107 -0.7918
  901MOL0     C18806  10.796   2.703   5.301  0.4156  0.4036  0.4346
  901MOL0     C18807  10.702   2.772   5.375  0.4497  0.0417 -0.2930
  901MOL0     O18808  10.595   2.715   5.452  0.0856  0.6576  0.0067
  901MOL0     C18809  10.504   2.642   5.374  1.1222 -0.7724 -0.0915
  901MOL0     C18810  10.386   2.624   5.467  0.1064  0.4329 -0.3003
  901MOL0     C18811  10.256   2.592   5.389 -0.5950  1.3543  0.6110
  901MOL0     C18812  10.153   2.549   5.492  0.8131 -0.0736 -0.6456
  901MOL0     C18813  10.040   2.452   5.457  0.9727  0.8152 -1.0538
  901MOL0     C18814   9.940   2.509   5.364 -0.0222 -0.4261 -0.0242
  901MOL0     C18815   9.824   2.408   5.338  0.8250  0.1466 -0.5988
  901MOL0     C18816   9.727   2.461   5.230  0.1425  0.5735  0.5302
  901MOL0     N18817   9.602   2.518   5.279  0.9952 -0.5410  0.5248
  901MOL0     C18818   9.572   2.609   5.382 -0.1931 -0.3464 -1.4756
  901MOL0     C18819   9.434   2.619   5.391 -0.0544 -0.9690  0.0037
  901MOL0     C18820   9.353   2.704   5.485  0.1386  0.2958  0.1009
  901MOL0     C18821   9.199   2.714   5.438 -0.1263 -0.1772  0.3478
  901MOL0     C18822   9.111   2.787   5.532 -0.0047  0.2299 -0.3171
  901MOL0     C18823   8.971   2.806   5.475  0.0459  0.0407 -1.1006
  901MOL0     O18824   8.962   2.911   5.383  0.2921 -0.2545  0.2661
  901MOL0     C18825   8.836   2.924   5.321 -0.3822  0.7215  0.4567
  901MOL0     C18826   8.827   3.027   5.230 -0.1534 -0.4402 -0.4173
  901MOL0     C18827   8.704   3.077   5.188 -0.7616  0.0114  0.3271
  901MOL0     C18828   8.580   3.020   5.215 -0.2906  0.4768  0.3865
  901MOL0     C18829   8.451   3.073   5.172  0.5308 -0.1714  0.0064
  901MOL0     O18830   8.331   3.023   5.216 -0.3928  0.1233 -0.2240
  901MOL0     C18831   8.227   3.071   5.145 -0.9856 -0.3549 -0.0553
  901MOL0     C18832   8.180   3.014   5.024  0.2744  0.3444 -0.1274
  901MOL0     C18833   8.074   3.068   4.956 -0.2451 -0.6130  0.3338
  901MOL0     C18834   8.010   3.188   5.000  0.2139 -0.2144 -0.1905
  901MOL0     O18835   7.908   3.265   4.941  0.5121  0.3859  0.4148
  901MOL0     C18836   7.794   3.179   4.925 -0.2202 -0.6826 -0.3885
  901MOL0     C18837   7.668   3.263   4.910  1.0019 -1.0864 -0.5286
  901MOL0     C18838   7.542   3.193   4.847 -0.1664 -0.2004 -0.4713
  901MOL0     C18839   7.412   3.264   4.886  0.2815 -0.8124  0.2530
  901MOL0     C18840   7.288   3.198   4.838 -0.3945  0.5539  0.9257
  901MOL0     C18841   7.165   3.281   4.855 -0.0827  0.0514  0.4410
  901MOL0     C18842   7.051   3.242   4.757  0.4011  0.1602  0.2773
  901MOL0     C18843   6.922   3.315   4.794  0.4411  0.1583  0.0931
  901MOL0    Cl18844   6.774   3.248   4.705 -0.1640 -0.0842 -0.0320
  901MOL0     C18845   8.062   3.251   5.114 -0.7779  0.0719 -0.8106
  901MOL0     C18846   8.166   3.185   5.185 -1.0332 -0.2408 -0.4400
  901MOL0     O18847   8.460   3.163   5.086 -0.0672  0.3623  0.2486
  901MOL0     C18848   8.580   2.917   5.301  0.2344  0.7638 -0.8129
  901MOL0     C18849   8.710   2.869   5.355  0.3549  0.1298 -1.2287
  901MOL0     N18850   9.384   2.536   5.298 -0.1082  0.9230 -0.0913
  901MOL0     N18851   9.482   2.471   5.238  0.1972  0.0440 -0.6625
  901MOL0     C18852  10.717   2.915   5.391  0.3360  0.0835  0.1518
  901MOL0     C18853  10.821   2.981   5.340  0.5316  0.2215  1.0019
  901MOL0     C18854  11.193   2.979   5.012  0.3952  0.2367 -0.9984
  901MOL0     C18855  11.304   2.903   4.969  0.4653 -0.7257  0.6169
  901MOL0     C18856  11.378   2.940   4.852 -0.1392 -0.0018  0.6271
  901MOL0     C18857  11.360   3.071   4.800 -0.2029  0.0206 -0.4128
  901MOL0     O18858  11.442   3.140   4.719  0.8057  0.2398 -0.3162
  901MOL0     C18859  11.565   3.079   4.664 -0.4488  0.7621 -0.0550
  901MOL0     C18860  11.693   3.167   4.698  0.8351  0.9119 -0.0654
  901MOL0     C18861  11.666   3.317   4.694  0.3954  0.2979  0.1919
  901MOL0     C18862  11.784   3.405   4.738 -0.2868  0.6149  0.0010
  901MOL0     C18863  11.819   3.364   4.873  0.3491 -0.1975  0.1494
  901MOL0     C18864  11.869   3.317   4.974 -0.7206 -0.5625 -0.1491
  901MOL0     C18865  11.245   3.143   4.840 -0.3079 -0.4649 -0.2119
  901MOL0     C18866  11.167   3.102   4.949  0.0993 -0.0928  0.5615
  901MOL0     H18867  10.950   2.728   5.151  2.5441  1.1673  0.3131
  901MOL0     H18868  10.778   2.600   5.274  0.0309  0.6764 -0.3860
  901MOL0     H18869  10.544   2.545   5.343 -1.8531 -2.3068  0.4432
  901MOL0     H18870  10.473   2.703   5.289  0.7905  1.9209  1.8351
  901MOL0     H18871  10.371   2.714   5.529 -2.9156 -0.4617  0.4265
  901MOL0     H18872  10.415   2.551   5.544 -0.3169  1.0241  0.4333
  901MOL0     H18873  10.262   2.519   5.309  1.3699  2.6410 -0.4833
  901MOL0     H18874  10.222   2.685   5.342  1.1334  1.4672 -0.4635
  901MOL0     H18875  10.185   2.491   5.580 -2.0636 -0.6894  0.1112
  901MOL0     H18876  10.123   2.645   5.534 -2.3562 -1.0726 -0.3311
  901MOL0     H18877   9.979   2.420   5.542 -0.0867  1.6965 -1.4586
  901MOL0     H18878  10.092   2.365   5.417  0.5010  1.0803 -2.2934
  901MOL0     H18879   9.985   2.530   5.266 -0.0009 -1.3629 -0.2224
  901MOL0     H18880   9.901   2.606   5.398  1.7805  1.0204 -1.7807
  901MOL0     H18881   9.871   2.314   5.308  0.1810 -0.1741 -0.6023
  901MOL0     H18882   9.765   2.395   5.429 -2.7181 -1.3270 -2.9070
  901MOL0     H18883   9.694   2.375   5.172  0.7571  0.2327  0.6829
  901MOL0     H18884   9.767   2.540   5.166 -0.7294  2.2433  1.9293
  901MOL0     H18885   9.640   2.668   5.442 -3.4692  2.9741 -0.6125
  901MOL0     H18886   9.395   2.805   5.486  0.1360  0.3058 -0.8299
  901MOL0     H18887   9.369   2.647   5.577  2.0713 -1.5311 -1.2846
  901MOL0     H18888   9.162   2.611   5.426  2.4652 -1.5963  3.0827
  901MOL0     H18889   9.195   2.764   5.341  1.7298 -0.9058 -0.1434
  901MOL0     H18890   9.108   2.729   5.625  0.5258 -1.5741 -1.3547
  901MOL0     H18891   9.161   2.881   5.555 -2.3637  1.4343  0.1591
  901MOL0     H18892   8.910   2.840   5.560  0.9363  2.3729 -1.3514
  901MOL0     H18893   8.953   2.709   5.427  2.8851 -2.1155  1.7224
  901MOL0     H18894   8.907   3.093   5.199 -1.0062  0.4149 -0.8478
  901MOL0     H18895   8.716   3.166   5.126 -0.2517 -0.0503  0.3372
  901MOL0     H18896   8.226   2.920   4.995 -1.6473 -0.9588  0.8841
  901MOL0     H18897   8.035   3.026   4.863 -2.4603 -1.1893  1.4624
  901MOL0     H18898   7.774   3.120   5.014  0.6138 -0.2280  0.1096
  901MOL0     H18899   7.810   3.116   4.836  2.5880  1.7462 -1.7800
  901MOL0     H18900   7.692   3.350   4.848  0.8980 -0.9050 -0.3151
  901MOL0     H18901   7.648   3.309   5.007 -0.9399  0.7751 -1.7329
  901MOL0     H18902   7.536   3.090   4.882 -1.8163 -0.2337 -0.7971
  901MOL0     H18903   7.546   3.191   4.738  0.4309 -1.4804 -0.4424
  901MOL0     H18904   7.405   3.287   4.992  4.1395  0.4266  0.3867
  901MOL0     H18905   7.411   3.362   4.839 -2.1111 -0.3334  1.1508
  901MOL0     H18906   7.280   3.106   4.898 -2.0372 -0.9253 -1.3993
  901MOL0     H18907   7.298   3.168   4.733  0.0287  1.0298  0.8275
  901MOL0     H18908   7.198   3.384   4.839 -1.6368  0.6791  1.0657
  901MOL0     H18909   7.128   3.282   4.958 -1.4490  1.0912 -0.0365
  901MOL0     H18910   7.078   3.240   4.651 -1.5483 -1.6537 -0.2701
  901MOL0     H18911   7.017   3.140   4.776  1.1922  0.1613  1.8074
  901MOL0     H18912   6.947   3.419   4.775  1.8477  0.4047  2.8235
  901MOL0     H18913   6.907   3.298   4.901 -1.3181  2.2228  0.2312
  901MOL0     H18914   8.022   3.341   5.159 -1.3596  0.0252 -1.2203
  901MOL0     H18915   8.208   3.229   5.276 -0.6623  1.2741 -1.3140
  901MOL0     H18916   8.487   2.879   5.341 -0.5003  2.8119 -0.4730
  901MOL0     H18917   8.707   2.800   5.438 -0.9358  0.3507 -1.0773
  901MOL0     H18918  10.639   2.971   5.442 -0.9723 -1.7623  0.2756
  901MOL0     H18919  10.822   3.088   5.356 -1.1678  0.2584  1.0210
  901MOL0     H18920  11.335   2.810   5.015  1.7863 -0.7722 -0.3102
  901MOL0     H18921  11.453   2.875   4.808 -1.0663 -0.0243 -1.0000
  901MOL0     H18922  11.540   3.077   4.557 -2.4865 -1.5988  0.3751
  901MOL0     H18923  11.587   2.976   4.692  1.6335  0.7345 -1.5624
  901MOL0     H18924  11.720   3.136   4.799 -3.1963 -3.4364  0.0068
  901MOL0     H18925  11.775   3.135   4.633  1.8289  0.4405  1.3758
  901MOL0     H18926  11.578   3.338   4.756  1.1648 -0.4466  1.5641
  901MOL0     H18927  11.638   3.353   4.594 -2.8510  0.6087  1.0759
  901MOL0     H18928  11.865   3.399   4.665 -2.2253 -0.6039 -2.2044
  901MOL0     H18929  11.762   3.512   4.734 -1.0273  0.6347  2.5546
  901MOL0     H18930  11.909   3.266   5.059 -4.0383  0.0338  1.9632
  901MOL0     H18931  11.232   3.242   4.797  1.7144 -0.4327 -0.8951
  901MOL0     H18932  11.098   3.173   4.993 -2.2187 -0.6939 -1.8022
  902MOL0     O18933   9.391   9.512   8.062 -0.5644 -0.0573 -0.1354
  902MOL0     C18934   9.464   9.539   7.963  0.7528 -0.0784 -0.1898
  902MOL0     O18935   9.456   9.489   7.846  0.4779 -0.0877  0.2908
  902MOL0     C18936   9.343   9.416   7.811 -0.7480 -0.3902  0.2283
  902MOL0     C18937   9.373   9.293   7.746  0.6842  0.1025  0.3727
  902MOL0     C18938   9.264   9.222   7.688  0.2463  0.7188 -0.5384
  902MOL0     C18939   9.135   9.253   7.724  0.6127 -1.1553  0.1843
  902MOL0     O18940   9.022   9.195   7.682  0.2805  0.5363 -0.3231
  902MOL0     C18941   9.023   9.050   7.657 -0.1397 -0.1288  0.4658
  902MOL0     C18942   9.023   9.019   7.504 -0.6027  0.2125 -0.9184
  902MOL0     C18943   9.003   8.876   7.479  0.7647 -0.3790 -0.6013
  902MOL0     C18944   8.981   8.862   7.334 -0.3209 -0.0163  0.4135
  902MOL0     C18945   8.994   8.715   7.284  0.0061  1.0419 -0.2373
  902MOL0     C18946   8.878   8.612   7.315 -0.2602  0.3411  0.4785
  902MOL0     C18947   8.759   8.665   7.229 -1.0125 -0.1979 -0.3428
  902MOL0     C18948   8.635   8.569   7.237 -0.7803  0.0265 -0.6630
  902MOL0     N18949   8.578   8.577   7.377  0.3912 -0.3341 -0.1732
  902MOL0     C18950   8.538   8.689   7.448  0.1784 -0.0462  0.3897
  902MOL0     C18951   8.547   8.639   7.580 -0.6310 -0.8301 -0.3794
  902MOL0     C18952   8.533   8.716   7.705 -0.0904 -0.2245 -0.1929
  902MOL0     C18953   8.644   8.827   7.709  0.2081  0.1947  0.3116
  902MOL0     C18954   8.596   8.950   7.781  0.0939 -0.2914  0.2772
  902MOL0     C18955   8.560   9.051   7.670 -0.7419 -0.1810 -1.4351
  902MOL0     O18956   8.450   9.003   7.592 -0.0818 -0.3886 -0.7216
  902MOL0     C18957   8.323   9.008   7.638  0.2173  0.2096  0.0212
  902MOL0     C18958   8.227   8.937   7.562 -0.3236  0.1163 -0.2686
  902MOL0     C18959   8.099   8.930   7.608 -0.5098  0.2604  0.4810
  902MOL0     C18960   8.059   8.987   7.727  0.3067 -1.1077  0.2904
  902MOL0     C18961   7.918   8.984   7.772 -0.0820  0.8348 -0.7030
  902MOL0     O18962   7.826   8.950   7.674  0.0377 -0.0267  0.2387
  902MOL0     C18963   7.688   8.941   7.688 -0.5499  0.2261  0.0972
  902MOL0     C18964   7.617   9.039   7.769 -1.3444 -0.6222  0.0571
  902MOL0     C18965   7.482   9.026   7.789  0.3995 -0.3571 -0.2753
  902MOL0     C18966   7.417   8.927   7.721  0.9717  0.0576  0.2194
  902MOL0     O18967   7.287   8.905   7.728 -0.1455 -0.7879 -1.1410
  902MOL0     C18968   7.208   9.022   7.703  0.6871  0.7974  0.6185
  902MOL0     C18969   7.066   8.968   7.648 -0.3086 -0.9320  0.1517
  902MOL0     C18970   6.966   9.084   7.627  0.1119 -0.7589  0.5133
  902MOL0     C18971   6.855   9.032   7.529 -0.2978 -0.2551 -0.3588
  902MOL0     C18972   6.743   9.132   7.530  0.0546 -0.8091  0.1469
  902MOL0     C18973   6.625   9.085   7.436 -0.1457 -0.1631 -0.6487
  902MOL0     C18974   6.508   9.174   7.471  0.1482  0.5190  0.2886
  902MOL0     C18975   6.388   9.118   7.392  0.1037 -0.2400  0.5599
  902MOL0    Cl18976   6.258   9.248   7.376  0.0617 -0.2472  0.3415
  902MOL0     C18977   7.483   8.833   7.634 -0.9225 -0.1845 -0.0946
  902MOL0     C18978   7.619   8.842   7.614  0.5928  0.8177 -0.4611
  902MOL0     O18979   7.892   9.009   7.890 -0.2224  0.0816  1.0910
  902MOL0     C18980   8.151   9.067   7.807 -0.0305 -0.3863 -0.0933
  902MOL0     C18981   8.280   9.075   7.759 -0.9769  0.5731  0.2164
  902MOL0     N18982   8.567   8.512   7.585  0.0195  0.1906 -0.1441
  902MOL0     N18983   8.579   8.470   7.462  0.5279  0.2381  0.0613
  902MOL0     C18984   9.114   9.364   7.808  0.0154 -0.1415 -0.3631
  902MOL0     C18985   9.211   9.454   7.849  0.7166  0.0417  0.3343
  902MOL0     C18986   9.575   9.633   7.985  0.4141 -1.0772 -0.4218
  902MOL0     C18987   9.621   9.655   8.115 -0.4439  0.3250  0.0798
  902MOL0     C18988   9.708   9.757   8.146  0.5953 -0.5073  0.8764
  902MOL0     C18989   9.762   9.837   8.041  0.0817  0.5620 -0.5552
  902MOL0     O18990   9.849   9.937   8.082 -0.0727  0.0039 -0.1262
  902MOL0     C18991   9.925  10.004   7.985 -0.6101 -0.0813  0.6744
  902MOL0     C18992  10.023  10.101   8.049  0.1541 -0.3293  0.5300
  902MOL0     C18993  10.146  10.021   8.108  0.3788  1.0188 -0.1184
  902MOL0     C18994  10.262  10.103   8.154 -0.7622 -0.7876  0.1221
  902MOL0     C18995  10.235  10.226   8.227  0.4598  0.1672 -0.3104
  902MOL0     C18996  10.205  10.332   8.279 -0.1181 -0.2270  1.6239
  902MOL0     C18997   9.727   9.813   7.909  0.3290  0.6151  0.8860
  902MOL0     C18998   9.634   9.713   7.882 -0.0669  0.5729  0.1136
  902MOL0     H18999   9.475   9.262   7.726  0.5829 -0.0620  0.1123
  902MOL0     H19000   9.296   9.135   7.632  3.4238  0.6551  1.1213
  902MOL0     H19001   8.929   9.010   7.697  0.1050  0.7712  1.9886
  902MOL0     H19002   9.101   8.993   7.708  1.1755  0.7811 -0.4724
  902MOL0     H19003   9.123   9.050   7.470 -0.2729  1.5192  1.0729
  902MOL0     H19004   8.949   9.090   7.466  0.2163  2.0230  0.6767
  902MOL0     H19005   8.917   8.836   7.532  1.1226 -0.6675 -0.2304
  902MOL0     H19006   9.088   8.820   7.521 -1.2099 -1.8098  1.7217
  902MOL0     H19007   8.883   8.906   7.311  0.0516  0.8532  0.4340
  902MOL0     H19008   9.056   8.917   7.277 -1.0227 -1.2608 -1.8254
  902MOL0     H19009   9.086   8.673   7.326  0.0442  0.5296 -0.8115
  902MOL0     H19010   9.018   8.711   7.177  1.9479  0.5830  0.1785
  902MOL0     H19011   8.853   8.615   7.421  0.2819  0.7989  0.5990
  902MOL0     H19012   8.904   8.509   7.291  3.3187  1.7588 -2.9203
  902MOL0     H19013   8.728   8.761   7.273  1.1089 -0.4607  1.9565
  902MOL0     H19014   8.789   8.676   7.125  0.2119 -0.1687 -0.0054
  902MOL0     H19015   8.669   8.467   7.219  0.8959  1.0729 -4.2505
  902MOL0     H19016   8.554   8.607   7.174  0.7320  1.7732 -1.6452
  902MOL0     H19017   8.521   8.790   7.410 -0.3778  0.2633  1.4025
  902MOL0     H19018   8.547   8.645   7.788  0.2912  0.7540  0.5953
  902MOL0     H19019   8.436   8.767   7.698 -0.4603 -0.1425  3.6183
  902MOL0     H19020   8.680   8.853   7.609  1.5192 -0.7920  0.5070
  902MOL0     H19021   8.732   8.795   7.766  0.7374 -0.6608 -0.9484
  902MOL0     H19022   8.506   8.929   7.840 -1.7443  0.4604 -2.0989
  902MOL0     H19023   8.681   8.991   7.837  0.4520 -2.2282  1.2273
  902MOL0     H19024   8.650   9.073   7.611  0.9360  0.4341  1.1963
  902MOL0     H19025   8.530   9.146   7.716 -0.0560 -0.5460 -0.2114
  902MOL0     H19026   8.248   8.891   7.466  0.6603  0.8101 -0.4044
  902MOL0     H19027   8.026   8.886   7.541 -0.5116 -3.3450  2.5619
  902MOL0     H19028   7.668   9.120   7.819  0.7341 -1.2221 -0.9256
  902MOL0     H19029   7.435   9.105   7.847  3.1249  0.8605  0.4664
  902MOL0     H19030   7.253   9.083   7.624  0.2907  1.2047  0.6992
  902MOL0     H19031   7.195   9.081   7.794  0.6772 -2.3431  2.7863
  902MOL0     H19032   7.020   8.900   7.721  0.5215 -0.5049  1.0960
  902MOL0     H19033   7.087   8.919   7.552  2.4207 -0.8144  0.6104
  902MOL0     H19034   7.011   9.176   7.589 -1.7997 -0.4271 -1.0897
  902MOL0     H19035   6.910   9.108   7.718 -1.6172  0.1137 -0.7165
  902MOL0     H19036   6.900   9.018   7.430  1.1512  2.0487 -0.1084
  902MOL0     H19037   6.825   8.935   7.568 -1.7892  1.1745  2.3647
  902MOL0     H19038   6.780   9.226   7.488 -0.8437 -1.0265 -1.1651
  902MOL0     H19039   6.710   9.153   7.633  2.1795  1.8058  0.4047
  902MOL0     H19040   6.609   8.981   7.465 -0.8130  0.2676  0.5599
  902MOL0     H19041   6.647   9.094   7.329 -0.1478  2.1541 -0.5020
  902MOL0     H19042   6.481   9.177   7.577 -0.8176 -0.6839  0.0923
  902MOL0     H19043   6.530   9.276   7.438  0.7084 -0.2020 -1.6609
  902MOL0     H19044   6.345   9.024   7.427  0.8579 -0.5467  0.6687
  902MOL0     H19045   6.426   9.101   7.291  1.6061  4.5618  0.0557
  902MOL0     H19046   7.436   8.756   7.573  0.5391 -1.4692  0.3219
  902MOL0     H19047   7.662   8.775   7.540  1.2802  2.5510 -1.7251
  902MOL0     H19048   8.123   9.116   7.899 -2.8962 -0.9069 -0.6015
  902MOL0     H19049   8.342   9.141   7.819 -5.8420  2.9474  3.2762
  902MOL0     H19050   9.010   9.386   7.829 -0.6133  0.1977 -3.3829
  902MOL0     H19051   9.179   9.541   7.906  1.6007  0.0377  0.8436
  902MOL0     H19052   9.569   9.599   8.192 -0.7165  0.3534 -0.0807
  902MOL0     H19053   9.732   9.759   8.252 -3.6316  0.5648  2.0332
  902MOL0     H19054   9.859  10.059   7.917  2.0196 -0.4846 -2.4401
  902MOL0     H19055   9.981   9.937   7.919 -2.0711 -0.4014 -0.2832
  902MOL0     H19056  10.068  10.163   7.971  3.5868 -0.8972  1.9141
  902MOL0     H19057   9.973  10.169   8.118  2.2581  2.7703 -0.7747
  902MOL0     H19058  10.181   9.950   8.032 -0.2464 -0.3082  0.7759
  902MOL0     H19059  10.114   9.946   8.182 -2.7360  2.3042  0.0019
  902MOL0     H19060  10.335  10.046   8.213 -0.6257 -0.0241  0.6949
  902MOL0     H19061  10.317  10.139   8.066 -0.6485 -1.6583 -0.1761
  902MOL0     H19062  10.190  10.423   8.334 -2.0996 -1.5236  3.4035
  902MOL0     H19063   9.766   9.884   7.837 -1.9807  0.6571 -0.4170
  902MOL0     H19064   9.607   9.689   7.779 -2.3107  1.7579  0.3705
  903MOL0     O19065   5.987  10.065   9.070  0.0527 -0.6623  0.1075
  903MOL0     C19066   5.964   9.958   9.012 -0.0609 -0.2614  0.2233
  903MOL0     O19067   6.057   9.858   8.981  0.3763 -0.5349  0.6931
  903MOL0     C19068   6.194   9.869   9.016  0.8412  0.0042 -0.0732
  903MOL0     C19069   6.275   9.754   9.036  0.7620  0.8893  0.0222
  903MOL0     C19070   6.401   9.757   9.064  0.0367 -0.7515 -0.8151
  903MOL0     C19071   6.481   9.873   9.077 -0.1422  0.0397 -0.1735
  903MOL0     O19072   6.611   9.858   9.121  0.1418  0.3680 -0.3234
  903MOL0     C19073   6.692   9.972   9.137 -0.4543  0.1383 -0.0752
  903MOL0     C19074   6.832   9.927   9.183 -0.5371 -0.4917  0.2994
  903MOL0     C19075   6.927  10.041   9.223 -0.3629  0.6178  0.5364
  903MOL0     C19076   7.066   9.986   9.252 -0.1691  0.1197 -0.5470
  903MOL0     C19077   7.168  10.095   9.275  1.4262 -0.0844  0.1214
  903MOL0     C19078   7.281  10.043   9.356 -0.2470  0.0604 -0.1889
  903MOL0     C19079   7.412  10.122   9.345  0.5186 -0.0276 -0.2777
  903MOL0     C19080   7.418  10.271   9.378 -0.2536  0.3722  0.3948
  903MOL0     N19081   7.394  10.294   9.520 -0.0402  0.3283 -0.0433
  903MOL0     C19082   7.280  10.347   9.565 -0.1041  0.3058 -0.4983
  903MOL0     C19083   7.316  10.382   9.693  0.2003 -0.0667 -0.5654
  903MOL0     C19084   7.222  10.448   9.801  0.1594 -0.9482 -0.1948
  903MOL0     C19085   7.082  10.476   9.751 -0.4359  0.3800 -0.1409
  903MOL0     C19086   7.074  10.586   9.656  0.0993  0.2204 -0.6710
  903MOL0     C19087   6.924  10.601   9.616 -0.3285  0.9834 -0.5265
  903MOL0     O19088   6.912  10.507   9.512  0.5578 -0.3936  0.3630
  903MOL0     C19089   6.786  10.497   9.453 -1.2942  0.5771  0.7450
  903MOL0     C19090   6.777  10.433   9.329 -0.9058 -0.5644  0.2077
  903MOL0     C19091   6.655  10.423   9.268 -0.7189 -0.4858 -0.0965
  903MOL0     C19092   6.531  10.472   9.326 -0.4853  0.2612 -0.2869
  903MOL0     C19093   6.405  10.463   9.252  1.0188 -0.0111 -0.9361
  903MOL0     O19094   6.295  10.532   9.304  0.0379  0.0511 -0.7919
  903MOL0     C19095   6.174  10.540   9.246 -0.1023  0.2526 -0.0467
  903MOL0     C19096   6.062  10.489   9.310  0.0333  0.2188  0.4422
  903MOL0     C19097   5.935  10.482   9.241  0.0870 -0.2772 -0.9407
  903MOL0     C19098   5.923  10.536   9.114 -0.5528  0.2745 -1.9821
  903MOL0     O19099   5.795  10.541   9.065 -0.2596  0.0171  0.6497
  903MOL0     C19100   5.750  10.654   8.993  0.4061  0.0982 -0.0538
  903MOL0     C19101   5.745  10.783   9.068 -1.2163 -0.5806 -0.5304
  903MOL0     C19102   5.614  10.827   9.139  0.5238  0.4608  0.9518
  903MOL0     C19103   5.628  10.906   9.259  0.2298  0.4633 -0.2273
  903MOL0     C19104   5.490  10.985   9.291 -0.4470  0.3293  0.0193
  903MOL0     C19105   5.519  11.058   9.421 -0.2433 -0.6110 -0.5445
  903MOL0     C19106   5.431  11.181   9.450  0.2802  1.2481  0.1927
  903MOL0     C19107   5.432  11.217   9.604 -0.0044  0.1763  0.7618
  903MOL0    Cl19108   5.384  11.072   9.699  0.5754  0.0668 -0.1192
  903MOL0     C19109   6.033  10.587   9.052  0.3112  0.2467 -0.2714
  903MOL0     C19110   6.157  10.582   9.116 -0.5316 -0.6376 -0.6998
  903MOL0     O19111   6.405  10.407   9.147 -0.0216  0.3203  0.3963
  903MOL0     C19112   6.543  10.530   9.454 -0.4369  1.2191 -0.1758
  903MOL0     C19113   6.668  10.539   9.516  0.8910 -0.3207  0.2653
  903MOL0     N19114   7.450  10.351   9.707 -0.2195 -0.2726 -0.5749
  903MOL0     N19115   7.502  10.293   9.604 -0.0627  0.0803 -0.2688
  903MOL0     C19116   6.404   9.992   9.065  0.3233 -0.4351  0.5673
  903MOL0     C19117   6.267   9.988   9.021  0.5036 -0.0565 -0.4169
  903MOL0     C19118   5.821   9.933   8.974  0.2973  0.0671 -0.1819
  903MOL0     C19119   5.789   9.846   8.871  0.3059  0.3379 -0.2190
  903MOL0     C19120   5.663   9.822   8.832 -0.1993 -0.1434 -0.0665
  903MOL0     C19121   5.557   9.910   8.876  0.0610 -0.1999 -0.0396
  903MOL0     O19122   5.433   9.898   8.807 -0.5991  0.5631 -0.8364
  903MOL0     C19123   5.330   9.987   8.827  0.8378 -0.2277 -0.0108
  903MOL0     C19124   5.218   9.953   8.725  0.1565  0.1789  0.1699
  903MOL0     C19125   5.120  10.068   8.696 -0.2418 -0.0197  1.0395
  903MOL0     C19126   5.021  10.022   8.595  0.2202 -0.0500 -0.1273
  903MOL0     C19127   4.943  10.138   8.550  0.0841 -0.7449  0.2047
  903MOL0     C19128   4.872  10.212   8.491  1.0076  0.2118 -0.2149
  903MOL0     C19129   5.585  10.002   8.983 -1.0759 -0.5503  0.1405
  903MOL0     C19130   5.721  10.013   9.034 -0.4921  0.7879  0.4701
  903MOL0     H19131   6.220   9.661   9.036  0.1961  1.2225 -0.2861
  903MOL0     H19132   6.455   9.664   9.078  1.1791 -0.1443 -0.9828
  903MOL0     H19133   6.641  10.047   9.199 -0.4848  0.9582 -1.0780
  903MOL0     H19134   6.711  10.021   9.042 -0.7667  0.7752  0.1848
  903MOL0     H19135   6.874   9.878   9.094 -1.1611 -0.8880  0.2202
  903MOL0     H19136   6.819   9.860   9.269  0.0912  0.2944  1.0209
  903MOL0     H19137   6.887  10.094   9.310  0.8510  2.7546 -0.1024
  903MOL0     H19138   6.932  10.119   9.146 -0.9686  0.0409 -0.1013
  903MOL0     H19139   7.055   9.933   9.347 -1.3609 -1.0079 -1.2820
  903MOL0     H19140   7.108   9.928   9.169 -0.1206 -2.7229  1.3269
  903MOL0     H19141   7.121  10.177   9.329 -0.8141  1.8182 -4.2421
  903MOL0     H19142   7.197  10.136   9.178 -0.5410 -2.7027 -1.7156
  903MOL0     H19143   7.309   9.941   9.327  2.8136  1.2612 -1.9269
  903MOL0     H19144   7.247  10.033   9.459 -0.8505 -0.1489 -0.4068
  903MOL0     H19145   7.488  10.080   9.413  1.1552  2.3468  0.6004
  903MOL0     H19146   7.450  10.110   9.243  2.5954  0.8945  0.3225
  903MOL0     H19147   7.334  10.317   9.325  0.1170  1.2775  0.5665
  903MOL0     H19148   7.511  10.318   9.344 -0.9483  0.0064 -2.2278
  903MOL0     H19149   7.182  10.348   9.518 -0.0131  2.4093 -0.7411
  903MOL0     H19150   7.264  10.537   9.850 -0.2166 -0.5068 -0.6611
  903MOL0     H19151   7.218  10.369   9.876  0.4446 -0.5732  0.2226
  903MOL0     H19152   7.016  10.487   9.838  2.3926 -0.9126  2.3615
  903MOL0     H19153   7.050  10.384   9.702  0.9830 -1.7983  2.6907
  903MOL0     H19154   7.106  10.676   9.708 -0.2011 -0.3024  0.4451
  903MOL0     H19155   7.130  10.564   9.565 -0.0051 -2.9639 -0.0771
  903MOL0     H19156   6.892  10.696   9.574 -2.1410  0.9159  0.5846
  903MOL0     H19157   6.863  10.588   9.706  1.0251 -0.3900  0.2428
  903MOL0     H19158   6.872  10.410   9.281  0.1761  0.5619  1.6944
  903MOL0     H19159   6.662  10.393   9.164 -1.2197 -0.2845 -0.1930
  903MOL0     H19160   6.071  10.434   9.403 -1.0552 -1.8496 -0.5967
  903MOL0     H19161   5.844  10.442   9.284 -0.8054  0.8532 -1.7173
  903MOL0     H19162   5.650  10.634   8.954  0.9397  0.3069 -1.6368
  903MOL0     H19163   5.811  10.666   8.903 -0.6086  1.3367 -0.6063
  903MOL0     H19164   5.767  10.875   9.012  2.1710 -0.6163  0.5266
  903MOL0     H19165   5.824  10.780   9.144 -0.4706  1.5937 -1.1547
  903MOL0     H19166   5.562  10.735   9.166  2.1562 -0.8758 -0.1724
  903MOL0     H19167   5.551  10.887   9.072  0.4970 -2.0952 -1.5496
  903MOL0     H19168   5.658  10.839   9.340  0.0346  1.1626  0.4424
  903MOL0     H19169   5.708  10.978   9.237  0.8615 -0.4474 -0.9604
  903MOL0     H19170   5.415  10.907   9.308 -0.4078  0.2710 -0.0654
  903MOL0     H19171   5.462  11.055   9.212 -0.8819  2.0283  1.6051
  903MOL0     H19172   5.623  11.093   9.416 -0.9025  2.1583  1.8580
  903MOL0     H19173   5.526  10.989   9.505 -1.4370 -0.5525 -0.3780
  903MOL0     H19174   5.455  11.271   9.394  0.7198  2.0431  1.5923
  903MOL0     H19175   5.326  11.160   9.426  1.3053 -1.7321 -2.3281
  903MOL0     H19176   5.363  11.299   9.627 -2.0825 -1.6685  1.3778
  903MOL0     H19177   5.530  11.249   9.641  1.3797 -1.9752 -0.8124
  903MOL0     H19178   6.030  10.627   8.951 -1.9329  0.3553 -0.2207
  903MOL0     H19179   6.253  10.609   9.074  0.2482 -1.8558  0.2366
  903MOL0     H19180   6.451  10.565   9.502  0.4310 -0.0108  2.5938
  903MOL0     H19181   6.668  10.574   9.619  1.5209 -1.1667  0.5687
  903MOL0     H19182   6.454  10.087   9.053  0.6912 -0.7174 -0.2138
  903MOL0     H19183   6.216  10.079   8.988 -0.8518 -0.0119  1.6341
  903MOL0     H19184   5.868   9.790   8.822 -1.3568 -0.5141 -2.0692
  903MOL0     H19185   5.647   9.741   8.761 -1.5501  0.0760 -0.0460
  903MOL0     H19186   5.363  10.089   8.810 -0.4777  0.3391  0.6883
  903MOL0     H19187   5.291   9.957   8.925 -1.3167 -0.8228 -0.9981
  903MOL0     H19188   5.267   9.925   8.631 -2.1212 -1.8355 -0.5132
  903MOL0     H19189   5.162   9.865   8.758 -0.5507  0.9803  1.1638
  903MOL0     H19190   5.177  10.159   8.670 -0.0900 -0.4186 -0.1041
  903MOL0     H19191   5.054  10.098   8.777 -1.0283 -0.1405  0.4552
  903MOL0     H19192   5.069   9.975   8.508  1.4508  1.2300 -0.1820
  903MOL0     H19193   4.955   9.940   8.625  0.2042 -0.2347 -0.6535
  903MOL0     H19194   4.804  10.262   8.424 -0.2127  0.1564  0.9418
  903MOL0     H19195   5.509  10.069   9.020 -2.0671 -2.0012  0.8455
  903MOL0     H19196   5.753  10.067   9.123  1.0822 -0.7986  0.9126
  904MOL0     O19197   4.787   5.270   3.616  0.0853  0.2731 -0.5171
  904MOL0     C19198   4.800   5.372   3.552 -0.0716  0.6380 -0.5362
  904MOL0     O19199   4.700   5.418   3.468 -0.3032 -0.5570  0.6260
  904MOL0     C19200   4.576   5.353   3.467  0.0146 -0.5051 -0.0330
  904MOL0     C19201   4.514   5.325   3.343 -1.0423  0.1767 -0.1241
  904MOL0     C19202   4.383   5.269   3.357 -0.2772  0.6605  0.3612
  904MOL0     C19203   4.312   5.237   3.476 -0.6287 -0.4823  0.3826
  904MOL0     O19204   4.190   5.177   3.460 -0.0134 -0.9897 -0.3834
  904MOL0     C19205   4.092   5.184   3.562 -0.7186  0.1406  0.5177
  904MOL0     C19206   3.961   5.134   3.502  0.2720  0.3037 -0.5075
  904MOL0     C19207   3.855   5.137   3.618 -0.2517 -0.6017  0.3369
  904MOL0     C19208   3.720   5.074   3.574 -0.8035 -0.7579  0.2515
  904MOL0     C19209   3.605   5.111   3.669 -0.6896  0.1829  0.3211
  904MOL0     C19210   3.459   5.099   3.610 -0.1136 -0.1104 -0.7094
  904MOL0     C19211   3.357   5.132   3.717 -0.5219  0.0101 -0.3886
  904MOL0     C19212   3.216   5.107   3.656 -0.9581  0.2806  0.6242
  904MOL0     N19213   3.110   5.132   3.746 -0.1884 -0.2538 -0.3515
  904MOL0     C19214   2.986   5.175   3.701 -0.8505  0.7676 -0.0653
  904MOL0     C19215   2.904   5.175   3.809  0.2195 -0.2446  0.0026
  904MOL0     C19216   2.772   5.244   3.818  0.5038 -0.0307  0.7209
  904MOL0     C19217   2.662   5.143   3.831  0.0901  0.1163 -1.4329
  904MOL0     C19218   2.523   5.192   3.777 -0.2661 -0.2236  0.7989
  904MOL0     C19219   2.405   5.176   3.869 -0.3687  0.4118 -1.2553
  904MOL0     O19220   2.293   5.236   3.810  0.5020  0.4116 -0.0589
  904MOL0     C19221   2.179   5.240   3.890 -0.0687 -0.1829  0.1762
  904MOL0     C19222   2.171   5.295   4.015  0.3498 -0.3614 -0.4572
  904MOL0     C19223   2.050   5.276   4.080  0.6133  0.0067 -0.7859
  904MOL0     C19224   1.943   5.217   4.025  0.3457  0.6764 -0.2199
  904MOL0     C19225   1.813   5.195   4.101  2.1581 -0.4357  0.1238
  904MOL0     O19226   1.707   5.138   4.036 -0.0164 -0.3868  0.2364
  904MOL0     C19227   1.581   5.137   4.086  0.3201  0.8344  0.2852
  904MOL0     C19228   1.534   5.044   4.183 -0.6945 -0.8133  1.0088
  904MOL0     C19229   1.392   5.042   4.219 -0.4170  0.0531  0.4673
  904MOL0     C19230   1.306   5.137   4.176  0.0104 -0.4258 -0.0883
  904MOL0     O19231   1.174   5.126   4.219 -0.4828 -0.7620 -0.0708
  904MOL0     C19232   1.085   5.243   4.214 -0.4768 -0.0250 -0.3243
  904MOL0     C19233   0.934   5.201   4.220 -0.2280 -0.2436 -0.4784
  904MOL0     C19234   0.882   5.159   4.082 -0.0218  0.1108  0.1341
  904MOL0     C19235   0.728   5.167   4.067  0.6042 -0.6763 -0.3480
  904MOL0     C19236   0.647   5.102   4.187  0.2015  0.1606 -0.3598
  904MOL0     C19237   0.511   5.051   4.157 -0.6303 -0.0527  0.8007
  904MOL0     C19238   0.422   5.020   4.281 -0.1268  0.1747  0.4943
  904MOL0     C19239   0.276   5.000   4.234  0.5578 -1.2092  0.0109
  904MOL0    Cl19240   0.167   4.966   4.368 -0.2625  0.6126 -0.0881
  904MOL0     C19241   1.364   5.232   4.089  0.2663  0.0182  0.5011
  904MOL0     C19242   1.493   5.218   4.032  0.7981 -0.4637 -0.3558
  904MOL0     O19243   1.812   5.226   4.221  0.3872 -0.2935 -0.0542
  904MOL0     C19244   1.952   5.162   3.905  0.2186 -0.3689  0.5575
  904MOL0     C19245   2.066   5.179   3.829  0.4590 -0.4925  0.0982
  904MOL0     N19246   2.980   5.136   3.927  0.6923 -0.2382  0.3124
  904MOL0     N19247   3.097   5.102   3.876 -0.1906 -0.0459  0.6351
  904MOL0     C19248   4.377   5.263   3.596  0.3974  1.0299 -0.2274
  904MOL0     C19249   4.506   5.318   3.586 -0.0297 -0.2542 -0.3144
  904MOL0     C19250   4.936   5.424   3.544 -0.5522  0.2120 -0.5707
  904MOL0     C19251   4.958   5.535   3.463  0.0861  0.5179  0.5058
  904MOL0     C19252   5.080   5.598   3.456 -0.0545 -0.2840 -0.9406
  904MOL0     C19253   5.186   5.536   3.523 -0.2880  0.3618 -0.3282
  904MOL0     O19254   5.305   5.586   3.477 -0.0043  0.5745 -0.0477
  904MOL0     C19255   5.417   5.529   3.543  0.0519 -1.1136 -0.0935
  904MOL0     C19256   5.536   5.613   3.503  0.1657  0.5255 -0.3660
  904MOL0     C19257   5.548   5.640   3.349 -0.1317 -0.0685 -0.5219
  904MOL0     C19258   5.551   5.500   3.274 -0.0180 -0.9513 -0.2678
  904MOL0     C19259   5.561   5.529   3.126  0.1651 -0.7793 -0.4578
  904MOL0     C19260   5.572   5.531   3.010 -0.1355  0.3705 -0.0091
  904MOL0     C19261   5.160   5.423   3.603 -0.5240  0.4422  0.7366
  904MOL0     C19262   5.034   5.364   3.618 -0.2919  0.5903 -0.3412
  904MOL0     H19263   4.563   5.344   3.248 -0.0397  2.0522  0.6966
  904MOL0     H19264   4.330   5.253   3.264  0.9445  0.8259 -0.3748
  904MOL0     H19265   4.077   5.285   3.599  0.9759  0.0397  1.5808
  904MOL0     H19266   4.130   5.120   3.643  1.8720 -0.8799 -1.3702
  904MOL0     H19267   3.989   5.033   3.471  0.0122 -0.1057  0.5651
  904MOL0     H19268   3.927   5.198   3.420  0.7595  1.2081 -0.0183
  904MOL0     H19269   3.838   5.241   3.647  0.1324  0.2262 -2.1450
  904MOL0     H19270   3.906   5.076   3.694 -0.6299 -1.7982 -0.3471
  904MOL0     H19271   3.705   5.113   3.473  3.0165  1.7433  0.4380
  904MOL0     H19272   3.726   4.966   3.556 -1.0825 -0.1426 -5.0520
  904MOL0     H19273   3.622   5.218   3.683  1.9769 -0.0005 -0.8247
  904MOL0     H19274   3.607   5.045   3.756 -3.4179  0.4261  0.6487
  904MOL0     H19275   3.443   4.995   3.583 -3.6475  0.2607 -0.4987
  904MOL0     H19276   3.447   5.174   3.532  0.6544 -0.8154 -1.5215
  904MOL0     H19277   3.373   5.070   3.806  4.1091  0.6551 -0.5297
  904MOL0     H19278   3.358   5.238   3.741 -3.9126  0.3030 -1.0848
  904MOL0     H19279   3.203   5.003   3.625  1.0060  0.3382 -0.5263
  904MOL0     H19280   3.210   5.168   3.565 -0.1572  0.8439  0.9415
  904MOL0     H19281   2.950   5.223   3.610 -1.8237  0.5058  0.1708
  904MOL0     H19282   2.757   5.298   3.724 -1.7052  2.4935  2.3767
  904MOL0     H19283   2.762   5.317   3.898 -0.5173  0.0247  0.5530
  904MOL0     H19284   2.660   5.106   3.934 -2.4927  3.1621 -0.2409
  904MOL0     H19285   2.686   5.055   3.770 -0.5054 -0.2486 -1.1408
  904MOL0     H19286   2.538   5.299   3.757  1.1649 -0.5008  0.3111
  904MOL0     H19287   2.490   5.155   3.679  0.8544  0.5758  0.0960
  904MOL0     H19288   2.423   5.226   3.965 -0.3037 -0.9263 -0.5474
  904MOL0     H19289   2.391   5.070   3.894 -0.8889  1.2956  3.0968
  904MOL0     H19290   2.254   5.332   4.074  0.3261 -2.2332  0.8433
  904MOL0     H19291   2.035   5.316   4.179 -3.3236  0.4400 -1.3912
  904MOL0     H19292   1.604   4.979   4.235  2.6848  0.6825 -1.3150
  904MOL0     H19293   1.353   4.966   4.285 -0.5507  0.0764  0.4146
  904MOL0     H19294   1.105   5.301   4.123 -1.0663 -0.7314 -0.9202
  904MOL0     H19295   1.117   5.307   4.297  0.3173  1.5500 -1.7786
  904MOL0     H19296   0.879   5.287   4.258 -0.9381 -2.2742  3.6096
  904MOL0     H19297   0.925   5.115   4.286 -0.4139 -1.0887 -1.5679
  904MOL0     H19298   0.917   5.058   4.061  2.6024  1.1229 -0.7985
  904MOL0     H19299   0.921   5.225   4.004 -0.4905  1.9443  1.3719
  904MOL0     H19300   0.699   5.272   4.061  0.7187 -0.3686  2.8308
  904MOL0     H19301   0.677   5.119   3.982 -2.3544 -0.2837  1.0647
  904MOL0     H19302   0.652   5.162   4.279 -1.7268 -3.4261  2.3745
  904MOL0     H19303   0.712   5.027   4.232  0.2041  1.0148  1.1374
  904MOL0     H19304   0.522   4.962   4.095 -0.2677 -0.4586  1.4346
  904MOL0     H19305   0.454   5.122   4.097  0.6982  1.0645  0.8030
  904MOL0     H19306   0.452   4.931   4.337 -1.1486 -1.0424 -0.8066
  904MOL0     H19307   0.424   5.106   4.348 -2.6585 -0.5757  1.6617
  904MOL0     H19308   0.287   4.912   4.170  0.4035 -1.1742 -0.0639
  904MOL0     H19309   0.246   5.093   4.183  0.1549 -2.4030 -2.0315
  904MOL0     H19310   1.302   5.319   4.069 -0.1097 -0.4400 -0.3992
  904MOL0     H19311   1.536   5.287   3.961  2.8060 -1.0963  0.1692
  904MOL0     H19312   1.870   5.113   3.854  0.0239  0.5882 -0.0741
  904MOL0     H19313   2.081   5.140   3.729 -1.9249  2.9610 -1.7964
  904MOL0     H19314   4.339   5.246   3.696  2.3841  2.0832  0.7755
  904MOL0     H19315   4.551   5.348   3.681  0.0163  1.4835 -0.8414
  904MOL0     H19316   4.876   5.575   3.405 -1.9230  0.5050  3.1170
  904MOL0     H19317   5.091   5.672   3.378  0.3798  1.4001  0.6489
  904MOL0     H19318   5.438   5.425   3.514  1.4202 -1.6566  2.5423
  904MOL0     H19319   5.410   5.536   3.652  0.5294  0.4344 -0.1466
  904MOL0     H19320   5.515   5.712   3.544 -0.5347  0.1197  0.2782
  904MOL0     H19321   5.630   5.581   3.550 -0.2137 -0.8307 -0.5079
  904MOL0     H19322   5.635   5.699   3.319  0.2475  0.0727  0.7851
  904MOL0     H19323   5.458   5.696   3.322 -0.4725 -0.2435  0.2233
  904MOL0     H19324   5.631   5.430   3.301 -0.5476 -2.0464 -1.4260
  904MOL0     H19325   5.452   5.458   3.295  0.3611 -1.0818  1.3629
  904MOL0     H19326   5.584   5.530   2.904 -1.0354 -0.6059 -0.1205
  904MOL0     H19327   5.243   5.379   3.657 -0.6156 -3.9687 -2.2004
  904MOL0     H19328   5.027   5.280   3.686  3.0526 -0.4018 -1.0184
  905MOL0     O19329   1.791   9.750   8.416 -0.3085 -0.0405 -0.2441
  905MOL0     C19330   1.842   9.762   8.528  0.2187  1.1168 -0.0953
  905MOL0     O19331   1.777   9.834   8.632 -0.1036  0.8299  0.5057
  905MOL0     C19332   1.660   9.907   8.601 -0.1272 -0.0102 -0.5135
  905MOL0     C19333   1.651  10.041   8.649  0.3697 -0.8264 -0.1893
  905MOL0     C19334   1.533  10.113   8.635 -0.3472 -0.8130  0.3826
  905MOL0     C19335   1.427  10.065   8.568 -0.1961 -0.2474 -0.3695
  905MOL0     O19336   1.316  10.147   8.568  0.3168  0.1159  0.0747
  905MOL0     C19337   1.188  10.094   8.543  0.3670 -0.2898 -0.6999
  905MOL0     C19338   1.096  10.216   8.528 -0.0006  0.3688  0.2899
  905MOL0     C19339   0.971  10.170   8.460  0.1484 -0.0608 -0.4367
  905MOL0     C19340   0.864  10.266   8.510 -0.6767 -0.1419  0.0922
  905MOL0     C19341   0.736  10.266   8.424 -0.3338  0.2311  0.3816
  905MOL0     C19342   0.636  10.358   8.487  0.5439 -0.7389 -0.3631
  905MOL0     C19343   0.514  10.361   8.401  0.1113 -0.1090 -0.1772
  905MOL0     C19344   0.525  10.388   8.248  0.5918  0.0660 -0.0220
  905MOL0     N19345   0.398  10.395   8.180  0.7674 -0.0431  0.4477
  905MOL0     C19346   0.336  10.518   8.157  1.0347  0.2983  0.7737
  905MOL0     C19347   0.217  10.479   8.104 -0.3621  1.1006 -0.4845
  905MOL0     C19348   0.107  10.572   8.057 -0.0957 -0.5704 -0.0957
  905MOL0     C19349  -0.004  10.495   7.988  0.5473  0.0836  0.0285
  905MOL0     C19350  -0.126  10.582   7.988 -0.4868 -0.4926 -0.3411
  905MOL0     C19351  -0.239  10.526   7.903 -0.3994 -0.2088 -0.0906
  905MOL0     O19352  -0.217  10.548   7.764  0.3040  0.3823  0.0409
  905MOL0     C19353  -0.320  10.522   7.679  0.2840 -0.0855 -0.2514
  905MOL0     C19354  -0.290  10.521   7.542 -0.7376 -0.2885  0.1261
  905MOL0     C19355  -0.386  10.487   7.447 -0.0996 -0.1709  0.2136
  905MOL0     C19356  -0.514  10.443   7.486 -0.3907 -0.4200 -0.2810
  905MOL0     C19357  -0.615  10.405   7.386  0.3657  0.0336  0.6401
  905MOL0     O19358  -0.722  10.337   7.427 -0.2509 -0.5578 -0.4366
  905MOL0     C19359  -0.814  10.287   7.335 -0.3267 -0.3187 -0.5385
  905MOL0     C19360  -0.884  10.370   7.243 -0.3285  0.1400 -0.5152
  905MOL0     C19361  -0.983  10.319   7.161 -0.0679  0.8522 -0.3581
  905MOL0     C19362  -1.025  10.183   7.167 -0.3020  0.1482  0.3012
  905MOL0     O19363  -1.127  10.132   7.102  0.2446 -0.1252  0.5159
  905MOL0     C19364  -1.249  10.207   7.121 -0.3217 -0.2003  0.4442
  905MOL0     C19365  -1.369  10.127   7.122  1.3590  0.3462  0.5944
  905MOL0     C19366  -1.413  10.069   6.986 -0.1680 -0.2248  0.1058
  905MOL0     C19367  -1.558  10.018   6.975  0.8835 -0.5354 -0.2301
  905MOL0     C19368  -1.580   9.946   6.843  0.5194  0.1274 -0.3721
  905MOL0     C19369  -1.723   9.888   6.829 -0.4327  0.4583  0.7911
  905MOL0     C19370  -1.765   9.779   6.925  0.8993  0.6184  0.2437
  905MOL0     C19371  -1.902   9.708   6.883 -0.1359 -0.0156  0.7487
  905MOL0    Cl19372  -2.040   9.815   6.928 -0.2210  0.2435 -0.0571
  905MOL0     C19373  -0.952  10.104   7.261 -0.7956  0.4967 -1.0413
  905MOL0     C19374  -0.853  10.157   7.340  0.0404 -0.5460  0.7574
  905MOL0     O19375  -0.589  10.420   7.267 -0.0226  0.3507 -0.7916
  905MOL0     C19376  -0.538  10.432   7.625 -0.6010 -0.0400  0.7012
  905MOL0     C19377  -0.438  10.468   7.717  0.0085  0.1851 -0.9876
  905MOL0     N19378   0.216  10.338   8.091 -0.2021 -0.2606 -0.0859
  905MOL0     N19379   0.333  10.291   8.130  0.1467 -0.1272 -0.5328
  905MOL0     C19380   1.430   9.934   8.523 -0.3682  0.8671  0.0647
  905MOL0     C19381   1.546   9.860   8.528 -0.6092 -0.0296 -0.2287
  905MOL0     C19382   1.968   9.703   8.566 -0.0389  0.7506  0.0490
  905MOL0     C19383   2.057   9.677   8.467 -0.2829  0.0384  0.6152
  905MOL0     C19384   2.180   9.613   8.486 -0.8944 -0.2270  0.3089
  905MOL0     C19385   2.219   9.574   8.611 -0.8099  0.6449  0.6981
  905MOL0     O19386   2.338   9.504   8.623  0.4018 -0.6299 -0.2219
  905MOL0     C19387   2.406   9.503   8.750 -0.0263  0.1356  0.0589
  905MOL0     C19388   2.538   9.431   8.719 -0.0711 -0.7783 -0.1501
  905MOL0     C19389   2.511   9.289   8.665 -0.6914  0.0024 -0.3175
  905MOL0     C19390   2.631   9.195   8.661  0.2207 -0.4184  0.3365
  905MOL0     C19391   2.586   9.052   8.645 -0.5692  0.0867  0.2257
  905MOL0     C19392   2.553   8.934   8.646 -0.0375 -0.1276  0.1724
  905MOL0     C19393   2.138   9.606   8.715 -0.3806 -0.9395 -0.3106
  905MOL0     C19394   2.013   9.669   8.696 -0.3740 -0.1452 -0.1239
  905MOL0     H19395   1.722  10.081   8.720 -1.7551  0.4241  1.3687
  905MOL0     H19396   1.524  10.213   8.675 -1.9959  0.8510 -3.6481
  905MOL0     H19397   1.158  10.034   8.630  1.1268 -1.8215 -1.4554
  905MOL0     H19398   1.170  10.031   8.456 -0.3667 -1.3363  0.1858
  905MOL0     H19399   1.144  10.292   8.466 -0.2908  0.0912 -0.2729
  905MOL0     H19400   1.081  10.257   8.628 -1.7205 -0.0771  0.2490
  905MOL0     H19401   0.943  10.072   8.500  0.4361  0.3183  0.7340
  905MOL0     H19402   0.987  10.166   8.352 -1.2981  2.4286 -0.8351
  905MOL0     H19403   0.834  10.248   8.614  0.3876  2.2934  0.8843
  905MOL0     H19404   0.902  10.367   8.496 -1.1362  0.1143  0.6616
  905MOL0     H19405   0.693  10.168   8.403 -2.1741  1.0202  0.3148
  905MOL0     H19406   0.752  10.303   8.322  0.4173 -1.7248 -0.2681
  905MOL0     H19407   0.673  10.461   8.492  0.5637 -0.5473 -3.0072
  905MOL0     H19408   0.620  10.321   8.589  3.3818 -0.4338  0.2598
  905MOL0     H19409   0.466  10.265   8.421 -0.3475 -0.2935 -1.9645
  905MOL0     H19410   0.447  10.439   8.441 -1.9282 -2.1704  0.6274
  905MOL0     H19411   0.578  10.305   8.201 -0.1120 -0.9115  0.8448
  905MOL0     H19412   0.577  10.480   8.224 -3.7888  2.3033 -2.0146
  905MOL0     H19413   0.377  10.618   8.163  3.0269 -0.5584  3.0212
  905MOL0     H19414   0.158  10.644   7.992  2.0810 -2.7125 -0.9306
  905MOL0     H19415   0.083  10.633   8.144  1.6698  1.3733 -0.8812
  905MOL0     H19416  -0.012  10.391   8.024  3.1584 -0.2008 -0.0414
  905MOL0     H19417   0.029  10.470   7.887  1.5567 -4.7503  1.2762
  905MOL0     H19418  -0.167  10.583   8.089 -0.5905 -0.3873 -0.3837
  905MOL0     H19419  -0.108  10.686   7.959 -1.5864 -0.8929 -2.7615
  905MOL0     H19420  -0.334  10.567   7.939 -0.6899 -0.0754 -0.9829
  905MOL0     H19421  -0.249  10.419   7.926  3.4377 -0.2395  2.2428
  905MOL0     H19422  -0.192  10.565   7.530 -0.6847 -0.4117  0.1072
  905MOL0     H19423  -0.360  10.490   7.342  0.5523 -0.8051  0.3443
  905MOL0     H19424  -0.861  10.476   7.234  0.8268 -0.0378  0.0645
  905MOL0     H19425  -1.038  10.391   7.101 -0.0856  0.9121 -0.2714
  905MOL0     H19426  -1.256  10.293   7.053  4.2403  0.6357  0.7230
  905MOL0     H19427  -1.252  10.255   7.218  0.9804 -0.6855  0.7498
  905MOL0     H19428  -1.446  10.193   7.163  1.0763 -0.6459  1.7230
  905MOL0     H19429  -1.365  10.040   7.189  0.9712 -0.0752  0.0888
  905MOL0     H19430  -1.344   9.989   6.956 -0.9489 -0.5162 -0.9738
  905MOL0     H19431  -1.395  10.150   6.913 -0.9431  0.9210  1.1535
  905MOL0     H19432  -1.580   9.959   7.065 -0.5956  1.8676  1.1046
  905MOL0     H19433  -1.626  10.104   6.969  2.3626  0.5856 -1.7311
  905MOL0     H19434  -1.501   9.871   6.836  1.4774  1.1745 -0.9906
  905MOL0     H19435  -1.549  10.016   6.764  3.0803 -1.4231 -0.8532
  905MOL0     H19436  -1.720   9.834   6.734  1.6762  0.5722  0.7346
  905MOL0     H19437  -1.795   9.970   6.834 -0.7894  0.1101  1.3726
  905MOL0     H19438  -1.683   9.711   6.952  1.6102  1.1494 -0.5316
  905MOL0     H19439  -1.779   9.841   7.014  0.7464  1.7136 -0.5197
  905MOL0     H19440  -1.912   9.614   6.937  0.7294 -1.8165 -1.9861
  905MOL0     H19441  -1.911   9.676   6.779 -2.1872 -0.8862  1.1593
  905MOL0     H19442  -0.977   9.999   7.270  0.4105  0.1942 -1.0088
  905MOL0     H19443  -0.811  10.087   7.412 -0.7333 -1.5195  0.2786
  905MOL0     H19444  -0.630  10.385   7.657  0.4678 -1.6215  1.6563
  905MOL0     H19445  -0.467  10.441   7.818  1.5802 -1.0601 -0.8244
  905MOL0     H19446   1.345   9.885   8.476  0.1125 -2.1299  2.0455
  905MOL0     H19447   1.541   9.762   8.481  2.9686 -0.7434  0.5682
  905MOL0     H19448   2.040   9.703   8.363  2.1068 -0.8443 -0.0541
  905MOL0     H19449   2.261   9.612   8.414  0.1490 -1.1753  1.4738
  905MOL0     H19450   2.340   9.452   8.821 -1.8707  0.4570 -1.3570
  905MOL0     H19451   2.417   9.606   8.783 -0.7114  0.3061 -0.2318
  905MOL0     H19452   2.597   9.482   8.642  3.0907 -4.4346 -0.4726
  905MOL0     H19453   2.587   9.427   8.817 -4.0163  0.1241  2.0743
  905MOL0     H19454   2.464   9.299   8.567  1.6655  0.8254 -1.4318
  905MOL0     H19455   2.438   9.244   8.733 -0.1103 -0.1578  0.2150
  905MOL0     H19456   2.697   9.233   8.582 -2.0077 -0.3968 -1.6489
  905MOL0     H19457   2.686   9.203   8.755  0.0906 -0.9444  0.4619
  905MOL0     H19458   2.522   8.831   8.650 -1.1713  0.2437  2.6885
  905MOL0     H19459   2.166   9.581   8.817  1.0666 -0.6202 -0.6041
  905MOL0     H19460   1.949   9.704   8.776 -1.4761  2.5453 -2.0390
  906MOL0     O19461   9.269   6.240   0.910 -0.1063 -0.7601  0.2750
  906MOL0     C19462   9.328   6.134   0.931  0.5419  0.9912  0.2264
  906MOL0     O19463   9.330   6.028   0.839  0.0931 -0.1862  0.6346
  906MOL0     C19464   9.251   6.038   0.732  0.0884  0.2700  0.3549
  906MOL0     C19465   9.301   6.093   0.613 -0.0689 -0.0152  0.1616
  906MOL0     C19466   9.225   6.118   0.501 -0.4696  0.3061  0.4305
  906MOL0     C19467   9.098   6.049   0.491 -0.4102  0.1186  0.6804
  906MOL0     O19468   9.030   6.041   0.365  0.5626 -0.2956 -0.7319
  906MOL0     C19469   9.054   6.146   0.264 -0.1840  0.6746  0.6572
  906MOL0     C19470   8.960   6.134   0.147 -0.1260  0.0685 -0.0249
  906MOL0     C19471   8.999   6.244   0.046 -0.0298 -0.1476 -0.1072
  906MOL0     C19472   8.935   6.210  -0.088 -0.0333  0.2585  0.5254
  906MOL0     C19473   8.997   6.319  -0.176  0.5063 -0.6685  0.0415
  906MOL0     C19474   8.922   6.344  -0.307  0.0630 -0.2472  0.3112
  906MOL0     C19475   8.979   6.463  -0.391  0.1450  0.3090 -0.5165
  906MOL0     C19476   8.909   6.479  -0.526  0.0995 -0.1137 -0.2039
  906MOL0     N19477   8.767   6.504  -0.502  0.4339 -0.9745  0.5840
  906MOL0     C19478   8.671   6.489  -0.610 -0.1126  0.7846 -0.3077
  906MOL0     C19479   8.558   6.557  -0.572  0.3429  0.1879  0.1058
  906MOL0     C19480   8.433   6.581  -0.646 -0.5521  0.0409  0.1909
  906MOL0     C19481   8.311   6.511  -0.573 -0.1927 -0.6971 -0.6164
  906MOL0     C19482   8.221   6.607  -0.499  0.1013  0.4213 -0.5485
  906MOL0     C19483   8.125   6.535  -0.401  0.2812 -0.6918 -0.0010
  906MOL0     O19484   8.021   6.477  -0.474  0.7324  0.0209 -0.1351
  906MOL0     C19485   7.895   6.542  -0.478  0.4385  0.3606  0.5273
  906MOL0     C19486   7.781   6.458  -0.492 -0.1423 -0.2567 -0.2196
  906MOL0     C19487   7.652   6.518  -0.484 -0.0461  0.1798  0.1781
  906MOL0     C19488   7.635   6.652  -0.460  0.4266  0.3352  0.2295
  906MOL0     C19489   7.499   6.698  -0.452 -0.6436 -0.4645 -0.4464
  906MOL0     O19490   7.398   6.605  -0.464  0.6356  0.9251 -0.1807
  906MOL0     C19491   7.267   6.647  -0.488 -0.6477  0.2511 -0.6631
  906MOL0     C19492   7.244   6.747  -0.584 -0.4898  0.3752  0.5488
  906MOL0     C19493   7.125   6.816  -0.588 -1.4509  0.0693 -0.6048
  906MOL0     C19494   7.018   6.777  -0.499  0.8290 -0.7755 -0.6764
  906MOL0     O19495   6.899   6.843  -0.504 -0.1541  0.0146 -0.6630
  906MOL0     C19496   6.829   6.870  -0.633 -1.5001 -0.1190 -0.3373
  906MOL0     C19497   6.682   6.873  -0.625  0.4144 -0.3164  1.0080
  906MOL0     C19498   6.628   6.731  -0.626  0.4174 -0.4383  0.2116
  906MOL0     C19499   6.474   6.723  -0.617 -0.0154 -0.2697 -0.3967
  906MOL0     C19500   6.426   6.773  -0.479  1.0665  0.6990 -0.0542
  906MOL0     C19501   6.279   6.743  -0.449  0.0864  0.0212 -0.5132
  906MOL0     C19502   6.183   6.824  -0.543  0.4405 -0.3133 -0.0240
  906MOL0     C19503   6.035   6.808  -0.511 -0.1114 -0.7982 -0.4126
  906MOL0    Cl19504   5.938   6.923  -0.600 -0.4894 -0.4775 -0.0902
  906MOL0     C19505   7.035   6.680  -0.413 -0.2729 -0.3444  0.2445
  906MOL0     C19506   7.161   6.610  -0.402  0.2558 -0.2749 -0.8890
  906MOL0     O19507   7.485   6.820  -0.440 -0.8221  0.2578  0.3365
  906MOL0     C19508   7.747   6.735  -0.481 -0.5899 -0.3935  0.1900
  906MOL0     C19509   7.874   6.675  -0.480 -0.2495 -0.2773 -0.7262
  906MOL0     N19510   8.585   6.608  -0.444 -0.0735 -0.6384 -0.3217
  906MOL0     N19511   8.707   6.587  -0.413 -0.2873  0.4525  0.8346
  906MOL0     C19512   9.047   5.969   0.601 -0.2834 -0.6090 -0.3283
  906MOL0     C19513   9.122   5.978   0.722  0.8078 -0.7155  0.2383
  906MOL0     C19514   9.414   6.126   1.042 -0.4296  0.4259  0.0986
  906MOL0     C19515   9.488   6.005   1.070  0.2325  1.5068  0.4854
  906MOL0     C19516   9.577   5.998   1.178 -0.7554 -0.1527  0.3756
  906MOL0     C19517   9.598   6.115   1.255 -0.2077  0.5126  0.0759
  906MOL0     O19518   9.685   6.089   1.357 -0.1090  0.3503 -0.6239
  906MOL0     C19519   9.686   6.186   1.464  0.1902  0.1810  0.4404
  906MOL0     C19520   9.784   6.128   1.565  0.4993 -0.7317 -0.4371
  906MOL0     C19521   9.786   6.217   1.683  0.2490 -0.1726 -0.5417
  906MOL0     C19522   9.869   6.163   1.804 -0.1687  0.1732  0.0419
  906MOL0     C19523  10.007   6.191   1.792 -0.1246  0.0254 -0.2140
  906MOL0     C19524  10.120   6.222   1.778  0.1358  0.2292 -0.5389
  906MOL0     C19525   9.521   6.232   1.238  0.6887  0.3192 -0.3473
  906MOL0     C19526   9.434   6.233   1.128  0.3015  0.3639  0.1085
  906MOL0     H19527   9.401   6.135   0.625  0.7019 -0.9948 -2.2140
  906MOL0     H19528   9.285   6.167   0.426 -0.9381  2.7229  1.5430
  906MOL0     H19529   9.161   6.138   0.240 -0.4806 -1.9126 -0.1367
  906MOL0     H19530   9.035   6.242   0.312  1.5255  1.0855  0.5693
  906MOL0     H19531   8.858   6.152   0.180 -0.1253  3.3313 -1.3324
  906MOL0     H19532   8.973   6.038   0.096  0.1806 -0.4207  0.9582
  906MOL0     H19533   9.107   6.246   0.032 -0.0431  3.0870 -0.3694
  906MOL0     H19534   8.970   6.342   0.084  0.9106 -0.1962  0.8012
  906MOL0     H19535   8.963   6.110  -0.124 -1.4665 -0.8032  2.2283
  906MOL0     H19536   8.827   6.225  -0.077 -0.0733 -1.0728  2.2526
  906MOL0     H19537   9.101   6.292  -0.194  0.5314  1.0056 -2.7953
  906MOL0     H19538   8.997   6.417  -0.126 -1.5833 -0.2399 -0.7036
  906MOL0     H19539   8.819   6.373  -0.284  1.1300  2.5574  2.0353
  906MOL0     H19540   8.920   6.255  -0.371 -0.6170  0.6348 -0.9342
  906MOL0     H19541   8.965   6.555  -0.333 -0.3206 -0.5100  0.7175
  906MOL0     H19542   9.086   6.448  -0.409  0.1413  0.7887 -0.9441
  906MOL0     H19543   8.919   6.389  -0.588 -1.9655  1.2581 -2.7324
  906MOL0     H19544   8.966   6.561  -0.570  0.7121 -0.6986 -0.5097
  906MOL0     H19545   8.712   6.457  -0.706 -0.5528  3.0131 -1.2913
  906MOL0     H19546   8.435   6.538  -0.747  1.1896 -0.1469  0.2909
  906MOL0     H19547   8.417   6.690  -0.651  0.1158  0.1390  0.1578
  906MOL0     H19548   8.353   6.438  -0.503  1.3078  0.3992 -0.3113
  906MOL0     H19549   8.257   6.459  -0.652  0.5319 -0.7642 -1.0753
  906MOL0     H19550   8.277   6.667  -0.427 -2.0617 -0.3770  1.9715
  906MOL0     H19551   8.168   6.675  -0.567 -2.1006  1.1183  1.7114
  906MOL0     H19552   8.088   6.599  -0.320 -0.4071 -0.7659 -0.2502
  906MOL0     H19553   8.174   6.453  -0.348 -1.6719 -0.4758  2.3621
  906MOL0     H19554   7.789   6.350  -0.500  1.5922 -0.3102  1.5408
  906MOL0     H19555   7.571   6.453  -0.514 -0.9150  2.5814 -3.3469
  906MOL0     H19556   7.317   6.792  -0.650  0.6545  0.9352  2.1435
  906MOL0     H19557   7.116   6.904  -0.651  1.1151  0.9776  0.1832
  906MOL0     H19558   6.855   6.798  -0.711 -1.8045  0.7355 -1.2489
  906MOL0     H19559   6.869   6.966  -0.667 -1.3586 -0.2504 -0.5435
  906MOL0     H19560   6.650   6.927  -0.715 -2.3379 -4.0072 -0.4595
  906MOL0     H19561   6.648   6.925  -0.534 -2.2404 -0.6914  0.3257
  906MOL0     H19562   6.674   6.679  -0.541 -1.8619 -0.8478  1.2566
  906MOL0     H19563   6.663   6.673  -0.712  3.3086  0.7140  0.5088
  906MOL0     H19564   6.441   6.779  -0.705  1.9476 -0.7910 -1.5326
  906MOL0     H19565   6.446   6.619  -0.633 -2.3606  0.3380 -0.5567
  906MOL0     H19566   6.445   6.881  -0.475  2.1309  0.5049  0.6271
  906MOL0     H19567   6.470   6.721  -0.393  0.2283  0.8419  0.4655
  906MOL0     H19568   6.255   6.749  -0.343  0.1697  1.6876 -0.5522
  906MOL0     H19569   6.259   6.643  -0.488 -2.3013  0.6457 -1.0524
  906MOL0     H19570   6.211   6.930  -0.538  0.4744 -0.3798  1.5536
  906MOL0     H19571   6.200   6.790  -0.646  0.3220  1.1270 -0.5475
  906MOL0     H19572   6.014   6.820  -0.404 -1.7238 -1.4515 -0.6371
  906MOL0     H19573   6.026   6.701  -0.532  1.8874 -1.3059  0.9413
  906MOL0     H19574   6.961   6.657  -0.336  1.0522 -1.1476  1.3230
  906MOL0     H19575   7.179   6.530  -0.331  1.7174 -0.2552 -1.2046
  906MOL0     H19576   7.746   6.840  -0.455  2.5129 -0.4757  0.9289
  906MOL0     H19577   7.963   6.737  -0.472 -0.0478 -0.6595  0.1870
  906MOL0     H19578   8.956   5.911   0.596  0.2996 -1.7399  1.3109
  906MOL0     H19579   9.080   5.924   0.806  0.9287  1.3108  1.6741
  906MOL0     H19580   9.487   5.928   0.993  3.1431  1.2425  0.6156
  906MOL0     H19581   9.626   5.904   1.203 -1.0842 -0.2018  0.8466
  906MOL0     H19582   9.586   6.203   1.504 -0.7903  2.2581 -2.5112
  906MOL0     H19583   9.726   6.281   1.429  0.7159 -0.7815 -1.7890
  906MOL0     H19584   9.763   6.026   1.597  0.0696 -0.0238  1.7052
  906MOL0     H19585   9.885   6.121   1.522  2.5266  0.5342  3.5409
  906MOL0     H19586   9.680   6.233   1.709  0.5022  1.4535 -0.3730
  906MOL0     H19587   9.822   6.314   1.646 -0.1439 -0.5496 -1.9703
  906MOL0     H19588   9.832   6.218   1.891 -0.6380  1.0568 -0.7019
  906MOL0     H19589   9.850   6.057   1.824 -0.3170 -0.0892 -1.3785
  906MOL0     H19590  10.223   6.249   1.766  0.4577 -0.3741  0.7075
  906MOL0     H19591   9.535   6.318   1.303  0.0077 -0.4356  0.8349
  906MOL0     H19592   9.376   6.324   1.115 -1.1347 -0.6981 -1.2950
  907MOL0     O19593   5.021   3.724   1.970 -0.3009 -0.4576 -0.1725
  907MOL0     C19594   5.033   3.846   1.965  0.2463 -1.2855 -0.2453
  907MOL0     O19595   4.949   3.934   1.903  0.0450  0.2790  0.9325
  907MOL0     C19596   4.824   3.890   1.855  0.2999  0.6146 -0.0164
  907MOL0     C19597   4.740   3.797   1.922 -0.0528 -0.0359 -0.7775
  907MOL0     C19598   4.622   3.762   1.857 -0.2082 -0.0498 -1.1856
  907MOL0     C19599   4.591   3.812   1.725 -0.1028 -0.5687  0.1166
  907MOL0     O19600   4.484   3.743   1.663  0.7100 -0.4752  0.0929
  907MOL0     C19601   4.432   3.801   1.536  0.2087  0.9821 -0.4574
  907MOL0     C19602   4.302   3.722   1.510  0.0025 -0.1046 -0.5297
  907MOL0     C19603   4.207   3.753   1.625  0.6259 -0.6390  0.6843
  907MOL0     C19604   4.071   3.677   1.606 -0.1115  0.3370  0.6994
  907MOL0     C19605   3.969   3.750   1.523  0.3483  0.4394  0.1137
  907MOL0     C19606   3.851   3.658   1.530 -0.2230  0.1471 -0.3866
  907MOL0     C19607   3.727   3.735   1.488 -0.3944 -0.3120  0.2114
  907MOL0     C19608   3.714   3.753   1.334 -0.6818 -0.5040  0.7259
  907MOL0     N19609   3.611   3.852   1.288  0.1473 -0.2407  0.1256
  907MOL0     C19610   3.476   3.831   1.306  1.1582  0.2695  0.7157
  907MOL0     C19611   3.418   3.943   1.246  0.2282  1.0238  0.4608
  907MOL0     C19612   3.276   3.962   1.225  0.0159  0.6669  0.4002
  907MOL0     C19613   3.234   3.879   1.097  0.0575  0.9348 -0.3420
  907MOL0     C19614   3.085   3.871   1.073 -0.3286  0.2108  0.2553
  907MOL0     C19615   3.053   3.775   0.947 -0.0913  0.0946 -0.8119
  907MOL0     O19616   3.018   3.848   0.831 -0.1195 -0.4351  0.3024
  907MOL0     C19617   2.893   3.806   0.783 -0.4515 -0.5759 -0.1467
  907MOL0     C19618   2.785   3.831   0.846  0.7876 -0.1186 -0.1145
  907MOL0     C19619   2.663   3.783   0.804 -0.9465  0.0476  0.1998
  907MOL0     C19620   2.651   3.725   0.671  0.9245 -1.1361 -0.2536
  907MOL0     C19621   2.529   3.684   0.613 -0.1951  0.6814 -0.0702
  907MOL0     O19622   2.418   3.680   0.692  0.3447  0.3708  0.5816
  907MOL0     C19623   2.298   3.672   0.613 -0.0829 -0.2233  0.1829
  907MOL0     C19624   2.241   3.794   0.577 -0.7262 -0.1802  0.3909
  907MOL0     C19625   2.124   3.791   0.509  0.9584  0.7744  0.4532
  907MOL0     C19626   2.052   3.680   0.485  0.0577  0.2109  0.3734
  907MOL0     O19627   1.934   3.692   0.414 -0.0449  0.1868 -0.3735
  907MOL0     C19628   1.852   3.580   0.379  0.3943 -0.4580  0.4296
  907MOL0     C19629   1.732   3.629   0.290  0.0097  0.9401 -0.9777
  907MOL0     C19630   1.637   3.507   0.287 -0.4877  0.0086 -0.4526
  907MOL0     C19631   1.500   3.532   0.210  0.8419  0.2434  0.0413
  907MOL0     C19632   1.419   3.404   0.196  0.2086  0.5912  0.2540
  907MOL0     C19633   1.369   3.345   0.326  0.5905  1.2179 -0.5573
  907MOL0     C19634   1.304   3.211   0.308 -0.8752 -0.2246 -0.0351
  907MOL0     C19635   1.239   3.171   0.442  0.5933  0.6017  0.1071
  907MOL0    Cl19636   1.119   3.297   0.498  0.3244 -0.4130 -0.3259
  907MOL0     C19637   2.101   3.557   0.524 -0.1206  1.6770 -0.7754
  907MOL0     C19638   2.225   3.550   0.590 -0.5855 -0.0362  0.5434
  907MOL0     O19639   2.527   3.681   0.492  0.4385 -0.4789 -0.2446
  907MOL0     C19640   2.774   3.701   0.604  0.6851 -0.5672  0.7505
  907MOL0     C19641   2.890   3.735   0.666 -0.1128  0.2142 -0.3909
  907MOL0     N19642   3.519   4.034   1.213  0.5198 -1.0404 -0.7674
  907MOL0     N19643   3.634   3.974   1.231  0.9015 -0.0703 -0.1103
  907MOL0     C19644   4.661   3.918   1.670  0.4768 -0.5680  0.0056
  907MOL0     C19645   4.781   3.946   1.735  0.5638  0.0270  0.1044
  907MOL0     C19646   5.144   3.896   2.046 -0.1260  0.3792 -0.8666
  907MOL0     C19647   5.169   4.031   2.053  0.1409 -0.4402 -0.0154
  907MOL0     C19648   5.268   4.089   2.135  0.6654 -0.0560 -0.2316
  907MOL0     C19649   5.365   4.004   2.194  0.0182 -0.5029  0.2375
  907MOL0     O19650   5.461   4.071   2.266  0.2607 -0.1569 -0.5710
  907MOL0     C19651   5.576   3.999   2.314  0.0304  1.1046  0.8193
  907MOL0     C19652   5.647   4.076   2.422  0.0636  0.1316  0.4221
  907MOL0     C19653   5.795   4.021   2.448  0.7640  0.1890  0.4008
  907MOL0     C19654   5.883   4.131   2.502  0.8708 -0.3380 -0.2948
  907MOL0     C19655   6.017   4.089   2.527  0.0712  0.6342 -0.1996
  907MOL0     C19656   6.130   4.057   2.554  0.0034  0.0132  0.7178
  907MOL0     C19657   5.345   3.865   2.185 -0.1012  0.7371  0.1183
  907MOL0     C19658   5.232   3.813   2.111 -0.6998 -0.6328 -0.7267
  907MOL0     H19659   4.776   3.751   2.013  1.7789 -0.3573 -1.6167
  907MOL0     H19660   4.552   3.691   1.899  0.1571  0.2770  0.0119
  907MOL0     H19661   4.500   3.766   1.457 -0.5548  0.1641 -0.7712
  907MOL0     H19662   4.413   3.908   1.528 -0.9266  0.9248  1.0431
  907MOL0     H19663   4.313   3.613   1.514 -0.8383 -0.1753  2.7760
  907MOL0     H19664   4.261   3.755   1.415 -3.4391  0.2496  0.9521
  907MOL0     H19665   4.193   3.860   1.644  0.7366 -0.7655  1.5207
  907MOL0     H19666   4.247   3.708   1.716  1.6077  1.7789  1.5346
  907MOL0     H19667   4.089   3.580   1.559 -0.2185  0.3918  0.5432
  907MOL0     H19668   4.018   3.665   1.701 -2.3495  0.9702 -0.4038
  907MOL0     H19669   4.018   3.765   1.426  0.5041  2.3171  0.4421
  907MOL0     H19670   3.947   3.849   1.564 -1.2949  0.0623  0.2017
  907MOL0     H19671   3.840   3.621   1.633  0.1219 -1.5811 -0.9305
  907MOL0     H19672   3.856   3.566   1.470 -1.4687 -0.2849  0.1440
  907MOL0     H19673   3.634   3.683   1.514  1.4908 -4.3478 -0.3252
  907MOL0     H19674   3.716   3.834   1.532 -2.3222  0.1064 -1.1107
  907MOL0     H19675   3.695   3.657   1.285  2.8337 -0.3776 -1.1769
  907MOL0     H19676   3.816   3.776   1.302 -2.1564  0.1286 -4.2626
  907MOL0     H19677   3.416   3.765   1.369  2.7566  1.6736  3.9375
  907MOL0     H19678   3.244   4.063   1.202 -1.2533  0.0395 -0.7454
  907MOL0     H19679   3.231   3.920   1.315  1.1438 -0.6076  0.4116
  907MOL0     H19680   3.273   3.778   1.111  0.7745  1.1965 -0.4174
  907MOL0     H19681   3.279   3.926   1.009 -1.4768  3.0204 -0.0897
  907MOL0     H19682   3.037   3.836   1.165  1.8447  2.8505  2.5636
  907MOL0     H19683   3.041   3.969   1.049 -1.6883 -1.0706 -3.1509
  907MOL0     H19684   2.976   3.703   0.975 -3.6658  4.5539  2.2051
  907MOL0     H19685   3.148   3.727   0.922 -0.1460 -1.8665  2.1777
  907MOL0     H19686   2.779   3.881   0.942  0.3625 -0.4997  0.0591
  907MOL0     H19687   2.573   3.799   0.862 -1.6830 -0.3949 -0.7961
  907MOL0     H19688   2.290   3.885   0.609  1.7255 -1.7940  1.5740
  907MOL0     H19689   2.094   3.882   0.458 -0.3821 -0.2797 -0.7322
  907MOL0     H19690   1.827   3.526   0.471  2.2130  1.0576  1.8931
  907MOL0     H19691   1.898   3.516   0.304 -0.6034 -1.8702  0.9777
  907MOL0     H19692   1.776   3.657   0.194  2.1240  5.6180  1.0454
  907MOL0     H19693   1.686   3.720   0.332 -0.6829 -0.0911  0.5909
  907MOL0     H19694   1.604   3.478   0.388 -2.3822 -0.2839 -1.1094
  907MOL0     H19695   1.687   3.420   0.244 -1.6489 -1.5468  1.1805
  907MOL0     H19696   1.446   3.620   0.246  0.9621  0.3517 -0.0424
  907MOL0     H19697   1.531   3.554   0.108  1.5165  0.2762  0.2435
  907MOL0     H19698   1.469   3.335   0.128  1.4311  1.5535  0.1470
  907MOL0     H19699   1.330   3.441   0.145  0.1463  2.1690  1.4221
  907MOL0     H19700   1.297   3.418   0.365  2.6035  1.2328  3.6398
  907MOL0     H19701   1.449   3.326   0.397  0.0822 -0.1228 -0.3208
  907MOL0     H19702   1.242   3.213   0.218  0.8631 -0.3227 -1.2880
  907MOL0     H19703   1.390   3.145   0.291 -0.3711  0.7193 -1.3173
  907MOL0     H19704   1.314   3.163   0.521  0.1971  0.3916  0.4680
  907MOL0     H19705   1.185   3.078   0.423 -0.1147  1.4025 -2.0962
  907MOL0     H19706   2.051   3.462   0.507  0.3047  0.9463  1.6645
  907MOL0     H19707   2.262   3.455   0.629  2.6424  1.1975  0.8144
  907MOL0     H19708   2.773   3.640   0.515  0.5247 -0.2234  0.5140
  907MOL0     H19709   2.987   3.717   0.621 -0.6073 -0.0504 -1.3940
  907MOL0     H19710   4.648   3.978   1.581 -0.5261  0.0703  0.5632
  907MOL0     H19711   4.850   4.018   1.693  0.8064  0.3752  1.0838
  907MOL0     H19712   5.098   4.105   2.015  0.9423  0.3191 -0.0655
  907MOL0     H19713   5.264   4.195   2.161  3.2170  0.2565 -0.7869
  907MOL0     H19714   5.647   3.988   2.232 -0.3153  1.2397  0.5017
  907MOL0     H19715   5.533   3.911   2.362 -2.4019  1.2870 -0.8786
  907MOL0     H19716   5.659   4.179   2.386 -0.9439  0.2702  0.4414
  907MOL0     H19717   5.587   4.087   2.513 -1.1500  1.9885 -0.5351
  907MOL0     H19718   5.847   4.004   2.353 -0.7822  3.0907 -1.0912
  907MOL0     H19719   5.805   3.938   2.519 -1.0219  0.4177  0.9601
  907MOL0     H19720   5.885   4.212   2.428  0.5825 -1.1972 -1.2624
  907MOL0     H19721   5.841   4.169   2.596 -0.0196  0.1221 -0.8584
  907MOL0     H19722   6.229   4.026   2.581  0.6286 -0.1936 -1.6548
  907MOL0     H19723   5.426   3.799   2.215 -0.5101 -1.6598 -3.3807
  907MOL0     H19724   5.217   3.706   2.103 -2.7558 -0.3905 -0.6380
  908MOL0     O19725   4.920   3.892  10.762  0.7389 -0.1558  0.0142
  908MOL0     C19726   4.981   3.852  10.656  0.2487 -0.9462 -0.7889
  908MOL0     O19727   4.934   3.859  10.525  0.3678 -0.6314  0.8437
  908MOL0     C19728   4.800   3.893  10.521 -0.9896  0.2522  0.2000
  908MOL0     C19729   4.721   3.803  10.458 -0.0147  0.2082  0.1318
  908MOL0     C19730   4.584   3.825  10.441 -0.2461 -0.0941 -0.2688
  908MOL0     C19731   4.530   3.941  10.498  0.2296 -0.9585  0.2188
  908MOL0     O19732   4.394   3.962  10.488  0.5547 -0.1211 -0.1799
  908MOL0     C19733   4.312   3.837  10.498  0.2294  0.3293 -0.1733
  908MOL0     C19734   4.177   3.887  10.537 -0.1589 -0.0444 -0.0421
  908MOL0     C19735   4.102   3.778  10.603 -0.0801  1.0702  0.0113
  908MOL0     C19736   3.972   3.826  10.671  0.7627  0.2075 -0.3635
  908MOL0     C19737   3.845   3.792  10.589  0.0139  0.3591  0.1795
  908MOL0     C19738   3.723   3.830  10.660  0.1368 -0.2486 -0.0665
  908MOL0     C19739   3.603   3.767  10.583  0.1535 -0.0468 -0.3220
  908MOL0     C19740   3.473   3.853  10.623 -0.2922  0.5617  0.1315
  908MOL0     N19741   3.366   3.781  10.558  0.0172 -0.0774 -0.4782
  908MOL0     C19742   3.300   3.677  10.617  0.7100  0.5402  0.3451
  908MOL0     C19743   3.210   3.639  10.522  0.5083  0.4363 -0.4785
  908MOL0     C19744   3.118   3.527  10.530 -0.6862  0.6727 -0.3402
  908MOL0     C19745   2.970   3.548  10.503  1.3092  0.5663 -0.8057
  908MOL0     C19746   2.881   3.417  10.487 -0.3304 -0.4610  0.0633
  908MOL0     C19747   2.726   3.438  10.483 -0.9817  0.2837  1.3420
  908MOL0     O19748   2.678   3.465  10.354  0.4180  0.1137  0.3297
  908MOL0     C19749   2.541   3.447  10.349  0.1228  0.3904  0.2686
  908MOL0     C19750   2.437   3.542  10.372 -0.0089 -0.8740 -0.5898
  908MOL0     C19751   2.294   3.509  10.359 -0.3612  0.2045  0.6784
  908MOL0     C19752   2.262   3.377  10.316  0.0908 -0.1042 -0.2882
  908MOL0     C19753   2.122   3.346  10.286 -0.4905 -0.1652 -0.1509
  908MOL0     O19754   2.032   3.426  10.345 -0.0577  0.2294  0.0308
  908MOL0     C19755   1.900   3.413  10.307  0.1752  0.2665  1.0611
  908MOL0     C19756   1.803   3.369  10.396  0.1479 -0.5019 -0.5676
  908MOL0     C19757   1.673   3.369  10.351  0.3976 -0.1105  0.2020
  908MOL0     C19758   1.623   3.407  10.225 -0.3966  0.3370  0.1814
  908MOL0     O19759   1.489   3.415  10.178 -0.1847  0.4534  0.3301
  908MOL0     C19760   1.389   3.433  10.277  0.9170 -1.1509 -0.0051
  908MOL0     C19761   1.324   3.304  10.323 -0.0701 -0.3010  0.8058
  908MOL0     C19762   1.249   3.243  10.215 -0.1901  0.2533 -0.3592
  908MOL0     C19763   1.219   3.096  10.246  0.1187  0.0737  1.2789
  908MOL0     C19764   1.102   3.037  10.166 -0.4696  0.0310 -0.6126
  908MOL0     C19765   1.065   2.899  10.212 -0.4834  0.0564 -0.1984
  908MOL0     C19766   0.935   2.849  10.152  0.3970  0.3619 -0.4050
  908MOL0     C19767   0.884   2.715  10.203 -0.3284  0.1761  0.3452
  908MOL0    Cl19768   1.005   2.596  10.201 -0.5274 -0.0114 -0.0915
  908MOL0     C19769   1.723   3.433  10.129  0.2564 -0.0943  0.7560
  908MOL0     C19770   1.856   3.424  10.171  0.6868 -0.1572  0.8811
  908MOL0     O19771   2.110   3.244  10.212  1.3543 -0.1523 -0.0288
  908MOL0     C19772   2.364   3.285  10.291  0.0565  0.3638  0.7770
  908MOL0     C19773   2.499   3.321  10.305  0.1403 -0.5819 -0.8074
  908MOL0     N19774   3.225   3.722  10.414  0.1890 -0.4517  0.7751
  908MOL0     N19775   3.319   3.809  10.436  0.4551  0.6652  0.2219
  908MOL0     C19776   4.605   4.039  10.553  0.5849  0.2606 -0.1622
  908MOL0     C19777   4.747   4.013  10.565  1.5364  0.1712 -0.3056
  908MOL0     C19778   5.113   3.804  10.680  0.6087  0.1195 -0.6647
  908MOL0     C19779   5.161   3.783  10.812 -0.7151 -0.9559  0.5532
  908MOL0     C19780   5.294   3.746  10.828 -0.0332  0.6317 -0.2596
  908MOL0     C19781   5.385   3.738  10.723  0.2079  0.4583  0.6443
  908MOL0     O19782   5.518   3.702  10.737  0.5344 -0.2305  0.8595
  908MOL0     C19783   5.571   3.687  10.871 -0.6669  0.1489  0.0563
  908MOL0     C19784   5.735   3.685  10.863  0.4119 -0.0856 -0.5033
  908MOL0     C19785   5.784   3.551  10.814 -0.9890  0.6358 -0.0827
  908MOL0     C19786   5.944   3.536  10.797  0.1114  1.1231  0.5341
  908MOL0     C19787   6.018   3.538  10.922 -0.4713 -0.9785  0.4814
  908MOL0     C19788   6.070   3.546  11.029 -0.6733 -0.6151 -0.2609
  908MOL0     C19789   5.337   3.756  10.598  0.0897  0.2732 -0.4586
  908MOL0     C19790   5.204   3.798  10.582  0.0592 -0.0444 -0.3330
  908MOL0     H19791   4.767   3.713  10.417  1.5979  1.4127 -0.8010
  908MOL0     H19792   4.515   3.772  10.376  0.1078  2.6010 -3.1223
  908MOL0     H19793   4.357   3.787  10.584 -0.3399  0.7392  0.3711
  908MOL0     H19794   4.302   3.774  10.408 -0.2466 -0.2184  0.2552
  908MOL0     H19795   4.116   3.925  10.454 -1.2405  1.5319  1.3933
  908MOL0     H19796   4.190   3.967  10.611 -1.0576 -0.8160  0.9724
  908MOL0     H19797   4.164   3.738  10.683 -3.0229  1.5596  2.7233
  908MOL0     H19798   4.070   3.697  10.535 -3.7065  0.6537  1.9399
  908MOL0     H19799   3.962   3.771  10.765  1.8300 -0.0522 -0.3936
  908MOL0     H19800   3.965   3.934  10.685 -1.5442  0.1048 -0.3026
  908MOL0     H19801   3.840   3.687  10.561  2.1081 -0.7538  3.4430
  908MOL0     H19802   3.848   3.843  10.492  0.4949 -1.2898 -0.7156
  908MOL0     H19803   3.712   3.939  10.655 -1.8277 -0.2851  2.0094
  908MOL0     H19804   3.728   3.804  10.766  1.9959  1.5283  0.3566
  908MOL0     H19805   3.621   3.749  10.477 -3.5527  0.9221 -1.2448
  908MOL0     H19806   3.578   3.667  10.620 -2.2617  0.6064 -0.0305
  908MOL0     H19807   3.479   3.955  10.585 -2.4890  0.9716  0.7922
  908MOL0     H19808   3.446   3.855  10.728 -1.0888  1.3890 -0.0829
  908MOL0     H19809   3.324   3.631  10.712  1.1627 -1.1966 -0.5538
  908MOL0     H19810   3.131   3.476  10.626 -1.8821  1.1537  0.1023
  908MOL0     H19811   3.154   3.452  10.459 -0.1759 -0.1417  0.7391
  908MOL0     H19812   2.961   3.614  10.417  1.9276 -1.0870 -2.1995
  908MOL0     H19813   2.932   3.600  10.592  3.6929  0.1446  0.5541
  908MOL0     H19814   2.924   3.360  10.404 -1.1226 -0.2324 -0.5123
  908MOL0     H19815   2.900   3.360  10.579 -0.9560  3.4154  2.8141
  908MOL0     H19816   2.696   3.513  10.557 -2.6790  1.1827 -0.1671
  908MOL0     H19817   2.680   3.343  10.512 -0.8910 -0.5208 -0.9792
  908MOL0     H19818   2.460   3.640  10.412 -2.1250 -0.9568  1.0180
  908MOL0     H19819   2.234   3.598  10.376  2.9034  2.5841  0.6186
  908MOL0     H19820   1.835   3.349  10.498  3.2200  1.0449 -1.1089
  908MOL0     H19821   1.601   3.330  10.423 -0.3695 -1.7208 -1.3748
  908MOL0     H19822   1.313   3.503  10.241  0.7351 -1.6381 -0.5756
  908MOL0     H19823   1.432   3.498  10.354  2.4370  0.1047 -1.8279
  908MOL0     H19824   1.262   3.309  10.414 -1.1929 -1.6209  0.1509
  908MOL0     H19825   1.406   3.235  10.346  2.0723  0.5316 -3.3473
  908MOL0     H19826   1.311   3.238  10.125 -2.6593 -4.4227 -2.1298
  908MOL0     H19827   1.161   3.304  10.193 -1.0032 -0.3112  1.1699
  908MOL0     H19828   1.303   3.027  10.238 -1.2213 -1.4832 -0.2008
  908MOL0     H19829   1.190   3.088  10.352 -1.9369 -0.9244  0.6913
  908MOL0     H19830   1.135   3.011  10.065 -0.5567 -1.2688 -0.3349
  908MOL0     H19831   1.017   3.105  10.169 -3.5696 -3.4517 -1.7210
  908MOL0     H19832   1.077   2.888  10.320 -0.6706  2.0965  0.0619
  908MOL0     H19833   1.146   2.840  10.168 -0.6702  1.3596 -2.4354
  908MOL0     H19834   0.857   2.926  10.150  1.9221  1.9857 -0.9980
  908MOL0     H19835   0.953   2.822  10.047  0.8164 -4.0125  0.6235
  908MOL0     H19836   0.800   2.695  10.136  0.0322 -0.3954  0.0570
  908MOL0     H19837   0.861   2.723  10.310  2.4116 -0.0843  1.0388
  908MOL0     H19838   1.705   3.453  10.024 -3.2715  0.9947  1.4040
  908MOL0     H19839   1.923   3.428  10.086 -1.1826  0.5578 -0.6321
  908MOL0     H19840   2.331   3.190  10.250 -1.7225  1.0912  0.3913
  908MOL0     H19841   2.577   3.248  10.286  2.4939  1.0153  1.9933
  908MOL0     H19842   4.558   4.134  10.572 -0.6092 -0.2538 -0.4828
  908MOL0     H19843   4.811   4.091  10.604  0.7162  0.4043  0.6080
  908MOL0     H19844   5.109   3.798  10.907  0.9513  1.9318  1.1413
  908MOL0     H19845   5.326   3.714  10.927  0.9014  0.7816 -0.4985
  908MOL0     H19846   5.538   3.597  10.924 -3.2737 -0.0184 -1.7060
  908MOL0     H19847   5.541   3.768  10.937  0.5333  1.1005 -0.5302
  908MOL0     H19848   5.763   3.769  10.800  2.9999 -2.6783 -3.1578
  908MOL0     H19849   5.783   3.699  10.960  0.8688 -1.6904 -0.4588
  908MOL0     H19850   5.750   3.534  10.711 -0.3661  2.4466 -0.6177
  908MOL0     H19851   5.757   3.465  10.876  4.1666 -1.8955 -0.7787
  908MOL0     H19852   5.968   3.437  10.759  0.1123  0.5418  1.9992
  908MOL0     H19853   5.979   3.620  10.736 -2.1000  1.4265 -0.3973
  908MOL0     H19854   6.134   3.567  11.112 -0.3912 -2.6723  0.0916
  908MOL0     H19855   5.400   3.745  10.510  3.0393 -0.4486  1.5849
  908MOL0     H19856   5.183   3.810  10.477 -0.8101 -0.8653 -0.2646
  909MOL0     O19857   2.006   1.283   7.803  0.1633  0.6936  0.5976
  909MOL0     C19858   2.091   1.357   7.850 -0.9162  0.5847 -0.7562
  909MOL0     O19859   2.077   1.494   7.851 -0.8633  0.4361 -0.3848
  909MOL0     C19860   1.972   1.548   7.778 -0.6865 -0.2873 -0.1962
  909MOL0     C19861   1.899   1.657   7.834  0.5490  0.3786 -0.6489
  909MOL0     C19862   1.790   1.713   7.755  0.1490 -0.0688 -0.0599
  909MOL0     C19863   1.782   1.690   7.621 -0.0189  0.1887 -0.0112
  909MOL0     O19864   1.683   1.756   7.553  0.4583  0.2071  0.0802
  909MOL0     C19865   1.695   1.779   7.412 -0.8785  0.0368 -0.2746
  909MOL0     C19866   1.560   1.818   7.377  0.1044  0.4600  1.3005
  909MOL0     C19867   1.456   1.699   7.386  0.1233  0.6720  0.2413
  909MOL0     C19868   1.327   1.744   7.320 -0.0410  0.7498  0.2656
  909MOL0     C19869   1.206   1.650   7.349 -0.3139 -0.3484  0.4481
  909MOL0     C19870   1.079   1.714   7.275 -0.0242 -0.1788 -1.1366
  909MOL0     C19871   0.945   1.663   7.324  0.0530 -0.0552 -0.3294
  909MOL0     C19872   0.835   1.699   7.220  0.3323 -0.0133  0.5003
  909MOL0     N19873   0.701   1.663   7.254 -0.4743 -0.1204  0.3735
  909MOL0     C19874   0.604   1.661   7.160 -0.0768  0.2211  0.1513
  909MOL0     C19875   0.489   1.673   7.224 -0.0524  0.0154  0.1312
  909MOL0     C19876   0.346   1.684   7.179  0.7313  0.5749  0.2568
  909MOL0     C19877   0.316   1.563   7.086  0.1008  0.2817  0.6624
  909MOL0     C19878   0.317   1.422   7.153  0.2641 -1.0328 -0.1319
  909MOL0     C19879   0.231   1.429   7.278 -0.5528 -0.4487  0.2286
  909MOL0     O19880   0.109   1.498   7.249 -0.0690  0.3781  0.2284
  909MOL0     C19881  -0.009   1.436   7.295  0.0267 -0.1704 -0.2745
  909MOL0     C19882  -0.100   1.401   7.200  0.6919 -0.1099 -0.0487
  909MOL0     C19883  -0.227   1.343   7.246 -0.6714  0.5667  0.0310
  909MOL0     C19884  -0.247   1.297   7.378 -0.2238  0.0809 -0.5048
  909MOL0     C19885  -0.372   1.223   7.403  0.2536 -0.1180 -0.7255
  909MOL0     O19886  -0.427   1.166   7.294  0.5333 -0.3331 -0.4758
  909MOL0     C19887  -0.519   1.074   7.314 -0.4977 -0.3676  0.1542
  909MOL0     C19888  -0.512   0.971   7.406  1.0206  0.1944  0.8118
  909MOL0     C19889  -0.609   0.878   7.410  0.3349 -0.3793  0.1161
  909MOL0     C19890  -0.723   0.877   7.322  0.3587 -0.2499  0.3062
  909MOL0     O19891  -0.826   0.783   7.307 -0.8126  0.5618  0.0554
  909MOL0     C19892  -0.794   0.655   7.374  0.5761  0.4125 -0.2026
  909MOL0     C19893  -0.925   0.582   7.380  0.1072  0.1482 -0.0863
  909MOL0     C19894  -0.919   0.440   7.443  0.2141 -0.2749  0.5184
  909MOL0     C19895  -1.062   0.367   7.440 -0.5427  0.0037  0.2741
  909MOL0     C19896  -1.110   0.344   7.304  0.5860  0.3381 -0.1989
  909MOL0     C19897  -1.014   0.272   7.207  0.3255 -0.5204  0.1795
  909MOL0     C19898  -0.936   0.149   7.246 -0.6266 -0.7498 -0.0922
  909MOL0     C19899  -0.850   0.093   7.133  0.4290  0.2373 -0.2910
  909MOL0    Cl19900  -0.707  -0.005   7.203  0.2459 -0.6073  0.1108
  909MOL0     C19901  -0.733   0.985   7.227  0.6180 -0.2178 -0.5745
  909MOL0     C19902  -0.626   1.073   7.216  0.3963 -0.2909 -0.3091
  909MOL0     O19903  -0.403   1.204   7.524  0.1137  0.4144 -0.3563
  909MOL0     C19904  -0.145   1.335   7.469  0.3462  0.0965  0.7861
  909MOL0     C19905  -0.027   1.399   7.429  0.4613 -0.9151 -0.5488
  909MOL0     N19906   0.515   1.677   7.357 -0.7314  0.0069  0.2658
  909MOL0     N19907   0.644   1.684   7.375  0.1570 -0.5966  0.4726
  909MOL0     C19908   1.861   1.582   7.570  0.1703 -0.0868 -0.3997
  909MOL0     C19909   1.951   1.513   7.648  0.2667 -0.2743 -0.1069
  909MOL0     C19910   2.216   1.302   7.911  0.1922 -0.3887 -0.1400
  909MOL0     C19911   2.305   1.383   7.982  0.3974 -0.5293 -0.1528
  909MOL0     C19912   2.425   1.341   8.038 -0.0838 -0.1442  0.1566
  909MOL0     C19913   2.456   1.200   8.045 -0.2097 -0.2689  0.1749
  909MOL0     O19914   2.553   1.129   8.118  0.5847 -0.0762 -0.5048
  909MOL0     C19915   2.649   1.216   8.180  0.5189  0.0291 -1.0161
  909MOL0     C19916   2.757   1.131   8.239  0.1432 -0.5339  0.3316
  909MOL0     C19917   2.869   1.110   8.146 -0.0569  0.4539 -0.3397
  909MOL0     C19918   2.997   1.064   8.225 -0.6046  0.4486 -1.1403
  909MOL0     C19919   3.079   0.988   8.129 -0.3861 -0.1821  0.3698
  909MOL0     C19920   3.170   0.938   8.067  0.4152  0.1859 -0.2395
  909MOL0     C19921   2.376   1.117   7.965  0.0275  0.6285  0.6164
  909MOL0     C19922   2.251   1.165   7.908  0.0667 -0.4103  1.2595
  909MOL0     H19923   1.929   1.694   7.932  0.8054 -1.6043  0.0696
  909MOL0     H19924   1.733   1.792   7.803  2.9947  2.1445 -0.0731
  909MOL0     H19925   1.737   1.693   7.358 -1.6450 -1.7442  1.8357
  909MOL0     H19926   1.762   1.865   7.403 -2.4566  1.7849  3.0339
  909MOL0     H19927   1.559   1.844   7.271  1.7764  0.8268  1.3586
  909MOL0     H19928   1.522   1.912   7.418  3.3904  3.5186 -1.9535
  909MOL0     H19929   1.425   1.675   7.489  0.9930  2.9606  1.0854
  909MOL0     H19930   1.511   1.622   7.331  2.5069  1.2921  1.6104
  909MOL0     H19931   1.311   1.846   7.357  0.6031  0.4518  1.4033
  909MOL0     H19932   1.338   1.751   7.211  2.4990  0.2712  0.4151
  909MOL0     H19933   1.183   1.652   7.456 -1.0212 -0.8959  0.3102
  909MOL0     H19934   1.231   1.548   7.319 -0.8720 -0.2029 -0.5410
  909MOL0     H19935   1.092   1.695   7.168  1.3050 -2.8605 -0.5987
  909MOL0     H19936   1.074   1.822   7.287 -1.7736 -0.3882  0.6262
  909MOL0     H19937   0.950   1.556   7.345  0.0397  0.5775  3.7468
  909MOL0     H19938   0.920   1.702   7.424 -0.4867  0.6019 -0.7053
  909MOL0     H19939   0.856   1.651   7.124  1.8549  1.1347  0.2269
  909MOL0     H19940   0.842   1.808   7.212  0.5179 -0.0441  0.2410
  909MOL0     H19941   0.613   1.656   7.051  1.4062 -0.2463  0.2791
  909MOL0     H19942   0.325   1.783   7.136  1.1419  0.7263  0.4032
  909MOL0     H19943   0.284   1.681   7.268  0.9004  4.3136  0.6758
  909MOL0     H19944   0.394   1.566   7.010 -0.4837  1.0473  0.0751
  909MOL0     H19945   0.219   1.571   7.037  0.6611  2.0061 -0.2038
  909MOL0     H19946   0.279   1.355   7.076  3.5706 -2.9472 -0.2421
  909MOL0     H19947   0.420   1.395   7.175  0.6019 -0.1721 -0.6103
  909MOL0     H19948   0.287   1.482   7.356 -1.0382 -0.3792  0.5313
  909MOL0     H19949   0.205   1.328   7.311 -0.1764 -1.3426 -2.0126
  909MOL0     H19950  -0.092   1.420   7.093 -0.2699  1.1551  0.0849
  909MOL0     H19951  -0.303   1.326   7.171 -1.1021 -0.0772  0.5965
  909MOL0     H19952  -0.425   0.973   7.471  2.4941  0.3968 -1.0373
  909MOL0     H19953  -0.602   0.796   7.481  0.5665 -0.7795 -0.3703
  909MOL0     H19954  -0.770   0.657   7.481 -0.0458 -2.8270  0.0725
  909MOL0     H19955  -0.725   0.595   7.314 -0.1715 -0.6940  0.0167
  909MOL0     H19956  -0.969   0.566   7.282 -0.5440 -1.5672  0.4452
  909MOL0     H19957  -0.992   0.633   7.450 -0.1364 -2.2454  1.5335
  909MOL0     H19958  -0.884   0.446   7.546  0.3604 -1.1256  0.5283
  909MOL0     H19959  -0.848   0.374   7.391 -2.8060 -2.4443 -1.1834
  909MOL0     H19960  -1.053   0.274   7.497  1.1430  1.6029  2.8319
  909MOL0     H19961  -1.130   0.437   7.487  0.1437  1.5829 -0.9874
  909MOL0     H19962  -1.146   0.437   7.260  0.0228 -1.0050 -2.7803
  909MOL0     H19963  -1.201   0.284   7.302  0.3306  0.7290 -0.2244
  909MOL0     H19964  -0.937   0.342   7.172  0.3317 -1.1147 -1.0515
  909MOL0     H19965  -1.075   0.250   7.120  0.2371 -0.7429  0.2974
  909MOL0     H19966  -0.881   0.158   7.340 -0.4228  2.2118 -0.4186
  909MOL0     H19967  -1.005   0.066   7.268  0.5854 -1.4732  1.1238
  909MOL0     H19968  -0.818   0.167   7.059  2.7337  0.3704  0.7350
  909MOL0     H19969  -0.910   0.029   7.069  0.6288  0.5099 -0.7562
  909MOL0     H19970  -0.821   0.983   7.164  1.6932  0.8185 -2.1678
  909MOL0     H19971  -0.630   1.151   7.140  1.4161  1.5205  1.3903
  909MOL0     H19972  -0.163   1.311   7.574 -0.1042 -3.1089  0.0977
  909MOL0     H19973   0.038   1.443   7.504  0.2619 -0.2228 -0.7711
  909MOL0     H19974   1.856   1.556   7.465  1.8651  0.2817 -0.5963
  909MOL0     H19975   2.007   1.441   7.589 -0.0949 -1.6872  1.1723
  909MOL0     H19976   2.288   1.490   7.989 -1.5063 -0.8382  0.8320
  909MOL0     H19977   2.473   1.415   8.100 -1.1477  2.2511 -1.7023
  909MOL0     H19978   2.616   1.283   8.260  2.1154  1.8733 -1.8234
  909MOL0     H19979   2.691   1.288   8.109 -0.7368  1.8454 -0.0075
  909MOL0     H19980   2.800   1.181   8.326  0.4095  0.9014 -0.5993
  909MOL0     H19981   2.719   1.031   8.264  0.1126 -1.1126 -1.8116
  909MOL0     H19982   2.903   1.203   8.100  1.3904  0.2306  0.2122
  909MOL0     H19983   2.835   1.030   8.080  0.2060 -1.3533  1.6120
  909MOL0     H19984   3.052   1.149   8.266 -0.8451 -0.3278  0.8792
  909MOL0     H19985   2.979   1.005   8.315  2.5675  2.4138  1.0064
  909MOL0     H19986   3.246   0.885   8.014 -0.0489 -2.3735  1.4338
  909MOL0     H19987   2.397   1.012   7.952 -2.0993  0.4346 -2.5148
  909MOL0     H19988   2.185   1.099   7.853  0.3103 -1.1158  1.8004
  910MOL0     O19989  10.514   2.720   4.090 -0.5168 -1.0648 -0.3825
  910MOL0     C19990  10.589   2.763   4.182 -0.1331 -0.1946  0.7102
  910MOL0     O19991  10.554   2.776   4.318 -0.5740 -0.2581  0.2375
  910MOL0     C19992  10.426   2.772   4.356  0.2724  0.0090  0.1099
  910MOL0     C19993  10.399   2.767   4.493 -1.0982 -0.3835  0.3457
  910MOL0     C19994  10.273   2.759   4.548  0.7015 -0.0306  1.1345
  910MOL0     C19995  10.160   2.759   4.466 -0.1392  0.1860  0.4591
  910MOL0     O19996  10.035   2.730   4.499  0.3537 -0.1093  0.0789
  910MOL0     C19997   9.992   2.789   4.620 -0.3910  0.2270 -0.8280
  910MOL0     C19998   9.848   2.828   4.615  0.2339 -0.4701 -0.6563
  910MOL0     C19999   9.754   2.702   4.613 -0.5539  0.0329 -0.9150
  910MOL0     C20000   9.609   2.746   4.585 -0.1051  0.2974 -1.1796
  910MOL0     C20001   9.499   2.644   4.628  0.0637  0.6005 -0.1958
  910MOL0     C20002   9.515   2.577   4.761  0.0407 -0.0878  0.1072
  910MOL0     C20003   9.395   2.484   4.793  0.1120  0.4461  0.3481
  910MOL0     C20004   9.445   2.355   4.870 -0.2241  0.2727  0.2285
  910MOL0     N20005   9.343   2.261   4.923 -1.2107  0.8800  0.3887
  910MOL0     C20006   9.296   2.256   5.053 -0.3804  0.3358 -0.0171
  910MOL0     C20007   9.199   2.165   5.047  0.5715  0.8320  0.6721
  910MOL0     C20008   9.103   2.105   5.153  0.5515  0.6548  0.1796
  910MOL0     C20009   9.117   2.179   5.282 -0.3504  0.0993 -0.0664
  910MOL0     C20010   9.026   2.294   5.292 -0.3232 -0.0302 -0.6672
  910MOL0     C20011   8.878   2.258   5.278 -0.2610  0.5548  0.6102
  910MOL0     O20012   8.813   2.369   5.324  0.6004  0.1761 -0.3727
  910MOL0     C20013   8.723   2.424   5.237 -0.7927 -0.3582  1.3137
  910MOL0     C20014   8.743   2.552   5.186  0.2134 -0.6179 -0.7475
  910MOL0     C20015   8.641   2.622   5.120  0.1233  0.2477 -0.9518
  910MOL0     C20016   8.521   2.562   5.090 -0.1166 -0.3073 -0.6715
  910MOL0     C20017   8.414   2.634   5.024 -0.3458  0.0466 -0.3982
  910MOL0     O20018   8.326   2.556   4.957 -0.3542  0.6866  1.4551
  910MOL0     C20019   8.212   2.610   4.904  0.9067 -0.3038 -0.1074
  910MOL0     C20020   8.098   2.606   4.983 -0.5532  0.0965  0.2306
  910MOL0     C20021   7.977   2.658   4.940  0.1833  0.1488  0.1115
  910MOL0     C20022   7.975   2.725   4.811  0.5895  0.8309 -0.4823
  910MOL0     O20023   7.873   2.797   4.770  0.2001  0.3533  0.5328
  910MOL0     C20024   7.749   2.725   4.735 -0.6384 -0.2723 -0.1373
  910MOL0     C20025   7.636   2.800   4.805  0.0920  0.3981  0.1755
  910MOL0     C20026   7.500   2.726   4.774 -0.0956 -0.2325 -0.6799
  910MOL0     C20027   7.386   2.822   4.815  1.0071  0.5818 -0.3603
  910MOL0     C20028   7.268   2.731   4.778  1.4205 -0.6223  0.1637
  910MOL0     C20029   7.130   2.807   4.808  0.3801  0.1210 -0.1037
  910MOL0     C20030   7.007   2.711   4.796 -0.2470 -0.0546 -0.1394
  910MOL0     C20031   6.886   2.786   4.847 -0.3942  0.3892 -1.0871
  910MOL0    Cl20032   6.728   2.708   4.833 -0.0524 -0.1334  0.0746
  910MOL0     C20033   8.083   2.720   4.729 -1.0951 -0.2043  0.4813
  910MOL0     C20034   8.203   2.664   4.771 -0.0881  0.5579  0.0814
  910MOL0     O20035   8.403   2.757   5.040 -0.4901 -0.8067  0.1876
  910MOL0     C20036   8.508   2.424   5.122 -0.0916 -0.2119 -0.0779
  910MOL0     C20037   8.608   2.356   5.202  0.3721 -0.2801 -0.1569
  910MOL0     N20038   9.202   2.103   4.925 -0.2792  0.5813 -0.2170
  910MOL0     N20039   9.290   2.151   4.859 -0.3141 -0.4627  0.0773
  910MOL0     C20040  10.181   2.768   4.335 -0.5812  0.7725  0.2112
  910MOL0     C20041  10.308   2.788   4.277 -0.3001  0.0766 -0.3293
  910MOL0     C20042  10.728   2.791   4.139  0.0472  0.6607  0.8940
  910MOL0     C20043  10.771   2.770   4.009  0.0391  0.0959 -0.6339
  910MOL0     C20044  10.897   2.809   3.964  0.0699  1.3922 -0.4806
  910MOL0     C20045  10.985   2.874   4.049  0.4795  0.3541  0.0688
  910MOL0     O20046  11.104   2.910   3.993  0.9077 -0.0717  0.1523
  910MOL0     C20047  11.225   2.874   4.065 -0.3075  0.1796  0.5836
  910MOL0     C20048  11.345   2.840   3.969 -0.3737  0.1489  0.2385
  910MOL0     C20049  11.480   2.829   4.047  0.1822  0.1136  0.1707
  910MOL0     C20050  11.591   2.785   3.953 -0.2970  0.3534 -0.1509
  910MOL0     C20051  11.637   2.892   3.866  0.0828 -0.5421  0.2247
  910MOL0     C20052  11.659   2.996   3.806 -0.4606  0.4457 -0.1633
  910MOL0     C20053  10.944   2.886   4.181 -0.2832  0.2023  0.4179
  910MOL0     C20054  10.819   2.848   4.228  0.2081 -0.0885 -0.8383
  910MOL0     H20055  10.484   2.755   4.559 -0.7053 -0.0908 -0.0984
  910MOL0     H20056  10.260   2.750   4.656 -0.8831  0.8056  1.0428
  910MOL0     H20057  10.052   2.879   4.637 -0.3828  0.1575 -0.4814
  910MOL0     H20058  10.016   2.717   4.699  1.6544 -1.9919 -3.2889
  910MOL0     H20059   9.832   2.889   4.525  1.3675 -0.5318 -0.9239
  910MOL0     H20060   9.820   2.897   4.695  2.7642 -1.0849  0.8685
  910MOL0     H20061   9.768   2.644   4.705  0.7554 -0.2495 -1.2701
  910MOL0     H20062   9.788   2.639   4.530  0.6221 -1.7446  0.7971
  910MOL0     H20063   9.593   2.839   4.639  2.5158  0.4767 -0.5696
  910MOL0     H20064   9.606   2.781   4.481  0.6854  3.1911 -0.3239
  910MOL0     H20065   9.475   2.568   4.553 -0.6520  0.0892  0.5357
  910MOL0     H20066   9.405   2.699   4.640  0.3598  0.4630  3.9185
  910MOL0     H20067   9.517   2.657   4.835  0.0125  1.2200 -1.2403
  910MOL0     H20068   9.611   2.525   4.756  1.6269  2.5548  1.1843
  910MOL0     H20069   9.325   2.531   4.863  0.6274 -1.8261  2.5384
  910MOL0     H20070   9.341   2.460   4.701 -2.7582  1.5740  1.6136
  910MOL0     H20071   9.511   2.393   4.949 -2.3158  2.6584  0.9834
  910MOL0     H20072   9.508   2.296   4.803 -1.5401  1.3462 -2.0504
  910MOL0     H20073   9.330   2.311   5.140  1.1598 -2.3390  1.1989
  910MOL0     H20074   9.139   2.003   5.172  0.7529  0.6702 -0.1248
  910MOL0     H20075   9.007   2.088   5.103  0.2349 -0.1094  1.0024
  910MOL0     H20076   9.219   2.216   5.296 -0.2459  1.1240 -2.8055
  910MOL0     H20077   9.092   2.114   5.366 -0.5962  0.3167  0.0327
  910MOL0     H20078   9.042   2.343   5.388  0.8415 -1.4967 -0.0616
  910MOL0     H20079   9.050   2.372   5.219 -1.3853  0.4946 -0.4845
  910MOL0     H20080   8.849   2.179   5.347  0.5915 -0.4445 -0.1430
  910MOL0     H20081   8.854   2.221   5.178  5.4296 -4.9663  0.7007
  910MOL0     H20082   8.824   2.617   5.216 -0.4725 -0.3022  0.5118
  910MOL0     H20083   8.665   2.723   5.089  0.0942  0.3805 -0.5576
  910MOL0     H20084   8.109   2.538   5.067 -1.8529 -0.3502  0.0551
  910MOL0     H20085   7.884   2.634   4.990  0.9323  0.7274  1.8288
  910MOL0     H20086   7.746   2.624   4.777  1.2129 -0.4670 -0.4154
  910MOL0     H20087   7.737   2.729   4.626 -0.8149  1.2540 -0.0867
  910MOL0     H20088   7.622   2.903   4.771 -3.3433  0.5376  1.6055
  910MOL0     H20089   7.655   2.809   4.912 -0.0938  0.6380  0.1876
  910MOL0     H20090   7.494   2.632   4.828 -1.5767  0.7462  0.9545
  910MOL0     H20091   7.499   2.699   4.668  3.2228 -1.5112 -0.4918
  910MOL0     H20092   7.383   2.850   4.921 -0.2847  0.9099 -0.4682
  910MOL0     H20093   7.395   2.916   4.759  3.1298 -0.4690 -1.9337
  910MOL0     H20094   7.270   2.647   4.849  0.3541 -0.8146 -0.0269
  910MOL0     H20095   7.277   2.687   4.678  0.0133  0.0952 -0.2944
  910MOL0     H20096   7.120   2.894   4.743  1.7098  0.1394 -0.3170
  910MOL0     H20097   7.135   2.833   4.914  1.4341  1.6713 -0.5069
  910MOL0     H20098   7.001   2.675   4.692 -0.8755 -2.3291  0.6221
  910MOL0     H20099   7.049   2.631   4.857  2.0730  0.3103 -1.1333
  910MOL0     H20100   6.889   2.884   4.799  1.9951  1.0347  0.2094
  910MOL0     H20101   6.899   2.819   4.951  0.0232  0.8601 -1.2789
  910MOL0     H20102   8.075   2.768   4.632 -1.4328 -1.4204 -0.1057
  910MOL0     H20103   8.299   2.674   4.720  1.3655  0.8599  2.6692
  910MOL0     H20104   8.420   2.369   5.092  1.3593 -0.3529 -5.0200
  910MOL0     H20105   8.575   2.254   5.218  2.1588 -1.2733 -2.2147
  910MOL0     H20106  10.097   2.759   4.267  1.4291 -3.1377 -2.1507
  910MOL0     H20107  10.313   2.800   4.169 -1.7280  0.4500 -0.3701
  910MOL0     H20108  10.706   2.734   3.930  0.8586  0.8189 -1.6704
  910MOL0     H20109  10.929   2.776   3.866  4.8704  2.3059  0.5266
  910MOL0     H20110  11.202   2.788   4.128 -1.4855  1.1287  1.4961
  910MOL0     H20111  11.253   2.950   4.139  0.1622 -0.8745  1.5183
  910MOL0     H20112  11.322   2.742   3.927 -0.6224  1.4608 -2.9574
  910MOL0     H20113  11.349   2.910   3.885  0.7229 -1.9392 -1.5387
  910MOL0     H20114  11.491   2.768   4.137  2.6947  2.2085  1.3916
  910MOL0     H20115  11.511   2.928   4.083  0.7633  0.3820 -1.0248
  910MOL0     H20116  11.670   2.751   4.021 -2.2947 -0.1811  2.0303
  910MOL0     H20117  11.570   2.699   3.889  1.4049 -1.2911  1.3670
  910MOL0     H20118  11.676   3.087   3.751  0.3525 -0.0399 -0.7362
  910MOL0     H20119  11.021   2.919   4.250  0.1100  0.9120 -0.3469
  910MOL0     H20120  10.789   2.866   4.331 -3.4988 -0.0081 -1.7922
  911MOL0     O20121   5.961   6.057   6.511  0.2252 -0.4026 -0.9282
  911MOL0     C20122   5.974   6.141   6.604  0.4496  0.1039 -0.2980
  911MOL0     O20123   5.873   6.228   6.657  0.6623 -0.3181 -0.3497
  911MOL0     C20124   5.755   6.209   6.597  0.1251 -0.2673  0.3895
  911MOL0     C20125   5.661   6.109   6.637 -0.4253  0.4694 -0.4436
  911MOL0     C20126   5.537   6.104   6.579 -0.3477  0.1685 -0.0543
  911MOL0     C20127   5.484   6.201   6.492 -0.2277  0.3298  0.2897
  911MOL0     O20128   5.358   6.205   6.442  0.2548 -0.0256 -0.4017
  911MOL0     C20129   5.302   6.092   6.378 -0.6382 -0.4427  0.0587
  911MOL0     C20130   5.176   6.044   6.443 -0.1069 -0.3905  0.3290
  911MOL0     C20131   5.097   5.962   6.348 -0.9322  0.6030  1.0681
  911MOL0     C20132   4.961   5.936   6.407 -0.2086 -0.2117 -0.1505
  911MOL0     C20133   4.874   5.850   6.312 -0.6054 -0.1139  0.8560
  911MOL0     C20134   4.777   5.773   6.391  0.6047 -0.1187 -1.1631
  911MOL0     C20135   4.679   5.708   6.292  0.0563  0.2433 -0.0128
  911MOL0     C20136   4.732   5.578   6.238  0.8188  0.4633  0.1543
  911MOL0     N20137   4.671   5.552   6.104 -0.4022  0.0467  0.4597
  911MOL0     C20138   4.549   5.579   6.052  0.6125  0.1503 -0.1333
  911MOL0     C20139   4.559   5.548   5.917 -0.4205 -0.2048 -0.1049
  911MOL0     C20140   4.446   5.549   5.810 -0.9295  0.3113  0.4547
  911MOL0     C20141   4.362   5.426   5.836  0.4521 -0.1369 -0.3988
  911MOL0     C20142   4.251   5.392   5.731 -0.7066  0.0561  1.8897
  911MOL0     C20143   4.131   5.477   5.742  0.0062 -0.1467  0.0975
  911MOL0     O20144   4.074   5.474   5.874  0.3830  0.5440  0.2261
  911MOL0     C20145   3.950   5.427   5.866 -0.1508 -0.7647  0.4633
  911MOL0     C20146   3.843   5.508   5.818  0.6673 -0.1861 -0.3100
  911MOL0     C20147   3.704   5.462   5.828 -0.2044  0.4572  0.0764
  911MOL0     C20148   3.689   5.325   5.866  0.6842 -0.3439 -0.2091
  911MOL0     C20149   3.552   5.272   5.902 -0.7283  0.8301  0.9374
  911MOL0     O20150   3.458   5.366   5.948 -0.1179 -0.5530  0.0477
  911MOL0     C20151   3.324   5.333   5.976 -0.4528 -0.1765 -0.2590
  911MOL0     C20152   3.281   5.208   6.007 -1.2770  1.2240 -1.0161
  911MOL0     C20153   3.144   5.179   6.017 -0.1804  0.3273  0.1664
  911MOL0     C20154   3.051   5.283   6.001 -0.3856 -0.2298  0.8962
  911MOL0     O20155   2.927   5.243   6.007  0.0937  0.4849 -0.0219
  911MOL0     C20156   2.823   5.328   6.058 -0.5078 -0.2707 -1.1197
  911MOL0     C20157   2.688   5.290   6.003  0.1844 -1.0157  0.3809
  911MOL0     C20158   2.643   5.160   6.073 -0.5088 -0.2098  0.8535
  911MOL0     C20159   2.501   5.125   6.019 -0.2702 -0.3825  0.1569
  911MOL0     C20160   2.435   5.010   6.092 -0.4017  0.2245 -0.1920
  911MOL0     C20161   2.286   5.003   6.092  0.8344  0.3407 -0.0175
  911MOL0     C20162   2.239   4.881   6.175  0.7680 -0.3201  0.3067
  911MOL0     C20163   2.084   4.872   6.172  0.1362 -0.1119  0.0077
  911MOL0    Cl20164   2.012   4.999   6.275  0.1762 -0.0848 -0.9743
  911MOL0     C20165   3.090   5.407   5.948  0.5449  0.6017 -1.0138
  911MOL0     C20166   3.230   5.434   5.947 -0.4125  0.6810  0.2378
  911MOL0     O20167   3.529   5.156   5.869  0.0724  0.0036 -0.1529
  911MOL0     C20168   3.798   5.251   5.907  0.6076  0.0037 -0.8998
  911MOL0     C20169   3.928   5.295   5.908  0.5173 -0.0750 -0.1000
  911MOL0     N20170   4.693   5.513   5.896  0.3737  0.0378  0.4698
  911MOL0     N20171   4.758   5.512   6.003  0.0635 -0.1201 -0.7149
  911MOL0     C20172   5.567   6.305   6.453 -0.4284 -0.6122 -0.5620
  911MOL0     C20173   5.700   6.309   6.514  0.3093  0.3403 -0.7209
  911MOL0     C20174   6.106   6.143   6.669  0.1087 -0.0551  0.5744
  911MOL0     C20175   6.135   6.207   6.789  0.4652 -0.4065 -0.3356
  911MOL0     C20176   6.256   6.188   6.850  0.6978 -0.0868 -0.3176
  911MOL0     C20177   6.352   6.099   6.811 -0.3194 -0.9504 -0.7225
  911MOL0     O20178   6.468   6.062   6.873  1.0946  0.4031  0.4771
  911MOL0     C20179   6.539   6.174   6.921 -1.1802  0.0225  0.7861
  911MOL0     C20180   6.693   6.147   6.911 -0.5193  1.8732 -0.3086
  911MOL0     C20181   6.730   6.036   6.807 -0.0804  0.2169  0.3388
  911MOL0     C20182   6.877   6.067   6.765 -0.5415 -0.1709 -0.1278
  911MOL0     C20183   6.965   6.052   6.882  0.0803  1.0326 -0.2787
  911MOL0     C20184   7.029   6.025   6.975 -0.1654  0.1868 -0.0054
  911MOL0     C20185   6.338   6.047   6.685  0.3885  0.6673 -0.0913
  911MOL0     C20186   6.217   6.065   6.618  0.2747 -0.9414  0.4315
  911MOL0     H20187   5.701   6.031   6.700 -1.6538 -0.8776 -1.2772
  911MOL0     H20188   5.471   6.019   6.596  0.9703 -0.3717  2.9034
  911MOL0     H20189   5.379   6.014   6.377  0.8568  0.9066 -3.2679
  911MOL0     H20190   5.285   6.121   6.274  0.7516 -0.0821 -0.0856
  911MOL0     H20191   5.117   6.127   6.481 -1.2001 -0.1401 -1.7645
  911MOL0     H20192   5.210   5.987   6.530  1.2640  1.4420  1.0600
  911MOL0     H20193   5.147   5.866   6.337 -1.5951  0.2146  1.4206
  911MOL0     H20194   5.094   6.001   6.245  1.3075 -3.6380 -0.8623
  911MOL0     H20195   4.980   5.884   6.501  0.4987  0.9282  0.3603
  911MOL0     H20196   4.914   6.033   6.423  0.7653  0.2980 -0.3122
  911MOL0     H20197   4.933   5.780   6.253 -1.2480  1.5176 -1.9348
  911MOL0     H20198   4.824   5.921   6.245 -0.9934 -0.2644  0.9862
  911MOL0     H20199   4.703   5.828   6.451 -0.6863 -0.3673 -2.4606
  911MOL0     H20200   4.828   5.698   6.453 -0.6573 -1.0664 -1.2344
  911MOL0     H20201   4.594   5.669   6.350  0.5788 -0.8911  0.0086
  911MOL0     H20202   4.660   5.768   6.203  1.8380 -3.0533 -2.8360
  911MOL0     H20203   4.705   5.499   6.309 -0.1651  0.4516 -0.2201
  911MOL0     H20204   4.841   5.580   6.226  0.8475 -0.3584  0.1946
  911MOL0     H20205   4.459   5.607   6.106  0.1924  2.3107 -1.8289
  911MOL0     H20206   4.498   5.532   5.715 -2.2126  2.0395 -0.6228
  911MOL0     H20207   4.394   5.645   5.802  1.0421  1.3082 -1.5223
  911MOL0     H20208   4.318   5.432   5.936  0.1818  0.2084 -0.5400
  911MOL0     H20209   4.428   5.339   5.834 -0.4629 -0.8455 -0.8380
  911MOL0     H20210   4.290   5.408   5.630 -0.0982  1.1516  2.2842
  911MOL0     H20211   4.232   5.285   5.743  0.4588 -0.6240 -1.2546
  911MOL0     H20212   4.059   5.448   5.665 -1.2474  0.3004  1.0442
  911MOL0     H20213   4.158   5.580   5.718 -0.0475  0.1895  1.3633
  911MOL0     H20214   3.869   5.605   5.777 -0.3272  0.5294  0.7057
  911MOL0     H20215   3.619   5.527   5.811  1.3785  1.9070 -3.2045
  911MOL0     H20216   3.357   5.133   6.026  1.1833  3.7942 -0.0516
  911MOL0     H20217   3.111   5.079   6.045  3.0017 -1.2299 -1.1139
  911MOL0     H20218   2.848   5.433   6.048 -0.1669  0.2573  3.3246
  911MOL0     H20219   2.824   5.315   6.167 -0.3193 -1.0111 -1.2005
  911MOL0     H20220   2.696   5.281   5.894 -1.0763 -1.1842  0.2906
  911MOL0     H20221   2.628   5.376   6.036 -0.6972 -1.1449 -0.8430
  911MOL0     H20222   2.623   5.173   6.180  2.6238 -0.5364  1.5978
  911MOL0     H20223   2.713   5.076   6.067  0.5649  0.7406 -0.3619
  911MOL0     H20224   2.446   5.220   6.022  0.4990  0.0690  1.8242
  911MOL0     H20225   2.511   5.094   5.915 -0.3780 -0.7346  0.2506
  911MOL0     H20226   2.469   5.008   6.196 -1.9051  1.6538  0.3613
  911MOL0     H20227   2.488   4.920   6.059  0.3479  1.2683 -1.9978
  911MOL0     H20228   2.248   4.998   5.990  3.7816 -0.7628 -1.1744
  911MOL0     H20229   2.243   5.091   6.140  3.3598  0.8029  1.5843
  911MOL0     H20230   2.287   4.804   6.114 -0.3978  1.5612 -3.2568
  911MOL0     H20231   2.266   4.890   6.281  0.6867  1.3484  0.2133
  911MOL0     H20232   2.047   4.773   6.202  1.5970 -1.8566 -3.4279
  911MOL0     H20233   2.053   4.888   6.068  0.9248  0.8748 -0.0897
  911MOL0     H20234   3.020   5.487   5.928  0.7868  1.2782  0.6822
  911MOL0     H20235   3.269   5.523   5.898 -0.0838 -0.6437 -2.0315
  911MOL0     H20236   3.775   5.156   5.955 -0.1052  1.8229  2.6937
  911MOL0     H20237   4.006   5.244   5.963  1.3798  1.0824 -0.2273
  911MOL0     H20238   5.525   6.383   6.391  0.0064  2.7536  2.9939
  911MOL0     H20239   5.762   6.398   6.505 -1.1478  1.6231  1.1731
  911MOL0     H20240   6.059   6.265   6.839  0.5244 -0.0435 -0.6618
  911MOL0     H20241   6.285   6.243   6.939  1.0241  0.6470 -0.8631
  911MOL0     H20242   6.503   6.191   7.023  0.8579  1.3141  1.3575
  911MOL0     H20243   6.520   6.267   6.867  0.6741  0.2938  0.5271
  911MOL0     H20244   6.742   6.241   6.886 -1.1763  1.9313 -1.4312
  911MOL0     H20245   6.735   6.111   7.005 -2.2556 -0.6933 -0.4116
  911MOL0     H20246   6.660   6.045   6.723 -0.8771  0.3516  1.0067
  911MOL0     H20247   6.728   5.933   6.845 -0.5915 -0.4586 -1.4170
  911MOL0     H20248   6.922   5.995   6.696  0.1969  0.1664 -0.0041
  911MOL0     H20249   6.885   6.167   6.722  0.0152 -0.3594 -0.4740
  911MOL0     H20250   7.085   6.004   7.063  0.7079 -2.2253 -1.0714
  911MOL0     H20251   6.414   5.985   6.639  1.7544  2.2712 -0.0915
  911MOL0     H20252   6.204   6.013   6.524 -1.6543 -0.1570  0.2062
  912MOL0     O20253   5.013   1.381   6.175  0.1206 -0.1458 -0.2146
  912MOL0     C20254   5.044   1.460   6.085 -0.3888  0.7034 -0.1830
  912MOL0     O20255   4.961   1.542   6.024 -0.4472  0.2294  0.1076
  912MOL0     C20256   4.834   1.559   6.064  0.5229 -0.2722  0.6683
  912MOL0     C20257   4.789   1.563   6.199 -0.0740  0.3887 -0.1838
  912MOL0     C20258   4.657   1.585   6.233 -0.3092 -0.2249  0.7438
  912MOL0     C20259   4.553   1.594   6.129 -0.6679 -0.7579 -0.6819
  912MOL0     O20260   4.423   1.610   6.174 -0.6151 -0.1786 -0.3352
  912MOL0     C20261   4.316   1.621   6.075 -0.2650 -0.1530  0.5757
  912MOL0     C20262   4.313   1.771   6.027 -0.7042 -0.1073 -0.3864
  912MOL0     C20263   4.242   1.843   6.143  0.7730 -0.2944 -0.9838
  912MOL0     C20264   4.156   1.964   6.094 -0.2450 -0.5605  0.2232
  912MOL0     C20265   4.052   2.019   6.192 -0.0303  0.9200  0.4125
  912MOL0     C20266   3.965   2.129   6.122  0.1656  0.0704  0.3572
  912MOL0     C20267   3.842   2.063   6.049  0.2151 -0.1930  0.1817
  912MOL0     C20268   3.779   2.139   5.929 -0.6458 -0.4044  0.2894
  912MOL0     N20269   3.644   2.084   5.917 -0.6120 -0.1030  0.3024
  912MOL0     C20270   3.611   1.992   5.824  0.1262  0.3418  0.1674
  912MOL0     C20271   3.479   1.962   5.851 -0.3302  0.4701 -0.3743
  912MOL0     C20272   3.406   1.851   5.787 -0.6565 -0.3773 -1.1682
  912MOL0     C20273   3.252   1.870   5.800 -1.3878 -0.5925  0.0129
  912MOL0     C20274   3.185   1.789   5.696 -0.3959 -0.3430 -0.2162
  912MOL0     C20275   3.039   1.824   5.694 -0.2089 -0.2608  0.0133
  912MOL0     O20276   2.973   1.732   5.605 -0.2057  0.2197 -0.0021
  912MOL0     C20277   2.838   1.745   5.587  0.7105 -0.1835  0.8979
  912MOL0     C20278   2.756   1.845   5.637  0.6898  0.3035  0.4689
  912MOL0     C20279   2.623   1.851   5.591 -0.2251 -0.3176 -0.7841
  912MOL0     C20280   2.559   1.761   5.503 -0.7457 -0.4234  0.0438
  912MOL0     C20281   2.419   1.760   5.464  0.5175 -0.0988  0.9654
  912MOL0     O20282   2.372   1.659   5.381  0.4400  0.7928  0.6860
  912MOL0     C20283   2.244   1.668   5.321  0.0846  0.2268 -0.3770
  912MOL0     C20284   2.162   1.781   5.311  0.5083 -0.5237  0.0943
  912MOL0     C20285   2.029   1.767   5.246 -0.2700 -0.4233  0.4783
  912MOL0     C20286   1.984   1.642   5.190  0.0286 -0.5487 -0.0552
  912MOL0     O20287   1.860   1.630   5.132 -0.1742  0.0268  0.7343
  912MOL0     C20288   1.764   1.730   5.164 -0.6280  0.3042 -0.3973
  912MOL0     C20289   1.634   1.667   5.157  0.6118  0.6970  0.3489
  912MOL0     C20290   1.517   1.761   5.195  0.1721 -0.1793  0.4700
  912MOL0     C20291   1.391   1.701   5.153 -0.2961  0.7109  1.0984
  912MOL0     C20292   1.268   1.782   5.190 -0.3925  0.0235  0.0466
  912MOL0     C20293   1.145   1.701   5.147 -0.1660  0.0116  0.0301
  912MOL0     C20294   1.033   1.809   5.129 -0.4504  0.1872  0.5042
  912MOL0     C20295   0.903   1.745   5.087 -0.1243 -0.0009  0.0657
  912MOL0    Cl20296   0.832   1.642   5.214 -0.2137  0.5143  0.0973
  912MOL0     C20297   2.059   1.530   5.213  0.5032 -0.1901 -0.6298
  912MOL0     C20298   2.185   1.541   5.273 -0.6267  0.7237 -0.2177
  912MOL0     O20299   2.352   1.855   5.507  0.7575  0.0449  0.6029
  912MOL0     C20300   2.645   1.656   5.466  0.0370  0.4309  1.3006
  912MOL0     C20301   2.777   1.660   5.496 -0.0865  0.2998  0.2023
  912MOL0     N20302   3.430   2.048   5.953 -0.1113 -0.5738 -0.1810
  912MOL0     N20303   3.533   2.115   5.995 -0.3166  0.2203  0.3168
  912MOL0     C20304   4.601   1.605   5.996 -0.4678  0.7996 -0.6292
  912MOL0     C20305   4.737   1.582   5.967 -0.6279 -1.2503 -0.2869
  912MOL0     C20306   5.190   1.473   6.050 -0.2157 -0.0141  0.4794
  912MOL0     C20307   5.286   1.404   6.119 -0.0327 -0.7711  0.8693
  912MOL0     C20308   5.423   1.428   6.088  0.3677  0.3791  0.4764
  912MOL0     C20309   5.462   1.510   5.980  0.0639 -0.0373  0.4831
  912MOL0     O20310   5.590   1.538   5.954  0.5952  0.4433 -0.5075
  912MOL0     C20311   5.644   1.477   5.837  0.2655  0.6068  0.2784
  912MOL0     C20312   5.783   1.411   5.878 -0.1416 -0.0683 -0.3183
  912MOL0     C20313   5.894   1.518   5.873  0.4040 -0.7821 -0.3196
  912MOL0     C20314   6.031   1.458   5.867 -0.5435 -0.5199  0.2335
  912MOL0     C20315   6.076   1.380   5.983  0.2705 -0.3050 -0.0726
  912MOL0     C20316   6.119   1.306   6.071 -0.4161 -0.0338  0.4134
  912MOL0     C20317   5.366   1.567   5.896  0.3039 -1.1038 -0.1861
  912MOL0     C20318   5.232   1.557   5.937  0.5427  0.2319 -0.5570
  912MOL0     H20319   4.855   1.549   6.284  0.9715  2.6384 -0.5559
  912MOL0     H20320   4.626   1.574   6.337  1.6205 -0.0048  1.3685
  912MOL0     H20321   4.217   1.598   6.115 -0.8049 -1.3040 -1.2792
  912MOL0     H20322   4.328   1.550   5.992 -0.3829 -0.1917  0.5912
  912MOL0     H20323   4.257   1.782   5.934 -1.3401  0.6149  0.0754
  912MOL0     H20324   4.410   1.817   6.007 -0.7300 -1.2582 -3.7538
  912MOL0     H20325   4.303   1.859   6.232 -0.4658  0.1744 -0.1782
  912MOL0     H20326   4.161   1.781   6.184 -0.4698  2.0201  0.2714
  912MOL0     H20327   4.232   2.042   6.082  1.4773 -2.1819  0.0470
  912MOL0     H20328   4.110   1.935   6.000 -1.5901 -2.3981  1.3738
  912MOL0     H20329   4.102   2.063   6.278 -0.9844  4.0138 -0.4628
  912MOL0     H20330   3.979   1.945   6.226 -0.6787  0.5673 -1.6035
  912MOL0     H20331   4.021   2.191   6.051 -1.4871 -1.0372 -2.0797
  912MOL0     H20332   3.922   2.204   6.189  3.6489  1.8150  0.8508
  912MOL0     H20333   3.851   1.957   6.022 -3.5990 -1.1445  2.0034
  912MOL0     H20334   3.771   2.066   6.132 -1.1760  0.8928 -0.9930
  912MOL0     H20335   3.836   2.132   5.836 -2.7922  0.2868 -1.1626
  912MOL0     H20336   3.773   2.245   5.955  0.1663 -0.5275  1.0050
  912MOL0     H20337   3.669   1.954   5.740 -1.3431  1.9846 -1.7100
  912MOL0     H20338   3.434   1.755   5.831  1.4556 -0.4702 -2.6084
  912MOL0     H20339   3.439   1.833   5.684  0.5226 -0.3032 -0.8171
  912MOL0     H20340   3.225   1.972   5.771  0.5001 -0.6127 -2.0948
  912MOL0     H20341   3.217   1.841   5.900 -2.2203 -4.1071 -1.1806
  912MOL0     H20342   3.226   1.821   5.599 -1.4298  2.9052  0.2969
  912MOL0     H20343   3.206   1.683   5.713 -1.5344 -0.2633  1.9604
  912MOL0     H20344   3.017   1.928   5.670 -2.0353 -0.2422  1.5276
  912MOL0     H20345   3.010   1.809   5.798 -1.2224  0.4629 -0.1557
  912MOL0     H20346   2.795   1.922   5.703 -2.0300  0.6035  1.8587
  912MOL0     H20347   2.572   1.931   5.643  0.1399 -1.6882  1.8174
  912MOL0     H20348   2.192   1.882   5.337  0.9524 -0.0891 -1.9276
  912MOL0     H20349   1.972   1.859   5.243  1.2304  0.5336 -0.4477
  912MOL0     H20350   1.767   1.820   5.102  1.6861 -0.0001 -0.7921
  912MOL0     H20351   1.779   1.763   5.267 -0.0269  0.8260 -0.6475
  912MOL0     H20352   1.630   1.583   5.226  2.6140  2.2592  2.5271
  912MOL0     H20353   1.612   1.619   5.061 -2.2030 -0.2069  1.3685
  912MOL0     H20354   1.529   1.856   5.142 -0.8508  0.5487  1.4872
  912MOL0     H20355   1.521   1.780   5.302  2.3971  0.7763  0.2712
  912MOL0     H20356   1.404   1.681   5.046 -2.5318  1.0887  0.7095
  912MOL0     H20357   1.398   1.601   5.198 -0.8373  0.8153  1.4215
  912MOL0     H20358   1.295   1.878   5.143  2.9998 -1.9505 -2.5273
  912MOL0     H20359   1.257   1.781   5.298 -0.8657  0.6238  0.0095
  912MOL0     H20360   1.116   1.636   5.230  1.1813  0.7173  1.1007
  912MOL0     H20361   1.158   1.646   5.053  0.1305 -0.2945  0.2508
  912MOL0     H20362   1.009   1.867   5.219  2.0091  1.8370  0.1859
  912MOL0     H20363   1.068   1.874   5.048 -0.4898  1.5920  1.5731
  912MOL0     H20364   0.914   1.697   4.990  0.7373 -0.0290  0.1726
  912MOL0     H20365   0.838   1.831   5.066  0.4837  0.4878  0.1566
  912MOL0     H20366   2.013   1.439   5.176 -2.5725  1.3247 -0.9179
  912MOL0     H20367   2.230   1.444   5.293 -1.8607  0.0255 -0.7054
  912MOL0     H20368   2.610   1.564   5.422 -0.8365  0.1054  2.6184
  912MOL0     H20369   2.846   1.580   5.470  0.8755  1.0660  0.3099
  912MOL0     H20370   4.533   1.642   5.920  0.5347  1.1159 -1.3842
  912MOL0     H20371   4.762   1.592   5.862 -0.6710 -1.4655 -0.3171
  912MOL0     H20372   5.258   1.340   6.202  0.1497 -0.1593  1.4137
  912MOL0     H20373   5.499   1.375   6.144 -1.4381 -1.6511  1.1341
  912MOL0     H20374   5.666   1.550   5.759  1.3354 -0.1422 -0.1396
  912MOL0     H20375   5.580   1.402   5.789  1.3235 -0.4305  0.4353
  912MOL0     H20376   5.782   1.360   5.975 -0.1577 -1.0357 -0.8096
  912MOL0     H20377   5.803   1.334   5.802  0.8557 -1.2442  1.0893
  912MOL0     H20378   5.888   1.582   5.961 -1.9047 -1.9874  0.4702
  912MOL0     H20379   5.888   1.583   5.786  4.2025 -1.5072 -1.3501
  912MOL0     H20380   6.031   1.398   5.776 -1.3250 -1.1854  0.6606
  912MOL0     H20381   6.106   1.536   5.848  1.7455 -1.6111  3.6866
  912MOL0     H20382   6.155   1.230   6.137  0.1746  0.2764  0.4597
  912MOL0     H20383   5.399   1.629   5.813 -0.5910 -0.6745 -0.2404
  912MOL0     H20384   5.158   1.613   5.879  0.7956 -0.3733 -1.4807
  913MOL0     O20385   1.899   8.334   4.797  1.0524 -0.0966  0.2264
  913MOL0     C20386   1.979   8.260   4.862  0.5029  0.0472 -0.1862
  913MOL0     O20387   1.936   8.146   4.932 -0.4917 -0.7261 -0.1243
  913MOL0     C20388   1.809   8.105   4.939 -0.4163 -0.3936 -0.7634
  913MOL0     C20389   1.753   8.075   5.066 -0.1368 -0.1112 -0.3036
  913MOL0     C20390   1.622   8.030   5.080 -0.9646 -0.4744 -0.3813
  913MOL0     C20391   1.549   8.009   4.964  0.2364  0.4176 -0.1917
  913MOL0     O20392   1.440   7.930   4.999 -0.1817 -0.3893  0.2882
  913MOL0     C20393   1.332   7.910   4.898  0.1392 -0.5543  0.8001
  913MOL0     C20394   1.233   8.037   4.893 -0.3461 -0.0175 -0.3941
  913MOL0     C20395   1.158   8.049   4.766  0.1006  0.6061 -0.0722
  913MOL0     C20396   1.086   7.916   4.736  0.3185  0.0963 -0.9462
  913MOL0     C20397   0.957   7.919   4.650  0.5782  0.1202 -0.4833
  913MOL0     C20398   0.853   7.999   4.719 -1.0559 -0.1089 -0.1000
  913MOL0     C20399   0.710   7.950   4.677  0.5575  0.2396 -0.0550
  913MOL0     C20400   0.676   7.799   4.711 -0.2130 -0.0484 -0.2126
  913MOL0     N20401   0.678   7.768   4.860  0.2620  0.0917 -0.1650
  913MOL0     C20402   0.780   7.714   4.934 -0.3795  0.7162  0.1900
  913MOL0     C20403   0.715   7.651   5.038  0.9584  0.6792  0.6833
  913MOL0     C20404   0.779   7.586   5.153 -0.1279 -0.6133  0.1782
  913MOL0     C20405   0.800   7.436   5.142  0.5257 -0.5831 -0.3449
  913MOL0     C20406   0.910   7.372   5.223 -0.2770 -0.4422 -0.8445
  913MOL0     C20407   1.047   7.438   5.195  0.6215  0.0401  0.9639
  913MOL0     O20408   1.064   7.455   5.055 -0.6317 -0.0071 -0.0286
  913MOL0     C20409   1.190   7.475   5.007 -1.2415  0.6201  0.3172
  913MOL0     C20410   1.286   7.556   5.065 -0.0304 -0.3962 -0.0268
  913MOL0     C20411   1.421   7.568   5.018  0.5588  0.1644  0.1150
  913MOL0     C20412   1.461   7.506   4.898  0.4590  0.5790  0.1283
  913MOL0     C20413   1.593   7.518   4.847 -0.4068  0.0324  0.5810
  913MOL0     O20414   1.690   7.588   4.911  0.3426  0.8842  0.0221
  913MOL0     C20415   1.816   7.605   4.862  0.4233  0.4663 -0.0782
  913MOL0     C20416   1.869   7.732   4.888 -0.8462  0.2603  0.7680
  913MOL0     C20417   2.002   7.767   4.847 -0.7573 -0.2516 -0.1296
  913MOL0     C20418   2.073   7.665   4.782 -0.0056  0.1997 -0.6316
  913MOL0     O20419   2.202   7.704   4.761  0.2908  0.4945  0.7125
  913MOL0     C20420   2.254   7.693   4.624 -0.2759  0.0007 -0.0712
  913MOL0     C20421   2.408   7.723   4.640  0.7207 -0.3262  0.1328
  913MOL0     C20422   2.427   7.877   4.633  0.1675  0.3201  0.6124
  913MOL0     C20423   2.578   7.912   4.646  0.3658 -0.3682 -0.0918
  913MOL0     C20424   2.593   8.063   4.640 -0.0078 -0.3167  0.0782
  913MOL0     C20425   2.733   8.111   4.603  0.4069 -0.2408  0.0014
  913MOL0     C20426   2.841   8.054   4.696  0.3314  0.5710 -1.0543
  913MOL0     C20427   2.977   8.117   4.663 -0.7144 -0.5379 -0.4133
  913MOL0    Cl20428   3.027   8.104   4.489 -0.7178  0.0536  0.2019
  913MOL0     C20429   2.011   7.537   4.746 -0.5526  0.4790  0.1285
  913MOL0     C20430   1.892   7.504   4.798  0.0721 -0.2570  0.2769
  913MOL0     O20431   1.608   7.466   4.738 -0.3561 -0.7784 -0.8578
  913MOL0     C20432   1.359   7.425   4.831 -0.1918  0.2978 -0.2331
  913MOL0     C20433   1.231   7.414   4.883 -0.3448 -0.2174 -0.3052
  913MOL0     N20434   0.585   7.680   5.031 -0.2289  0.6599  0.2661
  913MOL0     N20435   0.565   7.752   4.925  0.3073 -0.4374 -0.1498
  913MOL0     C20436   1.601   8.031   4.832  0.1644 -0.0456 -0.7158
  913MOL0     C20437   1.732   8.088   4.821  0.0395 -0.2175  0.4010
  913MOL0     C20438   2.118   8.303   4.856 -0.1209 -0.3628  0.5240
  913MOL0     C20439   2.156   8.405   4.765 -0.4966 -0.6014 -0.6601
  913MOL0     C20440   2.285   8.442   4.755  0.2027  0.3128 -0.5357
  913MOL0     C20441   2.386   8.371   4.820  0.6706 -0.3033  0.6517
  913MOL0     O20442   2.523   8.388   4.810  0.3359  0.6757  0.2845
  913MOL0     C20443   2.567   8.503   4.736 -0.3654  0.5409 -0.3013
  913MOL0     C20444   2.717   8.498   4.727  0.6280 -0.2222 -0.2359
  913MOL0     C20445   2.771   8.635   4.699  0.1013 -0.1622  0.2669
  913MOL0     C20446   2.831   8.660   4.562 -0.0252 -0.1140  0.1696
  913MOL0     C20447   2.954   8.574   4.541 -0.3329  0.6388 -1.3408
  913MOL0     C20448   3.055   8.503   4.536  0.3165 -0.2100 -0.0614
  913MOL0     C20449   2.348   8.266   4.907  0.7182 -0.6092 -0.5162
  913MOL0     C20450   2.214   8.240   4.930  0.3993 -0.3035 -0.7776
  913MOL0     H20451   1.799   8.106   5.159 -0.6107 -1.1454  0.2784
  913MOL0     H20452   1.568   8.034   5.175 -2.1096  0.4154 -1.0342
  913MOL0     H20453   1.276   7.821   4.929  1.8297 -1.7450  0.6052
  913MOL0     H20454   1.374   7.900   4.797  1.2727 -0.1000  1.2104
  913MOL0     H20455   1.294   8.123   4.920 -2.4355  0.9749  1.4273
  913MOL0     H20456   1.177   8.034   4.987  0.3971  3.9801  0.3488
  913MOL0     H20457   1.219   8.079   4.680 -0.5161  1.4879 -0.2091
  913MOL0     H20458   1.078   8.121   4.785 -1.5442 -1.0385 -0.4647
  913MOL0     H20459   1.153   7.837   4.700  0.6762  0.4431 -1.0503
  913MOL0     H20460   1.058   7.883   4.837 -2.1347  1.0271 -1.2382
  913MOL0     H20461   0.934   7.813   4.633 -0.0398  0.2510 -0.4753
  913MOL0     H20462   0.976   7.957   4.549  1.1841  1.5640  0.1412
  913MOL0     H20463   0.867   8.106   4.701  0.5311 -0.4592 -1.0713
  913MOL0     H20464   0.862   7.983   4.827 -1.7522 -3.5571 -0.4505
  913MOL0     H20465   0.638   7.997   4.746 -1.7131 -2.8423 -0.1428
  913MOL0     H20466   0.703   7.968   4.570  7.3541  3.2193 -0.5257
  913MOL0     H20467   0.762   7.749   4.665  0.4584  1.9167 -1.1975
  913MOL0     H20468   0.583   7.782   4.658 -1.4570 -0.8581  2.0862
  913MOL0     H20469   0.888   7.716   4.921 -0.6704  1.5107 -2.7507
  913MOL0     H20470   0.716   7.598   5.241  0.9297  0.8989  0.7773
  913MOL0     H20471   0.876   7.634   5.169 -0.1649 -0.5637  0.2555
  913MOL0     H20472   0.825   7.408   5.040  1.4029  1.8186 -0.8598
  913MOL0     H20473   0.707   7.385   5.171 -1.1654  2.4154 -0.0714
  913MOL0     H20474   0.893   7.376   5.331  1.0938 -1.9660 -0.5367
  913MOL0     H20475   0.908   7.264   5.205 -2.8128 -0.8011  1.0191
  913MOL0     H20476   1.110   7.358   5.236 -0.7319 -2.0050 -0.7443
  913MOL0     H20477   1.074   7.527   5.253 -1.3477  1.7293 -0.5817
  913MOL0     H20478   1.262   7.604   5.159  0.8488 -0.8189  0.4289
  913MOL0     H20479   1.483   7.642   5.068 -0.7115  0.6506  1.0105
  913MOL0     H20480   1.812   7.809   4.937  0.9109  2.5055 -0.5137
  913MOL0     H20481   2.029   7.872   4.860 -0.9921 -0.3426  1.3298
  913MOL0     H20482   2.208   7.759   4.549 -3.0995 -0.4754  1.1225
  913MOL0     H20483   2.256   7.591   4.585  2.5769  0.3114 -0.9705
  913MOL0     H20484   2.472   7.663   4.575  0.0549 -0.0468 -0.7981
  913MOL0     H20485   2.430   7.688   4.741 -0.1998 -2.5121 -0.3563
  913MOL0     H20486   2.368   7.904   4.721 -0.4539 -1.7729  0.9033
  913MOL0     H20487   2.380   7.925   4.547  1.5569  0.0031 -0.3559
  913MOL0     H20488   2.613   7.875   4.743 -0.9447  0.3444  0.6662
  913MOL0     H20489   2.643   7.865   4.571  0.5049 -1.5831  0.7637
  913MOL0     H20490   2.568   8.099   4.740 -2.3326  1.7561 -1.1547
  913MOL0     H20491   2.520   8.105   4.570  1.9504 -1.2640 -2.7014
  913MOL0     H20492   2.742   8.220   4.603 -2.3483  0.0549  0.7224
  913MOL0     H20493   2.757   8.068   4.505 -0.0344 -3.0541  1.0551
  913MOL0     H20494   2.818   8.089   4.798  2.8177  0.8971 -0.5495
  913MOL0     H20495   2.845   7.945   4.696  1.1342  0.5469  0.8798
  913MOL0     H20496   3.060   8.075   4.721  1.2777  1.4737 -1.6485
  913MOL0     H20497   2.976   8.224   4.688  1.0839 -0.4997 -0.3766
  913MOL0     H20498   2.056   7.457   4.688 -1.4484  0.1243 -0.0907
  913MOL0     H20499   1.849   7.410   4.765  0.1011  0.0455 -0.6577
  913MOL0     H20500   1.381   7.373   4.738  0.4455  1.3929 -0.7160
  913MOL0     H20501   1.173   7.335   4.836  1.0464 -0.6662 -1.3312
  913MOL0     H20502   1.542   8.001   4.746 -2.3839 -1.4746  1.3624
  913MOL0     H20503   1.779   8.100   4.724 -0.6905  0.0558  0.0720
  913MOL0     H20504   2.092   8.448   4.689 -2.3281  1.4299  1.8704
  913MOL0     H20505   2.316   8.513   4.678 -1.2900  0.0434 -1.4345
  913MOL0     H20506   2.535   8.592   4.791 -2.9361  0.0493 -0.8486
  913MOL0     H20507   2.521   8.491   4.637  0.0074 -1.4213 -0.2723
  913MOL0     H20508   2.755   8.469   4.825 -2.8359 -1.0959  0.9643
  913MOL0     H20509   2.749   8.423   4.653  1.3449 -0.6337  0.4771
  913MOL0     H20510   2.848   8.663   4.771  1.2201  1.4972 -1.4963
  913MOL0     H20511   2.696   8.713   4.715  2.1537  1.5825  1.9364
  913MOL0     H20512   2.761   8.632   4.483 -0.9396  4.0290 -0.7533
  913MOL0     H20513   2.860   8.765   4.551 -1.0026  0.0012 -1.8305
  913MOL0     H20514   3.138   8.435   4.538 -0.4987 -1.5766 -3.9912
  913MOL0     H20515   2.426   8.214   4.963  2.6778  0.5341 -2.0241
  913MOL0     H20516   2.192   8.165   5.005 -1.7783  0.2126 -0.8198
  914MOL0     O20517   9.524   6.675   8.836  0.8605 -0.0885  0.7869
  914MOL0     C20518   9.600   6.617   8.759  0.4218  0.9955 -0.7217
  914MOL0     O20519   9.584   6.492   8.700 -0.0094  0.7935  0.8767
  914MOL0     C20520   9.475   6.403   8.735  0.5449 -0.0534 -0.3651
  914MOL0     C20521   9.385   6.407   8.847  0.4160  0.2976  0.2310
  914MOL0     C20522   9.275   6.320   8.864  0.1184  1.0269 -0.0389
  914MOL0     C20523   9.248   6.223   8.763  0.6762 -0.2559  0.9315
  914MOL0     O20524   9.137   6.139   8.758  0.5405 -0.5667 -0.1767
  914MOL0     C20525   9.081   6.081   8.878 -0.5114  0.3716 -0.2533
  914MOL0     C20526   8.999   5.949   8.854 -0.7279 -0.7011  0.3176
  914MOL0     C20527   8.872   5.975   8.767 -0.4276 -0.6643 -0.8148
  914MOL0     C20528   8.810   5.848   8.729  0.2523 -0.1437 -0.0045
  914MOL0     C20529   8.723   5.866   8.604 -0.8583  0.3781  0.1506
  914MOL0     C20530   8.591   5.791   8.602  0.4869  0.0666 -0.9429
  914MOL0     C20531   8.487   5.865   8.694  0.5498 -0.8853 -0.8168
  914MOL0     C20532   8.422   5.781   8.799  0.0204 -0.0692 -0.6965
  914MOL0     N20533   8.350   5.840   8.918 -0.0643  0.6516 -0.5846
  914MOL0     C20534   8.232   5.908   8.919  0.1592 -0.8672  0.1054
  914MOL0     C20535   8.199   5.925   9.054  1.1899 -0.8186  0.7038
  914MOL0     C20536   8.067   6.000   9.100 -0.7368  0.5532 -0.7489
  914MOL0     C20537   8.103   6.054   9.242  0.6953 -0.5687 -0.9417
  914MOL0     C20538   7.992   6.153   9.297 -0.1140  0.5145  0.1372
  914MOL0     C20539   8.027   6.169   9.448  0.0275  0.4480 -0.1996
  914MOL0     O20540   7.977   6.304   9.483 -0.3593  0.0335  0.1347
  914MOL0     C20541   7.846   6.315   9.519  0.5888  0.1785 -0.6084
  914MOL0     C20542   7.775   6.222   9.592 -0.4009 -0.2429 -0.1015
  914MOL0     C20543   7.641   6.236   9.603  0.7769  0.5828  0.3085
  914MOL0     C20544   7.566   6.346   9.560  0.0337  0.0578 -0.3847
  914MOL0     C20545   7.419   6.363   9.584  0.3993  0.0102 -0.2545
  914MOL0     O20546   7.364   6.484   9.577  0.4739 -0.6527 -0.1359
  914MOL0     C20547   7.231   6.491   9.542 -0.6870 -0.4380 -1.5048
  914MOL0     C20548   7.199   6.483   9.406  0.2666 -0.1683 -0.7071
  914MOL0     C20549   7.062   6.503   9.368  0.8104  0.5546  1.0978
  914MOL0     C20550   6.963   6.525   9.461  0.9783 -0.0676  0.3325
  914MOL0     O20551   6.835   6.553   9.410  0.4318  0.0291 -0.2783
  914MOL0     C20552   6.760   6.643   9.493  0.1669  0.4612  0.2036
  914MOL0     C20553   6.637   6.563   9.533  0.4587 -0.2975  0.6270
  914MOL0     C20554   6.553   6.510   9.418  0.3574 -0.2569  0.5292
  914MOL0     C20555   6.456   6.627   9.364  0.4172 -0.4182 -0.3074
  914MOL0     C20556   6.401   6.592   9.227  0.2712 -0.5832 -0.8030
  914MOL0     C20557   6.270   6.660   9.195 -0.2739 -0.7241  0.0154
  914MOL0     C20558   6.226   6.611   9.057 -0.3420  0.2366 -0.3032
  914MOL0     C20559   6.106   6.692   9.015 -0.0633 -0.3474  0.1865
  914MOL0    Cl20560   5.952   6.627   9.097 -0.1183 -0.0260  0.1385
  914MOL0     C20561   7.001   6.509   9.602  0.1011  0.6366 -0.1760
  914MOL0     C20562   7.136   6.508   9.643 -0.5905 -0.3992 -0.0189
  914MOL0     O20563   7.350   6.261   9.596 -0.5833  0.8382  0.3475
  914MOL0     C20564   7.638   6.446   9.498  0.5087  0.4257  0.2932
  914MOL0     C20565   7.776   6.429   9.482 -0.1625  0.4946 -0.5251
  914MOL0     N20566   8.297   5.859   9.132  0.5171  0.0268  0.5009
  914MOL0     N20567   8.381   5.809   9.045  0.1063  0.6689  0.4004
  914MOL0     C20568   9.340   6.212   8.660 -0.2607 -0.5136 -0.9167
  914MOL0     C20569   9.453   6.299   8.647 -0.0185  0.2517  0.1842
  914MOL0     C20570   9.734   6.676   8.736  0.7338  0.7322 -0.1066
  914MOL0     C20571   9.829   6.619   8.640 -0.4463 -0.0887  0.2962
  914MOL0     C20572   9.960   6.666   8.624 -0.3886 -0.1993  1.2330
  914MOL0     C20573   9.997   6.783   8.693  0.5591  0.4890 -0.1978
  914MOL0     O20574  10.131   6.823   8.676  0.1436  0.0818  0.1947
  914MOL0     C20575  10.187   6.940   8.736  0.4029  0.0145  0.0829
  914MOL0     C20576  10.333   6.950   8.694  0.9218  0.1837 -0.5342
  914MOL0     C20577  10.364   6.988   8.547 -0.6788 -0.1532  0.0658
  914MOL0     C20578  10.386   6.886   8.437 -0.7118 -0.6882 -0.1610
  914MOL0     C20579  10.452   6.940   8.315  0.1173  0.1115 -0.1639
  914MOL0     C20580  10.500   6.978   8.215 -0.9238  0.2571  0.8063
  914MOL0     C20581   9.901   6.850   8.778 -0.2884 -0.6503  0.2903
  914MOL0     C20582   9.774   6.789   8.802  0.1887 -1.3186  0.4967
  914MOL0     H20583   9.397   6.479   8.928 -2.1845  2.0973 -0.8291
  914MOL0     H20584   9.212   6.338   8.951 -1.4012 -0.4380 -0.7828
  914MOL0     H20585   9.009   6.148   8.927 -1.5377 -0.0538 -1.1405
  914MOL0     H20586   9.166   6.056   8.942 -1.9392  0.2237  1.6981
  914MOL0     H20587   8.962   5.915   8.951 -1.4253 -1.9132 -0.3442
  914MOL0     H20588   9.058   5.871   8.805 -0.8276 -0.7036  0.2012
  914MOL0     H20589   8.901   6.033   8.678  0.9729  0.5369  0.3801
  914MOL0     H20590   8.796   6.045   8.804  1.1752  1.5479 -1.4338
  914MOL0     H20591   8.883   5.768   8.714 -0.1445 -0.3357 -1.0305
  914MOL0     H20592   8.743   5.809   8.806  1.6758 -2.4986  0.1428
  914MOL0     H20593   8.775   5.847   8.509 -1.3303  0.0793 -0.0516
  914MOL0     H20594   8.696   5.972   8.607  1.0878  0.9739  4.3928
  914MOL0     H20595   8.603   5.685   8.627 -0.5105 -0.3108 -1.9646
  914MOL0     H20596   8.544   5.804   8.504  0.1051  2.7779 -0.4768
  914MOL0     H20597   8.540   5.935   8.758 -1.9965  0.3004  0.1129
  914MOL0     H20598   8.407   5.916   8.640  2.4191  1.8960 -1.1288
  914MOL0     H20599   8.495   5.708   8.837 -1.0909  1.6716  6.1880
  914MOL0     H20600   8.345   5.721   8.750  0.8099  0.3822 -2.5563
  914MOL0     H20601   8.179   5.952   8.835  1.8875 -0.7518 -0.9776
  914MOL0     H20602   7.980   5.933   9.104 -0.4458  0.1869 -0.4962
  914MOL0     H20603   8.046   6.091   9.043  0.2546  1.4801  0.3283
  914MOL0     H20604   8.198   6.106   9.233 -0.3741  1.5789 -0.5458
  914MOL0     H20605   8.114   5.968   9.309 -2.5471  0.1876  0.7929
  914MOL0     H20606   8.007   6.249   9.247  2.7309 -0.3412 -0.8218
  914MOL0     H20607   7.889   6.116   9.291  0.3929 -1.1891  1.2409
  914MOL0     H20608   8.134   6.161   9.469 -0.1415  2.0321  1.4729
  914MOL0     H20609   7.982   6.094   9.514 -0.6857  2.0547  1.2076
  914MOL0     H20610   7.822   6.138   9.642  3.2418  2.6378  1.7726
  914MOL0     H20611   7.583   6.153   9.644 -0.6326  2.2933  1.9833
  914MOL0     H20612   7.273   6.469   9.327 -0.1952 -0.9130 -1.0196
  914MOL0     H20613   7.025   6.501   9.267  0.1249 -1.7188  1.3337
  914MOL0     H20614   6.727   6.732   9.438 -2.5532 -0.7223 -0.2708
  914MOL0     H20615   6.814   6.684   9.579  0.3181  1.2393 -0.2545
  914MOL0     H20616   6.574   6.622   9.600  1.6790  3.1811 -1.0194
  914MOL0     H20617   6.676   6.472   9.579 -2.0539 -2.3129 -0.9888
  914MOL0     H20618   6.490   6.426   9.448 -0.8781  1.1598  2.1720
  914MOL0     H20619   6.617   6.472   9.338 -1.0268 -0.4407 -0.5319
  914MOL0     H20620   6.377   6.631   9.440  1.7560  0.0033  1.1148
  914MOL0     H20621   6.508   6.723   9.364  0.5108 -0.4492  0.8846
  914MOL0     H20622   6.370   6.488   9.228  3.2824 -1.5813 -0.1564
  914MOL0     H20623   6.472   6.607   9.145  2.1535  2.1318  1.1210
  914MOL0     H20624   6.295   6.766   9.207  1.4386 -1.2524  1.3732
  914MOL0     H20625   6.185   6.645   9.263  0.4336 -0.0393  1.0641
  914MOL0     H20626   6.308   6.636   8.989 -0.6940  5.3047  0.7665
  914MOL0     H20627   6.198   6.505   9.066  1.4509 -0.1800  0.8762
  914MOL0     H20628   6.106   6.673   8.908 -0.7795 -0.0799  0.1306
  914MOL0     H20629   6.112   6.801   9.028 -1.2033  0.0723 -2.2344
  914MOL0     H20630   6.928   6.517   9.682  0.2471  1.6135 -0.1204
  914MOL0     H20631   7.170   6.510   9.746  2.8817 -0.9073 -1.0224
  914MOL0     H20632   7.598   6.540   9.460  1.2438  0.7161  0.2112
  914MOL0     H20633   7.834   6.501   9.424  3.2327 -1.0929  0.6366
  914MOL0     H20634   9.326   6.136   8.583  0.7917 -0.8183 -0.8124
  914MOL0     H20635   9.522   6.269   8.569 -0.6658 -0.1688 -0.2466
  914MOL0     H20636   9.801   6.533   8.580 -0.1167 -0.5416  0.7849
  914MOL0     H20637  10.035   6.613   8.566 -0.3818 -0.9217  1.8828
  914MOL0     H20638  10.174   6.945   8.844 -0.7280  0.1555 -0.0459
  914MOL0     H20639  10.147   7.041   8.718  1.2963  0.7143  1.8207
  914MOL0     H20640  10.369   7.022   8.769 -0.0032  0.2138 -0.1147
  914MOL0     H20641  10.383   6.854   8.710  0.2349 -0.0539  0.2469
  914MOL0     H20642  10.459   7.041   8.538 -0.7078 -0.1797 -0.4442
  914MOL0     H20643  10.284   7.055   8.516  0.6239  1.4225 -0.0303
  914MOL0     H20644  10.444   6.801   8.473 -1.5304 -0.7654  1.0377
  914MOL0     H20645  10.291   6.836   8.412  0.1871 -3.0797  0.8936
  914MOL0     H20646  10.557   6.996   8.126  2.4469 -2.8767  2.1118
  914MOL0     H20647   9.931   6.944   8.825 -0.6232 -0.1115 -0.5464
  914MOL0     H20648   9.710   6.843   8.872  1.8639 -0.5512  1.4913
  915MOL0     O20649   1.853   6.537   4.220 -1.0133  0.1867  0.3013
  915MOL0     C20650   1.907   6.456   4.146  0.2145 -0.3561 -0.2078
  915MOL0     O20651   1.857   6.402   4.033 -0.0581  0.0638  0.5909
  915MOL0     C20652   1.723   6.407   4.007  0.7361  0.0693  0.1199
  915MOL0     C20653   1.688   6.431   3.877  0.3699 -0.2854 -0.8177
  915MOL0     C20654   1.557   6.411   3.829  0.3976  0.2338 -0.0304
  915MOL0     C20655   1.457   6.384   3.921  0.5041 -0.1674  0.0151
  915MOL0     O20656   1.331   6.378   3.872 -0.1915 -0.6811 -0.5824
  915MOL0     C20657   1.210   6.396   3.953 -0.3103  0.6337  0.8843
  915MOL0     C20658   1.102   6.333   3.863  0.4191 -0.0623 -0.9034
  915MOL0     C20659   0.964   6.372   3.920  0.0291 -0.4175 -0.8539
  915MOL0     C20660   0.924   6.297   4.044  0.8530  0.0146  0.4453
  915MOL0     C20661   0.784   6.329   4.103 -0.4378  1.0999 -0.1428
  915MOL0     C20662   0.678   6.336   3.997  0.7200  0.5539  0.7469
  915MOL0     C20663   0.538   6.343   4.058 -0.5103  0.3231  0.1795
  915MOL0     C20664   0.433   6.391   3.954 -0.4774 -0.7744  0.7571
  915MOL0     N20665   0.295   6.343   3.990 -0.7722 -0.6124 -0.1296
  915MOL0     C20666   0.232   6.236   3.932 -0.0277 -0.3994 -0.2967
  915MOL0     C20667   0.125   6.212   4.000  0.6757 -0.7819  0.2911
  915MOL0     C20668   0.020   6.108   3.952 -0.1589  1.3490 -0.4583
  915MOL0     C20669  -0.009   5.996   4.057  0.3599 -0.2745  0.5690
  915MOL0     C20670  -0.153   5.956   4.047  0.8385 -0.0359  0.3662
  915MOL0     C20671  -0.256   6.040   4.126 -1.4635  0.5202 -0.0891
  915MOL0     O20672  -0.390   5.985   4.101 -0.7866  0.3474  0.2199
  915MOL0     C20673  -0.434   5.875   4.172 -0.1003  0.6644 -0.1688
  915MOL0     C20674  -0.368   5.814   4.279 -0.1131 -0.5817  0.2188
  915MOL0     C20675  -0.416   5.703   4.352  0.0042 -0.3083  1.0932
  915MOL0     C20676  -0.536   5.645   4.303  0.3182 -0.1485  0.5916
  915MOL0     C20677  -0.589   5.524   4.369 -0.2497 -0.2942  1.1140
  915MOL0     O20678  -0.521   5.484   4.481 -0.3113  0.5954  0.3638
  915MOL0     C20679  -0.548   5.365   4.545  0.2915  0.4672  0.0019
  915MOL0     C20680  -0.528   5.354   4.687  0.2624  0.2796 -0.3649
  915MOL0     C20681  -0.552   5.242   4.756  0.1737 -0.6197 -0.1612
  915MOL0     C20682  -0.586   5.121   4.687 -0.9279 -1.0866 -0.3885
  915MOL0     O20683  -0.600   5.010   4.767 -0.0753  0.3605 -0.6896
  915MOL0     C20684  -0.605   4.883   4.704  0.6653  0.2576  0.5061
  915MOL0     C20685  -0.474   4.828   4.663 -0.5414 -0.4898 -0.5521
  915MOL0     C20686  -0.373   4.845   4.778 -0.1487  0.3034  0.8959
  915MOL0     C20687  -0.241   4.784   4.731  0.2353 -0.7070 -0.0850
  915MOL0     C20688  -0.131   4.801   4.842 -0.2788  0.1979  0.7934
  915MOL0     C20689  -0.004   4.734   4.790  0.5293  0.0692 -0.3509
  915MOL0     C20690   0.100   4.834   4.743  0.7612 -0.1420  0.7685
  915MOL0     C20691   0.239   4.767   4.711 -0.0911 -0.0591 -0.0394
  915MOL0    Cl20692   0.348   4.747   4.855  0.2171 -0.2043  0.0879
  915MOL0     C20693  -0.584   5.118   4.550  0.2904  0.1909  0.0379
  915MOL0     C20694  -0.564   5.242   4.475 -0.0655  0.1084 -0.6835
  915MOL0     O20695  -0.693   5.472   4.329  1.3739  0.0822  0.3271
  915MOL0     C20696  -0.605   5.704   4.192 -0.1426 -0.2685 -0.7359
  915MOL0     C20697  -0.556   5.821   4.132  0.3445 -0.3460 -0.3384
  915MOL0     N20698   0.108   6.314   4.095 -0.4067  0.0482  0.0393
  915MOL0     N20699   0.218   6.394   4.090  0.7864 -0.2275  0.3341
  915MOL0     C20700   1.485   6.366   4.057  0.5283 -0.9735  0.5430
  915MOL0     C20701   1.619   6.376   4.100  0.0577  0.0323  0.3045
  915MOL0     C20702   2.054   6.432   4.183  0.4855  0.1965  0.3340
  915MOL0     C20703   2.108   6.472   4.309  0.6399 -0.3024 -0.3054
  915MOL0     C20704   2.249   6.467   4.326 -0.9658  0.7275 -0.5864
  915MOL0     C20705   2.336   6.422   4.223  0.8456 -0.0049  0.3435
  915MOL0     O20706   2.466   6.427   4.250 -0.1939  0.0322 -0.5826
  915MOL0     C20707   2.564   6.381   4.165 -0.3267  0.4441 -0.2081
  915MOL0     C20708   2.594   6.477   4.054  0.7128 -0.5563 -0.6890
  915MOL0     C20709   2.675   6.604   4.107  0.7285  1.1015 -0.1367
  915MOL0     C20710   2.673   6.723   4.010  0.0234  0.8999 -0.1386
  915MOL0     C20711   2.815   6.755   3.973  0.4989  0.5718  0.9252
  915MOL0     C20712   2.930   6.777   3.959  0.0196  0.2487  0.3771
  915MOL0     C20713   2.281   6.378   4.101 -0.5297  0.5765  0.5351
  915MOL0     C20714   2.144   6.392   4.089  0.5548  0.9633 -0.2412
  915MOL0     H20715   1.776   6.436   3.814  0.8004  2.0068 -0.1421
  915MOL0     H20716   1.540   6.416   3.722  2.8932 -1.0344 -0.5685
  915MOL0     H20717   1.198   6.504   3.964  0.3038  0.9549 -1.2557
  915MOL0     H20718   1.203   6.331   4.041  1.2538 -2.1330 -0.9065
  915MOL0     H20719   1.107   6.224   3.851 -1.4018 -0.2438 -0.3266
  915MOL0     H20720   1.099   6.367   3.759 -1.5812 -0.6776 -1.0883
  915MOL0     H20721   0.897   6.353   3.835  3.6626 -0.9554 -3.8750
  915MOL0     H20722   0.965   6.480   3.938  0.7107 -0.6798  0.7981
  915MOL0     H20723   0.930   6.195   4.006  3.2896  0.5607 -0.8670
  915MOL0     H20724   0.997   6.314   4.124  3.2514  0.0377 -1.6056
  915MOL0     H20725   0.783   6.428   4.149  0.5624  1.3771 -0.6690
  915MOL0     H20726   0.763   6.253   4.178 -3.2612  2.7862  0.9178
  915MOL0     H20727   0.686   6.242   3.942  1.0487  0.6271  0.6675
  915MOL0     H20728   0.706   6.417   3.930 -0.1180  0.0631 -0.2158
  915MOL0     H20729   0.509   6.246   4.101 -1.8594  0.3169 -0.6979
  915MOL0     H20730   0.533   6.422   4.133 -1.9684  0.2551  0.1797
  915MOL0     H20731   0.460   6.349   3.856 -2.1937 -0.5245  0.1298
  915MOL0     H20732   0.439   6.500   3.948  0.4734 -0.8939 -2.0788
  915MOL0     H20733   0.273   6.178   3.850 -0.9319 -0.1193 -0.9607
  915MOL0     H20734   0.066   6.058   3.866 -0.9513  0.0582 -0.1675
  915MOL0     H20735  -0.075   6.160   3.934 -0.4839  2.7595  4.0968
  915MOL0     H20736   0.025   6.030   4.156 -1.6378 -1.1480  1.6159
  915MOL0     H20737   0.047   5.908   4.026 -1.4520 -1.5881  0.8749
  915MOL0     H20738  -0.190   5.950   3.944 -2.7115 -1.3794  1.5363
  915MOL0     H20739  -0.163   5.854   4.085 -0.4909  0.3764  1.1907
  915MOL0     H20740  -0.247   6.148   4.112  0.7687  0.2468 -1.2219
  915MOL0     H20741  -0.220   6.025   4.228  3.4825  0.8717 -1.4993
  915MOL0     H20742  -0.268   5.848   4.305 -0.2399  2.4226 -2.6312
  915MOL0     H20743  -0.352   5.661   4.429  0.2107  0.8753  1.5991
  915MOL0     H20744  -0.503   5.452   4.725  0.8825  0.4165 -1.0842
  915MOL0     H20745  -0.560   5.232   4.864 -1.0383 -0.7423 -0.2480
  915MOL0     H20746  -0.674   4.890   4.619 -0.0388  0.1483  1.0560
  915MOL0     H20747  -0.639   4.806   4.775  1.0277  1.0827  1.5998
  915MOL0     H20748  -0.448   4.885   4.574  0.2525  1.8641  1.0912
  915MOL0     H20749  -0.472   4.720   4.648 -0.1281 -0.5745  0.0829
  915MOL0     H20750  -0.414   4.792   4.865  0.5615 -0.8671  0.5384
  915MOL0     H20751  -0.358   4.951   4.801  0.7443 -0.1244  2.4167
  915MOL0     H20752  -0.247   4.679   4.701  0.5941 -0.7472 -0.0209
  915MOL0     H20753  -0.207   4.832   4.638  1.5830 -2.2922 -0.4699
  915MOL0     H20754  -0.173   4.755   4.932  0.7256 -1.2218  0.5689
  915MOL0     H20755  -0.121   4.904   4.878  0.0032  0.3978  0.1599
  915MOL0     H20756  -0.021   4.661   4.711  2.0836 -1.1294  0.3606
  915MOL0     H20757   0.034   4.670   4.871 -1.4402  0.3071  0.8178
  915MOL0     H20758   0.065   4.873   4.647  2.9879 -2.4429 -1.1394
  915MOL0     H20759   0.108   4.930   4.795  1.1623  1.4139 -1.9877
  915MOL0     H20760   0.295   4.830   4.642  0.9281 -1.2366 -0.3322
  915MOL0     H20761   0.220   4.670   4.665 -0.2896  0.2442 -0.5951
  915MOL0     H20762  -0.593   5.030   4.486 -1.1190  0.5072 -0.2155
  915MOL0     H20763  -0.558   5.241   4.367 -2.7158 -0.8143 -0.8832
  915MOL0     H20764  -0.697   5.656   4.162 -0.2333 -1.2875  0.9837
  915MOL0     H20765  -0.603   5.856   4.041  2.1389  0.3722 -1.0412
  915MOL0     H20766   1.410   6.332   4.128 -0.1208  1.0919  0.9241
  915MOL0     H20767   1.641   6.364   4.206 -1.8320 -1.5819  0.5721
  915MOL0     H20768   2.045   6.514   4.386  2.1090  0.5883  0.4606
  915MOL0     H20769   2.295   6.506   4.416  0.1456  2.5895 -1.8874
  915MOL0     H20770   2.542   6.282   4.125 -3.3741  0.3687  1.3599
  915MOL0     H20771   2.659   6.369   4.218 -0.8426 -2.1170  0.2671
  915MOL0     H20772   2.651   6.420   3.980  0.7720 -2.9096  1.0587
  915MOL0     H20773   2.502   6.519   4.009 -1.0484 -1.3810  1.9188
  915MOL0     H20774   2.773   6.561   4.129 -0.3588 -1.1075  0.6953
  915MOL0     H20775   2.642   6.629   4.209 -0.7116  0.1581 -0.3428
  915MOL0     H20776   2.613   6.709   3.920  0.9319  1.2719 -0.8160
  915MOL0     H20777   2.623   6.813   4.046 -1.8950  0.5465 -1.7245
  915MOL0     H20778   3.029   6.817   3.947  0.1736 -0.4106 -0.6904
  915MOL0     H20779   2.342   6.346   4.017  3.3880  3.3875  2.0014
  915MOL0     H20780   2.104   6.383   3.989 -0.7792 -1.0665  0.4165
  916MOL0     O20781   2.639   6.370   2.480  0.6812  0.9372  0.0668
  916MOL0     C20782   2.637   6.458   2.564  1.5209  0.2232 -0.5977
  916MOL0     O20783   2.524   6.515   2.623 -0.1762 -0.0099 -0.4021
  916MOL0     C20784   2.400   6.471   2.583  0.1852  0.1536  0.0441
  916MOL0     C20785   2.359   6.344   2.565  0.0373 -0.9740 -0.4486
  916MOL0     C20786   2.231   6.304   2.524  0.4573 -0.6787 -0.2505
  916MOL0     C20787   2.129   6.402   2.522  0.9198  0.9518 -0.0579
  916MOL0     O20788   2.004   6.367   2.491  0.4357  0.6040  0.2387
  916MOL0     C20789   1.921   6.309   2.599  0.5492  0.6704  0.7488
  916MOL0     C20790   1.800   6.225   2.544 -0.0489  0.5142 -0.9059
  916MOL0     C20791   1.681   6.315   2.514  0.0874  0.1265 -0.4169
  916MOL0     C20792   1.715   6.454   2.450 -0.1975  0.1776  0.1291
  916MOL0     C20793   1.599   6.524   2.392  0.7567  0.8357  0.4735
  916MOL0     C20794   1.615   6.581   2.254  0.8442 -0.5507  0.3299
  916MOL0     C20795   1.489   6.646   2.199 -0.3348 -0.2960 -0.4370
  916MOL0     C20796   1.509   6.717   2.061  0.3833 -0.3088 -0.2560
  916MOL0     N20797   1.384   6.771   2.009  0.9419 -0.1819 -0.5578
  916MOL0     C20798   1.330   6.723   1.894 -0.0921 -0.6146 -0.2258
  916MOL0     C20799   1.223   6.804   1.871  0.7819  0.3979  0.4454
  916MOL0     C20800   1.145   6.807   1.747 -0.1655  0.2277 -0.1178
  916MOL0     C20801   1.014   6.724   1.752 -0.3221 -0.6281  0.1397
  916MOL0     C20802   0.947   6.725   1.609 -0.4128 -0.3413 -0.2932
  916MOL0     C20803   0.809   6.639   1.619  0.4758 -0.3268  0.9716
  916MOL0     O20804   0.729   6.662   1.735  0.8619 -0.5677  0.4052
  916MOL0     C20805   0.601   6.615   1.740 -0.0433  0.0688 -0.4698
  916MOL0     C20806   0.523   6.653   1.846 -0.2360 -0.0623  0.0022
  916MOL0     C20807   0.388   6.615   1.855 -1.2682  0.4150  0.1303
  916MOL0     C20808   0.327   6.535   1.754 -0.3269 -0.5174  0.4407
  916MOL0     C20809   0.183   6.499   1.764 -0.0006  0.1271 -0.1128
  916MOL0     O20810   0.105   6.546   1.866  1.1159  0.7778 -0.1507
  916MOL0     C20811  -0.035   6.541   1.864  0.2986 -0.6414  0.1574
  916MOL0     C20812  -0.109   6.654   1.909  0.6175  1.2187 -0.5793
  916MOL0     C20813  -0.247   6.653   1.908 -1.0337 -0.0572  0.4268
  916MOL0     C20814  -0.318   6.538   1.867 -0.2492 -0.1959  0.2479
  916MOL0     O20815  -0.458   6.564   1.866  0.2742  0.1879 -0.2329
  916MOL0     C20816  -0.539   6.478   1.778 -0.4910 -0.4005  0.1756
  916MOL0     C20817  -0.655   6.566   1.732  0.2141 -0.0027  0.6160
  916MOL0     C20818  -0.763   6.585   1.842 -0.3989 -0.0379  0.4242
  916MOL0     C20819  -0.887   6.653   1.788  0.6198  0.6170  0.0678
  916MOL0     C20820  -0.968   6.564   1.688  0.6692 -0.4753 -1.1301
  916MOL0     C20821  -1.113   6.620   1.683  0.1198 -0.4764  0.4305
  916MOL0     C20822  -1.198   6.545   1.578  0.3191 -0.2839 -0.1427
  916MOL0     C20823  -1.333   6.612   1.556 -0.3613 -0.2552 -0.1846
  916MOL0    Cl20824  -1.434   6.601   1.708  0.3731 -0.1725  0.0779
  916MOL0     C20825  -0.244   6.420   1.821 -0.6511 -0.1427 -0.0157
  916MOL0     C20826  -0.107   6.423   1.823 -0.2890 -0.1622 -0.0378
  916MOL0     O20827   0.139   6.428   1.676 -0.1205 -0.2416  0.2208
  916MOL0     C20828   0.411   6.487   1.651  0.1892  0.3874  0.4993
  916MOL0     C20829   0.547   6.525   1.643 -0.2604 -0.6813 -0.0580
  916MOL0     N20830   1.205   6.890   1.975 -0.0599  0.4884 -0.3035
  916MOL0     N20831   1.310   6.873   2.059 -0.3540  0.1153 -0.0753
  916MOL0     C20832   2.154   6.538   2.548 -0.3503  0.3426  0.6057
  916MOL0     C20833   2.291   6.568   2.575  0.4183  0.1796  0.8586
  916MOL0     C20834   2.768   6.501   2.616 -0.1748  0.1871 -0.2522
  916MOL0     C20835   2.886   6.430   2.578  0.0439 -0.0797 -0.2302
  916MOL0     C20836   3.005   6.467   2.635 -0.2509  0.6080 -1.0041
  916MOL0     C20837   3.006   6.575   2.732  0.3970 -0.3455 -0.4050
  916MOL0     O20838   3.110   6.626   2.803  0.2193 -0.0717 -0.2393
  916MOL0     C20839   3.231   6.546   2.792  0.3700 -0.1597 -0.2040
  916MOL0     C20840   3.315   6.618   2.898 -0.3944  0.3125 -0.3018
  916MOL0     C20841   3.436   6.547   2.947 -0.0450 -0.0387  0.3839
  916MOL0     C20842   3.503   6.624   3.057 -0.7993  0.1530  0.1179
  916MOL0     C20843   3.640   6.586   3.097  0.1591  0.0281 -0.5296
  916MOL0     C20844   3.742   6.538   3.150 -0.2725 -0.0082 -0.1615
  916MOL0     C20845   2.888   6.636   2.767  0.0683  0.8665  0.3993
  916MOL0     C20846   2.772   6.602   2.703  0.1918  0.8180 -0.5242
  916MOL0     H20847   2.426   6.260   2.576  3.0538  0.9770 -2.4310
  916MOL0     H20848   2.202   6.201   2.506  1.5694 -0.4661 -4.2083
  916MOL0     H20849   1.893   6.387   2.670 -2.2716  0.7167 -0.3185
  916MOL0     H20850   1.983   6.238   2.655  2.9717  1.2370 -1.0273
  916MOL0     H20851   1.764   6.155   2.621 -0.0753  1.4310 -0.0670
  916MOL0     H20852   1.842   6.171   2.458 -0.6498 -0.7809 -0.4245
  916MOL0     H20853   1.629   6.329   2.608  0.1803 -0.9689 -0.1898
  916MOL0     H20854   1.617   6.269   2.437 -0.8665  1.7836 -0.6576
  916MOL0     H20855   1.756   6.518   2.530  2.1136 -2.9430  1.6551
  916MOL0     H20856   1.792   6.436   2.375  0.1980  0.4332  0.4616
  916MOL0     H20857   1.554   6.600   2.457  1.1970  0.4009  1.2926
  916MOL0     H20858   1.519   6.450   2.378  1.1407  0.8538 -2.5893
  916MOL0     H20859   1.639   6.504   2.180  2.6869  3.5820 -3.8654
  916MOL0     H20860   1.686   6.664   2.261  1.1780 -0.9429  1.7718
  916MOL0     H20861   1.407   6.575   2.189 -0.7787 -0.1864  1.8104
  916MOL0     H20862   1.458   6.723   2.271  1.9978 -0.7161  1.1253
  916MOL0     H20863   1.545   6.649   1.984 -0.6035  1.3424 -2.2710
  916MOL0     H20864   1.582   6.797   2.076  1.4727 -0.9383 -1.9149
  916MOL0     H20865   1.369   6.644   1.830 -1.1665 -1.6932  0.4069
  916MOL0     H20866   1.204   6.763   1.666  0.2542  0.1758  0.2139
  916MOL0     H20867   1.107   6.908   1.726 -2.4064 -0.4241  0.5133
  916MOL0     H20868   0.946   6.769   1.826  0.0583  0.0789  0.0675
  916MOL0     H20869   1.037   6.622   1.782 -1.9273 -1.2350 -0.6253
  916MOL0     H20870   0.921   6.817   1.557  0.5565 -0.9670 -1.9890
  916MOL0     H20871   1.013   6.665   1.544 -0.2944 -1.8203  1.1084
  916MOL0     H20872   0.832   6.532   1.617  1.0406 -0.2067 -0.4477
  916MOL0     H20873   0.759   6.661   1.524 -1.2856  0.7891  2.0894
  916MOL0     H20874   0.571   6.715   1.921  1.4219 -1.9052  0.5642
  916MOL0     H20875   0.335   6.647   1.944 -3.1466 -0.5107 -0.5973
  916MOL0     H20876  -0.059   6.743   1.948 -0.1304  0.3785  2.6007
  916MOL0     H20877  -0.286   6.743   1.955 -0.5481  1.6449 -2.2122
  916MOL0     H20878  -0.571   6.382   1.821 -0.5823 -0.2904  0.3578
  916MOL0     H20879  -0.478   6.443   1.694 -0.7363 -1.2174  0.3286
  916MOL0     H20880  -0.708   6.513   1.653 -0.3260  2.5392 -0.8392
  916MOL0     H20881  -0.617   6.659   1.689 -2.2582  0.3159 -1.0927
  916MOL0     H20882  -0.725   6.654   1.918 -0.9357  1.7499 -0.8435
  916MOL0     H20883  -0.790   6.493   1.893 -1.6198  0.4707  0.7361
  916MOL0     H20884  -0.949   6.690   1.870  0.5088 -1.0244  0.7618
  916MOL0     H20885  -0.857   6.739   1.727  2.0616  1.2889  1.6181
  916MOL0     H20886  -0.961   6.461   1.725  1.2321  0.3261  1.2111
  916MOL0     H20887  -0.936   6.566   1.584 -2.4750  0.6653 -2.1837
  916MOL0     H20888  -1.107   6.727   1.660 -3.2403 -0.1382  0.7171
  916MOL0     H20889  -1.158   6.609   1.782 -0.8311  0.9153  0.1898
  916MOL0     H20890  -1.142   6.546   1.484  0.1819 -2.3491 -0.2756
  916MOL0     H20891  -1.209   6.440   1.605 -1.9761  0.4563  2.1593
  916MOL0     H20892  -1.389   6.556   1.481 -0.1592 -3.4573  1.8534
  916MOL0     H20893  -1.319   6.716   1.526  2.3772 -0.8479 -1.1981
  916MOL0     H20894  -0.295   6.335   1.777 -0.2034  1.2296 -3.4691
  916MOL0     H20895  -0.047   6.338   1.792  0.5023  0.1987  0.5015
  916MOL0     H20896   0.368   6.432   1.568 -2.2508  0.8258  1.3798
  916MOL0     H20897   0.604   6.480   1.563 -2.5921  2.8911 -4.1142
  916MOL0     H20898   2.081   6.617   2.537  0.6634  1.0017 -2.4924
  916MOL0     H20899   2.322   6.672   2.586 -0.6055  0.4386  1.3665
  916MOL0     H20900   2.892   6.344   2.512 -1.4821  0.0227 -0.5258
  916MOL0     H20901   3.096   6.415   2.608  0.0670  0.5692  0.1191
  916MOL0     H20902   3.283   6.567   2.698  1.2374  0.2623  0.3623
  916MOL0     H20903   3.216   6.441   2.817 -1.1363  0.4448  1.6864
  916MOL0     H20904   3.345   6.715   2.859  1.7409  1.3430  3.3748
  916MOL0     H20905   3.251   6.636   2.985  1.6579  0.4329  1.2693
  916MOL0     H20906   3.508   6.523   2.868 -0.5743  1.1324 -0.4853
  916MOL0     H20907   3.403   6.452   2.989 -3.5413  1.5377  1.5208
  916MOL0     H20908   3.511   6.729   3.026 -0.2379  0.1520  0.2383
  916MOL0     H20909   3.445   6.623   3.149  0.8469 -0.2534  1.2004
  916MOL0     H20910   3.835   6.497   3.182  1.3397  0.8319 -3.3315
  916MOL0     H20911   2.878   6.698   2.856  0.3682  1.3056  0.1315
  916MOL0     H20912   2.677   6.647   2.730  0.1060  0.3234  0.0046
  917MOL0     O20913   8.235   9.126   8.870 -0.0968  0.4914  0.4369
  917MOL0     C20914   8.271   9.165   8.978  0.2655  0.0179 -0.0146
  917MOL0     O20915   8.231   9.113   9.096  0.0413  0.3715  0.7493
  917MOL0     C20916   8.139   9.014   9.091  0.2642 -0.0604  1.0071
  917MOL0     C20917   8.177   8.901   9.154 -0.1944  0.3490  0.7305
  917MOL0     C20918   8.092   8.787   9.165  0.8747  1.4575 -0.7529
  917MOL0     C20919   7.967   8.787   9.100  0.0593 -0.1971  0.2860
  917MOL0     O20920   7.893   8.669   9.103  0.8721 -0.2817 -0.1261
  917MOL0     C20921   7.775   8.651   9.026 -0.2737 -0.7504  0.3879
  917MOL0     C20922   7.655   8.706   9.097 -0.3457 -0.9592 -0.2279
  917MOL0     C20923   7.522   8.672   9.045 -0.1085 -0.7723 -0.9213
  917MOL0     C20924   7.412   8.726   9.140  0.3395  0.3786 -0.1501
  917MOL0     C20925   7.270   8.712   9.085  0.2624  0.3468  0.1802
  917MOL0     C20926   7.158   8.766   9.170 -0.2068  0.1478  0.1072
  917MOL0     C20927   7.144   8.687   9.293 -0.1000 -0.5665  0.0209
  917MOL0     C20928   7.028   8.736   9.381  0.6373 -0.0349  0.2825
  917MOL0     N20929   6.905   8.730   9.309  0.5587  0.8946 -0.3533
  917MOL0     C20930   6.835   8.613   9.276  0.7309 -0.6579 -1.6407
  917MOL0     C20931   6.724   8.656   9.200 -0.7649  0.8109  0.7099
  917MOL0     C20932   6.616   8.573   9.142  0.6468  0.0818 -0.4552
  917MOL0     C20933   6.543   8.489   9.249 -0.0958  1.1931 -0.2745
  917MOL0     C20934   6.475   8.360   9.190  0.6063 -0.3429 -0.6436
  917MOL0     C20935   6.399   8.278   9.300 -0.4609 -0.5370  0.4290
  917MOL0     O20936   6.311   8.187   9.244 -0.4892  0.2980  1.4464
  917MOL0     C20937   6.179   8.233   9.234 -0.4224 -0.2977 -0.2281
  917MOL0     C20938   6.109   8.249   9.350  0.0596 -0.1594 -0.7498
  917MOL0     C20939   5.980   8.284   9.353  0.7491 -0.1857  0.9515
  917MOL0     C20940   5.898   8.298   9.231 -0.8081  0.5669 -0.4698
  917MOL0     C20941   5.758   8.317   9.252  0.1874  0.8626  0.1664
  917MOL0     O20942   5.709   8.384   9.354  0.2835 -0.5720  0.0222
  917MOL0     C20943   5.574   8.421   9.376 -0.7719  0.0966 -0.2785
  917MOL0     C20944   5.473   8.395   9.292 -0.5586 -0.3779 -0.4497
  917MOL0     C20945   5.344   8.441   9.315  0.9594  0.1790 -0.7366
  917MOL0     C20946   5.316   8.516   9.430  0.0290  0.2932 -1.1596
  917MOL0     O20947   5.187   8.567   9.439 -0.0988  0.0615  0.4163
  917MOL0     C20948   5.151   8.631   9.558  0.1913 -0.6319  0.4147
  917MOL0     C20949   5.129   8.542   9.681  0.3953  0.0311 -0.4905
  917MOL0     C20950   5.058   8.615   9.791 -0.8453  0.3171 -0.1079
  917MOL0     C20951   5.026   8.511   9.898  0.3799 -0.0652  0.4322
  917MOL0     C20952   4.956   8.585  10.018  0.7324  0.5911  0.3015
  917MOL0     C20953   4.876   8.486  10.107  0.8090  0.2061  0.6162
  917MOL0     C20954   4.793   8.575  10.199  0.0061  0.3065 -0.4286
  917MOL0     C20955   4.694   8.678  10.138 -0.7492 -0.5549 -0.2983
  917MOL0    Cl20956   4.596   8.605  10.004 -0.0595  0.4841  0.5087
  917MOL0     C20957   5.428   8.534   9.524  0.5682  0.5985  0.3160
  917MOL0     C20958   5.551   8.480   9.496 -0.6073  0.7974 -0.2903
  917MOL0     O20959   5.693   8.267   9.166 -0.0222  0.2477 -0.2219
  917MOL0     C20960   5.971   8.281   9.118 -0.1297  0.0016  0.2107
  917MOL0     C20961   6.106   8.250   9.112 -0.0189  0.3983  0.6188
  917MOL0     N20962   6.748   8.795   9.185 -0.5460 -0.1427 -0.3812
  917MOL0     N20963   6.847   8.837   9.255 -0.1892 -0.9186  0.2303
  917MOL0     C20964   7.928   8.898   9.019 -0.0463 -0.1956 -0.3741
  917MOL0     C20965   8.016   9.015   9.022  0.5744  0.1380  0.3914
  917MOL0     C20966   8.405   9.230   8.981  0.0772  0.2360  0.4262
  917MOL0     C20967   8.467   9.279   8.870 -0.3855 -0.5749 -0.2722
  917MOL0     C20968   8.588   9.349   8.874  0.2758 -0.3488 -0.6342
  917MOL0     C20969   8.657   9.364   8.998 -1.1747 -0.7819 -0.2469
  917MOL0     O20970   8.790   9.408   9.014 -0.6061 -0.3902 -0.1658
  917MOL0     C20971   8.855   9.456   8.894  0.0890  0.7426  0.1726
  917MOL0     C20972   8.970   9.542   8.931  0.6315 -0.6173 -0.0699
  917MOL0     C20973   9.078   9.479   9.022  0.5623  0.2766 -0.0718
  917MOL0     C20974   9.209   9.534   8.993  0.1086  0.3848 -0.4770
  917MOL0     C20975   9.270   9.468   8.878  0.8139  0.0591  0.1719
  917MOL0     C20976   9.314   9.406   8.778 -0.4529  0.5815 -0.1573
  917MOL0     C20977   8.591   9.320   9.115 -0.0001  0.5147  0.4660
  917MOL0     C20978   8.470   9.249   9.102 -0.7780 -0.8610  0.2904
  917MOL0     H20979   8.273   8.900   9.205  0.3747 -0.8189 -0.3021
  917MOL0     H20980   8.130   8.699   9.215  1.4456  1.4537 -1.1779
  917MOL0     H20981   7.748   8.545   9.019 -2.3774 -0.3143  1.0566
  917MOL0     H20982   7.780   8.693   8.926 -1.5218 -2.5958 -0.5136
  917MOL0     H20983   7.664   8.815   9.099  0.5005 -1.0345  1.2783
  917MOL0     H20984   7.660   8.681   9.203 -0.1612  1.1302  0.3060
  917MOL0     H20985   7.519   8.563   9.039 -1.3368 -0.7678 -0.7414
  917MOL0     H20986   7.506   8.711   8.943  1.2568  0.8846 -0.5406
  917MOL0     H20987   7.409   8.665   9.231  0.5994 -0.9152 -0.9961
  917MOL0     H20988   7.417   8.833   9.164  0.9993  0.8866 -2.3082
  917MOL0     H20989   7.254   8.607   9.059  1.4284 -0.3762  2.1074
  917MOL0     H20990   7.274   8.766   8.990 -2.7234  2.2822  1.0257
  917MOL0     H20991   7.064   8.769   9.114  0.1528 -0.7547 -0.5663
  917MOL0     H20992   7.182   8.863   9.214 -4.7626  0.6646  2.0171
  917MOL0     H20993   7.114   8.587   9.259 -4.2431  1.6352 -4.0022
  917MOL0     H20994   7.237   8.689   9.351 -0.9552  0.3647  1.4043
  917MOL0     H20995   7.044   8.841   9.407  0.4750  0.4520 -1.4625
  917MOL0     H20996   7.020   8.674   9.470 -1.5365  0.5247  0.5412
  917MOL0     H20997   6.858   8.515   9.315 -2.1980 -0.5905  0.5894
  917MOL0     H20998   6.652   8.506   9.063 -2.5456 -1.0375 -1.1037
  917MOL0     H20999   6.548   8.634   9.082  1.4693 -1.1168 -2.7436
  917MOL0     H21000   6.471   8.547   9.308 -0.5997 -0.9930  1.3944
  917MOL0     H21001   6.618   8.468   9.325 -1.0152  1.1442  0.6549
  917MOL0     H21002   6.406   8.387   9.109  0.6297  1.0512 -0.2284
  917MOL0     H21003   6.558   8.294   9.162 -0.3655 -1.4764 -0.9136
  917MOL0     H21004   6.351   8.342   9.374  0.0543 -0.9856  1.1667
  917MOL0     H21005   6.475   8.222   9.355 -0.8275 -1.7471 -0.2543
  917MOL0     H21006   6.170   8.235   9.439  0.5868  3.2367 -0.4265
  917MOL0     H21007   5.923   8.278   9.445  0.7260 -2.2343  0.8667
  917MOL0     H21008   5.483   8.336   9.202 -1.4054 -1.7374  0.3216
  917MOL0     H21009   5.264   8.420   9.245  2.2530 -2.1711 -1.6639
  917MOL0     H21010   5.052   8.673   9.540  0.3977 -0.9264 -1.6381
  917MOL0     H21011   5.212   8.715   9.593  0.0758 -0.4740  0.2309
  917MOL0     H21012   5.222   8.503   9.723 -0.2503 -1.1829 -0.1374
  917MOL0     H21013   5.067   8.461   9.641  1.7159 -0.7675 -0.9863
  917MOL0     H21014   4.968   8.660   9.748 -0.3063  0.6046 -0.9697
  917MOL0     H21015   5.123   8.696   9.825  0.2090 -1.9294  3.7771
  917MOL0     H21016   4.956   8.434   9.865  0.0092  0.9841 -1.3516
  917MOL0     H21017   5.123   8.466   9.924  0.5856  0.1023 -0.0253
  917MOL0     H21018   4.881   8.653   9.975  1.4686  0.8297 -0.6381
  917MOL0     H21019   5.034   8.627  10.082  2.6372 -0.3235 -1.2920
  917MOL0     H21020   4.947   8.418  10.154  3.0599  2.1440  0.2061
  917MOL0     H21021   4.818   8.429  10.035  2.8359 -0.1758 -0.7771
  917MOL0     H21022   4.730   8.508  10.258 -0.4725  1.2822  0.1974
  917MOL0     H21023   4.869   8.623  10.261  1.2630 -0.7383 -1.1117
  917MOL0     H21024   4.748   8.767  10.104  0.0257 -1.0675 -0.4385
  917MOL0     H21025   4.622   8.698  10.218 -2.8399  0.1356 -2.2518
  917MOL0     H21026   5.421   8.592   9.615 -2.5231  0.1893  0.4448
  917MOL0     H21027   5.630   8.493   9.569  1.4927 -2.4724 -1.7272
  917MOL0     H21028   5.919   8.282   9.023 -2.7714 -1.8847  1.5248
  917MOL0     H21029   6.157   8.231   9.018 -0.0762  1.2769  0.4018
  917MOL0     H21030   7.836   8.917   8.964 -1.9435 -1.7615  2.0484
  917MOL0     H21031   7.989   9.105   8.967  0.2234 -1.3664 -2.0543
  917MOL0     H21032   8.427   9.254   8.772 -3.0313 -1.6658  0.9845
  917MOL0     H21033   8.638   9.374   8.780 -0.3834 -1.9956 -1.4716
  917MOL0     H21034   8.786   9.525   8.845  0.3694  0.2959 -0.8654
  917MOL0     H21035   8.893   9.376   8.831 -0.3341  2.4234 -2.3588
  917MOL0     H21036   9.010   9.570   8.833 -1.5808  3.1113 -0.0631
  917MOL0     H21037   8.938   9.636   8.975 -0.3031 -2.1054  2.7222
  917MOL0     H21038   9.074   9.370   9.022  1.7397  0.2145  0.0267
  917MOL0     H21039   9.054   9.510   9.124 -0.7105 -1.3632  0.1660
  917MOL0     H21040   9.189   9.642   9.001 -1.6653  0.0252  0.4434
  917MOL0     H21041   9.273   9.514   9.080  0.3116 -0.2333 -0.7686
  917MOL0     H21042   9.358   9.351   8.698 -0.4848 -0.3902  0.4758
  917MOL0     H21043   8.642   9.318   9.211  2.3424  2.0522 -0.6514
  917MOL0     H21044   8.445   9.203   9.198  2.0389 -2.9993  0.1672
  918MOL0     O21045   1.881   0.627   9.753 -0.6821 -0.0690 -0.2826
  918MOL0     C21046   1.824   0.719   9.812  0.0617 -0.0050 -1.0757
  918MOL0     O21047   1.710   0.780   9.776  0.7333 -0.4087  0.1411
  918MOL0     C21048   1.645   0.735   9.664  0.4888 -1.0568 -0.0934
  918MOL0     C21049   1.689   0.771   9.533  0.2150  0.2061  0.4554
  918MOL0     C21050   1.610   0.752   9.421  0.2559 -0.6548 -0.1169
  918MOL0     C21051   1.488   0.693   9.438 -0.1149 -0.5754 -0.4320
  918MOL0     O21052   1.413   0.666   9.321 -0.4318 -0.4516 -0.5475
  918MOL0     C21053   1.479   0.590   9.216  0.0727 -0.0475 -0.3330
  918MOL0     C21054   1.366   0.553   9.125 -0.7134 -0.4841 -0.2558
  918MOL0     C21055   1.304   0.668   9.048 -0.6933 -0.8827 -0.6475
  918MOL0     C21056   1.202   0.605   8.955  0.7927  0.0737  0.6037
  918MOL0     C21057   1.109   0.715   8.892 -0.3927  0.4499  0.6345
  918MOL0     C21058   0.997   0.645   8.812  0.0638 -0.4128  0.2021
  918MOL0     C21059   0.935   0.737   8.711  0.0842  0.5820 -0.0115
  918MOL0     C21060   0.862   0.859   8.767 -1.2661 -0.3907  0.0372
  918MOL0     N21061   0.779   0.932   8.668  1.3548  0.0155  0.5058
  918MOL0     C21062   0.648   0.895   8.631  0.0700  0.5547  0.1980
  918MOL0     C21063   0.625   0.951   8.502 -0.0132 -0.9444 -0.7080
  918MOL0     C21064   0.501   0.942   8.425  0.0206  0.4718  0.6756
  918MOL0     C21065   0.386   1.039   8.476 -0.4792 -0.3417  0.3273
  918MOL0     C21066   0.257   1.013   8.404 -1.2258 -0.1563  0.4119
  918MOL0     C21067   0.151   1.119   8.452  0.2912  0.3682 -0.4803
  918MOL0     O21068   0.026   1.108   8.381  0.5281  0.3529 -0.1438
  918MOL0     C21069  -0.068   1.014   8.400  0.6185 -0.4924  0.0479
  918MOL0     C21070  -0.177   1.021   8.316  0.0176  0.9022 -1.1338
  918MOL0     C21071  -0.274   0.924   8.334  0.2788  0.5622 -0.5262
  918MOL0     C21072  -0.274   0.820   8.426 -0.0834 -0.3870 -0.5277
  918MOL0     C21073  -0.373   0.722   8.422  0.3964 -0.0754  1.2604
  918MOL0     O21074  -0.339   0.592   8.470 -0.2158 -0.0550  0.5831
  918MOL0     C21075  -0.433   0.491   8.464 -0.4801 -0.7931  0.3722
  918MOL0     C21076  -0.552   0.512   8.532  0.9321 -0.2146  0.4050
  918MOL0     C21077  -0.647   0.404   8.533  0.7950 -0.1313  0.0134
  918MOL0     C21078  -0.615   0.284   8.465  0.6268 -0.4777  1.2846
  918MOL0     O21079  -0.692   0.166   8.477  0.3833  0.0999  0.8340
  918MOL0     C21080  -0.832   0.182   8.520 -0.6921  0.6227  0.5332
  918MOL0     C21081  -0.921   0.072   8.464 -0.2143 -0.5256  0.0613
  918MOL0     C21082  -1.060   0.103   8.517  0.0804  0.9249  0.0641
  918MOL0     C21083  -1.153  -0.011   8.465  0.0903  0.3076 -0.0969
  918MOL0     C21084  -1.301   0.033   8.473  0.3071  0.5880  0.6592
  918MOL0     C21085  -1.401  -0.068   8.399 -0.5241 -1.1866 -0.5190
  918MOL0     C21086  -1.538  -0.001   8.400 -0.4909 -0.5976 -0.0514
  918MOL0     C21087  -1.641  -0.086   8.332  0.1857  1.0079  1.0252
  918MOL0    Cl21088  -1.664  -0.231   8.435  0.0565 -0.3805  0.0327
  918MOL0     C21089  -0.500   0.267   8.386 -0.4129  0.0367 -0.3464
  918MOL0     C21090  -0.413   0.376   8.385  0.0569 -0.0578 -0.1967
  918MOL0     O21091  -0.480   0.758   8.376  0.3777  0.4337 -0.0304
  918MOL0     C21092  -0.157   0.813   8.508  1.2783 -0.5423  0.1872
  918MOL0     C21093  -0.057   0.912   8.499 -0.1219  0.1591  0.6420
  918MOL0     N21094   0.743   1.028   8.472 -0.4608  0.4066 -0.2097
  918MOL0     N21095   0.834   1.008   8.567  0.3692 -0.9652  0.3848
  918MOL0     C21096   1.436   0.658   9.562 -0.3584  0.3933 -0.2255
  918MOL0     C21097   1.516   0.676   9.678  0.8448 -1.2690  0.4042
  918MOL0     C21098   1.884   0.773   9.934  0.6389  0.2222  0.3086
  918MOL0     C21099   1.992   0.712   9.996 -0.5014 -0.0147 -0.2023
  918MOL0     C21100   2.048   0.764  10.120  0.0050  0.1683  0.6655
  918MOL0     C21101   1.993   0.874  10.182  0.6394 -0.3318  0.0254
  918MOL0     O21102   2.044   0.907  10.309 -0.5428 -0.1938  0.2348
  918MOL0     C21103   2.023   1.035  10.363 -0.3060 -0.0582 -0.2282
  918MOL0     C21104   2.082   1.057  10.500  0.4241 -0.1826  0.0818
  918MOL0     C21105   2.051   1.199  10.552 -0.4270  0.5043 -0.1655
  918MOL0     C21106   2.088   1.313  10.462 -0.0983  0.1939 -0.3873
  918MOL0     C21107   2.088   1.440  10.541 -0.1449 -0.0530  0.1291
  918MOL0     C21108   2.091   1.533  10.617  0.0387  0.3417 -0.0172
  918MOL0     C21109   1.879   0.930  10.127 -0.3945 -0.5375 -0.3517
  918MOL0     C21110   1.832   0.889  10.003 -0.2948 -0.5939 -0.2158
  918MOL0     H21111   1.779   0.826   9.507  1.4797 -1.8408  0.3550
  918MOL0     H21112   1.649   0.784   9.326 -0.3077 -0.2409 -0.2149
  918MOL0     H21113   1.522   0.505   9.269 -0.2750 -0.1851 -0.2673
  918MOL0     H21114   1.551   0.649   9.159 -0.2614 -1.2784 -2.1305
  918MOL0     H21115   1.286   0.501   9.178 -1.8385 -0.1125 -1.5614
  918MOL0     H21116   1.407   0.482   9.052 -0.0615  0.7886 -1.1613
  918MOL0     H21117   1.391   0.716   9.003 -0.8407  1.1703  1.0773
  918MOL0     H21118   1.265   0.731   9.129 -0.2968 -1.9126  0.3670
  918MOL0     H21119   1.249   0.554   8.870  0.8692 -0.2886  0.8612
  918MOL0     H21120   1.142   0.529   9.004  1.7879  0.0302  1.8175
  918MOL0     H21121   1.159   0.770   8.812 -1.2647 -2.1267 -1.8615
  918MOL0     H21122   1.072   0.776   8.975  0.5143  2.9569 -0.7173
  918MOL0     H21123   0.917   0.605   8.876 -1.6331 -0.5671 -1.8828
  918MOL0     H21124   1.052   0.567   8.758  0.5129  1.2158 -1.7986
  918MOL0     H21125   1.017   0.767   8.645  0.1065 -2.6342 -1.6540
  918MOL0     H21126   0.874   0.676   8.644  1.5334 -0.4453 -0.4675
  918MOL0     H21127   0.926   0.931   8.818  0.3635 -2.4639  1.1114
  918MOL0     H21128   0.797   0.809   8.839 -0.7012 -0.4804  0.4870
  918MOL0     H21129   0.580   0.825   8.678 -0.1268  1.2301  0.9163
  918MOL0     H21130   0.477   0.836   8.420  2.6387 -0.1441 -1.8374
  918MOL0     H21131   0.523   0.970   8.321  0.1354  4.4265  1.5866
  918MOL0     H21132   0.413   1.145   8.466  0.1255 -0.5592 -0.4100
  918MOL0     H21133   0.371   1.034   8.584 -0.4669  2.4329  0.5390
  918MOL0     H21134   0.271   1.021   8.296 -1.2765  2.2226  0.5349
  918MOL0     H21135   0.235   0.907   8.423  1.4870 -0.4399  2.4323
  918MOL0     H21136   0.190   1.221   8.440  1.1923  0.4319  2.2798
  918MOL0     H21137   0.130   1.120   8.560 -0.7343 -0.3744 -0.6634
  918MOL0     H21138  -0.178   1.092   8.234 -0.0494 -0.5394 -2.4383
  918MOL0     H21139  -0.364   0.927   8.274  0.4517  0.4876 -0.7969
  918MOL0     H21140  -0.567   0.607   8.582  0.5377 -0.5401  0.9119
  918MOL0     H21141  -0.744   0.411   8.582  0.2967  2.5436 -1.1578
  918MOL0     H21142  -0.883   0.272   8.482  2.9568  2.2989 -0.9088
  918MOL0     H21143  -0.829   0.194   8.628  4.0946  1.4576  0.5105
  918MOL0     H21144  -0.894  -0.024   8.510 -3.1003 -0.6462  1.7451
  918MOL0     H21145  -0.918   0.071   8.354 -3.4566  0.8688 -0.1412
  918MOL0     H21146  -1.097   0.200   8.483 -2.1969  0.0691 -0.0592
  918MOL0     H21147  -1.068   0.106   8.626 -0.2833 -2.0796  0.2146
  918MOL0     H21148  -1.129  -0.033   8.361 -1.0048 -0.5943 -0.1753
  918MOL0     H21149  -1.138  -0.100   8.526  0.8858  1.6865  1.8097
  918MOL0     H21150  -1.305   0.126   8.416 -0.0346 -1.4984 -3.1052
  918MOL0     H21151  -1.339   0.050   8.574 -2.8574 -0.1831 -0.2796
  918MOL0     H21152  -1.413  -0.156   8.462 -0.0642 -0.1697  1.0291
  918MOL0     H21153  -1.371  -0.087   8.295 -4.5731 -1.3129 -1.8633
  918MOL0     H21154  -1.567   0.010   8.505  1.3101 -2.0836  0.6516
  918MOL0     H21155  -1.551   0.100   8.358  1.4331 -0.8938 -1.4965
  918MOL0     H21156  -1.614  -0.121   8.232 -0.1614  0.0597  1.2512
  918MOL0     H21157  -1.736  -0.032   8.330  0.2378  1.1172  1.4238
  918MOL0     H21158  -0.460   0.176   8.342 -2.0186 -0.2853 -1.2597
  918MOL0     H21159  -0.324   0.351   8.327 -1.0065  1.4984 -2.6640
  918MOL0     H21160  -0.152   0.734   8.581 -4.0503 -2.0250 -0.5918
  918MOL0     H21161   0.031   0.896   8.561  0.0137  1.1562  0.7321
  918MOL0     H21162   1.336   0.616   9.564 -1.5016  2.8627 -1.2816
  918MOL0     H21163   1.473   0.648   9.774 -1.3479 -0.6906 -0.3574
  918MOL0     H21164   2.034   0.625   9.948 -0.3256 -0.1930  0.2664
  918MOL0     H21165   2.128   0.703  10.162  1.9742  2.6092  0.6968
  918MOL0     H21166   1.916   1.054  10.368 -0.6180 -1.4035 -1.3888
  918MOL0     H21167   2.061   1.108  10.291 -0.8670  0.5228  0.0534
  918MOL0     H21168   2.032   0.986  10.567 -0.1923 -0.0135 -0.1972
  918MOL0     H21169   2.189   1.038  10.506  0.1830 -3.6898 -2.9779
  918MOL0     H21170   2.098   1.202  10.651  0.7945 -2.9758 -0.5085
  918MOL0     H21171   1.944   1.206  10.575 -0.3265 -0.1432  0.5307
  918MOL0     H21172   2.184   1.301  10.411 -0.6092 -1.9404 -0.9405
  918MOL0     H21173   2.011   1.320  10.385 -1.5755  3.4217  1.1927
  918MOL0     H21174   2.078   1.619  10.680  1.4055 -0.1459  0.9758
  918MOL0     H21175   1.841   1.019  10.177  2.2050  1.8504 -2.3039
  918MOL0     H21176   1.746   0.944   9.966 -0.6026  0.5930  2.0445
  919MOL0     O21177   9.297   8.454   8.478 -0.4100 -0.2894  0.3938
  919MOL0     C21178   9.309   8.568   8.432  0.2580 -0.2100 -0.0916
  919MOL0     O21179   9.212   8.633   8.356 -0.5042 -0.6153 -0.5571
  919MOL0     C21180   9.077   8.603   8.365 -0.6846 -0.9373  0.1531
  919MOL0     C21181   9.002   8.650   8.260  0.6941 -0.0729 -0.6287
  919MOL0     C21182   8.861   8.617   8.262  0.7060 -0.3823 -0.0116
  919MOL0     C21183   8.800   8.546   8.362 -0.0131 -0.3535  0.4931
  919MOL0     O21184   8.666   8.515   8.346  0.3482 -0.6050  0.3254
  919MOL0     C21185   8.604   8.415   8.433  0.3811 -0.6245 -0.6654
  919MOL0     C21186   8.458   8.394   8.388 -0.4450 -0.4899 -0.1695
  919MOL0     C21187   8.447   8.309   8.260  0.1890 -0.1466 -0.0279
  919MOL0     C21188   8.300   8.259   8.221 -0.3800  0.2835  0.4715
  919MOL0     C21189   8.226   8.187   8.331  0.1079  0.2494 -0.7208
  919MOL0     C21190   8.099   8.104   8.294 -0.4838 -0.4207 -0.2015
  919MOL0     C21191   7.981   8.204   8.256 -0.3253 -0.1402 -0.2593
  919MOL0     C21192   7.893   8.213   8.384  0.7746 -0.1881  0.1655
  919MOL0     N21193   7.785   8.319   8.365  0.1718  0.8609  0.8396
  919MOL0     C21194   7.650   8.292   8.362  0.7880  0.2647  0.4158
  919MOL0     C21195   7.586   8.404   8.399  0.1013 -0.0998 -0.0757
  919MOL0     C21196   7.438   8.419   8.437 -0.0554 -0.1888 -0.7761
  919MOL0     C21197   7.346   8.344   8.342  0.3460 -0.9069  0.2651
  919MOL0     C21198   7.221   8.272   8.405  0.0968  0.1271  0.3852
  919MOL0     C21199   7.109   8.369   8.433  0.0749 -0.4577  0.6147
  919MOL0     O21200   7.055   8.407   8.309 -0.0506  0.8101  0.5248
  919MOL0     C21201   6.944   8.484   8.308  0.3178  0.1076 -1.4731
  919MOL0     C21202   6.909   8.585   8.400 -0.1175 -0.8994 -0.6247
  919MOL0     C21203   6.787   8.653   8.384  0.7540 -0.6698 -0.0363
  919MOL0     C21204   6.683   8.616   8.295  0.0063  0.3254  0.2468
  919MOL0     C21205   6.542   8.670   8.297  0.1437  0.1386 -0.5252
  919MOL0     O21206   6.453   8.599   8.220  0.5775  0.3083 -0.2523
  919MOL0     C21207   6.324   8.647   8.201 -0.5402  0.1998  0.3420
  919MOL0     C21208   6.266   8.634   8.076  0.3918 -0.1645  0.6129
  919MOL0     C21209   6.136   8.680   8.057  0.3907  0.1197  0.3067
  919MOL0     C21210   6.058   8.748   8.161 -0.9846 -0.4265  0.0682
  919MOL0     O21211   5.936   8.804   8.140 -0.1560  0.9639  0.4279
  919MOL0     C21212   5.846   8.778   8.026 -0.1052  0.1674  0.0170
  919MOL0     C21213   5.730   8.869   8.036  0.4932 -0.3505  1.3921
  919MOL0     C21214   5.643   8.851   7.909 -0.9578 -0.0486  0.1185
  919MOL0     C21215   5.517   8.938   7.904  0.4124  0.2604 -0.0022
  919MOL0     C21216   5.459   8.917   7.764  0.1077  0.4742 -0.8775
  919MOL0     C21217   5.337   9.010   7.737  0.5283 -0.2372 -0.1977
  919MOL0     C21218   5.201   8.964   7.802 -0.0455  0.6367 -0.3549
  919MOL0     C21219   5.105   9.083   7.807  0.3273 -0.1119  0.5654
  919MOL0    Cl21220   5.101   9.165   7.648 -0.2212  0.0404 -0.5745
  919MOL0     C21221   6.114   8.750   8.287  0.6355 -0.2064 -0.3048
  919MOL0     C21222   6.245   8.702   8.304 -0.6108  1.2275 -0.2383
  919MOL0     O21223   6.522   8.765   8.374 -0.2839  0.3674 -0.3446
  919MOL0     C21224   6.720   8.513   8.197  0.4276  0.6202 -0.6702
  919MOL0     C21225   6.845   8.451   8.210  1.2040  0.1169  0.2550
  919MOL0     N21226   7.685   8.505   8.418 -0.0231 -0.4396  0.1977
  919MOL0     N21227   7.798   8.452   8.387  0.6660  0.2546  0.4890
  919MOL0     C21228   8.881   8.516   8.473  0.7013  0.2490  0.1119
  919MOL0     C21229   9.018   8.543   8.476 -0.0613 -0.6022 -0.3967
  919MOL0     C21230   9.438   8.637   8.428 -0.2949 -0.2814 -0.1287
  919MOL0     C21231   9.535   8.619   8.531 -0.1933 -0.2122 -0.8327
  919MOL0     C21232   9.647   8.705   8.541  0.3291  0.0726  1.1908
  919MOL0     C21233   9.675   8.789   8.436 -0.0627 -0.6449 -0.0121
  919MOL0     O21234   9.793   8.867   8.419 -0.0000  0.5692 -0.0714
  919MOL0     C21235   9.908   8.833   8.501 -0.1989  0.7904  0.7729
  919MOL0     C21236   9.972   8.703   8.450  1.0403  0.4516 -0.3038
  919MOL0     C21237  10.112   8.678   8.516  0.5423 -0.3303 -0.3323
  919MOL0     C21238  10.221   8.726   8.429  0.0977  0.1579  0.1903
  919MOL0     C21239  10.350   8.736   8.508  0.2911 -0.6485  0.7233
  919MOL0     C21240  10.453   8.745   8.570  0.4959  0.6479 -0.0151
  919MOL0     C21241   9.580   8.809   8.332  0.1207  0.0368 -0.1699
  919MOL0     C21242   9.458   8.733   8.333  0.7078  0.2171 -0.2019
  919MOL0     H21243   9.045   8.706   8.177  0.8776 -0.7016 -0.9723
  919MOL0     H21244   8.800   8.656   8.181 -1.3793 -0.4836  1.4236
  919MOL0     H21245   8.607   8.455   8.535  1.9603  1.1119 -1.3364
  919MOL0     H21246   8.662   8.322   8.439  0.5649 -0.4107  2.1930
  919MOL0     H21247   8.405   8.487   8.368 -0.8330 -0.5484  0.5762
  919MOL0     H21248   8.411   8.339   8.470  1.1398  0.1272  1.2084
  919MOL0     H21249   8.520   8.229   8.278  2.1559  1.2428 -1.4954
  919MOL0     H21250   8.487   8.368   8.178  0.4380  1.3326  1.1267
  919MOL0     H21251   8.250   8.352   8.195  0.0154  0.4290  0.2214
  919MOL0     H21252   8.310   8.189   8.137  0.2106  1.9991 -0.9430
  919MOL0     H21253   8.204   8.260   8.410  1.6535 -1.1873  1.1296
  919MOL0     H21254   8.296   8.114   8.371  1.9940  1.1228 -2.2940
  919MOL0     H21255   8.070   8.034   8.373  0.4398 -0.2868  0.2761
  919MOL0     H21256   8.117   8.035   8.211 -2.0936 -3.1505  1.5719
  919MOL0     H21257   8.006   8.305   8.224 -5.2060  1.8762  1.4019
  919MOL0     H21258   7.925   8.166   8.170  0.8986 -0.5466 -0.9000
  919MOL0     H21259   7.949   8.253   8.469  1.0962  2.5500 -1.2073
  919MOL0     H21260   7.847   8.115   8.402  0.6416 -0.1351  0.1175
  919MOL0     H21261   7.612   8.191   8.350  4.2910 -1.2117  0.4368
  919MOL0     H21262   7.418   8.520   8.399 -1.0469 -1.5661 -4.2987
  919MOL0     H21263   7.425   8.394   8.543 -1.3388  1.5561 -0.4796
  919MOL0     H21264   7.409   8.269   8.292  3.1461  2.3418 -1.4785
  919MOL0     H21265   7.316   8.418   8.268  2.0733 -0.5289 -0.0976
  919MOL0     H21266   7.192   8.198   8.330  1.3003  0.4089 -0.3890
  919MOL0     H21267   7.250   8.226   8.500 -1.1998 -3.3133 -0.7283
  919MOL0     H21268   7.137   8.453   8.498  0.6515 -0.3859  0.2748
  919MOL0     H21269   7.034   8.317   8.494 -0.1034 -0.6800  0.2095
  919MOL0     H21270   6.987   8.627   8.463  0.2725 -0.8871 -1.1094
  919MOL0     H21271   6.781   8.735   8.455  2.0884  1.3574 -2.1050
  919MOL0     H21272   6.321   8.575   8.004  1.2433  0.4372  0.7517
  919MOL0     H21273   6.096   8.676   7.956 -1.7021  1.6811  0.9963
  919MOL0     H21274   5.818   8.672   8.027 -1.3098  0.4363 -1.7021
  919MOL0     H21275   5.900   8.799   7.933  2.5868 -0.3780  1.3556
  919MOL0     H21276   5.757   8.975   8.036  0.7072 -0.3965  0.2812
  919MOL0     H21277   5.679   8.843   8.129 -1.2578  2.0891  1.2054
  919MOL0     H21278   5.624   8.747   7.882  1.6406 -0.2010 -1.4879
  919MOL0     H21279   5.702   8.878   7.821  0.3941 -3.0595 -0.0082
  919MOL0     H21280   5.454   8.907   7.988  2.9031  0.0338  1.8943
  919MOL0     H21281   5.535   9.045   7.913 -1.1960  0.4988  0.5534
  919MOL0     H21282   5.427   8.814   7.750 -1.7709  1.0561 -1.1465
  919MOL0     H21283   5.530   8.947   7.686 -0.9547 -0.2843 -2.1706
  919MOL0     H21284   5.304   9.002   7.633 -0.8061  2.7098 -0.0842
  919MOL0     H21285   5.362   9.114   7.757 -1.5064  0.4396 -0.8802
  919MOL0     H21286   5.148   8.887   7.745 -0.9632  0.3117  0.8957
  919MOL0     H21287   5.220   8.934   7.905  1.7918 -1.0821 -1.1318
  919MOL0     H21288   5.129   9.161   7.880  0.4967 -1.4730  2.0201
  919MOL0     H21289   5.005   9.045   7.831  0.0821  0.9097  1.2247
  919MOL0     H21290   6.065   8.799   8.371  0.5793 -1.1172  0.1994
  919MOL0     H21291   6.274   8.694   8.408 -1.3403 -0.8255 -0.1418
  919MOL0     H21292   6.649   8.485   8.120  0.1805 -0.8899  0.0622
  919MOL0     H21293   6.858   8.369   8.140  0.5580  0.7313 -0.6170
  919MOL0     H21294   8.846   8.460   8.558  1.0180  0.7572  0.5830
  919MOL0     H21295   9.076   8.523   8.565 -0.5042 -1.1374 -0.2258
  919MOL0     H21296   9.515   8.538   8.601 -0.7695  1.1194  0.5939
  919MOL0     H21297   9.718   8.679   8.619 -0.7865  0.5015  2.3794
  919MOL0     H21298   9.886   8.807   8.605 -1.3282 -3.4424 -0.3251
  919MOL0     H21299   9.987   8.908   8.490 -0.1749  0.4881 -1.5184
  919MOL0     H21300   9.910   8.616   8.470  0.4137  0.1138 -3.2420
  919MOL0     H21301   9.987   8.704   8.341 -2.2612 -0.8959 -0.8865
  919MOL0     H21302  10.125   8.570   8.528 -0.1545 -0.6014 -1.8311
  919MOL0     H21303  10.124   8.727   8.614  1.7464  0.0955 -0.6730
  919MOL0     H21304  10.229   8.664   8.339 -2.4108  2.3992 -1.7516
  919MOL0     H21305  10.193   8.829   8.404 -3.0909 -0.9625 -1.5554
  919MOL0     H21306  10.549   8.763   8.614  0.7207  1.9873 -1.0129
  919MOL0     H21307   9.597   8.888   8.259  3.4594 -0.1433  0.2411
  919MOL0     H21308   9.383   8.749   8.257  0.6675 -0.5362 -0.3267
  920MOL0     O21309   8.049   5.551   5.385  0.0772 -0.0964  0.3992
  920MOL0     C21310   8.068   5.584   5.263  0.0163 -0.4441 -0.2496
  920MOL0     O21311   7.973   5.627   5.177 -0.2705 -0.0105 -0.3584
  920MOL0     C21312   7.848   5.620   5.222  0.9238 -0.4106  0.4072
  920MOL0     C21313   7.790   5.505   5.274 -0.9525 -0.7041 -0.3195
  920MOL0     C21314   7.657   5.508   5.310 -0.8194 -0.2778 -0.1064
  920MOL0     C21315   7.583   5.622   5.315  0.0712  0.4958 -0.2502
  920MOL0     O21316   7.458   5.626   5.372 -0.1940 -0.1069  0.0407
  920MOL0     C21317   7.385   5.503   5.419  0.2248 -0.7576 -0.1562
  920MOL0     C21318   7.284   5.537   5.521  0.1107 -0.7834  0.4581
  920MOL0     C21319   7.185   5.425   5.535  0.5112 -0.1766  0.0992
  920MOL0     C21320   7.097   5.458   5.665 -0.0760 -0.9909  0.2088
  920MOL0     C21321   6.992   5.355   5.682 -0.2389  0.3485 -0.5151
  920MOL0     C21322   7.052   5.223   5.732  0.6467 -0.0380  0.0272
  920MOL0     C21323   6.949   5.113   5.739  0.9293  0.5975 -0.8986
  920MOL0     C21324   6.937   5.021   5.621  0.7370 -0.2439  0.5412
  920MOL0     N21325   6.810   4.944   5.626 -0.4028  0.1083  0.9570
  920MOL0     C21326   6.801   4.837   5.704  0.5918 -0.4953  0.1649
  920MOL0     C21327   6.685   4.785   5.662  0.6126  0.0617 -1.2416
  920MOL0     C21328   6.617   4.665   5.727  0.0778  0.6558  0.3514
  920MOL0     C21329   6.464   4.656   5.683 -0.4903  0.1579 -0.1049
  920MOL0     C21330   6.379   4.761   5.751 -0.3364 -0.4472  0.1524
  920MOL0     C21331   6.225   4.736   5.748  0.2869  0.3713 -0.6145
  920MOL0     O21332   6.190   4.706   5.613  0.1291  0.5209 -0.3329
  920MOL0     C21333   6.059   4.666   5.609 -0.5179 -0.2560  0.4472
  920MOL0     C21334   5.953   4.762   5.595 -0.7433 -0.5752  1.6599
  920MOL0     C21335   5.818   4.717   5.587 -0.3309  0.9047 -0.5936
  920MOL0     C21336   5.786   4.586   5.588 -0.0327  0.2692  0.0130
  920MOL0     C21337   5.643   4.546   5.579  0.1503 -0.1569 -0.1381
  920MOL0     O21338   5.548   4.640   5.532 -0.2303  0.2348  0.0885
  920MOL0     C21339   5.421   4.612   5.505  1.1115 -0.4545  0.5757
  920MOL0     C21340   5.364   4.478   5.473 -0.6418  0.5382  0.3712
  920MOL0     C21341   5.234   4.459   5.439 -0.0241 -0.3192  1.0127
  920MOL0     C21342   5.152   4.566   5.446  0.7698 -0.5702 -0.0311
  920MOL0     O21343   5.023   4.541   5.392  0.0175  0.2023  1.0953
  920MOL0     C21344   4.913   4.639   5.414 -1.2220  0.4606 -1.0876
  920MOL0     C21345   4.787   4.574   5.363  0.5235  0.0343 -0.5174
  920MOL0     C21346   4.734   4.456   5.445 -0.1791  0.1872 -0.2882
  920MOL0     C21347   4.595   4.406   5.413 -0.5619 -0.2524  0.6125
  920MOL0     C21348   4.574   4.372   5.272  0.3266  0.2742  0.3873
  920MOL0     C21349   4.425   4.346   5.237  0.2748 -0.3530  0.1069
  920MOL0     C21350   4.381   4.207   5.302  0.6067 -0.5451 -0.2840
  920MOL0     C21351   4.247   4.150   5.238 -0.2392  0.0745 -0.4195
  920MOL0    Cl21352   4.119   4.284   5.224  0.3724  0.1119 -0.0587
  920MOL0     C21353   5.189   4.691   5.485 -0.4504 -0.3362 -0.3771
  920MOL0     C21354   5.327   4.712   5.520  0.3267  0.1344  0.0729
  920MOL0     O21355   5.618   4.439   5.629 -0.8530  0.4636 -0.8330
  920MOL0     C21356   5.895   4.487   5.585  0.5893  0.1232 -0.0074
  920MOL0     C21357   6.026   4.534   5.612 -0.2407  0.2537  1.2814
  920MOL0     N21358   6.636   4.855   5.552  0.4366  0.5748  0.7498
  920MOL0     N21359   6.713   4.948   5.527  0.0427  0.4602 -0.2930
  920MOL0     C21360   7.637   5.741   5.279 -0.1936  0.3532  0.3088
  920MOL0     C21361   7.761   5.736   5.216 -0.4993  0.1371  0.1197
  920MOL0     C21362   8.201   5.579   5.201 -0.0750 -0.1057  0.4796
  920MOL0     C21363   8.223   5.584   5.060  0.1414 -0.3255 -0.3310
  920MOL0     C21364   8.349   5.574   5.003 -0.9387  0.1756 -0.0218
  920MOL0     C21365   8.463   5.561   5.089  0.1320 -0.5221  0.2775
  920MOL0     O21366   8.590   5.559   5.035  0.1707  0.6023 -0.1452
  920MOL0     C21367   8.652   5.691   5.038  0.1594 -0.1388 -0.4290
  920MOL0     C21368   8.749   5.701   4.923  0.0743 -0.0299  1.0632
  920MOL0     C21369   8.782   5.840   4.864  0.6366 -0.9885  0.2327
  920MOL0     C21370   8.930   5.861   4.831 -1.5514  0.5020 -0.1919
  920MOL0     C21371   9.006   5.877   4.958  0.7376  0.0293  0.9249
  920MOL0     C21372   9.065   5.902   5.066  0.2862 -0.1119  0.3094
  920MOL0     C21373   8.446   5.550   5.230 -0.1869 -0.3061 -0.9119
  920MOL0     C21374   8.314   5.560   5.287  0.3880 -0.2018 -0.0243
  920MOL0     H21375   7.849   5.414   5.282  0.1930 -0.0748 -1.2127
  920MOL0     H21376   7.628   5.410   5.346  0.2456 -1.0879 -1.3604
  920MOL0     H21377   7.455   5.431   5.462 -0.1062 -1.3897 -0.6643
  920MOL0     H21378   7.337   5.475   5.325 -1.1152  0.0850  0.2484
  920MOL0     H21379   7.233   5.626   5.484 -0.7743 -0.8556  1.4609
  920MOL0     H21380   7.329   5.560   5.618  1.1005  0.2547 -0.2287
  920MOL0     H21381   7.232   5.328   5.555  1.4161  0.9168  4.1832
  920MOL0     H21382   7.126   5.422   5.443  1.8914  1.2368 -0.8894
  920MOL0     H21383   7.160   5.472   5.753 -0.9375 -1.0062  0.8394
  920MOL0     H21384   7.039   5.548   5.641 -0.8507 -1.8653 -1.3536
  920MOL0     H21385   6.924   5.341   5.598 -1.3379 -1.3146  0.5727
  920MOL0     H21386   6.936   5.392   5.768  1.4621 -1.0118  1.2801
  920MOL0     H21387   7.096   5.234   5.832 -1.3085  0.3808  0.8875
  920MOL0     H21388   7.134   5.182   5.672  0.6714 -0.3727  0.2839
  920MOL0     H21389   6.972   5.044   5.820  0.1097  0.3632 -0.8599
  920MOL0     H21390   6.854   5.161   5.763 -0.5856 -2.1414 -1.1243
  920MOL0     H21391   7.026   4.960   5.609 -0.0616 -1.0305 -2.1928
  920MOL0     H21392   6.931   5.079   5.528 -1.6455 -2.3435 -0.7274
  920MOL0     H21393   6.869   4.800   5.780  0.8517  2.1000  1.3064
  920MOL0     H21394   6.627   4.657   5.835  0.7893  2.9375  0.5207
  920MOL0     H21395   6.671   4.581   5.681 -1.9484 -0.7408  0.4273
  920MOL0     H21396   6.420   4.564   5.722 -0.7295  0.2993 -0.0399
  920MOL0     H21397   6.462   4.653   5.574  1.4658 -1.4224 -0.1385
  920MOL0     H21398   6.412   4.787   5.852  0.5459  3.5456 -1.0137
  920MOL0     H21399   6.394   4.855   5.698 -0.3896  0.7533  2.1422
  920MOL0     H21400   6.170   4.821   5.788 -1.0904 -0.0106 -1.6252
  920MOL0     H21401   6.184   4.654   5.808 -0.1911 -0.2318 -1.7254
  920MOL0     H21402   5.994   4.862   5.603 -0.8107 -0.5041  1.1316
  920MOL0     H21403   5.736   4.788   5.593 -1.8610 -0.6803 -1.8772
  920MOL0     H21404   5.435   4.398   5.454 -1.7299 -1.1819  2.8983
  920MOL0     H21405   5.198   4.366   5.396  0.3738 -0.0607  0.0921
  920MOL0     H21406   4.927   4.736   5.364  1.8288 -0.2284 -1.8062
  920MOL0     H21407   4.909   4.662   5.521 -0.9492 -0.7685 -0.8052
  920MOL0     H21408   4.810   4.530   5.266  1.2811 -2.8151  0.8492
  920MOL0     H21409   4.716   4.657   5.360  1.3546  0.9686  2.2877
  920MOL0     H21410   4.746   4.487   5.550 -1.3045 -0.9318  0.2000
  920MOL0     H21411   4.797   4.368   5.434  0.4119  0.6747 -0.8440
  920MOL0     H21412   4.586   4.317   5.476 -0.5453  0.8464  2.2430
  920MOL0     H21413   4.522   4.482   5.442 -0.2660 -1.2671  4.5476
  920MOL0     H21414   4.636   4.284   5.253  0.7552  0.4696  0.8498
  920MOL0     H21415   4.615   4.444   5.200 -0.9124  1.6047  0.9462
  920MOL0     H21416   4.415   4.348   5.128 -1.7788  2.9877  0.2258
  920MOL0     H21417   4.369   4.426   5.286 -0.6886  0.6885 -2.5083
  920MOL0     H21418   4.459   4.131   5.289  1.6390  0.2268  1.0943
  920MOL0     H21419   4.376   4.227   5.409  1.3114 -0.4069 -0.2721
  920MOL0     H21420   4.208   4.072   5.304 -0.6863  0.0993 -0.6533
  920MOL0     H21421   4.289   4.119   5.142  4.0994  1.6545  0.7269
  920MOL0     H21422   5.133   4.783   5.473  0.0404  0.0048 -0.1243
  920MOL0     H21423   5.376   4.807   5.538  2.8041 -0.9969 -0.2396
  920MOL0     H21424   5.875   4.381   5.573 -0.7003  0.0045  2.4384
  920MOL0     H21425   6.113   4.469   5.617  0.7080  1.4287  0.8070
  920MOL0     H21426   7.580   5.834   5.277 -1.9280 -0.6625 -0.9022
  920MOL0     H21427   7.806   5.829   5.181  0.2467 -0.1295  0.3334
  920MOL0     H21428   8.141   5.607   4.994 -0.9669 -0.2129  1.0331
  920MOL0     H21429   8.368   5.583   4.896 -3.8108 -2.7117 -0.9729
  920MOL0     H21430   8.703   5.708   5.133 -0.3303  0.7660 -0.3168
  920MOL0     H21431   8.578   5.768   5.014  0.8828  0.9252  0.6344
  920MOL0     H21432   8.843   5.653   4.953  1.2860  1.3531 -0.3247
  920MOL0     H21433   8.705   5.654   4.835  2.7481  2.0174 -1.5616
  920MOL0     H21434   8.751   5.911   4.941  0.5613 -1.8176  0.9882
  920MOL0     H21435   8.716   5.856   4.779  1.9855  2.8857 -0.2789
  920MOL0     H21436   8.967   5.777   4.771  0.0548  1.0890 -0.0640
  920MOL0     H21437   8.949   5.953   4.775 -2.8894  1.4617  0.8523
  920MOL0     H21438   9.115   5.915   5.160  0.4863  2.0656 -0.0449
  920MOL0     H21439   8.529   5.557   5.299 -0.8644  1.7583 -0.2527
  920MOL0     H21440   8.304   5.562   5.395 -0.7481  4.3490 -0.0063
  921MOL0     O21441  11.144   5.548   2.615  0.3404  0.2513 -0.0895
  921MOL0     C21442  11.154   5.631   2.707  0.0493 -0.3802 -0.0820
  921MOL0     O21443  11.269   5.683   2.756 -0.3027 -0.4909  0.3163
  921MOL0     C21444  11.384   5.600   2.754 -0.3361 -0.1812 -0.1939
  921MOL0     C21445  11.504   5.669   2.800  0.3186 -1.1395 -0.4347
  921MOL0     C21446  11.630   5.599   2.812  0.5045 -0.9207 -0.0375
  921MOL0     C21447  11.634   5.470   2.760  1.0742  0.3186  0.6578
  921MOL0     O21448  11.747   5.402   2.734 -0.3048 -0.1893 -0.4150
  921MOL0     C21449  11.881   5.448   2.767 -0.2281  0.0032 -0.6763
  921MOL0     C21450  11.983   5.352   2.711 -0.3432  0.5046  0.2534
  921MOL0     C21451  12.113   5.418   2.683  0.0907 -0.0062  0.4103
  921MOL0     C21452  12.175   5.467   2.815 -0.0269 -0.6120 -0.2503
  921MOL0     C21453  12.321   5.517   2.793  0.6865 -0.1896  1.0366
  921MOL0     C21454  12.327   5.662   2.736 -0.5138 -0.5034  0.4912
  921MOL0     C21455  12.262   5.763   2.819  0.0275 -0.5999 -0.1550
  921MOL0     C21456  12.295   5.908   2.773 -0.3056  0.6987 -0.0740
  921MOL0     N21457  12.220   6.013   2.844 -1.0251 -0.2415  0.5107
  921MOL0     C21458  12.124   6.090   2.793 -0.2439 -0.3040  0.4721
  921MOL0     C21459  12.088   6.176   2.886 -0.0904 -0.1142  0.0418
  921MOL0     C21460  11.984   6.288   2.892  0.4179 -0.6196  0.2655
  921MOL0     C21461  11.837   6.241   2.892  0.3604 -0.2538  0.4487
  921MOL0     C21462  11.737   6.337   2.817 -0.3062 -0.5086 -0.2185
  921MOL0     C21463  11.594   6.286   2.823 -0.2489 -0.1795  0.5758
  921MOL0     O21464  11.510   6.372   2.747 -0.6991 -0.4329 -0.4542
  921MOL0     C21465  11.375   6.351   2.761  0.2836  0.4646  0.2527
  921MOL0     C21466  11.310   6.223   2.773 -0.1001 -0.9225  0.6205
  921MOL0     C21467  11.172   6.208   2.788 -0.0781 -0.3099  0.0481
  921MOL0     C21468  11.091   6.330   2.785  1.1717  0.0755  0.3475
  921MOL0     C21469  10.947   6.332   2.793 -0.1100  0.0684  0.6876
  921MOL0     O21470  10.881   6.440   2.849  0.5508  0.2970  0.0213
  921MOL0     C21471  10.744   6.445   2.838  0.2021 -0.2727 -0.3111
  921MOL0     C21472  10.677   6.437   2.718 -0.7477  0.0022  0.5809
  921MOL0     C21473  10.536   6.448   2.715  0.1153  0.0555 -0.3798
  921MOL0     C21474  10.459   6.482   2.827 -0.1520  0.3663  0.8967
  921MOL0     O21475  10.325   6.491   2.797 -0.9250  1.4380  0.2063
  921MOL0     C21476  10.235   6.551   2.887  0.3159 -0.5049  0.1979
  921MOL0     C21477  10.104   6.558   2.821 -1.1291 -0.2719  0.5113
  921MOL0     C21478   9.998   6.629   2.910  0.2775  0.0954  0.0106
  921MOL0     C21479   9.865   6.653   2.838  0.0569  0.5966 -0.0355
  921MOL0     C21480   9.769   6.715   2.938  0.3083  0.4585  0.3825
  921MOL0     C21481   9.623   6.712   2.872  0.1834 -0.2026 -0.0638
  921MOL0     C21482   9.529   6.799   2.958  0.1132 -0.4857  0.1359
  921MOL0     C21483   9.389   6.828   2.898 -0.3988  0.7326  0.2538
  921MOL0    Cl21484   9.270   6.706   2.953 -0.2237  0.1863 -0.0618
  921MOL0     C21485  10.533   6.498   2.947  0.2384 -0.2447  0.1213
  921MOL0     C21486  10.667   6.480   2.953  0.0733  0.4429  0.4692
  921MOL0     O21487  10.897   6.227   2.757 -0.7289 -0.0229 -0.0438
  921MOL0     C21488  11.151   6.453   2.770 -0.2260 -0.1182  0.2180
  921MOL0     C21489  11.293   6.462   2.761 -0.0807  0.1057  0.3717
  921MOL0     N21490  12.165   6.151   2.996 -0.6937 -0.1259 -0.1529
  921MOL0     N21491  12.242   6.055   2.967 -0.5846 -0.6757  0.0432
  921MOL0     C21492  11.522   5.405   2.722  0.3327 -0.7568  0.1254
  921MOL0     C21493  11.398   5.468   2.715 -0.1420 -0.3249  0.2417
  921MOL0     C21494  11.036   5.707   2.737 -0.3214 -0.2782  0.7928
  921MOL0     C21495  11.029   5.806   2.831 -0.9761 -0.8240 -0.6902
  921MOL0     C21496  10.910   5.873   2.866 -0.0286  0.4695 -0.7869
  921MOL0     C21497  10.791   5.835   2.801  0.0486 -0.6165  0.1026
  921MOL0     O21498  10.663   5.888   2.831 -0.4763  0.2779  1.0096
  921MOL0     C21499  10.658   5.989   2.928 -0.5708  0.1875 -0.0786
  921MOL0     C21500  10.517   6.013   2.966 -0.7401 -0.1725 -0.3340
  921MOL0     C21501  10.454   6.104   2.863  1.3063  0.1485 -0.9241
  921MOL0     C21502  10.309   6.148   2.889 -0.9552  0.3853  0.5792
  921MOL0     C21503  10.278   6.181   3.031 -0.4817 -0.0861  0.1279
  921MOL0     C21504  10.271   6.230   3.146 -0.4854  0.1257  0.2548
  921MOL0     C21505  10.801   5.736   2.703 -0.3012  0.2918 -0.6951
  921MOL0     C21506  10.915   5.675   2.668  0.6322 -0.4480  0.2618
  921MOL0     H21507  11.489   5.772   2.832 -1.3403 -1.0755 -1.2801
  921MOL0     H21508  11.714   5.651   2.858  0.5737  1.0405 -2.2308
  921MOL0     H21509  11.896   5.447   2.875 -0.5164  1.6509 -0.5963
  921MOL0     H21510  11.889   5.547   2.723 -1.5000  0.4904  0.1463
  921MOL0     H21511  11.957   5.304   2.616 -2.1174  0.0136  0.9476
  921MOL0     H21512  11.999   5.264   2.773 -1.1674 -2.2474 -3.1338
  921MOL0     H21513  12.108   5.492   2.603  1.1923 -2.9400 -2.6129
  921MOL0     H21514  12.180   5.340   2.645  4.8772  2.2891  3.1548
  921MOL0     H21515  12.116   5.538   2.873 -1.6726 -1.7937 -0.4183
  921MOL0     H21516  12.178   5.386   2.889 -0.6381  0.3265  0.8332
  921MOL0     H21517  12.362   5.442   2.726  0.6057  0.8249 -0.1838
  921MOL0     H21518  12.381   5.502   2.883  1.7605  1.8762  0.7346
  921MOL0     H21519  12.301   5.665   2.629  0.0664  4.2721  0.2827
  921MOL0     H21520  12.435   5.680   2.731 -0.2055 -2.3432 -0.7825
  921MOL0     H21521  12.153   5.754   2.816  0.0513 -0.7713 -0.4916
  921MOL0     H21522  12.298   5.751   2.922 -2.1060 -2.1391  0.4718
  921MOL0     H21523  12.283   5.911   2.664 -0.9204  3.2630 -0.0107
  921MOL0     H21524  12.403   5.922   2.786 -0.0459 -1.7023  0.8824
  921MOL0     H21525  12.076   6.073   2.697  0.1219  3.1847 -0.4887
  921MOL0     H21526  12.006   6.332   2.794  0.8548 -0.9856  0.1942
  921MOL0     H21527  11.998   6.362   2.970  0.3660  1.2903 -1.4506
  921MOL0     H21528  11.805   6.219   2.995 -2.5242 -5.1642 -1.1581
  921MOL0     H21529  11.830   6.149   2.834 -0.1045  0.2792 -0.3435
  921MOL0     H21530  11.728   6.441   2.850  2.0093  0.1702 -1.4949
  921MOL0     H21531  11.777   6.352   2.716 -1.8310  0.3526 -0.7423
  921MOL0     H21532  11.549   6.301   2.922 -1.6872  2.5722 -0.3709
  921MOL0     H21533  11.589   6.181   2.792  1.5177 -0.4333  1.0483
  921MOL0     H21534  11.357   6.127   2.755 -1.7559 -2.1627  2.4816
  921MOL0     H21535  11.128   6.110   2.775  0.6432 -0.4451 -1.6981
  921MOL0     H21536  10.727   6.414   2.624 -0.2406  0.0114  0.8457
  921MOL0     H21537  10.476   6.431   2.626 -2.7690  1.3119  1.1958
  921MOL0     H21538  10.269   6.649   2.921  1.7288 -0.9121  0.0128
  921MOL0     H21539  10.232   6.485   2.974 -0.1755  0.3064  0.8080
  921MOL0     H21540  10.070   6.458   2.794  4.1354 -1.6862 -2.0822
  921MOL0     H21541  10.119   6.609   2.726  0.3385 -2.6953 -0.6238
  921MOL0     H21542  10.028   6.728   2.943 -4.0447  1.2336  1.1481
  921MOL0     H21543  10.001   6.566   3.000 -2.1057 -2.9303 -1.8113
  921MOL0     H21544   9.884   6.720   2.754  0.3240 -0.4790 -0.8525
  921MOL0     H21545   9.832   6.555   2.800 -0.3950  0.1004  1.5468
  921MOL0     H21546   9.808   6.811   2.972  1.4070  1.2288 -2.6974
  921MOL0     H21547   9.758   6.654   3.028 -0.2144  1.7224  1.2048
  921MOL0     H21548   9.589   6.609   2.861 -0.0947 -0.1636  0.4044
  921MOL0     H21549   9.634   6.755   2.772  2.9486 -2.3040 -0.7864
  921MOL0     H21550   9.522   6.749   3.055 -1.7130 -0.1202  0.2190
  921MOL0     H21551   9.577   6.896   2.974 -1.3502  0.5003 -1.2029
  921MOL0     H21552   9.388   6.849   2.791  2.2292 -1.7875 -0.3795
  921MOL0     H21553   9.357   6.922   2.944 -2.9494  0.2742 -0.4260
  921MOL0     H21554  10.471   6.532   3.029 -0.7020 -1.7885  0.0903
  921MOL0     H21555  10.721   6.496   3.046  0.5491 -1.5191  0.5942
  921MOL0     H21556  11.092   6.544   2.761  1.9223  1.2161 -1.4040
  921MOL0     H21557  11.349   6.552   2.741  4.8708 -2.7587 -0.4405
  921MOL0     H21558  11.531   5.306   2.680  2.2968  0.0672 -1.5609
  921MOL0     H21559  11.322   5.407   2.669  0.4979 -0.0880 -1.1687
  921MOL0     H21560  11.114   5.818   2.897 -0.3791  0.9989 -1.7035
  921MOL0     H21561  10.904   5.946   2.946 -5.2430  2.0356 -2.2372
  921MOL0     H21562  10.713   6.073   2.885 -0.0376 -1.6946 -3.5323
  921MOL0     H21563  10.711   5.953   3.017  3.1126  1.7028 -1.4316
  921MOL0     H21564  10.465   5.917   2.974 -0.1112 -0.3682  2.5388
  921MOL0     H21565  10.513   6.067   3.061  0.3502  2.2743 -1.5937
  921MOL0     H21566  10.452   6.062   2.762 -3.5911 -0.8651 -0.6825
  921MOL0     H21567  10.502   6.201   2.854 -0.9925  1.4668  0.0761
  921MOL0     H21568  10.291   6.232   2.822  2.7156 -0.4524 -1.7008
  921MOL0     H21569  10.240   6.071   2.853 -3.1386  2.8679 -0.9525
  921MOL0     H21570  10.275   6.263   3.248 -1.4316  0.6489  0.1331
  921MOL0     H21571  10.706   5.708   2.660 -0.0686 -0.0491 -0.9926
  921MOL0     H21572  10.908   5.602   2.588  0.4277 -1.8124  1.4727
  922MOL0     O21573   7.412   8.121   1.923  0.1530 -0.0021  0.8101
  922MOL0     C21574   7.342   8.192   1.843 -0.2269  0.3441 -0.1767
  922MOL0     O21575   7.372   8.231   1.716  0.4846 -0.4534 -0.0631
  922MOL0     C21576   7.495   8.202   1.667 -0.7589 -0.5725 -0.1954
  922MOL0     C21577   7.558   8.073   1.636  0.5185 -0.5761 -0.7885
  922MOL0     C21578   7.685   8.061   1.587 -0.4706  0.0045  0.0646
  922MOL0     C21579   7.755   8.180   1.562  0.4007  0.1890 -0.0208
  922MOL0     O21580   7.874   8.168   1.502 -0.3427 -0.8385  0.1749
  922MOL0     C21581   7.988   8.173   1.594  0.4358  0.1220 -0.1740
  922MOL0     C21582   8.109   8.105   1.519 -0.1396  0.8110 -0.6898
  922MOL0     C21583   8.125   7.953   1.535 -0.3872 -0.8141 -0.1273
  922MOL0     C21584   8.012   7.869   1.481 -0.2371  0.6035 -0.6018
  922MOL0     C21585   7.998   7.905   1.327 -0.5340  0.2775  0.5771
  922MOL0     C21586   7.918   7.795   1.256  1.3204  0.1611  0.7337
  922MOL0     C21587   7.874   7.833   1.107 -0.1947  0.2083  0.4486
  922MOL0     C21588   7.764   7.733   1.058  0.6891  0.2408 -0.1331
  922MOL0     N21589   7.625   7.774   1.103 -0.6231 -0.9310  0.6259
  922MOL0     C21590   7.592   7.857   1.203 -0.4395 -0.3210 -0.0049
  922MOL0     C21591   7.452   7.861   1.212 -0.9055 -0.1388 -0.3951
  922MOL0     C21592   7.372   7.922   1.322  0.1093 -0.1262 -0.0131
  922MOL0     C21593   7.359   8.068   1.303  0.1268  0.5014 -0.5217
  922MOL0     C21594   7.273   8.131   1.415  0.1431  0.8573  0.7488
  922MOL0     C21595   7.120   8.131   1.378  0.4364  0.7602 -0.2675
  922MOL0     O21596   7.050   8.203   1.480 -0.2032 -0.8476 -1.1245
  922MOL0     C21597   6.919   8.223   1.460 -0.8182  0.4188 -0.6926
  922MOL0     C21598   6.837   8.112   1.422  0.8316 -0.5093  0.3667
  922MOL0     C21599   6.701   8.136   1.405  0.3810  0.2714 -0.7965
  922MOL0     C21600   6.645   8.261   1.438  0.2749 -0.9024  0.7821
  922MOL0     C21601   6.505   8.293   1.410 -1.1143 -0.0538  0.4321
  922MOL0     O21602   6.468   8.422   1.391  0.0992 -0.5521  0.3008
  922MOL0     C21603   6.332   8.454   1.400  0.6144  0.0143  0.2766
  922MOL0     C21604   6.252   8.411   1.507  1.0780 -0.9789  0.6871
  922MOL0     C21605   6.118   8.467   1.521  0.3678 -0.8210 -0.6218
  922MOL0     C21606   6.059   8.548   1.422  0.7156  0.7911 -0.0582
  922MOL0     O21607   5.924   8.573   1.442 -0.0613  0.8661  0.4745
  922MOL0     C21608   5.856   8.614   1.322 -0.2847  0.6726 -0.3849
  922MOL0     C21609   5.705   8.631   1.349 -0.2364 -0.3145  0.3030
  922MOL0     C21610   5.662   8.773   1.392  0.2394 -0.7524 -0.3168
  922MOL0     C21611   5.511   8.784   1.408 -0.2924  0.1681 -0.0647
  922MOL0     C21612   5.464   8.933   1.413  0.4250  0.4463  0.1974
  922MOL0     C21613   5.312   8.913   1.384  0.9068 -0.0513 -1.0503
  922MOL0     C21614   5.239   9.040   1.384 -0.6670 -0.6759  0.2746
  922MOL0     C21615   5.087   9.037   1.414 -0.0972 -0.2637 -0.4973
  922MOL0    Cl21616   5.016   8.913   1.293  0.4564 -0.2144 -0.8622
  922MOL0     C21617   6.141   8.590   1.317  0.3017 -0.3425  0.1945
  922MOL0     C21618   6.281   8.551   1.310  0.0905  0.0724 -0.8931
  922MOL0     O21619   6.428   8.195   1.416 -0.3081  0.1261  0.3726
  922MOL0     C21620   6.733   8.360   1.480 -0.1220  0.2314 -0.0204
  922MOL0     C21621   6.867   8.343   1.496  0.4833  0.8350  0.3879
  922MOL0     N21622   7.410   7.786   1.101 -0.2465 -0.1672  0.3646
  922MOL0     N21623   7.514   7.742   1.030  0.6382 -0.1393 -0.6950
  922MOL0     C21624   7.698   8.306   1.594  0.5558 -0.6531 -0.3828
  922MOL0     C21625   7.576   8.316   1.658 -0.0193  0.6904 -0.8663
  922MOL0     C21626   7.210   8.218   1.895  0.3080 -0.1513 -0.8901
  922MOL0     C21627   7.120   8.297   1.822 -0.2465  0.0755  0.1720
  922MOL0     C21628   6.987   8.328   1.860 -0.7527  0.5843 -0.3843
  922MOL0     C21629   6.928   8.264   1.966 -0.1436 -0.2780 -0.4686
  922MOL0     O21630   6.788   8.277   1.988  0.0452  0.2705  0.5754
  922MOL0     C21631   6.729   8.401   1.952  0.1340  0.1819 -0.0415
  922MOL0     C21632   6.584   8.394   2.007 -0.3319  0.7508 -0.3657
  922MOL0     C21633   6.578   8.474   2.144 -1.0262  0.2749  1.1748
  922MOL0     C21634   6.682   8.420   2.250 -0.2051  0.1234 -0.2735
  922MOL0     C21635   6.652   8.478   2.384  0.1183  0.0785  0.3859
  922MOL0     C21636   6.643   8.521   2.496 -0.1365  0.2720 -0.3131
  922MOL0     C21637   7.021   8.194   2.051  0.0727  0.7450 -0.6262
  922MOL0     C21638   7.154   8.173   2.016 -0.4899  1.2088 -0.6163
  922MOL0     H21639   7.503   7.984   1.665  0.9049 -0.6305 -0.1934
  922MOL0     H21640   7.736   7.966   1.576  0.0331  0.1908  0.7132
  922MOL0     H21641   7.970   8.125   1.690 -1.7361 -0.1514 -0.6717
  922MOL0     H21642   8.011   8.279   1.610  0.9041 -0.1828  1.3182
  922MOL0     H21643   8.202   8.147   1.559 -0.3951 -1.0443  2.1615
  922MOL0     H21644   8.114   8.132   1.413  1.0953  0.7637 -0.6580
  922MOL0     H21645   8.136   7.916   1.638 -3.6545 -0.7259  0.3411
  922MOL0     H21646   8.213   7.927   1.476  0.7159  1.6902  0.2677
  922MOL0     H21647   8.033   7.763   1.494 -0.1104  0.6211 -0.6627
  922MOL0     H21648   7.916   7.886   1.531 -1.2467  0.8619 -2.4975
  922MOL0     H21649   8.096   7.914   1.280 -0.6847  1.1065  0.4217
  922MOL0     H21650   7.947   8.001   1.324 -2.0154 -0.3979  2.1705
  922MOL0     H21651   7.826   7.772   1.310  0.8794 -1.1054 -0.4969
  922MOL0     H21652   7.974   7.701   1.254 -1.4528 -1.6076 -1.1564
  922MOL0     H21653   7.834   7.933   1.088  1.5784  1.6601  3.5298
  922MOL0     H21654   7.957   7.815   1.038 -0.7648  0.7532 -0.3869
  922MOL0     H21655   7.786   7.638   1.108  0.7561 -1.7405 -3.6026
  922MOL0     H21656   7.762   7.723   0.949  1.6435 -3.2304  0.0485
  922MOL0     H21657   7.662   7.899   1.274  1.0426 -1.8308 -0.4823
  922MOL0     H21658   7.416   7.894   1.418  0.0103  0.3906  0.1854
  922MOL0     H21659   7.270   7.883   1.316  0.6311 -1.3571 -1.4509
  922MOL0     H21660   7.325   8.090   1.202 -0.7074 -2.3608 -0.9412
  922MOL0     H21661   7.458   8.113   1.318 -1.4899  4.3656 -0.2133
  922MOL0     H21662   7.288   8.084   1.513  2.2896 -1.1495 -0.4484
  922MOL0     H21663   7.298   8.238   1.420  0.3971  0.8306  0.0919
  922MOL0     H21664   7.086   8.027   1.385 -0.6451  1.0888 -0.5736
  922MOL0     H21665   7.105   8.177   1.280  0.4426 -1.1996 -1.2462
  922MOL0     H21666   6.872   8.011   1.403 -0.6574 -1.4758  2.3616
  922MOL0     H21667   6.644   8.053   1.366  1.2330  0.1489 -1.8424
  922MOL0     H21668   6.270   8.333   1.581 -1.4164 -2.9760 -0.6684
  922MOL0     H21669   6.072   8.447   1.617 -2.4331 -1.9365 -2.0959
  922MOL0     H21670   5.876   8.539   1.245 -0.2854  0.8748 -0.5818
  922MOL0     H21671   5.905   8.706   1.290  1.3834 -0.4341 -1.1744
  922MOL0     H21672   5.674   8.562   1.427 -4.2077  0.7049 -0.1591
  922MOL0     H21673   5.659   8.606   1.253 -1.0355 -1.8073  1.0479
  922MOL0     H21674   5.694   8.847   1.319  0.4861 -1.9026 -1.4175
  922MOL0     H21675   5.709   8.795   1.488  1.1210 -2.1433 -0.3989
  922MOL0     H21676   5.463   8.734   1.323  0.4780 -0.7185 -0.0027
  922MOL0     H21677   5.482   8.733   1.500  1.3092 -0.4418  0.1335
  922MOL0     H21678   5.522   8.989   1.340  0.0700 -0.5070 -0.8456
  922MOL0     H21679   5.486   8.980   1.510  2.2647  2.2262 -1.0151
  922MOL0     H21680   5.264   8.847   1.456  0.5609 -0.2101 -1.4213
  922MOL0     H21681   5.317   8.867   1.285  3.6121 -0.5229 -0.7729
  922MOL0     H21682   5.287   9.093   1.466  2.1545 -1.2221 -0.9171
  922MOL0     H21683   5.254   9.094   1.291  1.5098 -1.0258  0.3867
  922MOL0     H21684   5.052   9.140   1.399  0.1788 -0.3109 -1.5815
  922MOL0     H21685   5.069   8.998   1.514  1.6035 -2.1627 -0.8705
  922MOL0     H21686   6.116   8.667   1.244 -0.7330 -0.3768  0.5033
  922MOL0     H21687   6.343   8.592   1.231 -0.4376  2.3544 -0.1953
  922MOL0     H21688   6.702   8.463   1.498  1.1372  0.8556 -1.2397
  922MOL0     H21689   6.935   8.424   1.523  1.8435  0.1854 -0.9630
  922MOL0     H21690   7.753   8.397   1.574 -1.3262  0.7411  0.5268
  922MOL0     H21691   7.540   8.408   1.703  0.6775  0.2121  0.7461
  922MOL0     H21692   7.160   8.350   1.736  1.8673  0.9371  1.5924
  922MOL0     H21693   6.922   8.376   1.787 -2.4557  0.3580  0.9093
  922MOL0     H21694   6.726   8.413   1.843  1.5433  3.3070  0.1649
  922MOL0     H21695   6.783   8.488   1.990  1.3415 -1.4110  2.0886
  922MOL0     H21696   6.505   8.441   1.947 -0.0735  0.2211 -1.1350
  922MOL0     H21697   6.555   8.289   2.017  4.4273 -0.8001 -0.6046
  922MOL0     H21698   6.482   8.465   2.196 -0.2460 -1.5788  2.4067
  922MOL0     H21699   6.594   8.579   2.120 -0.2256  0.5771  2.8868
  922MOL0     H21700   6.687   8.311   2.247  0.7151  0.1373  0.2436
  922MOL0     H21701   6.780   8.459   2.223  0.0345  1.8928  2.6372
  922MOL0     H21702   6.634   8.558   2.596  1.9904 -1.4053  0.5874
  922MOL0     H21703   6.980   8.156   2.144  1.2520  1.0483  0.0307
  922MOL0     H21704   7.219   8.120   2.085 -2.2233  1.3788  1.2354
  923MOL0     O21705   5.282   9.391  10.337  0.3404  0.4506  0.3077
  923MOL0     C21706   5.297   9.369  10.220 -0.0794 -0.0387  0.6201
  923MOL0     O21707   5.226   9.425  10.122  1.1309  0.4402  0.0898
  923MOL0     C21708   5.153   9.540  10.143  0.0507  0.9123 -0.3035
  923MOL0     C21709   5.227   9.655  10.173 -0.5274 -0.0377  0.3651
  923MOL0     C21710   5.172   9.778  10.168  0.7191 -0.8312 -0.1189
  923MOL0     C21711   5.034   9.791  10.134  0.7272  0.1981  0.6726
  923MOL0     O21712   4.970   9.909  10.120 -0.1888 -0.0879 -0.4972
  923MOL0     C21713   5.047  10.030  10.119 -0.7028 -0.0790 -0.9822
  923MOL0     C21714   5.035  10.116  10.255  0.2403  0.0059 -0.0852
  923MOL0     C21715   4.890  10.177  10.268 -0.0401  0.0354  1.1302
  923MOL0     C21716   4.879  10.302  10.340  0.6053 -0.1508  0.8487
  923MOL0     C21717   4.737  10.356  10.343  0.4328 -0.1120 -0.4412
  923MOL0     C21718   4.616  10.268  10.376 -0.7030 -0.1468  0.4428
  923MOL0     C21719   4.494  10.354  10.403 -0.1805  0.3263 -0.1915
  923MOL0     C21720   4.371  10.273  10.434  0.2969 -0.3162  0.6829
  923MOL0     N21721   4.254  10.374  10.430  0.4044  0.2019  0.2014
  923MOL0     C21722   4.213  10.452  10.540  0.6021  0.0439  0.5105
  923MOL0     C21723   4.106  10.522  10.486 -0.0349  0.0145  0.3628
  923MOL0     C21724   4.017  10.633  10.543  0.4649  0.3979  0.3697
  923MOL0     C21725   3.918  10.696  10.442  0.1037 -0.1630  0.4699
  923MOL0     C21726   3.835  10.811  10.507  0.5601  0.0826  0.0493
  923MOL0     C21727   3.735  10.773  10.617 -0.0917 -0.3050 -0.5423
  923MOL0     O21728   3.633  10.874  10.638 -0.0173 -1.0464  0.6293
  923MOL0     C21729   3.505  10.842  10.602  0.8396 -0.3055  0.1175
  923MOL0     C21730   3.462  10.727  10.520  0.0659 -1.1871  0.0071
  923MOL0     C21731   3.329  10.712  10.491  0.3062 -0.6337 -0.4581
  923MOL0     C21732   3.232  10.814  10.521 -0.9153  0.7635 -0.9118
  923MOL0     C21733   3.087  10.814  10.480  0.0141  0.8559  0.4470
  923MOL0     O21734   2.995  10.884  10.551 -0.0286  0.5425 -0.0207
  923MOL0     C21735   2.883  10.917  10.491 -0.2192 -0.3017  0.2951
  923MOL0     C21736   2.763  10.843  10.499 -1.1323  0.3052 -1.1932
  923MOL0     C21737   2.650  10.896  10.449  0.2489  0.4168 -0.1005
  923MOL0     C21738   2.641  11.019  10.383 -0.2249  0.3772  0.1055
  923MOL0     O21739   2.531  11.089  10.343  0.0347  0.8779  1.1225
  923MOL0     C21740   2.402  11.042  10.387  0.6177  0.1801 -0.0690
  923MOL0     C21741   2.289  11.151  10.371 -0.4408 -1.3503  0.4871
  923MOL0     C21742   2.165  11.122  10.448  0.1269 -0.3533 -0.6071
  923MOL0     C21743   2.051  11.093  10.364  0.2951  0.9855 -0.0049
  923MOL0     C21744   1.912  11.064  10.441  0.1227 -0.3334 -1.3097
  923MOL0     C21745   1.853  11.196  10.499  0.9246  0.1122 -0.1058
  923MOL0     C21746   1.800  11.296  10.405  0.1866  0.0390 -0.6851
  923MOL0     C21747   1.698  11.251  10.299  0.5471  1.0569 -0.7893
  923MOL0    Cl21748   1.557  11.167  10.369  0.2524 -0.3185  0.2768
  923MOL0     C21749   2.756  11.089  10.377 -0.2866 -0.6214  0.0891
  923MOL0     C21750   2.880  11.038  10.423 -0.1282 -1.0510 -0.1852
  923MOL0     O21751   3.059  10.739  10.390  0.1942 -0.2548 -0.0814
  923MOL0     C21752   3.276  10.919  10.598  1.3912  0.0191 -0.0583
  923MOL0     C21753   3.408  10.933  10.638  0.2909 -0.3486 -0.0571
  923MOL0     N21754   4.075  10.470  10.360  0.1582  0.2894  0.7402
  923MOL0     N21755   4.167  10.388  10.325  0.6613 -0.2547  0.0199
  923MOL0     C21756   4.962   9.674  10.098 -0.8253 -0.2934  0.6068
  923MOL0     C21757   5.021   9.542  10.109 -0.0637  0.2794 -0.0579
  923MOL0     C21758   5.399   9.273  10.167  0.5494 -1.2259 -0.2426
  923MOL0     C21759   5.470   9.197  10.262 -0.0545  0.5529 -0.5759
  923MOL0     C21760   5.579   9.120  10.221 -0.0474 -0.2527  0.3246
  923MOL0     C21761   5.624   9.117  10.092  0.4610 -0.2632  0.1003
  923MOL0     O21762   5.740   9.052  10.063 -0.7652  0.6776 -0.2561
  923MOL0     C21763   5.777   9.010   9.930 -0.1119  0.0060 -0.2031
  923MOL0     C21764   5.904   8.918   9.947 -0.3607  0.6634  0.7416
  923MOL0     C21765   6.027   8.991   9.977  0.3984  0.6701 -0.6908
  923MOL0     C21766   6.143   8.892   9.995  0.0286  0.4712  0.5623
  923MOL0     C21767   6.274   8.934   9.937  0.3872 -0.2926  0.6726
  923MOL0     C21768   6.382   8.984   9.904 -0.0545 -0.1289 -0.0343
  923MOL0     C21769   5.546   9.186   9.994  0.0555 -0.2793 -0.4216
  923MOL0     C21770   5.432   9.253  10.034 -0.0028  0.4239  1.1223
  923MOL0     H21771   5.333   9.641  10.191 -0.3887 -0.0375 -0.4322
  923MOL0     H21772   5.245   9.857  10.182 -1.5230  1.3510  0.1219
  923MOL0     H21773   5.010  10.095  10.040  0.2500  0.4025 -1.0507
  923MOL0     H21774   5.151  10.016  10.086 -1.2000 -0.3845 -2.4939
  923MOL0     H21775   5.109  10.198  10.252  0.6492 -0.3531 -2.8418
  923MOL0     H21776   5.066  10.059  10.343  1.6926  1.1289  0.1709
  923MOL0     H21777   4.829  10.092  10.299  2.6138 -2.0483  1.0553
  923MOL0     H21778   4.848  10.188  10.168  0.7289 -0.7906  0.6982
  923MOL0     H21779   4.901  10.281  10.445  0.6335 -3.3982  0.2910
  923MOL0     H21780   4.954  10.375  10.306  3.1506 -1.1102  3.9259
  923MOL0     H21781   4.709  10.393  10.244 -0.2990 -2.1235 -1.0443
  923MOL0     H21782   4.728  10.429  10.425 -2.2675 -0.9694  0.1230
  923MOL0     H21783   4.647  10.211  10.463 -0.8343 -0.0306  0.5657
  923MOL0     H21784   4.596  10.197  10.295  1.6092  0.9971 -1.2578
  923MOL0     H21785   4.507  10.425  10.485  3.1679  0.7015 -0.9169
  923MOL0     H21786   4.473  10.398  10.305 -0.1282 -2.1825 -1.4263
  923MOL0     H21787   4.388  10.235  10.535 -1.7466  0.5559  1.3990
  923MOL0     H21788   4.344  10.192  10.365  1.1860 -2.3929  2.6497
  923MOL0     H21789   4.246  10.462  10.643  2.6691  2.3348 -0.2773
  923MOL0     H21790   4.076  10.707  10.598  0.9223 -1.6123  2.7567
  923MOL0     H21791   3.949  10.588  10.615  2.0045 -2.9177 -0.0614
  923MOL0     H21792   3.857  10.615  10.404  1.1535  0.2915 -2.4613
  923MOL0     H21793   3.970  10.741  10.356 -0.8806  0.9358  0.4216
  923MOL0     H21794   3.902  10.886  10.552 -0.0686  0.0230  1.1058
  923MOL0     H21795   3.776  10.867  10.434 -1.1682 -2.0647 -0.3018
  923MOL0     H21796   3.790  10.766  10.712  4.1385  0.7543 -2.6818
  923MOL0     H21797   3.691  10.675  10.599 -0.2803 -0.2774 -0.2483
  923MOL0     H21798   3.539  10.655  10.492 -0.0096 -1.5072  0.5990
  923MOL0     H21799   3.304  10.625  10.431 -1.7816 -0.3389 -0.1070
  923MOL0     H21800   2.762  10.755  10.563  0.3570  1.2044  0.1372
  923MOL0     H21801   2.567  10.826  10.452  1.2703 -0.8894 -1.2702
  923MOL0     H21802   2.422  11.018  10.492  1.7385  3.0248  0.4823
  923MOL0     H21803   2.380  10.953  10.328  1.2114  0.0092 -0.0345
  923MOL0     H21804   2.275  11.183  10.268 -0.8693  0.6160  1.1102
  923MOL0     H21805   2.337  11.239  10.416  1.9983 -2.7038  0.6799
  923MOL0     H21806   2.151  11.208  10.514  2.5184 -0.8828  0.6835
  923MOL0     H21807   2.170  11.040  10.520  2.5725  2.3900  2.6581
  923MOL0     H21808   2.038  11.166  10.283  0.0149 -0.4008 -1.2639
  923MOL0     H21809   2.085  11.002  10.314 -0.5088  1.5070 -1.5539
  923MOL0     H21810   1.931  11.001  10.528 -1.4905  0.3334 -0.4189
  923MOL0     H21811   1.839  11.015  10.376  1.3101 -2.4648 -1.1089
  923MOL0     H21812   1.910  11.234  10.585 -3.7246 -0.4465  3.6168
  923MOL0     H21813   1.761  11.165  10.550  1.2375  1.5257  1.4254
  923MOL0     H21814   1.744  11.367  10.467  1.5864  0.1085  0.5620
  923MOL0     H21815   1.885  11.350  10.362  0.6898  0.2131  0.4763
  923MOL0     H21816   1.759  11.186  10.235  4.0669  2.3217  1.0277
  923MOL0     H21817   1.648  11.324  10.234 -0.0339  0.4051 -1.0838
  923MOL0     H21818   2.754  11.173  10.309  1.6795 -2.7316 -2.8550
  923MOL0     H21819   2.974  11.092  10.416 -1.7556  1.6599 -3.9160
  923MOL0     H21820   3.209  11.000  10.626 -0.0833 -0.7965 -1.1072
  923MOL0     H21821   3.429  11.020  10.700 -2.8827 -0.8763  1.9744
  923MOL0     H21822   4.860   9.692  10.066 -0.3856  2.2295  0.4580
  923MOL0     H21823   4.976   9.447  10.082  0.3354 -0.5382  2.0064
  923MOL0     H21824   5.440   9.196  10.367  1.2983  3.5893 -0.0433
  923MOL0     H21825   5.639   9.070  10.297  1.0939  2.3944  1.3211
  923MOL0     H21826   5.813   9.097   9.874  2.6473 -0.5989  0.4666
  923MOL0     H21827   5.696   8.957   9.879  0.5675 -0.7791 -0.4866
  923MOL0     H21828   5.894   8.834  10.016  2.4679 -1.1426 -0.8537
  923MOL0     H21829   5.904   8.888   9.842 -2.1694  4.0794 -0.3846
  923MOL0     H21830   6.025   9.057  10.064  2.3747  0.3781 -0.3685
  923MOL0     H21831   6.055   9.053   9.891  0.6994  0.9885 -0.3648
  923MOL0     H21832   6.154   8.876  10.103 -0.6651  1.5910  0.8206
  923MOL0     H21833   6.120   8.795   9.949  1.5062  0.6391 -0.5828
  923MOL0     H21834   6.483   9.020   9.894  0.3154 -1.3073 -0.6979
  923MOL0     H21835   5.569   9.176   9.888  0.4218  2.4768 -0.6546
  923MOL0     H21836   5.374   9.305   9.959  2.0726  1.4083  0.1288
  924MOL0     O21837  10.407  10.073   8.994  0.3247 -0.0935  0.1810
  924MOL0     C21838  10.422  10.195   9.008 -0.7368 -0.4304 -0.2423
  924MOL0     O21839  10.329  10.279   9.047 -0.6034 -0.4455 -0.7220
  924MOL0     C21840  10.219  10.232   9.113  0.0067 -0.3624  0.6381
  924MOL0     C21841  10.113  10.152   9.051 -0.1285 -0.5783  0.1158
  924MOL0     C21842   9.999  10.120   9.116  0.1233 -0.6609  0.4530
  924MOL0     C21843   9.978  10.175   9.243 -0.9904 -0.4169 -0.3238
  924MOL0     O21844   9.852  10.152   9.295 -0.1846  0.6431  0.2665
  924MOL0     C21845   9.820  10.134   9.432  0.2998  0.6942 -0.3305
  924MOL0     C21846   9.696  10.044   9.431  0.5274 -0.0191  0.3333
  924MOL0     C21847   9.571  10.116   9.388  0.1950  0.2477  1.2086
  924MOL0     C21848   9.451  10.037   9.383  0.1424  0.4377  0.0746
  924MOL0     C21849   9.324  10.112   9.339 -0.9545 -0.7039 -0.1569
  924MOL0     C21850   9.212  10.012   9.350 -0.5830 -0.7836  0.0823
  924MOL0     C21851   9.077  10.062   9.282 -0.5342  0.4130 -0.3638
  924MOL0     C21852   9.033  10.180   9.363 -0.4540  0.1065  0.1223
  924MOL0     N21853   8.892  10.206   9.320  0.0237  0.5735 -0.2222
  924MOL0     C21854   8.769  10.147   9.357  0.8974 -0.2119 -0.1235
  924MOL0     C21855   8.668  10.211   9.280  0.2846  0.4185 -0.2346
  924MOL0     C21856   8.512  10.208   9.296 -0.2154 -0.3908 -0.3162
  924MOL0     C21857   8.450  10.163   9.162 -0.1938  0.6908  0.1392
  924MOL0     C21858   8.297  10.184   9.174 -0.1613 -0.3463 -1.1229
  924MOL0     C21859   8.216  10.178   9.052 -0.4260  0.4958 -0.4001
  924MOL0     O21860   8.193  10.039   9.022  0.6188 -0.5192 -0.5231
  924MOL0     C21861   8.082   9.979   9.081  0.1138 -0.2849  0.8095
  924MOL0     C21862   8.037   9.873   9.012 -0.3791  0.4849  0.1600
  924MOL0     C21863   7.918   9.802   9.032  0.2389  1.1009 -0.8035
  924MOL0     C21864   7.841   9.841   9.144  0.8121 -0.5035 -0.5454
  924MOL0     C21865   7.727   9.754   9.181  0.4320  0.0407  0.3724
  924MOL0     O21866   7.615   9.807   9.241 -0.0868 -0.0938 -0.0393
  924MOL0     C21867   7.508   9.718   9.254 -0.7288 -0.4649 -0.1641
  924MOL0     C21868   7.517   9.607   9.336 -0.7940  0.3203  0.0193
  924MOL0     C21869   7.405   9.514   9.337  0.3544 -0.2181 -1.3325
  924MOL0     C21870   7.286   9.548   9.267  0.5865  0.8783 -0.2760
  924MOL0     O21871   7.187   9.453   9.265 -0.4631  0.0630 -0.2377
  924MOL0     C21872   7.072   9.468   9.181  0.4205 -0.4951  0.5542
  924MOL0     C21873   6.962   9.561   9.243  0.5565 -0.8665  0.3513
  924MOL0     C21874   6.913   9.513   9.374  0.4261  0.0774 -0.0726
  924MOL0     C21875   6.789   9.601   9.424  0.6281 -0.7031  0.3728
  924MOL0     C21876   6.658   9.551   9.370  0.6484  1.1568  0.6697
  924MOL0     C21877   6.538   9.622   9.436 -0.8063  0.8724  0.1477
  924MOL0     C21878   6.399   9.558   9.394 -0.6185  0.1256  0.6010
  924MOL0     C21879   6.277   9.651   9.411 -0.1468 -1.0892 -0.4804
  924MOL0    Cl21880   6.135   9.605   9.317  0.2711  0.1390 -0.3029
  924MOL0     C21881   7.284   9.667   9.191  0.1055  0.1154 -0.4907
  924MOL0     C21882   7.388   9.741   9.184 -0.6527 -0.2754  0.1022
  924MOL0     O21883   7.731   9.643   9.136  0.5944  0.4728  0.4811
  924MOL0     C21884   7.884   9.955   9.218  0.2855 -0.2375  0.1744
  924MOL0     C21885   8.003  10.023   9.188  0.0930 -0.4493 -0.0659
  924MOL0     N21886   8.734  10.304   9.199  0.6683 -0.5572  0.6845
  924MOL0     N21887   8.859  10.298   9.223 -0.4664 -0.6872 -0.2229
  924MOL0     C21888  10.073  10.253   9.310 -0.2485 -0.1642  0.4436
  924MOL0     C21889  10.200  10.277   9.241  0.3219 -0.3597 -0.2534
  924MOL0     C21890  10.557  10.242   8.987  0.0891 -0.4351  0.4749
  924MOL0     C21891  10.660  10.164   8.927  0.2355 -0.6026 -0.4323
  924MOL0     C21892  10.788  10.213   8.902 -0.1555 -0.5519  0.8685
  924MOL0     C21893  10.828  10.335   8.949  0.3019  0.8079  1.4462
  924MOL0     O21894  10.952  10.390   8.935  0.2266 -0.0860 -0.7254
  924MOL0     C21895  11.063  10.296   8.938  0.4834  0.3260 -0.2414
  924MOL0     C21896  11.151  10.329   9.063  0.1979  0.2547 -0.0423
  924MOL0     C21897  11.206  10.476   9.071 -0.0022 -0.7522  0.4538
  924MOL0     C21898  11.309  10.514   8.961 -0.8466  0.2594  0.8633
  924MOL0     C21899  11.364  10.639   8.987  0.3113 -0.3329  0.0530
  924MOL0     C21900  11.405  10.751   9.006 -0.4919 -0.8006  0.1709
  924MOL0     C21901  10.726  10.420   8.997  1.2204  0.4305  0.0510
  924MOL0     C21902  10.595  10.375   9.012  0.0905  0.7106 -0.4437
  924MOL0     H21903  10.120  10.119   8.948  1.0367 -0.8904  0.2811
  924MOL0     H21904   9.920  10.067   9.064  0.7897 -2.3052  1.0556
  924MOL0     H21905   9.797  10.232   9.475 -0.6072  1.0034 -1.4660
  924MOL0     H21906   9.908  10.090   9.479  1.3144  0.8740 -1.9874
  924MOL0     H21907   9.671  10.008   9.531 -0.2068  0.5576  0.3649
  924MOL0     H21908   9.717   9.959   9.365  1.8212  1.3775 -1.1282
  924MOL0     H21909   9.585  10.168   9.292  1.8387 -0.8174  0.8310
  924MOL0     H21910   9.554  10.200   9.456  1.4971  0.4992  1.2398
  924MOL0     H21911   9.467   9.962   9.305 -1.4611  0.5137 -0.3484
  924MOL0     H21912   9.442   9.992   9.483 -1.2647  2.2128  0.7841
  924MOL0     H21913   9.342  10.147   9.237 -4.8419 -0.2614 -0.8191
  924MOL0     H21914   9.318  10.195   9.410  2.3903 -0.3503 -0.1145
  924MOL0     H21915   9.198   9.999   9.457  2.3978 -0.5160  0.5830
  924MOL0     H21916   9.239   9.914   9.309  0.2044 -0.6858  0.3560
  924MOL0     H21917   9.095  10.082   9.175 -0.6128 -1.0114 -0.6632
  924MOL0     H21918   9.008   9.978   9.274  0.6288 -0.5161 -1.2056
  924MOL0     H21919   9.098  10.261   9.329  0.7087 -0.4435  0.9627
  924MOL0     H21920   9.046  10.168   9.471  2.2532 -0.3164 -0.1592
  924MOL0     H21921   8.766  10.069   9.432  0.8459  0.2713  0.3876
  924MOL0     H21922   8.470  10.308   9.311 -1.3866 -0.7958 -0.7541
  924MOL0     H21923   8.478  10.147   9.381 -2.0466  2.0410  0.8181
  924MOL0     H21924   8.478  10.058   9.145  0.2739  1.3911 -4.6466
  924MOL0     H21925   8.492  10.210   9.073  0.4066  1.0211  0.5870
  924MOL0     H21926   8.253  10.108   9.239  0.7496 -1.5851 -1.8985
  924MOL0     H21927   8.281  10.283   9.218  1.5518 -0.8452  0.7690
  924MOL0     H21928   8.279  10.228   8.979  2.4063 -1.2388  0.6785
  924MOL0     H21929   8.118  10.223   9.070 -0.5758 -0.4775  1.5390
  924MOL0     H21930   8.101   9.839   8.931 -0.2288  0.5575  0.2477
  924MOL0     H21931   7.895   9.720   8.965  1.9036 -0.5597  0.5577
  924MOL0     H21932   7.612   9.593   9.388 -0.1121 -1.6984 -1.6376
  924MOL0     H21933   7.410   9.423   9.396  1.2813 -0.5210 -1.8480
  924MOL0     H21934   7.013   9.377   9.164  0.3342 -0.3176 -0.1163
  924MOL0     H21935   7.101   9.488   9.078 -1.2032  1.0011  0.3514
  924MOL0     H21936   6.885   9.562   9.165  1.5157 -1.2820 -0.6434
  924MOL0     H21937   7.005   9.661   9.252  2.8711 -1.9178  2.0296
  924MOL0     H21938   6.990   9.499   9.450 -0.8557 -0.6286  1.1686
  924MOL0     H21939   6.876   9.411   9.362 -1.8629  0.3822  2.9861
  924MOL0     H21940   6.780   9.588   9.533 -0.1875 -2.8867  0.0965
  924MOL0     H21941   6.805   9.707   9.403 -1.5781 -0.7576 -2.0093
  924MOL0     H21942   6.642   9.445   9.388  1.1915  1.1775  1.3175
  924MOL0     H21943   6.665   9.583   9.265 -1.1785  1.1226  0.5149
  924MOL0     H21944   6.535   9.730   9.418 -0.9323  1.7821  4.4766
  924MOL0     H21945   6.547   9.610   9.544  0.6213  0.4458  0.0006
  924MOL0     H21946   6.405   9.539   9.287  3.2456  0.4011  0.6323
  924MOL0     H21947   6.386   9.461   9.444 -1.4504  0.0262  0.2024
  924MOL0     H21948   6.298   9.755   9.384 -0.1077 -0.7756  0.6687
  924MOL0     H21949   6.244   9.643   9.515 -1.9727 -0.2839 -0.9629
  924MOL0     H21950   7.202   9.689   9.123 -0.6535 -4.3650 -1.3453
  924MOL0     H21951   7.392   9.825   9.114  1.5051 -2.3902 -2.5362
  924MOL0     H21952   7.831   9.991   9.305  2.5099  2.2533  0.6694
  924MOL0     H21953   8.034  10.113   9.240  2.7534 -0.3621 -1.5845
  924MOL0     H21954  10.045  10.298   9.405 -0.2600 -0.2296  0.4707
  924MOL0     H21955  10.281  10.340   9.276 -0.6480  0.4932  0.5194
  924MOL0     H21956  10.638  10.061   8.901 -2.1332 -0.2455 -0.0448
  924MOL0     H21957  10.861  10.154   8.847  0.1281  0.3855  0.2201
  924MOL0     H21958  11.115  10.314   8.843  1.7251 -1.5443  0.0244
  924MOL0     H21959  11.039  10.189   8.944  1.3063  0.1235 -0.4736
  924MOL0     H21960  11.083  10.314   9.148 -1.6428 -0.9600 -1.6318
  924MOL0     H21961  11.232  10.256   9.063 -0.8511 -0.9431 -0.0711
  924MOL0     H21962  11.257  10.492   9.167  1.5067 -0.6991 -0.3341
  924MOL0     H21963  11.116  10.537   9.057 -0.6874 -2.0552 -1.0970
  924MOL0     H21964  11.399  10.452   8.965 -1.2681 -0.4213 -0.0308
  924MOL0     H21965  11.263  10.501   8.863 -0.2803 -0.0920  0.6426
  924MOL0     H21966  11.437  10.849   9.036  4.6731 -2.0516 -0.3414
  924MOL0     H21967  10.758  10.521   9.020  0.2325  1.2446 -1.9049
  924MOL0     H21968  10.529  10.443   9.065  1.2749  1.9456 -0.4959
  925MOL0     O21969   3.126   4.050   2.105 -0.4302 -0.1363 -0.3534
  925MOL0     C21970   3.131   4.172   2.085 -0.2722 -0.6519  0.2610
  925MOL0     O21971   3.031   4.262   2.103 -0.8189  0.4815 -0.1275
  925MOL0     C21972   2.916   4.219   2.161 -0.4049  0.0918 -0.0027
  925MOL0     C21973   2.922   4.164   2.289 -0.0709 -0.4746 -0.7646
  925MOL0     C21974   2.815   4.100   2.341 -0.4705 -0.5589 -0.5527
  925MOL0     C21975   2.694   4.082   2.271 -0.3202  0.0965  0.0570
  925MOL0     O21976   2.581   4.017   2.313 -0.3052  0.0897 -0.0240
  925MOL0     C21977   2.570   3.951   2.442  0.2996 -0.5061  0.3301
  925MOL0     C21978   2.423   3.920   2.483  0.4231 -0.7083 -0.6056
  925MOL0     C21979   2.379   3.789   2.414 -1.0290  0.8856 -0.8235
  925MOL0     C21980   2.226   3.766   2.438  0.2650  0.7240 -0.4901
  925MOL0     C21981   2.184   3.618   2.403  0.4548  0.0541  0.0036
  925MOL0     C21982   2.023   3.589   2.397  0.2075 -0.2722  1.3558
  925MOL0     C21983   1.991   3.458   2.336  0.2027  0.1567  0.3135
  925MOL0     C21984   2.031   3.436   2.187 -0.1593 -0.1127  0.2969
  925MOL0     N21985   1.965   3.534   2.098 -0.7054 -0.2917 -0.0832
  925MOL0     C21986   1.831   3.549   2.084 -0.0250  0.3098 -0.0426
  925MOL0     C21987   1.817   3.645   1.993  0.6629 -0.2851 -0.3125
  925MOL0     C21988   1.681   3.686   1.937  0.6295  0.4629 -0.0615
  925MOL0     C21989   1.605   3.554   1.894 -0.3649 -1.0174  0.4688
  925MOL0     C21990   1.471   3.593   1.819 -0.2360  0.0677  0.3529
  925MOL0     C21991   1.402   3.468   1.772  0.2724 -0.1725  0.2337
  925MOL0     O21992   1.283   3.509   1.715 -0.5640 -0.4738  0.3339
  925MOL0     C21993   1.187   3.415   1.687 -0.4589 -0.3507 -0.3983
  925MOL0     C21994   1.195   3.280   1.723  0.2881 -0.4051 -0.4076
  925MOL0     C21995   1.081   3.196   1.705  0.0249  0.2593  0.9159
  925MOL0     C21996   0.958   3.245   1.647 -0.4036  0.4449 -0.3227
  925MOL0     C21997   0.843   3.157   1.623 -0.4745 -0.2470  0.5224
  925MOL0     O21998   0.725   3.218   1.568 -0.3841  0.2168 -0.0576
  925MOL0     C21999   0.617   3.133   1.542 -0.2144  0.0485  0.5309
  925MOL0     C22000   0.494   3.152   1.594  0.4557 -0.4334  0.7752
  925MOL0     C22001   0.391   3.071   1.553 -0.3138 -0.3235  0.5926
  925MOL0     C22002   0.404   2.971   1.457 -0.4822  0.5482 -0.2746
  925MOL0     O22003   0.305   2.888   1.420 -0.1811  0.1527  0.5041
  925MOL0     C22004   0.268   2.911   1.284  0.1583 -0.0578  0.5027
  925MOL0     C22005   0.163   2.801   1.256 -0.3325 -0.0630 -0.4582
  925MOL0     C22006   0.031   2.856   1.310  0.4968  0.6033 -0.0731
  925MOL0     C22007  -0.091   2.761   1.280 -0.5344  0.7325 -0.1665
  925MOL0     C22008  -0.209   2.806   1.356  0.1805  0.3567  0.5682
  925MOL0     C22009  -0.341   2.754   1.310 -0.5343  0.1990  0.0651
  925MOL0     C22010  -0.356   2.607   1.353  0.1428  0.0197 -0.3722
  925MOL0     C22011  -0.483   2.548   1.292 -0.5599 -0.2369 -0.1515
  925MOL0    Cl22012  -0.638   2.640   1.339 -0.0540 -0.0818 -0.0070
  925MOL0     C22013   0.534   2.952   1.410  0.7248  1.2464  0.3713
  925MOL0     C22014   0.642   3.025   1.462 -0.1280  0.1064 -0.2689
  925MOL0     O22015   0.861   3.035   1.636 -0.3584  0.3385  0.0414
  925MOL0     C22016   0.954   3.389   1.614 -0.2801 -0.2811 -0.9115
  925MOL0     C22017   1.073   3.467   1.623  0.1190  0.1829 -0.2064
  925MOL0     N22018   1.939   3.700   1.961 -0.9507  0.3572 -0.1059
  925MOL0     N22019   2.026   3.632   2.022 -0.4817  0.3802  0.1581
  925MOL0     C22020   2.687   4.140   2.143  0.8071 -0.9866  0.4123
  925MOL0     C22021   2.796   4.213   2.083 -0.3464 -0.0163 -0.4799
  925MOL0     C22022   3.255   4.227   2.021 -0.1261 -0.2557 -0.2480
  925MOL0     C22023   3.242   4.341   1.938 -0.8972  0.7854 -0.0278
  925MOL0     C22024   3.359   4.378   1.869  0.1321 -0.0020 -0.4498
  925MOL0     C22025   3.482   4.321   1.906  0.6575  0.1439  1.1913
  925MOL0     O22026   3.601   4.369   1.863  0.2643 -0.2343  0.1066
  925MOL0     C22027   3.608   4.468   1.763  0.2407 -0.7287  0.2658
  925MOL0     C22028   3.764   4.499   1.754  0.3563 -0.1109  0.1353
  925MOL0     C22029   3.794   4.560   1.613  0.2672  0.0530  0.1833
  925MOL0     C22030   3.942   4.555   1.577  0.4507  0.2003 -0.2130
  925MOL0     C22031   3.959   4.557   1.435 -0.5649 -0.4983  0.1039
  925MOL0     C22032   3.974   4.559   1.314  0.0240 -0.3184  0.3059
  925MOL0     C22033   3.487   4.212   1.994 -0.4400 -1.4670 -0.2356
  925MOL0     C22034   3.368   4.151   2.031 -0.1078  0.4879 -0.4440
  925MOL0     H22035   3.018   4.164   2.340 -0.8184 -0.4143  0.6899
  925MOL0     H22036   2.822   4.054   2.439  0.6195 -0.9080 -0.7739
  925MOL0     H22037   2.610   4.011   2.525  0.5711 -3.5842  2.6112
  925MOL0     H22038   2.625   3.857   2.437 -0.2165 -0.8444  0.9521
  925MOL0     H22039   2.362   4.007   2.456  0.2221 -0.6599 -0.0061
  925MOL0     H22040   2.415   3.900   2.590  1.8059  0.4231 -0.2591
  925MOL0     H22041   2.432   3.700   2.451 -2.7100 -0.3793 -1.3022
  925MOL0     H22042   2.386   3.797   2.306 -1.2600  0.6609 -0.8572
  925MOL0     H22043   2.205   3.790   2.543 -0.6620 -2.4805  0.1890
  925MOL0     H22044   2.174   3.831   2.368  0.1047  0.2123 -0.8549
  925MOL0     H22045   2.230   3.544   2.469 -1.9118 -0.4455  1.2171
  925MOL0     H22046   2.223   3.594   2.304 -0.3056  0.8085 -0.4829
  925MOL0     H22047   1.975   3.663   2.332  1.5110  1.9091  2.7488
  925MOL0     H22048   1.982   3.596   2.498 -0.5315  0.2541  1.0356
  925MOL0     H22049   2.047   3.387   2.397 -0.1429  0.2650  0.7656
  925MOL0     H22050   1.883   3.446   2.343 -0.1481  2.9289  1.0487
  925MOL0     H22051   2.001   3.333   2.165  1.7503 -1.1146  2.0621
  925MOL0     H22052   2.140   3.439   2.179 -0.0697 -1.6030  0.6453
  925MOL0     H22053   1.763   3.483   2.136 -0.6588  1.2520  0.3650
  925MOL0     H22054   1.690   3.757   1.854  3.6884 -2.6175 -2.6761
  925MOL0     H22055   1.621   3.742   2.010 -0.3139  0.9965 -1.2214
  925MOL0     H22056   1.570   3.510   1.988 -1.1477  0.0029  0.6793
  925MOL0     H22057   1.653   3.491   1.819 -2.3090  0.0089 -1.7817
  925MOL0     H22058   1.404   3.651   1.883 -3.1290 -1.5523 -0.9802
  925MOL0     H22059   1.486   3.655   1.730 -0.7155  0.5082  0.5727
  925MOL0     H22060   1.384   3.406   1.861  1.5294 -2.6725 -1.1458
  925MOL0     H22061   1.478   3.414   1.714  1.2429  1.2759  0.1193
  925MOL0     H22062   1.292   3.246   1.757  1.3970  2.9699  0.1712
  925MOL0     H22063   1.086   3.090   1.729 -0.6364 -0.2384 -0.9914
  925MOL0     H22064   0.486   3.234   1.664  0.0669 -2.3149  3.0480
  925MOL0     H22065   0.295   3.099   1.595 -0.0975  1.4265  0.0044
  925MOL0     H22066   0.350   2.896   1.214 -1.6064  2.1096 -2.2677
  925MOL0     H22067   0.227   3.011   1.266 -0.3758 -0.2311  0.7219
  925MOL0     H22068   0.196   2.706   1.298 -0.4956  0.4294  0.8502
  925MOL0     H22069   0.151   2.791   1.148 -0.9993  0.6100 -0.4534
  925MOL0     H22070   0.007   2.945   1.252 -3.5074 -1.0254 -1.2939
  925MOL0     H22071   0.037   2.881   1.416 -1.8385 -1.3420  0.6160
  925MOL0     H22072  -0.112   2.752   1.173 -0.0499  1.1887 -0.3041
  925MOL0     H22073  -0.082   2.661   1.323  0.7404  1.2215  0.7571
  925MOL0     H22074  -0.211   2.915   1.367  3.8802  0.9698 -2.6022
  925MOL0     H22075  -0.198   2.775   1.461  1.6954 -0.0756  0.2979
  925MOL0     H22076  -0.354   2.767   1.202 -2.6273 -0.3236  0.2133
  925MOL0     H22077  -0.426   2.816   1.339 -2.6753 -1.9522 -1.1862
  925MOL0     H22078  -0.280   2.541   1.311  0.1040 -0.3388  0.1193
  925MOL0     H22079  -0.366   2.611   1.462 -0.8660  1.2248 -0.4785
  925MOL0     H22080  -0.479   2.445   1.329 -1.3822 -0.3153 -0.2725
  925MOL0     H22081  -0.465   2.547   1.184  1.5933 -1.4425  0.1476
  925MOL0     H22082   0.560   2.868   1.346 -2.8433 -0.9855  1.5774
  925MOL0     H22083   0.741   3.023   1.417 -0.1607  0.7144 -0.3842
  925MOL0     H22084   0.865   3.422   1.561  0.5831 -1.0764 -2.9475
  925MOL0     H22085   1.051   3.570   1.598 -2.1473  0.1134  1.1776
  925MOL0     H22086   2.599   4.133   2.079  2.4602  0.1286 -2.1261
  925MOL0     H22087   2.796   4.236   1.977 -1.3930 -0.8457 -0.6760
  925MOL0     H22088   3.147   4.387   1.913 -1.5561 -0.5837 -0.1488
  925MOL0     H22089   3.351   4.460   1.798 -2.0682 -0.0281 -0.2823
  925MOL0     H22090   3.557   4.555   1.806  1.9339 -0.3837  1.7184
  925MOL0     H22091   3.565   4.434   1.668 -0.7527  2.9091 -0.7622
  925MOL0     H22092   3.797   4.574   1.826 -1.1035  1.6193 -0.9162
  925MOL0     H22093   3.813   4.402   1.769  0.5551 -0.1323 -0.5961
  925MOL0     H22094   3.763   4.664   1.627  0.8705  0.0865  1.3719
  925MOL0     H22095   3.727   4.519   1.537  0.2643 -0.4594  0.4567
  925MOL0     H22096   4.001   4.639   1.616  0.5489 -0.2553  0.6399
  925MOL0     H22097   3.988   4.465   1.620  2.2848  0.6497 -1.1161
  925MOL0     H22098   3.970   4.555   1.207 -0.5691  0.0984  0.3081
  925MOL0     H22099   3.585   4.169   2.007 -0.3914 -2.0135 -2.0660
  925MOL0     H22100   3.363   4.054   2.080 -2.5371  0.7568 -0.0509
  926MOL0     O22101   2.004   1.094   7.334 -0.5526  0.0887  0.6559
  926MOL0     C22102   2.089   1.186   7.328 -0.0591 -0.4558 -0.3158
  926MOL0     O22103   2.082   1.300   7.250 -0.2112  0.1128 -0.0515
  926MOL0     C22104   1.962   1.344   7.204 -0.2914 -0.1428 -0.9611
  926MOL0     C22105   1.844   1.341   7.274  0.3285  0.1127  0.0076
  926MOL0     C22106   1.724   1.380   7.216 -0.3185 -0.2013 -0.8392
  926MOL0     C22107   1.727   1.444   7.090  0.9053  0.3459  0.1060
  926MOL0     O22108   1.614   1.488   7.025 -0.5110  0.1574 -0.4882
  926MOL0     C22109   1.515   1.391   6.986 -0.5849  1.0464 -0.0152
  926MOL0     C22110   1.373   1.428   7.027  0.3528  0.1124  1.3336
  926MOL0     C22111   1.321   1.557   6.963  0.9135  0.0312  0.6807
  926MOL0     C22112   1.270   1.514   6.812 -0.0008 -0.8342 -0.8046
  926MOL0     C22113   1.222   1.639   6.740 -0.6821 -0.3570  0.1576
  926MOL0     C22114   1.135   1.609   6.619  0.1155  0.6122 -1.0108
  926MOL0     C22115   1.038   1.725   6.596 -0.0231 -0.0870  0.3982
  926MOL0     C22116   0.978   1.725   6.453 -0.0081  0.0873  0.1549
  926MOL0     N22117   0.933   1.873   6.424  0.2801 -0.1010 -0.1080
  926MOL0     C22118   1.008   1.967   6.365 -0.1379  0.2346  0.4905
  926MOL0     C22119   0.939   2.083   6.373  0.2426  0.2647  0.0249
  926MOL0     C22120   0.977   2.217   6.322  0.0787  0.0452 -0.7035
  926MOL0     C22121   1.116   2.254   6.349 -0.6093  0.2913  0.0727
  926MOL0     C22122   1.131   2.409   6.341  0.0453  0.5880 -0.3648
  926MOL0     C22123   1.271   2.452   6.387 -0.3922  0.1620 -0.2816
  926MOL0     O22124   1.366   2.389   6.302 -0.0537 -0.8083  0.3805
  926MOL0     C22125   1.499   2.405   6.321  0.3314 -0.7272 -0.0121
  926MOL0     C22126   1.587   2.375   6.217  0.1655  0.1706  0.0729
  926MOL0     C22127   1.725   2.397   6.226  0.6186  0.8864 -0.1000
  926MOL0     C22128   1.783   2.438   6.350  0.1162  1.6420  0.1460
  926MOL0     C22129   1.933   2.454   6.364  1.1619 -0.8870 -0.9214
  926MOL0     O22130   1.998   2.408   6.260 -0.8155 -0.6415  0.1309
  926MOL0     C22131   2.134   2.438   6.243 -0.3982 -0.2128  0.7233
  926MOL0     C22132   2.201   2.561   6.277 -0.2926 -0.8726 -0.2627
  926MOL0     C22133   2.337   2.574   6.255 -0.1425 -1.1187  0.2304
  926MOL0     C22134   2.415   2.467   6.202 -0.6999 -0.3971  0.9984
  926MOL0     O22135   2.551   2.483   6.186  0.4765  0.2863 -0.3476
  926MOL0     C22136   2.607   2.617   6.176  0.5639  0.8546 -0.5430
  926MOL0     C22137   2.760   2.590   6.149 -0.1665 -0.1227  0.4183
  926MOL0     C22138   2.828   2.727   6.135 -0.1329 -0.1362  0.9044
  926MOL0     C22139   2.861   2.787   6.271 -0.3890 -0.5020  0.1157
  926MOL0     C22140   2.963   2.901   6.289 -0.4042  0.1159  0.0112
  926MOL0     C22141   3.040   2.883   6.417  0.0219  0.1852  0.8886
  926MOL0     C22142   3.112   3.012   6.470 -0.2657 -0.1302  0.0569
  926MOL0     C22143   3.197   2.972   6.592 -1.4348 -0.4359 -0.3882
  926MOL0    Cl22144   3.304   3.116   6.634  0.1940  0.0412 -0.2499
  926MOL0     C22145   2.345   2.351   6.171 -0.5317 -0.6303  0.4367
  926MOL0     C22146   2.212   2.343   6.180  0.3877  0.6059  0.1612
  926MOL0     O22147   1.982   2.491   6.474  0.0930 -0.2349 -0.2065
  926MOL0     C22148   1.698   2.473   6.448  0.3729 -0.2930  0.1458
  926MOL0     C22149   1.560   2.457   6.436 -0.1893 -0.3264  0.6317
  926MOL0     N22150   0.815   2.048   6.426  0.2787 -0.0997  0.0632
  926MOL0     N22151   0.817   1.925   6.464 -1.3616  0.1823 -0.4132
  926MOL0     C22152   1.849   1.446   7.018  0.1325 -1.0363 -0.5261
  926MOL0     C22153   1.966   1.405   7.080 -0.5720  0.1105 -0.1869
  926MOL0     C22154   2.199   1.171   7.413 -0.2974 -0.7599  0.1890
  926MOL0     C22155   2.265   1.278   7.483  0.1250  0.0202  1.0164
  926MOL0     C22156   2.390   1.264   7.549 -0.2772 -0.8069 -0.2637
  926MOL0     C22157   2.452   1.137   7.543  0.3556 -0.4560 -0.2746
  926MOL0     O22158   2.570   1.094   7.592  0.1716  0.2682  0.0402
  926MOL0     C22159   2.624   1.173   7.695  0.3477  0.3904 -0.7552
  926MOL0     C22160   2.733   1.092   7.769  0.2465 -0.9360 -0.0745
  926MOL0     C22161   2.860   1.088   7.683  0.4551  0.0860 -0.3164
  926MOL0     C22162   2.990   1.032   7.757  0.3656 -0.4228 -0.6630
  926MOL0     C22163   3.100   1.033   7.662  0.5304  0.4685 -0.4379
  926MOL0     C22164   3.197   1.049   7.589  0.1284  0.5510 -0.1305
  926MOL0     C22165   2.387   1.030   7.473 -0.0782 -0.1482  0.8511
  926MOL0     C22166   2.263   1.046   7.413 -0.4598 -0.4211 -0.1465
  926MOL0     H22167   1.839   1.305   7.376 -0.7024  1.9442  0.6695
  926MOL0     H22168   1.627   1.379   7.264  0.2878  1.9352  0.6023
  926MOL0     H22169   1.539   1.298   7.038 -2.0915  1.8652  2.3171
  926MOL0     H22170   1.514   1.369   6.879 -0.8030 -0.1005  0.2135
  926MOL0     H22171   1.370   1.436   7.136 -0.2201  0.9378  1.2692
  926MOL0     H22172   1.306   1.344   7.008 -0.2072 -0.2268  4.3731
  926MOL0     H22173   1.393   1.638   6.948 -0.1628  1.0395  0.8193
  926MOL0     H22174   1.234   1.593   7.018 -0.2937 -0.3910 -0.8560
  926MOL0     H22175   1.338   1.464   6.743 -0.5832 -0.0934 -1.9441
  926MOL0     H22176   1.186   1.449   6.838 -1.4369  2.0550  2.6532
  926MOL0     H22177   1.314   1.693   6.713  0.0783 -2.3934 -1.6286
  926MOL0     H22178   1.161   1.701   6.806 -0.4257 -0.2975  0.3379
  926MOL0     H22179   1.095   1.508   6.611  1.3475 -0.0631  0.7941
  926MOL0     H22180   1.207   1.614   6.536 -1.2562 -0.8688 -2.3760
  926MOL0     H22181   0.967   1.695   6.674  0.1414  1.7555  1.2924
  926MOL0     H22182   1.088   1.821   6.607  2.8952 -0.9008 -3.5403
  926MOL0     H22183   0.893   1.656   6.446 -0.7420  0.8245  1.4627
  926MOL0     H22184   1.049   1.696   6.375 -2.5643  2.4025 -3.3755
  926MOL0     H22185   1.100   1.944   6.313  0.4112 -0.5152  1.7542
  926MOL0     H22186   0.916   2.295   6.368  0.0594  0.1894 -0.9693
  926MOL0     H22187   0.960   2.226   6.214  4.9218  1.0178 -1.6132
  926MOL0     H22188   1.186   2.201   6.284 -1.3247  2.0095 -2.2368
  926MOL0     H22189   1.151   2.212   6.443 -1.3674  0.6133  0.5051
  926MOL0     H22190   1.124   2.433   6.235  0.5521  0.6629 -0.3828
  926MOL0     H22191   1.058   2.463   6.403  0.4339 -0.9787  1.5614
  926MOL0     H22192   1.285   2.414   6.488 -0.0049  0.8961 -0.0489
  926MOL0     H22193   1.271   2.562   6.385 -1.5312  0.2229  1.3325
  926MOL0     H22194   1.547   2.333   6.126  1.0973 -0.9759  0.1682
  926MOL0     H22195   1.797   2.359   6.155 -1.4693 -1.4262 -1.1328
  926MOL0     H22196   2.150   2.642   6.327  2.4832 -1.2623  3.6741
  926MOL0     H22197   2.369   2.674   6.282 -0.0620 -1.8868  3.3531
  926MOL0     H22198   2.585   2.671   6.269  1.0900  1.2272 -0.6281
  926MOL0     H22199   2.561   2.674   6.095 -1.3463  0.1243 -0.0240
  926MOL0     H22200   2.777   2.543   6.052  1.6554  3.1188 -0.9795
  926MOL0     H22201   2.804   2.530   6.230 -0.3606  0.0992  0.6922
  926MOL0     H22202   2.768   2.790   6.069  2.1776  1.7155  0.4535
  926MOL0     H22203   2.921   2.711   6.080  0.1078 -0.1036  1.2974
  926MOL0     H22204   2.769   2.832   6.310  1.0762  1.4438  1.5882
  926MOL0     H22205   2.892   2.705   6.336  3.2214 -0.0856 -0.8351
  926MOL0     H22206   2.916   3.000   6.291 -0.3278  0.1440  0.5763
  926MOL0     H22207   3.035   2.894   6.207 -1.8762  0.9822 -1.4274
  926MOL0     H22208   3.116   2.806   6.398  1.9051  1.6689  2.0675
  926MOL0     H22209   2.969   2.848   6.492 -0.2914  1.3523  1.1549
  926MOL0     H22210   3.165   3.047   6.382 -0.5338  2.0832  0.7170
  926MOL0     H22211   3.036   3.088   6.491  2.4111  3.2870 -1.6108
  926MOL0     H22212   3.245   2.874   6.596  2.3119  1.2072 -0.9017
  926MOL0     H22213   3.134   2.958   6.680 -1.0197 -2.0161 -0.3190
  926MOL0     H22214   2.404   2.272   6.125  0.2275  0.1068  0.1266
  926MOL0     H22215   2.161   2.251   6.153 -2.9192  1.5079  2.6531
  926MOL0     H22216   1.742   2.521   6.535 -0.1107  0.7221 -0.1533
  926MOL0     H22217   1.486   2.495   6.506 -1.4701  1.1621 -1.4251
  926MOL0     H22218   1.861   1.498   6.923  2.8495  0.5230  0.5773
  926MOL0     H22219   2.057   1.413   7.022  0.0392  0.4092  0.7842
  926MOL0     H22220   2.216   1.374   7.495  0.6730  0.4752 -0.2578
  926MOL0     H22221   2.426   1.347   7.610 -1.0162 -0.9200  0.3350
  926MOL0     H22222   2.551   1.196   7.774  2.0484  0.7470  0.7976
  926MOL0     H22223   2.667   1.266   7.655  2.2565 -0.3598 -0.5479
  926MOL0     H22224   2.751   1.139   7.867  0.1935  0.0737 -0.5375
  926MOL0     H22225   2.691   0.992   7.781  1.3003 -1.3318  0.4128
  926MOL0     H22226   2.876   1.191   7.648 -0.1646 -0.1807 -1.4424
  926MOL0     H22227   2.850   1.018   7.600  2.2788  0.0040 -0.4991
  926MOL0     H22228   3.003   1.096   7.845 -3.0529 -1.8983  1.0890
  926MOL0     H22229   2.977   0.930   7.791  0.4224  0.1670  1.2070
  926MOL0     H22230   3.288   1.065   7.537 -0.4750  3.0392 -0.5187
  926MOL0     H22231   2.443   0.937   7.472 -2.7453 -1.9077 -1.9154
  926MOL0     H22232   2.218   0.963   7.359 -1.5159 -1.2775  1.9297
  927MOL0     O22233   3.334   6.186  10.028  0.5154 -0.4887  0.1507
  927MOL0     C22234   3.430   6.113  10.049  0.2401 -0.1495  0.1678
  927MOL0     O22235   3.428   5.978  10.044  0.3437  0.2379 -0.0411
  927MOL0     C22236   3.306   5.916  10.008  0.1878 -0.0734 -1.1238
  927MOL0     C22237   3.294   5.823   9.906 -0.6451  0.3510 -0.3906
  927MOL0     C22238   3.171   5.756   9.879 -0.4840  0.3725 -0.2672
  927MOL0     C22239   3.058   5.775   9.951 -0.3481  0.0923 -0.4160
  927MOL0     O22240   2.936   5.721   9.947  0.1134  0.9682  0.1622
  927MOL0     C22241   2.907   5.616   9.854 -0.7984  0.7428  0.2144
  927MOL0     C22242   2.755   5.588   9.857  0.5755 -0.0326 -0.2872
  927MOL0     C22243   2.676   5.683   9.767  0.1109  1.4412 -0.3866
  927MOL0     C22244   2.526   5.650   9.793  0.3750  0.0601  0.1103
  927MOL0     C22245   2.484   5.522   9.730  0.3927 -0.1374 -0.4387
  927MOL0     C22246   2.344   5.492   9.725  0.2517 -0.1953  0.2468
  927MOL0     C22247   2.272   5.507   9.856 -0.5688  0.4694 -0.3448
  927MOL0     C22248   2.124   5.492   9.843  0.5023 -0.4853  0.9281
  927MOL0     N22249   2.072   5.457   9.969  0.5259  0.3827  0.3763
  927MOL0     C22250   2.034   5.555  10.060  0.1257  0.6824  1.4091
  927MOL0     C22251   1.950   5.490  10.144 -0.1203 -0.3041 -0.1848
  927MOL0     C22252   1.885   5.544  10.267  0.3836 -0.0124 -0.4812
  927MOL0     C22253   1.958   5.517  10.403 -0.4478  0.4950  0.5951
  927MOL0     C22254   1.883   5.571  10.526  0.4084  0.4518 -0.5596
  927MOL0     C22255   1.759   5.483  10.563  0.4146 -1.0877  0.3377
  927MOL0     O22256   1.795   5.354  10.591 -0.7093  0.2915  0.5477
  927MOL0     C22257   1.698   5.271  10.632  0.8322  0.1804 -0.9108
  927MOL0     C22258   1.744   5.192  10.747 -0.9070 -0.9722  0.8267
  927MOL0     C22259   1.654   5.115  10.803 -1.0522 -0.5819 -0.2751
  927MOL0     C22260   1.515   5.124  10.768  0.5468  0.3542 -0.5386
  927MOL0     C22261   1.412   5.035  10.844 -0.4690 -0.6381  0.1649
  927MOL0     O22262   1.288   5.020  10.779  0.0974  0.6689 -0.8917
  927MOL0     C22263   1.193   4.947  10.844  0.2412 -0.2044 -0.3402
  927MOL0     C22264   1.064   4.991  10.818  0.1418  0.1418  0.7369
  927MOL0     C22265   0.956   4.930  10.881  0.8252  0.1239 -0.3708
  927MOL0     C22266   0.965   4.818  10.960 -1.1854  0.0934  0.3885
  927MOL0     O22267   0.857   4.754  11.001  0.1750 -0.0059  0.6275
  927MOL0     C22268   0.871   4.637  11.088 -0.5016  0.4156  0.2334
  927MOL0     C22269   0.725   4.595  11.109  0.0469 -0.0360 -0.2491
  927MOL0     C22270   0.694   4.481  11.212 -0.0809 -0.4385  0.7827
  927MOL0     C22271   0.545   4.458  11.226 -0.2283 -0.4310 -0.3386
  927MOL0     C22272   0.517   4.347  11.334  0.0330  0.5216  0.2115
  927MOL0     C22273   0.379   4.361  11.380 -0.4376  0.1113  0.0934
  927MOL0     C22274   0.277   4.333  11.270  0.0203 -0.0794  0.1179
  927MOL0     C22275   0.136   4.322  11.325  0.5534 -0.9100  0.6594
  927MOL0    Cl22276   0.117   4.189  11.438  0.7266 -0.5576  0.3215
  927MOL0     C22277   1.096   4.759  10.972 -0.3460 -0.4831  1.2175
  927MOL0     C22278   1.205   4.824  10.912  0.7567 -0.9512 -0.6185
  927MOL0     O22279   1.440   4.998  10.960  0.3444 -0.3886 -0.7296
  927MOL0     C22280   1.476   5.190  10.654  0.9315  1.0984 -0.1478
  927MOL0     C22281   1.564   5.263  10.592  0.1493 -0.8169  0.1808
  927MOL0     N22282   1.936   5.362  10.099  0.5905 -0.4440 -0.4560
  927MOL0     N22283   2.005   5.339   9.991 -0.0921  0.1541  0.0696
  927MOL0     C22284   3.076   5.864  10.059 -0.3953  0.2414  0.2410
  927MOL0     C22285   3.191   5.937  10.086  0.1521  0.2185 -0.1642
  927MOL0     C22286   3.559   6.192  10.054 -0.6134  0.2887 -0.3209
  927MOL0     C22287   3.572   6.323  10.101  0.4938 -0.4228  0.1319
  927MOL0     C22288   3.704   6.378  10.114 -0.0177 -0.5741 -0.4223
  927MOL0     C22289   3.814   6.299  10.078 -0.6204  0.2943 -0.3928
  927MOL0     O22290   3.943   6.331  10.099 -0.4519  0.7144 -0.3369
  927MOL0     C22291   3.968   6.411  10.223  0.3037  0.0664  0.1783
  927MOL0     C22292   4.120   6.424  10.228 -0.7416  0.0808 -0.1929
  927MOL0     C22293   4.173   6.290  10.299 -0.6366 -0.6139  1.0264
  927MOL0     C22294   4.300   6.322  10.381 -0.4092  0.7671  0.2230
  927MOL0     C22295   4.419   6.358  10.304 -0.1567  0.5110 -0.2280
  927MOL0     C22296   4.515   6.383  10.231  0.1463  0.4372 -0.0586
  927MOL0     C22297   3.805   6.171  10.029  0.4741  0.2177  0.3965
  927MOL0     C22298   3.678   6.116  10.013  0.0371 -0.4381 -0.3756
  927MOL0     H22299   3.385   5.799   9.852  0.3986  4.1625 -0.6280
  927MOL0     H22300   3.154   5.686   9.798  1.0878  0.0453 -0.3600
  927MOL0     H22301   2.957   5.523   9.885  0.1106  0.6515 -1.4266
  927MOL0     H22302   2.947   5.638   9.755 -0.3673  3.6859  0.9498
  927MOL0     H22303   2.720   5.587   9.961 -1.5158 -4.2046 -0.8342
  927MOL0     H22304   2.733   5.487   9.822  1.1629 -0.1325 -0.3780
  927MOL0     H22305   2.696   5.640   9.669 -1.3930 -3.0045  0.9998
  927MOL0     H22306   2.695   5.789   9.785  0.6167  1.2629  0.1654
  927MOL0     H22307   2.506   5.655   9.900 -1.2599  0.9703 -0.1991
  927MOL0     H22308   2.471   5.734   9.748 -2.5313 -1.2619  0.9109
  927MOL0     H22309   2.536   5.452   9.795 -0.4548  0.6690  1.1628
  927MOL0     H22310   2.515   5.524   9.625 -3.5275 -1.2646 -1.8084
  927MOL0     H22311   2.333   5.391   9.685 -1.4592  0.6503 -1.5990
  927MOL0     H22312   2.304   5.556   9.646 -0.6751 -2.8927 -1.6032
  927MOL0     H22313   2.312   5.426   9.919  0.5844 -0.2425 -1.8856
  927MOL0     H22314   2.295   5.603   9.903  0.8056 -0.3940  0.8340
  927MOL0     H22315   2.110   5.416   9.766  0.0789  0.0786  0.4406
  927MOL0     H22316   2.073   5.580   9.803  0.2771 -1.2175 -0.4328
  927MOL0     H22317   2.058   5.660  10.053  0.5222  0.5238  0.1914
  927MOL0     H22318   1.785   5.499  10.269 -0.3404  1.3215 -2.6600
  927MOL0     H22319   1.860   5.650  10.257 -2.4394 -0.5326  0.1869
  927MOL0     H22320   2.054   5.569  10.406 -0.1440 -0.1110  1.9495
  927MOL0     H22321   1.980   5.410  10.410 -0.8521 -0.0041 -3.4072
  927MOL0     H22322   1.957   5.559  10.606  0.4961  0.0947 -0.6931
  927MOL0     H22323   1.861   5.676  10.508  0.8867  1.2190  2.6905
  927MOL0     H22324   1.690   5.496  10.479  2.3188 -1.1986 -1.3248
  927MOL0     H22325   1.711   5.529  10.650 -1.0824 -0.9765 -0.5069
  927MOL0     H22326   1.842   5.201  10.794 -1.9589  0.9902  2.8067
  927MOL0     H22327   1.681   5.053  10.887 -0.2965 -0.9065 -0.7470
  927MOL0     H22328   1.046   5.091  10.780 -0.9044 -1.0492 -2.1648
  927MOL0     H22329   0.859   4.978  10.884 -0.8331 -2.8205  4.3180
  927MOL0     H22330   0.918   4.649  11.186  0.7503 -2.2136  0.0531
  927MOL0     H22331   0.931   4.560  11.038 -0.3562  1.7545 -1.7357
  927MOL0     H22332   0.686   4.561  11.012 -1.5453  1.3091 -0.1299
  927MOL0     H22333   0.671   4.687  11.132 -2.1939 -0.4407 -3.2421
  927MOL0     H22334   0.731   4.511  11.310  3.1385 -0.6579 -0.2419
  927MOL0     H22335   0.743   4.389  11.180  0.0012 -0.1916  0.1732
  927MOL0     H22336   0.512   4.555  11.263  2.4151  2.1220 -3.9713
  927MOL0     H22337   0.507   4.440  11.125 -0.6802  2.1319 -0.6953
  927MOL0     H22338   0.590   4.350  11.416 -1.1815  0.7989  1.3165
  927MOL0     H22339   0.524   4.248  11.288 -0.6050 -0.3890  1.9538
  927MOL0     H22340   0.371   4.461  11.423 -0.7397 -0.0603  0.4444
  927MOL0     H22341   0.364   4.287  11.460 -0.7566 -1.1227 -1.0686
  927MOL0     H22342   0.286   4.412  11.194  0.0759 -0.8552 -0.7068
  927MOL0     H22343   0.305   4.245  11.212 -0.2892 -0.5905  0.7380
  927MOL0     H22344   0.072   4.309  11.237 -0.0720  4.9688 -0.1400
  927MOL0     H22345   0.103   4.417  11.368 -0.0152 -0.0447 -1.5432
  927MOL0     H22346   1.124   4.674  11.033 -0.0593  0.0183  1.7980
  927MOL0     H22347   1.307   4.788  10.921  2.5111  2.5037 -3.8592
  927MOL0     H22348   1.370   5.203  10.633  0.2622 -1.5457  1.0516
  927MOL0     H22349   1.535   5.335  10.516 -1.4354 -0.6205  0.9365
  927MOL0     H22350   2.987   5.889  10.117 -0.6819 -0.7208  0.2419
  927MOL0     H22351   3.212   6.014  10.159  2.9177 -1.7130  1.2777
  927MOL0     H22352   3.488   6.387  10.130  0.2998  0.0736 -1.4112
  927MOL0     H22353   3.723   6.478  10.151 -0.4210 -0.6240 -0.0695
  927MOL0     H22354   3.921   6.371  10.313 -1.5229  0.2630 -0.6356
  927MOL0     H22355   3.925   6.509  10.199 -1.8916 -0.2628  2.3733
  927MOL0     H22356   4.176   6.431  10.134 -1.4283 -0.5777 -0.6564
  927MOL0     H22357   4.145   6.515  10.283  0.7729  0.2409 -1.0884
  927MOL0     H22358   4.195   6.219  10.219  0.0873  0.2442  0.4449
  927MOL0     H22359   4.104   6.248  10.373 -0.2375 -0.0813  1.7151
  927MOL0     H22360   4.283   6.414  10.439 -0.6580  1.2364 -0.5861
  927MOL0     H22361   4.328   6.237  10.444  0.8378  0.2640 -0.9782
  927MOL0     H22362   4.603   6.399  10.171  0.7990 -1.7758  0.2358
  927MOL0     H22363   3.887   6.104  10.007 -0.7488 -0.5111 -2.4090
  927MOL0     H22364   3.680   6.012   9.981  1.3867 -0.9624  1.2527
  928MOL0     O22365   0.441  10.570   4.846 -0.4538  0.1542 -0.2695
  928MOL0     C22366   0.492  10.555   4.738  0.0820 -0.0782  0.0739
  928MOL0     O22367   0.438  10.486   4.629  0.2903 -0.4617  0.0183
  928MOL0     C22368   0.310  10.436   4.639  0.2436 -0.3727  0.1130
  928MOL0     C22369   0.283  10.293   4.640 -0.8446 -0.7920  0.5501
  928MOL0     C22370   0.151  10.246   4.652 -0.2466 -1.3095  0.1413
  928MOL0     C22371   0.044  10.338   4.655  0.1678 -0.6918  0.0340
  928MOL0     O22372  -0.087  10.302   4.671  0.7516  0.4665  0.1904
  928MOL0     C22373  -0.137  10.162   4.654 -0.1002 -0.3424 -0.3556
  928MOL0     C22374  -0.290  10.133   4.686  0.8374 -0.0860  0.6086
  928MOL0     C22375  -0.371  10.247   4.631 -0.3454 -0.0966  0.1050
  928MOL0     C22376  -0.517  10.212   4.638  0.5116  0.2975  0.0330
  928MOL0     C22377  -0.603  10.308   4.555 -0.2199 -0.2113 -0.0119
  928MOL0     C22378  -0.734  10.246   4.507 -0.1795  0.9885  0.4687
  928MOL0     C22379  -0.832  10.217   4.614  0.3510  0.1150 -0.5011
  928MOL0     C22380  -0.958  10.147   4.562  0.2645  0.1012  0.0521
  928MOL0     N22381  -1.053  10.241   4.515 -0.2122  0.5549 -0.2974
  928MOL0     C22382  -1.150  10.294   4.595 -0.5020  0.4191 -0.4379
  928MOL0     C22383  -1.197  10.401   4.529  0.7789  0.1982  0.1669
  928MOL0     C22384  -1.313  10.484   4.587 -0.2922 -0.0871  0.3475
  928MOL0     C22385  -1.263  10.629   4.618  0.0804  0.5507 -0.0743
  928MOL0     C22386  -1.349  10.757   4.595  0.2006  0.2203  0.7752
  928MOL0     C22387  -1.482  10.741   4.661 -0.6014 -0.5065  0.0634
  928MOL0     O22388  -1.469  10.716   4.796 -0.4042 -0.3567  0.5830
  928MOL0     C22389  -1.576  10.670   4.866  0.1836 -0.8654  0.9540
  928MOL0     C22390  -1.559  10.604   4.989 -0.3333 -0.6235  0.1756
  928MOL0     C22391  -1.673  10.554   5.050 -1.3345  0.1649 -0.5198
  928MOL0     C22392  -1.803  10.581   5.018  0.4483 -0.0786  0.5537
  928MOL0     C22393  -1.924  10.549   5.091 -0.6086 -0.0535 -0.3906
  928MOL0     O22394  -2.041  10.575   5.034  0.8836  0.0266 -0.3781
  928MOL0     C22395  -2.156  10.595   5.107  0.5155  0.0679  0.1915
  928MOL0     C22396  -2.160  10.617   5.246  0.9040 -0.0461  0.2817
  928MOL0     C22397  -2.295  10.611   5.299 -0.8789  0.9976  0.0009
  928MOL0     C22398  -2.410  10.600   5.217 -0.1559  0.5966 -0.0244
  928MOL0     O22399  -2.531  10.606   5.285  1.0581  0.2601  0.2979
  928MOL0     C22400  -2.657  10.625   5.212  0.2470 -0.8071 -0.5821
  928MOL0     C22401  -2.769  10.581   5.310 -0.1972  0.0776 -0.2814
  928MOL0     C22402  -2.900  10.603   5.264 -0.1023  0.1111  0.3470
  928MOL0     C22403  -2.999  10.573   5.372  0.5658 -0.2111  0.1925
  928MOL0     C22404  -3.144  10.605   5.331  0.3722  0.3917  0.2782
  928MOL0     C22405  -3.245  10.541   5.438 -0.3023 -0.1379 -0.4819
  928MOL0     C22406  -3.393  10.575   5.419  0.0476 -0.5052  0.8308
  928MOL0     C22407  -3.480  10.462   5.450  0.2923 -0.2761  0.3076
  928MOL0    Cl22408  -3.648  10.508   5.410  0.0629  0.2266  0.1483
  928MOL0     C22409  -2.404  10.596   5.077  0.6361  0.3105 -0.4717
  928MOL0     C22410  -2.277  10.592   5.025 -1.3111 -0.5718 -0.5431
  928MOL0     O22411  -1.912  10.490   5.202 -0.5751  0.6247 -0.7133
  928MOL0     C22412  -1.818  10.651   4.898  0.5677 -0.6235 -1.7444
  928MOL0     C22413  -1.708  10.702   4.827 -0.3869  0.9888 -0.5976
  928MOL0     N22414  -1.147  10.400   4.406 -0.4885 -0.4414 -0.0675
  928MOL0     N22415  -1.051  10.310   4.401  0.5550  0.5201  0.0199
  928MOL0     C22416   0.073  10.477   4.652  0.1230  0.6415 -0.7312
  928MOL0     C22417   0.203  10.527   4.649  0.2723 -0.1092  0.2148
  928MOL0     C22418   0.619  10.612   4.725  0.3876 -0.3416 -0.7447
  928MOL0     C22419   0.671  10.709   4.817  0.0130 -0.1871 -0.5981
  928MOL0     C22420   0.795  10.756   4.796  0.0246  0.3134 -0.0466
  928MOL0     C22421   0.866  10.715   4.680 -0.1896  0.1026  0.0834
  928MOL0     O22422   0.986  10.773   4.674  0.0660 -0.9574  0.1982
  928MOL0     C22423   1.064  10.742   4.557 -0.3572  0.5375 -0.8934
  928MOL0     C22424   1.198  10.795   4.588  0.1021 -0.3577  0.0175
  928MOL0     C22425   1.276  10.751   4.463 -0.6129  0.7375 -0.8577
  928MOL0     C22426   1.429  10.785   4.475  0.3087  0.1431 -0.2666
  928MOL0     C22427   1.453  10.929   4.468 -0.5155 -0.1482  0.3795
  928MOL0     C22428   1.478  11.049   4.475  0.2423  0.1437  0.0594
  928MOL0     C22429   0.812  10.629   4.587 -0.0989  0.2613 -0.4113
  928MOL0     C22430   0.689  10.577   4.612 -1.4553  0.0157  0.3565
  928MOL0     H22431   0.361  10.218   4.631 -2.1974 -2.0371 -1.6474
  928MOL0     H22432   0.125  10.141   4.648  1.0194 -1.6580  0.4570
  928MOL0     H22433  -0.082  10.095   4.721  0.1078  0.8790  0.7135
  928MOL0     H22434  -0.104  10.130   4.554  0.4480  2.1984 -1.0518
  928MOL0     H22435  -0.292  10.116   4.794 -0.4742  2.6305  1.0905
  928MOL0     H22436  -0.325  10.042   4.637  0.4255  0.0587  0.6293
  928MOL0     H22437  -0.350  10.263   4.525  0.2599 -1.1127  0.0533
  928MOL0     H22438  -0.350  10.338   4.688  0.9254 -0.0596 -0.3940
  928MOL0     H22439  -0.533  10.116   4.589 -0.3014  0.5815 -0.2676
  928MOL0     H22440  -0.542  10.194   4.743  2.5704 -1.1374  0.3489
  928MOL0     H22441  -0.548  10.344   4.467 -3.1670  0.8962 -1.5227
  928MOL0     H22442  -0.624  10.390   4.625  2.7208 -0.7425  1.6634
  928MOL0     H22443  -0.716  10.156   4.446 -0.4057 -0.2098  2.0884
  928MOL0     H22444  -0.783  10.312   4.435 -1.3910 -1.4936 -1.1451
  928MOL0     H22445  -0.789  10.154   4.692 -2.4598  0.9259  1.8806
  928MOL0     H22446  -0.856  10.315   4.657  1.6972 -0.0337  0.6455
  928MOL0     H22447  -1.002  10.091   4.645  0.6128  0.8226  0.7360
  928MOL0     H22448  -0.931  10.074   4.484 -0.6204 -1.3589  1.0708
  928MOL0     H22449  -1.164  10.276   4.701  1.9018  3.0510  0.4621
  928MOL0     H22450  -1.345  10.434   4.679  0.8948 -0.0874  0.7806
  928MOL0     H22451  -1.397  10.481   4.517  1.7588 -0.2340 -2.2589
  928MOL0     H22452  -1.173  10.650   4.559  0.1753  2.7730  0.7624
  928MOL0     H22453  -1.233  10.626   4.723 -1.9131 -0.1620  0.5008
  928MOL0     H22454  -1.293  10.845   4.629  0.7736 -0.0189  0.4849
  928MOL0     H22455  -1.360  10.774   4.487 -0.3902  0.9138  0.9436
  928MOL0     H22456  -1.543  10.661   4.618  0.6252  0.7707 -4.5958
  928MOL0     H22457  -1.531  10.839   4.654 -3.9443 -1.8125  2.5004
  928MOL0     H22458  -1.460  10.578   5.025  0.5717 -1.0900 -2.4562
  928MOL0     H22459  -1.658  10.501   5.143 -0.3191 -0.0774 -0.8030
  928MOL0     H22460  -2.076  10.621   5.314  0.7455 -3.4859  0.8419
  928MOL0     H22461  -2.316  10.622   5.405  0.9918 -0.3284  0.5602
  928MOL0     H22462  -2.668  10.570   5.118 -1.4754 -0.8847 -0.3710
  928MOL0     H22463  -2.670  10.728   5.176 -1.4719 -0.0081  2.0441
  928MOL0     H22464  -2.757  10.637   5.404 -1.1776 -0.6550  0.2956
  928MOL0     H22465  -2.756  10.473   5.322  0.8237  0.3855  2.1187
  928MOL0     H22466  -2.921  10.532   5.183 -1.6143 -0.2525  1.0251
  928MOL0     H22467  -2.914  10.703   5.224 -1.1580 -0.0329  0.3209
  928MOL0     H22468  -2.995  10.469   5.405 -0.5941 -0.6688 -0.9944
  928MOL0     H22469  -2.974  10.631   5.461  3.0476 -0.7250 -0.1054
  928MOL0     H22470  -3.177  10.572   5.232  0.9511  0.7834 -0.0509
  928MOL0     H22471  -3.157  10.713   5.324  1.4442  0.4401 -2.3334
  928MOL0     H22472  -3.222  10.588   5.534  1.2139 -0.9685 -0.4100
  928MOL0     H22473  -3.238  10.433   5.451  0.9674  0.0409  0.5668
  928MOL0     H22474  -3.419  10.650   5.493  1.5913 -0.1054  1.0157
  928MOL0     H22475  -3.399  10.610   5.316 -2.1040  1.4298  1.5499
  928MOL0     H22476  -3.471  10.424   5.552  0.1089 -0.9093  0.0915
  928MOL0     H22477  -3.461  10.375   5.387  1.8937 -2.0624  3.0605
  928MOL0     H22478  -2.487  10.587   5.008  0.9571  0.3788 -0.8678
  928MOL0     H22479  -2.266  10.574   4.919  2.2116  0.5186 -0.4882
  928MOL0     H22480  -1.918  10.680   4.866 -1.3182 -3.4035  1.1346
  928MOL0     H22481  -1.715  10.751   4.730  0.2074 -2.2787 -2.4387
  928MOL0     H22482  -0.003  10.555   4.651 -0.7727 -0.2074 -1.9546
  928MOL0     H22483   0.207  10.636   4.649  0.7177  0.0701 -3.9267
  928MOL0     H22484   0.611  10.756   4.895  0.1383 -2.0518  0.7137
  928MOL0     H22485   0.834  10.839   4.854  2.0466  0.4443 -1.4710
  928MOL0     H22486   1.013  10.781   4.468  1.2676  0.8110 -1.7413
  928MOL0     H22487   1.069  10.633   4.557  0.4396  0.5665 -0.8944
  928MOL0     H22488   1.187  10.904   4.587 -3.5220 -0.5805  1.3900
  928MOL0     H22489   1.239  10.748   4.677  1.8278  0.1792 -0.4567
  928MOL0     H22490   1.227  10.802   4.380 -1.0692  2.0155  0.1418
  928MOL0     H22491   1.266  10.642   4.460 -1.6800  0.4668  3.7957
  928MOL0     H22492   1.462  10.738   4.569 -3.1995 -4.2148 -0.8832
  928MOL0     H22493   1.478  10.726   4.397 -0.6314  0.0236 -0.7681
  928MOL0     H22494   1.506  11.152   4.480  2.0775 -0.2282 -1.4502
  928MOL0     H22495   0.859  10.604   4.493  1.0699  1.4171 -0.1649
  928MOL0     H22496   0.650  10.504   4.541 -0.4499  1.8964 -2.2898
  929MOL0     O22497  10.985   0.949   0.301  0.1289  0.2955  0.3828
  929MOL0     C22498  10.950   0.855   0.371  0.4271 -0.0798  0.8423
  929MOL0     O22499  10.819   0.819   0.393  0.2555 -0.6603  0.5217
  929MOL0     C22500  10.714   0.893   0.341 -0.1158  0.8177 -0.9975
  929MOL0     C22501  10.620   0.824   0.264  0.2645 -0.1459  0.4273
  929MOL0     C22502  10.505   0.894   0.215  0.1241 -0.5273 -0.4289
  929MOL0     C22503  10.478   1.028   0.263  0.7584 -0.2871 -0.3734
  929MOL0     O22504  10.359   1.085   0.215  0.2764  0.1306  0.2684
  929MOL0     C22505  10.293   1.203   0.282  0.2197  0.1454 -0.2279
  929MOL0     C22506  10.140   1.206   0.255 -0.3258 -0.5818  0.5621
  929MOL0     C22507  10.068   1.085   0.312  0.2206 -0.1384  0.5859
  929MOL0     C22508   9.914   1.099   0.294  0.1194  0.2379 -0.5892
  929MOL0     C22509   9.837   0.978   0.357 -0.3581 -0.6069  0.1247
  929MOL0     C22510   9.686   0.987   0.324 -0.1543 -0.8574 -0.5096
  929MOL0     C22511   9.614   0.844   0.330 -0.2049  0.1010  0.1268
  929MOL0     C22512   9.461   0.851   0.320 -0.1087 -0.4295  0.1502
  929MOL0     N22513   9.423   0.847   0.182 -0.0399 -0.8653  0.0824
  929MOL0     C22514   9.448   0.745   0.097 -0.0833  0.1892  0.1873
  929MOL0     C22515   9.371   0.764  -0.011  0.9022  0.2681  0.1313
  929MOL0     C22516   9.377   0.669  -0.130 -0.4609 -0.1981 -0.7160
  929MOL0     C22517   9.444   0.737  -0.253  0.2835 -0.6001 -0.9475
  929MOL0     C22518   9.374   0.866  -0.313  0.4664  0.2151 -0.0995
  929MOL0     C22519   9.223   0.850  -0.371 -0.2576  0.2315 -0.0259
  929MOL0     O22520   9.140   0.868  -0.258 -0.0510  0.5617  0.2360
  929MOL0     C22521   9.004   0.884  -0.260 -0.5907  0.4698  0.0734
  929MOL0     C22522   8.952   0.908  -0.144  0.3351 -0.4290 -0.4740
  929MOL0     C22523   8.815   0.920  -0.135  0.2083 -1.3183 -0.1876
  929MOL0     C22524   8.729   0.906  -0.243 -0.7721  0.5186 -0.8738
  929MOL0     C22525   8.589   0.900  -0.220  0.5274  0.0918  1.2890
  929MOL0     O22526   8.515   0.856  -0.329 -0.2178 -0.8223  0.3511
  929MOL0     C22527   8.383   0.859  -0.309  0.4534  0.6136  0.1650
  929MOL0     C22528   8.326   0.752  -0.236 -0.0430  1.2188  1.4047
  929MOL0     C22529   8.187   0.737  -0.242  0.2123 -0.4586  0.1049
  929MOL0     C22530   8.101   0.827  -0.309  0.2981  0.2355 -0.5398
  929MOL0     O22531   7.964   0.804  -0.310  0.2585 -0.0538  0.2306
  929MOL0     C22532   7.872   0.905  -0.357 -0.5471 -0.2614  0.2364
  929MOL0     C22533   7.726   0.870  -0.359  0.5542 -0.5236 -0.7920
  929MOL0     C22534   7.641   0.956  -0.446 -0.3071  0.7341 -0.0436
  929MOL0     C22535   7.486   0.915  -0.435  0.8608 -0.1252  0.3948
  929MOL0     C22536   7.421   0.986  -0.313  0.0262 -0.5324 -0.0927
  929MOL0     C22537   7.282   0.951  -0.304  0.1548 -0.5300  0.4423
  929MOL0     C22538   7.222   0.992  -0.173  0.3282  0.8854  0.6921
  929MOL0     C22539   7.073   0.938  -0.169  0.2538  0.7182  0.0901
  929MOL0    Cl22540   6.982   0.969  -0.324 -0.3643 -0.1032 -0.0458
  929MOL0     C22541   8.164   0.928  -0.384  0.2075  0.2607  0.4167
  929MOL0     C22542   8.307   0.940  -0.382  1.1644 -0.3363 -0.2246
  929MOL0     O22543   8.537   0.944  -0.125 -0.2186  0.0160  0.0668
  929MOL0     C22544   8.785   0.875  -0.365 -0.8866 -0.0639 -0.3047
  929MOL0     C22545   8.925   0.868  -0.381  0.9192  0.1422  0.0032
  929MOL0     N22546   9.306   0.892   0.009  0.4859  0.0980  0.7049
  929MOL0     N22547   9.338   0.943   0.122 -1.2024 -0.0468  0.8942
  929MOL0     C22548  10.563   1.084   0.353  0.0522  0.4291  0.3497
  929MOL0     C22549  10.681   1.020   0.388 -0.1253  0.7372  0.1549
  929MOL0     C22550  11.051   0.764   0.435  1.0321  0.0977  0.4165
  929MOL0     C22551  11.193   0.801   0.434 -0.2410  0.6722  0.4859
  929MOL0     C22552  11.285   0.714   0.491 -0.3136 -0.2425  0.3006
  929MOL0     C22553  11.249   0.585   0.541 -0.7042  0.1623 -0.1264
  929MOL0     O22554  11.351   0.507   0.577 -0.0953  0.4699  0.0650
  929MOL0     C22555  11.323   0.366   0.592 -0.1405 -0.1094  0.1273
  929MOL0     C22556  11.469   0.311   0.621  0.2568  0.6787 -0.5707
  929MOL0     C22557  11.478   0.154   0.654 -0.1751 -0.8957 -0.8904
  929MOL0     C22558  11.617   0.102   0.696 -1.0926 -1.2882 -0.0043
  929MOL0     C22559  11.612  -0.040   0.725 -0.7267 -0.2010 -0.0839
  929MOL0     C22560  11.599  -0.155   0.758  0.3352 -0.4849 -0.1309
  929MOL0     C22561  11.110   0.553   0.548 -0.0463 -0.5446  0.5670
  929MOL0     C22562  11.016   0.645   0.500  0.5448 -0.9211  0.5075
  929MOL0     H22563  10.641   0.722   0.233 -3.7488 -0.9204 -0.3149
  929MOL0     H22564  10.438   0.843   0.147 -0.0889  0.3744 -0.9160
  929MOL0     H22565  10.341   1.294   0.245  0.0517  0.1127 -0.5253
  929MOL0     H22566  10.304   1.199   0.391 -2.4273 -1.3719  0.0584
  929MOL0     H22567  10.119   1.221   0.149  0.2414  0.5934  0.6049
  929MOL0     H22568  10.086   1.291   0.298 -3.1834 -1.8257 -0.2986
  929MOL0     H22569  10.076   1.093   0.421 -2.9276  0.2562  0.8847
  929MOL0     H22570  10.099   0.985   0.278 -2.3386 -0.3901 -1.2582
  929MOL0     H22571   9.880   1.187   0.348  0.0744 -0.5925  0.7904
  929MOL0     H22572   9.892   1.100   0.186 -0.3864  1.0532 -0.4879
  929MOL0     H22573   9.853   0.983   0.466  0.5913 -0.6841  0.0001
  929MOL0     H22574   9.881   0.891   0.307  1.0573  1.5695 -2.6915
  929MOL0     H22575   9.672   1.023   0.222 -0.8556 -1.9394 -0.8271
  929MOL0     H22576   9.636   1.060   0.387 -1.9933 -0.6810 -2.0494
  929MOL0     H22577   9.661   0.792   0.245  0.5728  0.7090  0.1779
  929MOL0     H22578   9.627   0.788   0.423  0.3266 -1.0343 -0.6063
  929MOL0     H22579   9.429   0.944   0.367 -0.4290 -0.1881 -0.5243
  929MOL0     H22580   9.407   0.771   0.370  2.0155 -2.9251 -1.2730
  929MOL0     H22581   9.507   0.654   0.104 -1.7095 -0.7751  3.3345
  929MOL0     H22582   9.278   0.639  -0.166 -2.0638  2.3034  1.2316
  929MOL0     H22583   9.444   0.590  -0.096  0.7393  1.8749  2.1040
  929MOL0     H22584   9.433   0.660  -0.330 -1.2178 -3.7719  2.1472
  929MOL0     H22585   9.547   0.759  -0.224  0.0725 -1.8763  0.9390
  929MOL0     H22586   9.380   0.957  -0.253 -0.2243  3.1634 -4.0689
  929MOL0     H22587   9.442   0.890  -0.395  2.0704 -1.2853  0.7339
  929MOL0     H22588   9.197   0.753  -0.413  0.5654 -0.2601  0.5644
  929MOL0     H22589   9.221   0.927  -0.449  2.4383  0.0834 -0.3582
  929MOL0     H22590   9.021   0.922  -0.062  0.3447 -0.2894 -0.5075
  929MOL0     H22591   8.773   0.945  -0.039 -0.3761 -0.7338 -0.5880
  929MOL0     H22592   8.387   0.687  -0.175 -2.0066 -1.6022  0.5813
  929MOL0     H22593   8.146   0.663  -0.175  0.5385  1.0982  2.1201
  929MOL0     H22594   7.893   0.924  -0.463  0.1185  0.4568  0.4852
  929MOL0     H22595   7.900   0.995  -0.302 -1.8442  0.3647 -0.1016
  929MOL0     H22596   7.677   0.871  -0.261  0.9470 -1.8231 -0.5600
  929MOL0     H22597   7.721   0.765  -0.389  3.2338 -1.0301  0.2347
  929MOL0     H22598   7.672   0.945  -0.551 -0.5679 -1.0241  0.0270
  929MOL0     H22599   7.649   1.059  -0.412  1.6634 -0.4036  3.3825
  929MOL0     H22600   7.441   0.946  -0.529  1.5004 -0.0931  0.0916
  929MOL0     H22601   7.479   0.805  -0.439  1.9418 -0.1662 -2.0987
  929MOL0     H22602   7.436   1.094  -0.323  0.3073 -0.7342 -2.5937
  929MOL0     H22603   7.472   0.962  -0.220 -0.3625 -2.1801 -0.2675
  929MOL0     H22604   7.272   0.843  -0.316  0.6332 -0.5155 -0.1725
  929MOL0     H22605   7.239   0.992  -0.396  1.4430 -1.9280 -0.8474
  929MOL0     H22606   7.278   0.944  -0.092  0.5299  0.4537  0.3043
  929MOL0     H22607   7.234   1.100  -0.169  1.7409  0.7923 -0.3285
  929MOL0     H22608   7.029   0.984  -0.080 -0.2868 -0.8890  0.6885
  929MOL0     H22609   7.075   0.830  -0.150  0.5863  0.7584  0.3061
  929MOL0     H22610   8.102   0.967  -0.464 -3.4414  1.1332  3.3634
  929MOL0     H22611   8.361   1.002  -0.453  0.3436  1.0578  0.3159
  929MOL0     H22612   8.741   0.867  -0.464 -0.2501  0.9643 -0.6901
  929MOL0     H22613   8.963   0.839  -0.479 -1.4683 -0.4438 -0.8249
  929MOL0     H22614  10.537   1.182   0.392 -0.7387  0.3400  0.0661
  929MOL0     H22615  10.755   1.064   0.455  1.0950  2.8013 -2.3440
  929MOL0     H22616  11.219   0.898   0.393 -0.9632  0.3280 -0.8710
  929MOL0     H22617  11.390   0.741   0.497 -0.0539 -1.3679  1.1677
  929MOL0     H22618  11.288   0.322   0.498  2.4427 -2.8258  0.2844
  929MOL0     H22619  11.257   0.343   0.676  0.1489  2.0846  1.0097
  929MOL0     H22620  11.529   0.324   0.530 -1.0459  1.3701 -1.3541
  929MOL0     H22621  11.518   0.366   0.702 -1.5155  1.7782 -0.2060
  929MOL0     H22622  11.452   0.118   0.553 -0.8848  0.7542 -1.3406
  929MOL0     H22623  11.408   0.131   0.735  0.9052 -1.1440 -0.0121
  929MOL0     H22624  11.688   0.116   0.613  1.3932 -0.9404  2.0501
  929MOL0     H22625  11.652   0.158   0.783 -0.6024 -0.7388 -0.5374
  929MOL0     H22626  11.579  -0.255   0.792 -1.3717  0.5836  2.3529
  929MOL0     H22627  11.075   0.455   0.580 -0.1072 -0.7932 -0.2509
  929MOL0     H22628  10.912   0.620   0.513  0.2295  0.6299  1.2438
  930MOL0     O22629   2.291   3.573   3.954  0.4010  0.1818 -0.0170
  930MOL0     C22630   2.305   3.693   3.915  0.2981  1.1584 -0.2020
  930MOL0     O22631   2.199   3.767   3.855 -0.4156 -0.0467 -0.1948
  930MOL0     C22632   2.069   3.710   3.843 -0.5526 -0.0235 -0.4172
  930MOL0     C22633   1.993   3.642   3.941 -0.0768 -0.4008 -0.3571
  930MOL0     C22634   1.862   3.601   3.916  0.5577 -0.5841 -0.6413
  930MOL0     C22635   1.801   3.607   3.781 -0.5304 -0.7927 -0.6895
  930MOL0     O22636   1.674   3.569   3.764  0.1625  0.1543 -0.7552
  930MOL0     C22637   1.629   3.546   3.634  0.6166 -0.0517  0.6979
  930MOL0     C22638   1.492   3.483   3.639  0.6496  0.4700  0.0700
  930MOL0     C22639   1.471   3.403   3.510  0.0366  0.8760  0.1429
  930MOL0     C22640   1.319   3.384   3.510  0.1711  0.3339 -0.3386
  930MOL0     C22641   1.258   3.292   3.404 -0.5933  0.4708 -0.6707
  930MOL0     C22642   1.114   3.282   3.442 -0.4751  0.4208  0.2062
  930MOL0     C22643   1.030   3.198   3.344 -0.1526  0.4335  0.5162
  930MOL0     C22644   0.890   3.156   3.391  0.3552 -0.2405  0.5627
  930MOL0     N22645   0.790   3.153   3.281  0.5759 -0.1320  0.6940
  930MOL0     C22646   0.805   3.158   3.145 -0.3201 -0.9431 -0.8859
  930MOL0     C22647   0.681   3.151   3.087 -0.3234 -0.9898 -0.7365
  930MOL0     C22648   0.663   3.156   2.945  0.2245 -0.0175  0.0691
  930MOL0     C22649   0.609   3.022   2.891 -0.0653  0.1760 -0.1411
  930MOL0     C22650   0.463   2.990   2.924  0.0552  0.7796  0.0965
  930MOL0     C22651   0.375   3.102   2.865 -0.0679  0.2318  0.1631
  930MOL0     O22652   0.234   3.062   2.866 -0.0285  0.5523  0.5083
  930MOL0     C22653   0.172   3.090   2.988 -0.0106  0.1910 -0.2991
  930MOL0     C22654   0.042   3.052   2.986  0.1562  1.1044 -0.3511
  930MOL0     C22655  -0.034   3.081   3.101 -0.5199  0.9455  0.7261
  930MOL0     C22656   0.018   3.125   3.226  0.2846  0.5258  0.6777
  930MOL0     C22657  -0.066   3.151   3.336  0.4913  0.3004 -0.2525
  930MOL0     O22658   0.003   3.209   3.441 -0.3401 -0.2763  0.2773
  930MOL0     C22659  -0.070   3.241   3.554  0.3211 -0.3496 -0.5477
  930MOL0     C22660  -0.017   3.200   3.681  0.4939  0.1688 -0.0228
  930MOL0     C22661  -0.089   3.219   3.799 -0.2885  0.1272 -0.6797
  930MOL0     C22662  -0.218   3.286   3.794 -0.2428 -0.2261 -0.1045
  930MOL0     O22663  -0.272   3.327   3.918  0.2545  0.2770 -0.0999
  930MOL0     C22664  -0.411   3.303   3.924  0.3873  0.2561 -1.0934
  930MOL0     C22665  -0.430   3.199   4.036  0.8437  0.6658 -0.6491
  930MOL0     C22666  -0.564   3.142   4.058 -0.2564 -0.2752 -0.3882
  930MOL0     C22667  -0.661   3.258   4.093 -0.9425 -0.0197 -0.2608
  930MOL0     C22668  -0.791   3.198   4.143 -0.2130  0.7058  1.1611
  930MOL0     C22669  -0.894   3.303   4.188  0.9017  0.5110 -0.1581
  930MOL0     C22670  -0.875   3.359   4.323  0.0366 -0.0142  0.0851
  930MOL0     C22671  -0.888   3.254   4.440  0.0564  0.4269 -0.8358
  930MOL0    Cl22672  -1.054   3.249   4.519  0.3285  0.3699  0.1404
  930MOL0     C22673  -0.261   3.334   3.676  1.0326  0.2817 -0.0134
  930MOL0     C22674  -0.194   3.306   3.556 -0.2391  0.5252  0.3188
  930MOL0     O22675  -0.190   3.129   3.323 -0.0365  0.6681 -1.0812
  930MOL0     C22676   0.150   3.150   3.225 -0.3253 -0.5343  0.9119
  930MOL0     C22677   0.226   3.132   3.107 -0.4675 -0.2947 -0.3502
  930MOL0     N22678   0.587   3.134   3.192 -0.3713  0.6723 -0.1942
  930MOL0     N22679   0.654   3.133   3.307  0.0125 -0.8791  0.3651
  930MOL0     C22680   1.891   3.660   3.687  0.8647 -0.6314  0.1955
  930MOL0     C22681   2.015   3.712   3.710 -1.0893  0.6531 -0.7513
  930MOL0     C22682   2.430   3.752   3.944  0.0969  0.6598  0.4781
  930MOL0     C22683   2.517   3.689   4.029 -0.9081  0.2554 -0.5372
  930MOL0     C22684   2.641   3.752   4.065  0.5085 -0.1606  0.1191
  930MOL0     C22685   2.666   3.878   4.012  0.2946 -0.4247 -0.0828
  930MOL0     O22686   2.786   3.947   4.039  0.7176  0.1360  0.1494
  930MOL0     C22687   2.889   3.912   3.942 -0.3918  0.0622 -0.5936
  930MOL0     C22688   2.964   3.788   3.997 -0.7497 -0.0027  0.5962
  930MOL0     C22689   3.109   3.781   3.946 -0.3546 -0.9219 -0.2155
  930MOL0     C22690   3.150   3.657   3.871 -0.3564 -0.8851 -0.2847
  930MOL0     C22691   3.288   3.670   3.819  0.0180  0.7417  0.4949
  930MOL0     C22692   3.410   3.675   3.800 -0.0582 -0.1583 -0.1397
  930MOL0     C22693   2.580   3.943   3.929  0.5242  0.0492 -0.2014
  930MOL0     C22694   2.461   3.880   3.891 -0.3202  0.2724 -0.6356
  930MOL0     H22695   2.035   3.621   4.039 -2.8036  2.4621  1.6318
  930MOL0     H22696   1.806   3.555   3.997  0.5797  0.6635  0.1014
  930MOL0     H22697   1.701   3.486   3.577 -1.3818 -1.1841 -0.7333
  930MOL0     H22698   1.619   3.638   3.577 -2.0941  0.2748  1.5717
  930MOL0     H22699   1.432   3.573   3.656  1.0677  1.0961 -1.4933
  930MOL0     H22700   1.487   3.411   3.721  0.5997 -1.4610 -1.5701
  930MOL0     H22701   1.511   3.302   3.509 -3.3551 -0.6273 -0.2259
  930MOL0     H22702   1.510   3.459   3.425  1.4903 -3.6182 -2.4892
  930MOL0     H22703   1.283   3.354   3.608 -0.1970  0.6402 -0.3782
  930MOL0     H22704   1.272   3.482   3.493 -0.9558 -0.2619 -0.7230
  930MOL0     H22705   1.315   3.199   3.405  0.9605  1.3835 -0.2898
  930MOL0     H22706   1.278   3.326   3.302  0.2851 -0.1645 -0.7244
  930MOL0     H22707   1.077   3.383   3.459  1.7046  1.0679  1.5671
  930MOL0     H22708   1.108   3.226   3.537  3.7074 -0.2656  0.2504
  930MOL0     H22709   1.038   3.249   3.247  0.5273  1.2901  1.0161
  930MOL0     H22710   1.084   3.103   3.332 -2.8824 -1.5069  2.3097
  930MOL0     H22711   0.864   3.231   3.466  0.7880 -1.6306  2.1565
  930MOL0     H22712   0.892   3.051   3.423 -1.3277 -1.2794 -2.3643
  930MOL0     H22713   0.900   3.169   3.092  0.2620  3.0807  0.6071
  930MOL0     H22714   0.761   3.178   2.901  0.5094  0.1426  0.7713
  930MOL0     H22715   0.612   3.246   2.909  2.0596  1.4003  0.8213
  930MOL0     H22716   0.676   2.939   2.917 -1.2043 -0.8499 -0.3522
  930MOL0     H22717   0.609   3.040   2.783 -2.7312 -0.8083 -0.3874
  930MOL0     H22718   0.448   2.900   2.864  2.0000  1.5251 -1.6427
  930MOL0     H22719   0.439   2.974   3.030 -0.4069 -2.4090 -0.3869
  930MOL0     H22720   0.407   3.115   2.761 -1.8549 -2.9028 -0.9122
  930MOL0     H22721   0.379   3.201   2.912  0.6272  0.6616 -0.7637
  930MOL0     H22722   0.010   3.002   2.895  0.6895  0.9257 -0.4455
  930MOL0     H22723  -0.142   3.068   3.092 -0.4587 -0.3537  1.6514
  930MOL0     H22724   0.085   3.160   3.677  2.4656  4.6851 -2.7613
  930MOL0     H22725  -0.039   3.197   3.892 -0.1773  0.4700 -0.6543
  930MOL0     H22726  -0.448   3.252   3.834  0.1792 -0.9323 -0.3670
  930MOL0     H22727  -0.462   3.400   3.930  0.4508  0.2436 -0.2208
  930MOL0     H22728  -0.404   3.248   4.131  0.3970  0.2287 -0.3003
  930MOL0     H22729  -0.349   3.127   4.024  0.5441 -0.1583  1.7115
  930MOL0     H22730  -0.564   3.086   4.152  0.1443 -0.1402 -0.3061
  930MOL0     H22731  -0.595   3.067   3.985 -0.3237 -3.3694  2.5760
  930MOL0     H22732  -0.622   3.325   4.170  1.5190 -1.4787 -0.1322
  930MOL0     H22733  -0.666   3.318   4.001  1.0200  0.0152 -0.3904
  930MOL0     H22734  -0.781   3.120   4.219  0.0579  0.7864  1.2060
  930MOL0     H22735  -0.829   3.154   4.050  0.2414  0.3222  1.1535
  930MOL0     H22736  -0.988   3.248   4.182  1.3994 -0.4955  0.7543
  930MOL0     H22737  -0.904   3.378   4.109 -0.1273 -0.4617 -1.0019
  930MOL0     H22738  -0.776   3.403   4.328 -0.8422  2.0403  0.2302
  930MOL0     H22739  -0.943   3.443   4.340  0.8165  0.2516  2.1554
  930MOL0     H22740  -0.803   3.267   4.507  2.1336  2.2316 -3.5937
  930MOL0     H22741  -0.874   3.153   4.401 -2.0007 -0.2243 -0.0111
  930MOL0     H22742  -0.356   3.386   3.666 -0.8338 -2.0603  3.4539
  930MOL0     H22743  -0.241   3.338   3.464 -3.4066  3.4536  2.6770
  930MOL0     H22744   0.193   3.200   3.311 -3.2456 -0.5856  2.5351
  930MOL0     H22745   0.327   3.170   3.114  0.5204 -2.9647  2.1270
  930MOL0     H22746   1.866   3.663   3.581  1.0076  0.4670  0.1719
  930MOL0     H22747   2.075   3.727   3.621  1.5406 -0.5949  0.6910
  930MOL0     H22748   2.505   3.589   4.068 -2.7101 -0.2410 -2.1743
  930MOL0     H22749   2.702   3.689   4.128 -0.6967 -0.9126  0.5636
  930MOL0     H22750   2.963   3.993   3.930  0.8979 -0.8169  0.9782
  930MOL0     H22751   2.844   3.894   3.844  1.6633  0.3568 -1.6519
  930MOL0     H22752   2.965   3.793   4.106  0.7207 -3.8790  0.9111
  930MOL0     H22753   2.912   3.696   3.970  0.0544  0.0295 -1.2172
  930MOL0     H22754   3.169   3.804   4.035 -1.1780  1.9928 -0.3039
  930MOL0     H22755   3.117   3.872   3.887 -0.1944  0.4316  1.7802
  930MOL0     H22756   3.139   3.574   3.941  2.0259  0.9705  2.4938
  930MOL0     H22757   3.077   3.648   3.790 -0.1784  1.2290 -0.7490
  930MOL0     H22758   3.514   3.655   3.786 -0.5769 -3.9527  0.4037
  930MOL0     H22759   2.594   4.044   3.891  2.4039 -0.3735 -0.6985
  930MOL0     H22760   2.404   3.928   3.812  0.6572  0.3488 -1.3021
  931MOL0     O22761   1.223   9.405   5.948  0.0100  0.2058  0.6761
  931MOL0     C22762   1.252   9.305   6.014  0.2537 -0.1610  0.1944
  931MOL0     O22763   1.160   9.219   6.066 -0.2552  0.2526 -0.1009
  931MOL0     C22764   1.032   9.204   6.015 -0.8583  0.1384  0.5239
  931MOL0     C22765   0.971   9.284   5.909  0.4580  0.4320  0.7580
  931MOL0     C22766   0.851   9.248   5.853  0.0748  0.3652 -0.0381
  931MOL0     C22767   0.771   9.143   5.894 -0.9938  0.4705 -0.5911
  931MOL0     O22768   0.655   9.114   5.829  0.1289 -0.0425  0.5854
  931MOL0     C22769   0.564   9.013   5.885 -0.1955 -0.8505 -0.0042
  931MOL0     C22770   0.429   9.036   5.815 -0.3262  0.6934  0.9170
  931MOL0     C22771   0.318   8.949   5.878  0.1049  0.4927 -0.1056
  931MOL0     C22772   0.189   8.994   5.811  0.6126 -0.2010  0.3886
  931MOL0     C22773   0.071   8.890   5.810  0.2689 -0.3030 -0.7081
  931MOL0     C22774  -0.052   8.959   5.745 -1.0572 -0.6953  1.2702
  931MOL0     C22775  -0.196   8.900   5.756  0.3199 -0.5788  0.4999
  931MOL0     C22776  -0.281   8.965   5.645 -0.5523 -0.9049 -0.2384
  931MOL0     N22777  -0.424   8.916   5.654  0.0718  1.7596  0.1074
  931MOL0     C22778  -0.528   8.945   5.750 -1.0232  0.3947 -0.2153
  931MOL0     C22779  -0.639   8.882   5.713 -0.2766 -0.1706  0.3151
  931MOL0     C22780  -0.774   8.888   5.794  0.2384  0.1029  0.2305
  931MOL0     C22781  -0.814   8.751   5.848 -0.6447  0.8242  0.2838
  931MOL0     C22782  -0.719   8.692   5.940 -0.4121  0.6013  0.2786
  931MOL0     C22783  -0.776   8.568   6.011 -0.1244 -0.1085 -0.1250
  931MOL0     O22784  -0.767   8.451   5.925  0.2340 -0.2511  0.5130
  931MOL0     C22785  -0.879   8.421   5.842 -0.6718  0.1050 -0.8350
  931MOL0     C22786  -0.858   8.313   5.756 -0.0203 -0.5041  1.0324
  931MOL0     C22787  -0.963   8.278   5.665 -0.8999  0.0216 -0.4840
  931MOL0     C22788  -1.088   8.348   5.678 -0.1587  0.6068  0.3587
  931MOL0     C22789  -1.207   8.295   5.607  0.6104 -0.3670  1.0596
  931MOL0     O22790  -1.328   8.357   5.639 -0.0622  0.3675 -0.1964
  931MOL0     C22791  -1.449   8.333   5.580  0.5277  0.3531 -0.0394
  931MOL0     C22792  -1.489   8.206   5.534  0.7521 -0.1518  0.1602
  931MOL0     C22793  -1.617   8.190   5.476  0.6006  0.4220 -0.6103
  931MOL0     C22794  -1.704   8.302   5.444 -0.5375  0.7672 -0.0949
  931MOL0     O22795  -1.836   8.288   5.389 -0.2234 -0.0670  0.0987
  931MOL0     C22796  -1.915   8.405   5.380  0.0212 -0.5215 -0.2081
  931MOL0     C22797  -2.055   8.373   5.314  0.4301  0.0867  0.6009
  931MOL0     C22798  -2.171   8.453   5.378 -0.4724 -0.2232  0.5738
  931MOL0     C22799  -2.306   8.411   5.322  0.5412 -1.0770  0.0269
  931MOL0     C22800  -2.423   8.457   5.412 -0.1599  0.4620  0.1880
  931MOL0     C22801  -2.560   8.417   5.345 -0.5637  0.6672  0.2573
  931MOL0     C22802  -2.589   8.268   5.363 -0.0710 -1.2844 -0.1992
  931MOL0     C22803  -2.719   8.221   5.289 -0.7729 -0.1829 -0.5968
  931MOL0    Cl22804  -2.851   8.337   5.327 -0.1269 -0.1470  0.2588
  931MOL0     C22805  -1.654   8.431   5.488 -0.7372  0.2353 -0.0944
  931MOL0     C22806  -1.524   8.446   5.552 -0.2995  0.3921 -0.2137
  931MOL0     O22807  -1.197   8.200   5.531 -0.0982 -0.8953 -0.0398
  931MOL0     C22808  -1.102   8.448   5.770 -0.7593  0.1543 -1.7950
  931MOL0     C22809  -0.996   8.484   5.851  1.0916 -0.3157 -0.8836
  931MOL0     N22810  -0.611   8.811   5.593 -0.0896 -0.0185  0.0732
  931MOL0     N22811  -0.483   8.832   5.565 -0.6751  0.3370  1.1542
  931MOL0     C22812   0.836   9.059   5.990  0.0227 -0.6157  0.0170
  931MOL0     C22813   0.954   9.097   6.059  0.3034 -0.0015 -0.2968
  931MOL0     C22814   1.388   9.296   6.068  0.0122 -0.1701  0.4879
  931MOL0     C22815   1.428   9.170   6.122  0.3350 -0.6393  0.4704
  931MOL0     C22816   1.561   9.160   6.166  0.2135 -0.0489  0.0910
  931MOL0     C22817   1.659   9.265   6.148 -1.0429  0.4816 -0.0080
  931MOL0     O22818   1.792   9.247   6.181 -0.0179 -0.5900 -0.6435
  931MOL0     C22819   1.866   9.368   6.221  0.1055  0.3604 -0.4557
  931MOL0     C22820   1.992   9.319   6.285 -0.9065 -0.0382  0.1609
  931MOL0     C22821   2.086   9.436   6.336 -0.2320  0.4072 -0.2572
  931MOL0     C22822   2.224   9.373   6.351  0.1715  0.2139  0.6694
  931MOL0     C22823   2.214   9.265   6.449 -0.0950  0.4462 -0.3724
  931MOL0     C22824   2.217   9.181   6.545  0.1402 -0.6271  0.7308
  931MOL0     C22825   1.614   9.382   6.082 -0.0141 -0.9673 -0.1172
  931MOL0     C22826   1.480   9.399   6.049  0.0244 -1.5905  0.0834
  931MOL0     H22827   1.014   9.378   5.878 -0.4809  0.5290 -0.3231
  931MOL0     H22828   0.793   9.301   5.778 -1.6436 -1.3809 -0.0337
  931MOL0     H22829   0.543   9.052   5.985  0.9941  2.7972 -1.0389
  931MOL0     H22830   0.600   8.910   5.876 -3.6845 -2.2508  0.4237
  931MOL0     H22831   0.433   9.013   5.709  1.6863  0.1867  1.0653
  931MOL0     H22832   0.412   9.144   5.821  0.6978  0.8893  0.4046
  931MOL0     H22833   0.309   8.972   5.984  2.1657  0.3488  0.1280
  931MOL0     H22834   0.326   8.840   5.873 -1.7651  0.2922  0.3360
  931MOL0     H22835   0.159   9.088   5.858  1.0740 -0.9472  2.2933
  931MOL0     H22836   0.210   9.020   5.707  0.7876  1.2389  0.7681
  931MOL0     H22837   0.035   8.861   5.910  0.9605  0.1010 -0.3371
  931MOL0     H22838   0.100   8.796   5.762 -1.5798 -0.5430 -1.4394
  931MOL0     H22839  -0.026   8.964   5.639  2.3696 -2.6464  1.8739
  931MOL0     H22840  -0.060   9.059   5.790 -5.7407 -0.7144  1.0259
  931MOL0     H22841  -0.177   8.793   5.742  0.7969 -0.5926  1.1875
  931MOL0     H22842  -0.246   8.911   5.853 -0.6587  0.7796 -0.1183
  931MOL0     H22843  -0.242   8.939   5.546  0.7767 -0.0293  0.0200
  931MOL0     H22844  -0.276   9.074   5.653  1.8358 -0.9748 -0.2006
  931MOL0     H22845  -0.518   9.017   5.830  1.8635  0.9881 -0.9914
  931MOL0     H22846  -0.852   8.924   5.726  0.1002 -1.1721 -0.3145
  931MOL0     H22847  -0.761   8.953   5.881 -0.0028 -0.5077  0.7311
  931MOL0     H22848  -0.837   8.690   5.760  1.9655  1.0179 -0.6276
  931MOL0     H22849  -0.908   8.768   5.900 -0.5315  1.1794  0.3793
  931MOL0     H22850  -0.627   8.660   5.889 -0.4492 -2.5986  1.9450
  931MOL0     H22851  -0.692   8.767   6.015  1.0338  0.1547  0.2541
  931MOL0     H22852  -0.876   8.583   6.052  0.3128 -1.4030  1.4844
  931MOL0     H22853  -0.725   8.545   6.104  1.3611  1.7126 -0.4208
  931MOL0     H22854  -0.762   8.263   5.765  0.4912  0.1672 -0.4284
  931MOL0     H22855  -0.951   8.186   5.607  1.4002 -0.0885  0.0542
  931MOL0     H22856  -1.436   8.112   5.548  0.2850 -0.1950  1.8132
  931MOL0     H22857  -1.645   8.090   5.445  0.8639 -0.1159  0.8195
  931MOL0     H22858  -1.869   8.480   5.316  1.5635 -1.5892 -0.3943
  931MOL0     H22859  -1.940   8.451   5.477 -4.6416 -1.4406 -0.7445
  931MOL0     H22860  -2.090   8.271   5.328 -0.1195  0.5336  2.9614
  931MOL0     H22861  -2.047   8.414   5.213  0.7807  3.1143  1.7458
  931MOL0     H22862  -2.152   8.561   5.377  0.2906 -0.3506 -0.6452
  931MOL0     H22863  -2.168   8.429   5.485 -1.8734 -1.7693  0.2992
  931MOL0     H22864  -2.333   8.452   5.224  0.3955 -2.7333 -0.6503
  931MOL0     H22865  -2.306   8.304   5.299 -1.6245 -0.8941 -1.0843
  931MOL0     H22866  -2.440   8.564   5.427 -0.3739  0.5285 -0.5111
  931MOL0     H22867  -2.417   8.409   5.510  0.6538 -0.3473 -0.2373
  931MOL0     H22868  -2.558   8.454   5.242  2.9541  0.1631 -0.0037
  931MOL0     H22869  -2.643   8.468   5.394 -2.6677  2.3943 -4.4720
  931MOL0     H22870  -2.503   8.209   5.332  1.5745  1.3414 -0.9601
  931MOL0     H22871  -2.596   8.252   5.471  1.1277  2.3796  0.5784
  931MOL0     H22872  -2.744   8.120   5.323  0.5063 -0.2437  0.2578
  931MOL0     H22873  -2.698   8.214   5.182 -0.6105 -0.8936 -0.5260
  931MOL0     H22874  -1.715   8.521   5.481 -2.8407 -0.8698  2.2442
  931MOL0     H22875  -1.481   8.543   5.572  4.2409 -1.9164  2.7000
  931MOL0     H22876  -1.196   8.495   5.796 -0.6310 -1.6023  2.7823
  931MOL0     H22877  -1.022   8.558   5.926  1.3392  0.9389 -1.9842
  931MOL0     H22878   0.785   8.968   6.019 -3.0509  1.0305  0.3213
  931MOL0     H22879   0.993   9.027   6.132 -1.7599 -2.7282 -1.6179
  931MOL0     H22880   1.359   9.087   6.129 -1.0981  0.5389  0.8857
  931MOL0     H22881   1.590   9.064   6.206 -1.6794 -1.2492 -1.2507
  931MOL0     H22882   1.803   9.424   6.291 -0.5699 -1.3013  0.2991
  931MOL0     H22883   1.894   9.432   6.136 -1.3165  0.4743 -0.8676
  931MOL0     H22884   1.977   9.260   6.376 -0.9079  1.4000  1.1306
  931MOL0     H22885   2.034   9.255   6.207 -3.9615 -0.7392 -1.0901
  931MOL0     H22886   2.038   9.483   6.422 -1.5543 -2.1126  0.4841
  931MOL0     H22887   2.104   9.508   6.255  2.8396  0.1467  0.1122
  931MOL0     H22888   2.255   9.334   6.254  0.4920 -0.4388  1.0252
  931MOL0     H22889   2.293   9.440   6.403  0.5807 -1.0352  1.7986
  931MOL0     H22890   2.224   9.106   6.621  2.7978 -0.7876  0.3948
  931MOL0     H22891   1.675   9.471   6.070 -0.0997 -1.0208 -1.0376
  931MOL0     H22892   1.445   9.481   5.987  0.7976 -1.6311 -0.4247
  932MOL0     O22893   8.904   8.556   1.229 -0.3312  0.0552  0.2016
  932MOL0     C22894   8.952   8.456   1.170 -0.2826 -0.3651 -0.2793
  932MOL0     O22895   8.877   8.375   1.082 -0.3585 -0.2700 -0.4016
  932MOL0     C22896   8.759   8.410   1.013 -0.1369  0.1552  0.1548
  932MOL0     C22897   8.700   8.305   0.939 -0.6643  0.7362 -0.8796
  932MOL0     C22898   8.586   8.325   0.859 -0.5488  0.4214  0.2392
  932MOL0     C22899   8.516   8.453   0.862  0.3340  1.2303  0.1664
  932MOL0     O22900   8.403   8.481   0.784  0.4100  0.3384 -0.0899
  932MOL0     C22901   8.376   8.386   0.685  0.2933 -0.2158  0.2187
  932MOL0     C22902   8.249   8.429   0.612 -0.3465  0.2590 -0.5298
  932MOL0     C22903   8.125   8.461   0.695  0.2282 -0.2024 -0.3354
  932MOL0     C22904   8.016   8.497   0.599 -0.3653  0.4774  1.2518
  932MOL0     C22905   7.888   8.503   0.673 -1.2942 -0.3548  0.5358
  932MOL0     C22906   7.779   8.560   0.575 -0.2222  0.0065  0.4996
  932MOL0     C22907   7.659   8.613   0.659 -0.8338 -0.6236  0.5245
  932MOL0     C22908   7.559   8.672   0.565 -0.4156  0.4743  0.4355
  932MOL0     N22909   7.439   8.708   0.636 -0.8219 -0.3176 -0.1275
  932MOL0     C22910   7.335   8.630   0.663  0.3401 -0.1888  0.3667
  932MOL0     C22911   7.261   8.686   0.760 -0.5745  0.8519 -0.7669
  932MOL0     C22912   7.138   8.621   0.815 -0.2391  0.6752  0.1755
  932MOL0     C22913   7.013   8.695   0.779  0.6607 -0.5268  0.2329
  932MOL0     C22914   6.984   8.816   0.870  0.3515 -0.4272  0.0240
  932MOL0     C22915   6.855   8.885   0.848  0.2834  0.0138  0.8832
  932MOL0     O22916   6.751   8.798   0.881  0.5938  0.7615  0.0420
  932MOL0     C22917   6.622   8.840   0.883  0.3584 -0.1751 -0.1766
  932MOL0     C22918   6.525   8.768   0.959 -0.4267 -0.0283 -0.8006
  932MOL0     C22919   6.388   8.811   0.977 -0.3565 -0.2024 -0.3420
  932MOL0     C22920   6.344   8.917   0.897  0.3057  0.1258  0.3096
  932MOL0     C22921   6.194   8.965   0.909 -0.1675  0.2786  0.8176
  932MOL0     O22922   6.123   8.939   1.021 -0.2180  0.2702 -0.0919
  932MOL0     C22923   5.992   8.960   1.028  0.6251  0.1709 -0.3668
  932MOL0     C22924   5.904   8.857   1.049  1.0578  0.6906  0.2737
  932MOL0     C22925   5.769   8.883   1.055 -0.8043 -0.4598 -0.1563
  932MOL0     C22926   5.704   9.006   1.050 -0.2349 -0.5877 -0.9240
  932MOL0     O22927   5.570   9.021   1.066  0.3879 -0.3182 -0.0662
  932MOL0     C22928   5.502   9.027   0.939 -0.0564  0.4220  0.0739
  932MOL0     C22929   5.519   8.894   0.868  0.8376  0.1349 -0.5022
  932MOL0     C22930   5.418   8.885   0.752 -0.7803  0.3369  0.2821
  932MOL0     C22931   5.444   8.760   0.678 -0.8241  0.3371  0.0972
  932MOL0     C22932   5.364   8.722   0.553 -0.8660 -0.0921  0.5052
  932MOL0     C22933   5.215   8.702   0.583 -0.4433 -0.4361  0.3851
  932MOL0     C22934   5.180   8.620   0.697  0.6185  0.4364  0.0770
  932MOL0     C22935   5.201   8.473   0.653 -0.0026  0.3046 -0.0483
  932MOL0    Cl22936   5.117   8.402   0.503 -0.4687 -0.1286 -0.0317
  932MOL0     C22937   5.791   9.113   1.039 -0.7388 -0.0800 -0.5112
  932MOL0     C22938   5.937   9.093   1.036  0.8063  0.5560  0.0197
  932MOL0     O22939   6.147   9.028   0.814 -0.7833  0.1124  0.7618
  932MOL0     C22940   6.438   8.994   0.818  0.2790  1.3146  0.2717
  932MOL0     C22941   6.570   8.957   0.823  0.0549 -0.2465  0.5447
  932MOL0     N22942   7.307   8.814   0.765 -0.5846 -0.1190  0.4232
  932MOL0     N22943   7.415   8.822   0.691 -0.4276 -0.6881  0.0476
  932MOL0     C22944   8.570   8.555   0.945  0.1542 -1.1255  0.6598
  932MOL0     C22945   8.691   8.533   1.020  0.4552 -0.3749  0.3196
  932MOL0     C22946   9.089   8.409   1.195 -0.1614 -0.6971 -0.0997
  932MOL0     C22947   9.152   8.422   1.316 -0.1611  0.9785 -0.7285
  932MOL0     C22948   9.276   8.356   1.338  0.0156 -0.5717  0.0354
  932MOL0     C22949   9.357   8.312   1.232 -0.2267  0.2682 -0.2445
  932MOL0     O22950   9.485   8.265   1.266  0.3161  0.4979  0.3026
  932MOL0     C22951   9.585   8.238   1.167  0.0318 -0.2089 -0.2811
  932MOL0     C22952   9.714   8.199   1.242 -0.6163 -0.8982 -0.0731
  932MOL0     C22953   9.835   8.198   1.149 -0.3761 -0.0957  0.3968
  932MOL0     C22954   9.963   8.166   1.228  0.0548 -0.6068  0.3167
  932MOL0     C22955  10.080   8.174   1.137  0.4936  0.2344 -0.9339
  932MOL0     C22956  10.189   8.157   1.091  0.2332 -0.7248  0.8630
  932MOL0     C22957   9.298   8.307   1.107  0.0554  0.0323 -0.9362
  932MOL0     C22958   9.162   8.343   1.098 -0.2711 -0.2364  0.9415
  932MOL0     H22959   8.749   8.209   0.934  0.1615  0.8445  2.5467
  932MOL0     H22960   8.561   8.238   0.799 -0.9622  1.6419 -1.4341
  932MOL0     H22961   8.341   8.294   0.733 -1.4207  0.8583  1.1308
  932MOL0     H22962   8.466   8.369   0.626  1.7885  4.1036  0.9298
  932MOL0     H22963   8.222   8.349   0.543  0.5058  1.1272 -1.9295
  932MOL0     H22964   8.268   8.517   0.549 -1.5416  0.6660 -0.3463
  932MOL0     H22965   8.153   8.538   0.768 -0.6457  1.4791 -1.6942
  932MOL0     H22966   8.104   8.371   0.753  1.4491  1.1978  2.4808
  932MOL0     H22967   8.047   8.598   0.570  0.0453  0.0404  0.1387
  932MOL0     H22968   8.013   8.426   0.516  1.8436  1.3064  0.3928
  932MOL0     H22969   7.891   8.575   0.755 -0.6202 -1.5713  1.6106
  932MOL0     H22970   7.867   8.407   0.722  0.2025  0.2388  2.4490
  932MOL0     H22971   7.739   8.482   0.510  0.9805 -2.3795  2.4258
  932MOL0     H22972   7.815   8.642   0.512 -2.1518 -0.8770 -1.9074
  932MOL0     H22973   7.627   8.526   0.718 -1.1893 -0.5071  0.5099
  932MOL0     H22974   7.705   8.686   0.726 -0.3795 -2.8339  2.7674
  932MOL0     H22975   7.531   8.597   0.491  1.7860  0.4839 -0.4692
  932MOL0     H22976   7.595   8.764   0.517 -0.0829  1.1329  1.8997
  932MOL0     H22977   7.327   8.531   0.618 -1.9538 -0.0144  0.2661
  932MOL0     H22978   7.151   8.618   0.924  1.1168 -0.5354  0.0141
  932MOL0     H22979   7.143   8.518   0.778 -0.3746  1.3481 -1.8290
  932MOL0     H22980   6.930   8.624   0.776  0.9264 -0.8185 -0.3722
  932MOL0     H22981   7.019   8.730   0.675  0.7936 -1.3151 -0.0325
  932MOL0     H22982   7.000   8.779   0.972  1.4736 -0.7320 -0.2483
  932MOL0     H22983   7.046   8.901   0.839  0.3988 -0.6079 -0.3800
  932MOL0     H22984   6.862   8.908   0.741 -0.6341 -3.1104  0.0576
  932MOL0     H22985   6.849   8.979   0.904 -0.9741  0.4496  0.0519
  932MOL0     H22986   6.561   8.678   1.008 -1.7060  0.6846  1.6268
  932MOL0     H22987   6.313   8.757   1.034 -0.2781 -1.6836 -1.5751
  932MOL0     H22988   5.944   8.757   1.037 -0.6447 -0.0735  0.6634
  932MOL0     H22989   5.709   8.793   1.063  0.9554 -1.6401  0.2424
  932MOL0     H22990   5.523   9.107   0.868 -4.2834  0.0736 -1.9332
  932MOL0     H22991   5.396   9.039   0.964 -0.2604  2.4609 -1.4512
  932MOL0     H22992   5.498   8.810   0.936  2.6938  0.6798  0.8325
  932MOL0     H22993   5.617   8.887   0.819 -0.1304 -0.8397 -2.3921
  932MOL0     H22994   5.434   8.969   0.685 -3.2247  1.1866  0.6777
  932MOL0     H22995   5.317   8.902   0.790 -1.0660  0.9401 -0.6961
  932MOL0     H22996   5.550   8.751   0.654 -0.4209 -1.0982  2.1239
  932MOL0     H22997   5.441   8.678   0.751  4.2080 -0.0143  0.2612
  932MOL0     H22998   5.418   8.634   0.519  0.5300  0.4495  1.2545
  932MOL0     H22999   5.377   8.810   0.490 -1.1366 -0.5262 -0.1610
  932MOL0     H23000   5.161   8.673   0.492 -1.3670  0.9449  0.4578
  932MOL0     H23001   5.174   8.800   0.609  0.8769 -0.3741  2.4186
  932MOL0     H23002   5.217   8.645   0.797 -0.7997  3.4909 -0.0418
  932MOL0     H23003   5.071   8.613   0.702  0.7123 -0.8021  0.7137
  932MOL0     H23004   5.176   8.414   0.741 -1.7771  1.3695  0.1949
  932MOL0     H23005   5.308   8.454   0.637 -0.4877  0.0596 -3.7768
  932MOL0     H23006   5.751   9.210   1.064  0.6468  0.1457  1.0536
  932MOL0     H23007   5.998   9.183   1.037  4.5430 -1.7380 -0.6973
  932MOL0     H23008   6.401   9.083   0.768  1.0203  2.4908  1.7554
  932MOL0     H23009   6.629   9.016   0.753  0.8001 -2.5258 -0.8372
  932MOL0     H23010   8.538   8.658   0.931  2.3660 -0.3039  1.1807
  932MOL0     H23011   8.740   8.626   1.047 -1.6197  0.8908 -0.0687
  932MOL0     H23012   9.108   8.474   1.401  2.2039  2.2364 -0.2043
  932MOL0     H23013   9.309   8.364   1.441  0.1668 -6.4876  0.7339
  932MOL0     H23014   9.608   8.330   1.112 -2.9942  2.1925  2.0812
  932MOL0     H23015   9.557   8.152   1.105 -3.4554  1.4735 -1.3133
  932MOL0     H23016   9.730   8.264   1.328  0.4384  0.3952 -1.2019
  932MOL0     H23017   9.709   8.100   1.287  0.9682 -2.8707 -3.7223
  932MOL0     H23018   9.845   8.297   1.104 -0.7486 -1.1627 -2.1839
  932MOL0     H23019   9.826   8.119   1.074  1.8675  0.6845 -0.7795
  932MOL0     H23020   9.982   8.245   1.301  1.7168 -2.8215  2.4253
  932MOL0     H23021   9.965   8.071   1.283  0.6828 -0.6490  0.2334
  932MOL0     H23022  10.288   8.152   1.049 -0.0102  3.0557 -0.6231
  932MOL0     H23023   9.337   8.265   1.015 -2.9193  0.0897 -2.3229
  932MOL0     H23024   9.123   8.323   1.000  0.0940 -0.0254  0.7485
  933MOL0     O23025   1.669  10.954   6.699 -0.6428  0.9348 -0.3387
  933MOL0     C23026   1.732  10.912   6.601  0.9005 -0.0519 -1.0667
  933MOL0     O23027   1.696  10.834   6.503 -0.2115  0.1986 -0.3158
  933MOL0     C23028   1.562  10.840   6.464  0.6394 -0.4675  0.2874
  933MOL0     C23029   1.457  10.943   6.485  0.2139 -0.2416 -0.3136
  933MOL0     C23030   1.318  10.932   6.449 -1.1808  0.0485 -0.0042
  933MOL0     C23031   1.279  10.808   6.400  0.0909 -0.4269  0.7124
  933MOL0     O23032   1.141  10.781   6.393 -0.3146 -0.7914 -0.4688
  933MOL0     C23033   1.086  10.702   6.284  0.2807  0.0757  0.6942
  933MOL0     C23034   1.039  10.794   6.171  0.1431  0.4152  0.5042
  933MOL0     C23035   0.992  10.710   6.048 -0.4511 -0.8127 -0.1271
  933MOL0     C23036   1.100  10.620   5.985  0.3892  0.2485 -0.2332
  933MOL0     C23037   1.070  10.609   5.835 -0.2136 -0.1561 -0.8401
  933MOL0     C23038   1.168  10.509   5.768  0.9369 -0.4049 -0.7050
  933MOL0     C23039   1.312  10.564   5.765 -0.1655  0.2151  0.5192
  933MOL0     C23040   1.417  10.455   5.737  1.0730 -0.7012 -0.1664
  933MOL0     N23041   1.379  10.392   5.618 -0.3351  0.7628  0.1154
  933MOL0     C23042   1.425  10.430   5.491 -0.7139  0.6430 -0.0941
  933MOL0     C23043   1.405  10.319   5.416  0.3685 -0.4743 -0.1362
  933MOL0     C23044   1.443  10.300   5.276  0.3047 -0.5448  0.2525
  933MOL0     C23045   1.596  10.301   5.245  0.6535 -0.2331 -0.4125
  933MOL0     C23046   1.674  10.197   5.320 -0.0530 -0.5881 -0.2710
  933MOL0     C23047   1.824  10.199   5.300  0.7790  0.0572  0.1796
  933MOL0     O23048   1.877  10.323   5.345 -0.9727  0.1021 -0.4047
  933MOL0     C23049   1.996  10.359   5.304  0.0378 -0.5252 -0.2850
  933MOL0     C23050   2.022  10.497   5.284 -0.4240 -0.4372 -0.2031
  933MOL0     C23051   2.138  10.542   5.232  0.1623  0.4267  0.0411
  933MOL0     C23052   2.239  10.451   5.190 -0.7945 -0.3160 -0.2882
  933MOL0     C23053   2.369  10.495   5.133  0.1981 -0.2136  0.5122
  933MOL0     O23054   2.458  10.402   5.077  0.0614  0.3617  0.5807
  933MOL0     C23055   2.581  10.439   5.016  0.0668  0.0830 -0.0363
  933MOL0     C23056   2.618  10.372   4.899 -0.3030 -0.3407 -0.4908
  933MOL0     C23057   2.747  10.396   4.842 -0.0309 -0.5500 -1.0289
  933MOL0     C23058   2.827  10.500   4.893 -0.2616  0.4754  0.5887
  933MOL0     O23059   2.946  10.519   4.824 -0.2897 -0.3926  0.0599
  933MOL0     C23060   3.045  10.599   4.886  0.4155  0.6597 -0.4104
  933MOL0     C23061   3.051  10.738   4.843  0.8831  0.7481 -0.1023
  933MOL0     C23062   3.146  10.832   4.928 -0.4009 -0.1631 -0.0449
  933MOL0     C23063   3.296  10.802   4.918  0.2015 -0.6331  0.3200
  933MOL0     C23064   3.367  10.906   5.008 -0.3384 -0.6256  1.4123
  933MOL0     C23065   3.515  10.889   4.995 -1.2207 -0.0187  0.9397
  933MOL0     C23066   3.586  10.965   5.105 -0.4349  0.2102  0.1167
  933MOL0     C23067   3.735  10.929   5.094  0.0751  0.3807 -0.5671
  933MOL0    Cl23068   3.749  10.758   5.152  0.2832  0.0568 -0.1245
  933MOL0     C23069   2.781  10.571   5.008 -0.9837 -0.4408  0.1349
  933MOL0     C23070   2.661  10.538   5.074  0.1276  0.0733  0.0161
  933MOL0     O23071   2.396  10.613   5.155 -0.6595  0.0105 -0.3119
  933MOL0     C23072   2.219  10.307   5.208  0.5452  0.3428 -0.5758
  933MOL0     C23073   2.099  10.268   5.263 -0.4973  0.0057  0.3825
  933MOL0     N23074   1.345  10.222   5.489  0.0702  0.5457  0.2213
  933MOL0     N23075   1.329  10.264   5.608 -0.4472  0.0015  0.2737
  933MOL0     C23076   1.371  10.707   6.382  0.2236  0.7211 -0.4403
  933MOL0     C23077   1.514  10.723   6.399 -0.1096 -0.2210 -1.3600
  933MOL0     C23078   1.874  10.952   6.596 -0.4715  0.2218  0.2598
  933MOL0     C23079   1.961  10.917   6.487  0.7628  0.5685 -0.1358
  933MOL0     C23080   2.088  10.944   6.474  1.1216 -0.1457 -0.1928
  933MOL0     C23081   2.143  11.026   6.570 -0.1080 -0.3629  2.0729
  933MOL0     O23082   2.271  11.080   6.565 -0.2799  0.1762  0.5427
  933MOL0     C23083   2.351  11.036   6.450  0.3274  0.2848 -0.4662
  933MOL0     C23084   2.479  11.128   6.452  0.3616 -0.0160  0.3323
  933MOL0     C23085   2.577  11.104   6.342  0.1379 -0.6457 -0.7252
  933MOL0     C23086   2.632  10.958   6.344  0.1114 -0.3164  0.4824
  933MOL0     C23087   2.754  10.940   6.265 -0.1225 -0.0745  0.3951
  933MOL0     C23088   2.855  10.930   6.202 -0.0552 -0.2795 -0.2757
  933MOL0     C23089   2.072  11.060   6.679  0.9353  0.3575  0.0546
  933MOL0     C23090   1.934  11.025   6.695  0.5917  0.1875  0.6512
  933MOL0     H23091   1.480  11.042   6.523 -4.9984  1.0911  0.2322
  933MOL0     H23092   1.252  11.017   6.438 -0.0768  0.5960 -3.7315
  933MOL0     H23093   0.997  10.648   6.315  1.4145  0.2583  4.7561
  933MOL0     H23094   1.168  10.638   6.251  0.9610  0.2611  1.9734
  933MOL0     H23095   1.122  10.853   6.132 -0.1801  0.8125  0.4093
  933MOL0     H23096   0.969  10.868   6.209  0.3071  0.6090  0.4275
  933MOL0     H23097   0.958  10.781   5.972 -0.0933 -0.4436  0.0527
  933MOL0     H23098   0.902  10.651   6.068 -1.0231  0.2081  0.3690
  933MOL0     H23099   1.185  10.687   5.998 -1.7681  3.0790  0.1133
  933MOL0     H23100   1.115  10.531   6.047 -2.4298 -1.5346 -1.8876
  933MOL0     H23101   1.064  10.708   5.788  1.9047  0.8749  0.9088
  933MOL0     H23102   0.972  10.562   5.823 -0.9118  0.6819  1.1922
  933MOL0     H23103   1.145  10.483   5.665 -0.2910 -1.1116 -0.2830
  933MOL0     H23104   1.158  10.416   5.827  1.4255  0.4730  0.8321
  933MOL0     H23105   1.314  10.646   5.693 -1.5778 -0.2512 -0.0837
  933MOL0     H23106   1.351  10.608   5.858  2.2428  2.5501 -1.4232
  933MOL0     H23107   1.405  10.379   5.815 -0.2229  1.0120  1.3835
  933MOL0     H23108   1.514  10.504   5.742  0.4499  0.4390  1.8590
  933MOL0     H23109   1.462  10.525   5.454 -0.8842  0.3816 -0.9749
  933MOL0     H23110   1.401  10.379   5.213 -0.2431 -2.3562 -1.7498
  933MOL0     H23111   1.395  10.208   5.242  0.5727 -0.5249 -0.1921
  933MOL0     H23112   1.639  10.401   5.251  2.2937 -0.9513  0.3660
  933MOL0     H23113   1.596  10.267   5.141 -1.1758  0.2042 -0.6062
  933MOL0     H23114   1.657  10.217   5.426  0.8798 -0.5567 -0.1237
  933MOL0     H23115   1.640  10.096   5.296  1.6090 -1.3347  0.3675
  933MOL0     H23116   1.847  10.188   5.193 -0.9262 -0.2421 -0.1776
  933MOL0     H23117   1.871  10.119   5.358  1.3247  1.1612  1.3157
  933MOL0     H23118   1.955  10.581   5.295  2.3504  1.9573 -0.4994
  933MOL0     H23119   2.134  10.648   5.208  0.7462  0.8172  1.5292
  933MOL0     H23120   2.547  10.293   4.876  0.1225 -0.4859 -1.3523
  933MOL0     H23121   2.778  10.332   4.760  0.3171  1.5233 -2.5899
  933MOL0     H23122   3.134  10.555   4.840  0.0324 -0.0442 -0.4870
  933MOL0     H23123   3.053  10.580   4.994  0.4545  1.1533 -0.3256
  933MOL0     H23124   2.952  10.781   4.860  0.2584 -0.3955 -0.7626
  933MOL0     H23125   3.077  10.739   4.737  0.4905 -1.0051 -0.2388
  933MOL0     H23126   3.113  10.819   5.032  1.4893 -0.6899  0.5199
  933MOL0     H23127   3.126  10.934   4.895  0.2868  0.5767  1.6923
  933MOL0     H23128   3.329  10.703   4.951  1.5943 -0.7859 -1.3833
  933MOL0     H23129   3.330  10.808   4.814  0.6613 -3.0219  0.2805
  933MOL0     H23130   3.339  10.895   5.113  1.3860 -2.5063  1.7325
  933MOL0     H23131   3.337  11.007   4.977  0.6825 -1.6907 -4.2077
  933MOL0     H23132   3.551  10.922   4.897  0.0443 -1.3551  0.9226
  933MOL0     H23133   3.545  10.784   4.996 -0.7892  0.1002  0.5078
  933MOL0     H23134   3.566  11.071   5.088  0.0410  0.6828  2.2814
  933MOL0     H23135   3.552  10.922   5.200 -0.8446  0.0619 -0.0926
  933MOL0     H23136   3.792  10.992   5.163  0.5698  1.9828 -2.3509
  933MOL0     H23137   3.766  10.933   4.989 -1.6505 -3.2611 -1.3864
  933MOL0     H23138   2.836  10.658   5.044 -1.5925  1.0809 -2.3951
  933MOL0     H23139   2.627  10.595   5.160  1.2284  2.5230 -1.1066
  933MOL0     H23140   2.289  10.230   5.175  3.8051  2.3043  1.2472
  933MOL0     H23141   2.083  10.163   5.283  1.1094 -0.6695 -1.4994
  933MOL0     H23142   1.345  10.608   6.347  2.4634 -0.9194  2.1412
  933MOL0     H23143   1.585  10.643   6.377 -0.0598 -0.6504  0.2587
  933MOL0     H23144   1.936  10.841   6.414 -1.2306  1.6242 -0.6278
  933MOL0     H23145   2.146  10.907   6.390  1.6501 -0.4730  0.3034
  933MOL0     H23146   2.297  11.052   6.356 -0.3459  1.2351  0.0676
  933MOL0     H23147   2.370  10.930   6.468 -2.8803  0.1837  3.9844
  933MOL0     H23148   2.454  11.234   6.459  3.4718  1.1605 -3.1048
  933MOL0     H23149   2.526  11.111   6.549  1.3944  0.5617 -0.0543
  933MOL0     H23150   2.664  11.171   6.346 -1.3516  1.3077  2.8396
  933MOL0     H23151   2.533  11.136   6.247  1.6394  3.2716 -0.2944
  933MOL0     H23152   2.658  10.943   6.449 -0.0378 -0.5229  0.4886
  933MOL0     H23153   2.562  10.879   6.316  1.0946 -0.5148 -1.5902
  933MOL0     H23154   2.944  10.924   6.142 -0.2387 -2.8774 -0.4063
  933MOL0     H23155   2.127  11.113   6.756  2.0932 -1.1852  0.3416
  933MOL0     H23156   1.870  11.067   6.771 -3.0086 -3.8061  0.2005
  934MOL0     O23157  10.053   4.255   8.307  0.0491  0.2188  0.1345
  934MOL0     C23158  10.147   4.331   8.341  0.1404  0.5144 -0.3928
  934MOL0     O23159  10.129   4.453   8.381 -0.2922  0.3309  0.2898
  934MOL0     C23160  10.006   4.515   8.409  0.2734 -0.3092  0.3533
  934MOL0     C23161   9.895   4.512   8.322  0.2426  0.4654 -0.3821
  934MOL0     C23162   9.772   4.564   8.358  0.4142 -0.1943 -0.0420
  934MOL0     C23163   9.754   4.623   8.484 -0.0976  0.4792  0.6865
  934MOL0     O23164   9.637   4.685   8.523 -0.6833  0.1131  0.4474
  934MOL0     C23165   9.505   4.639   8.484  0.7426 -0.5131  0.0366
  934MOL0     C23166   9.490   4.504   8.541 -0.0568 -0.0410  0.3752
  934MOL0     C23167   9.367   4.424   8.497  0.4258 -0.5061  0.1327
  934MOL0     C23168   9.245   4.513   8.493 -0.2761  0.4026 -0.2943
  934MOL0     C23169   9.125   4.444   8.415 -0.1297 -0.6333 -0.2691
  934MOL0     C23170   9.001   4.523   8.435 -0.3470 -0.5829  0.3993
  934MOL0     C23171   8.870   4.458   8.398 -1.2860  0.5795  1.0158
  934MOL0     C23172   8.751   4.555   8.401 -0.0122  0.2631 -0.7018
  934MOL0     N23173   8.628   4.476   8.392 -0.3789 -0.1876 -0.2992
  934MOL0     C23174   8.585   4.393   8.293 -0.4861  0.2176 -0.0177
  934MOL0     C23175   8.467   4.335   8.346 -0.1492  0.3841 -0.2911
  934MOL0     C23176   8.389   4.235   8.271 -0.2713 -0.2010  0.1417
  934MOL0     C23177   8.247   4.223   8.313 -0.7836  0.3630 -0.3375
  934MOL0     C23178   8.224   4.090   8.393  0.2045  0.2090  0.3786
  934MOL0     C23179   8.194   3.967   8.310  0.3200  0.3402  0.3643
  934MOL0     O23180   8.267   3.954   8.189 -0.5749 -0.0743 -0.2499
  934MOL0     C23181   8.215   3.888   8.080  0.3355  0.0001  0.2488
  934MOL0     C23182   8.130   3.779   8.090  0.2930  0.7378  1.1801
  934MOL0     C23183   8.072   3.730   7.971  0.4884  0.4854 -0.3734
  934MOL0     C23184   8.111   3.780   7.849 -0.2729 -0.3470 -0.8426
  934MOL0     C23185   8.057   3.722   7.726  0.1294 -0.5411 -0.8171
  934MOL0     O23186   7.965   3.624   7.740 -0.0128  0.0705 -0.6693
  934MOL0     C23187   7.932   3.534   7.646 -0.1506  0.0851  0.2143
  934MOL0     C23188   7.838   3.447   7.691 -0.2416 -0.4696  0.1565
  934MOL0     C23189   7.770   3.358   7.604  0.4599  0.2747 -0.6237
  934MOL0     C23190   7.808   3.353   7.468 -0.0435  1.4258  0.2378
  934MOL0     O23191   7.746   3.274   7.372  0.4140  0.2920  0.5682
  934MOL0     C23192   7.623   3.205   7.397  0.2396  0.1026  0.2046
  934MOL0     C23193   7.569   3.124   7.276  0.4209 -0.0557 -0.6459
  934MOL0     C23194   7.439   3.044   7.310 -0.0753 -0.5759  0.0247
  934MOL0     C23195   7.402   2.966   7.182  0.6482  0.8468  0.2328
  934MOL0     C23196   7.301   2.851   7.205  0.4333 -0.0394  0.6297
  934MOL0     C23197   7.154   2.892   7.254  0.6929  0.8783 -0.0362
  934MOL0     C23198   7.103   2.985   7.149 -0.9514 -0.4142 -0.0671
  934MOL0     C23199   6.948   2.988   7.132 -0.1761 -0.5313  0.4849
  934MOL0    Cl23200   6.872   2.944   7.291  0.2187  0.4283  0.0102
  934MOL0     C23201   7.919   3.426   7.432 -0.7485 -0.3855  0.4170
  934MOL0     C23202   7.984   3.512   7.516  0.2875 -0.4612 -0.1068
  934MOL0     O23203   8.115   3.750   7.624 -0.2244 -0.5709 -0.9843
  934MOL0     C23204   8.205   3.883   7.838  0.4711  0.7080  0.3235
  934MOL0     C23205   8.255   3.927   7.954  0.3510 -1.4044 -0.0481
  934MOL0     N23206   8.445   4.380   8.471 -0.1886  0.4783  0.1813
  934MOL0     N23207   8.547   4.457   8.498  0.2363  0.0766  0.6786
  934MOL0     C23208   9.855   4.636   8.570  0.3782 -0.2531 -0.0617
  934MOL0     C23209   9.980   4.580   8.529  0.4101 -0.1273  0.2350
  934MOL0     C23210  10.279   4.268   8.354 -0.0464  0.2283  0.6300
  934MOL0     C23211  10.302   4.135   8.321 -0.3723 -0.1154  1.0547
  934MOL0     C23212  10.424   4.085   8.339  0.0407  0.1615 -0.5283
  934MOL0     C23213  10.527   4.150   8.403  0.2476 -0.7455  0.4373
  934MOL0     O23214  10.658   4.095   8.417  0.1763  0.1705  0.1386
  934MOL0     C23215  10.752   4.138   8.511  0.5030  0.5132  0.4393
  934MOL0     C23216  10.879   4.049   8.506  0.3867 -0.0767  0.0288
  934MOL0     C23217  10.969   4.069   8.626  0.0674 -0.1966 -1.1883
  934MOL0     C23218  11.016   4.220   8.637  0.5652  0.7262 -0.6397
  934MOL0     C23219  11.155   4.238   8.673 -0.3959  0.7391  0.4598
  934MOL0     C23220  11.274   4.242   8.697  0.3257 -0.0542 -0.1493
  934MOL0     C23221  10.503   4.277   8.447 -0.1965  0.6286 -0.6896
  934MOL0     C23222  10.376   4.336   8.433 -0.3478 -0.0654  0.2263
  934MOL0     H23223   9.910   4.464   8.225 -1.7050 -2.8400  0.7920
  934MOL0     H23224   9.687   4.562   8.292 -1.6195  0.8276  2.3886
  934MOL0     H23225   9.497   4.637   8.375 -0.0393  1.2783  0.0259
  934MOL0     H23226   9.432   4.710   8.524 -0.7427 -1.5282 -0.8059
  934MOL0     H23227   9.479   4.524   8.648  0.0627  0.3090  0.3229
  934MOL0     H23228   9.575   4.435   8.538 -0.5038 -0.6258  0.8464
  934MOL0     H23229   9.335   4.340   8.559  0.8528  0.1411  1.2675
  934MOL0     H23230   9.393   4.400   8.394 -1.7325 -1.4832 -0.2385
  934MOL0     H23231   9.219   4.533   8.597  0.8342  0.0112  0.0713
  934MOL0     H23232   9.259   4.602   8.431 -1.8663  0.3993 -0.6877
  934MOL0     H23233   9.110   4.339   8.444 -1.1228  0.1099  2.2096
  934MOL0     H23234   9.138   4.442   8.307  1.0046 -1.9776 -0.1409
  934MOL0     H23235   9.020   4.615   8.378 -0.2898 -0.1023  1.1896
  934MOL0     H23236   8.989   4.541   8.542 -0.9404  0.7720  0.1339
  934MOL0     H23237   8.884   4.417   8.297 -0.0661  1.2882  0.8797
  934MOL0     H23238   8.850   4.373   8.464 -1.5676 -0.4553 -0.3387
  934MOL0     H23239   8.753   4.622   8.315  2.1565 -3.3298 -3.7806
  934MOL0     H23240   8.753   4.604   8.499  0.1405 -1.0927  0.0001
  934MOL0     H23241   8.634   4.369   8.199  1.1672 -1.2575  1.1258
  934MOL0     H23242   8.438   4.139   8.290 -4.1830 -2.9071 -1.9373
  934MOL0     H23243   8.389   4.257   8.164  0.1112  0.8274  0.3344
  934MOL0     H23244   8.188   4.223   8.221 -0.1708 -0.9914 -0.7572
  934MOL0     H23245   8.221   4.315   8.366 -2.6993 -1.2869  1.8070
  934MOL0     H23246   8.310   4.081   8.460 -0.2694  0.7348  1.0708
  934MOL0     H23247   8.134   4.096   8.455 -0.6211  3.6384 -0.9432
  934MOL0     H23248   8.086   3.961   8.295  0.2308  2.4548 -0.2201
  934MOL0     H23249   8.220   3.880   8.371 -0.6833 -0.2533 -0.0316
  934MOL0     H23250   8.096   3.743   8.187  2.5798 -4.1569  0.4725
  934MOL0     H23251   8.012   3.640   7.982 -0.2504  1.1722  1.5889
  934MOL0     H23252   7.792   3.453   7.789  0.6414 -1.7969  0.6765
  934MOL0     H23253   7.694   3.291   7.644  0.9042  2.0300  3.7099
  934MOL0     H23254   7.550   3.274   7.441 -0.8322 -0.8568 -0.0039
  934MOL0     H23255   7.658   3.136   7.474  6.6906  1.4741 -0.9425
  934MOL0     H23256   7.637   3.041   7.256 -0.2449 -0.5737 -0.8091
  934MOL0     H23257   7.552   3.184   7.185 -0.4378  0.5736 -0.0863
  934MOL0     H23258   7.356   3.111   7.332 -0.9452 -0.1693 -3.7371
  934MOL0     H23259   7.453   2.976   7.394  2.1931 -3.1759 -2.2163
  934MOL0     H23260   7.367   3.027   7.097  1.1410  1.0778  0.1922
  934MOL0     H23261   7.491   2.909   7.153 -0.9113 -1.9094  0.5775
  934MOL0     H23262   7.347   2.797   7.289  0.8341 -2.3211 -0.9682
  934MOL0     H23263   7.293   2.793   7.113 -0.2084  0.8107  0.1426
  934MOL0     H23264   7.156   2.948   7.348 -2.6567  1.4939 -0.2062
  934MOL0     H23265   7.086   2.807   7.267  1.2408  0.5011  0.4710
  934MOL0     H23266   7.146   3.085   7.159 -0.4215 -0.0514 -4.1964
  934MOL0     H23267   7.137   2.959   7.048 -1.0932 -2.8472  0.4707
  934MOL0     H23268   6.902   2.930   7.052  0.0318 -0.3233  0.2141
  934MOL0     H23269   6.932   3.095   7.115  0.9445  0.1951  3.3907
  934MOL0     H23270   7.938   3.431   7.325 -1.5468 -3.6693  0.0240
  934MOL0     H23271   8.069   3.562   7.470  0.2086  1.7444  1.9676
  934MOL0     H23272   8.233   3.939   7.749  2.0212  0.0124  0.3446
  934MOL0     H23273   8.317   4.016   7.948  0.8993 -1.5809  2.0103
  934MOL0     H23274   9.838   4.685   8.666  4.0038  0.2321  0.4816
  934MOL0     H23275  10.061   4.576   8.601 -0.4951 -2.6087  1.2569
  934MOL0     H23276  10.231   4.076   8.263 -1.5917  2.9064 -0.7939
  934MOL0     H23277  10.451   3.988   8.299  0.5914 -0.2179  0.7172
  934MOL0     H23278  10.710   4.127   8.612  1.0752 -0.2803  0.5983
  934MOL0     H23279  10.776   4.243   8.497 -0.5507  0.7775  0.4783
  934MOL0     H23280  10.842   3.946   8.509  0.5752 -0.1334  2.0267
  934MOL0     H23281  10.929   4.068   8.411  0.5486 -1.3811 -0.1660
  934MOL0     H23282  11.057   4.004   8.624 -1.1607 -1.9184 -1.7306
  934MOL0     H23283  10.909   4.046   8.715  0.2489  1.4760 -0.6018
  934MOL0     H23284  11.010   4.272   8.541 -1.4936 -0.2695 -1.0995
  934MOL0     H23285  10.947   4.271   8.705 -0.6938  0.9832 -2.0526
  934MOL0     H23286  11.378   4.260   8.714 -0.4287  4.6239  0.9763
  934MOL0     H23287  10.579   4.333   8.500 -0.3456  2.7376 -2.5707
  934MOL0     H23288  10.360   4.435   8.474 -0.5725 -0.6985  1.7477
  935MOL0     O23289   1.134   3.739   0.924 -0.1686 -0.1369 -0.1166
  935MOL0     C23290   1.173   3.713   0.805  0.4647  0.2652 -0.0568
  935MOL0     O23291   1.100   3.656   0.706  0.7397  0.0791 -0.1648
  935MOL0     C23292   0.964   3.639   0.731 -0.0662 -0.1777  1.1028
  935MOL0     C23293   0.921   3.511   0.709  1.1826 -0.4346  0.8776
  935MOL0     C23294   0.793   3.470   0.757  0.6455 -0.0798 -0.0295
  935MOL0     C23295   0.703   3.558   0.823 -0.0758 -0.1001  0.6969
  935MOL0     O23296   0.580   3.522   0.857  0.7011  0.7409 -0.1684
  935MOL0     C23297   0.489   3.620   0.912  0.1209  0.3871 -0.5396
  935MOL0     C23298   0.350   3.553   0.942 -0.1455 -0.8858  0.2012
  935MOL0     C23299   0.251   3.655   0.999 -0.4295  1.3487  0.0510
  935MOL0     C23300   0.120   3.580   1.016  0.0112 -0.0157 -0.0585
  935MOL0     C23301   0.014   3.682   1.043  0.7567 -0.3080 -0.3593
  935MOL0     C23302  -0.112   3.615   1.091  0.4196  0.5392  0.1234
  935MOL0     C23303  -0.175   3.497   0.999  0.7777  0.1255 -0.3810
  935MOL0     C23304  -0.302   3.429   1.069  0.4254 -0.6539  0.4349
  935MOL0     N23305  -0.410   3.516   1.118  0.3610 -0.5863 -0.5423
  935MOL0     C23306  -0.481   3.604   1.038 -0.2599 -0.4646  0.0725
  935MOL0     C23307  -0.579   3.652   1.122  0.4398 -0.1817 -0.7141
  935MOL0     C23308  -0.667   3.773   1.103  0.1766  0.2471 -0.2800
  935MOL0     C23309  -0.812   3.745   1.133 -0.7503 -0.6303 -0.5611
  935MOL0     C23310  -0.847   3.778   1.288  0.5558 -0.6713  0.0185
  935MOL0     C23311  -1.005   3.809   1.292  0.3977  0.5538  0.0678
  935MOL0     O23312  -1.074   3.692   1.246 -0.3910  0.1796 -0.5096
  935MOL0     C23313  -1.210   3.695   1.255  0.2192 -0.4457 -0.3458
  935MOL0     C23314  -1.260   3.572   1.221 -0.4969  0.2749 -0.0504
  935MOL0     C23315  -1.396   3.542   1.233 -1.2980  0.0753  0.4888
  935MOL0     C23316  -1.486   3.641   1.249  0.4397 -0.1174 -0.2854
  935MOL0     C23317  -1.633   3.619   1.244 -0.0028 -0.2413  0.5184
  935MOL0     O23318  -1.727   3.721   1.260 -0.0911 -0.0979  0.0633
  935MOL0     C23319  -1.854   3.690   1.237 -0.1644 -0.5772 -0.3745
  935MOL0     C23320  -1.915   3.758   1.135  0.0554  0.1125  0.5559
  935MOL0     C23321  -2.049   3.727   1.107  0.1869 -0.3989 -0.1514
  935MOL0     C23322  -2.125   3.641   1.183 -0.4015  0.6559  0.0615
  935MOL0     O23323  -2.258   3.609   1.159 -0.3491  0.7154  0.3578
  935MOL0     C23324  -2.352   3.710   1.187 -0.2604  0.3154 -0.5438
  935MOL0     C23325  -2.420   3.687   1.324  0.2049  0.6597  0.0718
  935MOL0     C23326  -2.560   3.731   1.341 -0.1806  0.7299  1.1454
  935MOL0     C23327  -2.593   3.867   1.289  0.3301  0.3441  0.0503
  935MOL0     C23328  -2.736   3.916   1.314 -0.0298 -0.0689  0.8672
  935MOL0     C23329  -2.837   3.868   1.205  0.1672  0.3211 -0.5344
  935MOL0     C23330  -2.974   3.911   1.240  0.9512  0.3645 -0.2792
  935MOL0     C23331  -3.072   3.899   1.128  1.0752 -0.0540 -0.4888
  935MOL0    Cl23332  -3.243   3.925   1.182  0.3194 -0.3627 -0.2585
  935MOL0     C23333  -2.059   3.568   1.291 -0.1373  0.2000  0.2485
  935MOL0     C23334  -1.920   3.595   1.322 -0.1066 -0.5879 -0.3787
  935MOL0     O23335  -1.659   3.496   1.243  0.2049  0.4534 -0.2218
  935MOL0     C23336  -1.442   3.768   1.281 -0.4537 -0.0542  0.0294
  935MOL0     C23337  -1.300   3.798   1.292 -0.0695 -0.3104 -0.0839
  935MOL0     N23338  -0.564   3.590   1.248  0.6736  0.4367  0.2618
  935MOL0     N23339  -0.455   3.512   1.248 -0.1911  1.1196 -0.0942
  935MOL0     C23340   0.750   3.692   0.840 -0.9435 -0.5385  0.5823
  935MOL0     C23341   0.880   3.729   0.793  0.5045 -0.5775 -0.1895
  935MOL0     C23342   1.315   3.723   0.773 -0.1633  0.8318 -0.2973
  935MOL0     C23343   1.369   3.677   0.653 -0.5277 -0.0408 -0.0577
  935MOL0     C23344   1.503   3.692   0.621  0.9900 -0.2474 -0.0574
  935MOL0     C23345   1.597   3.754   0.710 -0.4250  0.5927  0.2981
  935MOL0     O23346   1.732   3.762   0.661  0.1613 -0.3106  0.0650
  935MOL0     C23347   1.830   3.838   0.727 -0.6557 -1.0785  0.5321
  935MOL0     C23348   1.918   3.747   0.809 -0.9556 -0.7344  0.3689
  935MOL0     C23349   2.029   3.807   0.886  0.6816  0.6078 -0.8267
  935MOL0     C23350   2.124   3.706   0.951 -0.1083 -0.1269  0.2772
  935MOL0     C23351   2.061   3.641   1.061  0.5192 -0.0330 -0.0664
  935MOL0     C23352   2.023   3.590   1.162  0.9317  0.0822 -1.7923
  935MOL0     C23353   1.542   3.807   0.831 -0.3529 -0.3752  0.0243
  935MOL0     C23354   1.400   3.785   0.865  0.2372  0.0924  0.8141
  935MOL0     H23355   0.980   3.449   0.642 -1.3397 -1.5349 -0.4697
  935MOL0     H23356   0.771   3.364   0.769  0.5203 -0.1299 -0.6865
  935MOL0     H23357   0.473   3.708   0.848 -0.8965  2.0698  1.8943
  935MOL0     H23358   0.535   3.654   1.005  1.2065 -0.5652 -0.7055
  935MOL0     H23359   0.361   3.475   1.018 -1.9820 -1.1678  0.2409
  935MOL0     H23360   0.320   3.504   0.849  2.8503 -3.0362  0.2438
  935MOL0     H23361   0.221   3.731   0.926 -1.6521  1.0458  0.2171
  935MOL0     H23362   0.289   3.711   1.085  0.5475  0.0989  0.4552
  935MOL0     H23363   0.095   3.519   0.930 -2.8804 -2.4898  2.3035
  935MOL0     H23364   0.129   3.513   1.103  0.9959  1.2243  0.8387
  935MOL0     H23365  -0.019   3.737   0.954 -1.4763  1.2523  1.2823
  935MOL0     H23366   0.051   3.755   1.116 -0.0128 -2.2396  2.0759
  935MOL0     H23367  -0.182   3.698   1.108  0.5528  0.5869  0.4549
  935MOL0     H23368  -0.108   3.569   1.191 -1.2381 -1.5956 -0.7034
  935MOL0     H23369  -0.207   3.532   0.901 -2.1044 -1.5744 -0.1631
  935MOL0     H23370  -0.094   3.425   0.982  0.9565  0.4834 -1.0636
  935MOL0     H23371  -0.268   3.371   1.155 -0.0637 -1.3209  0.1904
  935MOL0     H23372  -0.352   3.369   0.992  2.2489 -0.1224 -1.2580
  935MOL0     H23373  -0.453   3.633   0.937 -0.5236  1.4997  0.5111
  935MOL0     H23374  -0.654   3.802   0.998  1.9443 -0.9864 -0.4381
  935MOL0     H23375  -0.622   3.850   1.166  0.1286  0.4164 -0.4501
  935MOL0     H23376  -0.850   3.649   1.097 -4.2386  0.6228 -0.6330
  935MOL0     H23377  -0.851   3.829   1.075 -0.1225 -0.1996 -0.3672
  935MOL0     H23378  -0.823   3.701   1.361  0.2886  0.8911  1.8512
  935MOL0     H23379  -0.791   3.868   1.317  0.2102  0.3639 -2.2867
  935MOL0     H23380  -1.030   3.890   1.223  0.4222  1.3905  1.0373
  935MOL0     H23381  -1.036   3.839   1.392  0.3045  0.1780  0.1536
  935MOL0     H23382  -1.199   3.489   1.187  0.8387  1.1053  0.2119
  935MOL0     H23383  -1.427   3.439   1.215  1.3362 -0.9748  1.4092
  935MOL0     H23384  -1.869   3.839   1.081  0.5418  0.9501  2.1646
  935MOL0     H23385  -2.108   3.770   1.026  0.0552  0.6684  0.4776
  935MOL0     H23386  -2.442   3.699   1.124 -0.4127 -0.2675 -0.2351
  935MOL0     H23387  -2.312   3.811   1.181 -0.5017  0.4499  0.0237
  935MOL0     H23388  -2.361   3.715   1.412 -1.7661  2.9779  0.7791
  935MOL0     H23389  -2.425   3.578   1.327  0.1646  0.4200 -3.8460
  935MOL0     H23390  -2.582   3.738   1.448 -0.9867  3.8209  0.8865
  935MOL0     H23391  -2.619   3.655   1.290  2.9840 -0.9374 -0.3182
  935MOL0     H23392  -2.529   3.936   1.344 -0.6404  1.4586 -0.1730
  935MOL0     H23393  -2.569   3.869   1.182 -0.7837 -0.4576 -0.2372
  935MOL0     H23394  -2.734   4.025   1.316 -0.6977 -0.0329 -0.1023
  935MOL0     H23395  -2.777   3.882   1.410 -1.8467  0.7915  0.4435
  935MOL0     H23396  -2.824   3.761   1.185 -1.1331  0.2953 -1.3745
  935MOL0     H23397  -2.813   3.905   1.105  1.3229 -1.3090 -0.9111
  935MOL0     H23398  -3.002   3.855   1.330  0.8825  0.3789 -0.2922
  935MOL0     H23399  -2.966   4.015   1.273  1.7857 -0.6637  3.1844
  935MOL0     H23400  -3.071   3.795   1.095  1.0816 -0.4060  0.5563
  935MOL0     H23401  -3.046   3.962   1.043  3.7445  1.7675  1.4866
  935MOL0     H23402  -2.104   3.487   1.347  0.6391  1.1318  2.2970
  935MOL0     H23403  -1.862   3.539   1.394  0.3812  1.1107  0.6057
  935MOL0     H23404  -1.513   3.848   1.290  1.0815  1.2169  1.5502
  935MOL0     H23405  -1.267   3.898   1.320 -1.0393 -0.1982  0.7023
  935MOL0     H23406   0.694   3.775   0.881  0.7096  0.4754  0.9005
  935MOL0     H23407   0.925   3.824   0.821 -0.4880 -0.3451  0.6433
  935MOL0     H23408   1.303   3.630   0.580  0.1662 -1.1628  0.0107
  935MOL0     H23409   1.536   3.664   0.521 -0.4095  3.3308 -1.7021
  935MOL0     H23410   1.786   3.919   0.786  1.8188  1.0610 -0.4043
  935MOL0     H23411   1.897   3.882   0.653 -2.6078  0.2765 -0.5277
  935MOL0     H23412   1.844   3.701   0.876 -2.2788 -0.3214 -0.7628
  935MOL0     H23413   1.956   3.664   0.749 -0.8403 -1.3342  1.2492
  935MOL0     H23414   1.990   3.872   0.965 -1.1727 -2.2690  0.7874
  935MOL0     H23415   2.090   3.848   0.804  0.9631 -2.2598 -2.1851
  935MOL0     H23416   2.163   3.641   0.872 -1.2261 -0.9480  0.3803
  935MOL0     H23417   2.207   3.765   0.991 -1.8498 -0.0499  4.2007
  935MOL0     H23418   2.034   3.534   1.253  3.2175  2.0146 -0.7763
  935MOL0     H23419   1.610   3.860   0.897 -0.3342  1.9688 -1.7523
  935MOL0     H23420   1.373   3.822   0.964  0.3052 -0.7850  1.1679
  936MOL0     O23421   9.240   0.801   2.293  0.5529 -0.4611 -0.0172
  936MOL0     C23422   9.172   0.768   2.391 -0.3048 -0.2451 -0.7075
  936MOL0     O23423   9.059   0.679   2.394 -0.1363  0.3520 -0.1059
  936MOL0     C23424   9.037   0.599   2.282  0.1922  0.5709  0.4665
  936MOL0     C23425   9.134   0.540   2.207  0.6335 -0.8902  0.1245
  936MOL0     C23426   9.097   0.469   2.093 -0.4493  0.2791  0.4920
  936MOL0     C23427   8.968   0.459   2.052 -0.3105 -0.7229  0.6116
  936MOL0     O23428   8.926   0.396   1.943  1.0062 -0.7553  0.0975
  936MOL0     C23429   8.939   0.461   1.821 -0.2887 -0.3667 -0.0870
  936MOL0     C23430   8.806   0.533   1.790  0.0130 -0.0336 -1.0150
  936MOL0     C23431   8.821   0.612   1.662 -0.9772 -0.7637 -0.3079
  936MOL0     C23432   8.700   0.695   1.624 -0.7243 -0.2857 -0.8873
  936MOL0     C23433   8.744   0.820   1.550  0.6119 -0.5827  0.5224
  936MOL0     C23434   8.608   0.886   1.517 -0.9097  0.6284 -0.1167
  936MOL0     C23435   8.611   1.017   1.441 -0.0853 -1.0842 -0.5742
  936MOL0     C23436   8.700   1.135   1.512 -0.5487  0.9969  0.0384
  936MOL0     N23437   8.845   1.128   1.489 -0.8533  0.8282 -0.3373
  936MOL0     C23438   8.902   1.102   1.366 -0.5761 -0.0658 -0.1827
  936MOL0     C23439   9.031   1.073   1.388 -0.3030 -0.0729  0.6733
  936MOL0     C23440   9.128   1.046   1.279  0.1458 -0.5443 -0.6638
  936MOL0     C23441   9.253   1.010   1.342 -0.8741  0.7491  0.0023
  936MOL0     C23442   9.373   1.017   1.242  0.0127 -0.7735 -0.3230
  936MOL0     C23443   9.505   0.979   1.307 -0.1440 -0.7319  0.4140
  936MOL0     O23444   9.545   1.072   1.408  0.0053 -0.1987  0.4376
  936MOL0     C23445   9.616   1.020   1.511 -0.4865 -0.1436  0.2875
  936MOL0     C23446   9.562   0.987   1.630  0.9499  0.3850 -0.0023
  936MOL0     C23447   9.654   0.943   1.726  0.2600  0.0552  0.9006
  936MOL0     C23448   9.789   0.924   1.704 -0.2431  0.2781 -0.1193
  936MOL0     C23449   9.884   0.904   1.815  0.7329 -0.4190  0.2507
  936MOL0     O23450  10.011   0.941   1.793 -0.2959 -0.0722  1.0543
  936MOL0     C23451  10.121   0.896   1.863 -0.2921  0.7703 -1.1708
  936MOL0     C23452  10.239   0.955   1.821  1.2987  0.6679 -0.6658
  936MOL0     C23453  10.368   0.930   1.885  0.2754  0.5327  1.7242
  936MOL0     C23454  10.374   0.834   1.994 -0.1892  0.6530 -0.2443
  936MOL0     O23455  10.481   0.822   2.082  0.8147 -0.3140 -0.7150
  936MOL0     C23456  10.609   0.885   2.057 -0.0566  0.0393 -0.2536
  936MOL0     C23457  10.675   0.920   2.181 -0.8984  0.3754 -0.0091
  936MOL0     C23458  10.827   0.973   2.168  0.3381 -0.0974  0.6797
  936MOL0     C23459  10.911   0.870   2.086  0.8270 -0.6771 -0.3993
  936MOL0     C23460  11.062   0.871   2.136  0.8043 -1.2243  0.3830
  936MOL0     C23461  11.141   0.999   2.102 -0.1806 -0.1474 -0.7925
  936MOL0     C23462  11.268   1.020   2.182  0.5357  0.8047 -0.0723
  936MOL0     C23463  11.348   1.158   2.172  0.8084 -0.1503 -0.9063
  936MOL0    Cl23464  11.466   1.153   2.304 -0.2618 -0.1530  0.0425
  936MOL0     C23465  10.254   0.779   2.032  0.4201 -0.4487  0.7791
  936MOL0     C23466  10.127   0.809   1.974  0.0699 -0.3609 -0.2413
  936MOL0     O23467   9.841   0.837   1.908 -0.9364 -0.5702 -0.6519
  936MOL0     C23468   9.837   0.945   1.578  0.2371  0.5913 -0.4424
  936MOL0     C23469   9.749   0.994   1.482 -0.0319  1.0711  0.5853
  936MOL0     N23470   9.050   1.095   1.527 -0.8356 -0.3631 -0.0655
  936MOL0     N23471   8.941   1.125   1.582 -0.0880 -0.0692 -0.0948
  936MOL0     C23472   8.870   0.502   2.148 -0.7431  0.4254 -0.1656
  936MOL0     C23473   8.904   0.577   2.262  0.0918 -0.1654  0.6317
  936MOL0     C23474   9.218   0.826   2.518 -0.0372  0.5132  0.2836
  936MOL0     C23475   9.337   0.895   2.544 -0.5605  0.0811 -0.3620
  936MOL0     C23476   9.356   0.966   2.662 -0.0481  0.1223 -0.2305
  936MOL0     C23477   9.258   0.958   2.768 -0.3924  0.4897  0.1131
  936MOL0     O23478   9.292   1.020   2.889  0.0886  0.0296 -0.0698
  936MOL0     C23479   9.212   0.981   3.012  1.2380  0.2386 -0.2735
  936MOL0     C23480   9.298   1.015   3.134  1.3300  0.3011 -0.4056
  936MOL0     C23481   9.395   0.898   3.166 -0.0700 -0.5492 -0.4903
  936MOL0     C23482   9.509   0.895   3.058  0.1237  0.1828 -0.5306
  936MOL0     C23483   9.621   0.803   3.096  0.0999  0.1715 -0.4218
  936MOL0     C23484   9.730   0.749   3.126  0.2503 -0.3426 -0.7889
  936MOL0     C23485   9.155   0.873   2.755 -0.3445 -0.4745  0.0039
  936MOL0     C23486   9.135   0.810   2.632  0.3638 -0.0186  0.3997
  936MOL0     H23487   9.237   0.540   2.241  0.8552 -4.2397 -0.2178
  936MOL0     H23488   9.164   0.408   2.033 -4.3117 -2.1571 -1.7801
  936MOL0     H23489   8.949   0.378   1.750 -0.7084 -1.9410  1.6233
  936MOL0     H23490   9.018   0.536   1.810 -1.0528  0.2762 -1.3492
  936MOL0     H23491   8.767   0.596   1.871 -1.8848 -1.6004 -0.6258
  936MOL0     H23492   8.735   0.452   1.773  0.9091 -0.9385 -0.5609
  936MOL0     H23493   8.850   0.542   1.583  0.7618  1.0707 -1.4003
  936MOL0     H23494   8.909   0.677   1.673  2.5006 -4.8799 -0.8773
  936MOL0     H23495   8.637   0.627   1.566 -0.2711 -1.1241 -0.4122
  936MOL0     H23496   8.639   0.715   1.713  0.1039 -0.9641 -0.1488
  936MOL0     H23497   8.799   0.789   1.460  0.5696 -1.5496  0.8143
  936MOL0     H23498   8.802   0.885   1.616  0.4299 -0.0108  0.1288
  936MOL0     H23499   8.565   0.900   1.616 -0.9180 -0.5198  0.0566
  936MOL0     H23500   8.550   0.813   1.459  1.4586 -0.8654 -0.7397
  936MOL0     H23501   8.647   0.998   1.340 -0.5493 -0.6686 -0.8224
  936MOL0     H23502   8.512   1.060   1.422  0.5254  0.0844 -1.2669
  936MOL0     H23503   8.675   1.127   1.618 -3.1958 -0.0510 -0.5778
  936MOL0     H23504   8.672   1.238   1.487 -0.6490  0.5638 -1.7931
  936MOL0     H23505   8.854   1.107   1.268 -2.1340 -0.8310  0.5044
  936MOL0     H23506   9.131   1.135   1.216 -0.2501 -0.5396 -0.6779
  936MOL0     H23507   9.086   0.969   1.214  0.5270 -1.4855  0.1657
  936MOL0     H23508   9.248   0.907   1.380  0.4826 -0.3492 -2.4986
  936MOL0     H23509   9.281   1.058   1.436 -0.1802 -0.0764  0.2321
  936MOL0     H23510   9.349   0.944   1.164  0.3688 -2.2582  0.9230
  936MOL0     H23511   9.381   1.115   1.194 -0.9359  0.0978  1.2254
  936MOL0     H23512   9.587   0.972   1.235 -1.1789  1.7473 -1.1419
  936MOL0     H23513   9.491   0.882   1.356 -3.6986 -0.8079 -0.4617
  936MOL0     H23514   9.459   1.016   1.651  1.3707  0.9620  1.3733
  936MOL0     H23515   9.625   0.925   1.829  0.0034 -0.8440  0.6833
  936MOL0     H23516  10.233   1.023   1.736 -2.1030  1.0027 -0.3027
  936MOL0     H23517  10.454   0.978   1.841  0.9323 -0.3163  2.0573
  936MOL0     H23518  10.602   0.980   2.001  1.2837 -1.4949 -3.2713
  936MOL0     H23519  10.673   0.817   2.001  1.2709 -1.7552  3.1777
  936MOL0     H23520  10.675   0.829   2.243 -0.1568  0.3861  0.0082
  936MOL0     H23521  10.630   0.997   2.244 -1.1184  1.0022 -0.9275
  936MOL0     H23522  10.863   0.975   2.271  2.0045  0.0154  0.1366
  936MOL0     H23523  10.813   1.072   2.124 -2.4222 -0.5026  0.4788
  936MOL0     H23524  10.875   0.770   2.110  0.6968 -0.5302  0.0274
  936MOL0     H23525  10.908   0.891   1.979 -2.2609  0.0154 -0.2826
  936MOL0     H23526  11.124   0.789   2.100  2.0947  0.1193 -0.5749
  936MOL0     H23527  11.054   0.857   2.245  0.1925  0.6668  0.6066
  936MOL0     H23528  11.089   1.094   2.119  3.0980  1.8156 -1.0230
  936MOL0     H23529  11.178   0.991   1.999  1.3012 -1.4783 -0.1856
  936MOL0     H23530  11.231   1.007   2.284 -1.2882 -3.2052 -1.0651
  936MOL0     H23531  11.342   0.944   2.158  0.3625  0.5017  0.3385
  936MOL0     H23532  11.281   1.239   2.203  0.7693 -0.9068  1.0779
  936MOL0     H23533  11.395   1.175   2.074 -1.7468  0.5480 -2.0957
  936MOL0     H23534  10.263   0.705   2.111 -1.8918 -0.1913  1.3670
  936MOL0     H23535  10.046   0.753   2.020  0.0294 -0.1858 -0.0995
  936MOL0     H23536   9.944   0.932   1.564  0.3171  0.6547  0.0917
  936MOL0     H23537   9.783   1.022   1.383 -1.2514 -1.8794 -0.7722
  936MOL0     H23538   8.765   0.495   2.118 -0.7395  2.4364 -0.7800
  936MOL0     H23539   8.839   0.622   2.336 -1.7643  0.3968 -1.2440
  936MOL0     H23540   9.420   0.916   2.478 -0.6106  0.7967 -0.2011
  936MOL0     H23541   9.433   1.040   2.679  1.0356 -1.4754  2.5860
  936MOL0     H23542   9.179   0.877   3.000 -0.4039  0.6903  0.1187
  936MOL0     H23543   9.120   1.040   3.013  1.3033  0.3406 -0.3057
  936MOL0     H23544   9.345   1.113   3.117  1.6884  0.4502  1.2694
  936MOL0     H23545   9.231   1.032   3.219 -1.7175 -3.2522 -1.8111
  936MOL0     H23546   9.346   0.800   3.164  0.3744 -0.7576 -1.2157
  936MOL0     H23547   9.448   0.916   3.260 -2.0599  0.2386  0.5476
  936MOL0     H23548   9.471   0.856   2.963  0.9540  2.7275 -2.0197
  936MOL0     H23549   9.550   0.996   3.046 -0.6475  0.5566 -0.1174
  936MOL0     H23550   9.819   0.699   3.157  1.7415  1.8229 -1.3554
  936MOL0     H23551   9.086   0.847   2.835 -1.2396  0.9174 -0.2826
  936MOL0     H23552   9.043   0.753   2.623  0.3259  0.4433 -3.4193
  937MOL0     O23553   3.173   3.102   8.428 -0.6336 -0.1590  0.5924
  937MOL0     C23554   3.287   3.088   8.376  0.8090  0.3075 -1.0932
  937MOL0     O23555   3.313   3.022   8.258  0.0532  0.2341  0.0951
  937MOL0     C23556   3.209   3.035   8.166 -0.3786  0.1208 -0.8089
  937MOL0     C23557   3.215   3.132   8.066 -0.3332 -0.3161  0.2326
  937MOL0     C23558   3.127   3.149   7.967 -0.1059  0.5870  0.8646
  937MOL0     C23559   3.011   3.066   7.958 -0.0856  0.3039  0.1902
  937MOL0     O23560   2.928   3.074   7.848 -0.2844  0.0419 -0.4253
  937MOL0     C23561   2.808   2.987   7.858  0.0698 -0.8752  0.4789
  937MOL0     C23562   2.708   3.029   7.738 -0.0435  0.3572  0.4689
  937MOL0     C23563   2.755   2.978   7.604 -1.1122  0.2745 -1.1622
  937MOL0     C23564   2.656   3.030   7.498  0.4016  0.3775  0.0266
  937MOL0     C23565   2.690   2.990   7.357 -0.4099 -0.1706  1.2239
  937MOL0     C23566   2.575   3.049   7.266 -0.3786  0.3098  0.5471
  937MOL0     C23567   2.627   3.033   7.123  0.2347 -0.2933  0.9009
  937MOL0     C23568   2.521   3.096   7.030 -0.0575 -0.0764 -0.2885
  937MOL0     N23569   2.411   3.002   7.009 -0.2528 -0.2810  0.7770
  937MOL0     C23570   2.416   2.910   6.900 -0.3235  0.1980 -0.2250
  937MOL0     C23571   2.306   2.839   6.903  0.2679 -0.0101  0.3308
  937MOL0     C23572   2.294   2.727   6.800  0.9425  0.0538 -0.2793
  937MOL0     C23573   2.168   2.735   6.717 -0.2235  0.6669  0.7213
  937MOL0     C23574   2.137   2.873   6.666 -0.4188 -0.0382  1.0688
  937MOL0     C23575   1.995   2.893   6.594  0.0308  0.1626  1.2360
  937MOL0     O23576   1.995   2.830   6.460 -0.8978  0.5531  0.6199
  937MOL0     C23577   1.881   2.821   6.380  0.1421  0.2263 -0.8116
  937MOL0     C23578   1.748   2.841   6.427 -0.6048 -0.5823 -0.9275
  937MOL0     C23579   1.643   2.828   6.337  0.4597 -0.2866  0.1877
  937MOL0     C23580   1.658   2.790   6.202 -0.2843 -0.4648  1.0542
  937MOL0     C23581   1.543   2.793   6.107 -1.0051 -0.5116 -0.1216
  937MOL0     O23582   1.419   2.823   6.155  0.2704 -0.6760  0.1803
  937MOL0     C23583   1.319   2.824   6.068  0.5182  0.4860  0.0914
  937MOL0     C23584   1.312   2.900   5.955  0.2135 -0.2472 -0.2053
  937MOL0     C23585   1.216   2.889   5.865  0.6045 -0.2861 -0.0061
  937MOL0     C23586   1.127   2.780   5.873  0.2855 -0.2163 -0.4558
  937MOL0     O23587   1.048   2.753   5.762 -0.1130  0.1513  0.6707
  937MOL0     C23588   0.940   2.660   5.759  0.0724  0.5071 -0.5954
  937MOL0     C23589   0.911   2.632   5.611  1.0769 -0.7830 -0.2265
  937MOL0     C23590   0.775   2.548   5.602  0.1758 -0.3071 -0.0291
  937MOL0     C23591   0.733   2.516   5.458 -0.6130 -0.7309  0.1402
  937MOL0     C23592   0.832   2.438   5.371 -0.3514 -0.2975  0.0814
  937MOL0     C23593   0.908   2.316   5.434 -0.2460 -0.2845 -0.5977
  937MOL0     C23594   0.996   2.237   5.331 -0.9644 -0.0132  0.4560
  937MOL0     C23595   1.120   2.158   5.388 -0.0894  0.1260  0.7317
  937MOL0    Cl23596   1.095   2.072   5.533 -0.0114 -0.2091 -0.2709
  937MOL0     C23597   1.123   2.705   5.994  0.5616 -0.1825 -0.1892
  937MOL0     C23598   1.213   2.733   6.087 -0.4555  0.4063 -0.3935
  937MOL0     O23599   1.566   2.748   5.993  0.5118 -0.3700 -0.4139
  937MOL0     C23600   1.792   2.777   6.151 -0.2216  0.5945 -0.4063
  937MOL0     C23601   1.899   2.792   6.238 -0.7192  0.6411  0.3287
  937MOL0     N23602   2.233   2.877   7.016 -0.5354 -0.3147 -0.5851
  937MOL0     N23603   2.301   2.975   7.081 -0.1897 -0.4908 -0.2381
  937MOL0     C23604   3.004   2.961   8.052 -0.3289 -0.5841  0.0488
  937MOL0     C23605   3.096   2.949   8.160  0.2513  0.7271 -0.3621
  937MOL0     C23606   3.406   3.125   8.456  0.8895  0.4901  0.4090
  937MOL0     C23607   3.533   3.123   8.395  0.9561 -0.4349  0.2946
  937MOL0     C23608   3.647   3.167   8.462  0.1339 -0.1115 -0.0630
  937MOL0     C23609   3.635   3.210   8.594 -0.0924  0.5054 -0.6699
  937MOL0     O23610   3.735   3.267   8.675 -0.1726  0.7937 -0.3346
  937MOL0     C23611   3.854   3.329   8.629 -0.3643 -0.2675  0.2394
  937MOL0     C23612   3.858   3.476   8.662 -0.0831 -0.7522 -0.4281
  937MOL0     C23613   3.784   3.502   8.796  1.5890 -0.5039 -0.1002
  937MOL0     C23614   3.811   3.638   8.862 -0.4638  0.0303 -0.6143
  937MOL0     C23615   3.942   3.622   8.922 -0.4086 -0.5917  0.6241
  937MOL0     C23616   4.051   3.614   8.976 -0.2515 -0.4557  0.4644
  937MOL0     C23617   3.513   3.192   8.656 -0.4213  0.4144  0.2342
  937MOL0     C23618   3.394   3.164   8.588 -0.0495  0.4144  0.0738
  937MOL0     H23619   3.292   3.208   8.081 -1.2001  0.4516  0.9288
  937MOL0     H23620   3.145   3.231   7.898  0.2530 -0.3213 -0.1482
  937MOL0     H23621   2.760   3.008   7.954  0.4774 -0.9343  0.6997
  937MOL0     H23622   2.836   2.882   7.848 -2.4075 -1.5569 -0.0023
  937MOL0     H23623   2.696   3.137   7.723  1.4089  0.2234 -2.4168
  937MOL0     H23624   2.611   2.983   7.758 -1.5534  2.4380 -1.4516
  937MOL0     H23625   2.761   2.869   7.604 -3.3787  0.0874 -1.0104
  937MOL0     H23626   2.851   3.025   7.582  0.2496 -1.4825  0.6387
  937MOL0     H23627   2.554   2.996   7.518  0.8273  1.8602  6.9963
  937MOL0     H23628   2.646   3.138   7.505  3.6104  0.7056  1.4822
  937MOL0     H23629   2.702   2.882   7.344 -1.2892 -0.1612  0.1314
  937MOL0     H23630   2.780   3.046   7.326 -0.5168 -0.1129  1.0171
  937MOL0     H23631   2.547   3.153   7.285  2.4067  1.2612  0.0263
  937MOL0     H23632   2.486   2.986   7.274  0.1272 -1.4666 -4.2955
  937MOL0     H23633   2.716   3.096   7.118 -0.0690  0.0885  0.2327
  937MOL0     H23634   2.662   2.933   7.098  2.2211  0.5363  0.1503
  937MOL0     H23635   2.574   3.129   6.939  0.3300  0.3579  0.0915
  937MOL0     H23636   2.474   3.182   7.079 -1.0730  0.3416 -1.9078
  937MOL0     H23637   2.504   2.897   6.838 -0.1608  0.1247  0.0203
  937MOL0     H23638   2.303   2.629   6.848  0.5704 -0.4425 -1.2094
  937MOL0     H23639   2.382   2.723   6.736  1.4927  0.3530  0.4472
  937MOL0     H23640   2.084   2.684   6.765 -1.0029  1.1543 -0.0823
  937MOL0     H23641   2.187   2.669   6.632  0.6209 -0.2173  1.5725
  937MOL0     H23642   2.135   2.940   6.752 -0.0244 -0.4239  1.3875
  937MOL0     H23643   2.215   2.902   6.595 -1.7661 -1.4980 -1.1502
  937MOL0     H23644   1.956   2.996   6.593  0.4143  0.3764 -1.7291
  937MOL0     H23645   1.928   2.836   6.659  0.1381  0.1746  1.3559
  937MOL0     H23646   1.723   2.855   6.531 -0.2617 -2.8103 -0.4925
  937MOL0     H23647   1.544   2.865   6.362  1.6323  3.0270  0.4468
  937MOL0     H23648   1.384   2.981   5.952  0.3708 -0.3621  0.4655
  937MOL0     H23649   1.215   2.954   5.778 -1.8635  0.8276  0.7685
  937MOL0     H23650   0.856   2.711   5.808 -1.0888 -0.8841 -1.0772
  937MOL0     H23651   0.950   2.561   5.804 -5.3124  0.2802  0.7857
  937MOL0     H23652   0.995   2.582   5.563 -0.1329  0.5191 -4.1388
  937MOL0     H23653   0.896   2.726   5.556 -0.3215 -0.7328  0.2006
  937MOL0     H23654   0.696   2.604   5.652  1.2521  0.2807  1.0608
  937MOL0     H23655   0.791   2.453   5.655  3.4132  1.2014  1.9894
  937MOL0     H23656   0.641   2.460   5.477 -1.4791  0.5655 -0.1329
  937MOL0     H23657   0.709   2.606   5.400 -0.4979  0.7849  2.3314
  937MOL0     H23658   0.909   2.508   5.336  1.2493 -2.2701 -0.5612
  937MOL0     H23659   0.784   2.407   5.277 -0.8414  0.0621  0.2080
  937MOL0     H23660   0.846   2.240   5.483  0.5873 -1.2487 -1.0057
  937MOL0     H23661   0.980   2.358   5.505 -0.9173  2.8246 -1.5698
  937MOL0     H23662   0.925   2.181   5.269 -0.8898  1.1599 -0.7220
  937MOL0     H23663   1.044   2.307   5.263 -0.5595 -0.1923  0.5579
  937MOL0     H23664   1.194   2.235   5.410  1.0077 -0.8559  0.5916
  937MOL0     H23665   1.154   2.088   5.311 -0.4950 -1.2490  1.7565
  937MOL0     H23666   1.064   2.615   6.006 -0.1682  0.5880  2.6189
  937MOL0     H23667   1.227   2.670   6.175 -0.9950  1.5312  0.5200
  937MOL0     H23668   1.817   2.725   6.059  1.3608  0.6914 -0.0616
  937MOL0     H23669   1.997   2.779   6.193  0.4309  0.5257  2.7554
  937MOL0     H23670   2.920   2.891   8.059 -0.6142 -0.2992 -0.4500
  937MOL0     H23671   3.093   2.878   8.242 -0.9704  0.3797 -0.6958
  937MOL0     H23672   3.557   3.097   8.292  0.8216  2.6639 -0.6020
  937MOL0     H23673   3.744   3.179   8.414  0.8757 -1.7880  0.9257
  937MOL0     H23674   3.870   3.323   8.521  1.0365  3.6234  0.0609
  937MOL0     H23675   3.926   3.274   8.690 -0.1716 -0.0943  0.1678
  937MOL0     H23676   3.963   3.504   8.674 -0.1240 -0.9563  0.4264
  937MOL0     H23677   3.804   3.543   8.594 -1.3235  1.1695  2.2619
  937MOL0     H23678   3.785   3.415   8.862 -0.4900 -1.6196 -1.4218
  937MOL0     H23679   3.681   3.495   8.759  0.9824  1.1542  1.1937
  937MOL0     H23680   3.807   3.727   8.799 -1.0403  0.5759  0.1716
  937MOL0     H23681   3.741   3.655   8.944 -2.9924 -3.3350 -1.8058
  937MOL0     H23682   4.151   3.599   9.013  0.0183  0.5999  0.2265
  937MOL0     H23683   3.520   3.190   8.765  1.8328 -2.2234  0.1441
  937MOL0     H23684   3.296   3.173   8.634 -1.1231 -3.0431 -1.2462
  938MOL0     O23685   2.611   5.653   8.540 -0.1725  0.6140 -0.5593
  938MOL0     C23686   2.682   5.569   8.477  0.0425 -0.6091 -0.3615
  938MOL0     O23687   2.647   5.505   8.367 -0.5678  0.0183  0.6605
  938MOL0     C23688   2.535   5.553   8.303 -1.0804  0.2179 -0.1756
  938MOL0     C23689   2.558   5.613   8.180 -0.8252 -0.6465 -0.2211
  938MOL0     C23690   2.451   5.672   8.106 -0.1290 -1.2811  0.6201
  938MOL0     C23691   2.319   5.655   8.150 -0.1050  0.5803 -0.8293
  938MOL0     O23692   2.219   5.704   8.068 -0.2797  0.0331 -1.2307
  938MOL0     C23693   2.124   5.794   8.127 -0.7559 -0.0986 -0.1880
  938MOL0     C23694   2.059   5.873   8.019  0.2447  0.1540 -0.7833
  938MOL0     C23695   1.930   5.945   8.063 -0.3314  0.1052  0.0869
  938MOL0     C23696   1.890   6.015   7.941  0.5008 -0.2225  0.2290
  938MOL0     C23697   1.774   6.113   7.957  0.7172 -0.2798 -0.1881
  938MOL0     C23698   1.631   6.058   7.953 -0.2975  0.5264 -0.1606
  938MOL0     C23699   1.606   5.971   7.837 -1.1624  0.7174  0.3752
  938MOL0     C23700   1.637   6.037   7.705  0.1675  0.2635  0.0681
  938MOL0     N23701   1.600   5.970   7.572  0.1123  0.3585 -0.0482
  938MOL0     C23702   1.470   5.954   7.525 -1.1342 -0.2961  0.3137
  938MOL0     C23703   1.492   5.901   7.397 -0.6990 -0.7449 -0.0864
  938MOL0     C23704   1.378   5.856   7.306 -0.2384 -0.0622 -0.0942
  938MOL0     C23705   1.280   5.971   7.268 -0.4433 -0.1342  0.3111
  938MOL0     C23706   1.202   6.023   7.386 -0.5540  0.0396  0.0219
  938MOL0     C23707   1.078   6.103   7.352 -0.1580  0.0282 -0.6104
  938MOL0     O23708   0.967   6.017   7.326 -0.7038  0.4532 -0.3501
  938MOL0     C23709   0.850   6.026   7.391 -0.2260  0.0965  1.0493
  938MOL0     C23710   0.744   5.966   7.320  0.0054 -1.1662  0.1408
  938MOL0     C23711   0.619   5.969   7.368  0.4098  0.7292  0.1520
  938MOL0     C23712   0.596   6.028   7.491  0.6438  0.5649 -0.8548
  938MOL0     C23713   0.454   6.040   7.536 -0.2914 -0.0392 -0.8976
  938MOL0     O23714   0.365   5.969   7.466 -0.1040  1.6105 -0.1319
  938MOL0     C23715   0.230   5.967   7.495  0.3278  0.4086  0.0197
  938MOL0     C23716   0.165   5.983   7.621 -0.0823 -0.1402 -0.2046
  938MOL0     C23717   0.026   5.965   7.641 -0.3096  0.2244  0.1134
  938MOL0     C23718  -0.050   5.931   7.529 -0.1030 -0.3014  0.7777
  938MOL0     O23719  -0.190   5.921   7.547  0.2310 -0.4335  0.4378
  938MOL0     C23720  -0.281   5.917   7.435  0.3913 -0.5622 -0.3903
  938MOL0     C23721  -0.418   5.895   7.488 -0.8751  0.2552  0.4230
  938MOL0     C23722  -0.531   5.893   7.375 -0.0266 -0.1015 -0.0873
  938MOL0     C23723  -0.664   5.853   7.435 -0.4412  0.1065 -0.3332
  938MOL0     C23724  -0.784   5.855   7.334  0.5175 -0.5643 -0.3553
  938MOL0     C23725  -0.917   5.778   7.379 -0.2430  0.1389 -0.9720
  938MOL0     C23726  -1.047   5.830   7.316  0.5422 -1.3375 -0.3787
  938MOL0     C23727  -1.128   5.714   7.252  0.2781 -0.5654 -0.5900
  938MOL0    Cl23728  -1.292   5.772   7.225 -0.1740 -0.3307  0.0106
  938MOL0     C23729   0.006   5.922   7.396  0.0475 -0.4486  0.0001
  938MOL0     C23730   0.148   5.939   7.389 -0.1789  0.1168  0.6155
  938MOL0     O23731   0.425   6.111   7.634 -0.5029 -0.3413 -0.3261
  938MOL0     C23732   0.696   6.092   7.559  1.1147  0.3004  0.5438
  938MOL0     C23733   0.824   6.087   7.511 -0.3250 -0.3093  0.3455
  938MOL0     N23734   1.622   5.891   7.365  0.2358  0.1883  0.2270
  938MOL0     N23735   1.687   5.929   7.469 -0.6779  0.1629 -0.0143
  938MOL0     C23736   2.287   5.583   8.266 -0.5675  0.2649 -0.5187
  938MOL0     C23737   2.400   5.529   8.335  1.2618 -0.1481 -0.1087
  938MOL0     C23738   2.812   5.540   8.530  0.3330  0.5410  0.0061
  938MOL0     C23739   2.859   5.594   8.649  0.3522 -0.3009 -0.7267
  938MOL0     C23740   2.986   5.573   8.700  0.0034 -0.9214  0.5029
  938MOL0     C23741   3.077   5.501   8.620  0.9343 -0.1356  0.3509
  938MOL0     O23742   3.204   5.487   8.663  0.7100 -0.2244 -0.2698
  938MOL0     C23743   3.286   5.603   8.646 -0.5292 -0.1189 -0.0829
  938MOL0     C23744   3.387   5.608   8.767 -0.8858  0.9604  0.6408
  938MOL0     C23745   3.475   5.486   8.781  0.3475 -0.5275 -0.0249
  938MOL0     C23746   3.572   5.498   8.900  0.6651 -0.1580 -1.0677
  938MOL0     C23747   3.689   5.588   8.880  0.5335  0.4410 -0.0735
  938MOL0     C23748   3.781   5.657   8.845 -0.0252 -0.0260 -0.1722
  938MOL0     C23749   3.029   5.433   8.509  0.1462  0.4296 -0.2537
  938MOL0     C23750   2.901   5.445   8.465  0.9548  0.0568 -0.0229
  938MOL0     H23751   2.662   5.626   8.151 -0.8154 -0.4827 -0.1124
  938MOL0     H23752   2.475   5.732   8.019  3.6546 -0.0308  2.3373
  938MOL0     H23753   2.178   5.854   8.201 -1.2397 -1.5911  1.4537
  938MOL0     H23754   2.046   5.739   8.181  0.0589 -1.2558 -0.1615
  938MOL0     H23755   2.034   5.806   7.936 -1.4706  1.5091 -1.4195
  938MOL0     H23756   2.140   5.941   7.992  2.1383 -2.9543 -3.8187
  938MOL0     H23757   1.957   6.018   8.141  2.1481  0.2446 -0.8126
  938MOL0     H23758   1.852   5.875   8.094 -0.9915 -0.1162 -1.9441
  938MOL0     H23759   1.972   6.076   7.903  1.2317 -0.7767  0.8916
  938MOL0     H23760   1.870   5.946   7.858 -0.6483  0.9123 -0.4758
  938MOL0     H23761   1.781   6.194   7.885  0.1217 -1.7674 -2.0134
  938MOL0     H23762   1.788   6.155   8.057  2.1256  1.8898 -1.2414
  938MOL0     H23763   1.565   6.145   7.949  2.1472  2.4686 -3.1890
  938MOL0     H23764   1.618   5.992   8.040  0.7358 -0.5439 -0.7825
  938MOL0     H23765   1.671   5.884   7.846  2.1325  3.0422  0.9421
  938MOL0     H23766   1.501   5.942   7.839 -1.2516  0.9342  3.4009
  938MOL0     H23767   1.743   6.063   7.703  0.8648 -2.2001  0.9049
  938MOL0     H23768   1.580   6.130   7.703 -2.0592 -0.8622  3.3216
  938MOL0     H23769   1.377   5.982   7.574 -1.6130 -0.3824 -0.5271
  938MOL0     H23770   1.317   5.789   7.367 -1.0788 -0.3893 -1.2436
  938MOL0     H23771   1.417   5.801   7.219  0.9036 -2.9186  2.0750
  938MOL0     H23772   1.210   5.932   7.193  0.7016 -1.8185  0.0581
  938MOL0     H23773   1.331   6.063   7.235 -0.4636 -0.3842 -0.4447
  938MOL0     H23774   1.173   5.954   7.465 -1.0363  1.2929  0.9716
  938MOL0     H23775   1.269   6.099   7.428  1.2266 -2.5239  2.1036
  938MOL0     H23776   1.107   6.161   7.264 -0.6295  3.0742  1.1365
  938MOL0     H23777   1.056   6.175   7.430 -0.4607  0.1314 -0.7875
  938MOL0     H23778   0.773   5.930   7.221  3.9573 -0.1260  0.7316
  938MOL0     H23779   0.538   5.928   7.308 -0.8067  1.7011  1.0669
  938MOL0     H23780   0.234   6.013   7.700 -0.2300  2.1523 -0.8752
  938MOL0     H23781  -0.017   5.986   7.738  0.5992 -0.7725  0.7498
  938MOL0     H23782  -0.255   5.834   7.369 -2.3643 -2.0631  0.2267
  938MOL0     H23783  -0.280   6.011   7.379  0.1459 -1.3236 -1.7166
  938MOL0     H23784  -0.434   5.973   7.563 -1.6323  0.1079  0.4240
  938MOL0     H23785  -0.428   5.800   7.542 -2.3786  0.0963 -0.0966
  938MOL0     H23786  -0.507   5.822   7.295 -2.0829  1.1508 -1.9307
  938MOL0     H23787  -0.538   5.995   7.336  3.0530 -0.6250 -2.4591
  938MOL0     H23788  -0.671   5.748   7.464  1.7808 -0.1256 -0.4860
  938MOL0     H23789  -0.684   5.918   7.520  0.8509 -0.3247  0.3248
  938MOL0     H23790  -0.744   5.810   7.243  1.0470  0.8579 -0.8509
  938MOL0     H23791  -0.805   5.958   7.305  0.5137 -1.0164 -2.0637
  938MOL0     H23792  -0.929   5.776   7.488  1.5825 -1.2836 -0.7455
  938MOL0     H23793  -0.900   5.672   7.357  2.6306  0.2347  0.2775
  938MOL0     H23794  -1.104   5.874   7.399  0.5524 -0.2763 -0.9159
  938MOL0     H23795  -1.031   5.909   7.242 -1.9532 -0.8929 -0.5589
  938MOL0     H23796  -1.122   5.625   7.315  0.5148 -0.8190 -0.9677
  938MOL0     H23797  -1.078   5.701   7.155 -0.3369  0.2012 -1.0194
  938MOL0     H23798  -0.057   5.920   7.308  0.6434 -1.3622 -0.4238
  938MOL0     H23799   0.205   5.944   7.297 -0.7878  0.7627  0.2704
  938MOL0     H23800   0.675   6.143   7.652 -2.6745 -1.8452  1.0754
  938MOL0     H23801   0.903   6.138   7.566  0.1459  0.3466 -0.8896
  938MOL0     H23802   2.182   5.567   8.286 -0.5337 -0.3187 -0.7848
  938MOL0     H23803   2.388   5.482   8.432  3.5053 -0.9803 -0.1791
  938MOL0     H23804   2.790   5.650   8.711  3.6337  1.9985  1.1249
  938MOL0     H23805   3.014   5.609   8.799 -1.3066  1.5840  0.0284
  938MOL0     H23806   3.218   5.688   8.656 -4.0718 -2.6202 -0.7596
  938MOL0     H23807   3.337   5.592   8.550 -0.4096 -0.0143 -0.0307
  938MOL0     H23808   3.448   5.697   8.748  1.3600 -0.5251  0.4663
  938MOL0     H23809   3.318   5.630   8.849 -3.1130 -1.8978 -0.3276
  938MOL0     H23810   3.530   5.469   8.688  0.4204  2.4569 -0.6451
  938MOL0     H23811   3.413   5.397   8.795 -3.1031  1.8106  0.8631
  938MOL0     H23812   3.522   5.511   8.996  1.5970  1.0080 -0.7047
  938MOL0     H23813   3.615   5.398   8.902  1.2031  0.0536 -1.5906
  938MOL0     H23814   3.849   5.726   8.801 -1.0926  2.8965  2.4143
  938MOL0     H23815   3.089   5.373   8.442  0.0012 -1.2466  1.0424
  938MOL0     H23816   2.863   5.397   8.375  1.8966 -0.5278 -0.1228
  939MOL0     O23817   2.267   3.669   9.736  0.3225  0.5673 -0.4218
  939MOL0     C23818   2.255   3.548   9.760 -0.1622  0.2754 -0.2473
  939MOL0     O23819   2.139   3.475   9.753  0.3045 -0.5566 -0.1829
  939MOL0     C23820   2.030   3.518   9.688  0.1450  0.7467  0.4986
  939MOL0     C23821   1.964   3.420   9.617  0.5499  0.5366  1.0514
  939MOL0     C23822   1.845   3.447   9.541  0.9693  0.2283 -0.6870
  939MOL0     C23823   1.798   3.584   9.530 -0.0058 -0.0483 -0.3296
  939MOL0     O23824   1.706   3.614   9.439  0.1980 -0.1696  0.3586
  939MOL0     C23825   1.576   3.646   9.500 -0.5178 -0.7435  0.3719
  939MOL0     C23826   1.471   3.627   9.400 -0.3062  0.1676  0.2896
  939MOL0     C23827   1.327   3.649   9.466 -0.9766 -0.3391  0.5480
  939MOL0     C23828   1.221   3.638   9.356  0.1713  0.0481  0.6124
  939MOL0     C23829   1.077   3.679   9.387 -0.2950  0.0842 -0.2653
  939MOL0     C23830   0.998   3.704   9.259 -0.3528  0.3445  0.3654
  939MOL0     C23831   0.842   3.690   9.282 -0.2828 -0.5017 -0.2494
  939MOL0     C23832   0.766   3.714   9.154 -0.4260  0.1111 -0.3270
  939MOL0     N23833   0.622   3.730   9.184 -0.5495  0.0040 -0.2553
  939MOL0     C23834   0.567   3.830   9.262 -0.4590 -0.2732  0.6691
  939MOL0     C23835   0.443   3.783   9.299  0.0215  0.1161 -0.3869
  939MOL0     C23836   0.346   3.846   9.391  0.2076  1.0116 -0.0503
  939MOL0     C23837   0.288   3.738   9.479  0.0848 -0.3298 -0.3334
  939MOL0     C23838   0.214   3.796   9.603 -0.1965 -0.6560 -0.4668
  939MOL0     C23839   0.092   3.877   9.567  1.1404 -0.0211 -0.0171
  939MOL0     O23840   0.008   3.789   9.502  0.5972 -0.5128 -0.2665
  939MOL0     C23841  -0.123   3.822   9.476 -0.1410  0.0070  0.1920
  939MOL0     C23842  -0.193   3.945   9.501 -0.4105  0.9526 -0.1000
  939MOL0     C23843  -0.327   3.958   9.467  0.3995  0.1300  0.4700
  939MOL0     C23844  -0.406   3.847   9.416 -0.6489 -0.2988  0.5081
  939MOL0     C23845  -0.550   3.858   9.376  0.8695 -0.3383  0.4197
  939MOL0     O23846  -0.631   3.747   9.408 -0.2096  0.3573 -0.5241
  939MOL0     C23847  -0.762   3.725   9.365  0.6421  0.9705  0.8579
  939MOL0     C23848  -0.849   3.820   9.300 -1.0960  0.4727 -0.2010
  939MOL0     C23849  -0.971   3.781   9.261 -0.1892 -0.2699  0.0050
  939MOL0     C23850  -1.018   3.652   9.271  0.0998  0.0413  0.0894
  939MOL0     O23851  -1.139   3.604   9.232 -0.4357 -0.5309  0.0820
  939MOL0     C23852  -1.214   3.663   9.129 -0.5298  1.0429  0.3425
  939MOL0     C23853  -1.343   3.585   9.114 -0.3678 -0.3293 -0.1829
  939MOL0     C23854  -1.420   3.630   8.988  0.5207 -0.2166  1.2131
  939MOL0     C23855  -1.534   3.532   8.966 -0.1640  0.2943  0.6832
  939MOL0     C23856  -1.639   3.529   9.076 -0.8040 -0.0853 -0.3601
  939MOL0     C23857  -1.772   3.477   9.032  0.5356 -0.2794  0.1268
  939MOL0     C23858  -1.874   3.515   9.145 -0.5032 -0.3167 -0.3762
  939MOL0     C23859  -2.005   3.447   9.153  0.1511  0.6871  0.6119
  939MOL0    Cl23860  -1.969   3.272   9.186  0.3530 -0.2007 -0.0231
  939MOL0     C23861  -0.936   3.557   9.335  1.1393  0.4333  0.4486
  939MOL0     C23862  -0.810   3.593   9.387  0.1841 -1.1191  0.4883
  939MOL0     O23863  -0.588   3.969   9.328 -0.4235  0.3826 -0.1805
  939MOL0     C23864  -0.332   3.726   9.393  0.4736 -0.1971  0.3320
  939MOL0     C23865  -0.193   3.727   9.411  0.7738 -0.0002  0.3271
  939MOL0     N23866   0.431   3.659   9.247 -0.2067 -0.0428  0.0687
  939MOL0     N23867   0.536   3.626   9.166  0.6454 -0.7589 -0.4148
  939MOL0     C23868   1.869   3.679   9.596 -0.5472 -1.0246 -0.7217
  939MOL0     C23869   1.985   3.651   9.671 -0.0490  0.4301  0.0236
  939MOL0     C23870   2.362   3.485   9.843 -0.0055 -0.4618  0.0581
  939MOL0     C23871   2.487   3.545   9.829  0.0503 -0.4059 -0.0029
  939MOL0     C23872   2.594   3.503   9.907 -0.7952 -0.5189 -0.4240
  939MOL0     C23873   2.581   3.375   9.965 -0.0159 -0.0862  0.4129
  939MOL0     O23874   2.670   3.303  10.034 -0.5412 -0.4064 -0.3112
  939MOL0     C23875   2.804   3.358  10.045 -0.6149  0.0094  0.0920
  939MOL0     C23876   2.906   3.245  10.086  0.3082 -0.1066 -0.2278
  939MOL0     C23877   3.034   3.307  10.120  0.2393  0.0639 -0.0907
  939MOL0     C23878   3.125   3.201  10.189  0.0487 -0.0425 -0.0286
  939MOL0     C23879   3.268   3.231  10.180 -0.0278 -0.5577  1.5236
  939MOL0     C23880   3.386   3.256  10.168  0.2764 -1.1861 -1.7826
  939MOL0     C23881   2.454   3.313   9.964  0.6041  0.0722  0.0592
  939MOL0     C23882   2.338   3.368   9.910  0.2887  1.0733 -0.1106
  939MOL0     H23883   2.017   3.325   9.618  2.9078  1.7214 -0.4841
  939MOL0     H23884   1.810   3.374   9.469  0.2345 -1.4945  1.3321
  939MOL0     H23885   1.575   3.753   9.523  0.4759 -0.0694 -2.3253
  939MOL0     H23886   1.558   3.588   9.590 -1.6517  1.3411  1.5533
  939MOL0     H23887   1.458   3.524   9.366 -0.3911 -0.4464  2.0873
  939MOL0     H23888   1.494   3.686   9.311 -1.4264  1.0023  0.5271
  939MOL0     H23889   1.326   3.751   9.507 -3.4808  1.2473 -2.9826
  939MOL0     H23890   1.318   3.579   9.549 -1.0836 -1.6568 -0.5341
  939MOL0     H23891   1.252   3.709   9.279 -0.4384  2.3560  2.3402
  939MOL0     H23892   1.227   3.536   9.319 -0.7945  0.3963 -0.5412
  939MOL0     H23893   1.085   3.759   9.461  4.5225 -1.4302  1.2510
  939MOL0     H23894   1.036   3.596   9.447 -0.7122  0.2144 -0.3655
  939MOL0     H23895   1.026   3.632   9.182 -0.1848  0.9878 -0.1825
  939MOL0     H23896   1.011   3.808   9.225 -0.9902  0.0380 -0.8978
  939MOL0     H23897   0.814   3.593   9.323 -1.9741 -0.1247 -0.4427
  939MOL0     H23898   0.815   3.773   9.349 -0.3389 -2.0643  1.7587
  939MOL0     H23899   0.778   3.630   9.086 -0.6814 -2.1825  2.3148
  939MOL0     H23900   0.811   3.801   9.105  0.0086 -1.1027 -2.1924
  939MOL0     H23901   0.626   3.918   9.286  1.7246 -0.9112 -1.9085
  939MOL0     H23902   0.265   3.895   9.337 -0.2141 -0.0092 -0.3654
  939MOL0     H23903   0.393   3.924   9.452 -2.1024  0.8376  2.0964
  939MOL0     H23904   0.362   3.668   9.519  0.8417 -1.0167 -2.7750
  939MOL0     H23905   0.215   3.669   9.435 -0.9730  1.3504 -1.3341
  939MOL0     H23906   0.183   3.703   9.651 -0.3825 -0.0495  0.6223
  939MOL0     H23907   0.285   3.853   9.664 -1.8010  2.3251 -1.2145
  939MOL0     H23908   0.113   3.965   9.505  0.3168 -0.1470 -0.4962
  939MOL0     H23909   0.039   3.907   9.658  0.3083  0.5460 -0.6660
  939MOL0     H23910  -0.150   4.035   9.545 -3.1723  1.4139  1.9396
  939MOL0     H23911  -0.373   4.052   9.495  1.8961  1.4935 -1.3441
  939MOL0     H23912  -0.814   3.917   9.264 -1.5702  0.4023 -0.8736
  939MOL0     H23913  -1.032   3.862   9.221  1.1761  0.3300 -0.9278
  939MOL0     H23914  -1.170   3.670   9.030 -0.4081 -1.0462  0.2022
  939MOL0     H23915  -1.235   3.767   9.158 -0.4745 -0.0281  4.9256
  939MOL0     H23916  -1.400   3.606   9.205 -1.7227  1.5017 -1.3793
  939MOL0     H23917  -1.321   3.480   9.094  1.0170  0.1872 -1.6535
  939MOL0     H23918  -1.353   3.623   8.902 -2.7938  1.5875 -1.7753
  939MOL0     H23919  -1.463   3.731   8.986  2.1908  0.5353  1.3749
  939MOL0     H23920  -1.577   3.573   8.874  0.2600  1.6467  1.0619
  939MOL0     H23921  -1.506   3.430   8.940  1.4537  0.9775 -0.4938
  939MOL0     H23922  -1.651   3.635   9.099 -1.0279  0.0877 -1.2358
  939MOL0     H23923  -1.606   3.477   9.166 -0.1400 -2.8772 -2.0827
  939MOL0     H23924  -1.777   3.371   9.007 -1.8083  0.3026 -2.3412
  939MOL0     H23925  -1.790   3.524   8.935  2.1390  0.5590  0.1963
  939MOL0     H23926  -1.831   3.500   9.244 -1.9057  1.5493  0.5797
  939MOL0     H23927  -1.888   3.623   9.133 -2.4597 -0.6728 -1.7950
  939MOL0     H23928  -2.067   3.460   9.064  0.5123 -1.1378  0.0450
  939MOL0     H23929  -2.057   3.486   9.241 -0.4176  0.7079  0.2688
  939MOL0     H23930  -0.973   3.455   9.333 -0.4208  0.9797  0.5492
  939MOL0     H23931  -0.740   3.525   9.435 -0.5168 -1.5791  0.8789
  939MOL0     H23932  -0.372   3.638   9.344  2.8078 -0.9818 -0.2938
  939MOL0     H23933  -0.138   3.635   9.399  0.6195  0.0655 -1.0086
  939MOL0     H23934   1.824   3.778   9.596 -1.2063 -1.2483 -3.2925
  939MOL0     H23935   2.043   3.727   9.721  0.6824  0.8316 -1.3750
  939MOL0     H23936   2.494   3.632   9.764 -2.3637 -0.8175 -0.9033
  939MOL0     H23937   2.693   3.546   9.902 -0.7612 -0.5568 -0.0473
  939MOL0     H23938   2.800   3.444  10.112 -0.4823 -0.5511  0.8366
  939MOL0     H23939   2.842   3.396   9.949 -2.0266  1.2689 -0.0005
  939MOL0     H23940   2.871   3.183  10.169 -0.1234  1.9619  1.2231
  939MOL0     H23941   2.908   3.183   9.996 -1.6574 -0.1698 -0.2572
  939MOL0     H23942   3.033   3.391  10.189  0.2257  1.8042 -2.1019
  939MOL0     H23943   3.075   3.341  10.024 -2.8302 -0.3710 -1.6642
  939MOL0     H23944   3.103   3.198  10.296  1.7741  0.7423  0.3887
  939MOL0     H23945   3.102   3.106  10.140 -2.7596  0.7330 -0.3794
  939MOL0     H23946   3.490   3.277  10.154 -0.0700  0.1257 -2.5485
  939MOL0     H23947   2.451   3.211  10.002  0.1854  0.3031  0.6656
  939MOL0     H23948   2.244   3.313   9.913  0.7510  0.1585 -1.2547
  940MOL0     O23949   9.300   9.869   9.071  0.2830 -0.4487 -0.4720
  940MOL0     C23950   9.380   9.875   8.978 -0.5363  0.2639  0.0554
  940MOL0     O23951   9.347   9.911   8.850  0.2680  0.1546 -0.1081
  940MOL0     C23952   9.221   9.929   8.798  0.4770 -0.4278 -0.5598
  940MOL0     C23953   9.093   9.910   8.861  0.0214  0.2903  1.1525
  940MOL0     C23954   8.982   9.941   8.779 -0.0703  0.1851 -0.5537
  940MOL0     C23955   8.989   9.991   8.647 -0.5342 -0.2115  0.1486
  940MOL0     O23956   8.871  10.023   8.570  0.0952 -0.5089 -0.2885
  940MOL0     C23957   8.885  10.027   8.433 -0.5526  1.1141 -0.1023
  940MOL0     C23958   8.749  10.059   8.361  0.4345  0.0839  0.4316
  940MOL0     C23959   8.680   9.929   8.311  0.5423  0.6494 -0.4901
  940MOL0     C23960   8.544   9.942   8.250 -0.7327  0.2299 -0.6594
  940MOL0     C23961   8.532  10.035   8.128 -0.7386 -0.0503 -1.0757
  940MOL0     C23962   8.621   9.988   8.008  0.7791  0.0893 -0.5403
  940MOL0     C23963   8.590  10.082   7.887  0.3651 -0.3572  0.9904
  940MOL0     C23964   8.660  10.219   7.890  0.3309  0.5608 -0.8634
  940MOL0     N23965   8.810  10.202   7.856  0.3552  0.4789  0.1366
  940MOL0     C23966   8.846  10.158   7.731 -0.4237  0.2903  0.2231
  940MOL0     C23967   8.980  10.171   7.724 -1.1892  0.4466 -0.3129
  940MOL0     C23968   9.067  10.169   7.595 -0.3428  0.6680  0.1889
  940MOL0     C23969   9.195  10.253   7.597  0.3716 -0.7682  0.5664
  940MOL0     C23970   9.272  10.246   7.463  0.0723  0.2415  0.9464
  940MOL0     C23971   9.402  10.316   7.479  0.3782 -0.0044  0.3176
  940MOL0     O23972   9.477  10.324   7.362  0.1822  0.1425 -0.4904
  940MOL0     C23973   9.591  10.393   7.365  0.1180  0.5482  0.6714
  940MOL0     C23974   9.659  10.418   7.241  0.0428  0.3702  0.9894
  940MOL0     C23975   9.787  10.471   7.229 -0.3535 -0.8274 -0.2604
  940MOL0     C23976   9.853  10.519   7.345 -0.2357 -1.1127 -0.1066
  940MOL0     C23977   9.985  10.569   7.334  0.1109 -0.5303  0.5883
  940MOL0     O23978  10.046  10.642   7.434  0.1983 -0.4442  0.1856
  940MOL0     C23979  10.172  10.693   7.408  0.2059 -0.0887  1.5168
  940MOL0     C23980  10.182  10.825   7.346  0.0539  0.0773  0.4159
  940MOL0     C23981  10.311  10.873   7.321 -0.0108 -0.6673 -0.3543
  940MOL0     C23982  10.424  10.800   7.367 -0.1852 -0.0505 -0.4543
  940MOL0     O23983  10.539  10.870   7.344 -0.0076 -0.0882 -0.2349
  940MOL0     C23984  10.652  10.784   7.336  0.2167 -0.0557  0.1885
  940MOL0     C23985  10.792  10.840   7.298 -0.1245  0.2552  0.7278
  940MOL0     C23986  10.847  10.949   7.393  0.1644 -0.2831 -0.2801
  940MOL0     C23987  10.976  10.997   7.344 -0.6870  0.4204 -1.2116
  940MOL0     C23988  11.108  10.912   7.377  0.6533 -0.0114  0.0273
  940MOL0     C23989  11.153  10.922   7.527  0.4792  0.0955  0.3594
  940MOL0     C23990  11.290  10.865   7.539  0.3182 -0.2408  0.3069
  940MOL0     C23991  11.317  10.831   7.678  0.0373 -0.4754  0.0217
  940MOL0    Cl23992  11.472  10.761   7.701 -0.5360 -0.6456  0.0545
  940MOL0     C23993  10.408  10.676   7.429  0.8479  0.0936  0.7079
  940MOL0     C23994  10.280  10.617   7.451 -0.3827  0.0524  0.1373
  940MOL0     O23995  10.047  10.545   7.227 -0.0058  0.0913  0.1259
  940MOL0     C23996   9.781  10.513   7.469  0.4444 -0.6898  0.0191
  940MOL0     C23997   9.653  10.447   7.476  0.5538  0.0110 -0.0856
  940MOL0     N23998   9.024  10.209   7.853  0.2050 -0.2665  0.1629
  940MOL0     N23999   8.921  10.222   7.923  0.4091 -0.1588  0.0127
  940MOL0     C24000   9.120  10.016   8.590 -0.4950 -0.1826 -0.7536
  940MOL0     C24001   9.232   9.985   8.667 -0.0957  0.5650  0.5281
  940MOL0     C24002   9.527   9.852   8.999 -0.1662 -0.6801  0.6397
  940MOL0     C24003   9.626   9.879   8.901  0.0062  0.4162  0.2783
  940MOL0     C24004   9.762   9.845   8.924  0.2779 -0.5077  1.1646
  940MOL0     C24005   9.805   9.789   9.044  0.0870  0.4163  0.7073
  940MOL0     O24006   9.936   9.754   9.079 -0.2301  0.3352  0.2377
  940MOL0     C24007  10.045   9.757   8.980  0.1826 -0.1624  0.6819
  940MOL0     C24008  10.016   9.652   8.876  0.2442  0.3886  1.1928
  940MOL0     C24009  10.027   9.508   8.935  0.5578  0.4209  0.1374
  940MOL0     C24010   9.897   9.458   9.011 -0.4171  0.0366  0.0934
  940MOL0     C24011   9.773   9.483   8.936  0.5793  0.1383  0.4473
  940MOL0     C24012   9.671   9.519   8.888  0.7165 -0.4446 -0.0768
  940MOL0     C24013   9.706   9.775   9.149 -0.7774 -0.1891 -0.5076
  940MOL0     C24014   9.571   9.798   9.124 -0.7786 -0.3307  0.7606
  940MOL0     H24015   9.066   9.889   8.964  0.9721  1.2028  1.6027
  940MOL0     H24016   8.881   9.927   8.816  0.1553  2.5517  1.1932
  940MOL0     H24017   8.907   9.928   8.391 -0.9107  1.4947 -1.2282
  940MOL0     H24018   8.956  10.099   8.392  1.0496 -0.7566 -0.7795
  940MOL0     H24019   8.768  10.124   8.276  2.8259 -1.2265 -0.1165
  940MOL0     H24020   8.673  10.100   8.428 -2.2831 -4.0682  0.2195
  940MOL0     H24021   8.681   9.852   8.388  0.7544  0.2609 -0.8753
  940MOL0     H24022   8.746   9.893   8.231  1.2925  0.8504  0.0347
  940MOL0     H24023   8.521   9.837   8.230  1.5774 -2.0147  5.8087
  940MOL0     H24024   8.473   9.970   8.328  2.3010 -0.8466  2.7481
  940MOL0     H24025   8.566  10.134   8.159  1.5319 -0.4091 -2.2048
  940MOL0     H24026   8.427  10.040   8.097  0.1801 -1.1575 -5.0560
  940MOL0     H24027   8.589   9.886   7.985  1.7090 -0.2199 -0.5100
  940MOL0     H24028   8.730   9.990   8.021  0.9431 -1.0627 -1.5216
  940MOL0     H24029   8.606  10.029   7.793 -2.2002  0.9276 -0.2642
  940MOL0     H24030   8.482  10.098   7.881  0.7904  2.7397 -0.7602
  940MOL0     H24031   8.652  10.268   7.988 -2.2035  3.5406 -2.3885
  940MOL0     H24032   8.606  10.278   7.815 -2.5700 -1.2590 -0.3493
  940MOL0     H24033   8.778  10.133   7.651 -0.0608  1.0136 -0.3219
  940MOL0     H24034   9.005  10.204   7.512 -0.1318 -1.2110 -0.8375
  940MOL0     H24035   9.097  10.068   7.564 -1.2185  0.6079 -0.5243
  940MOL0     H24036   9.252  10.203   7.675 -1.6004 -1.1059  1.8802
  940MOL0     H24037   9.174  10.357   7.624 -0.3572 -0.2732 -1.7286
  940MOL0     H24038   9.284  10.145   7.424 -0.0749  0.9183 -1.0010
  940MOL0     H24039   9.216  10.307   7.390  0.3681 -0.7390 -0.1304
  940MOL0     H24040   9.461  10.273   7.560 -0.3562  1.8944  1.9556
  940MOL0     H24041   9.399  10.423   7.502  2.3368  0.0098  0.7239
  940MOL0     H24042   9.603  10.401   7.149  0.0419  1.8572  0.6803
  940MOL0     H24043   9.841  10.475   7.135  0.9207  0.8603  0.4909
  940MOL0     H24044  10.094  10.881   7.315  1.9638  1.4679 -3.0154
  940MOL0     H24045  10.320  10.973   7.279 -1.3364 -0.8408 -1.0870
  940MOL0     H24046  10.633  10.701   7.267 -1.6622  1.1734 -0.8435
  940MOL0     H24047  10.670  10.736   7.433 -1.9557 -1.4285 -0.0256
  940MOL0     H24048  10.791  10.888   7.200  0.5914 -1.9838 -0.4603
  940MOL0     H24049  10.854  10.749   7.292 -1.6601 -0.7967 -0.0246
  940MOL0     H24050  10.870  10.906   7.491 -2.4186  3.5196  2.3123
  940MOL0     H24051  10.781  11.035   7.407 -1.5106 -1.6416  0.5480
  940MOL0     H24052  10.963  11.031   7.241  0.3667  3.5102 -0.4142
  940MOL0     H24053  10.998  11.090   7.397 -0.0658 -0.2001 -0.3297
  940MOL0     H24054  11.188  10.952   7.315 -1.5854  1.2941 -2.1607
  940MOL0     H24055  11.084  10.805   7.364 -2.4383  0.6461 -0.6027
  940MOL0     H24056  11.086  10.862   7.589  1.6662 -1.1757  0.4489
  940MOL0     H24057  11.156  11.028   7.555 -2.0410  0.5299 -0.7696
  940MOL0     H24058  11.298  10.783   7.467 -0.1329  0.1697 -0.2196
  940MOL0     H24059  11.362  10.938   7.502 -0.3158  0.2703  0.0737
  940MOL0     H24060  11.236  10.766   7.712 -2.3818  1.2338 -2.0463
  940MOL0     H24061  11.316  10.914   7.749  2.9162 -1.5768  1.5034
  940MOL0     H24062  10.494  10.619   7.465  1.0614 -0.0805 -0.0595
  940MOL0     H24063  10.271  10.521   7.500  2.2323 -0.9717 -1.1672
  940MOL0     H24064   9.827  10.538   7.564 -0.6162 -2.6970  1.1175
  940MOL0     H24065   9.606  10.439   7.573  2.4774  0.1109  0.8990
  940MOL0     H24066   9.140  10.056   8.491  2.7274 -1.7649 -0.8598
  940MOL0     H24067   9.330  10.002   8.623 -0.9493 -0.5705 -2.0294
  940MOL0     H24068   9.588   9.915   8.806 -2.2992 -0.2758  0.8679
  940MOL0     H24069   9.837   9.868   8.849 -0.4628  1.3892  0.9657
  940MOL0     H24070  10.137   9.742   9.037 -0.2268 -2.7406  0.7851
  940MOL0     H24071  10.053   9.857   8.937  0.6834 -0.0566  1.0089
  940MOL0     H24072   9.916   9.673   8.837  1.4215  1.7041 -1.3868
  940MOL0     H24073  10.073   9.669   8.783  0.1671  3.4524  1.5921
  940MOL0     H24074  10.118   9.501   8.995  1.3790  2.8470 -0.7137
  940MOL0     H24075  10.024   9.430   8.857 -2.7386 -0.8815  1.3572
  940MOL0     H24076   9.922   9.355   9.039  0.8064  0.7774  1.9023
  940MOL0     H24077   9.887   9.519   9.101 -0.4093  1.1627 -0.6478
  940MOL0     H24078   9.587   9.565   8.840  0.6795  0.6689  0.9874
  940MOL0     H24079   9.739   9.731   9.242 -0.3842  2.3954  0.6452
  940MOL0     H24080   9.489   9.782   9.194 -1.8012 -0.8381 -0.5054
  941MOL0     O24081   5.471   6.360   3.459  0.5258 -0.0180  0.5376
  941MOL0     C24082   5.556   6.272   3.429 -0.1642 -0.3293 -0.4705
  941MOL0     O24083   5.521   6.156   3.374  0.3852  0.2781  0.4440
  941MOL0     C24084   5.385   6.127   3.373  0.2647 -0.8478  0.4177
  941MOL0     C24085   5.287   6.200   3.309  0.3752 -0.0362 -0.8658
  941MOL0     C24086   5.153   6.163   3.316 -0.8845  0.9671 -0.0142
  941MOL0     C24087   5.110   6.052   3.389  0.0834  0.1280  1.4050
  941MOL0     O24088   4.982   6.012   3.414  0.2573  0.0245  0.6682
  941MOL0     C24089   4.884   6.029   3.311  0.2163  0.0561 -0.0282
  941MOL0     C24090   4.780   5.913   3.311 -0.5283  0.1297  0.3090
  941MOL0     C24091   4.692   5.906   3.438  0.2219  0.6206  0.6201
  941MOL0     C24092   4.581   5.804   3.417 -0.9122  0.7715 -0.4665
  941MOL0     C24093   4.480   5.795   3.537  0.3287 -0.5658  0.6000
  941MOL0     C24094   4.373   5.691   3.530 -0.3112  0.5164 -1.6505
  941MOL0     C24095   4.284   5.698   3.418 -0.2866  0.5657  0.1094
  941MOL0     C24096   4.168   5.596   3.409 -0.0349 -0.0803 -0.1352
  941MOL0     N24097   4.066   5.608   3.525 -0.4509  0.0524  0.6032
  941MOL0     C24098   4.026   5.724   3.584 -0.4359  0.1666 -0.6513
  941MOL0     C24099   3.933   5.688   3.683  0.2095 -0.5602 -0.0525
  941MOL0     C24100   3.870   5.765   3.794 -0.8936  0.8728  0.3336
  941MOL0     C24101   3.735   5.714   3.857  0.6778  0.7963 -0.1231
  941MOL0     C24102   3.636   5.681   3.740  0.0594  0.1019 -0.4568
  941MOL0     C24103   3.578   5.804   3.671  0.6888 -0.3356  0.9403
  941MOL0     O24104   3.479   5.761   3.581 -0.0623 -0.1878  0.3955
  941MOL0     C24105   3.363   5.837   3.577 -0.0118  0.5687  0.2299
  941MOL0     C24106   3.303   5.866   3.458 -0.3223 -0.2018 -0.8832
  941MOL0     C24107   3.185   5.935   3.446  0.6044  0.2474  0.1927
  941MOL0     C24108   3.120   5.978   3.558  0.6450  0.5190 -0.4160
  941MOL0     C24109   2.987   6.031   3.551 -0.0391 -0.0317  0.0669
  941MOL0     O24110   2.909   5.994   3.439 -0.2260 -0.2809 -0.2112
  941MOL0     C24111   2.790   6.061   3.426 -0.2260  0.5083  0.5013
  941MOL0     C24112   2.768   6.163   3.334 -0.1312 -0.5086  0.2544
  941MOL0     C24113   2.644   6.221   3.315  0.0072 -0.0717 -0.4603
  941MOL0     C24114   2.535   6.179   3.393 -0.7731  1.0998  0.1234
  941MOL0     O24115   2.415   6.224   3.384  0.4004  0.0884  0.3759
  941MOL0     C24116   2.371   6.307   3.279 -0.1745  0.1728 -0.1167
  941MOL0     C24117   2.234   6.369   3.312 -0.3966  0.1462  0.2848
  941MOL0     C24118   2.122   6.301   3.236  0.0601  0.7045  0.1246
  941MOL0     C24119   1.985   6.350   3.285 -0.2758 -0.7000  0.9831
  941MOL0     C24120   1.871   6.285   3.196 -0.1116  0.0488 -0.1530
  941MOL0     C24121   1.728   6.337   3.229  0.3915 -0.2569 -0.0390
  941MOL0     C24122   1.669   6.281   3.363 -0.5204 -0.6903 -0.2068
  941MOL0     C24123   1.522   6.256   3.365  0.4556 -0.0182  0.2473
  941MOL0    Cl24124   1.479   6.177   3.528  0.2622  0.8589 -0.1059
  941MOL0     C24125   2.554   6.067   3.488  0.3329 -0.2526  0.3857
  941MOL0     C24126   2.682   6.022   3.502 -0.4398 -0.0021  0.1698
  941MOL0     O24127   2.949   6.096   3.647  0.6832 -0.5010 -0.2386
  941MOL0     C24128   3.171   5.932   3.685  0.4543 -1.0854  1.0201
  941MOL0     C24129   3.293   5.866   3.697 -0.4467  0.1493 -0.5918
  941MOL0     N24130   3.917   5.550   3.667  0.3019  0.0152  0.8381
  941MOL0     N24131   3.993   5.506   3.578 -0.0262 -0.3316  0.6036
  941MOL0     C24132   5.213   5.974   3.448  0.3768  0.7434 -0.5396
  941MOL0     C24133   5.349   6.017   3.454  1.0397 -0.1918 -0.2582
  941MOL0     C24134   5.698   6.310   3.444  0.2933 -0.4429  0.2885
  941MOL0     C24135   5.750   6.433   3.496  0.2644 -0.6764  0.1260
  941MOL0     C24136   5.888   6.468   3.502 -0.2394 -0.1301  0.2257
  941MOL0     C24137   5.978   6.376   3.454 -0.5215  0.1242 -0.2801
  941MOL0     O24138   6.102   6.417   3.456  0.9244  0.1326 -0.6462
  941MOL0     C24139   6.203   6.323   3.411 -0.5776  1.2201  0.3890
  941MOL0     C24140   6.322   6.412   3.368 -1.2146 -0.0016  0.6251
  941MOL0     C24141   6.424   6.332   3.279 -0.9297  0.6815 -0.6907
  941MOL0     C24142   6.540   6.426   3.234 -0.1274  0.4475  0.3770
  941MOL0     C24143   6.636   6.355   3.148  0.3005  0.6097 -0.4892
  941MOL0     C24144   6.713   6.313   3.065  0.4931 -0.6838  0.2832
  941MOL0     C24145   5.929   6.248   3.403  0.3880 -0.1671  0.5392
  941MOL0     C24146   5.796   6.222   3.405 -0.7645  0.2067 -0.2433
  941MOL0     H24147   5.310   6.287   3.248  0.1904  2.0463  1.8586
  941MOL0     H24148   5.087   6.228   3.259 -2.2246 -0.7509 -0.5139
  941MOL0     H24149   4.931   6.027   3.213 -2.1634 -1.8025 -1.2252
  941MOL0     H24150   4.834   6.126   3.320 -0.1014 -0.1898  1.1123
  941MOL0     H24151   4.840   5.822   3.315 -2.7753 -1.3706  2.8763
  941MOL0     H24152   4.720   5.925   3.221  0.4053  4.5053  0.0323
  941MOL0     H24153   4.650   6.003   3.465 -2.4348 -0.9736  2.7895
  941MOL0     H24154   4.752   5.879   3.525 -3.2651 -4.0770  1.9817
  941MOL0     H24155   4.528   5.834   3.326  0.0907  0.9258 -1.0162
  941MOL0     H24156   4.624   5.705   3.400  0.2269  1.5698 -2.5500
  941MOL0     H24157   4.436   5.895   3.539  1.4261 -0.0782  2.2093
  941MOL0     H24158   4.541   5.786   3.628  0.4142  0.5211  0.6684
  941MOL0     H24159   4.316   5.699   3.623  2.1788 -0.0828  0.0319
  941MOL0     H24160   4.426   5.595   3.524  1.0290  1.2784 -2.6105
  941MOL0     H24161   4.233   5.795   3.423 -2.4258 -0.4906 -0.2165
  941MOL0     H24162   4.344   5.680   3.328 -0.3621 -0.2386  0.2126
  941MOL0     H24163   4.209   5.495   3.407 -0.5254 -0.2844 -1.9405
  941MOL0     H24164   4.110   5.603   3.317 -0.3466 -1.7916 -0.1016
  941MOL0     H24165   4.066   5.824   3.580  1.2975 -0.3565  1.6341
  941MOL0     H24166   3.853   5.866   3.754 -3.5254  0.4583  0.2140
  941MOL0     H24167   3.947   5.771   3.872  2.6427 -0.6255 -2.7263
  941MOL0     H24168   3.684   5.788   3.919 -0.5735 -0.0851 -0.0329
  941MOL0     H24169   3.756   5.634   3.929 -0.4216  0.4739 -0.1358
  941MOL0     H24170   3.677   5.607   3.670  1.2522  0.2045  0.1074
  941MOL0     H24171   3.556   5.630   3.794 -0.1629  3.4380  2.7371
  941MOL0     H24172   3.658   5.858   3.619  1.7343 -0.7356  2.0802
  941MOL0     H24173   3.543   5.870   3.750 -0.0543 -4.1414  4.1393
  941MOL0     H24174   3.347   5.849   3.360 -3.1629  1.7587 -2.6646
  941MOL0     H24175   3.153   5.966   3.347  0.8338  0.5979  0.2264
  941MOL0     H24176   2.855   6.192   3.277  0.6871  0.7005  2.0481
  941MOL0     H24177   2.635   6.307   3.250 -0.0852  0.8346  0.7271
  941MOL0     H24178   2.362   6.243   3.190 -0.1638 -0.1536  0.1152
  941MOL0     H24179   2.448   6.384   3.265  1.3864 -1.2372  0.3395
  941MOL0     H24180   2.241   6.473   3.278  2.8511 -0.3044 -0.7972
  941MOL0     H24181   2.203   6.379   3.416  1.4081 -1.3785  1.0315
  941MOL0     H24182   2.130   6.196   3.266  1.8233  0.5566 -0.7476
  941MOL0     H24183   2.135   6.315   3.128 -1.9048  0.8341 -0.1248
  941MOL0     H24184   1.962   6.330   3.390 -3.0404 -3.3902  0.0150
  941MOL0     H24185   1.980   6.458   3.274 -1.2782 -0.6630  1.6599
  941MOL0     H24186   1.876   6.177   3.212  5.0164 -0.4042 -2.8545
  941MOL0     H24187   1.895   6.308   3.092  3.8803 -0.7504  0.4285
  941MOL0     H24188   1.666   6.303   3.145  1.0009 -4.2164  0.8841
  941MOL0     H24189   1.746   6.445   3.225  0.5217 -0.2826 -0.1554
  941MOL0     H24190   1.702   6.179   3.382 -2.4264 -1.1899  0.6741
  941MOL0     H24191   1.700   6.340   3.450  0.0417 -2.6293  0.9686
  941MOL0     H24192   1.494   6.184   3.288  0.9858  1.4569 -1.4007
  941MOL0     H24193   1.470   6.350   3.343 -0.3491 -0.7148 -0.9886
  941MOL0     H24194   2.472   6.027   3.546 -1.7407  2.0323 -0.7421
  941MOL0     H24195   2.702   5.949   3.580  3.9724  0.1715 -0.5580
  941MOL0     H24196   3.113   5.956   3.773  1.8922 -1.2853  2.0707
  941MOL0     H24197   3.328   5.838   3.796  1.1051  0.3662 -1.0432
  941MOL0     H24198   5.195   5.889   3.513  2.0032 -0.3589 -1.4393
  941MOL0     H24199   5.421   5.950   3.499  0.3884 -0.5106  0.3305
  941MOL0     H24200   5.680   6.511   3.527  1.5792 -0.1811  2.0821
  941MOL0     H24201   5.914   6.562   3.549 -0.7602  0.3770 -0.4666
  941MOL0     H24202   6.176   6.265   3.323 -1.6351  0.8425  0.9386
  941MOL0     H24203   6.218   6.255   3.496 -1.0720  2.4017  1.4567
  941MOL0     H24204   6.281   6.500   3.318  0.1908 -1.0259 -2.5961
  941MOL0     H24205   6.370   6.440   3.462 -0.1787 -0.0543  0.1196
  941MOL0     H24206   6.372   6.293   3.191 -0.1087  0.4590 -1.0837
  941MOL0     H24207   6.455   6.247   3.340  0.1789 -1.3145 -3.7633
  941MOL0     H24208   6.501   6.508   3.173 -1.5329 -1.3612 -1.3109
  941MOL0     H24209   6.592   6.473   3.318  0.1781 -0.6212  0.7981
  941MOL0     H24210   6.789   6.281   2.996  0.2530  1.6971 -1.1986
  941MOL0     H24211   5.994   6.171   3.360  0.6704  1.0277 -1.2772
  941MOL0     H24212   5.763   6.126   3.367 -0.9384 -1.2076  3.1579
  942MOL0     O24213   9.383  10.276  10.375 -0.1878 -0.1911  0.1910
  942MOL0     C24214   9.365  10.209  10.270 -0.5655  0.2154  0.5404
  942MOL0     O24215   9.464  10.183  10.170  0.1054 -0.6079  0.0450
  942MOL0     C24216   9.586  10.249  10.182  0.7083  1.2836 -0.9057
  942MOL0     C24217   9.619  10.365  10.120 -0.1405 -0.9591 -0.1103
  942MOL0     C24218   9.729  10.436  10.163  0.6762 -0.2442  0.0647
  942MOL0     C24219   9.813  10.386  10.265  0.5783 -0.3868  0.5746
  942MOL0     O24220   9.926  10.440  10.309 -0.2104 -0.5242 -0.0872
  942MOL0     C24221  10.013  10.477  10.190 -0.1424 -0.1639 -0.4270
  942MOL0     C24222  10.140  10.516  10.252  0.4099  0.7054  0.2435
  942MOL0     C24223  10.222  10.401  10.300  0.5977  0.1074 -0.5060
  942MOL0     C24224  10.353  10.442  10.356 -1.0217  1.3730  0.0022
  942MOL0     C24225  10.455  10.316  10.359 -0.2387 -0.0150 -0.5367
  942MOL0     C24226  10.584  10.322  10.441 -0.0283  0.2287 -0.9752
  942MOL0     C24227  10.566  10.372  10.585  0.3978 -0.3365  0.4295
  942MOL0     C24228  10.708  10.374  10.657 -0.1301  1.0166  0.8477
  942MOL0     N24229  10.691  10.414  10.797  0.6063 -0.2471 -0.1634
  942MOL0     C24230  10.601  10.369  10.891 -0.4845 -0.0486  0.9569
  942MOL0     C24231  10.568  10.456  10.985  0.3464 -0.0152  0.4278
  942MOL0     C24232  10.493  10.415  11.104  0.3428 -0.0034  0.6901
  942MOL0     C24233  10.353  10.388  11.049  0.6200  0.6673 -0.1342
  942MOL0     C24234  10.274  10.316  11.169  0.3893 -0.2983  0.2208
  942MOL0     C24235  10.131  10.289  11.127 -0.8417  0.1823 -0.4055
  942MOL0     O24236  10.083  10.186  11.212 -0.6189  0.9474  0.2158
  942MOL0     C24237   9.951  10.169  11.190 -0.4637 -0.2826 -0.5301
  942MOL0     C24238   9.912  10.030  11.158 -0.1148 -0.4538 -0.1461
  942MOL0     C24239   9.781  10.003  11.124  0.7766 -0.2389  0.4906
  942MOL0     C24240   9.685  10.104  11.117  0.1186 -0.0476 -0.0005
  942MOL0     C24241   9.548  10.079  11.086  0.5599  0.3289  0.7009
  942MOL0     O24242   9.513   9.952  11.092 -1.0254 -0.0149 -0.1228
  942MOL0     C24243   9.389   9.895  11.070 -0.2362 -0.7952 -0.6218
  942MOL0     C24244   9.317   9.943  10.963 -0.1832  0.0975 -0.0709
  942MOL0     C24245   9.189   9.889  10.934  0.1509  0.4307  0.7367
  942MOL0     C24246   9.133   9.789  11.012  0.5374 -0.4663  0.6035
  942MOL0     O24247   9.014   9.745  10.964 -0.0909 -0.8551 -0.1562
  942MOL0     C24248   8.927   9.666  11.044  0.1922 -0.2998 -0.5238
  942MOL0     C24249   8.791   9.701  10.995  0.7143 -0.7885  0.6205
  942MOL0     C24250   8.687   9.639  11.080  0.2664 -0.5608 -0.5716
  942MOL0     C24251   8.543   9.672  11.026 -0.2642  0.0465  0.6664
  942MOL0     C24252   8.449   9.602  11.119  0.8384  0.0414 -0.1029
  942MOL0     C24253   8.306   9.622  11.070 -0.6692  0.2346  0.3776
  942MOL0     C24254   8.271   9.769  11.078  0.5118  0.1740 -0.2879
  942MOL0     C24255   8.112   9.790  11.069 -0.6761  0.4986  0.3830
  942MOL0    Cl24256   8.040   9.757  11.218  0.0100  0.1309 -0.2943
  942MOL0     C24257   9.203   9.746  11.126  0.1965  0.5138 -0.0102
  942MOL0     C24258   9.333   9.803  11.154 -0.1368  0.4277  0.3685
  942MOL0     O24259   9.468  10.173  11.073  0.4134  0.1014  0.5083
  942MOL0     C24260   9.719  10.229  11.160 -0.8475 -0.8570  0.0633
  942MOL0     C24261   9.847  10.261  11.203 -0.2710  0.0102  0.0523
  942MOL0     N24262  10.644  10.575  10.953  0.2839  0.5321 -0.3482
  942MOL0     N24263  10.710  10.542  10.837  0.3774  0.0927 -1.0316
  942MOL0     C24264   9.783  10.260  10.316 -0.6575 -0.5767  0.5869
  942MOL0     C24265   9.672  10.198  10.283  0.3195  0.1703 -0.3158
  942MOL0     C24266   9.231  10.182  10.229  0.1669  0.2971 -0.3459
  942MOL0     C24267   9.189  10.133  10.107  0.6068  0.3217  0.2663
  942MOL0     C24268   9.052  10.121  10.067  0.4907  0.3870  0.2781
  942MOL0     C24269   8.951  10.165  10.144 -0.0451 -0.9152 -0.2945
  942MOL0     O24270   8.826  10.143  10.098 -0.9552 -0.1175  0.9098
  942MOL0     C24271   8.713  10.185  10.175 -0.8494  0.1784  0.3934
  942MOL0     C24272   8.582  10.162  10.095  0.0146 -1.1929 -0.5136
  942MOL0     C24273   8.557  10.023  10.057 -0.9324  0.4349 -0.4135
  942MOL0     C24274   8.559   9.937  10.190  0.6099  0.1831 -0.8986
  942MOL0     C24275   8.522   9.801  10.137 -0.4574  0.2949 -0.3191
  942MOL0     C24276   8.491   9.692  10.102  0.1462 -0.1922  0.9218
  942MOL0     C24277   8.987  10.226  10.260  0.0355 -0.0258  0.1030
  942MOL0     C24278   9.123  10.231  10.308  0.0398  0.4356 -0.4022
  942MOL0     H24279   9.557  10.411  10.044  0.8501 -0.5371 -0.6787
  942MOL0     H24280   9.743  10.534  10.119 -0.6043  0.0956  0.3709
  942MOL0     H24281   9.961  10.555  10.135  1.0884 -0.8546 -2.6828
  942MOL0     H24282  10.022  10.398  10.115  2.9561  0.3983 -0.7895
  942MOL0     H24283  10.130  10.581  10.339 -0.4851 -2.1294  2.4090
  942MOL0     H24284  10.198  10.570  10.177  0.1464  0.5592 -0.0652
  942MOL0     H24285  10.245  10.338  10.214 -1.5946 -0.1602 -0.9508
  942MOL0     H24286  10.162  10.336  10.364 -0.4414  1.3693 -0.1246
  942MOL0     H24287  10.394  10.520  10.291 -1.8415 -0.6119 -3.1355
  942MOL0     H24288  10.338  10.469  10.460 -0.4424  0.8765  0.2243
  942MOL0     H24289  10.484  10.291  10.257  1.2882 -0.6406  0.0118
  942MOL0     H24290  10.403  10.223  10.384  4.0661 -3.1391 -1.9150
  942MOL0     H24291  10.659  10.383  10.391  1.3696  0.1704  0.9267
  942MOL0     H24292  10.616  10.218  10.456  0.5824  0.6179  0.7498
  942MOL0     H24293  10.520  10.471  10.588  0.4370 -0.1656 -2.2608
  942MOL0     H24294  10.505  10.300  10.640 -0.2651 -0.9508 -1.0379
  942MOL0     H24295  10.770  10.445  10.602 -2.3859  0.1968 -3.1374
  942MOL0     H24296  10.759  10.277  10.664 -1.2861  0.2510 -0.6458
  942MOL0     H24297  10.559  10.269  10.878 -0.6788  0.1079  0.3522
  942MOL0     H24298  10.492  10.497  11.177  1.3345  0.4097  0.2557
  942MOL0     H24299  10.547  10.327  11.139  0.5760  0.5849  1.8692
  942MOL0     H24300  10.357  10.317  10.966  0.7032 -0.7256  1.0210
  942MOL0     H24301  10.318  10.487  11.019  3.0775  1.3187 -1.1138
  942MOL0     H24302  10.320  10.224  11.205  1.7135  0.4531  0.4903
  942MOL0     H24303  10.267  10.381  11.257  1.5145  1.0208 -0.6146
  942MOL0     H24304  10.141  10.259  11.022 -0.1288 -1.0344 -0.0110
  942MOL0     H24305  10.079  10.383  11.146  0.8749  0.7504  1.9400
  942MOL0     H24306   9.982   9.948  11.167 -3.0068 -3.0527  0.4176
  942MOL0     H24307   9.749   9.900  11.106  1.4341 -0.0698 -2.1626
  942MOL0     H24308   9.367  10.015  10.899  1.5217  0.3748  1.4894
  942MOL0     H24309   9.134   9.929  10.849  0.0948 -2.6786 -0.8461
  942MOL0     H24310   8.928   9.679  11.152 -1.6126 -1.9087 -0.2606
  942MOL0     H24311   8.954   9.562  11.028 -0.2350 -0.2372 -1.7550
  942MOL0     H24312   8.773   9.656  10.897 -0.3147 -3.5227  1.9736
  942MOL0     H24313   8.778   9.809  11.009  3.6943 -0.1297 -0.9342
  942MOL0     H24314   8.686   9.676  11.183 -1.3501 -0.1296 -0.7112
  942MOL0     H24315   8.703   9.531  11.088 -0.6425 -0.5964  1.1612
  942MOL0     H24316   8.538   9.781  11.028 -0.1619  0.0533  0.5646
  942MOL0     H24317   8.529   9.626  10.928  2.9072 -2.8553  1.3547
  942MOL0     H24318   8.459   9.638  11.222 -0.7538 -2.4251  1.0127
  942MOL0     H24319   8.480   9.498  11.117  1.8670  0.3421 -0.3379
  942MOL0     H24320   8.234   9.563  11.128 -1.6892  0.8538 -0.2365
  942MOL0     H24321   8.294   9.585  10.968 -1.8873 -0.4526  0.7468
  942MOL0     H24322   8.308   9.819  11.168 -0.1224  1.7820 -0.8801
  942MOL0     H24323   8.313   9.826  10.995 -0.3772  1.7248  0.2872
  942MOL0     H24324   8.061   9.732  10.992 -1.4266  3.0394 -1.1249
  942MOL0     H24325   8.105   9.894  11.039 -0.0779 -0.1599 -2.2744
  942MOL0     H24326   9.164   9.674  11.198 -1.4773  1.6721  0.2841
  942MOL0     H24327   9.398   9.759  11.229  0.7167  1.2414  0.1134
  942MOL0     H24328   9.642  10.303  11.173 -2.1057 -1.6187 -2.4462
  942MOL0     H24329   9.882  10.357  11.240  3.0788 -0.8667 -0.5348
  942MOL0     H24330   9.852  10.209  10.383  1.2662  2.3413  1.0237
  942MOL0     H24331   9.641  10.107  10.334  0.3113  0.1701 -0.3212
  942MOL0     H24332   9.266  10.100  10.039 -1.0587  0.0507 -1.5897
  942MOL0     H24333   9.030  10.080   9.969 -1.0600 -1.1538  1.1911
  942MOL0     H24334   8.722  10.290  10.206  1.2916 -0.7472  3.4060
  942MOL0     H24335   8.712  10.140  10.275  0.5289  2.2795  1.4160
  942MOL0     H24336   8.497  10.216  10.139 -0.1260 -2.1856  0.4955
  942MOL0     H24337   8.599  10.217  10.002  0.7474  0.2925  0.4642
  942MOL0     H24338   8.645   9.988  10.004 -1.1347  1.7017 -1.6401
  942MOL0     H24339   8.466  10.012   9.997 -1.7591  0.6757  0.7517
  942MOL0     H24340   8.657   9.928  10.238  1.0277 -0.9303 -1.8919
  942MOL0     H24341   8.489   9.961  10.271  1.0406  1.1461 -0.8034
  942MOL0     H24342   8.451   9.598  10.069 -0.4538  0.9833 -2.0309
  942MOL0     H24343   8.911  10.267  10.325  2.9122 -1.5307  4.8835
  942MOL0     H24344   9.137  10.284  10.402 -0.2852  1.3171 -0.8340
  943MOL0     O24345   8.030  11.060   3.018 -0.3087  0.0015  0.3963
  943MOL0     C24346   8.134  11.121   3.047  0.5638  0.1093  0.2356
  943MOL0     O24347   8.154  11.219   3.142 -0.8223 -0.0520  0.5675
  943MOL0     C24348   8.059  11.237   3.238  0.1798 -0.5907 -0.3337
  943MOL0     C24349   7.973  11.342   3.250  0.0020 -0.5084  0.6453
  943MOL0     C24350   7.876  11.349   3.358  0.3781  0.5776 -0.7105
  943MOL0     C24351   7.882  11.260   3.458  0.1623  0.3016 -0.1303
  943MOL0     O24352   7.796  11.255   3.567  0.6140 -0.2936 -0.7590
  943MOL0     C24353   7.672  11.320   3.560 -0.2402 -0.6226 -0.6180
  943MOL0     C24354   7.572  11.248   3.646 -0.6330  0.7960  0.4928
  943MOL0     C24355   7.440  11.324   3.636 -0.1824 -0.0275  0.1080
  943MOL0     C24356   7.333  11.257   3.721  0.4782 -0.4918 -0.8605
  943MOL0     C24357   7.225  11.363   3.729 -0.5335 -0.1010 -1.2207
  943MOL0     C24358   7.107  11.331   3.814 -0.1497 -0.3033  0.5962
  943MOL0     C24359   6.995  11.436   3.792 -0.2152  0.8683 -0.9443
  943MOL0     C24360   6.885  11.393   3.888 -0.0006 -0.3593  0.1276
  943MOL0     N24361   6.770  11.484   3.901 -0.1485 -0.3024 -0.5948
  943MOL0     C24362   6.668  11.515   3.807  0.4709 -0.0765 -0.6329
  943MOL0     C24363   6.578  11.587   3.872 -0.0443 -0.1299  0.1751
  943MOL0     C24364   6.451  11.618   3.813 -0.6402 -0.2098 -0.1101
  943MOL0     C24365   6.347  11.496   3.780 -0.0199 -0.5968 -0.1045
  943MOL0     C24366   6.310  11.413   3.907  0.0230  0.1158  0.1549
  943MOL0     C24367   6.215  11.301   3.871  0.2947  0.7117  0.4889
  943MOL0     O24368   6.098  11.352   3.805 -0.2912  0.4482  0.1642
  943MOL0     C24369   5.985  11.279   3.801 -0.2431  0.0485  1.0619
  943MOL0     C24370   5.976  11.151   3.838 -0.0488 -0.1195  0.3350
  943MOL0     C24371   5.863  11.074   3.815  0.0141  0.4527  0.6033
  943MOL0     C24372   5.752  11.121   3.744 -0.3482 -0.3343 -0.3648
  943MOL0     C24373   5.635  11.038   3.705 -0.3650 -0.0084 -0.3217
  943MOL0     O24374   5.544  11.108   3.633  0.2747  0.2223  0.1287
  943MOL0     C24375   5.435  11.046   3.576  1.3027  0.4089  0.5270
  943MOL0     C24376   5.349  10.955   3.642 -0.7340  0.1944 -0.3368
  943MOL0     C24377   5.237  10.895   3.576  0.7666 -0.8174  0.6891
  943MOL0     C24378   5.200  10.944   3.448 -0.7652 -0.0319 -1.1885
  943MOL0     O24379   5.084  10.888   3.394  0.3294 -0.2566 -0.3163
  943MOL0     C24380   5.026  10.951   3.282  1.5472 -0.2709  0.2328
  943MOL0     C24381   4.922  10.850   3.222  0.4640 -0.4834 -0.2992
  943MOL0     C24382   4.848  10.916   3.103  0.0568 -0.2603 -0.7156
  943MOL0     C24383   4.755  11.028   3.135 -0.8723  0.3814 -0.3332
  943MOL0     C24384   4.676  11.091   3.017  0.4430 -1.1620 -0.4316
  943MOL0     C24385   4.606  11.214   3.073  0.2195 -0.0210  0.3660
  943MOL0     C24386   4.545  11.295   2.964 -0.3148 -0.0348 -1.0885
  943MOL0     C24387   4.456  11.409   3.027  0.3865  0.7324 -0.0613
  943MOL0    Cl24388   4.579  11.536   3.059  0.0273  0.1635  0.5190
  943MOL0     C24389   5.277  11.053   3.391 -0.5292 -0.1574 -0.1295
  943MOL0     C24390   5.400  11.094   3.450  0.6708 -0.3833 -0.1491
  943MOL0     O24391   5.634  10.918   3.724 -0.0959 -0.3698  0.2068
  943MOL0     C24392   5.761  11.261   3.707  0.5554  0.6570 -0.4032
  943MOL0     C24393   5.870  11.337   3.739 -0.3835 -0.0152  0.5941
  943MOL0     N24394   6.620  11.604   4.003 -0.7976 -0.2056 -0.2347
  943MOL0     N24395   6.732  11.541   4.015  0.2515  0.6176 -0.7028
  943MOL0     C24396   7.967  11.157   3.456 -0.5487  1.1687  0.0748
  943MOL0     C24397   8.059  11.139   3.346 -0.1874 -0.0435 -0.0732
  943MOL0     C24398   8.256  11.086   2.972  0.4526 -0.1222  0.5649
  943MOL0     C24399   8.251  10.996   2.853  0.7997 -0.8074 -0.2232
  943MOL0     C24400   8.366  10.969   2.780  0.6787  0.4345  1.0595
  943MOL0     C24401   8.485  11.039   2.803  0.0919  0.0484 -0.6561
  943MOL0     O24402   8.581  11.010   2.706 -0.6700 -0.2259 -0.9714
  943MOL0     C24403   8.706  11.092   2.714  0.4141 -0.4003 -0.4719
  943MOL0     C24404   8.822  11.029   2.794  0.8821  0.2427 -0.2320
  943MOL0     C24405   8.870  10.903   2.720 -0.3717 -0.8637 -1.4121
  943MOL0     C24406   8.972  10.927   2.618 -0.0555 -0.1408  0.5326
  943MOL0     C24407   9.093  10.979   2.680 -0.5878  0.4866 -0.1769
  943MOL0     C24408   9.193  11.000   2.758  0.7774 -0.0311 -0.8870
  943MOL0     C24409   8.498  11.127   2.912 -0.7740  0.5902 -0.7275
  943MOL0     C24410   8.391  11.142   3.001  0.9917 -0.0291  0.0329
  943MOL0     H24411   7.982  11.417   3.173  1.2244 -1.2878 -0.0024
  943MOL0     H24412   7.799  11.425   3.371  0.9328  1.2490 -1.2735
  943MOL0     H24413   7.638  11.325   3.456 -1.9923 -0.4296 -0.0577
  943MOL0     H24414   7.688  11.417   3.607 -2.7505  0.2155 -1.3551
  943MOL0     H24415   7.598  11.247   3.752 -1.1848 -0.3106  0.6309
  943MOL0     H24416   7.562  11.142   3.619 -1.8158  0.5219  1.8832
  943MOL0     H24417   7.408  11.329   3.532  1.4305 -1.4767 -0.4905
  943MOL0     H24418   7.460  11.429   3.663 -1.2415 -0.3926  2.6556
  943MOL0     H24419   7.295  11.163   3.681 -1.4060  0.2872 -0.9761
  943MOL0     H24420   7.365  11.233   3.822 -1.1255  0.1048 -0.1811
  943MOL0     H24421   7.202  11.376   3.623  2.4128 -0.5976 -2.0075
  943MOL0     H24422   7.262  11.461   3.761 -3.3603  0.8882 -0.6719
  943MOL0     H24423   7.129  11.343   3.921 -1.9669 -1.4719  1.1485
  943MOL0     H24424   7.071  11.231   3.787  0.4547  0.2702 -2.7939
  943MOL0     H24425   7.039  11.532   3.820 -2.7706  1.8524  0.0914
  943MOL0     H24426   6.947  11.441   3.693 -2.2725 -0.7239 -0.0938
  943MOL0     H24427   6.929  11.392   3.988 -1.2613  0.8485  0.7327
  943MOL0     H24428   6.840  11.297   3.860 -1.1971 -0.4705  2.1657
  943MOL0     H24429   6.667  11.487   3.702 -1.5243 -0.5437 -0.5244
  943MOL0     H24430   6.470  11.665   3.716 -0.5738  0.1991  0.0988
  943MOL0     H24431   6.404  11.701   3.866  1.5301  1.4153 -0.5488
  943MOL0     H24432   6.383  11.426   3.705 -1.2453  0.2175 -1.4874
  943MOL0     H24433   6.256  11.551   3.758 -0.6874 -2.1587 -1.4697
  943MOL0     H24434   6.404  11.372   3.946  1.2760  3.0009  0.3881
  943MOL0     H24435   6.266  11.483   3.979 -0.3617 -0.5131  0.5450
  943MOL0     H24436   6.196  11.257   3.969  1.0935  2.7679  1.6226
  943MOL0     H24437   6.263  11.220   3.814 -1.4225  0.1664 -0.2449
  943MOL0     H24438   6.057  11.097   3.886 -0.5840  0.1434  1.5832
  943MOL0     H24439   5.890  10.971   3.834 -1.2970 -0.6026 -2.5655
  943MOL0     H24440   5.375  10.918   3.740  3.2030 -2.4204 -2.1059
  943MOL0     H24441   5.175  10.818   3.621  0.3362  1.3057  4.1098
  943MOL0     H24442   5.091  10.987   3.202  1.8896  2.3640  1.5785
  943MOL0     H24443   4.964  11.038   3.306 -2.8720 -2.7058 -1.2343
  943MOL0     H24444   4.849  10.808   3.293 -1.0913  0.1261 -1.4728
  943MOL0     H24445   4.976  10.760   3.190 -1.1430 -1.6418  0.1219
  943MOL0     H24446   4.789  10.849   3.042 -2.6645  0.9484  0.4136
  943MOL0     H24447   4.929  10.958   3.043 -0.8369  2.6274 -0.0823
  943MOL0     H24448   4.681  10.994   3.208  0.9411  1.3229  2.0899
  943MOL0     H24449   4.815  11.107   3.181 -1.3540  0.4101  0.2547
  943MOL0     H24450   4.612  11.018   2.967  1.2266 -3.6431  1.9504
  943MOL0     H24451   4.753  11.124   2.947  2.3864 -3.7523  0.3237
  943MOL0     H24452   4.677  11.283   3.119  1.3744 -0.2746 -0.9969
  943MOL0     H24453   4.538  11.184   3.154  0.4463  0.5954  0.7905
  943MOL0     H24454   4.618  11.344   2.898  0.1618 -0.7789 -1.1188
  943MOL0     H24455   4.484  11.229   2.901 -1.0112  0.1784 -0.6515
  943MOL0     H24456   4.400  11.376   3.115 -1.6561 -0.8741 -1.8269
  943MOL0     H24457   4.385  11.443   2.951  0.4915  1.4556  0.1624
  943MOL0     H24458   5.262  11.103   3.296 -2.2658 -0.1330  0.1209
  943MOL0     H24459   5.470  11.160   3.399  0.8537 -1.1736 -0.9419
  943MOL0     H24460   5.686  11.311   3.646  0.7906  0.5633 -0.7755
  943MOL0     H24461   5.871  11.436   3.696 -0.4063  0.2298  1.1515
  943MOL0     H24462   7.965  11.077   3.529  2.0339 -0.4657 -1.5009
  943MOL0     H24463   8.119  11.049   3.347 -1.4682 -1.0480 -3.1301
  943MOL0     H24464   8.158  10.943   2.841  0.6405 -0.6260  0.1781
  943MOL0     H24465   8.358  10.890   2.706 -0.5715  2.1674 -0.7722
  943MOL0     H24466   8.692  11.193   2.752 -3.8036 -1.0457  0.1022
  943MOL0     H24467   8.736  11.096   2.608  1.0843  1.4558 -0.2394
  943MOL0     H24468   8.901  11.104   2.805  1.3499 -0.2316 -0.3257
  943MOL0     H24469   8.782  10.999   2.890  1.7545  1.3614  0.5160
  943MOL0     H24470   8.783  10.852   2.678 -1.1928 -2.1346  1.5561
  943MOL0     H24471   8.907  10.837   2.799 -0.8011  0.2117 -0.2666
  943MOL0     H24472   9.002  10.828   2.582  2.1370  0.5065  0.4314
  943MOL0     H24473   8.935  10.998   2.545 -0.4983 -0.6810  0.2218
  943MOL0     H24474   9.267  11.030   2.829  1.4925 -0.6806 -1.3496
  943MOL0     H24475   8.573  11.201   2.936  0.9843 -0.5490 -2.3606
  943MOL0     H24476   8.394  11.210   3.085  0.0270 -0.7791  0.6976
  944MOL0     O24477   0.870   4.813   7.671 -0.6512 -0.5422  0.1195
  944MOL0     C24478   0.854   4.919   7.610 -0.7005  0.3072  0.5083
  944MOL0     O24479   0.740   4.971   7.562  0.4197 -0.1864  0.6997
  944MOL0     C24480   0.614   4.918   7.597 -0.4231  0.6422 -0.1494
  944MOL0     C24481   0.579   4.895   7.727 -0.0950  0.7348 -0.4237
  944MOL0     C24482   0.438   4.871   7.755 -0.1661  0.1178  1.0322
  944MOL0     C24483   0.346   4.854   7.648  0.5251  0.7931 -0.0565
  944MOL0     O24484   0.211   4.824   7.670 -0.4806  0.5550  0.0615
  944MOL0     C24485   0.180   4.766   7.796  0.1955  0.3020 -0.2932
  944MOL0     C24486   0.041   4.700   7.783 -0.0909  0.9782  0.0301
  944MOL0     C24487   0.047   4.600   7.666 -0.2612  0.3287  0.1957
  944MOL0     C24488  -0.081   4.528   7.634  0.0081 -0.7874 -0.4474
  944MOL0     C24489  -0.186   4.627   7.572 -0.4698  0.3963  0.6828
  944MOL0     C24490  -0.256   4.560   7.444  0.1837  0.2814 -0.4156
  944MOL0     C24491  -0.368   4.654   7.388  0.8369 -0.9969 -0.6416
  944MOL0     C24492  -0.445   4.608   7.255 -0.6263 -0.0028  0.1460
  944MOL0     N24493  -0.531   4.496   7.285  0.3959  0.5004  0.1859
  944MOL0     C24494  -0.667   4.517   7.308  0.1484  0.4543 -0.0294
  944MOL0     C24495  -0.713   4.393   7.321 -0.1762  0.1653  0.0429
  944MOL0     C24496  -0.861   4.359   7.345 -0.3486 -0.1064  0.5666
  944MOL0     C24497  -0.915   4.439   7.464 -0.5591  0.2907  0.3410
  944MOL0     C24498  -1.027   4.364   7.526 -0.0104  0.1123  0.1769
  944MOL0     C24499  -1.141   4.311   7.429 -0.0705  0.4429 -0.0279
  944MOL0     O24500  -1.216   4.227   7.510 -0.1743  0.3726  0.9745
  944MOL0     C24501  -1.310   4.147   7.465  0.1003  0.0607  0.0566
  944MOL0     C24502  -1.373   4.159   7.341 -0.6198 -0.7752 -0.0006
  944MOL0     C24503  -1.479   4.075   7.304 -0.3703 -0.1015 -0.0777
  944MOL0     C24504  -1.516   3.963   7.385  0.4522 -0.1117  1.0190
  944MOL0     C24505  -1.622   3.872   7.350 -0.0782 -1.0000 -0.5208
  944MOL0     O24506  -1.714   3.914   7.255  0.9323  0.5027 -0.5713
  944MOL0     C24507  -1.814   3.825   7.218 -0.7857 -0.2451  0.1417
  944MOL0     C24508  -1.946   3.866   7.250  0.1159  0.5240 -0.7310
  944MOL0     C24509  -2.054   3.788   7.223  0.0988  0.4319  0.0329
  944MOL0     C24510  -2.028   3.661   7.163 -0.3484 -0.9802 -0.3040
  944MOL0     O24511  -2.128   3.576   7.121 -0.5835  0.1668  0.0795
  944MOL0     C24512  -2.263   3.610   7.163  0.0687 -0.6088  0.3583
  944MOL0     C24513  -2.355   3.494   7.117  0.3442 -0.0530  0.4513
  944MOL0     C24514  -2.500   3.521   7.144 -1.0028  0.4134  0.2522
  944MOL0     C24515  -2.592   3.403   7.121  0.0354  0.0799 -0.4688
  944MOL0     C24516  -2.568   3.283   7.207  0.5285 -0.6391 -0.2618
  944MOL0     C24517  -2.709   3.220   7.246  0.3281  0.2148  0.5480
  944MOL0     C24518  -2.690   3.122   7.357 -0.3707  0.2557 -0.2855
  944MOL0     C24519  -2.832   3.064   7.395  0.0172 -0.9712  0.8293
  944MOL0    Cl24520  -2.929   3.197   7.472 -0.0287  0.1268  0.1503
  944MOL0     C24521  -1.893   3.615   7.144 -0.0031  0.3861 -0.3383
  944MOL0     C24522  -1.786   3.700   7.171  0.8638  0.4249  0.0784
  944MOL0     O24523  -1.622   3.760   7.406  0.0793  0.1141 -0.6863
  944MOL0     C24524  -1.442   3.952   7.509 -0.3699 -0.3064 -1.1032
  944MOL0     C24525  -1.347   4.046   7.545  0.0387  0.8859 -0.7095
  944MOL0     N24526  -0.610   4.303   7.315 -0.8168  0.0718  0.3444
  944MOL0     N24527  -0.496   4.372   7.299  0.1724 -0.0324  0.4841
  944MOL0     C24528   0.390   4.880   7.521 -0.1136  0.6022  0.1160
  944MOL0     C24529   0.531   4.903   7.494  1.0959 -0.3475 -0.4895
  944MOL0     C24530   0.977   4.990   7.577  0.0301  0.3670 -0.1156
  944MOL0     C24531   1.099   4.954   7.640 -0.6394 -0.7588 -0.0811
  944MOL0     C24532   1.210   5.034   7.613  0.3316  0.1553  0.3898
  944MOL0     C24533   1.217   5.138   7.519  0.3544  0.5710 -0.0586
  944MOL0     O24534   1.334   5.212   7.503 -0.1200 -0.4799  0.1405
  944MOL0     C24535   1.332   5.286   7.382  0.1556 -0.7733 -1.3797
  944MOL0     C24536   1.471   5.351   7.396  0.0886  0.3455 -0.4996
  944MOL0     C24537   1.512   5.424   7.269  0.1326  0.0691  0.4392
  944MOL0     C24538   1.644   5.513   7.296 -0.6072  0.5591  0.2773
  944MOL0     C24539   1.765   5.442   7.326 -0.0354 -0.5102 -0.1065
  944MOL0     C24540   1.859   5.368   7.358  0.1600 -0.3244 -0.3277
  944MOL0     C24541   1.099   5.160   7.455  0.0057  0.0621  0.7301
  944MOL0     C24542   0.978   5.089   7.484  0.2183 -0.0971 -0.5303
  944MOL0     H24543   0.655   4.913   7.803  0.4720 -0.5854 -0.6621
  944MOL0     H24544   0.411   4.866   7.860  0.7440 -2.0551  1.2301
  944MOL0     H24545   0.162   4.843   7.872  1.3810 -0.9489  1.3269
  944MOL0     H24546   0.253   4.693   7.832 -0.3181  0.3703  0.9202
  944MOL0     H24547  -0.028   4.783   7.765  1.0547  2.6927  2.8954
  944MOL0     H24548   0.016   4.658   7.880  0.3995  1.0845  0.2072
  944MOL0     H24549   0.114   4.517   7.690 -1.2754 -1.0250 -1.4153
  944MOL0     H24550   0.083   4.644   7.572  0.3572  0.4444  0.4829
  944MOL0     H24551  -0.066   4.449   7.559  0.1438 -2.5913  1.3973
  944MOL0     H24552  -0.121   4.480   7.724  0.7784  0.3220  0.5178
  944MOL0     H24553  -0.134   4.718   7.539 -1.3717  0.0141 -2.0661
  944MOL0     H24554  -0.261   4.655   7.647 -0.7017  2.6738 -0.3233
  944MOL0     H24555  -0.297   4.460   7.465 -0.6093  0.4091 -1.2720
  944MOL0     H24556  -0.180   4.550   7.366 -0.6634  0.0062 -1.2200
  944MOL0     H24557  -0.442   4.668   7.467  0.2801  2.3085 -1.5740
  944MOL0     H24558  -0.320   4.751   7.370 -1.1453 -0.0800 -1.2742
  944MOL0     H24559  -0.375   4.563   7.184  1.0104 -2.9051  3.3157
  944MOL0     H24560  -0.505   4.690   7.213 -0.3142 -0.7162 -1.8016
  944MOL0     H24561  -0.723   4.610   7.300 -1.4729 -0.4322  0.6286
  944MOL0     H24562  -0.871   4.251   7.354 -4.0044  0.1599  0.9640
  944MOL0     H24563  -0.920   4.390   7.258  3.2321  4.2992 -0.6716
  944MOL0     H24564  -0.951   4.534   7.425 -2.3953 -0.8580 -0.9541
  944MOL0     H24565  -0.845   4.457   7.546 -3.0638 -0.2906  2.7576
  944MOL0     H24566  -0.979   4.284   7.582  0.4566  0.5391  0.3890
  944MOL0     H24567  -1.072   4.434   7.596  1.5272  0.2191  1.1017
  944MOL0     H24568  -1.099   4.254   7.346  0.6146 -0.9813  1.2418
  944MOL0     H24569  -1.207   4.386   7.385 -0.3920 -1.6828 -3.4770
  944MOL0     H24570  -1.357   4.242   7.272 -0.2888 -1.8280 -1.2264
  944MOL0     H24571  -1.528   4.094   7.209 -0.7057  1.1647  0.3408
  944MOL0     H24572  -1.955   3.966   7.293  2.6212  1.1592 -1.4960
  944MOL0     H24573  -2.153   3.827   7.246  0.3927  2.0883 -1.3215
  944MOL0     H24574  -2.293   3.700   7.108  1.0793 -1.5061 -1.7888
  944MOL0     H24575  -2.277   3.625   7.270  1.6757  3.7358  0.1629
  944MOL0     H24576  -2.326   3.402   7.169  0.8562 -0.0646  0.1524
  944MOL0     H24577  -2.352   3.475   7.009 -2.5052 -1.4833  0.5341
  944MOL0     H24578  -2.528   3.603   7.078  1.7305 -0.7816 -2.6381
  944MOL0     H24579  -2.503   3.559   7.247 -1.9000  1.4371 -0.1375
  944MOL0     H24580  -2.685   3.449   7.155  0.3136 -0.0649  0.5139
  944MOL0     H24581  -2.599   3.375   7.015 -0.6088 -2.2609  0.1356
  944MOL0     H24582  -2.508   3.313   7.294  1.7457 -0.1578 -1.2415
  944MOL0     H24583  -2.504   3.212   7.154  1.5736 -0.5207  0.8144
  944MOL0     H24584  -2.739   3.163   7.158  3.7666 -1.3210  0.2012
  944MOL0     H24585  -2.790   3.291   7.261 -0.3187  0.1565 -2.1655
  944MOL0     H24586  -2.620   3.040   7.336  0.5468  0.1446  2.6763
  944MOL0     H24587  -2.661   3.183   7.443 -1.1217  1.3260 -0.7712
  944MOL0     H24588  -2.822   2.972   7.453 -0.5939 -0.7019  1.3792
  944MOL0     H24589  -2.892   3.054   7.305 -2.6000  2.7733  1.8899
  944MOL0     H24590  -1.879   3.517   7.100 -1.1284  0.4671 -0.9045
  944MOL0     H24591  -1.679   3.681   7.171  0.6543 -1.2558  2.6530
  944MOL0     H24592  -1.470   3.882   7.587 -0.1694  1.5928  0.7489
  944MOL0     H24593  -1.288   4.041   7.636 -0.6648  1.6300 -0.1935
  944MOL0     H24594   0.328   4.881   7.432 -1.6066 -0.9568  1.0658
  944MOL0     H24595   0.566   4.932   7.395 -0.2190  2.4822 -0.2460
  944MOL0     H24596   1.103   4.868   7.706  1.7432 -3.2816 -3.1668
  944MOL0     H24597   1.301   5.014   7.669  0.5758  2.0472  0.7338
  944MOL0     H24598   1.258   5.366   7.389  0.9929 -0.1335  1.7604
  944MOL0     H24599   1.322   5.225   7.292 -1.8645 -2.8488  0.1481
  944MOL0     H24600   1.466   5.433   7.468  2.9221  0.2107 -0.0221
  944MOL0     H24601   1.547   5.294   7.450  2.4120  2.7201 -1.0549
  944MOL0     H24602   1.438   5.498   7.237 -0.3594  0.2528  1.9624
  944MOL0     H24603   1.516   5.353   7.186  0.4754  0.2593  0.2912
  944MOL0     H24604   1.663   5.583   7.215 -1.1107  0.6277  0.2121
  944MOL0     H24605   1.631   5.574   7.386  1.0066 -1.7224  2.2075
  944MOL0     H24606   1.937   5.304   7.395  1.4522  0.3521 -1.7821
  944MOL0     H24607   1.100   5.227   7.370 -0.9395 -0.4012  0.3313
  944MOL0     H24608   0.886   5.116   7.431  0.3508  1.0353 -0.2208
  945MOL0     O24609   2.445   9.619   4.878  0.2405 -0.3830  0.0598
  945MOL0     C24610   2.544   9.556   4.920  0.5349 -0.1685 -0.4264
  945MOL0     O24611   2.539   9.449   4.999  0.1820 -1.0989 -0.1828
  945MOL0     C24612   2.422   9.381   5.023 -0.0865  0.1341 -0.7988
  945MOL0     C24613   2.329   9.347   4.928  0.5933  0.4037  0.4809
  945MOL0     C24614   2.229   9.255   4.950  0.1192 -0.3697 -0.0340
  945MOL0     C24615   2.216   9.208   5.084  0.0891  1.2219  0.8285
  945MOL0     O24616   2.110   9.127   5.107  0.6532  0.3347 -0.8168
  945MOL0     C24617   2.126   8.994   5.162 -0.2460  0.5065 -0.2521
  945MOL0     C24618   1.992   8.923   5.151  0.1970  0.1165  0.4516
  945MOL0     C24619   1.956   8.895   5.000  0.7574 -0.1760 -0.5944
  945MOL0     C24620   1.810   8.835   5.001 -0.2027  0.1887  0.2767
  945MOL0     C24621   1.752   8.794   4.858 -0.7710  0.1362 -0.5698
  945MOL0     C24622   1.818   8.673   4.803  1.3229  0.0452  0.7986
  945MOL0     C24623   1.762   8.632   4.667  0.0649 -0.2131 -0.3703
  945MOL0     C24624   1.766   8.737   4.552  0.1140  0.0532  0.5002
  945MOL0     N24625   1.891   8.814   4.537  0.1364  0.3056 -0.3165
  945MOL0     C24626   2.014   8.760   4.495 -0.4877  0.1139  0.0412
  945MOL0     C24627   2.101   8.864   4.505  0.5277  0.7444 -0.1587
  945MOL0     C24628   2.242   8.863   4.466 -0.4329 -0.5969  0.1763
  945MOL0     C24629   2.355   8.867   4.562  0.9746 -0.3133 -0.2853
  945MOL0     C24630   2.370   8.990   4.650 -0.3501  0.8541 -0.4988
  945MOL0     C24631   2.385   8.941   4.793  0.3019 -0.2203 -1.0162
  945MOL0     O24632   2.509   8.873   4.820 -0.2587  0.1422 -0.3343
  945MOL0     C24633   2.618   8.962   4.841  0.3391  0.0761  0.8905
  945MOL0     C24634   2.644   9.033   4.960 -0.5285  0.3319  0.6537
  945MOL0     C24635   2.758   9.111   4.975 -0.2258 -0.0484  0.4699
  945MOL0     C24636   2.857   9.120   4.869  1.1162 -0.4081 -0.5603
  945MOL0     C24637   2.984   9.189   4.885  0.3988  0.3350  0.1711
  945MOL0     O24638   3.068   9.183   4.780 -0.4040  0.4310  1.0631
  945MOL0     C24639   3.190   9.247   4.777  0.8793 -0.4782 -0.4942
  945MOL0     C24640   3.310   9.182   4.818 -0.1374  0.8973 -0.1117
  945MOL0     C24641   3.433   9.243   4.797  0.1995  0.7918 -0.3053
  945MOL0     C24642   3.441   9.370   4.750  0.7324  0.4871  0.1302
  945MOL0     O24643   3.566   9.418   4.728 -0.1940 -0.4393  0.2991
  945MOL0     C24644   3.592   9.563   4.713 -0.3737 -0.0167 -0.1740
  945MOL0     C24645   3.746   9.598   4.687  0.4974  0.5157 -0.4021
  945MOL0     C24646   3.762   9.753   4.668 -0.4314 -0.9506 -0.2651
  945MOL0     C24647   3.895   9.805   4.625 -0.4352 -0.4308  0.3627
  945MOL0     C24648   3.874   9.944   4.561 -0.0189 -0.2188  0.4723
  945MOL0     C24649   3.829   9.930   4.410  0.7550 -0.4017 -0.3432
  945MOL0     C24650   3.773  10.061   4.341 -0.0211 -0.2489  0.2059
  945MOL0     C24651   3.882  10.154   4.271 -0.0911  0.5082 -0.2521
  945MOL0    Cl24652   3.981  10.072   4.154  0.0225 -0.0724  0.1569
  945MOL0     C24653   3.328   9.440   4.720  1.4349  0.4822  0.2244
  945MOL0     C24654   3.203   9.379   4.729  0.1164 -0.9224  0.2239
  945MOL0     O24655   3.010   9.244   4.990  0.3050  0.0451  0.1495
  945MOL0     C24656   2.824   9.049   4.753 -0.6652 -0.3365  0.2304
  945MOL0     C24657   2.703   8.981   4.731 -0.0031 -0.6850 -0.3622
  945MOL0     N24658   2.033   8.973   4.558 -1.1569 -1.1209  0.7756
  945MOL0     N24659   1.906   8.943   4.569 -0.0195 -0.5284  0.0172
  945MOL0     C24660   2.313   9.235   5.177  0.2844 -0.8029 -0.0722
  945MOL0     C24661   2.420   9.317   5.150 -0.0475  1.0638  0.0028
  945MOL0     C24662   2.677   9.591   4.882 -0.7044  0.8657 -0.6275
  945MOL0     C24663   2.703   9.701   4.797 -0.3788  1.0473 -0.3478
  945MOL0     C24664   2.826   9.730   4.746 -0.8175  0.3249  0.6319
  945MOL0     C24665   2.939   9.658   4.784  0.4312  0.7091 -0.2615
  945MOL0     O24666   3.064   9.687   4.742  0.7632 -0.0267  0.5503
  945MOL0     C24667   3.101   9.827   4.747 -0.5144  1.0291 -0.4442
  945MOL0     C24668   3.151   9.858   4.885  0.8182 -0.6616  0.2062
  945MOL0     C24669   3.267   9.753   4.906 -0.2611  1.0549  0.0865
  945MOL0     C24670   3.350   9.792   5.030  0.1062  0.2087 -0.4158
  945MOL0     C24671   3.441   9.896   4.976 -0.4522  0.3553 -0.3495
  945MOL0     C24672   3.512   9.978   4.927  0.2343 -0.3331  0.0091
  945MOL0     C24673   2.921   9.545   4.864  0.3957 -0.3934 -0.4103
  945MOL0     C24674   2.790   9.508   4.910  0.4567  0.3742  0.5886
  945MOL0     H24675   2.339   9.404   4.836 -4.0820  1.8580  0.6260
  945MOL0     H24676   2.159   9.217   4.875 -1.4861 -1.5778  1.9688
  945MOL0     H24677   2.150   8.998   5.269  1.2308  0.5141 -0.5639
  945MOL0     H24678   2.207   8.945   5.107  0.8108  3.6299 -1.7046
  945MOL0     H24679   1.920   8.995   5.192  0.4710  0.2634  0.6747
  945MOL0     H24680   1.996   8.827   5.203  0.8488 -0.8648 -1.3043
  945MOL0     H24681   2.033   8.826   4.964  2.5256  0.4392  1.7487
  945MOL0     H24682   1.960   8.979   4.930  2.3386 -1.1861 -1.7780
  945MOL0     H24683   1.813   8.750   5.070  4.5859  0.5096  0.8026
  945MOL0     H24684   1.750   8.918   5.038  0.8828  1.5350 -0.8352
  945MOL0     H24685   1.756   8.887   4.800 -2.5184 -0.4282 -1.6654
  945MOL0     H24686   1.650   8.756   4.869  0.0024 -2.4235 -1.6922
  945MOL0     H24687   1.800   8.594   4.876  1.6149  1.3085  2.2945
  945MOL0     H24688   1.927   8.678   4.793  1.3211 -0.8741  0.1876
  945MOL0     H24689   1.805   8.537   4.637 -0.1497 -0.5727  0.4203
  945MOL0     H24690   1.659   8.607   4.692  0.7546 -0.6539  2.4638
  945MOL0     H24691   1.678   8.800   4.569 -1.4219 -2.4219  2.2578
  945MOL0     H24692   1.756   8.675   4.463  2.9315 -0.9199  0.7702
  945MOL0     H24693   2.034   8.660   4.458  1.7679  1.4794 -2.9149
  945MOL0     H24694   2.256   8.954   4.405 -2.3282  1.1794  2.2223
  945MOL0     H24695   2.256   8.779   4.397  1.3386 -0.2265  0.0204
  945MOL0     H24696   2.445   8.858   4.500  1.1480  0.3187 -0.1301
  945MOL0     H24697   2.340   8.776   4.620  1.6886 -0.4133 -0.2474
  945MOL0     H24698   2.460   9.051   4.637  0.0939  0.4550  0.5932
  945MOL0     H24699   2.281   9.054   4.649 -1.2466 -0.3529 -1.2720
  945MOL0     H24700   2.300   8.881   4.826 -1.0367  1.8295 -0.5829
  945MOL0     H24701   2.372   9.030   4.855 -5.7941 -1.1867 -0.3007
  945MOL0     H24702   2.572   9.021   5.040  1.9992  0.2769  3.0734
  945MOL0     H24703   2.767   9.160   5.072 -1.3945 -1.1772  1.1808
  945MOL0     H24704   3.299   9.088   4.870  1.7744  0.4011 -0.5429
  945MOL0     H24705   3.522   9.188   4.826 -0.3447  0.0371 -0.0395
  945MOL0     H24706   3.559   9.623   4.798 -3.3232 -0.9621 -0.5383
  945MOL0     H24707   3.537   9.605   4.628  0.1374 -0.2907 -0.6429
  945MOL0     H24708   3.779   9.555   4.592  2.5495  1.2890 -0.0851
  945MOL0     H24709   3.795   9.556   4.775 -1.1794  2.0590  1.3530
  945MOL0     H24710   3.744   9.801   4.765 -0.4271 -0.4770 -0.4986
  945MOL0     H24711   3.684   9.787   4.600  0.7098  1.1559 -0.5787
  945MOL0     H24712   3.967   9.821   4.706  1.0225  2.9755 -1.3815
  945MOL0     H24713   3.940   9.733   4.557  0.0343  0.1160  0.0853
  945MOL0     H24714   3.967  10.001   4.571  0.6967 -1.5582  1.8785
  945MOL0     H24715   3.805  10.001   4.624 -0.0492 -0.4970  0.6870
  945MOL0     H24716   3.747   9.858   4.404  0.2213  0.1968 -0.3484
  945MOL0     H24717   3.911   9.894   4.347  0.3431  0.7127 -1.5539
  945MOL0     H24718   3.690  10.035   4.274 -1.9442  0.7495  2.0642
  945MOL0     H24719   3.729  10.132   4.412  1.9827  1.1767  0.1218
  945MOL0     H24720   3.945  10.179   4.357  1.0745 -2.2741 -0.1796
  945MOL0     H24721   3.836  10.242   4.225  1.1099  0.4901 -1.5558
  945MOL0     H24722   3.335   9.542   4.684  0.2672  0.6753  0.4815
  945MOL0     H24723   3.115   9.434   4.696  0.2979 -0.3977  0.5929
  945MOL0     H24724   2.888   9.032   4.667 -3.2551  1.3057 -2.1863
  945MOL0     H24725   2.683   8.938   4.634 -1.2042  0.6874 -0.7662
  945MOL0     H24726   2.311   9.177   5.268  2.2267 -1.6283 -0.5235
  945MOL0     H24727   2.503   9.333   5.218  0.9256 -0.7590 -0.6909
  945MOL0     H24728   2.620   9.758   4.756 -2.5425 -0.8588  1.1208
  945MOL0     H24729   2.833   9.821   4.686  0.5739  2.0175  3.2032
  945MOL0     H24730   3.018   9.892   4.718 -0.6288  0.2579 -1.9921
  945MOL0     H24731   3.178   9.843   4.671 -0.3788 -0.2372 -0.5963
  945MOL0     H24732   3.184   9.962   4.888  1.9026 -0.9804 -0.0940
  945MOL0     H24733   3.070   9.845   4.958  1.4500  0.2995  1.1134
  945MOL0     H24734   3.333   9.746   4.819  1.3993  1.1957  1.2828
  945MOL0     H24735   3.218   9.658   4.929 -1.9094  2.0916  1.0813
  945MOL0     H24736   3.289   9.826   5.114 -1.7281 -3.5929 -0.0346
  945MOL0     H24737   3.409   9.705   5.060  0.9339  0.9114  0.0413
  945MOL0     H24738   3.570  10.053   4.877  0.8917  1.2337  2.8919
  945MOL0     H24739   3.009   9.492   4.901  2.9095  2.9393 -1.1082
  945MOL0     H24740   2.779   9.422   4.975 -0.3502  0.0588  0.0497
  946MOL0     O24741  10.975   6.136   9.997 -0.6412 -0.5355  0.2270
  946MOL0     C24742  11.033   6.170  10.103  0.4276 -0.1899  0.4168
  946MOL0     O24743  10.980   6.158  10.227  0.3223  0.1216 -0.0785
  946MOL0     C24744  10.852   6.106  10.249  0.7010 -0.2962  0.5640
  946MOL0     C24745  10.742   6.113  10.161 -0.0161 -0.7109  0.3693
  946MOL0     C24746  10.613   6.061  10.205 -0.0310  0.4789  0.5859
  946MOL0     C24747  10.599   5.992  10.322 -1.2547 -0.4017  0.4826
  946MOL0     O24748  10.474   5.941  10.346 -0.0451 -0.6689 -0.0898
  946MOL0     C24749  10.459   5.860  10.465  1.4118  0.0557 -0.4911
  946MOL0     C24750  10.320   5.796  10.467  0.3466 -0.0248  0.2150
  946MOL0     C24751  10.283   5.731  10.602 -0.7033  0.4675 -0.3057
  946MOL0     C24752  10.177   5.620  10.581 -0.5288  0.5465  0.5830
  946MOL0     C24753  10.124   5.549  10.705 -0.3417  0.3860  0.4390
  946MOL0     C24754  10.040   5.646  10.791 -0.4205  0.1254 -0.4237
  946MOL0     C24755   9.990   5.565  10.909  0.8666  1.0164  0.4223
  946MOL0     C24756   9.941   5.648  11.024  0.1995 -0.0047 -0.0359
  946MOL0     N24757  10.050   5.704  11.094  0.1607 -1.0187  0.1550
  946MOL0     C24758  10.135   5.639  11.182 -0.2064 -0.4025 -0.2777
  946MOL0     C24759  10.240   5.733  11.194  0.2620 -0.4949  1.0780
  946MOL0     C24760  10.370   5.709  11.264 -0.0699 -0.6263 -0.1434
  946MOL0     C24761  10.397   5.787  11.394  0.3923 -0.1653  0.1428
  946MOL0     C24762  10.540   5.748  11.445 -0.4797  0.6424 -0.1811
  946MOL0     C24763  10.657   5.828  11.377  0.5884  0.5407  0.1088
  946MOL0     O24764  10.649   5.960  11.435  0.2221  0.4148  0.1822
  946MOL0     C24765  10.747   6.052  11.402  0.0651  0.1326 -0.3500
  946MOL0     C24766  10.856   6.027  11.317  1.2631  0.0127 -0.0900
  946MOL0     C24767  10.949   6.131  11.291 -0.4065 -0.2109  0.5209
  946MOL0     C24768  10.937   6.261  11.344 -0.1933  0.2518  0.6055
  946MOL0     C24769  11.033   6.369  11.300  0.2164 -0.4468 -0.8082
  946MOL0     O24770  11.139   6.343  11.228  0.1177  0.3438  0.7404
  946MOL0     C24771  11.212   6.447  11.186  0.0025 -0.3076  0.7330
  946MOL0     C24772  11.217   6.483  11.047 -1.1126  0.4546 -0.0218
  946MOL0     C24773  11.303   6.588  11.004 -0.2694 -0.0066  0.1807
  946MOL0     C24774  11.384   6.658  11.091 -0.4084  0.4299  0.8382
  946MOL0     O24775  11.468   6.755  11.057 -0.1110  0.4930  0.1362
  946MOL0     C24776  11.476   6.811  10.921 -0.8113  0.5991  0.3086
  946MOL0     C24777  11.576   6.927  10.922  0.0285  0.7803 -0.5738
  946MOL0     C24778  11.583   7.018  10.798  0.0749  0.0507 -0.0361
  946MOL0     C24779  11.490   7.142  10.823 -0.3633 -0.3873  0.0726
  946MOL0     C24780  11.494   7.249  10.709 -0.5282  0.7898 -0.2722
  946MOL0     C24781  11.381   7.357  10.727  0.2694  0.4693 -1.1478
  946MOL0     C24782  11.430   7.478  10.633  0.4011  0.4971 -0.0826
  946MOL0     C24783  11.460   7.456  10.486  0.5773 -0.2844  0.3092
  946MOL0    Cl24784  11.308   7.397  10.421 -0.1004 -0.5572  0.0095
  946MOL0     C24785  11.381   6.620  11.226 -0.4736  0.0038 -1.0578
  946MOL0     C24786  11.300   6.513  11.271  0.3703 -0.5058  0.3491
  946MOL0     O24787  11.007   6.488  11.340  0.0651  0.3986 -0.5045
  946MOL0     C24788  10.824   6.279  11.426  0.3656 -0.2798  0.3181
  946MOL0     C24789  10.737   6.183  11.457  0.4771 -0.8013 -0.0261
  946MOL0     N24790  10.218   5.840  11.106 -0.5087  0.3407  0.2426
  946MOL0     N24791  10.102   5.823  11.053  1.4899  0.8802  0.0944
  946MOL0     C24792  10.708   5.989  10.409 -0.6816  0.0780 -0.1014
  946MOL0     C24793  10.830   6.052  10.376  0.0856 -0.4326 -0.4452
  946MOL0     C24794  11.165   6.227  10.088  0.7747 -1.0122  0.0923
  946MOL0     C24795  11.253   6.249  10.201 -0.7491 -0.2143 -0.2965
  946MOL0     C24796  11.381   6.311  10.182  1.0537  0.5418  0.2939
  946MOL0     C24797  11.420   6.366  10.061  0.9730 -0.2557  0.0557
  946MOL0     O24798  11.536   6.440  10.063 -0.5940 -0.2841  0.4455
  946MOL0     C24799  11.569   6.538   9.958  0.1355  0.0461  0.5958
  946MOL0     C24800  11.693   6.617  10.002  0.7957  0.5395  0.3323
  946MOL0     C24801  11.795   6.507  10.057  0.2683 -1.1404  0.1800
  946MOL0     C24802  11.938   6.540  10.014 -0.0428 -0.0922  0.7433
  946MOL0     C24803  11.982   6.656  10.087  0.3320 -0.0527  0.4515
  946MOL0     C24804  12.001   6.746  10.164 -0.3131 -0.1353  0.8165
  946MOL0     C24805  11.332   6.356   9.948 -0.3015  0.3953 -0.6709
  946MOL0     C24806  11.209   6.282   9.957  0.5131  0.3728 -1.2270
  946MOL0     H24807  10.731   6.168  10.069 -0.6894  3.0253  2.4792
  946MOL0     H24808  10.527   6.069  10.138 -0.8205  2.2967  1.7481
  946MOL0     H24809  10.470   5.916  10.558 -0.8104  0.3313 -0.3387
  946MOL0     H24810  10.537   5.785  10.453 -0.1713 -2.0943  1.6952
  946MOL0     H24811  10.322   5.711  10.398 -2.2133 -0.2774  0.3612
  946MOL0     H24812  10.238   5.859  10.432 -0.4910 -1.0415  0.2911
  946MOL0     H24813  10.256   5.805  10.678 -0.6169 -1.3403  1.5596
  946MOL0     H24814  10.368   5.680  10.649 -1.1925 -0.2158 -0.1557
  946MOL0     H24815  10.095   5.659  10.520  0.6049  0.7030 -0.8613
  946MOL0     H24816  10.229   5.546  10.520  0.3464  0.4039  1.4823
  946MOL0     H24817  10.210   5.502  10.752 -0.3359 -2.0620 -1.8208
  946MOL0     H24818  10.056   5.471  10.668  2.0756 -1.4832 -0.2889
  946MOL0     H24819   9.959   5.686  10.729  1.8543 -1.7238 -4.9543
  946MOL0     H24820  10.095   5.735  10.823 -0.3682  0.1286 -0.5214
  946MOL0     H24821   9.901   5.509  10.878  0.3025  2.4489 -0.6806
  946MOL0     H24822  10.069   5.502  10.950  1.7394  0.5894 -1.7745
  946MOL0     H24823   9.885   5.587  11.096  1.5210  0.5118  1.4755
  946MOL0     H24824   9.874   5.729  10.994 -0.3589  0.3686  2.0484
  946MOL0     H24825  10.115   5.554  11.245  1.9403 -1.4623 -0.9388
  946MOL0     H24826  10.453   5.739  11.198  0.7399 -0.2124  1.0255
  946MOL0     H24827  10.382   5.602  11.278  0.7182 -0.5599 -0.2725
  946MOL0     H24828  10.318   5.765  11.466 -0.0928 -0.9997 -0.6294
  946MOL0     H24829  10.395   5.894  11.374 -1.1590 -0.0225  0.9529
  946MOL0     H24830  10.556   5.779  11.549  2.8212  2.6479 -1.1357
  946MOL0     H24831  10.559   5.641  11.442 -0.8688  0.5281  0.8229
  946MOL0     H24832  10.644   5.823  11.268 -0.3315  0.8173  0.1957
  946MOL0     H24833  10.757   5.789  11.396  0.8572  2.4771  3.4565
  946MOL0     H24834  10.872   5.931  11.269  0.6941 -1.4376  2.4556
  946MOL0     H24835  11.031   6.112  11.222 -1.7099  2.3703 -1.8940
  946MOL0     H24836  11.169   6.424  10.970  0.4872 -2.0819  0.8329
  946MOL0     H24837  11.301   6.613  10.898  0.1566  0.8227  0.3697
  946MOL0     H24838  11.379   6.849  10.886 -0.3917  1.5910  0.1709
  946MOL0     H24839  11.510   6.736  10.849  2.4867  2.4942 -0.3506
  946MOL0     H24840  11.676   6.884  10.932  0.6203  2.6195  2.5312
  946MOL0     H24841  11.553   6.991  11.007  1.4225  0.0746  0.3650
  946MOL0     H24842  11.553   6.960  10.710  1.4508  0.2207 -0.6494
  946MOL0     H24843  11.686   7.051  10.779 -0.2483  0.0060 -2.0350
  946MOL0     H24844  11.389   7.104  10.836 -1.4845  1.8687 -1.4356
  946MOL0     H24845  11.509   7.195  10.917 -1.2807  0.0592  0.0132
  946MOL0     H24846  11.486   7.201  10.611  3.1888  1.3607 -1.0101
  946MOL0     H24847  11.593   7.296  10.714 -0.4390  0.6128 -0.3694
  946MOL0     H24848  11.383   7.390  10.832  0.7167 -0.0965 -0.9754
  946MOL0     H24849  11.285   7.313  10.701 -0.4023  2.1880 -1.7305
  946MOL0     H24850  11.348   7.550  10.640 -0.5921 -0.7160  2.4815
  946MOL0     H24851  11.521   7.515  10.680  2.0539 -0.0597 -2.6671
  946MOL0     H24852  11.542   7.384  10.472  1.3371  0.7362 -0.6902
  946MOL0     H24853  11.479   7.558  10.452  0.2827  1.4170  4.6221
  946MOL0     H24854  11.437   6.687  11.290 -0.3719 -0.5362 -0.5689
  946MOL0     H24855  11.286   6.482  11.374  1.1050  0.6750  0.8206
  946MOL0     H24856  10.822   6.375  11.477 -0.2325 -0.2940  0.3269
  946MOL0     H24857  10.659   6.209  11.529  0.0262  1.6472 -1.3005
  946MOL0     H24858  10.706   5.941  10.506  2.3181 -0.6693 -0.3232
  946MOL0     H24859  10.909   6.062  10.450 -0.2987 -0.4147 -0.0361
  946MOL0     H24860  11.228   6.220  10.302 -1.4510 -3.6381 -1.3189
  946MOL0     H24861  11.434   6.328  10.275  0.4885 -4.2290  1.7235
  946MOL0     H24862  11.491   6.610   9.933  2.1669  1.7368 -1.3725
  946MOL0     H24863  11.586   6.483   9.865 -1.9960 -2.0525  1.3512
  946MOL0     H24864  11.728   6.656   9.906  2.0637 -2.2369 -0.4548
  946MOL0     H24865  11.672   6.697  10.073  1.4650  0.3495  0.7543
  946MOL0     H24866  11.774   6.410  10.013 -0.9395 -1.7205  1.9373
  946MOL0     H24867  11.780   6.497  10.165 -1.7399 -2.3872 -0.1574
  946MOL0     H24868  12.007   6.457  10.033  1.4738 -0.1882 -3.9977
  946MOL0     H24869  11.945   6.565   9.908 -0.6330  2.6979  1.2706
  946MOL0     H24870  12.011   6.838  10.218 -0.3945 -0.0823  0.7420
  946MOL0     H24871  11.341   6.419   9.861 -0.7469 -0.0302 -1.0272
  946MOL0     H24872  11.137   6.280   9.876  1.1398 -2.0935 -1.8027
  947MOL0     O24873   5.832   0.793  10.385 -0.0020  0.5013 -0.0028
  947MOL0     C24874   5.797   0.674  10.405  0.2398 -0.2899  0.0385
  947MOL0     O24875   5.727   0.630  10.506  0.1007 -0.5595 -0.3923
  947MOL0     C24876   5.691   0.715  10.606  0.5254  0.6693 -0.2173
  947MOL0     C24877   5.786   0.764  10.701  0.0422  1.2838  0.0144
  947MOL0     C24878   5.741   0.830  10.813  0.1942 -0.3472 -0.1382
  947MOL0     C24879   5.612   0.884  10.815  0.1710  0.7047  0.6767
  947MOL0     O24880   5.599   0.957  10.926  0.2188  0.7963  0.1122
  947MOL0     C24881   5.486   1.038  10.945  0.0751 -0.0920 -0.3570
  947MOL0     C24882   5.483   1.111  11.076  1.4749 -0.7729  0.0458
  947MOL0     C24883   5.396   1.237  11.085  0.7472 -0.3059  0.1166
  947MOL0     C24884   5.419   1.302  11.223  0.2691  0.4857  0.0767
  947MOL0     C24885   5.348   1.435  11.237  0.2103  0.5019 -0.0815
  947MOL0     C24886   5.194   1.424  11.227  0.0320  0.3870 -0.5371
  947MOL0     C24887   5.135   1.539  11.288 -0.1716 -0.2024  0.6307
  947MOL0     C24888   5.069   1.513  11.424 -0.2658 -0.2078  0.9077
  947MOL0     N24889   4.946   1.442  11.408  0.3969 -0.2066 -0.6070
  947MOL0     C24890   4.822   1.501  11.371 -0.0007  0.2913 -0.4405
  947MOL0     C24891   4.724   1.409  11.384  1.0704  0.5859  0.3257
  947MOL0     C24892   4.583   1.443  11.358 -0.3496 -0.1971  0.2516
  947MOL0     C24893   4.502   1.491  11.476 -0.5279  0.4979 -0.0754
  947MOL0     C24894   4.369   1.568  11.441  0.0743 -0.8541 -0.0440
  947MOL0     C24895   4.262   1.491  11.365  0.2229  0.4592  0.6057
  947MOL0     O24896   4.148   1.573  11.331 -0.6161 -0.4164 -0.1031
  947MOL0     C24897   4.037   1.513  11.285  0.2910 -0.0568 -1.1466
  947MOL0     C24898   4.021   1.386  11.238  0.4085  0.7479 -1.4837
  947MOL0     C24899   3.887   1.346  11.202 -0.1938 -0.3533 -0.0179
  947MOL0     C24900   3.774   1.431  11.226 -0.0389 -0.4444  0.2966
  947MOL0     C24901   3.634   1.386  11.212 -0.1559  0.3139 -0.8113
  947MOL0     O24902   3.611   1.253  11.230 -0.3293 -0.0397 -0.0315
  947MOL0     C24903   3.484   1.205  11.224 -0.3098 -0.6273  0.3562
  947MOL0     C24904   3.377   1.239  11.135  0.5783 -0.0301 -0.1116
  947MOL0     C24905   3.250   1.180  11.137  0.0018 -0.2171  0.1626
  947MOL0     C24906   3.222   1.086  11.230  0.0045 -1.2315  0.7053
  947MOL0     O24907   3.097   1.045  11.234  0.0397  0.1076 -0.2050
  947MOL0     C24908   3.071   0.916  11.287  0.2633 -0.5121  0.1975
  947MOL0     C24909   2.929   0.906  11.328  0.1817  0.0094 -0.4553
  947MOL0     C24910   2.829   0.960  11.227 -0.2343 -0.0874 -0.4589
  947MOL0     C24911   2.685   0.965  11.297 -0.0737  0.2384  1.1366
  947MOL0     C24912   2.577   1.013  11.202 -0.6185 -0.0598  0.3586
  947MOL0     C24913   2.441   1.005  11.271  0.4276 -0.1015  0.3377
  947MOL0     C24914   2.324   1.093  11.221 -0.6444  0.8126  0.3927
  947MOL0     C24915   2.208   1.019  11.163  0.4381 -0.0422  0.7941
  947MOL0    Cl24916   2.105   1.132  11.072  0.6299 -0.3052 -0.1265
  947MOL0     C24917   3.326   1.048  11.319  0.8382  0.7825  0.4798
  947MOL0     C24918   3.452   1.107  11.318 -0.0057 -0.3354  0.3837
  947MOL0     O24919   3.544   1.470  11.203 -0.4751  0.0040 -0.6342
  947MOL0     C24920   3.802   1.558  11.272  0.6590 -0.2982  0.5866
  947MOL0     C24921   3.929   1.598  11.298 -0.3601 -1.0493 -0.7133
  947MOL0     N24922   4.783   1.293  11.433 -0.3853  0.1046  0.0766
  947MOL0     N24923   4.912   1.309  11.446 -0.5498  0.2201  0.8360
  947MOL0     C24924   5.528   0.859  10.713 -0.6065 -0.1125  0.8936
  947MOL0     C24925   5.564   0.772  10.609  0.5846 -0.8976  0.3085
  947MOL0     C24926   5.839   0.568  10.301 -1.5102 -0.5995 -1.1593
  947MOL0     C24927   5.958   0.595  10.220  0.5871 -0.1873 -1.0831
  947MOL0     C24928   6.003   0.488  10.152 -0.1642 -0.1881 -0.3552
  947MOL0     C24929   5.944   0.364  10.135 -0.1564  0.3579 -0.1661
  947MOL0     O24930   5.991   0.262  10.057  0.2896 -0.7181 -0.2694
  947MOL0     C24931   6.125   0.272  10.018 -0.0416  0.3443 -1.0303
  947MOL0     C24932   6.214   0.257  10.146 -0.5139  0.2834  0.3210
  947MOL0     C24933   6.361   0.283  10.116 -0.4464 -0.7538  0.2718
  947MOL0     C24934   6.461   0.261  10.232 -0.3187 -0.3461 -0.6956
  947MOL0     C24935   6.595   0.292  10.183 -0.4183  1.1260  0.3616
  947MOL0     C24936   6.698   0.312  10.123 -0.4870  0.6264  0.5415
  947MOL0     C24937   5.824   0.345  10.207 -0.4963  0.0487  0.1751
  947MOL0     C24938   5.775   0.448  10.290  0.0291  0.7496 -0.4248
  947MOL0     H24939   5.888   0.729  10.688  0.0359  0.7933  1.1276
  947MOL0     H24940   5.807   0.847  10.897  1.1918  0.4376 -1.0450
  947MOL0     H24941   5.396   0.977  10.950 -1.6187  2.1937 -1.0710
  947MOL0     H24942   5.483   1.110  10.862 -1.4757  0.6124  0.2673
  947MOL0     H24943   5.585   1.134  11.107  0.3411  0.4898  3.2834
  947MOL0     H24944   5.452   1.040  11.154  2.7517 -1.0637  0.3114
  947MOL0     H24945   5.292   1.212  11.062  1.3128 -4.3120  1.0504
  947MOL0     H24946   5.437   1.309  11.015  1.9411 -1.2110 -0.1466
  947MOL0     H24947   5.380   1.230  11.296  0.6537 -0.5241 -0.6974
  947MOL0     H24948   5.522   1.316  11.258 -0.6451  0.5059  3.0972
  947MOL0     H24949   5.381   1.504  11.159 -1.2748 -1.5131 -2.6522
  947MOL0     H24950   5.372   1.473  11.337 -3.8199  2.6457  0.2847
  947MOL0     H24951   5.166   1.335  11.284 -0.5315  1.6294  1.2426
  947MOL0     H24952   5.162   1.424  11.122  0.1988  0.3393 -0.5883
  947MOL0     H24953   5.201   1.624  11.311 -2.2436  1.2731  1.5120
  947MOL0     H24954   5.066   1.592  11.222 -0.6089  0.0598  1.2862
  947MOL0     H24955   5.042   1.605  11.478 -1.0410  0.3759 -0.4167
  947MOL0     H24956   5.134   1.450  11.485 -1.5503 -1.8172  0.6911
  947MOL0     H24957   4.805   1.603  11.337  0.5126  0.4402 -0.2682
  947MOL0     H24958   4.534   1.357  11.311 -0.6372  0.9625 -1.7075
  947MOL0     H24959   4.575   1.521  11.281 -0.9083 -0.2842  0.2189
  947MOL0     H24960   4.564   1.561  11.533 -1.1253  4.1005 -3.4595
  947MOL0     H24961   4.470   1.404  11.536 -2.1053 -0.5010 -2.2510
  947MOL0     H24962   4.313   1.604  11.527 -1.1612 -2.3964 -0.1510
  947MOL0     H24963   4.396   1.649  11.373 -2.7816  1.9515  1.9006
  947MOL0     H24964   4.229   1.400  11.417 -0.9653  0.7886  0.4589
  947MOL0     H24965   4.311   1.455  11.274  3.7061  1.3601  1.9696
  947MOL0     H24966   4.111   1.327  11.225  0.5750  0.2330  1.4048
  947MOL0     H24967   3.890   1.249  11.154  0.1485 -1.7186  2.5816
  947MOL0     H24968   3.401   1.314  11.060 -1.0115  0.5465 -0.0837
  947MOL0     H24969   3.167   1.204  11.072  0.1169  0.4391  0.2562
  947MOL0     H24970   3.123   0.904  11.383 -0.3352  1.5919  0.8362
  947MOL0     H24971   3.106   0.837  11.220  2.0895 -2.0891  2.8033
  947MOL0     H24972   2.908   0.955  11.424 -0.4411 -0.7049 -0.2180
  947MOL0     H24973   2.910   0.799  11.336 -2.1518  0.3707 -0.3844
  947MOL0     H24974   2.831   0.891  11.142 -0.2168 -1.0053  0.2693
  947MOL0     H24975   2.852   1.062  11.194 -1.2611  0.3197  0.0301
  947MOL0     H24976   2.660   0.864  11.332 -0.0592  0.0529  0.6221
  947MOL0     H24977   2.703   1.035  11.379 -2.9464  3.5709 -0.7834
  947MOL0     H24978   2.577   0.953  11.110  3.6263 -0.4987  0.4521
  947MOL0     H24979   2.599   1.115  11.169 -1.2413 -0.2280 -0.6418
  947MOL0     H24980   2.449   1.046  11.372 -0.4802  0.3967  0.2137
  947MOL0     H24981   2.417   0.898  11.268 -0.5852  0.1293 -1.4315
  947MOL0     H24982   2.281   1.144  11.308  0.9478 -1.1679  2.4598
  947MOL0     H24983   2.354   1.159  11.140 -1.9927 -0.6148 -1.3666
  947MOL0     H24984   2.155   0.959  11.237  0.0482  0.4241  0.8980
  947MOL0     H24985   2.254   0.952  11.090 -1.6726 -0.5238 -0.1737
  947MOL0     H24986   3.311   0.966  11.389 -0.3346  1.1597  0.6953
  947MOL0     H24987   3.520   1.085  11.399  1.8011  0.0911 -0.9391
  947MOL0     H24988   3.721   1.624  11.302 -0.0730 -1.3006  0.8692
  947MOL0     H24989   3.959   1.697  11.332  1.4993 -2.0819  0.8937
  947MOL0     H24990   5.430   0.906  10.709 -1.7078 -2.1686  1.9016
  947MOL0     H24991   5.497   0.750  10.526  0.7933  2.2147 -0.7887
  947MOL0     H24992   6.008   0.690  10.211 -0.5693  0.7357  1.3192
  947MOL0     H24993   6.091   0.514  10.094  1.4176  1.6026  2.5662
  947MOL0     H24994   6.145   0.371   9.976  6.0126  0.6194  1.5354
  947MOL0     H24995   6.150   0.198   9.941  1.9439 -1.8707  1.5453
  947MOL0     H24996   6.182   0.314  10.234 -1.1764 -0.2233  0.4170
  947MOL0     H24997   6.222   0.153  10.177  1.4035  0.9250  2.2477
  947MOL0     H24998   6.369   0.387  10.081 -0.7449  0.0829  2.5298
  947MOL0     H24999   6.388   0.209  10.040  0.7909 -1.4934  1.3897
  947MOL0     H25000   6.436   0.330  10.313 -0.1321 -0.1493 -0.8066
  947MOL0     H25001   6.461   0.156  10.265  2.4778 -0.9869 -2.3449
  947MOL0     H25002   6.790   0.334  10.072  0.7946  0.7283  2.7415
  947MOL0     H25003   5.767   0.254  10.191 -1.6273  0.7153  0.2829
  947MOL0     H25004   5.681   0.420  10.337  0.7181  0.2592  0.6865
  948MOL0     O25005   9.734   7.820   7.755  0.0366 -0.4732  0.3223
  948MOL0     C25006   9.834   7.819   7.690  0.0176  0.2989 -0.6537
  948MOL0     O25007   9.836   7.850   7.557  0.8510 -0.6721 -0.0387
  948MOL0     C25008   9.714   7.890   7.500  0.4593  0.3224 -0.0121
  948MOL0     C25009   9.666   7.811   7.389 -0.6912 -0.7390  0.0424
  948MOL0     C25010   9.535   7.838   7.331  0.8480 -0.5729 -0.3416
  948MOL0     C25011   9.450   7.935   7.386  0.0011  0.0184  0.0050
  948MOL0     O25012   9.321   7.971   7.356 -0.7057  0.4815  0.0042
  948MOL0     C25013   9.243   7.893   7.264 -0.2606  0.0122  0.4316
  948MOL0     C25014   9.273   7.946   7.122 -0.3990 -0.1625 -0.6200
  948MOL0     C25015   9.164   8.043   7.076  0.4598 -0.5773 -0.1418
  948MOL0     C25016   9.236   8.126   6.969  0.0134 -0.1575  0.1694
  948MOL0     C25017   9.137   8.208   6.882 -0.1610  1.0473 -0.2404
  948MOL0     C25018   9.090   8.322   6.976  0.4148  0.3915 -0.5997
  948MOL0     C25019   9.035   8.442   6.900 -0.3589  0.1515  0.4294
  948MOL0     C25020   8.906   8.391   6.826 -0.4561  0.1521  0.4056
  948MOL0     N25021   8.824   8.504   6.785 -0.7245  0.1233 -0.4563
  948MOL0     C25022   8.825   8.556   6.664 -0.1526  0.6264  0.9588
  948MOL0     C25023   8.737   8.658   6.661  0.4465  0.0373 -0.3124
  948MOL0     C25024   8.709   8.743   6.539  0.6374  0.0767  0.2556
  948MOL0     C25025   8.570   8.745   6.492 -0.5786 -0.4201 -0.0389
  948MOL0     C25026   8.457   8.786   6.594  0.2462 -0.1656 -1.0208
  948MOL0     C25027   8.308   8.772   6.545  0.5945 -0.5517  0.2740
  948MOL0     O25028   8.228   8.836   6.640 -0.1160 -0.8922  0.0976
  948MOL0     C25029   8.102   8.797   6.664  0.4432  0.3034  0.5309
  948MOL0     C25030   8.045   8.835   6.790 -0.6796  0.2524  0.8596
  948MOL0     C25031   7.914   8.796   6.825 -0.4102 -0.6486 -0.0718
  948MOL0     C25032   7.832   8.722   6.736 -0.6178 -0.1527  0.7550
  948MOL0     C25033   7.696   8.685   6.775 -0.7230  0.7697  0.0482
  948MOL0     O25034   7.633   8.760   6.873 -0.0197 -0.0052 -0.2764
  948MOL0     C25035   7.506   8.724   6.909  1.5823 -0.3947 -0.6690
  948MOL0     C25036   7.416   8.838   6.919  0.2030  0.4100  0.6570
  948MOL0     C25037   7.280   8.820   6.932 -0.7472  0.8353  0.4825
  948MOL0     C25038   7.217   8.690   6.932 -0.5394 -0.5796  0.2712
  948MOL0     O25039   7.081   8.682   6.929  0.5169 -0.1490  0.1093
  948MOL0     C25040   7.013   8.558   6.977  0.1044  0.6681 -0.3161
  948MOL0     C25041   6.877   8.569   6.930 -0.1556  0.7097  0.1653
  948MOL0     C25042   6.873   8.570   6.777 -0.6725  0.0636 -0.0442
  948MOL0     C25043   6.742   8.523   6.714  0.5950 -1.2847 -0.1304
  948MOL0     C25044   6.638   8.637   6.736 -0.0472 -0.1835  1.0631
  948MOL0     C25045   6.496   8.610   6.680 -0.2699 -0.0313  1.4784
  948MOL0     C25046   6.402   8.732   6.710 -0.3826  0.1923 -0.1703
  948MOL0     C25047   6.262   8.705   6.659  0.2480  0.2865  0.2536
  948MOL0    Cl25048   6.170   8.616   6.796 -0.0794  0.1064  0.0053
  948MOL0     C25049   7.306   8.584   6.946 -0.4503 -0.4252  0.7924
  948MOL0     C25050   7.445   8.604   6.933 -0.1863  0.1681 -0.0233
  948MOL0     O25051   7.656   8.577   6.728  0.2271  0.1384 -0.4310
  948MOL0     C25052   7.883   8.700   6.606 -0.8868 -0.3209 -0.5815
  948MOL0     C25053   8.019   8.730   6.574 -0.3335  0.3860  0.2600
  948MOL0     N25054   8.681   8.669   6.785 -0.6432  0.3775  0.1055
  948MOL0     N25055   8.733   8.573   6.861  0.3603 -0.4273  0.4835
  948MOL0     C25056   9.500   8.015   7.491  0.0141 -0.3853 -0.4642
  948MOL0     C25057   9.630   8.001   7.547  0.3120  0.2593 -0.1556
  948MOL0     C25058   9.965   7.813   7.748  0.0403 -0.6655  0.2643
  948MOL0     C25059   9.983   7.834   7.885  0.1065 -0.3069 -0.2697
  948MOL0     C25060  10.109   7.819   7.938 -0.5983  0.5892 -0.5107
  948MOL0     C25061  10.219   7.788   7.865  0.0251 -0.3306 -0.0213
  948MOL0     O25062  10.341   7.772   7.926  0.1639  0.0967  0.7340
  948MOL0     C25063  10.379   7.639   7.971  0.2783 -0.2947 -0.4155
  948MOL0     C25064  10.397   7.550   7.847  0.4545  0.9017 -0.1429
  948MOL0     C25065  10.441   7.417   7.891 -1.1335  0.5744  0.2903
  948MOL0     C25066  10.422   7.319   7.775 -0.0428  0.5715  0.4811
  948MOL0     C25067  10.453   7.184   7.824  0.2858 -0.0309  0.3967
  948MOL0     C25068  10.470   7.069   7.854  0.2485  0.6840 -0.0484
  948MOL0     C25069  10.212   7.786   7.725 -0.7565  1.1994 -0.0508
  948MOL0     C25070  10.083   7.798   7.667  0.9522  0.1223  0.0638
  948MOL0     H25071   9.734   7.736   7.351  1.6597  1.3190 -0.1306
  948MOL0     H25072   9.497   7.785   7.244 -0.1760 -1.7113  0.7484
  948MOL0     H25073   9.136   7.902   7.284 -0.2737 -0.5498  0.6254
  948MOL0     H25074   9.265   7.786   7.260 -1.3264 -0.1913 -0.1580
  948MOL0     H25075   9.275   7.867   7.046 -2.2398 -0.0840 -0.8112
  948MOL0     H25076   9.369   7.998   7.131  0.1205 -1.0289 -1.0642
  948MOL0     H25077   9.132   8.109   7.157  1.0429 -0.9657  0.4066
  948MOL0     H25078   9.073   7.994   7.040 -1.2870  1.3670  1.3900
  948MOL0     H25079   9.313   8.190   7.012 -0.7198  2.6923 -2.3861
  948MOL0     H25080   9.276   8.054   6.897 -1.8073 -0.4418 -0.6298
  948MOL0     H25081   9.051   8.149   6.847 -1.0456  1.2735  1.4858
  948MOL0     H25082   9.180   8.249   6.790 -1.2098 -0.1079 -1.2851
  948MOL0     H25083   9.174   8.353   7.038 -1.4099  2.7417  0.8686
  948MOL0     H25084   9.003   8.290   7.035 -0.7585  0.7148 -2.0918
  948MOL0     H25085   9.016   8.531   6.959 -2.0506  1.4814 -1.9438
  948MOL0     H25086   9.099   8.470   6.816 -1.7188  4.5570  0.6223
  948MOL0     H25087   8.830   8.334   6.881 -2.3696 -0.2364 -2.4027
  948MOL0     H25088   8.936   8.331   6.740 -2.7030 -1.7474  0.8335
  948MOL0     H25089   8.880   8.520   6.577  0.5673  0.3540  1.5178
  948MOL0     H25090   8.771   8.703   6.457 -0.4111  0.2678 -0.6564
  948MOL0     H25091   8.742   8.846   6.556  0.1045 -0.0309  2.0775
  948MOL0     H25092   8.548   8.646   6.452 -1.8541  0.4564 -1.6407
  948MOL0     H25093   8.571   8.818   6.410 -0.7332 -0.5676 -0.1725
  948MOL0     H25094   8.466   8.738   6.692 -2.8224 -0.2297 -0.6579
  948MOL0     H25095   8.472   8.891   6.619 -4.6740  0.4250  0.5935
  948MOL0     H25096   8.282   8.667   6.531 -0.5122 -0.7476  3.1551
  948MOL0     H25097   8.309   8.821   6.447  1.1668 -2.1911 -0.5912
  948MOL0     H25098   8.113   8.892   6.852 -1.5737  3.1285 -0.5781
  948MOL0     H25099   7.864   8.816   6.920 -4.1684 -3.1072 -1.2886
  948MOL0     H25100   7.452   8.940   6.929 -0.6209  0.6244  1.6778
  948MOL0     H25101   7.224   8.911   6.953 -1.0521  1.0075 -0.9952
  948MOL0     H25102   7.026   8.545   7.085  0.2949 -4.7552 -0.7045
  948MOL0     H25103   7.066   8.475   6.929 -1.2884  1.2203 -2.9862
  948MOL0     H25104   6.827   8.657   6.972 -0.9271  1.4225 -2.1417
  948MOL0     H25105   6.820   8.486   6.975 -2.7794  2.1445 -0.3106
  948MOL0     H25106   6.954   8.508   6.737 -1.3777 -1.3653  0.6568
  948MOL0     H25107   6.905   8.673   6.758 -2.8214  0.8645  0.3405
  948MOL0     H25108   6.749   8.516   6.606 -0.0111  1.3176 -0.4014
  948MOL0     H25109   6.707   8.426   6.751  1.8411 -1.4088  0.7948
  948MOL0     H25110   6.677   8.722   6.680  1.2881 -1.1778  0.4116
  948MOL0     H25111   6.629   8.656   6.844 -0.4452 -0.1275  1.0196
  948MOL0     H25112   6.453   8.522   6.729  0.1920 -1.3359 -0.3645
  948MOL0     H25113   6.500   8.589   6.572 -2.2666  1.4180  1.0530
  948MOL0     H25114   6.401   8.754   6.818 -1.0736  3.9514 -0.8011
  948MOL0     H25115   6.438   8.823   6.662  0.8014  0.0742  0.4680
  948MOL0     H25116   6.266   8.642   6.570 -1.6431 -0.1680  0.4603
  948MOL0     H25117   6.208   8.797   6.634  1.0537  0.7642  0.2499
  948MOL0     H25118   7.278   8.481   6.963 -0.9940 -0.8371 -2.1765
  948MOL0     H25119   7.494   8.507   6.933 -2.2063 -0.9117 -0.6262
  948MOL0     H25120   7.817   8.649   6.537  0.7565  0.5883 -2.9325
  948MOL0     H25121   8.048   8.708   6.472 -0.5883  2.9664 -0.4411
  948MOL0     H25122   9.425   8.085   7.526  1.0166  0.0514  0.9347
  948MOL0     H25123   9.659   8.072   7.624 -0.2983  0.8002 -0.4074
  948MOL0     H25124   9.897   7.845   7.949 -0.2705  1.2971 -1.0034
  948MOL0     H25125  10.123   7.829   8.045 -0.7819  0.3070 -0.4583
  948MOL0     H25126  10.297   7.596   8.029 -1.8074  2.6565 -0.9147
  948MOL0     H25127  10.469   7.650   8.032 -0.6780 -0.9448  1.1580
  948MOL0     H25128  10.304   7.540   7.790 -0.0633 -1.5585  0.9583
  948MOL0     H25129  10.477   7.592   7.787 -0.3158  1.8680 -0.5173
  948MOL0     H25130  10.398   7.390   7.988  0.0033 -0.1010  0.6276
  948MOL0     H25131  10.546   7.434   7.915 -1.1241 -0.7459  1.3047
  948MOL0     H25132  10.314   7.324   7.754 -0.0112  2.1727  0.6074
  948MOL0     H25133  10.479   7.359   7.691 -0.0594  2.5640  1.3682
  948MOL0     H25134  10.473   6.964   7.877  1.4877  0.5512 -0.7535
  948MOL0     H25135  10.305   7.767   7.672 -0.8862  3.3444 -1.1339
  948MOL0     H25136  10.069   7.784   7.560  1.4037  0.7873 -0.0880
  949MOL0     O25137   2.374   8.509   4.417 -0.4436  0.0570  0.1937
  949MOL0     C25138   2.381   8.469   4.302  0.0554  0.7958  0.0485
  949MOL0     O25139   2.269   8.444   4.223 -0.4266 -0.1666 -0.3463
  949MOL0     C25140   2.150   8.417   4.280  0.1466  0.3155  0.6408
  949MOL0     C25141   2.128   8.363   4.407 -0.0883  0.0055 -0.2327
  949MOL0     C25142   2.000   8.348   4.462 -0.7265  0.0808  0.4402
  949MOL0     C25143   1.899   8.381   4.386 -0.8286 -0.5345  0.1942
  949MOL0     O25144   1.777   8.363   4.449 -0.6369 -0.2595  0.3031
  949MOL0     C25145   1.670   8.307   4.368  0.1173  1.2066  0.2966
  949MOL0     C25146   1.543   8.266   4.450 -0.7122  0.4570 -0.3267
  949MOL0     C25147   1.511   8.373   4.557 -0.1662  1.1017  0.2263
  949MOL0     C25148   1.372   8.361   4.606  0.3416 -0.2058 -0.2986
  949MOL0     C25149   1.344   8.450   4.724 -1.4065 -0.0733  0.3500
  949MOL0     C25150   1.197   8.453   4.757 -0.5304 -1.0259  0.2190
  949MOL0     C25151   1.171   8.546   4.878  0.1844  0.2776 -1.2313
  949MOL0     C25152   1.133   8.480   5.011 -0.0615  0.1261 -0.3585
  949MOL0     N25153   1.010   8.398   5.003  0.4625 -0.4190  0.3706
  949MOL0     C25154   0.893   8.449   4.946  0.7182  0.9163 -0.5597
  949MOL0     C25155   0.806   8.346   4.956 -0.0868  0.1587  0.5380
  949MOL0     C25156   0.664   8.327   4.899 -0.0002 -0.1779 -0.4902
  949MOL0     C25157   0.590   8.214   4.972 -0.6821  0.1653  0.6520
  949MOL0     C25158   0.449   8.204   4.928  0.1458 -0.4441 -0.4346
  949MOL0     C25159   0.392   8.079   4.999  0.0288 -0.2734  0.8069
  949MOL0     O25160   0.250   8.098   5.006 -0.0696 -0.3677  0.3396
  949MOL0     C25161   0.176   7.993   5.029  0.1273  0.0349 -0.4478
  949MOL0     C25162   0.038   8.018   5.027 -0.6873  1.0231 -0.0289
  949MOL0     C25163  -0.056   7.922   5.053 -0.0614 -0.4170 -0.3817
  949MOL0     C25164  -0.016   7.793   5.095  0.7615  0.7228  0.9477
  949MOL0     C25165  -0.128   7.703   5.124 -0.9563  0.4760 -0.9844
  949MOL0     O25166  -0.256   7.724   5.081  0.5667 -1.3956 -0.0454
  949MOL0     C25167  -0.346   7.621   5.122  0.2090 -0.2306  0.7694
  949MOL0     C25168  -0.385   7.613   5.255 -0.4397  0.2012  0.3385
  949MOL0     C25169  -0.488   7.517   5.291  0.2909  0.2391  0.4422
  949MOL0     C25170  -0.545   7.437   5.193 -0.1276 -0.6716 -0.6266
  949MOL0     O25171  -0.651   7.351   5.220  0.2453 -0.2302 -0.8055
  949MOL0     C25172  -0.634   7.263   5.332  0.3350  0.7781 -0.2266
  949MOL0     C25173  -0.758   7.241   5.417 -0.6386  0.2722 -0.4109
  949MOL0     C25174  -0.829   7.376   5.455  0.8727 -0.5879 -0.3394
  949MOL0     C25175  -0.949   7.346   5.554 -0.2610 -0.2231  0.1734
  949MOL0     C25176  -1.013   7.483   5.598 -0.2416  0.2081  0.6374
  949MOL0     C25177  -1.119   7.447   5.689  0.6704  0.0328  0.2787
  949MOL0     C25178  -1.186   7.570   5.743 -0.3149  0.2317  0.4653
  949MOL0     C25179  -1.299   7.545   5.845 -0.7419  0.7025 -0.0989
  949MOL0    Cl25180  -1.444   7.488   5.746 -0.1154 -0.2049  0.1151
  949MOL0     C25181  -0.492   7.436   5.058  0.3297 -0.2788  0.2069
  949MOL0     C25182  -0.393   7.526   5.026 -1.0197  0.8022  0.1487
  949MOL0     O25183  -0.087   7.622   5.209  0.1921 -0.1206  0.6543
  949MOL0     C25184   0.126   7.771   5.102  0.3635  0.5226 -0.6689
  949MOL0     C25185   0.219   7.863   5.066  0.1215 -0.5765 -0.3143
  949MOL0     N25186   0.867   8.247   5.026  0.3684  0.6447 -0.2109
  949MOL0     N25187   0.987   8.280   5.066 -0.3515 -0.3954  0.7858
  949MOL0     C25188   1.913   8.421   4.252 -0.3166  0.2238  0.2500
  949MOL0     C25189   2.043   8.447   4.206  0.0683 -0.1216 -0.0176
  949MOL0     C25190   2.519   8.441   4.242 -0.7602  0.2986 -0.1227
  949MOL0     C25191   2.543   8.414   4.108 -0.1745  0.0164  0.5372
  949MOL0     C25192   2.669   8.379   4.060  0.4097 -0.9017 -0.8479
  949MOL0     C25193   2.785   8.379   4.146 -1.1970  0.0508  1.2147
  949MOL0     O25194   2.905   8.366   4.079 -0.0558  0.2754 -0.5834
  949MOL0     C25195   3.016   8.356   4.163  0.1184 -1.0623 -0.9332
  949MOL0     C25196   3.136   8.326   4.081  0.3781  0.5654 -0.0217
  949MOL0     C25197   3.147   8.171   4.049 -0.4289 -0.1094 -0.0317
  949MOL0     C25198   3.266   8.152   3.951 -0.0979  0.0931 -0.2301
  949MOL0     C25199   3.286   8.007   3.937  0.5252 -0.2822  0.0193
  949MOL0     C25200   3.308   7.893   3.905 -0.6483  0.4915 -1.6927
  949MOL0     C25201   2.766   8.413   4.273  0.6103 -0.0557 -0.9769
  949MOL0     C25202   2.636   8.447   4.322  0.2027  0.5374 -0.0111
  949MOL0     H25203   2.212   8.322   4.462 -1.2839 -4.2379 -1.1619
  949MOL0     H25204   1.998   8.310   4.564 -1.9872  0.0585  0.4184
  949MOL0     H25205   1.702   8.224   4.304  1.6628  1.6656  0.4449
  949MOL0     H25206   1.638   8.389   4.303  1.8968 -1.3285 -4.2235
  949MOL0     H25207   1.549   8.166   4.495 -1.3417  0.1141 -0.9758
  949MOL0     H25208   1.458   8.263   4.380 -2.6413 -0.8158  1.9037
  949MOL0     H25209   1.532   8.472   4.515  2.3992  0.3903 -0.3177
  949MOL0     H25210   1.579   8.351   4.640 -3.1664  1.6137  3.0409
  949MOL0     H25211   1.301   8.382   4.525  0.6409  2.8211  0.1129
  949MOL0     H25212   1.375   8.258   4.642  2.1369  0.5493  1.9379
  949MOL0     H25213   1.380   8.552   4.705  2.0053 -0.8779  1.7654
  949MOL0     H25214   1.399   8.404   4.807  1.7618 -0.2888 -1.6921
  949MOL0     H25215   1.153   8.360   4.795 -0.9453 -1.2944 -0.8701
  949MOL0     H25216   1.143   8.473   4.664  0.2548 -2.1954 -0.5104
  949MOL0     H25217   1.253   8.615   4.899  1.6673 -1.5793 -0.5235
  949MOL0     H25218   1.080   8.597   4.846 -1.4092 -0.8312  1.1636
  949MOL0     H25219   1.112   8.559   5.084  0.6640  1.4757 -1.5648
  949MOL0     H25220   1.223   8.423   5.033  0.8144  1.2636 -0.9134
  949MOL0     H25221   0.872   8.551   4.916  1.0242  0.2834 -3.1542
  949MOL0     H25222   0.655   8.297   4.794  1.8387 -1.0927 -0.4377
  949MOL0     H25223   0.606   8.418   4.913  1.0183  0.5093 -0.6423
  949MOL0     H25224   0.597   8.237   5.078 -2.3070  3.7400  0.1542
  949MOL0     H25225   0.650   8.127   4.943 -1.3387  0.4408 -1.7938
  949MOL0     H25226   0.400   8.293   4.967  2.2184 -0.1330  1.6874
  949MOL0     H25227   0.446   8.195   4.819  0.0871 -1.8771 -0.3335
  949MOL0     H25228   0.430   8.075   5.101  1.0979  1.4379  0.5134
  949MOL0     H25229   0.421   7.987   4.947 -3.5382 -0.1042 -1.8408
  949MOL0     H25230   0.011   8.120   5.002 -1.7025  0.4367 -1.4760
  949MOL0     H25231  -0.162   7.944   5.041 -0.0942 -1.2865 -1.8931
  949MOL0     H25232  -0.325   7.673   5.322 -0.7848 -1.0913  1.8692
  949MOL0     H25233  -0.504   7.506   5.398 -2.5149  1.0096  0.1772
  949MOL0     H25234  -0.555   7.299   5.397  0.9104  0.9919 -1.0289
  949MOL0     H25235  -0.607   7.165   5.291 -1.3372 -0.0639  0.5816
  949MOL0     H25236  -0.711   7.202   5.507 -2.6858  0.8725  0.9859
  949MOL0     H25237  -0.827   7.172   5.368 -0.4401  0.7179 -1.3590
  949MOL0     H25238  -0.862   7.407   5.356  2.4075 -2.1850 -1.4284
  949MOL0     H25239  -0.762   7.456   5.487  0.6284  0.0483 -1.3600
  949MOL0     H25240  -1.026   7.284   5.508  1.2910 -1.7503 -0.4692
  949MOL0     H25241  -0.910   7.285   5.637 -1.5279 -0.9359  0.2711
  949MOL0     H25242  -1.054   7.536   5.511  0.7168  0.5862  0.4042
  949MOL0     H25243  -0.933   7.542   5.643 -0.7639  0.6359  1.0296
  949MOL0     H25244  -1.085   7.383   5.771 -1.4964 -0.3185  0.9575
  949MOL0     H25245  -1.191   7.385   5.635  0.9550 -0.4154  0.4110
  949MOL0     H25246  -1.109   7.635   5.786 -0.9164 -0.0815  2.0957
  949MOL0     H25247  -1.232   7.634   5.667 -1.1620  1.3685  1.8903
  949MOL0     H25248  -1.324   7.633   5.906  1.9391 -0.4538  2.9703
  949MOL0     H25249  -1.255   7.472   5.913  2.1855  1.4195 -1.0253
  949MOL0     H25250  -0.523   7.363   4.983 -1.2323  0.2597  0.2912
  949MOL0     H25251  -0.357   7.515   4.924 -3.0620 -0.4860 -0.4822
  949MOL0     H25252   0.149   7.667   5.126 -0.3464  0.3893 -0.5532
  949MOL0     H25253   0.325   7.847   5.077  0.9535  2.0421 -2.9746
  949MOL0     H25254   1.823   8.431   4.192  0.0826 -2.5649 -1.0172
  949MOL0     H25255   2.059   8.486   4.106  1.0469 -0.3127  0.0542
  949MOL0     H25256   2.460   8.399   4.040  1.4079  0.5317 -1.6163
  949MOL0     H25257   2.677   8.360   3.954 -1.6101 -3.4265 -0.6462
  949MOL0     H25258   3.001   8.283   4.243 -0.2856  0.6143  0.5723
  949MOL0     H25259   3.019   8.454   4.211 -2.3268 -1.0172 -0.7158
  949MOL0     H25260   3.143   8.381   3.986  0.8217 -1.7850 -1.4464
  949MOL0     H25261   3.229   8.355   4.130  0.7623  2.4818 -1.7364
  949MOL0     H25262   3.054   8.134   4.004  0.8570 -0.0783 -2.9988
  949MOL0     H25263   3.166   8.113   4.139 -0.3332  0.8330  0.5674
  949MOL0     H25264   3.240   8.201   3.856 -0.8674 -1.5914 -0.9262
  949MOL0     H25265   3.359   8.196   3.987 -0.2765  0.3500 -0.0795
  949MOL0     H25266   3.338   7.792   3.882  2.8917  0.7710  0.8737
  949MOL0     H25267   2.849   8.429   4.341 -0.0514  0.3225 -0.2454
  949MOL0     H25268   2.630   8.481   4.425  3.0357 -0.4404  0.5670
  950MOL0     O25269   8.473  10.557   3.276  0.4685 -0.4235  0.8490
  950MOL0     C25270   8.595  10.571   3.309 -0.0973  0.2436 -0.5359
  950MOL0     O25271   8.646  10.678   3.375 -0.2431  0.4881 -0.7124
  950MOL0     C25272   8.587  10.798   3.375  0.8458  0.6153  0.2953
  950MOL0     C25273   8.647  10.911   3.324 -0.1257  1.0040  0.2156
  950MOL0     C25274   8.584  11.039   3.315 -0.4850 -0.2928  0.7615
  950MOL0     C25275   8.455  11.055   3.368  0.6336  0.4292 -0.5979
  950MOL0     O25276   8.381  11.165   3.369  0.0261  0.1622  0.1311
  950MOL0     C25277   8.445  11.288   3.389  0.0364  1.0709  0.8903
  950MOL0     C25278   8.357  11.375   3.471 -0.3396 -0.2812 -1.6064
  950MOL0     C25279   8.314  11.312   3.609 -0.2731 -0.8067 -0.4699
  950MOL0     C25280   8.239  11.410   3.707  0.6310 -0.3299 -0.0228
  950MOL0     C25281   8.209  11.336   3.841 -0.0713  0.3606  0.6894
  950MOL0     C25282   8.083  11.253   3.844 -0.3331 -0.2684  0.6606
  950MOL0     C25283   7.954  11.334   3.834  0.7466 -0.5933  0.0627
  950MOL0     C25284   7.932  11.426   3.959 -0.4015  0.1672 -0.0667
  950MOL0     N25285   7.803  11.495   3.948 -0.4466 -0.0502 -1.3498
  950MOL0     C25286   7.694  11.435   4.000  0.7359  0.2906  0.3842
  950MOL0     C25287   7.598  11.523   3.973  0.4655 -0.3273  0.7863
  950MOL0     C25288   7.450  11.512   3.980 -0.6578  0.7383  0.0345
  950MOL0     C25289   7.411  11.521   4.128 -0.2766  0.8693  0.3369
  950MOL0     C25290   7.262  11.537   4.140 -0.4335 -0.3626 -0.3966
  950MOL0     C25291   7.216  11.535   4.287 -0.7004 -0.7337  0.4239
  950MOL0     O25292   7.081  11.506   4.275  0.2205  0.4454 -0.6241
  950MOL0     C25293   6.987  11.506   4.374  0.0895 -0.2069 -0.1324
  950MOL0     C25294   6.864  11.462   4.333 -0.1149 -1.0909  0.0801
  950MOL0     C25295   6.756  11.446   4.423  0.2133  0.4188 -1.2466
  950MOL0     C25296   6.780  11.452   4.561  0.0215 -0.2519  0.6764
  950MOL0     C25297   6.664  11.428   4.658 -0.1719  0.0783  0.0322
  950MOL0     O25298   6.543  11.412   4.605  0.1885  0.1019  0.1598
  950MOL0     C25299   6.429  11.393   4.672  0.3467  0.1271 -0.6025
  950MOL0     C25300   6.407  11.362   4.816  0.1567 -1.0734  0.3229
  950MOL0     C25301   6.277  11.364   4.864 -0.0969  0.0578  0.6059
  950MOL0     C25302   6.165  11.384   4.782  0.2539  0.3214 -0.3193
  950MOL0     O25303   6.032  11.385   4.823 -0.0788  0.1473  0.8874
  950MOL0     C25304   6.004  11.304   4.934 -0.0313  1.7821  0.3806
  950MOL0     C25305   5.999  11.151   4.909  0.1203 -0.0682  0.4001
  950MOL0     C25306   5.872  11.100   4.832  0.8211  0.0703  0.5649
  950MOL0     C25307   5.738  11.116   4.903  0.0771  0.2062 -0.2880
  950MOL0     C25308   5.621  11.038   4.844  0.1486  0.7674 -0.9657
  950MOL0     C25309   5.491  11.067   4.917  0.3773  0.7100 -0.5634
  950MOL0     C25310   5.383  10.987   4.842  0.6019 -0.1019 -0.3445
  950MOL0     C25311   5.242  11.002   4.919 -0.0485 -0.0870 -0.0470
  950MOL0    Cl25312   5.109  10.896   4.862  0.5328 -0.0629 -0.4493
  950MOL0     C25313   6.186  11.413   4.649 -0.5768  0.1802  0.6314
  950MOL0     C25314   6.317  11.425   4.595  0.1981 -0.1864  1.0304
  950MOL0     O25315   6.691  11.447   4.777 -0.0199 -0.1932  0.0356
  950MOL0     C25316   6.907  11.495   4.602  0.2592  0.7317 -0.4824
  950MOL0     C25317   7.006  11.529   4.513 -1.3085  0.5811  0.7109
  950MOL0     N25318   7.654  11.638   3.913  0.4022  0.3055 -0.1335
  950MOL0     N25319   7.777  11.621   3.905  0.3100 -0.3193 -0.2784
  950MOL0     C25320   8.388  10.940   3.420  0.9881  0.1110  0.2983
  950MOL0     C25321   8.456  10.817   3.421  0.2037 -1.3653 -0.3460
  950MOL0     C25322   8.690  10.458   3.274 -0.1524  0.4072  0.2369
  950MOL0     C25323   8.814  10.452   3.338 -0.2543  0.1791  0.2237
  950MOL0     C25324   8.910  10.355   3.303  1.0027 -0.0835 -0.1961
  950MOL0     C25325   8.885  10.260   3.199 -0.4376 -0.2434 -0.0786
  950MOL0     O25326   8.984  10.172   3.159  0.2958  0.5266 -0.2127
  950MOL0     C25327   9.096  10.148   3.244 -0.0803  0.3975 -0.3019
  950MOL0     C25328   9.178  10.025   3.207 -0.0448 -0.0083  0.3914
  950MOL0     C25329   9.269  10.067   3.090 -0.3052  0.2360  0.4449
  950MOL0     C25330   9.377   9.956   3.061  0.2207 -0.4586 -0.2604
  950MOL0     C25331   9.500  10.004   3.004  0.1001  0.1738  0.0931
  950MOL0     C25332   9.598  10.037   2.941 -0.3097  0.1550 -0.0144
  950MOL0     C25333   8.763  10.264   3.127 -0.7305 -0.3945  0.3190
  950MOL0     C25334   8.669  10.367   3.159  0.3399  0.1931  0.4082
  950MOL0     H25335   8.751  10.910   3.293  0.6886  3.3528  2.4937
  950MOL0     H25336   8.636  11.118   3.263  2.6794 -2.5528  0.2051
  950MOL0     H25337   8.470  11.318   3.287 -3.1209 -2.4143 -1.1576
  950MOL0     H25338   8.542  11.284   3.440 -1.0497 -0.9696  3.0207
  950MOL0     H25339   8.270  11.413   3.417 -3.4057 -4.3679 -0.0722
  950MOL0     H25340   8.402  11.468   3.509 -1.0401 -0.9148  1.0225
  950MOL0     H25341   8.399  11.272   3.665 -0.3226  2.4003  2.2031
  950MOL0     H25342   8.250  11.227   3.585 -0.0417 -1.8482  2.2872
  950MOL0     H25343   8.308  11.493   3.729  0.8692 -0.6651  0.5017
  950MOL0     H25344   8.145  11.448   3.667  0.1732  1.3438  2.3845
  950MOL0     H25345   8.198  11.409   3.922 -0.8861 -0.2442  1.1420
  950MOL0     H25346   8.299  11.279   3.867  0.4438  0.8657  0.0297
  950MOL0     H25347   8.077  11.204   3.942 -1.2303  0.4594  0.9932
  950MOL0     H25348   8.087  11.183   3.760 -2.0294  1.4644 -0.9852
  950MOL0     H25349   7.957  11.403   3.750  0.1421 -0.7701 -0.1072
  950MOL0     H25350   7.870  11.263   3.835 -0.4414  0.7522  1.6404
  950MOL0     H25351   8.008  11.505   3.955 -1.9895  1.7176 -1.3111
  950MOL0     H25352   7.944  11.375   4.055 -0.5778 -0.3586 -0.3243
  950MOL0     H25353   7.691  11.341   4.054  4.5511  0.4696  1.2320
  950MOL0     H25354   7.415  11.413   3.950  0.2121  0.6839 -0.8674
  950MOL0     H25355   7.405  11.592   3.921  0.1398  1.6096  0.5778
  950MOL0     H25356   7.457  11.606   4.178 -3.7290  2.5795  0.8592
  950MOL0     H25357   7.438  11.429   4.181 -0.3558  0.4490 -0.3402
  950MOL0     H25358   7.223  11.623   4.085 -2.5147  0.2245  1.8427
  950MOL0     H25359   7.212  11.452   4.093 -1.4277  0.5458 -1.0053
  950MOL0     H25360   7.236  11.628   4.341  2.8756 -1.7457  1.1405
  950MOL0     H25361   7.275  11.463   4.344 -0.8908 -1.5455 -0.3840
  950MOL0     H25362   6.847  11.455   4.226 -3.0301  2.7038  0.0851
  950MOL0     H25363   6.658  11.425   4.382  0.5455  0.3844 -2.0345
  950MOL0     H25364   6.488  11.338   4.885  0.5662  0.1466  0.3034
  950MOL0     H25365   6.270  11.333   4.967 -1.6122 -3.8071 -0.4660
  950MOL0     H25366   5.908  11.342   4.970 -1.1515 -2.2239  2.0773
  950MOL0     H25367   6.078  11.321   5.012  0.2911 -0.9605  0.7670
  950MOL0     H25368   6.022  11.089   4.997  0.2930 -1.0347 -0.3118
  950MOL0     H25369   6.080  11.124   4.841  1.6289 -0.1278  2.1450
  950MOL0     H25370   5.886  10.992   4.826  4.0084  0.3860  0.6297
  950MOL0     H25371   5.862  11.132   4.728 -3.1968 -3.4956 -0.3790
  950MOL0     H25372   5.748  11.099   5.010 -3.2358 -4.7545 -0.3843
  950MOL0     H25373   5.710  11.220   4.887 -1.3231 -0.4425 -2.4922
  950MOL0     H25374   5.645  10.932   4.858 -3.2750  0.0915  1.2160
  950MOL0     H25375   5.607  11.071   4.741 -0.5448 -1.2273 -1.5444
  950MOL0     H25376   5.463  11.172   4.929 -2.2206  0.0454 -0.2808
  950MOL0     H25377   5.486  11.027   5.019 -0.7808  1.7770 -0.1836
  950MOL0     H25378   5.374  11.023   4.739 -0.5803 -0.3707 -0.3534
  950MOL0     H25379   5.412  10.882   4.837  0.4792 -0.3440  2.4719
  950MOL0     H25380   5.201  11.103   4.926  1.2823  0.4837 -0.1379
  950MOL0     H25381   5.249  10.975   5.024 -2.5885 -1.4119 -0.1386
  950MOL0     H25382   6.091  11.419   4.597  0.0920 -2.8276 -1.1972
  950MOL0     H25383   6.326  11.451   4.490  1.0775 -2.8479  0.3652
  950MOL0     H25384   6.914  11.506   4.710 -0.5195  2.2976 -0.5665
  950MOL0     H25385   7.105  11.564   4.540 -1.6961  0.2971  2.6812
  950MOL0     H25386   8.290  10.966   3.458 -0.2709 -2.0907 -1.1639
  950MOL0     H25387   8.411  10.729   3.464 -2.0486 -0.1921 -0.1683
  950MOL0     H25388   8.834  10.521   3.420  1.4319 -1.0190  0.8853
  950MOL0     H25389   9.004  10.350   3.357  3.1075  0.6240 -3.4827
  950MOL0     H25390   9.060  10.136   3.346  0.6420  1.9920  0.1843
  950MOL0     H25391   9.158  10.238   3.255  0.6436 -0.2028  0.7027
  950MOL0     H25392   9.237   9.991   3.292 -1.6040  0.3336  1.6574
  950MOL0     H25393   9.119   9.944   3.162  0.7586  1.5433 -3.9635
  950MOL0     H25394   9.323  10.148   3.140  1.4341 -1.7268  1.8661
  950MOL0     H25395   9.213  10.096   3.000 -2.5880 -0.3737  1.5946
  950MOL0     H25396   9.410   9.901   3.149  0.2858  0.5715  0.3696
  950MOL0     H25397   9.333   9.881   2.995  1.6094 -1.9946  0.4912
  950MOL0     H25398   9.683  10.076   2.889  0.7719  2.6447  3.2807
  950MOL0     H25399   8.743  10.190   3.050  1.4885  0.7021 -1.4449
  950MOL0     H25400   8.571  10.377   3.113  0.2006 -1.6027  0.2585
  951MOL0     O25401   4.083   5.744   8.754 -0.0045  0.2779 -0.1133
  951MOL0     C25402   4.195   5.701   8.781 -0.3932  1.3764 -0.1882
  951MOL0     O25403   4.240   5.576   8.744 -0.2265  0.1756  0.3794
  951MOL0     C25404   4.145   5.483   8.698  0.6168 -0.1688 -0.3526
  951MOL0     C25405   4.032   5.445   8.769 -0.8958 -0.3032 -0.4086
  951MOL0     C25406   3.948   5.347   8.725  0.5046  0.0895 -0.5312
  951MOL0     C25407   3.968   5.295   8.594  1.3540  0.0068 -0.2660
  951MOL0     O25408   3.885   5.198   8.530 -1.3065 -1.4324 -0.7016
  951MOL0     C25409   3.756   5.182   8.590 -0.4052  0.3274  0.5376
  951MOL0     C25410   3.681   5.067   8.526 -0.5870  0.9718  0.1569
  951MOL0     C25411   3.561   5.008   8.601 -0.0648  0.7005  0.2567
  951MOL0     C25412   3.440   5.109   8.612  0.1614 -0.1137  0.2769
  951MOL0     C25413   3.310   5.030   8.646 -0.6352  0.7653  0.6540
  951MOL0     C25414   3.196   5.125   8.645 -0.6230 -0.6296  0.0940
  951MOL0     C25415   3.058   5.050   8.639 -0.0158  0.4917 -0.6117
  951MOL0     C25416   3.020   4.971   8.771  0.1628  0.0416  0.6391
  951MOL0     N25417   2.874   4.957   8.789  0.5599 -0.2776 -0.3333
  951MOL0     C25418   2.797   4.884   8.707 -0.1839  0.2717  0.3935
  951MOL0     C25419   2.671   4.877   8.751 -0.1049 -0.1065 -0.2897
  951MOL0     C25420   2.571   4.788   8.694  0.4462  0.2590  0.6686
  951MOL0     C25421   2.424   4.831   8.720 -0.2062 -0.8074  0.6195
  951MOL0     C25422   2.325   4.723   8.670 -0.0934 -1.0502  0.7676
  951MOL0     C25423   2.175   4.760   8.697 -0.0448  0.4354 -0.2709
  951MOL0     O25424   2.089   4.663   8.642  0.4379 -0.0037 -0.8619
  951MOL0     C25425   1.956   4.687   8.615 -0.0598 -0.2904 -0.1416
  951MOL0     C25426   1.889   4.805   8.654 -0.6213 -0.0504  0.2233
  951MOL0     C25427   1.755   4.829   8.633 -0.3391  0.1962  0.2083
  951MOL0     C25428   1.670   4.724   8.592 -1.1101  0.1672 -0.2772
  951MOL0     C25429   1.524   4.742   8.599 -0.5860  0.3058 -0.3698
  951MOL0     O25430   1.463   4.636   8.544  0.5160  0.8143 -0.4521
  951MOL0     C25431   1.328   4.637   8.509  0.6091 -0.2117 -0.8388
  951MOL0     C25432   1.273   4.747   8.441  0.7075  0.3242 -0.4519
  951MOL0     C25433   1.141   4.734   8.385 -0.3270  0.3699  0.0065
  951MOL0     C25434   1.055   4.625   8.410  0.6719  0.0203 -0.8783
  951MOL0     O25435   0.923   4.628   8.365  0.1036  0.1313 -0.3749
  951MOL0     C25436   0.868   4.503   8.317 -0.8237 -0.2392 -0.0676
  951MOL0     C25437   0.770   4.441   8.420 -0.1757  0.8036 -0.2949
  951MOL0     C25438   0.617   4.476   8.420 -0.1841  0.6197  0.0991
  951MOL0     C25439   0.538   4.397   8.522  0.6214 -0.4748  0.4001
  951MOL0     C25440   0.416   4.469   8.579 -0.0498 -0.0569 -0.2997
  951MOL0     C25441   0.294   4.510   8.490 -0.5039  0.9690 -0.0467
  951MOL0     C25442   0.186   4.566   8.583 -0.5510  1.3350  0.1044
  951MOL0     C25443   0.061   4.588   8.498  0.3695 -0.5125 -0.3033
  951MOL0    Cl25444  -0.015   4.436   8.438  0.1116 -0.8422 -0.3141
  951MOL0     C25445   1.111   4.521   8.478 -0.4204  0.1022 -0.7361
  951MOL0     C25446   1.243   4.524   8.525 -0.4236 -0.1962 -0.0220
  951MOL0     O25447   1.478   4.847   8.645  0.3133 -0.0173 -0.3296
  951MOL0     C25448   1.733   4.602   8.549 -1.0670 -0.0822  1.2692
  951MOL0     C25449   1.873   4.589   8.548  0.1983 -1.1477  0.6389
  951MOL0     N25450   2.664   4.958   8.867  0.8304  0.6268  0.2208
  951MOL0     N25451   2.787   5.008   8.882 -0.5689  0.9671 -0.3633
  951MOL0     C25452   4.072   5.334   8.521 -0.6943  0.0249 -0.4971
  951MOL0     C25453   4.168   5.424   8.570  0.4362 -0.3431  0.1482
  951MOL0     C25454   4.301   5.798   8.827 -1.0282 -0.4420 -0.8339
  951MOL0     C25455   4.275   5.913   8.912  0.4762 -0.0481  0.0559
  951MOL0     C25456   4.380   5.991   8.953 -0.5435 -0.2892 -0.0654
  951MOL0     C25457   4.513   5.962   8.920  0.2952  0.2519  0.0414
  951MOL0     O25458   4.609   6.045   8.972  0.6449  0.6938  0.1753
  951MOL0     C25459   4.748   5.996   8.967 -0.0067 -0.4266 -0.1561
  951MOL0     C25460   4.830   6.053   9.089  0.2115 -0.5101  0.4521
  951MOL0     C25461   4.882   6.200   9.065  0.1549 -0.1115  0.7048
  951MOL0     C25462   4.773   6.316   9.084  0.0128 -0.7988 -0.5729
  951MOL0     C25463   4.712   6.296   9.213  0.4399 -0.0271 -0.5635
  951MOL0     C25464   4.646   6.270   9.309 -0.1205 -0.0203 -0.6867
  951MOL0     C25465   4.543   5.859   8.834  0.3100  0.2157  0.5238
  951MOL0     C25466   4.437   5.773   8.795  0.3807  0.7340 -0.4150
  951MOL0     H25467   4.020   5.488   8.868 -0.4608 -0.0021 -0.4799
  951MOL0     H25468   3.868   5.314   8.791 -1.1068 -0.3281 -2.5653
  951MOL0     H25469   3.698   5.274   8.574 -1.1714 -0.1817  0.3607
  951MOL0     H25470   3.752   5.151   8.695 -1.5116 -0.1005  0.3815
  951MOL0     H25471   3.750   4.985   8.501 -1.3231  0.4698 -0.2433
  951MOL0     H25472   3.647   5.102   8.429 -0.5337 -0.4365 -0.3952
  951MOL0     H25473   3.585   4.972   8.702  0.6733 -1.0952 -0.5338
  951MOL0     H25474   3.529   4.920   8.546 -0.8905  1.4072 -0.4003
  951MOL0     H25475   3.472   5.182   8.686  0.7794 -0.9853  0.8892
  951MOL0     H25476   3.433   5.157   8.514  1.6165 -0.9064 -0.2437
  951MOL0     H25477   3.313   4.982   8.744  0.0089  1.2998  0.9050
  951MOL0     H25478   3.295   4.952   8.571  2.2068 -0.6532  1.4112
  951MOL0     H25479   3.194   5.190   8.557  1.1752 -0.4268  0.1710
  951MOL0     H25480   3.205   5.196   8.728 -2.8829  1.3955 -1.2580
  951MOL0     H25481   2.973   5.119   8.631  1.0940  2.1351  0.9366
  951MOL0     H25482   3.061   4.982   8.553  1.8962  2.5787 -2.3161
  951MOL0     H25483   3.048   5.033   8.857  2.2191  1.3599 -0.8783
  951MOL0     H25484   3.067   4.873   8.763 -0.3407 -0.3476  2.1017
  951MOL0     H25485   2.833   4.825   8.623 -0.3580  0.7900 -0.0497
  951MOL0     H25486   2.583   4.694   8.748  0.6278  1.5272  2.9457
  951MOL0     H25487   2.593   4.760   8.590 -0.9432  1.6823 -0.0570
  951MOL0     H25488   2.397   4.924   8.669 -2.8140 -2.5528 -1.4466
  951MOL0     H25489   2.417   4.844   8.828  4.8421  4.0671  0.8216
  951MOL0     H25490   2.336   4.716   8.561 -0.6052  2.1234  0.4079
  951MOL0     H25491   2.336   4.627   8.721 -0.3375 -2.5668 -1.8672
  951MOL0     H25492   2.153   4.851   8.642 -1.8090  0.8824  1.1040
  951MOL0     H25493   2.161   4.768   8.805  0.2294  0.5315 -0.2396
  951MOL0     H25494   1.947   4.880   8.707 -0.2187 -1.0960  1.3073
  951MOL0     H25495   1.730   4.927   8.673 -2.0508 -0.6579  1.3359
  951MOL0     H25496   1.326   4.839   8.418  0.9219  0.3048 -0.0539
  951MOL0     H25497   1.103   4.819   8.328 -1.4371  1.3306  2.0446
  951MOL0     H25498   0.941   4.432   8.277 -1.2185 -1.5987  1.5552
  951MOL0     H25499   0.818   4.525   8.222  1.7049 -1.7333 -1.8767
  951MOL0     H25500   0.800   4.431   8.525 -0.2055  0.2506 -0.3350
  951MOL0     H25501   0.772   4.337   8.387  0.1388  0.5298  0.5678
  951MOL0     H25502   0.576   4.466   8.319  0.5996 -0.4704 -0.1252
  951MOL0     H25503   0.612   4.577   8.461  1.0172  0.0994  1.6101
  951MOL0     H25504   0.512   4.295   8.490  1.2443 -1.2768  2.2854
  951MOL0     H25505   0.615   4.388   8.600  0.8586 -0.6604  0.1496
  951MOL0     H25506   0.451   4.563   8.624 -2.3738  0.5297  0.3902
  951MOL0     H25507   0.368   4.404   8.653  0.1166  0.3341  0.1555
  951MOL0     H25508   0.266   4.424   8.428 -2.3886  0.6006  1.2276
  951MOL0     H25509   0.337   4.587   8.426  0.7899 -0.7673 -1.3684
  951MOL0     H25510   0.164   4.492   8.661  2.2287  0.1515 -0.1092
  951MOL0     H25511   0.222   4.660   8.626  0.6994  1.0466 -0.2619
  951MOL0     H25512   0.083   4.660   8.419 -2.4812 -0.3863 -1.0877
  951MOL0     H25513  -0.016   4.635   8.560  1.2299 -0.3163  0.6510
  951MOL0     H25514   1.053   4.430   8.495  0.5521 -0.0080  2.9249
  951MOL0     H25515   1.270   4.440   8.588 -2.4025  0.7534  2.2583
  951MOL0     H25516   1.685   4.509   8.521  1.4746 -1.0554 -0.2221
  951MOL0     H25517   1.924   4.508   8.497  1.0627  0.6653 -1.5541
  951MOL0     H25518   4.084   5.289   8.423  1.2905 -1.2739  0.2711
  951MOL0     H25519   4.244   5.467   8.505 -2.0507  1.7423 -1.5751
  951MOL0     H25520   4.172   5.940   8.934  0.2190  0.0574 -1.2371
  951MOL0     H25521   4.362   6.071   9.024  0.6017 -0.4623  0.4376
  951MOL0     H25522   4.793   6.006   8.868  0.4969 -0.0056  0.1129
  951MOL0     H25523   4.750   5.888   8.982  1.6952 -0.4777 -0.5904
  951MOL0     H25524   4.780   6.059   9.186 -0.5553  4.2527  0.0088
  951MOL0     H25525   4.914   5.984   9.104  1.0391 -0.1942 -2.1499
  951MOL0     H25526   4.918   6.224   8.965  0.2986 -0.4939  0.6661
  951MOL0     H25527   4.965   6.223   9.134  0.9979 -0.2085 -0.2634
  951MOL0     H25528   4.819   6.414   9.070 -1.7797 -0.0124 -1.1929
  951MOL0     H25529   4.694   6.296   9.012 -1.5433 -1.4751  1.2287
  951MOL0     H25530   4.587   6.237   9.391 -1.0373  1.5392 -0.6865
  951MOL0     H25531   4.642   5.843   8.793 -0.0052  1.5129 -0.8095
  951MOL0     H25532   4.461   5.688   8.732  0.1796  0.8014 -0.5833
  952MOL0     O25533  10.166   5.283   3.876 -0.5565  0.7660 -0.2031
  952MOL0     C25534  10.240   5.283   3.977  0.1895  0.1940 -0.2516
  952MOL0     O25535  10.203   5.283   4.108 -0.7378  0.3719 -0.2550
  952MOL0     C25536  10.072   5.292   4.145  0.1886 -0.5288 -0.3250
  952MOL0     C25537   9.962   5.240   4.077 -0.7202  0.3026 -0.0147
  952MOL0     C25538   9.834   5.259   4.119  0.5366 -0.3163 -0.0484
  952MOL0     C25539   9.809   5.313   4.248 -0.1161 -0.0454 -0.1635
  952MOL0     O25540   9.675   5.324   4.280  0.0655  0.0147  0.1424
  952MOL0     C25541   9.619   5.402   4.384 -0.1403  0.6496 -0.4676
  952MOL0     C25542   9.584   5.536   4.324  0.3307 -0.3281 -0.0768
  952MOL0     C25543   9.481   5.528   4.206 -0.8611 -0.2363  0.7034
  952MOL0     C25544   9.347   5.485   4.270 -0.8529 -0.5417  0.2174
  952MOL0     C25545   9.228   5.505   4.171 -0.0627 -1.1603 -0.3604
  952MOL0     C25546   9.094   5.504   4.256 -0.6549 -0.6489  0.2906
  952MOL0     C25547   8.991   5.581   4.174  0.1251  0.1160 -0.1107
  952MOL0     C25548   8.960   5.523   4.038  0.3233  0.6597  0.0679
  952MOL0     N25549   8.853   5.603   3.974 -0.1303  0.3871  0.0508
  952MOL0     C25550   8.764   5.568   3.876 -0.0170 -0.3164  0.1154
  952MOL0     C25551   8.680   5.675   3.857 -0.2218  0.6558  0.5689
  952MOL0     C25552   8.571   5.680   3.758 -0.2230 -0.3016 -0.3573
  952MOL0     C25553   8.453   5.594   3.815  0.9607 -0.4836 -0.4958
  952MOL0     C25554   8.403   5.664   3.949  0.2732 -0.7751 -0.5349
  952MOL0     C25555   8.268   5.613   3.988  0.2229 -0.8654  0.2351
  952MOL0     O25556   8.169   5.619   3.877 -0.3043 -0.2273 -0.0788
  952MOL0     C25557   8.063   5.538   3.901  0.5860 -0.4065 -0.2757
  952MOL0     C25558   8.041   5.436   3.814  0.3720 -0.0544  0.5528
  952MOL0     C25559   7.944   5.343   3.844 -0.7708  0.1475 -0.2148
  952MOL0     C25560   7.861   5.357   3.960  0.0724 -0.0047  0.0613
  952MOL0     C25561   7.751   5.260   3.989  0.2158 -0.0147 -0.1734
  952MOL0     O25562   7.695   5.275   4.114  0.5682  0.0480  0.8534
  952MOL0     C25563   7.568   5.218   4.148  0.0020  0.3288  0.3868
  952MOL0     C25564   7.456   5.202   4.063 -0.1091 -0.3007 -0.1764
  952MOL0     C25565   7.347   5.130   4.104  0.1824  0.8527 -0.3439
  952MOL0     C25566   7.337   5.066   4.230 -0.1850 -0.7755  0.6705
  952MOL0     O25567   7.227   5.000   4.263  0.1805  0.0920 -0.4548
  952MOL0     C25568   7.106   5.011   4.195  0.2550 -0.2085 -0.5381
  952MOL0     C25569   7.000   4.923   4.250  0.5043  0.1228 -0.1108
  952MOL0     C25570   6.881   4.914   4.157  0.4431 -0.1170  1.2296
  952MOL0     C25571   6.803   4.781   4.192 -0.5908 -0.5540  0.0753
  952MOL0     C25572   6.682   4.772   4.100 -0.9950 -0.1749 -0.5014
  952MOL0     C25573   6.725   4.714   3.971 -0.0469  0.3623  0.3209
  952MOL0     C25574   6.610   4.623   3.916  0.2091  0.4067 -0.2591
  952MOL0     C25575   6.667   4.576   3.784 -0.3254 -0.3672  0.7143
  952MOL0    Cl25576   6.531   4.490   3.712  0.1231 -0.6318  0.3392
  952MOL0     C25577   7.443   5.078   4.310 -0.1246 -0.0282  0.0782
  952MOL0     C25578   7.559   5.145   4.268 -0.7957  0.5024 -0.4119
  952MOL0     O25579   7.712   5.182   3.902 -0.1390  0.3139  0.7273
  952MOL0     C25580   7.881   5.467   4.037 -0.0926 -0.5024 -1.2461
  952MOL0     C25581   7.979   5.561   4.011 -0.1940  0.8194  0.6160
  952MOL0     N25582   8.714   5.779   3.935 -0.4434 -0.4287 -0.1707
  952MOL0     N25583   8.819   5.730   4.002 -0.2732  0.2022  0.0068
  952MOL0     C25584   9.918   5.352   4.322 -0.1550  0.1171  0.7366
  952MOL0     C25585  10.046   5.339   4.282 -0.2383 -0.1193  0.1362
  952MOL0     C25586  10.384   5.289   3.948  0.3274  0.1263  0.1289
  952MOL0     C25587  10.467   5.353   4.034  0.3344 -0.3404  0.7226
  952MOL0     C25588  10.599   5.384   3.994  0.0950  1.0129 -0.0676
  952MOL0     C25589  10.653   5.341   3.869  0.7398 -0.1410  0.7165
  952MOL0     O25590  10.782   5.365   3.829  0.8052  1.1413 -0.6718
  952MOL0     C25591  10.858   5.464   3.887 -0.0369  0.2944 -1.0368
  952MOL0     C25592  10.949   5.405   3.999  0.0689 -0.2909  0.7733
  952MOL0     C25593  11.046   5.508   4.065  0.3978  0.0233 -0.3611
  952MOL0     C25594  11.135   5.438   4.165  0.2364 -0.2037 -0.0522
  952MOL0     C25595  11.221   5.526   4.239 -0.0137  0.1679  0.4525
  952MOL0     C25596  11.298   5.605   4.288  0.4427  0.9186 -0.1360
  952MOL0     C25597  10.565   5.270   3.787 -0.1803 -0.4225 -0.1530
  952MOL0     C25598  10.429   5.254   3.821 -0.2126 -0.1789 -0.5454
  952MOL0     H25599   9.983   5.187   3.984  2.8327 -1.3638  1.5768
  952MOL0     H25600   9.743   5.233   4.065 -0.4307 -0.9358  1.7818
  952MOL0     H25601   9.688   5.413   4.468 -0.1621  2.4932 -0.6491
  952MOL0     H25602   9.524   5.356   4.414 -1.2808  3.9387  1.4071
  952MOL0     H25603   9.676   5.583   4.288 -1.7594  3.8500 -0.6631
  952MOL0     H25604   9.547   5.600   4.405  0.1800 -1.9282  1.1593
  952MOL0     H25605   9.497   5.448   4.134  1.8475  0.9219 -0.1199
  952MOL0     H25606   9.468   5.631   4.170 -1.8309  0.5136  2.9616
  952MOL0     H25607   9.339   5.379   4.292  3.4463 -0.8267  1.3467
  952MOL0     H25608   9.332   5.545   4.360  3.2974  0.0360  0.7409
  952MOL0     H25609   9.230   5.427   4.094 -0.1951 -2.6029  1.0429
  952MOL0     H25610   9.240   5.602   4.122  0.3806 -0.4763  1.0393
  952MOL0     H25611   9.107   5.552   4.353 -2.4627 -0.2361  0.3539
  952MOL0     H25612   9.051   5.405   4.272 -1.0923 -0.6231 -0.6448
  952MOL0     H25613   8.898   5.589   4.229  0.5754 -0.5471  0.7749
  952MOL0     H25614   9.022   5.683   4.150 -1.2892  0.4015 -0.8128
  952MOL0     H25615   8.923   5.420   4.045 -2.3326  1.4931 -0.2760
  952MOL0     H25616   9.049   5.523   3.974 -0.5062 -1.1349 -1.1725
  952MOL0     H25617   8.759   5.472   3.826  1.2330 -0.8374  0.9600
  952MOL0     H25618   8.616   5.650   3.663 -3.3590  0.2138 -2.1425
  952MOL0     H25619   8.539   5.783   3.744  2.0079  0.4292 -0.4247
  952MOL0     H25620   8.494   5.494   3.831  2.9492  0.1755 -1.1364
  952MOL0     H25621   8.379   5.586   3.735 -0.8563  0.5148  1.0116
  952MOL0     H25622   8.469   5.642   4.033  1.9401 -1.5254 -1.9685
  952MOL0     H25623   8.398   5.771   3.927 -2.0984 -0.6771  0.2106
  952MOL0     H25624   8.222   5.659   4.077  0.6517  0.0467 -0.0014
  952MOL0     H25625   8.290   5.509   4.015  1.6245 -0.8820 -0.8702
  952MOL0     H25626   8.086   5.421   3.716 -1.1848 -0.5233 -0.1312
  952MOL0     H25627   7.909   5.270   3.772  0.8461  0.8550 -1.8060
  952MOL0     H25628   7.456   5.250   3.966  1.2916  1.9251  0.8362
  952MOL0     H25629   7.266   5.112   4.034 -1.4622 -1.9237  2.0666
  952MOL0     H25630   7.110   4.997   4.086 -2.0547  1.0094 -0.8386
  952MOL0     H25631   7.075   5.115   4.210 -1.5273 -0.9759  1.5282
  952MOL0     H25632   6.969   4.948   4.352  1.6224  1.9831 -0.1922
  952MOL0     H25633   7.048   4.825   4.246  0.0497 -0.0669 -1.7211
  952MOL0     H25634   6.922   4.910   4.056 -0.3993  1.4517  0.8039
  952MOL0     H25635   6.821   5.005   4.161 -0.7337 -0.5510 -2.5537
  952MOL0     H25636   6.861   4.689   4.183  0.7072  0.1375  0.9101
  952MOL0     H25637   6.781   4.789   4.299 -2.5512 -3.8245  0.0432
  952MOL0     H25638   6.632   4.869   4.087  3.2065  2.2490 -0.2190
  952MOL0     H25639   6.613   4.702   4.148 -0.8325 -0.1885 -0.2890
  952MOL0     H25640   6.812   4.649   3.989 -0.6986 -0.9630 -1.1372
  952MOL0     H25641   6.748   4.793   3.900  1.9036  2.2185  2.8212
  952MOL0     H25642   6.597   4.524   3.963 -0.7813  0.0697 -1.2202
  952MOL0     H25643   6.515   4.676   3.905  1.2951  2.7660  1.0659
  952MOL0     H25644   6.755   4.512   3.797  0.9916  0.6020 -2.5705
  952MOL0     H25645   6.700   4.660   3.722  0.8933 -0.8352  0.6903
  952MOL0     H25646   7.437   5.046   4.414  0.4641  0.7469  0.3559
  952MOL0     H25647   7.647   5.130   4.331 -1.1980 -0.8781 -0.1439
  952MOL0     H25648   7.816   5.482   4.123  1.1488  0.6455 -0.4656
  952MOL0     H25649   7.999   5.652   4.067  0.1925  0.1204  1.6525
  952MOL0     H25650   9.888   5.397   4.417 -1.2028 -2.6170  1.8175
  952MOL0     H25651  10.134   5.378   4.331 -0.6914  1.1183 -0.0024
  952MOL0     H25652  10.432   5.386   4.132 -1.6684 -2.5015  0.8455
  952MOL0     H25653  10.659   5.434   4.069 -0.5940  0.8442  0.6044
  952MOL0     H25654  10.797   5.546   3.926  0.1736 -0.7625  1.7239
  952MOL0     H25655  10.929   5.496   3.810  0.7399 -1.1000 -0.9267
  952MOL0     H25656  10.884   5.369   4.079 -0.6828  1.9759  1.2389
  952MOL0     H25657  11.000   5.317   3.959 -1.5784 -0.6331 -0.6764
  952MOL0     H25658  10.980   5.577   4.118 -0.6767 -0.2138 -1.3310
  952MOL0     H25659  11.100   5.575   3.997  0.6190  2.2403  1.9004
  952MOL0     H25660  11.070   5.396   4.243  1.2601  2.3355  2.3693
  952MOL0     H25661  11.200   5.371   4.109 -0.2156 -0.8091  0.1308
  952MOL0     H25662  11.372   5.669   4.333  1.6094 -1.8257  2.1999
  952MOL0     H25663  10.608   5.242   3.691  0.9073  0.3068  0.0942
  952MOL0     H25664  10.359   5.195   3.763 -1.2995  1.8972 -1.4438
  953MOL0     O25665   3.049   5.184   7.981 -0.2715  0.2200 -0.5633
  953MOL0     C25666   3.051   5.088   8.063 -0.4839  0.1404 -0.9167
  953MOL0     O25667   2.945   5.045   8.136 -0.6517 -0.2697  0.3673
  953MOL0     C25668   2.824   5.081   8.086  0.4765 -0.5866 -0.3728
  953MOL0     C25669   2.729   4.984   8.085 -0.5943  0.3840 -1.1519
  953MOL0     C25670   2.589   5.012   8.069 -0.3697  0.8441  0.2146
  953MOL0     C25671   2.548   5.140   8.041 -0.1051  0.6608 -0.2016
  953MOL0     O25672   2.420   5.172   8.006  0.0627  0.0278  0.4224
  953MOL0     C25673   2.344   5.070   7.937 -0.1632  0.1729  0.7578
  953MOL0     C25674   2.212   5.136   7.893 -0.2690  0.1348  0.4503
  953MOL0     C25675   2.113   5.033   7.830  0.3958 -0.4578  0.1078
  953MOL0     C25676   1.976   5.113   7.798 -0.2150 -0.0810 -0.0159
  953MOL0     C25677   1.877   5.022   7.733  0.1192  0.5082  0.0563
  953MOL0     C25678   1.755   5.101   7.684  0.0255 -0.5498 -0.0805
  953MOL0     C25679   1.631   5.014   7.658 -0.0025  0.4347  1.1128
  953MOL0     C25680   1.663   4.929   7.529  0.9620 -0.4162 -1.2515
  953MOL0     N25681   1.549   4.828   7.527  0.2119 -0.0700 -1.5749
  953MOL0     C25682   1.505   4.737   7.624 -0.0576 -0.4894 -0.9654
  953MOL0     C25683   1.400   4.675   7.573 -0.0043 -0.2553  0.0099
  953MOL0     C25684   1.337   4.552   7.633  0.7688  0.7968  1.2263
  953MOL0     C25685   1.193   4.518   7.586 -0.7950  0.0217 -0.3686
  953MOL0     C25686   1.180   4.447   7.460  0.0285  0.3784  0.8057
  953MOL0     C25687   1.029   4.436   7.417 -0.9131  0.6659 -0.0478
  953MOL0     O25688   1.009   4.420   7.285 -0.4365  0.5156  0.2235
  953MOL0     C25689   0.887   4.370   7.244  0.3860 -0.4771 -0.0055
  953MOL0     C25690   0.770   4.380   7.319  1.0175 -0.0435  0.3194
  953MOL0     C25691   0.646   4.333   7.263 -0.5999 -0.5358 -0.6224
  953MOL0     C25692   0.646   4.278   7.137 -0.1234 -0.0062  0.6084
  953MOL0     C25693   0.510   4.237   7.076  0.0392  0.3235 -0.5378
  953MOL0     O25694   0.500   4.239   6.940  0.1026  0.3907  0.2178
  953MOL0     C25695   0.372   4.222   6.885  0.8141  0.0732 -1.2175
  953MOL0     C25696   0.302   4.097   6.886  0.0621 -0.3265  0.6985
  953MOL0     C25697   0.171   4.095   6.844 -0.2517  0.0398  0.3403
  953MOL0     C25698   0.110   4.206   6.787 -0.5890 -0.0575  1.2971
  953MOL0     O25699  -0.015   4.200   6.721  1.0114  0.0996  0.0985
  953MOL0     C25700  -0.090   4.077   6.724 -0.2845 -0.3632 -0.3312
  953MOL0     C25701  -0.190   4.070   6.607  0.1757 -0.3297 -0.2430
  953MOL0     C25702  -0.235   3.924   6.595  0.3572  0.5008  0.0470
  953MOL0     C25703  -0.339   3.900   6.489  0.6301  0.0542  0.2753
  953MOL0     C25704  -0.362   3.747   6.467 -0.0803  0.5109  0.7125
  953MOL0     C25705  -0.458   3.725   6.349 -0.4028  0.1644  0.5166
  953MOL0     C25706  -0.467   3.576   6.309  0.0691 -2.0068 -0.3898
  953MOL0     C25707  -0.554   3.573   6.177  0.1526 -0.1467  0.1745
  953MOL0    Cl25708  -0.474   3.486   6.057  0.0097 -0.7206  0.2761
  953MOL0     C25709   0.178   4.322   6.772  0.1815  0.5408 -0.7303
  953MOL0     C25710   0.313   4.331   6.817  0.2270 -0.7089 -0.6992
  953MOL0     O25711   0.417   4.213   7.160  0.1566 -0.0952  0.4734
  953MOL0     C25712   0.761   4.283   7.056 -0.1921 -0.3344 -0.0066
  953MOL0     C25713   0.883   4.319   7.117 -0.1260 -0.0643  0.9691
  953MOL0     N25714   1.373   4.735   7.454 -0.0468 -0.8629 -0.1202
  953MOL0     N25715   1.474   4.821   7.418  0.6176 -0.3665 -0.1850
  953MOL0     C25716   2.642   5.242   8.042  0.5566  0.1408 -0.6357
  953MOL0     C25717   2.782   5.207   8.056  0.2472  0.7442 -0.5144
  953MOL0     C25718   3.187   5.035   8.093  0.8790  0.8983  1.0607
  953MOL0     C25719   3.289   5.076   8.011 -0.7756  0.7379  0.5524
  953MOL0     C25720   3.419   5.030   8.039 -0.0376  0.4162 -0.1158
  953MOL0     C25721   3.441   4.953   8.150  0.5493  0.2771 -0.7159
  953MOL0     O25722   3.567   4.918   8.191 -0.3432 -0.3380  0.0134
  953MOL0     C25723   3.651   4.859   8.090  0.1703  0.0143  0.4221
  953MOL0     C25724   3.786   4.816   8.166 -0.1977  0.1066 -0.1686
  953MOL0     C25725   3.871   4.936   8.218 -0.7745 -0.2235  0.3768
  953MOL0     C25726   3.934   5.015   8.096  0.0218 -0.3960  0.3639
  953MOL0     C25727   3.965   5.154   8.120  0.3730  1.3530 -0.5485
  953MOL0     C25728   3.985   5.266   8.149  0.5831 -0.3272  0.1804
  953MOL0     C25729   3.334   4.906   8.229  0.2876  0.1139 -0.3340
  953MOL0     C25730   3.201   4.941   8.205 -0.7403  0.3130 -0.4208
  953MOL0     H25731   2.752   4.884   8.121 -1.1586  0.3918 -0.7577
  953MOL0     H25732   2.529   4.922   8.076 -2.5643  2.1197 -0.9517
  953MOL0     H25733   2.331   4.999   8.020  0.7040  1.2335  1.8333
  953MOL0     H25734   2.394   5.006   7.864 -0.5011 -0.8376  1.3831
  953MOL0     H25735   2.229   5.222   7.828 -3.4961  1.3231  1.0168
  953MOL0     H25736   2.161   5.181   7.978 -4.1873 -1.8148 -0.6185
  953MOL0     H25737   2.102   4.953   7.904  2.7014 -1.7183 -0.8079
  953MOL0     H25738   2.162   4.994   7.740 -0.6435  0.4243 -0.8553
  953MOL0     H25739   1.933   5.159   7.887  1.3756 -1.3908  1.5252
  953MOL0     H25740   1.994   5.200   7.735 -0.4233 -0.0227  0.0060
  953MOL0     H25741   1.837   4.951   7.806 -3.0946 -0.0566 -2.0169
  953MOL0     H25742   1.932   4.966   7.657  0.2341  1.2758 -0.4369
  953MOL0     H25743   1.774   5.157   7.591 -0.8099 -0.6721 -0.3359
  953MOL0     H25744   1.724   5.181   7.752 -0.4271 -0.5045 -0.3368
  953MOL0     H25745   1.623   4.950   7.747 -1.1353  0.4006  1.0002
  953MOL0     H25746   1.534   5.064   7.655 -1.8639 -2.9165 -0.1059
  953MOL0     H25747   1.762   4.887   7.550  2.1225  2.3057 -0.8511
  953MOL0     H25748   1.663   4.991   7.439 -3.9508  2.1382  0.1898
  953MOL0     H25749   1.558   4.710   7.715 -0.4014 -2.1152 -1.2208
  953MOL0     H25750   1.342   4.565   7.742  2.4288  1.1417  1.1347
  953MOL0     H25751   1.407   4.475   7.601  0.2537  0.0726  1.8081
  953MOL0     H25752   1.143   4.615   7.584 -1.7143 -0.4301  0.0046
  953MOL0     H25753   1.148   4.452   7.661 -0.9358 -1.0475 -1.3715
  953MOL0     H25754   1.236   4.490   7.377 -0.3971  1.0525  0.8567
  953MOL0     H25755   1.238   4.356   7.478  2.5899  1.9679  1.1082
  953MOL0     H25756   0.968   4.523   7.444 -0.0789  1.9800 -2.1241
  953MOL0     H25757   0.989   4.350   7.470  0.6517  0.2506  0.5109
  953MOL0     H25758   0.766   4.443   7.407 -1.1922  0.7169 -0.2682
  953MOL0     H25759   0.555   4.353   7.319  0.0129  1.4078 -0.2420
  953MOL0     H25760   0.340   4.001   6.922 -3.9756 -1.5318  2.3657
  953MOL0     H25761   0.111   4.008   6.873 -1.8601  0.8547 -0.4211
  953MOL0     H25762  -0.132   4.057   6.823  1.8379 -1.2314  0.4420
  953MOL0     H25763  -0.023   3.996   6.693  0.0845  0.2752 -1.2461
  953MOL0     H25764  -0.124   4.096   6.524  3.2842 -1.8412  1.5979
  953MOL0     H25765  -0.267   4.147   6.619 -1.5131 -2.1640  1.6516
  953MOL0     H25766  -0.258   3.878   6.691  1.3551 -0.8371 -0.3341
  953MOL0     H25767  -0.147   3.864   6.570 -1.2678 -2.2076  0.4950
  953MOL0     H25768  -0.430   3.949   6.523 -1.1473 -0.7725 -2.8642
  953MOL0     H25769  -0.315   3.948   6.394  2.5874 -0.0025  0.6996
  953MOL0     H25770  -0.401   3.692   6.553  1.8397 -2.0302  0.1131
  953MOL0     H25771  -0.267   3.704   6.432 -2.2545 -3.8662 -0.6824
  953MOL0     H25772  -0.425   3.782   6.261  0.1125  0.0228  0.6103
  953MOL0     H25773  -0.559   3.757   6.376 -0.8709  0.0692 -0.9928
  953MOL0     H25774  -0.365   3.537   6.296  1.5738  1.9382 -2.0555
  953MOL0     H25775  -0.513   3.516   6.388  0.1281  1.0297  2.1593
  953MOL0     H25776  -0.573   3.679   6.155 -1.4553 -0.3457  0.4534
  953MOL0     H25777  -0.653   3.529   6.193 -1.0621  2.1129 -0.6034
  953MOL0     H25778   0.125   4.408   6.733 -3.2563 -1.0008  0.1806
  953MOL0     H25779   0.360   4.428   6.822 -4.4220  1.8153  0.0770
  953MOL0     H25780   0.753   4.248   6.954 -2.5877 -0.8314  0.2904
  953MOL0     H25781   0.983   4.315   7.076 -1.0095  0.9819 -1.4436
  953MOL0     H25782   2.615   5.345   8.025 -2.3327 -0.7971 -2.3941
  953MOL0     H25783   2.849   5.292   8.050 -0.3695  1.2345 -0.5808
  953MOL0     H25784   3.276   5.147   7.929  0.7416 -0.8319 -1.1444
  953MOL0     H25785   3.497   5.088   7.991  1.6263 -2.1276 -0.7233
  953MOL0     H25786   3.669   4.926   8.005 -2.9680  0.7656  0.2084
  953MOL0     H25787   3.611   4.765   8.053  0.3617 -1.0791  2.7889
  953MOL0     H25788   3.752   4.767   8.258 -0.0425  1.6452  0.7451
  953MOL0     H25789   3.846   4.750   8.104 -0.4466 -0.2077 -0.0749
  953MOL0     H25790   3.955   4.908   8.282 -0.8661  1.1560  1.1436
  953MOL0     H25791   3.808   5.003   8.277 -0.5916 -0.2565  0.6132
  953MOL0     H25792   4.022   4.958   8.065 -0.2388 -1.7313  1.9751
  953MOL0     H25793   3.862   5.013   8.014 -1.4700  0.8425  1.5817
  953MOL0     H25794   4.022   5.360   8.184  2.1531 -0.5500 -0.7745
  953MOL0     H25795   3.355   4.859   8.324  1.2290  3.1324  1.0807
  953MOL0     H25796   3.132   4.881   8.263  0.3520  0.9300  1.6172
  954MOL0     O25797   8.863   4.985   9.043  0.1998  0.3652 -0.2602
  954MOL0     C25798   8.850   5.085   9.113  0.4885 -0.5543 -0.1608
  954MOL0     O25799   8.736   5.119   9.185 -0.4024 -0.1084  0.3769
  954MOL0     C25800   8.615   5.051   9.192 -0.2785 -0.4795  0.0514
  954MOL0     C25801   8.515   5.102   9.278  0.3551  0.2269  0.2350
  954MOL0     C25802   8.397   5.034   9.300 -0.3874 -0.4264  0.6992
  954MOL0     C25803   8.360   4.920   9.234  0.0088  1.2917 -0.3545
  954MOL0     O25804   8.252   4.840   9.252  0.1930 -0.3398  0.1391
  954MOL0     C25805   8.139   4.925   9.289 -0.3086 -0.2335  0.6913
  954MOL0     C25806   8.016   4.836   9.321 -0.2434 -0.1621 -0.5411
  954MOL0     C25807   7.954   4.777   9.195  0.2075 -0.3786  0.6824
  954MOL0     C25808   7.834   4.682   9.219 -0.6247  0.1743  0.5189
  954MOL0     C25809   7.771   4.612   9.096 -0.2400 -0.3983  0.6932
  954MOL0     C25810   7.670   4.722   9.040  0.0235 -0.4135 -0.1227
  954MOL0     C25811   7.592   4.678   8.910 -0.6572  0.2113 -1.0162
  954MOL0     C25812   7.688   4.650   8.798 -0.3318 -0.0889  0.0607
  954MOL0     N25813   7.614   4.643   8.677 -0.5672 -0.3758  0.2241
  954MOL0     C25814   7.565   4.750   8.614  0.3613 -0.0871 -0.7081
  954MOL0     C25815   7.468   4.710   8.526  0.4517  0.7852 -0.3598
  954MOL0     C25816   7.405   4.804   8.430  0.4708  0.1417  0.1422
  954MOL0     C25817   7.260   4.780   8.397 -0.0303  0.0468 -0.7610
  954MOL0     C25818   7.187   4.916   8.391 -0.4383 -0.2738 -0.6902
  954MOL0     C25819   7.037   4.893   8.426  0.1346 -0.4984 -0.0934
  954MOL0     O25820   6.955   5.011   8.401 -0.3083  0.3144  0.0175
  954MOL0     C25821   6.816   4.996   8.404  0.6131 -0.0395 -1.1465
  954MOL0     C25822   6.739   5.111   8.406 -0.0985  0.5492 -0.1831
  954MOL0     C25823   6.603   5.112   8.418 -0.4953 -0.1329 -0.3624
  954MOL0     C25824   6.538   4.985   8.422 -0.0397 -0.8241  0.3042
  954MOL0     C25825   6.390   4.986   8.430  1.0274  0.0674 -0.6946
  954MOL0     O25826   6.329   4.857   8.438  0.5758 -0.6562 -0.9281
  954MOL0     C25827   6.190   4.848   8.449  0.1644 -0.2752  0.2835
  954MOL0     C25828   6.102   4.925   8.364  0.0637  0.0445  0.1101
  954MOL0     C25829   5.963   4.916   8.384 -0.0763 -0.6659 -0.2099
  954MOL0     C25830   5.911   4.816   8.457 -0.4022  0.6817 -0.3479
  954MOL0     O25831   5.773   4.798   8.441  0.3415  0.1831 -0.1268
  954MOL0     C25832   5.724   4.672   8.489 -0.0767  0.0908 -0.7291
  954MOL0     C25833   5.581   4.654   8.441  0.2147 -0.3542  0.5679
  954MOL0     C25834   5.516   4.537   8.504  0.4410  0.1108 -0.0551
  954MOL0     C25835   5.489   4.541   8.653 -0.7572 -0.0439  0.1832
  954MOL0     C25836   5.385   4.436   8.682  1.2381 -0.2287 -0.5279
  954MOL0     C25837   5.327   4.442   8.830 -0.1368 -0.4998  0.3893
  954MOL0     C25838   5.270   4.307   8.885 -0.2291  0.8670 -0.3136
  954MOL0     C25839   5.270   4.303   9.039  0.4451  1.0189 -0.2436
  954MOL0    Cl25840   5.136   4.401   9.087 -0.4660 -0.1936 -0.1039
  954MOL0     C25841   5.999   4.723   8.528  0.1173 -0.3954  0.0426
  954MOL0     C25842   6.135   4.742   8.523  0.4125  0.0837  0.0801
  954MOL0     O25843   6.338   5.095   8.444 -0.5558  0.1304  0.2331
  954MOL0     C25844   6.613   4.862   8.423  0.2351  0.2758 -0.1568
  954MOL0     C25845   6.747   4.871   8.422 -0.0799  0.3507  0.9218
  954MOL0     N25846   7.470   4.571   8.529 -0.9680 -0.9245  0.1828
  954MOL0     N25847   7.567   4.537   8.612  0.5714 -0.3354 -0.2166
  954MOL0     C25848   8.463   4.869   9.151  0.7715 -0.1956 -0.9396
  954MOL0     C25849   8.584   4.937   9.127 -0.2272 -0.1336 -0.1204
  954MOL0     C25850   8.968   5.176   9.127  0.4269  0.8706  0.2792
  954MOL0     C25851   9.078   5.158   9.045 -0.4665 -0.4059  0.2366
  954MOL0     C25852   9.180   5.256   9.061 -0.1483 -0.5902 -0.8171
  954MOL0     C25853   9.188   5.349   9.167  0.3828 -0.3746 -0.2828
  954MOL0     O25854   9.287   5.440   9.198 -0.2628  0.4750  0.4928
  954MOL0     C25855   9.416   5.404   9.156  0.0313 -0.0804  0.5769
  954MOL0     C25856   9.469   5.473   9.024  0.6779  0.3781  0.0424
  954MOL0     C25857   9.454   5.624   9.043 -0.1462 -0.7491 -0.1438
  954MOL0     C25858   9.538   5.694   8.939 -0.1565  0.6340 -0.2535
  954MOL0     C25859   9.541   5.845   8.940  0.5036  0.4126 -0.7677
  954MOL0     C25860   9.539   5.967   8.914  0.5594 -0.9638 -0.3877
  954MOL0     C25861   9.081   5.350   9.256  0.1456 -1.2553  0.1525
  954MOL0     C25862   8.976   5.269   9.239  0.3172  1.0271 -0.7497
  954MOL0     H25863   8.535   5.188   9.341 -3.0142  1.7511 -0.5346
  954MOL0     H25864   8.336   5.069   9.383 -1.2326  0.3364 -0.2159
  954MOL0     H25865   8.103   4.990   9.208 -2.8102 -1.3570  0.8057
  954MOL0     H25866   8.145   4.988   9.378 -2.9088  3.4003 -1.3946
  954MOL0     H25867   7.935   4.895   9.365 -0.1480 -0.8794  0.6405
  954MOL0     H25868   8.036   4.766   9.402  3.9495  2.2213  0.8034
  954MOL0     H25869   8.020   4.709   9.139 -1.6679 -1.5942 -0.1598
  954MOL0     H25870   7.941   4.862   9.128  2.5261  0.0090  0.6176
  954MOL0     H25871   7.884   4.599   9.270 -0.6114  0.4687  0.9922
  954MOL0     H25872   7.757   4.723   9.285 -0.7920  1.2223 -0.2993
  954MOL0     H25873   7.721   4.518   9.119  2.6914 -1.9355  1.3218
  954MOL0     H25874   7.854   4.602   9.025 -0.3340  2.5631  0.0295
  954MOL0     H25875   7.725   4.811   9.007  0.0724  0.0402  1.1154
  954MOL0     H25876   7.594   4.746   9.116  0.4434 -0.6316  0.3696
  954MOL0     H25877   7.543   4.583   8.933  2.4994 -0.9281  1.9714
  954MOL0     H25878   7.523   4.759   8.884 -1.4942  0.2685  1.1630
  954MOL0     H25879   7.739   4.555   8.816  1.0263  0.4324 -0.9050
  954MOL0     H25880   7.766   4.726   8.792 -0.7862  0.2710 -2.5291
  954MOL0     H25881   7.599   4.852   8.630 -2.2336  0.4651  2.2277
  954MOL0     H25882   7.463   4.809   8.337  0.7257  3.1156  0.3675
  954MOL0     H25883   7.419   4.902   8.477  1.9677  0.7755 -1.4960
  954MOL0     H25884   7.222   4.707   8.468  1.9709 -1.3158 -1.0091
  954MOL0     H25885   7.242   4.734   8.299 -0.3750 -1.6048  0.0435
  954MOL0     H25886   7.228   4.982   8.467  1.1503 -0.7158 -1.1199
  954MOL0     H25887   7.206   4.949   8.289  0.3253 -1.2928 -0.8992
  954MOL0     H25888   7.031   4.882   8.535  1.8219  2.5679  0.4334
  954MOL0     H25889   7.000   4.808   8.369  0.2316  0.5333 -1.7756
  954MOL0     H25890   6.787   5.208   8.401 -0.5346  0.7464 -0.6908
  954MOL0     H25891   6.554   5.207   8.437  0.9659  0.6013 -0.1772
  954MOL0     H25892   6.143   5.003   8.300  1.4049  0.5576  1.5319
  954MOL0     H25893   5.895   4.978   8.326  1.7721  1.4184 -0.2896
  954MOL0     H25894   5.731   4.685   8.597  2.1461  2.0120 -1.0206
  954MOL0     H25895   5.785   4.586   8.462  1.1185  0.6962 -0.0375
  954MOL0     H25896   5.591   4.636   8.333  2.0554 -0.5061  0.7426
  954MOL0     H25897   5.523   4.743   8.466  0.5760  0.5500 -1.6197
  954MOL0     H25898   5.584   4.453   8.488 -0.4314 -1.0435  1.9861
  954MOL0     H25899   5.426   4.519   8.445  0.8937 -0.0129 -0.7204
  954MOL0     H25900   5.583   4.524   8.706  0.2206  0.4468 -1.3277
  954MOL0     H25901   5.461   4.642   8.685  0.3064  0.1778  0.4652
  954MOL0     H25902   5.426   4.337   8.666  1.5633 -0.1564 -0.1646
  954MOL0     H25903   5.303   4.456   8.612  0.7425 -1.0448 -0.1907
  954MOL0     H25904   5.256   4.524   8.839 -0.5608 -0.8948  0.6667
  954MOL0     H25905   5.406   4.464   8.902  0.7822  1.8169 -1.2187
  954MOL0     H25906   5.170   4.284   8.847 -0.3386 -1.3357  1.1242
  954MOL0     H25907   5.340   4.229   8.853  3.1452  2.6603  2.1098
  954MOL0     H25908   5.364   4.341   9.079 -0.4060  0.5086  2.4654
  954MOL0     H25909   5.252   4.203   9.081  0.3101  1.5928  1.1235
  954MOL0     H25910   5.960   4.640   8.586  0.8070  0.3895  1.7207
  954MOL0     H25911   6.208   4.674   8.565  2.4882  1.9362 -0.3481
  954MOL0     H25912   6.559   4.771   8.445 -0.8086  0.2353 -2.5137
  954MOL0     H25913   6.794   4.774   8.438 -2.5810 -1.2275 -0.6678
  954MOL0     H25914   8.456   4.772   9.103  0.5626  0.2380 -1.8093
  954MOL0     H25915   8.636   4.876   9.054  0.2647 -1.8901  1.5840
  954MOL0     H25916   9.083   5.095   8.956 -0.3200 -1.3649  0.9172
  954MOL0     H25917   9.266   5.268   8.997  0.8666  0.4729  0.6607
  954MOL0     H25918   9.439   5.297   9.146 -0.2138 -0.0169 -0.7823
  954MOL0     H25919   9.482   5.444   9.234  2.2563 -0.6550 -0.9013
  954MOL0     H25920   9.572   5.440   9.011  0.3938 -0.9668  0.9438
  954MOL0     H25921   9.406   5.437   8.942 -0.8938  0.9831  0.9263
  954MOL0     H25922   9.497   5.649   9.141 -0.6840  2.7572 -0.6840
  954MOL0     H25923   9.349   5.650   9.033  0.3969  1.3599 -0.7746
  954MOL0     H25924   9.641   5.661   8.953 -0.0197  1.2259  0.1878
  954MOL0     H25925   9.493   5.668   8.843 -0.3286 -3.0705  0.6992
  954MOL0     H25926   9.536   6.073   8.899  2.4243 -0.8031  0.1410
  954MOL0     H25927   9.078   5.425   9.334  1.2421 -0.2028 -0.7737
  954MOL0     H25928   8.897   5.271   9.314  0.9762  0.4294 -0.0263
  955MOL0     O25929   0.989   5.823   6.458  0.8201 -0.8185  1.2147
  955MOL0     C25930   1.009   5.912   6.378 -0.2655 -0.1544 -0.2601
  955MOL0     O25931   0.917   5.980   6.295  0.0438  0.4264 -0.1845
  955MOL0     C25932   0.791   5.930   6.309 -0.4975  1.0029 -0.1295
  955MOL0     C25933   0.735   5.839   6.218 -0.5082  0.4518 -0.4386
  955MOL0     C25934   0.606   5.795   6.239  1.3817  0.3186 -0.0955
  955MOL0     C25935   0.513   5.854   6.324  0.4670  0.0523 -0.3900
  955MOL0     O25936   0.378   5.830   6.338  0.7400  0.5996  0.4013
  955MOL0     C25937   0.328   5.705   6.280 -0.7220  0.2651  0.0509
  955MOL0     C25938   0.188   5.685   6.319  0.1724  0.6347  0.2250
  955MOL0     C25939   0.130   5.563   6.254 -0.1229 -0.7174  0.3372
  955MOL0     C25940   0.198   5.435   6.306 -0.1351  0.3209  0.0237
  955MOL0     C25941   0.117   5.308   6.275 -0.5929 -0.2872 -0.0746
  955MOL0     C25942   0.187   5.178   6.323  0.5981  0.8702  0.5441
  955MOL0     C25943   0.085   5.059   6.336  0.4972  0.0555 -0.0880
  955MOL0     C25944  -0.018   5.077   6.451 -0.0235  0.1432  0.0813
  955MOL0     N25945  -0.102   4.961   6.453  0.0107 -1.0743 -0.7495
  955MOL0     C25946  -0.175   4.917   6.563  0.2699  0.5115 -0.3828
  955MOL0     C25947  -0.257   4.834   6.504  1.2303 -0.1285  0.1527
  955MOL0     C25948  -0.373   4.768   6.573  0.3474 -1.1611  0.6389
  955MOL0     C25949  -0.496   4.866   6.574  0.6802  0.6511  0.8993
  955MOL0     C25950  -0.572   4.853   6.444  0.3201 -0.7759  0.7606
  955MOL0     C25951  -0.633   4.713   6.433  1.2274 -0.6746 -0.2943
  955MOL0     O25952  -0.731   4.682   6.531 -0.0659 -1.2079 -0.2094
  955MOL0     C25953  -0.810   4.576   6.517  0.6379 -0.1908  0.2661
  955MOL0     C25954  -0.793   4.461   6.438  0.4715 -0.9415 -0.5356
  955MOL0     C25955  -0.876   4.354   6.435  0.1470 -0.2008  0.1198
  955MOL0     C25956  -0.996   4.358   6.515  0.0798 -0.5771  0.2435
  955MOL0     C25957  -1.091   4.245   6.514  1.3567 -0.4568  0.2637
  955MOL0     O25958  -1.186   4.238   6.622  0.0105 -0.1583  0.0554
  955MOL0     C25959  -1.285   4.144   6.609  0.2620 -0.7126  0.8160
  955MOL0     C25960  -1.261   4.008   6.599 -0.8273  0.2693 -0.6298
  955MOL0     C25961  -1.364   3.914   6.582 -0.5748 -0.2549 -0.2476
  955MOL0     C25962  -1.496   3.956   6.584  0.2798 -0.3464  0.6272
  955MOL0     O25963  -1.598   3.855   6.576 -0.1255 -0.9981 -0.1377
  955MOL0     C25964  -1.705   3.862   6.666 -0.1840 -0.1553 -0.9693
  955MOL0     C25965  -1.834   3.823   6.598  0.0437 -0.1432 -0.7326
  955MOL0     C25966  -1.956   3.849   6.683  0.7628  0.5914 -0.5292
  955MOL0     C25967  -2.090   3.820   6.625  0.3381 -0.4039  0.0297
  955MOL0     C25968  -2.194   3.846   6.735 -0.4901 -0.7713  0.3142
  955MOL0     C25969  -2.322   3.760   6.721 -0.2213  0.0435  0.3843
  955MOL0     C25970  -2.382   3.758   6.580 -0.2557 -0.3154  0.5734
  955MOL0     C25971  -2.529   3.739   6.586 -0.8126 -0.2057  0.5244
  955MOL0    Cl25972  -2.607   3.891   6.629  0.0233 -0.0941 -0.1061
  955MOL0     C25973  -1.526   4.094   6.597 -0.2592 -0.1252 -0.6685
  955MOL0     C25974  -1.418   4.187   6.618 -0.0254  0.1839  0.6778
  955MOL0     O25975  -1.084   4.162   6.420 -0.0353  0.1968 -0.4818
  955MOL0     C25976  -1.006   4.459   6.610 -0.5261  0.2445  0.2358
  955MOL0     C25977  -0.911   4.562   6.609 -1.2710 -0.3639 -0.7377
  955MOL0     N25978  -0.227   4.821   6.373  0.0790  0.0330  0.1748
  955MOL0     N25979  -0.143   4.907   6.341 -0.5310  0.4274  0.0082
  955MOL0     C25980   0.578   5.942   6.421 -0.1654 -0.7332  0.4966
  955MOL0     C25981   0.716   5.971   6.413  1.2600  0.6510 -0.9216
  955MOL0     C25982   1.160   5.939   6.377  0.1532  0.1830 -0.4339
  955MOL0     C25983   1.201   6.022   6.268  1.0147  0.1585  0.8146
  955MOL0     C25984   1.329   6.060   6.248 -0.2683  0.2155 -0.2235
  955MOL0     C25985   1.427   6.020   6.335 -0.2173 -0.5545 -0.2813
  955MOL0     O25986   1.546   6.083   6.321  0.3860  0.2389  0.3912
  955MOL0     C25987   1.663   6.049   6.400  0.7422 -0.4185 -0.2376
  955MOL0     C25988   1.791   6.113   6.357  0.3924 -0.1749  0.1039
  955MOL0     C25989   1.914   6.096   6.452 -0.4248  0.4709  0.5635
  955MOL0     C25990   1.913   6.170   6.581 -0.0538  0.4805  0.5545
  955MOL0     C25991   2.035   6.143   6.655  0.2019 -0.3165 -0.5734
  955MOL0     C25992   2.134   6.113   6.723  0.6494 -0.0149 -0.6115
  955MOL0     C25993   1.389   5.936   6.446  1.0825  0.6453 -0.0004
  955MOL0     C25994   1.253   5.899   6.472 -1.2037  0.3523 -0.1239
  955MOL0     H25995   0.796   5.793   6.142  3.0864 -0.9588  2.9545
  955MOL0     H25996   0.563   5.721   6.173 -0.5182  2.6262 -1.6449
  955MOL0     H25997   0.388   5.618   6.311 -1.7655 -1.3418 -2.1012
  955MOL0     H25998   0.328   5.707   6.171  0.2596 -2.9346 -0.1223
  955MOL0     H25999   0.140   5.772   6.273  0.0848 -0.4283 -1.8135
  955MOL0     H26000   0.175   5.701   6.426  1.1979  1.0603  0.2928
  955MOL0     H26001   0.143   5.575   6.146 -2.2432  2.1782  0.2773
  955MOL0     H26002   0.022   5.565   6.274 -0.4741  2.5562 -1.1125
  955MOL0     H26003   0.294   5.429   6.254 -0.6162 -0.0237 -0.8374
  955MOL0     H26004   0.219   5.430   6.414  4.5147 -2.0842 -0.7342
  955MOL0     H26005   0.110   5.303   6.166  3.4236  3.1268 -0.7395
  955MOL0     H26006   0.016   5.315   6.316 -0.7439  1.0555 -0.6086
  955MOL0     H26007   0.230   5.193   6.423  2.9182  1.5553 -0.4864
  955MOL0     H26008   0.268   5.152   6.254 -0.2962 -2.4226  0.5660
  955MOL0     H26009   0.033   5.044   6.241  1.2064 -1.2589 -0.2792
  955MOL0     H26010   0.134   4.969   6.373 -0.6066 -0.0253  1.2826
  955MOL0     H26011  -0.070   5.167   6.417 -0.2296 -0.5028 -1.3741
  955MOL0     H26012   0.023   5.089   6.552 -2.1682  2.2593  0.8212
  955MOL0     H26013  -0.174   4.952   6.665  1.3238 -0.0196 -0.2013
  955MOL0     H26014  -0.340   4.758   6.677  2.9437 -2.6518 -0.2560
  955MOL0     H26015  -0.380   4.663   6.544 -0.7012 -1.5388  2.1358
  955MOL0     H26016  -0.463   4.970   6.575  0.0361  0.8722  0.0179
  955MOL0     H26017  -0.554   4.839   6.663  0.7856  0.9517  1.0607
  955MOL0     H26018  -0.656   4.923   6.451 -0.5386 -0.5778 -5.7812
  955MOL0     H26019  -0.514   4.884   6.356 -0.8264  0.5146  0.4238
  955MOL0     H26020  -0.557   4.635   6.429 -1.5867 -3.7623  1.5121
  955MOL0     H26021  -0.690   4.711   6.340 -0.9787 -0.9197  0.9827
  955MOL0     H26022  -0.698   4.467   6.385  2.2285  1.5601  2.5051
  955MOL0     H26023  -0.856   4.267   6.374  0.7803  2.0465 -3.1217
  955MOL0     H26024  -1.157   3.977   6.606 -0.8557  0.5094  1.5012
  955MOL0     H26025  -1.343   3.808   6.579  2.1091  0.1625  0.7027
  955MOL0     H26026  -1.724   3.966   6.695 -1.3161 -0.2207 -1.4405
  955MOL0     H26027  -1.690   3.809   6.761 -3.0439 -0.8537 -0.8099
  955MOL0     H26028  -1.820   3.722   6.558  0.6936 -0.9464  1.3692
  955MOL0     H26029  -1.856   3.880   6.507  0.3842  1.5041  0.1868
  955MOL0     H26030  -1.962   3.955   6.708 -1.3242  1.1702 -3.1050
  955MOL0     H26031  -1.951   3.795   6.779 -1.8963 -1.0981 -1.2411
  955MOL0     H26032  -2.101   3.873   6.530  0.3360 -0.3025  0.0860
  955MOL0     H26033  -2.084   3.712   6.611  0.3437 -0.5553  1.1083
  955MOL0     H26034  -2.217   3.952   6.750  0.1047 -0.9447  2.8532
  955MOL0     H26035  -2.158   3.818   6.834  0.6632  2.3417  0.8846
  955MOL0     H26036  -2.389   3.778   6.806  1.3832 -1.4833  2.0380
  955MOL0     H26037  -2.282   3.660   6.733  0.5867  0.2725 -0.3296
  955MOL0     H26038  -2.357   3.854   6.533  3.6100 -0.9488  1.0716
  955MOL0     H26039  -2.336   3.680   6.519 -1.2192 -0.4054 -0.0526
  955MOL0     H26040  -2.544   3.659   6.659  0.0982 -0.4223  0.4901
  955MOL0     H26041  -2.574   3.711   6.490 -0.0061  2.6585 -0.8051
  955MOL0     H26042  -1.627   4.131   6.592 -0.6952 -1.3399 -1.1991
  955MOL0     H26043  -1.434   4.294   6.622  1.4798  0.4046  1.5322
  955MOL0     H26044  -1.085   4.463   6.684 -0.6315  1.1507  0.0775
  955MOL0     H26045  -0.924   4.640   6.684 -0.3073 -1.5523  0.7280
  955MOL0     H26046   0.517   5.975   6.504 -0.8601  4.1171 -1.5984
  955MOL0     H26047   0.742   6.041   6.492  1.4857 -0.4993  0.0586
  955MOL0     H26048   1.128   6.060   6.198  1.6328  1.4697  0.8501
  955MOL0     H26049   1.360   6.124   6.166  0.6542 -0.8754 -0.7540
  955MOL0     H26050   1.689   5.943   6.394  1.2731 -0.3189  0.2773
  955MOL0     H26051   1.630   6.067   6.503 -2.0591  0.4252 -1.1741
  955MOL0     H26052   1.829   6.074   6.262  1.9074  2.8265 -0.6318
  955MOL0     H26053   1.779   6.221   6.349 -0.6385 -0.3871 -1.6194
  955MOL0     H26054   1.999   6.137   6.395  1.0481 -2.2110  0.6983
  955MOL0     H26055   1.931   5.990   6.472 -0.0864  0.1927 -1.0213
  955MOL0     H26056   1.898   6.276   6.557 -3.3918  0.0007 -0.0231
  955MOL0     H26057   1.826   6.140   6.640 -0.3731 -2.5858 -1.2773
  955MOL0     H26058   2.218   6.088   6.785 -0.5108  1.8301  1.9043
  955MOL0     H26059   1.458   5.905   6.524 -0.7526 -0.8836  1.1078
  955MOL0     H26060   1.238   5.825   6.549  0.3376 -0.4344 -0.5456
  956MOL0     O26061   1.490   6.069   4.832  0.0695  0.4720 -0.5619
  956MOL0     C26062   1.589   6.127   4.871  0.2610  0.5029  0.2584
  956MOL0     O26063   1.589   6.251   4.920 -0.0035 -0.0591  0.1553
  956MOL0     C26064   1.465   6.315   4.906  0.4444 -0.1973  0.0557
  956MOL0     C26065   1.363   6.313   5.007 -1.0021  0.5400  0.6885
  956MOL0     C26066   1.244   6.383   4.987 -0.5087 -0.2115 -0.0046
  956MOL0     C26067   1.220   6.438   4.852  0.0573  0.4859 -0.8870
  956MOL0     O26068   1.109   6.501   4.806  0.0017 -0.2293  0.7746
  956MOL0     C26069   1.021   6.568   4.893  0.3564 -0.1409  0.5418
  956MOL0     C26070   0.889   6.589   4.814  0.2961  0.5436  0.0541
  956MOL0     C26071   0.780   6.658   4.892  0.7544 -0.3848 -0.2015
  956MOL0     C26072   0.687   6.568   4.968 -0.4882 -0.2941  0.3666
  956MOL0     C26073   0.553   6.633   5.002  0.0974 -0.0231  0.2697
  956MOL0     C26074   0.528   6.647   5.147  0.4695  0.2200 -0.3658
  956MOL0     C26075   0.398   6.727   5.186  0.0206  0.1738 -0.5375
  956MOL0     C26076   0.269   6.658   5.135 -0.3343  0.0688  1.2054
  956MOL0     N26077   0.149   6.717   5.177 -0.0402 -0.5247  0.7818
  956MOL0     C26078   0.080   6.687   5.288  0.0715  1.3583  0.6097
  956MOL0     C26079  -0.036   6.758   5.277 -0.1889 -0.3584  0.0726
  956MOL0     C26080  -0.149   6.764   5.373 -0.0645 -0.1817 -0.5185
  956MOL0     C26081  -0.128   6.656   5.483 -0.7548  0.6066 -0.0444
  956MOL0     C26082  -0.231   6.665   5.596 -0.6299  0.8632 -0.3265
  956MOL0     C26083  -0.224   6.545   5.695 -0.0098  0.5235 -0.1522
  956MOL0     O26084  -0.294   6.579   5.815  0.2587 -0.6336  0.5476
  956MOL0     C26085  -0.433   6.574   5.819  0.2974  0.1062 -0.0453
  956MOL0     C26086  -0.491   6.632   5.932  0.5336 -0.1416 -0.3181
  956MOL0     C26087  -0.627   6.632   5.958 -0.0476  0.3059 -0.9379
  956MOL0     C26088  -0.704   6.567   5.863 -0.2600 -0.4205 -0.9380
  956MOL0     C26089  -0.836   6.545   5.896  0.8584 -0.8517 -0.1460
  956MOL0     O26090  -0.859   6.523   6.032 -0.2254  0.2826  0.6954
  956MOL0     C26091  -0.989   6.537   6.078  0.0786  0.3545 -1.3452
  956MOL0     C26092  -1.010   6.463   6.196  0.2085 -0.4879 -0.3850
  956MOL0     C26093  -1.136   6.463   6.256 -0.6154 -0.0440  0.1394
  956MOL0     C26094  -1.241   6.535   6.208 -0.2404 -0.4573  1.1727
  956MOL0     O26095  -1.356   6.542   6.286 -0.0426  0.6812  0.4840
  956MOL0     C26096  -1.433   6.438   6.239 -0.1977 -1.0313  0.3901
  956MOL0     C26097  -1.564   6.460   6.312  0.6073 -0.5806 -0.0453
  956MOL0     C26098  -1.672   6.351   6.282  0.7181 -0.4586  0.0495
  956MOL0     C26099  -1.797   6.396   6.353 -0.1244 -0.1376  0.3683
  956MOL0     C26100  -1.906   6.291   6.319  0.2372  0.7916  0.0934
  956MOL0     C26101  -2.027   6.319   6.417  0.0206  0.3480  0.3092
  956MOL0     C26102  -2.154   6.244   6.374 -0.2529  0.0582  0.3902
  956MOL0     C26103  -2.233   6.218   6.503  0.7951  0.3618  0.6341
  956MOL0    Cl26104  -2.381   6.120   6.473 -0.2843  0.6826  0.0137
  956MOL0     C26105  -1.227   6.596   6.085  0.2625  0.3651  0.1614
  956MOL0     C26106  -1.097   6.604   6.027 -0.4455 -0.3221 -1.0969
  956MOL0     O26107  -0.921   6.546   5.804 -0.3796 -0.6939 -0.2778
  956MOL0     C26108  -0.648   6.506   5.755  0.8756  0.0557  0.8413
  956MOL0     C26109  -0.512   6.511   5.727  0.3029  0.0126 -0.4045
  956MOL0     N26110  -0.039   6.832   5.161 -0.2897 -0.3782  0.0444
  956MOL0     N26111   0.067   6.806   5.102 -0.2815 -0.7024  0.1717
  956MOL0     C26112   1.322   6.439   4.763 -0.3559  1.5207  0.6920
  956MOL0     C26113   1.445   6.391   4.790  0.3564  0.2966  0.0414
  956MOL0     C26114   1.715   6.045   4.892  0.1569  0.1658  0.7452
  956MOL0     C26115   1.824   6.097   4.963 -0.3387  1.0306  0.1538
  956MOL0     C26116   1.938   6.019   4.999 -0.7714  0.9092 -0.0802
  956MOL0     C26117   1.936   5.887   4.956  0.1282  0.3070 -0.0688
  956MOL0     O26118   2.046   5.822   5.003  0.3370  0.3726  0.2926
  956MOL0     C26119   2.173   5.870   4.959 -1.2613  0.0717 -0.0753
  956MOL0     C26120   2.198   5.824   4.818  0.5154 -0.0769 -0.3007
  956MOL0     C26121   2.345   5.861   4.762 -0.5100  0.1758 -0.2417
  956MOL0     C26122   2.374   5.775   4.642 -0.1455 -0.5656 -0.4459
  956MOL0     C26123   2.504   5.795   4.575 -0.2301 -0.0968 -0.0192
  956MOL0     C26124   2.609   5.810   4.503  0.3274 -0.3319  0.7103
  956MOL0     C26125   1.832   5.838   4.871 -1.1794 -0.3972 -0.7200
  956MOL0     C26126   1.716   5.909   4.850 -0.1049 -0.1235  0.0197
  956MOL0     H26127   1.383   6.263   5.102 -1.7767 -3.4895 -1.0467
  956MOL0     H26128   1.165   6.397   5.059  1.0278  1.8549  1.3833
  956MOL0     H26129   1.064   6.664   4.923 -2.1321  1.2933 -0.1783
  956MOL0     H26130   0.987   6.506   4.977  0.2411  0.1417  0.7019
  956MOL0     H26131   0.853   6.496   4.769 -0.9499  1.8659 -1.8105
  956MOL0     H26132   0.917   6.647   4.726 -2.2960 -1.1245 -2.0151
  956MOL0     H26133   0.718   6.720   4.827  0.2208 -1.2635 -0.5596
  956MOL0     H26134   0.823   6.725   4.967 -2.2746  3.6627 -1.6937
  956MOL0     H26135   0.684   6.469   4.922 -1.4785 -0.4500  0.7388
  956MOL0     H26136   0.736   6.565   5.066  0.9814 -1.0584 -0.3511
  956MOL0     H26137   0.473   6.580   4.949  1.1842 -1.6562  0.1998
  956MOL0     H26138   0.548   6.731   4.953  0.0838 -0.5249 -0.7654
  956MOL0     H26139   0.611   6.705   5.189 -0.1966 -0.0090  1.3292
  956MOL0     H26140   0.525   6.551   5.199  1.6071  0.4823  0.2159
  956MOL0     H26141   0.396   6.731   5.295 -1.2106  0.0730 -0.5428
  956MOL0     H26142   0.405   6.827   5.142 -1.9514  2.3825  3.6063
  956MOL0     H26143   0.277   6.558   5.179  2.3059  1.1160  3.3643
  956MOL0     H26144   0.268   6.664   5.026  1.7110 -2.0063  0.9968
  956MOL0     H26145   0.109   6.618   5.367  1.0505 -1.1156 -1.7854
  956MOL0     H26146  -0.247   6.761   5.325 -0.7578  1.9796  0.6180
  956MOL0     H26147  -0.150   6.862   5.422  0.5947  0.0017 -0.8567
  956MOL0     H26148  -0.030   6.656   5.530 -0.6809 -3.6568  0.2319
  956MOL0     H26149  -0.145   6.556   5.442 -0.4772 -0.3617  2.0576
  956MOL0     H26150  -0.201   6.747   5.661 -0.7230 -1.9475  3.6369
  956MOL0     H26151  -0.333   6.685   5.562 -0.7815 -0.6354 -0.8593
  956MOL0     H26152  -0.118   6.532   5.714 -0.2315 -0.0599  0.7559
  956MOL0     H26153  -0.264   6.453   5.650  2.8860 -0.4611 -0.9193
  956MOL0     H26154  -0.436   6.679   6.013 -0.6791 -0.8276  0.9343
  956MOL0     H26155  -0.674   6.676   6.045 -0.1691 -1.9368  0.1877
  956MOL0     H26156  -0.934   6.396   6.236 -0.3031 -1.9513 -1.7530
  956MOL0     H26157  -1.137   6.428   6.358 -0.8509  1.0932  0.5497
  956MOL0     H26158  -1.394   6.339   6.263  0.7492 -0.8886 -0.4625
  956MOL0     H26159  -1.449   6.444   6.131  3.1068  1.6138 -0.1188
  956MOL0     H26160  -1.607   6.555   6.279  1.1145  0.1934  1.4199
  956MOL0     H26161  -1.542   6.455   6.420 -1.3486 -3.0462  0.3401
  956MOL0     H26162  -1.645   6.254   6.323  1.1828 -0.8643 -1.1967
  956MOL0     H26163  -1.688   6.334   6.175 -0.2197  3.6062 -0.6488
  956MOL0     H26164  -1.788   6.415   6.461 -0.7939  0.3090  0.3515
  956MOL0     H26165  -1.834   6.489   6.309 -2.4278 -0.1931  1.9990
  956MOL0     H26166  -1.871   6.189   6.337 -0.2208  0.6210  0.0334
  956MOL0     H26167  -1.939   6.301   6.215 -0.6833 -0.3675  0.2630
  956MOL0     H26168  -2.043   6.427   6.411  0.5863  0.4148 -0.0501
  956MOL0     H26169  -2.002   6.299   6.522 -0.6841  1.4900  0.7185
  956MOL0     H26170  -2.207   6.308   6.303  0.5081 -1.5465 -1.7556
  956MOL0     H26171  -2.137   6.146   6.329 -0.3094  0.7925 -1.3305
  956MOL0     H26172  -2.280   6.304   6.552 -0.6244  0.2806 -0.5305
  956MOL0     H26173  -2.174   6.157   6.572  2.9095 -0.6251 -1.9085
  956MOL0     H26174  -1.309   6.654   6.043  1.1897  2.0057  0.5326
  956MOL0     H26175  -1.085   6.674   5.945 -1.8818  2.5513  0.9328
  956MOL0     H26176  -0.720   6.468   5.683 -0.4262  3.3887  0.2146
  956MOL0     H26177  -0.468   6.474   5.635 -1.6649 -0.8958 -1.0365
  956MOL0     H26178   1.299   6.479   4.665 -1.6205 -1.1093 -0.1906
  956MOL0     H26179   1.533   6.413   4.731  1.7274 -0.0361  1.8686
  956MOL0     H26180   1.833   6.204   4.980 -0.9132  0.8068  2.0530
  956MOL0     H26181   2.025   6.056   5.052  0.6696 -0.9055 -1.0520
  956MOL0     H26182   2.251   5.820   5.018 -1.5312 -1.0251 -0.6081
  956MOL0     H26183   2.181   5.979   4.959 -3.8797  0.3497  0.6489
  956MOL0     H26184   2.176   5.717   4.824  0.2801  0.0299  1.0991
  956MOL0     H26185   2.120   5.864   4.753 -0.3478 -0.8424  0.2449
  956MOL0     H26186   2.418   5.835   4.839 -0.2505  2.8733  0.5279
  956MOL0     H26187   2.362   5.968   4.745  0.6246 -0.0708 -0.7763
  956MOL0     H26188   2.369   5.674   4.684 -2.9120  0.1649  1.3004
  956MOL0     H26189   2.297   5.777   4.564  1.1716  0.4624 -1.7469
  956MOL0     H26190   2.699   5.824   4.446 -0.4342 -0.3414 -0.5359
  956MOL0     H26191   1.842   5.733   4.847  1.5134 -0.2299 -0.6547
  956MOL0     H26192   1.636   5.863   4.793 -2.0343  1.8730  0.9537
  957MOL0     O26193   5.311   4.002   4.325 -1.1028 -0.0685  0.1861
  957MOL0     C26194   5.312   3.926   4.230  0.1138 -0.0113 -0.1616
  957MOL0     O26195   5.213   3.910   4.127 -0.0771  0.4587  0.2913
  957MOL0     C26196   5.080   3.936   4.155  0.0280 -0.1388  0.0106
  957MOL0     C26197   5.002   3.979   4.045  0.7957  0.2427 -0.5469
  957MOL0     C26198   4.858   3.989   4.054 -0.8387 -0.4709 -0.1216
  957MOL0     C26199   4.804   3.969   4.185 -0.1129  0.1567 -0.6633
  957MOL0     O26200   4.678   4.022   4.205 -0.0282 -0.0060 -1.1841
  957MOL0     C26201   4.570   3.937   4.247 -0.8999  0.5152 -0.0832
  957MOL0     C26202   4.443   3.973   4.166 -0.2544  0.1702  0.0081
  957MOL0     C26203   4.318   3.889   4.212  0.2988 -0.3886  1.1511
  957MOL0     C26204   4.193   3.944   4.134  0.2454  0.3336  0.8313
  957MOL0     C26205   4.064   3.851   4.148 -0.0368  1.1462 -0.1555
  957MOL0     C26206   4.015   3.804   4.289 -0.0998 -0.3989 -0.2083
  957MOL0     C26207   3.880   3.732   4.289  0.0414  0.5108 -0.4660
  957MOL0     C26208   3.758   3.809   4.237 -1.3948 -1.3239  0.2768
  957MOL0     N26209   3.645   3.722   4.254 -0.2994  0.3295  0.5410
  957MOL0     C26210   3.615   3.611   4.177 -0.5408  0.0059  0.1102
  957MOL0     C26211   3.487   3.589   4.205  0.3608  1.1510 -1.4292
  957MOL0     C26212   3.406   3.471   4.144  0.2197 -0.1309  0.9563
  957MOL0     C26213   3.327   3.376   4.235  0.5011 -0.8104 -0.5299
  957MOL0     C26214   3.401   3.301   4.338 -0.5591 -0.1746 -0.4088
  957MOL0     C26215   3.509   3.213   4.271  0.1726  0.4261 -0.1234
  957MOL0     O26216   3.573   3.149   4.380  0.2108  0.0716  0.1604
  957MOL0     C26217   3.695   3.200   4.411 -0.5798 -0.8285  0.5797
  957MOL0     C26218   3.795   3.109   4.449  0.4185  1.0945 -0.2288
  957MOL0     C26219   3.925   3.138   4.489  0.3811 -0.0952  0.0425
  957MOL0     C26220   3.967   3.268   4.494  1.2245  0.2179  0.4735
  957MOL0     C26221   4.109   3.306   4.528  0.0299  0.2154 -0.2009
  957MOL0     O26222   4.198   3.206   4.512  0.4019 -0.2312 -0.3946
  957MOL0     C26223   4.329   3.205   4.540  0.0239  0.1724  0.3001
  957MOL0     C26224   4.388   3.092   4.590 -0.6477  0.5907  0.1621
  957MOL0     C26225   4.529   3.090   4.610  0.9036  0.0350  0.3470
  957MOL0     C26226   4.611   3.198   4.583  0.1155 -0.1628  0.0979
  957MOL0     O26227   4.745   3.205   4.612  0.0463  0.3579  0.0869
  957MOL0     C26228   4.792   3.120   4.722 -0.0518 -0.0787 -0.0237
  957MOL0     C26229   4.937   3.146   4.728 -0.3165 -0.5261  0.6066
  957MOL0     C26230   5.013   3.095   4.603  0.3374  0.4442  0.9207
  957MOL0     C26231   5.146   3.159   4.584 -0.6311  0.6303  0.3372
  957MOL0     C26232   5.252   3.076   4.502  0.2742 -0.1115 -0.4810
  957MOL0     C26233   5.382   3.158   4.483 -0.3295 -0.0717  0.4509
  957MOL0     C26234   5.475   3.090   4.391 -0.4150 -0.1512  1.0371
  957MOL0     C26235   5.597   3.176   4.354 -0.7213 -0.5349 -0.0382
  957MOL0    Cl26236   5.538   3.320   4.272  0.6697 -0.1663 -0.1485
  957MOL0     C26237   4.547   3.305   4.523 -1.4893 -1.0641  0.6563
  957MOL0     C26238   4.407   3.312   4.504  0.9276  0.0065 -0.1372
  957MOL0     O26239   4.135   3.417   4.568  0.2699  0.2264  0.3043
  957MOL0     C26240   3.868   3.364   4.452  0.0542 -0.0724  0.0396
  957MOL0     C26241   3.737   3.329   4.416  0.2921 -1.0436 -0.9548
  957MOL0     N26242   3.436   3.681   4.296 -0.0772  0.4988 -0.3493
  957MOL0     N26243   3.529   3.759   4.325 -0.3280 -0.1718  0.2006
  957MOL0     C26244   4.877   3.931   4.297  0.1838  0.0206  0.0078
  957MOL0     C26245   5.017   3.915   4.275 -0.2871  0.3882  0.1448
  957MOL0     C26246   5.446   3.859   4.207 -0.1118 -0.0437 -0.6228
  957MOL0     C26247   5.451   3.749   4.126 -0.2997  0.7328 -1.1085
  957MOL0     C26248   5.574   3.683   4.113 -0.5431 -0.2041 -0.0478
  957MOL0     C26249   5.687   3.722   4.182 -0.0460  0.1411 -0.6297
  957MOL0     O26250   5.799   3.651   4.155  0.0322  0.3871  0.6302
  957MOL0     C26251   5.922   3.711   4.168  0.2810  0.4637 -0.2610
  957MOL0     C26252   6.040   3.617   4.127 -1.1047 -0.4072  0.4091
  957MOL0     C26253   6.161   3.708   4.112 -0.1355  0.1193 -0.1970
  957MOL0     C26254   6.216   3.759   4.254 -0.4506  0.3135  0.4416
  957MOL0     C26255   6.361   3.770   4.241  0.1951 -0.2729  0.4313
  957MOL0     C26256   6.471   3.803   4.207 -0.0276 -0.6801 -0.4721
  957MOL0     C26257   5.681   3.841   4.261  0.2112 -0.0083 -0.3606
  957MOL0     C26258   5.559   3.905   4.273 -0.0900 -0.3886 -0.2858
  957MOL0     H26259   5.037   4.000   3.944 -1.6737 -3.1198 -2.3079
  957MOL0     H26260   4.801   4.028   3.970  0.4284 -1.1808 -1.3404
  957MOL0     H26261   4.549   3.952   4.354 -1.5966 -0.5028 -0.0662
  957MOL0     H26262   4.589   3.831   4.233 -2.0451  0.3650 -0.5311
  957MOL0     H26263   4.467   3.960   4.060 -0.7144  1.0424 -0.2073
  957MOL0     H26264   4.424   4.079   4.186  1.2704  0.9848 -2.4323
  957MOL0     H26265   4.306   3.908   4.319 -0.9444  3.3001  0.4799
  957MOL0     H26266   4.326   3.781   4.196 -0.1586 -0.1315 -1.0403
  957MOL0     H26267   4.173   4.043   4.176 -0.7214 -0.8584  3.3969
  957MOL0     H26268   4.220   3.951   4.028  3.6377  0.1451  1.5518
  957MOL0     H26269   4.090   3.769   4.080  2.1107  1.2914  0.4205
  957MOL0     H26270   3.981   3.907   4.103 -0.8951 -1.7852 -2.5424
  957MOL0     H26271   3.999   3.886   4.360 -3.3444 -1.5372  0.5281
  957MOL0     H26272   4.088   3.735   4.334 -0.3370  0.3431  1.3904
  957MOL0     H26273   3.893   3.649   4.220  0.5395  1.0070 -0.9784
  957MOL0     H26274   3.855   3.697   4.390 -0.2200  1.0785 -0.3238
  957MOL0     H26275   3.781   3.835   4.133  0.2415 -3.6922 -0.0377
  957MOL0     H26276   3.741   3.898   4.298  0.0984 -0.8182  0.0110
  957MOL0     H26277   3.674   3.552   4.108 -0.7896  0.8837 -0.8746
  957MOL0     H26278   3.468   3.413   4.075  1.3954 -0.4093  2.1899
  957MOL0     H26279   3.343   3.524   4.073  0.9995 -1.1455 -0.5540
  957MOL0     H26280   3.280   3.309   4.163  3.6874  0.6078 -4.2600
  957MOL0     H26281   3.240   3.422   4.281 -0.2212 -5.4374  3.6277
  957MOL0     H26282   3.450   3.371   4.406 -0.5010 -1.3098  0.7594
  957MOL0     H26283   3.334   3.231   4.389 -0.4908  0.4103  0.4955
  957MOL0     H26284   3.568   3.264   4.194  0.0831 -0.9505 -1.1400
  957MOL0     H26285   3.470   3.130   4.211  3.9704 -0.4258 -1.7210
  957MOL0     H26286   3.774   3.005   4.429 -1.1107  1.0431  1.3302
  957MOL0     H26287   3.997   3.062   4.516  1.8045  0.4580 -1.9069
  957MOL0     H26288   4.331   3.009   4.631  1.2544 -2.4794 -2.9396
  957MOL0     H26289   4.575   2.997   4.643 -1.0693 -0.4837  1.8281
  957MOL0     H26290   4.768   3.020   4.685 -0.3300 -0.5508  1.3979
  957MOL0     H26291   4.739   3.134   4.816 -1.3632  0.5417 -0.8294
  957MOL0     H26292   4.994   3.101   4.809  1.7714  0.8397 -0.0193
  957MOL0     H26293   4.950   3.253   4.746 -1.9085 -0.4945  1.8331
  957MOL0     H26294   4.960   3.126   4.512 -0.2544 -0.5352  0.9079
  957MOL0     H26295   5.018   2.986   4.615  2.2039  0.5044  0.8916
  957MOL0     H26296   5.123   3.254   4.537 -1.1176  1.4481  2.1352
  957MOL0     H26297   5.194   3.185   4.679  0.1104 -2.1010  0.8185
  957MOL0     H26298   5.207   3.059   4.404  1.1169 -0.1080 -0.8759
  957MOL0     H26299   5.275   2.981   4.550  2.2794  0.4837 -0.1756
  957MOL0     H26300   5.428   3.176   4.581  1.4931 -0.6113 -0.2539
  957MOL0     H26301   5.361   3.253   4.434  0.0165 -1.6859 -3.1814
  957MOL0     H26302   5.511   2.995   4.431 -1.3421 -1.8294 -1.7854
  957MOL0     H26303   5.420   3.064   4.300 -0.4528  0.5555  0.8524
  957MOL0     H26304   5.661   3.116   4.288  0.1265  2.1384 -1.8108
  957MOL0     H26305   5.657   3.192   4.443 -0.7909 -1.5821  0.2167
  957MOL0     H26306   4.608   3.389   4.491  0.6806 -2.5024  0.8289
  957MOL0     H26307   4.362   3.405   4.469 -0.2539  0.2852  1.9562
  957MOL0     H26308   3.906   3.466   4.451 -0.2537  0.1172  2.1465
  957MOL0     H26309   3.663   3.408   4.401  0.8777 -0.0647  0.9687
  957MOL0     H26310   4.821   3.926   4.390 -2.7776 -1.4175 -1.7046
  957MOL0     H26311   5.079   3.883   4.357 -0.0078  1.2136  0.2653
  957MOL0     H26312   5.362   3.712   4.075  0.2457 -1.9852 -0.2522
  957MOL0     H26313   5.576   3.593   4.052  0.0565  0.3397 -0.8679
  957MOL0     H26314   5.934   3.744   4.272 -0.7738 -1.6866  0.5881
  957MOL0     H26315   5.922   3.801   4.105  0.1579 -0.1608 -1.1660
  957MOL0     H26316   6.047   3.540   4.204  1.2551 -3.0161 -2.1678
  957MOL0     H26317   6.018   3.569   4.031 -1.9509  2.9194 -1.2032
  957MOL0     H26318   6.130   3.805   4.072  2.0196  1.8881  2.0484
  957MOL0     H26319   6.238   3.664   4.048  0.2993 -1.3208  1.2406
  957MOL0     H26320   6.177   3.856   4.285 -1.5037 -0.1387  0.5622
  957MOL0     H26321   6.200   3.694   4.340 -0.3054 -0.8898 -0.4127
  957MOL0     H26322   6.572   3.832   4.189 -0.3654  1.8090  1.1863
  957MOL0     H26323   5.773   3.882   4.303  0.8716 -1.8581  0.0809
  957MOL0     H26324   5.549   4.000   4.325  0.0313 -0.9836  0.8558
  958MOL0     O26325   7.958   4.511   3.964  0.4277  0.2631 -0.2186
  958MOL0     C26326   7.922   4.623   4.010 -0.2890  1.0793  0.2048
  958MOL0     O26327   7.988   4.694   4.109  0.1848 -0.3131  0.2725
  958MOL0     C26328   8.111   4.644   4.147 -0.2537 -0.2693 -0.2114
  958MOL0     C26329   8.221   4.627   4.063  0.9990 -0.5348 -0.6701
  958MOL0     C26330   8.340   4.586   4.116 -0.6106  0.3709  0.3078
  958MOL0     C26331   8.357   4.539   4.253  0.3592 -0.4702 -0.2222
  958MOL0     O26332   8.475   4.495   4.302  0.3899 -0.2053 -0.2476
  958MOL0     C26333   8.476   4.449   4.440  0.4487  0.5251 -0.3165
  958MOL0     C26334   8.620   4.432   4.466 -0.6930 -0.7856 -0.5187
  958MOL0     C26335   8.643   4.362   4.604 -0.3202  0.8685 -0.0991
  958MOL0     C26336   8.784   4.318   4.630 -0.0212 -0.6877  0.5457
  958MOL0     C26337   8.821   4.298   4.784 -0.1709  0.0012  0.5074
  958MOL0     C26338   8.970   4.245   4.795  0.0507 -0.8295 -0.5735
  958MOL0     C26339   9.068   4.342   4.732  0.7994  0.4180 -0.3261
  958MOL0     C26340   9.210   4.303   4.782 -0.0369 -0.3645 -0.6296
  958MOL0     N26341   9.236   4.391   4.896  0.3104 -0.8258 -0.1463
  958MOL0     C26342   9.236   4.529   4.874  0.2902  1.0929  0.2849
  958MOL0     C26343   9.220   4.585   4.995 -0.2875 -0.0776  0.0412
  958MOL0     C26344   9.216   4.731   5.022  0.4037 -0.2743 -0.0198
  958MOL0     C26345   9.099   4.805   4.960 -0.6617 -0.7762 -0.0950
  958MOL0     C26346   9.125   4.958   5.000 -1.1001 -0.0255  0.7794
  958MOL0     C26347   9.016   5.062   4.965  0.3223 -0.0666  0.3412
  958MOL0     O26348   8.901   5.034   5.048 -0.4558 -0.1491 -0.7071
  958MOL0     C26349   8.783   5.091   4.993 -0.9970  0.9036 -0.7769
  958MOL0     C26350   8.669   5.009   4.997  0.1528 -0.0422  0.2283
  958MOL0     C26351   8.549   5.051   4.935  0.2340 -0.2722  0.8999
  958MOL0     C26352   8.541   5.185   4.877 -0.3428 -0.0351  0.5224
  958MOL0     C26353   8.422   5.239   4.828  0.7945  0.2042 -0.6747
  958MOL0     O26354   8.303   5.189   4.886  0.6716 -0.2984 -0.0666
  958MOL0     C26355   8.178   5.249   4.853 -0.0035  0.4166  0.4691
  958MOL0     C26356   8.122   5.216   4.731  0.4944  0.3590  0.3184
  958MOL0     C26357   7.990   5.253   4.708  0.0917 -0.4246 -0.2883
  958MOL0     C26358   7.915   5.326   4.803  1.2387  0.4286  0.0948
  958MOL0     O26359   7.777   5.347   4.789  0.5694  0.0182 -0.4950
  958MOL0     C26360   7.704   5.331   4.661 -0.5085 -0.1554 -0.2038
  958MOL0     C26361   7.557   5.372   4.691 -0.1457 -0.2366 -1.4071
  958MOL0     C26362   7.468   5.309   4.588 -0.1275 -0.2284 -0.0462
  958MOL0     C26363   7.327   5.345   4.622  0.3460 -0.5001 -0.4045
  958MOL0     C26364   7.238   5.309   4.502  0.3217  0.4854  0.3027
  958MOL0     C26365   7.096   5.379   4.523  0.0923 -0.8637 -0.2055
  958MOL0     C26366   6.994   5.337   4.410  0.0356 -0.3654 -0.8098
  958MOL0     C26367   6.867   5.420   4.413  0.0857  0.7136  0.3092
  958MOL0    Cl26368   6.764   5.362   4.542 -0.0670  0.1274 -0.2518
  958MOL0     C26369   7.969   5.356   4.929 -0.5709  0.0849  0.5403
  958MOL0     C26370   8.104   5.315   4.950  0.7286 -0.2999  0.6844
  958MOL0     O26371   8.429   5.317   4.735 -0.6126 -0.3147 -0.0563
  958MOL0     C26372   8.657   5.262   4.882 -0.6185  0.1524 -0.7546
  958MOL0     C26373   8.775   5.222   4.942  0.0089  0.0243 -0.2468
  958MOL0     N26374   9.211   4.482   5.095  0.0775 -0.1563  0.4122
  958MOL0     N26375   9.216   4.374   5.033 -0.2283  0.5480 -0.3390
  958MOL0     C26376   8.240   4.540   4.336 -0.0128  0.5745 -0.0866
  958MOL0     C26377   8.126   4.600   4.275 -0.1681 -0.4195  0.1567
  958MOL0     C26378   7.795   4.674   3.968  0.7197  0.0580 -0.0058
  958MOL0     C26379   7.732   4.800   3.996  0.1690 -0.6408  0.4927
  958MOL0     C26380   7.604   4.836   3.946  0.9372 -0.2644 -0.8321
  958MOL0     C26381   7.548   4.750   3.850  0.1722  0.8200  0.2912
  958MOL0     O26382   7.434   4.782   3.783  0.4773  0.3034 -1.0104
  958MOL0     C26383   7.348   4.888   3.827 -0.1159  0.5215  0.0703
  958MOL0     C26384   7.230   4.902   3.724  0.0722 -0.8491  0.0904
  958MOL0     C26385   7.184   4.760   3.675  0.1446  0.4161  0.2727
  958MOL0     C26386   7.038   4.768   3.624 -0.0507  0.5025 -1.1146
  958MOL0     C26387   7.001   4.635   3.578  0.5596 -0.6999  1.3648
  958MOL0     C26388   6.968   4.533   3.518 -0.4348  0.2738 -0.7998
  958MOL0     C26389   7.606   4.627   3.819  1.1012 -0.0557 -0.5276
  958MOL0     C26390   7.730   4.598   3.876 -0.0595  0.3691 -0.2537
  958MOL0     H26391   8.227   4.670   3.963  3.3403  0.1891 -0.2798
  958MOL0     H26392   8.430   4.594   4.055  0.8803  0.7409  2.4432
  958MOL0     H26393   8.423   4.354   4.451 -2.6847  2.1687  0.0136
  958MOL0     H26394   8.442   4.525   4.511  4.5789  1.9872  0.3574
  958MOL0     H26395   8.678   4.525   4.468  0.3569 -1.3981 -1.1989
  958MOL0     H26396   8.669   4.368   4.391 -0.0075  1.3322 -1.9864
  958MOL0     H26397   8.570   4.282   4.618  0.8885 -0.0839  0.9440
  958MOL0     H26398   8.624   4.440   4.679 -0.1194  2.4392 -1.6165
  958MOL0     H26399   8.817   4.234   4.567  2.0076 -0.3265  1.0324
  958MOL0     H26400   8.851   4.397   4.593 -0.0007 -1.1116 -0.3692
  958MOL0     H26401   8.754   4.224   4.829 -0.6515  1.4477  2.2450
  958MOL0     H26402   8.803   4.394   4.833 -1.2646  0.0778 -0.0077
  958MOL0     H26403   8.971   4.151   4.740 -1.6987  0.6213 -3.3104
  958MOL0     H26404   8.996   4.219   4.898  2.5628 -1.5140 -1.3071
  958MOL0     H26405   9.074   4.328   4.623 -2.1924 -1.8968 -0.3202
  958MOL0     H26406   9.032   4.444   4.749 -0.1350 -0.1134  1.0076
  958MOL0     H26407   9.283   4.325   4.704  0.1182  2.7330  0.2587
  958MOL0     H26408   9.224   4.197   4.806  2.1978  0.5405  2.8055
  958MOL0     H26409   9.261   4.568   4.776  2.9834  2.9612  1.5801
  958MOL0     H26410   9.315   4.762   4.986  1.6832 -1.7299  1.9905
  958MOL0     H26411   9.217   4.750   5.130 -0.7883 -0.1348 -0.0263
  958MOL0     H26412   9.005   4.777   5.009 -0.5777  2.2695  2.0274
  958MOL0     H26413   9.100   4.805   4.851  0.9285 -1.5096 -0.1085
  958MOL0     H26414   9.139   4.966   5.108 -1.4939  1.0178  0.7599
  958MOL0     H26415   9.207   4.986   4.933 -1.0181  1.3113  1.4160
  958MOL0     H26416   8.981   5.062   4.861 -2.2424 -1.3049  1.1299
  958MOL0     H26417   9.050   5.164   4.984 -1.9019  1.0234 -1.1296
  958MOL0     H26418   8.678   4.916   5.052  1.5256  1.4867  2.7739
  958MOL0     H26419   8.456   4.996   4.935 -0.5268  0.7825 -2.5743
  958MOL0     H26420   8.173   5.164   4.650 -1.4873  1.4690 -1.7701
  958MOL0     H26421   7.948   5.246   4.609  0.6761 -1.6930 -0.4686
  958MOL0     H26422   7.705   5.227   4.626 -5.7751 -0.4326 -0.2877
  958MOL0     H26423   7.742   5.411   4.596  0.0832 -1.1921 -1.1741
  958MOL0     H26424   7.551   5.481   4.690  1.9534  0.2046  3.9621
  958MOL0     H26425   7.539   5.335   4.792  0.4799 -0.5403 -1.3985
  958MOL0     H26426   7.481   5.201   4.602  2.7932  0.3241  2.6889
  958MOL0     H26427   7.491   5.338   4.485 -2.2037 -0.5305 -0.6473
  958MOL0     H26428   7.290   5.307   4.717 -1.7012  1.4183 -0.3443
  958MOL0     H26429   7.328   5.454   4.629 -1.5141 -0.0855 -4.0701
  958MOL0     H26430   7.230   5.200   4.497  3.1448  0.1968  0.7749
  958MOL0     H26431   7.283   5.355   4.414  0.1381  0.6288  0.2824
  958MOL0     H26432   7.112   5.487   4.528  1.9161 -1.1228  0.1592
  958MOL0     H26433   7.068   5.369   4.628  4.8961  1.4097  1.5826
  958MOL0     H26434   7.043   5.347   4.312  1.0332 -1.7301 -0.4760
  958MOL0     H26435   6.967   5.231   4.418  0.2499 -0.3605  0.1183
  958MOL0     H26436   6.813   5.394   4.321  1.0621 -1.9611  0.4094
  958MOL0     H26437   6.890   5.527   4.410  0.2775  0.6858  0.7936
  958MOL0     H26438   7.917   5.411   5.007 -2.0084  2.4301 -1.8675
  958MOL0     H26439   8.156   5.325   5.045 -1.1507 -2.2315  2.0032
  958MOL0     H26440   8.652   5.367   4.855 -0.1458  1.1681  2.5639
  958MOL0     H26441   8.859   5.291   4.943  0.4973 -0.5670  0.0232
  958MOL0     H26442   8.239   4.494   4.434  1.2499  1.7779  0.5348
  958MOL0     H26443   8.044   4.615   4.344  1.6369  0.6559  2.1792
  958MOL0     H26444   7.782   4.873   4.060 -0.1776 -0.3468  0.4295
  958MOL0     H26445   7.557   4.927   3.981 -1.9416 -1.3258 -1.6534
  958MOL0     H26446   7.396   4.985   3.842  0.2968  0.3911 -0.4045
  958MOL0     H26447   7.300   4.853   3.919 -3.7837  2.0261 -1.0762
  958MOL0     H26448   7.145   4.956   3.766 -1.7454 -2.8136 -0.9259
  958MOL0     H26449   7.274   4.970   3.650  0.8688 -0.1980  1.1245
  958MOL0     H26450   7.184   4.689   3.758 -1.3670 -1.4163 -1.2090
  958MOL0     H26451   7.244   4.727   3.590 -3.0729 -0.1372 -1.9772
  958MOL0     H26452   6.981   4.806   3.709 -1.8715  1.6208 -2.7687
  958MOL0     H26453   7.030   4.837   3.540  3.3727 -0.5035 -2.4580
  958MOL0     H26454   6.941   4.446   3.463 -2.1012  1.5584 -2.1038
  958MOL0     H26455   7.556   4.553   3.757  1.7683 -1.2646  0.3152
  958MOL0     H26456   7.759   4.500   3.837  0.4431  0.6942 -0.7081
  959MOL0     O26457   9.368   6.479   6.034  0.1277  0.3575  0.0342
  959MOL0     C26458   9.392   6.600   6.011  0.3998  0.4389 -1.0366
  959MOL0     O26459   9.324   6.711   6.035 -0.7907  0.5017  0.6657
  959MOL0     C26460   9.213   6.717   6.121 -1.0011  1.1659  0.1254
  959MOL0     C26461   9.142   6.603   6.160 -0.4548 -0.2942 -0.9862
  959MOL0     C26462   9.031   6.631   6.243 -0.8408  0.1317 -0.2275
  959MOL0     C26463   8.998   6.762   6.285 -0.0570  0.0581 -0.4566
  959MOL0     O26464   8.903   6.780   6.377  1.2291  0.7328 -0.0265
  959MOL0     C26465   8.775   6.852   6.350 -0.3694  0.0487 -1.0958
  959MOL0     C26466   8.700   6.779   6.242 -0.0223 -0.0391  0.5412
  959MOL0     C26467   8.554   6.826   6.217 -0.1670 -0.3938 -0.7546
  959MOL0     C26468   8.476   6.734   6.117  0.9526 -0.4518 -0.3467
  959MOL0     C26469   8.325   6.773   6.116 -0.6171  0.4572  0.3344
  959MOL0     C26470   8.260   6.694   6.001  0.5056 -0.0859  0.1730
  959MOL0     C26471   8.109   6.691   6.020  1.4880  0.1689  0.0216
  959MOL0     C26472   8.055   6.826   5.981  0.7301  0.1083 -0.7960
  959MOL0     N26473   7.907   6.823   6.023  0.2532  0.1386  0.2712
  959MOL0     C26474   7.813   6.727   6.003  0.4348 -0.2524 -0.2203
  959MOL0     C26475   7.702   6.761   6.078 -0.1286 -0.1322 -0.1191
  959MOL0     C26476   7.583   6.679   6.094 -0.0889  0.3885  0.0075
  959MOL0     C26477   7.510   6.671   5.959  0.0850  0.5570  0.1988
  959MOL0     C26478   7.385   6.757   5.971 -0.6440 -0.6746  0.3952
  959MOL0     C26479   7.317   6.769   5.838  0.2122  0.4784  0.3026
  959MOL0     O26480   7.186   6.814   5.874  1.2869 -0.1886  0.1907
  959MOL0     C26481   7.093   6.844   5.775  0.4181 -0.3956  0.1813
  959MOL0     C26482   6.977   6.903   5.822 -0.5520  0.2909  0.9734
  959MOL0     C26483   6.862   6.911   5.738  0.0197 -0.3997  0.0105
  959MOL0     C26484   6.876   6.875   5.597  0.3973 -0.8234  0.1745
  959MOL0     C26485   6.765   6.872   5.502 -0.1104  0.0410  0.7388
  959MOL0     O26486   6.645   6.878   5.555  1.3748 -0.6428 -0.0896
  959MOL0     C26487   6.536   6.859   5.479  1.1859 -0.4018 -0.5279
  959MOL0     C26488   6.499   6.961   5.384  0.3092  0.7461 -0.3289
  959MOL0     C26489   6.389   6.948   5.302  0.0897  1.0678  0.4476
  959MOL0     C26490   6.305   6.845   5.316 -0.0266 -0.2906  0.3104
  959MOL0     O26491   6.184   6.849   5.244 -0.0577  0.3733  0.3585
  959MOL0     C26492   6.063   6.839   5.324  0.1146 -0.1600 -0.0697
  959MOL0     C26493   5.981   6.712   5.291 -0.7742  0.2695  0.0634
  959MOL0     C26494   5.836   6.717   5.355 -0.3225 -0.4222 -0.4949
  959MOL0     C26495   5.745   6.610   5.285 -0.6853  0.3247 -0.0153
  959MOL0     C26496   5.597   6.620   5.317  0.1818  0.3010  0.0493
  959MOL0     C26497   5.534   6.724   5.229  0.2855  0.4535  0.0065
  959MOL0     C26498   5.388   6.749   5.277 -0.8078 -0.4463  0.1423
  959MOL0     C26499   5.290   6.800   5.167 -0.9697 -1.0564 -0.9925
  959MOL0    Cl26500   5.107   6.803   5.215  0.0514  0.1668  0.2459
  959MOL0     C26501   6.337   6.752   5.416 -0.2138 -0.3548 -0.0226
  959MOL0     C26502   6.451   6.757   5.501  0.7853  0.3372  0.4131
  959MOL0     O26503   6.790   6.878   5.380 -0.1730  0.0727 -0.0928
  959MOL0     C26504   7.001   6.839   5.554 -1.2521 -0.8539  0.3947
  959MOL0     C26505   7.107   6.831   5.640 -0.1954 -0.5253  0.0003
  959MOL0     N26506   7.728   6.895   6.125 -0.7573  0.8413 -0.1934
  959MOL0     N26507   7.848   6.924   6.095  0.4237 -0.6047  0.2517
  959MOL0     C26508   9.077   6.863   6.243  1.0346  0.3976  0.3303
  959MOL0     C26509   9.184   6.845   6.164  0.1865  0.0387  0.5962
  959MOL0     C26510   9.521   6.621   5.936  0.9569  0.1300  0.5579
  959MOL0     C26511   9.588   6.507   5.875 -0.1642  0.4022 -0.0629
  959MOL0     C26512   9.711   6.530   5.810  0.1095  0.4814 -0.1461
  959MOL0     C26513   9.764   6.661   5.777 -0.0869  1.3351 -0.5180
  959MOL0     O26514   9.888   6.664   5.724  0.3811  0.7295 -0.0448
  959MOL0     C26515   9.958   6.785   5.722 -0.4493 -0.6273 -0.5046
  959MOL0     C26516   9.914   6.868   5.594 -0.1420 -0.3989  0.5697
  959MOL0     C26517   9.988   6.999   5.586  0.3899  0.2037  0.1742
  959MOL0     C26518   9.921   7.117   5.511  0.4155 -0.1684  0.0545
  959MOL0     C26519   9.795   7.162   5.573 -0.3060  0.0082 -1.2149
  959MOL0     C26520   9.686   7.194   5.619  0.3364 -0.3577 -0.2690
  959MOL0     C26521   9.701   6.768   5.839 -0.0061  0.4459  0.2488
  959MOL0     C26522   9.579   6.750   5.913 -0.8933 -0.5072 -1.3752
  959MOL0     H26523   9.166   6.500   6.139  0.9059  0.0723 -1.3618
  959MOL0     H26524   8.968   6.547   6.271 -0.6968 -0.5165 -1.7428
  959MOL0     H26525   8.789   6.958   6.328  3.0300 -0.0525  0.0156
  959MOL0     H26526   8.714   6.834   6.439  1.4449 -3.5588 -0.3888
  959MOL0     H26527   8.697   6.679   6.285 -0.2173  0.6231  2.1331
  959MOL0     H26528   8.753   6.779   6.146 -4.6889  0.2134 -2.2957
  959MOL0     H26529   8.567   6.930   6.187 -0.2222  0.0373  0.6249
  959MOL0     H26530   8.497   6.837   6.310  0.3921 -1.6865 -0.2352
  959MOL0     H26531   8.522   6.762   6.021  0.1328  0.6925 -0.4303
  959MOL0     H26532   8.482   6.628   6.142  0.6461 -0.6105 -0.9311
  959MOL0     H26533   8.307   6.880   6.099  0.0223  0.1530 -3.0935
  959MOL0     H26534   8.277   6.746   6.210 -0.9357  0.2371  0.1101
  959MOL0     H26535   8.301   6.593   6.006 -1.8366 -1.2421 -1.8986
  959MOL0     H26536   8.297   6.750   5.914 -1.2294  1.6299  0.4892
  959MOL0     H26537   8.057   6.619   5.957 -2.7803 -0.8860  4.1890
  959MOL0     H26538   8.079   6.671   6.123 -1.0934  2.9615 -0.0372
  959MOL0     H26539   8.056   6.841   5.873  0.4757  2.8158 -0.4890
  959MOL0     H26540   8.107   6.911   6.026 -1.9027  1.1784  0.4219
  959MOL0     H26541   7.818   6.634   5.946  0.0365 -1.0044  0.9260
  959MOL0     H26542   7.514   6.713   6.173 -0.4205 -0.8847  0.2978
  959MOL0     H26543   7.616   6.578   6.120 -0.6541  0.2696  0.2969
  959MOL0     H26544   7.480   6.568   5.938  1.9704  0.1665 -0.8548
  959MOL0     H26545   7.580   6.701   5.880 -2.8255  0.3343 -2.6178
  959MOL0     H26546   7.313   6.705   6.035 -1.2195 -0.6544 -0.2310
  959MOL0     H26547   7.402   6.855   6.015 -0.6813 -0.2305 -0.5670
  959MOL0     H26548   7.301   6.672   5.788 -0.2577  1.9904 -2.6840
  959MOL0     H26549   7.372   6.837   5.773 -1.7205  1.6698 -0.1648
  959MOL0     H26550   6.974   6.937   5.925  1.9775  2.4725  0.4476
  959MOL0     H26551   6.774   6.945   5.792 -0.1566  0.6911 -0.9174
  959MOL0     H26552   6.567   7.043   5.363  1.0606  0.4404  0.8053
  959MOL0     H26553   6.361   7.024   5.231 -2.1235  0.0668  0.1566
  959MOL0     H26554   6.003   6.927   5.300 -0.2734 -0.4967 -0.3519
  959MOL0     H26555   6.076   6.855   5.431 -1.3218  0.0203  0.0922
  959MOL0     H26556   6.034   6.624   5.329  3.2162  1.7642 -1.5595
  959MOL0     H26557   5.965   6.706   5.183 -0.7638  2.0296 -0.0635
  959MOL0     H26558   5.797   6.819   5.351 -1.7384 -0.9739 -1.7542
  959MOL0     H26559   5.849   6.698   5.462  0.0395 -0.2515 -0.5069
  959MOL0     H26560   5.753   6.618   5.176  1.6926  0.4162  0.1302
  959MOL0     H26561   5.777   6.512   5.321  3.3035  1.9443  1.3868
  959MOL0     H26562   5.582   6.651   5.421  3.4637 -0.5296  0.8611
  959MOL0     H26563   5.557   6.520   5.301  0.6794  0.1092 -0.0074
  959MOL0     H26564   5.530   6.682   5.128  0.6366 -0.7031  0.4628
  959MOL0     H26565   5.579   6.824   5.221  1.6696 -0.2449 -1.7297
  959MOL0     H26566   5.347   6.654   5.313 -1.0924 -0.6223 -0.6227
  959MOL0     H26567   5.389   6.826   5.355 -1.0782  0.3120 -0.5881
  959MOL0     H26568   5.312   6.740   5.079  2.6248 -1.3893 -0.0083
  959MOL0     H26569   5.323   6.903   5.146 -0.8232 -0.7862  0.4818
  959MOL0     H26570   6.283   6.659   5.430  0.0217 -0.3454  0.9965
  959MOL0     H26571   6.466   6.670   5.564 -0.8770 -0.8280 -0.6956
  959MOL0     H26572   7.025   6.824   5.449 -0.4089  0.5919  0.3433
  959MOL0     H26573   7.198   6.792   5.597  0.3613  0.3604  0.3648
  959MOL0     H26574   9.050   6.964   6.272  0.6290  1.0693 -2.1160
  959MOL0     H26575   9.246   6.929   6.132  0.4272 -0.5267 -0.4691
  959MOL0     H26576   9.562   6.402   5.889  0.4873 -0.4096 -3.7426
  959MOL0     H26577   9.754   6.443   5.761  1.3686  1.6372 -1.1904
  959MOL0     H26578  10.063   6.755   5.723  0.0191  0.8499 -1.6532
  959MOL0     H26579   9.949   6.843   5.815 -0.7552 -0.4461 -0.6456
  959MOL0     H26580   9.922   6.806   5.505 -2.9766 -0.1833  0.0725
  959MOL0     H26581   9.809   6.893   5.614 -0.1531  0.7575 -0.7920
  959MOL0     H26582  10.088   6.981   5.547  0.2122  0.3368 -0.3490
  959MOL0     H26583  10.004   7.042   5.686 -1.2958  1.2781  0.0208
  959MOL0     H26584   9.995   7.197   5.499 -0.0223 -0.0309 -2.2890
  959MOL0     H26585   9.900   7.098   5.405 -0.2211 -0.2303  0.1884
  959MOL0     H26586   9.584   7.215   5.644 -0.4771 -4.2825  0.3145
  959MOL0     H26587   9.722   6.870   5.808 -2.9289  0.4433 -2.2083
  959MOL0     H26588   9.532   6.841   5.949  2.7660  0.4581  1.6235
  960MOL0     O26589   1.078   8.612   3.971  0.2117  0.2901  0.2962
  960MOL0     C26590   1.090   8.682   3.871  0.4492 -0.0791  0.4394
  960MOL0     O26591   0.989   8.730   3.791  0.3548 -0.0530  0.3513
  960MOL0     C26592   0.859   8.680   3.803 -0.3177  0.1350 -0.5054
  960MOL0     C26593   0.787   8.679   3.684  0.9152  0.8918 -0.2114
  960MOL0     C26594   0.652   8.624   3.682  0.4406  0.7454 -0.1199
  960MOL0     C26595   0.593   8.581   3.799  0.0896  0.6686 -0.9185
  960MOL0     O26596   0.466   8.515   3.807  0.3854 -0.0212  1.0744
  960MOL0     C26597   0.366   8.585   3.889 -0.3243 -0.2906  1.0662
  960MOL0     C26598   0.245   8.627   3.800 -0.1815 -0.4334  0.0600
  960MOL0     C26599   0.168   8.506   3.763  0.4056 -0.3889 -0.7876
  960MOL0     C26600   0.044   8.541   3.687  0.1375  0.0747 -0.8757
  960MOL0     C26601  -0.049   8.426   3.661  1.0076 -0.6537 -0.9954
  960MOL0     C26602  -0.135   8.386   3.786 -0.3940 -0.2968  0.5969
  960MOL0     C26603  -0.247   8.485   3.814 -0.4704 -0.6514 -0.0593
  960MOL0     C26604  -0.380   8.435   3.873 -0.0360 -0.4680 -0.0813
  960MOL0     N26605  -0.472   8.362   3.778  0.7770 -0.0479 -0.3747
  960MOL0     C26606  -0.595   8.413   3.757 -0.0406 -0.0929 -0.5881
  960MOL0     C26607  -0.646   8.330   3.657  0.2958 -0.6970  0.2099
  960MOL0     C26608  -0.779   8.363   3.600  0.1813  0.1671  0.0771
  960MOL0     C26609  -0.826   8.254   3.499 -0.1734 -1.1962  0.6698
  960MOL0     C26610  -0.841   8.112   3.547 -0.3401  0.6162 -0.0458
  960MOL0     C26611  -0.983   8.081   3.584 -0.9237 -0.1022  0.8850
  960MOL0     O26612  -1.057   8.069   3.461  0.2559  0.0604 -0.0805
  960MOL0     C26613  -1.167   7.991   3.441  0.2789 -0.4087  0.1882
  960MOL0     C26614  -1.255   7.969   3.543  0.6028 -0.0272  0.2856
  960MOL0     C26615  -1.361   7.875   3.525  0.2231 -1.1042 -1.0878
  960MOL0     C26616  -1.385   7.816   3.405 -0.0486 -0.7242  0.4424
  960MOL0     C26617  -1.498   7.726   3.399  0.7679 -0.8780  0.8389
  960MOL0     O26618  -1.573   7.701   3.517  0.7371  0.4307  0.0020
  960MOL0     C26619  -1.676   7.615   3.507  0.1851  0.8460  0.0908
  960MOL0     C26620  -1.796   7.652   3.553  0.5207  0.1655 -0.6659
  960MOL0     C26621  -1.905   7.562   3.548  0.9330  0.1966 -0.5563
  960MOL0     C26622  -1.891   7.425   3.517 -0.1111 -0.1721 -0.4538
  960MOL0     O26623  -2.001   7.349   3.509  0.6463  0.3581 -0.0946
  960MOL0     C26624  -1.977   7.222   3.468  0.1920  0.2594 -0.6644
  960MOL0     C26625  -2.109   7.144   3.481  0.7833  0.0604 -0.1325
  960MOL0     C26626  -2.187   7.191   3.356  0.2471  0.7260 -0.4913
  960MOL0     C26627  -2.143   7.134   3.224  0.4584  0.8476 -0.1598
  960MOL0     C26628  -2.246   7.176   3.107  0.0127 -0.4956 -0.4033
  960MOL0     C26629  -2.199   7.122   2.969 -0.4500 -0.3896  0.0109
  960MOL0     C26630  -2.305   7.128   2.858  0.4564 -0.6906 -0.3650
  960MOL0     C26631  -2.268   7.066   2.726 -1.2850 -0.3145 -0.4804
  960MOL0    Cl26632  -2.396   7.104   2.601  0.1227  0.3753 -0.3423
  960MOL0     C26633  -1.758   7.385   3.483  0.0174 -0.0658  0.4367
  960MOL0     C26634  -1.657   7.478   3.473  1.0525  0.2684  0.1124
  960MOL0     O26635  -1.518   7.671   3.296  0.1318 -0.3180 -0.0358
  960MOL0     C26636  -1.304   7.849   3.297  0.1359 -0.4580  0.0503
  960MOL0     C26637  -1.198   7.938   3.308  0.1689  0.1023  0.4865
  960MOL0     N26638  -0.562   8.226   3.635  0.6282 -0.6173  0.6275
  960MOL0     N26639  -0.453   8.242   3.714  0.7263 -0.0459  0.0465
  960MOL0     C26640   0.658   8.602   3.918 -0.2590 -0.0483  0.4006
  960MOL0     C26641   0.790   8.642   3.926 -0.1646  0.1935 -0.1303
  960MOL0     C26642   1.233   8.707   3.834  0.3029 -0.2970  0.1535
  960MOL0     C26643   1.255   8.769   3.710 -0.5686  0.0340 -0.0650
  960MOL0     C26644   1.385   8.805   3.674 -0.0569  0.9349 -0.1055
  960MOL0     C26645   1.494   8.783   3.759 -0.6963  0.0454  0.5702
  960MOL0     O26646   1.618   8.825   3.731  0.0246  0.5740 -0.4201
  960MOL0     C26647   1.623   8.972   3.724  0.7894  0.6816 -0.0767
  960MOL0     C26648   1.769   9.010   3.751  0.6384 -0.4441  1.1388
  960MOL0     C26649   1.776   9.163   3.753 -0.3333  0.0885 -0.3729
  960MOL0     C26650   1.803   9.229   3.888 -0.8810 -0.2696  0.0431
  960MOL0     C26651   1.689   9.229   3.985 -0.4143  0.6540  0.6914
  960MOL0     C26652   1.604   9.235   4.075 -0.3023  0.2920 -0.4362
  960MOL0     C26653   1.470   8.713   3.880  0.6848 -0.5800  1.1743
  960MOL0     C26654   1.344   8.674   3.913 -0.5368 -0.1402 -0.5521
  960MOL0     H26655   0.841   8.710   3.596  1.1378 -0.0872 -0.4391
  960MOL0     H26656   0.598   8.613   3.589  0.0964 -1.0375  0.2509
  960MOL0     H26657   0.410   8.673   3.936 -0.2431 -0.0048  0.4623
  960MOL0     H26658   0.324   8.518   3.965 -1.7610 -1.7277 -0.8502
  960MOL0     H26659   0.290   8.676   3.713 -2.3275  1.5567 -0.0426
  960MOL0     H26660   0.186   8.704   3.852 -0.3456  0.7857 -1.8347
  960MOL0     H26661   0.147   8.458   3.859 -0.3896 -0.0307 -0.7750
  960MOL0     H26662   0.236   8.440   3.709  3.1779  1.0094  0.6884
  960MOL0     H26663  -0.006   8.607   3.758  2.3013 -1.1204  1.9359
  960MOL0     H26664   0.068   8.591   3.593  2.6301 -1.1742 -0.9821
  960MOL0     H26665   0.013   8.339   3.635  0.6590 -0.5310 -2.2951
  960MOL0     H26666  -0.109   8.445   3.572 -0.2251 -0.1802 -0.0799
  960MOL0     H26667  -0.065   8.381   3.870 -0.4092  4.2449  1.0951
  960MOL0     H26668  -0.183   8.290   3.763 -1.0367 -0.1479  1.2718
  960MOL0     H26669  -0.216   8.562   3.885 -1.8724  0.1922 -0.3347
  960MOL0     H26670  -0.277   8.542   3.726 -1.4204 -0.3767  0.4329
  960MOL0     H26671  -0.431   8.514   3.930  2.6810  0.3250  1.3976
  960MOL0     H26672  -0.356   8.357   3.946 -2.1892 -1.3609 -0.2538
  960MOL0     H26673  -0.641   8.504   3.795  1.4878  0.4472  0.0394
  960MOL0     H26674  -0.765   8.455   3.543  4.6026 -0.8382 -0.8220
  960MOL0     H26675  -0.847   8.369   3.686 -1.9992 -2.1472 -1.3656
  960MOL0     H26676  -0.748   8.257   3.422  0.2658 -1.2142  1.1050
  960MOL0     H26677  -0.914   8.283   3.441  0.0644 -1.2062  0.2996
  960MOL0     H26678  -0.809   8.032   3.479 -0.5932 -0.2239  0.7920
  960MOL0     H26679  -0.778   8.095   3.635  1.3262 -2.3262 -1.6267
  960MOL0     H26680  -1.032   8.161   3.640 -1.1047 -0.3790  1.1264
  960MOL0     H26681  -0.981   7.985   3.637 -0.8275 -0.7494 -0.2733
  960MOL0     H26682  -1.226   8.006   3.641  0.0893 -1.0608  0.8399
  960MOL0     H26683  -1.424   7.868   3.613  1.9763  3.7096  0.8800
  960MOL0     H26684  -1.815   7.756   3.577 -1.9945 -0.2865 -0.3412
  960MOL0     H26685  -1.997   7.614   3.573  2.4442  2.9259 -0.3802
  960MOL0     H26686  -1.910   7.166   3.533 -1.4875 -3.9499 -2.1769
  960MOL0     H26687  -1.932   7.222   3.368  2.8387  1.6460  0.4285
  960MOL0     H26688  -2.172   7.175   3.565  0.2743  0.7250 -0.7579
  960MOL0     H26689  -2.086   7.037   3.483 -2.1857 -0.6692  1.2014
  960MOL0     H26690  -2.199   7.299   3.346 -0.0743  0.5995 -1.5668
  960MOL0     H26691  -2.285   7.146   3.370 -0.7414  3.2050  1.4175
  960MOL0     H26692  -2.046   7.166   3.186  1.0042  2.1031  2.1009
  960MOL0     H26693  -2.133   7.026   3.239  2.8511  1.2662  1.8316
  960MOL0     H26694  -2.243   7.285   3.108 -0.1111 -0.4607  1.5955
  960MOL0     H26695  -2.347   7.138   3.123 -0.1761  0.5959  1.2904
  960MOL0     H26696  -2.167   7.017   2.973  1.4750 -0.0353 -3.0476
  960MOL0     H26697  -2.112   7.181   2.940  0.6157 -2.1999 -0.6869
  960MOL0     H26698  -2.397   7.087   2.899  0.0668  1.5875  1.2245
  960MOL0     H26699  -2.334   7.231   2.835 -0.2449 -0.3428  1.8406
  960MOL0     H26700  -2.260   6.957   2.734  0.4768 -0.0658  2.5376
  960MOL0     H26701  -2.173   7.109   2.693 -2.3422  0.9555 -1.9974
  960MOL0     H26702  -1.732   7.282   3.459 -3.8795 -1.1290  0.0031
  960MOL0     H26703  -1.560   7.446   3.436  1.2669  1.3987 -0.3334
  960MOL0     H26704  -1.319   7.798   3.203 -1.2069 -1.4408  0.7599
  960MOL0     H26705  -1.135   7.957   3.222  0.2568 -2.9818 -0.2362
  960MOL0     H26706   0.603   8.579   4.009 -1.5894 -0.9007 -0.5872
  960MOL0     H26707   0.832   8.662   4.024  2.0334 -1.3387 -0.6893
  960MOL0     H26708   1.182   8.798   3.636  1.9769  2.6786 -1.7604
  960MOL0     H26709   1.408   8.851   3.578  2.0621 -1.7414 -1.0435
  960MOL0     H26710   1.557   9.003   3.806 -1.0225 -0.8390 -0.8794
  960MOL0     H26711   1.584   9.009   3.629 -0.2299 -2.5162 -1.0385
  960MOL0     H26712   1.814   8.965   3.840  3.2472 -2.0176 -0.8111
  960MOL0     H26713   1.832   8.964   3.674  1.4681  0.3999  1.2876
  960MOL0     H26714   1.688   9.211   3.708 -2.4456 -0.2425  3.0811
  960MOL0     H26715   1.850   9.182   3.674  0.0899  1.4971  0.3225
  960MOL0     H26716   1.891   9.184   3.934  1.0393  1.6681 -1.4771
  960MOL0     H26717   1.819   9.335   3.863 -1.0069 -0.6308 -1.6838
  960MOL0     H26718   1.531   9.251   4.152 -0.6710 -1.7046 -0.3171
  960MOL0     H26719   1.550   8.683   3.948  1.4800  1.1516  1.0580
  960MOL0     H26720   1.311   8.622   4.003 -1.6788  0.9130 -0.3287
  961MOL0     O26721   4.784  10.874  10.420 -0.3814 -0.6188  0.7933
  961MOL0     C26722   4.835  10.785  10.490 -0.5882  0.2224  0.3845
  961MOL0     O26723   4.764  10.722  10.584  0.0639 -0.3694  0.1343
  961MOL0     C26724   4.639  10.757  10.617  0.2738  0.8454  0.1987
  961MOL0     C26725   4.613  10.772  10.752 -0.2134 -0.6679  0.4318
  961MOL0     C26726   4.482  10.793  10.792  0.2444  0.5081 -1.1649
  961MOL0     C26727   4.375  10.806  10.699  0.5078  0.1280 -0.7901
  961MOL0     O26728   4.245  10.833  10.735 -0.2249  0.6619  0.7519
  961MOL0     C26729   4.213  10.846  10.872  0.1981  0.0049 -0.0636
  961MOL0     C26730   4.064  10.865  10.899  0.2470 -0.1890  0.4615
  961MOL0     C26731   4.006  11.005  10.868  0.0109 -0.6822 -0.1381
  961MOL0     C26732   3.853  11.022  10.914 -0.5444 -0.0294 -0.2988
  961MOL0     C26733   3.828  11.166  10.965 -0.8203 -0.1009  0.8479
  961MOL0     C26734   3.824  11.278  10.850  0.2597  0.4889 -0.0823
  961MOL0     C26735   3.785  11.416  10.895 -0.0273 -0.1057  0.2131
  961MOL0     C26736   3.650  11.424  10.954  0.7214 -0.0959 -0.3319
  961MOL0     N26737   3.553  11.376  10.857  0.1372 -0.2798  0.6154
  961MOL0     C26738   3.485  11.463  10.771 -0.5189 -0.0317  0.3298
  961MOL0     C26739   3.383  11.388  10.732 -0.3449  0.1022  0.2174
  961MOL0     C26740   3.275  11.425  10.632  0.3436  0.7177 -0.7888
  961MOL0     C26741   3.198  11.552  10.674 -0.5525  0.2495 -0.4267
  961MOL0     C26742   3.113  11.614  10.553 -0.9565  0.2337 -0.1887
  961MOL0     C26743   2.993  11.540  10.488  0.4032  0.0995 -0.7707
  961MOL0     O26744   2.873  11.549  10.563 -0.1494  0.2856 -0.3167
  961MOL0     C26745   2.765  11.559  10.475 -0.6654  0.7277 -0.2920
  961MOL0     C26746   2.717  11.685  10.439 -0.0930  0.5045 -0.0699
  961MOL0     C26747   2.600  11.690  10.362 -0.1084  0.0795  0.1153
  961MOL0     C26748   2.537  11.571  10.320 -0.1170 -0.5482  0.7454
  961MOL0     C26749   2.410  11.575  10.243  0.5555  0.3963 -0.0670
  961MOL0     O26750   2.325  11.474  10.235  0.1737  0.3336 -0.8782
  961MOL0     C26751   2.191  11.492  10.213  0.0035 -0.4478 -0.1925
  961MOL0     C26752   2.133  11.394  10.138  0.3423  0.0519  0.9584
  961MOL0     C26753   2.006  11.419  10.085 -0.1757  1.0058  0.3253
  961MOL0     C26754   1.925  11.523  10.122 -0.9714  0.4078  0.2799
  961MOL0     O26755   1.803  11.544  10.067 -0.2129 -0.5495 -0.1017
  961MOL0     C26756   1.764  11.681  10.049  0.7035  0.4266 -0.1523
  961MOL0     C26757   1.653  11.665   9.948  0.0109  0.5845  0.3004
  961MOL0     C26758   1.518  11.616  10.012 -1.0167 -0.8272 -0.7687
  961MOL0     C26759   1.406  11.610   9.915  0.5146  0.8012 -0.2061
  961MOL0     C26760   1.265  11.559   9.959  0.0140  0.3005 -0.0178
  961MOL0     C26761   1.167  11.553   9.844  0.0469  0.0991  0.1887
  961MOL0     C26762   1.121  11.694   9.799 -0.8754 -0.2492 -0.8292
  961MOL0     C26763   1.037  11.681   9.667 -0.5476 -0.4720 -0.7232
  961MOL0    Cl26764   1.144  11.652   9.523  0.0191 -0.3347 -0.5005
  961MOL0     C26765   1.977  11.611  10.220  0.3216  0.4872 -0.4856
  961MOL0     C26766   2.112  11.609  10.243 -0.4389  0.0531  0.3113
  961MOL0     O26767   2.386  11.680  10.190  0.6551  0.5213 -0.1541
  961MOL0     C26768   2.590  11.446  10.358 -0.8163 -0.2588  0.7805
  961MOL0     C26769   2.706  11.442  10.438 -0.2939 -0.2764  0.1514
  961MOL0     N26770   3.383  11.265  10.785  0.2536  0.1542 -0.4147
  961MOL0     N26771   3.482  11.259  10.863 -0.4261  0.7594 -0.6802
  961MOL0     C26772   4.406  10.795  10.564 -0.0487  0.1137  0.2588
  961MOL0     C26773   4.532  10.761  10.523 -0.4239  0.0881  0.9177
  961MOL0     C26774   4.983  10.764  10.494 -0.2632 -0.0982 -0.6804
  961MOL0     C26775   5.072  10.845  10.419 -0.1878  0.2349 -0.0612
  961MOL0     C26776   5.207  10.806  10.404 -0.6282  0.8654  0.0570
  961MOL0     C26777   5.262  10.701  10.480  0.1258  0.0394 -0.1102
  961MOL0     O26778   5.398  10.684  10.474  0.5374  0.1384  0.0518
  961MOL0     C26779   5.445  10.565  10.529  0.0650 -0.4830 -0.3840
  961MOL0     C26780   5.590  10.553  10.495  0.0893  0.7636  0.6376
  961MOL0     C26781   5.672  10.660  10.565 -0.8221 -0.8711 -0.9269
  961MOL0     C26782   5.821  10.633  10.523  0.0050 -0.7948  0.0059
  961MOL0     C26783   5.889  10.755  10.566 -0.2421 -0.5608  0.1026
  961MOL0     C26784   5.939  10.863  10.609 -0.3791  0.3560  0.5909
  961MOL0     C26785   5.172  10.621  10.552  0.4564 -0.2477 -0.4339
  961MOL0     C26786   5.037  10.654  10.564  0.1972 -0.7089  0.0933
  961MOL0     H26787   4.696  10.757  10.821  1.1254 -1.2525 -1.2181
  961MOL0     H26788   4.462  10.823  10.894  2.8006  5.4205 -1.7998
  961MOL0     H26789   4.268  10.937  10.898 -1.4477  1.3583 -1.1624
  961MOL0     H26790   4.249  10.758  10.927  1.4053 -0.0697 -0.9309
  961MOL0     H26791   4.039  10.835  11.001  1.3229 -0.6343  0.6005
  961MOL0     H26792   4.004  10.799  10.836  0.5038 -1.0721  1.1228
  961MOL0     H26793   4.011  11.011  10.759  0.4943 -1.8615 -0.1947
  961MOL0     H26794   4.053  11.091  10.917 -4.0467  1.7947 -0.0874
  961MOL0     H26795   3.789  11.007  10.827  0.3510 -1.5896 -0.7121
  961MOL0     H26796   3.829  10.953  10.995  1.0135  0.3126  0.5172
  961MOL0     H26797   3.893  11.199  11.046  0.7282  3.8985 -1.7397
  961MOL0     H26798   3.731  11.161  11.016 -0.6992  0.3859  1.1263
  961MOL0     H26799   3.757  11.240  10.772 -0.6323  0.4137  0.7057
  961MOL0     H26800   3.923  11.273  10.803 -0.8809 -1.4536 -2.5294
  961MOL0     H26801   3.866  11.448  10.961  0.3321  0.0447 -0.2957
  961MOL0     H26802   3.783  11.477  10.804 -2.7815 -2.1522 -1.2723
  961MOL0     H26803   3.626  11.523  10.993  0.9970  1.0938 -3.0307
  961MOL0     H26804   3.647  11.355  11.040  0.2895 -0.5094 -0.6706
  961MOL0     H26805   3.502  11.567  10.743  0.5885  0.5409  2.8367
  961MOL0     H26806   3.197  11.350  10.615  1.0839  0.1747 -1.9404
  961MOL0     H26807   3.330  11.447  10.540 -0.0337  2.8528 -0.5512
  961MOL0     H26808   3.275  11.627  10.694 -1.5435  0.9853  0.6764
  961MOL0     H26809   3.143  11.550  10.768  2.6086 -0.1222  1.5797
  961MOL0     H26810   3.076  11.714  10.575  0.9405  0.6259  1.5175
  961MOL0     H26811   3.183  11.624  10.470 -1.4983 -0.8992 -0.8038
  961MOL0     H26812   3.014  11.435  10.469  0.9045 -0.1812  1.1100
  961MOL0     H26813   2.966  11.588  10.394 -1.1951 -0.7113 -0.7724
  961MOL0     H26814   2.760  11.779  10.471 -0.2663  0.2003  1.0807
  961MOL0     H26815   2.567  11.789  10.332  1.5703  0.8237  0.6403
  961MOL0     H26816   2.176  11.299  10.106 -0.5063 -0.7942  2.2278
  961MOL0     H26817   1.983  11.343  10.011  2.5964  0.2964  0.0559
  961MOL0     H26818   1.844  11.745  10.011  0.6187  0.0129 -1.0385
  961MOL0     H26819   1.726  11.720  10.144 -1.6106 -1.1980 -0.3316
  961MOL0     H26820   1.696  11.597   9.875 -0.4040  2.0653 -1.3911
  961MOL0     H26821   1.630  11.758   9.895  2.9422  1.8281  1.0139
  961MOL0     H26822   1.490  11.691  10.086 -1.9104  1.5377 -3.3291
  961MOL0     H26823   1.537  11.520  10.061 -2.8961 -1.8735 -1.9621
  961MOL0     H26824   1.399  11.712   9.877  1.0711  1.0030  0.2377
  961MOL0     H26825   1.438  11.544   9.833  0.0551 -2.0789  1.7706
  961MOL0     H26826   1.227  11.620  10.041  0.4063  0.6378 -0.0804
  961MOL0     H26827   1.277  11.457   9.997  3.9847  1.2819  1.9147
  961MOL0     H26828   1.074  11.504   9.874 -1.2134  0.9315 -2.1335
  961MOL0     H26829   1.205  11.503   9.754 -3.4380 -0.5947 -1.0317
  961MOL0     H26830   1.064  11.740   9.880  1.6258  2.1869 -0.3199
  961MOL0     H26831   1.204  11.763   9.779 -1.5236  1.6782  2.4050
  961MOL0     H26832   0.968  11.765   9.652 -2.1071 -1.9320 -2.1268
  961MOL0     H26833   0.966  11.598   9.667  0.9415 -1.7943 -1.4807
  961MOL0     H26834   1.935  11.704  10.256  0.1952  1.5534 -3.1546
  961MOL0     H26835   2.163  11.699  10.277  2.2109 -0.4819 -1.8958
  961MOL0     H26836   2.542  11.352  10.332  0.7867 -1.5424  2.3139
  961MOL0     H26837   2.745  11.351  10.483 -2.1361 -1.6310 -0.8472
  961MOL0     H26838   4.332  10.798  10.485 -0.0553  1.2857  0.2996
  961MOL0     H26839   4.555  10.734  10.420 -2.0608  0.2634  0.4747
  961MOL0     H26840   5.032  10.925  10.357 -0.0049  0.7491  0.4675
  961MOL0     H26841   5.276  10.855  10.337  0.2168 -0.4488 -0.0665
  961MOL0     H26842   5.381  10.485  10.489 -1.2472  0.2218  0.2180
  961MOL0     H26843   5.432  10.577  10.637  0.7784  2.6731 -0.5671
  961MOL0     H26844   5.614  10.449  10.519  2.5003  0.7539 -1.3883
  961MOL0     H26845   5.608  10.558  10.388  0.7897 -0.6316  0.6675
  961MOL0     H26846   5.661  10.660  10.674  1.4305  2.9747 -0.5048
  961MOL0     H26847   5.642  10.760  10.534 -1.4019 -0.9896 -0.7598
  961MOL0     H26848   5.868  10.551  10.578  0.5531 -2.6940 -3.0657
  961MOL0     H26849   5.845  10.612  10.418  3.6250 -2.2946  0.9661
  961MOL0     H26850   5.982  10.957  10.640  1.0965 -1.2638  3.9418
  961MOL0     H26851   5.205  10.541  10.618  0.8888  0.8980  0.8081
  961MOL0     H26852   4.972  10.592  10.626  1.7937 -1.0063  1.5777
  962MOL0     O26853   1.042   0.793  10.385  0.6288 -0.3812 -0.1009
  962MOL0     C26854   1.036   0.861  10.487 -0.0619  0.4716 -1.0133
  962MOL0     O26855   0.949   0.971  10.517 -0.0280  0.1583 -0.6004
  962MOL0     C26856   0.856   1.014  10.430 -0.8659  0.1770 -0.4418
  962MOL0     C26857   0.805   0.945  10.320 -0.6394  0.2027 -0.0176
  962MOL0     C26858   0.700   0.995  10.241  0.4774  0.4700 -0.6890
  962MOL0     C26859   0.647   1.124  10.268 -0.7798 -0.4891 -0.2461
  962MOL0     O26860   0.547   1.177  10.198 -0.1107  0.4130 -0.5208
  962MOL0     C26861   0.510   1.121  10.072  0.4576  0.2232  0.2284
  962MOL0     C26862   0.392   1.201  10.010  0.3176  0.0546  0.1708
  962MOL0     C26863   0.347   1.124   9.885 -0.0750  0.7778 -0.1457
  962MOL0     C26864   0.247   1.201   9.809  0.2722 -0.1545 -0.3114
  962MOL0     C26865   0.209   1.112   9.690 -0.1187  0.6186 -0.3477
  962MOL0     C26866   0.102   1.177   9.610  0.2606  0.4716 -0.0435
  962MOL0     C26867   0.131   1.322   9.549  0.9203 -0.3500 -0.4049
  962MOL0     C26868   0.240   1.334   9.443 -0.6109 -0.2036 -0.3721
  962MOL0     N26869   0.191   1.286   9.318  0.8311  0.2639 -0.5580
  962MOL0     C26870   0.095   1.341   9.236  0.0118 -0.2516  0.5801
  962MOL0     C26871   0.075   1.247   9.140  0.6350 -0.0170 -0.8419
  962MOL0     C26872  -0.023   1.259   9.032 -0.5684 -0.6894  0.3488
  962MOL0     C26873  -0.040   1.401   8.978  0.0382 -0.0273 -0.3457
  962MOL0     C26874  -0.145   1.418   8.857 -0.5353 -0.1820  0.1748
  962MOL0     C26875  -0.101   1.346   8.725 -0.2253  0.3197  0.3183
  962MOL0     O26876  -0.185   1.381   8.611  0.9713  0.2601  0.0925
  962MOL0     C26877  -0.294   1.307   8.565  0.0051 -0.4814 -0.4006
  962MOL0     C26878  -0.365   1.366   8.465 -0.1354 -0.0308 -0.0877
  962MOL0     C26879  -0.479   1.309   8.414 -0.0941 -1.1664  1.2236
  962MOL0     C26880  -0.524   1.181   8.459  0.2020  0.2389  0.3081
  962MOL0     C26881  -0.644   1.115   8.405 -0.6005 -0.0577 -1.1658
  962MOL0     O26882  -0.660   0.984   8.444  1.3024 -0.1789  0.0530
  962MOL0     C26883  -0.774   0.914   8.416 -0.0381 -0.4815  0.2641
  962MOL0     C26884  -0.802   0.815   8.508 -0.2646  0.8418  0.1267
  962MOL0     C26885  -0.909   0.727   8.498  0.4696  0.2825 -0.7273
  962MOL0     C26886  -0.996   0.736   8.386 -0.0340  1.0866  0.6588
  962MOL0     O26887  -1.093   0.635   8.353  0.0353 -0.0455  0.4598
  962MOL0     C26888  -1.144   0.554   8.461 -0.0977  0.1120 -0.3134
  962MOL0     C26889  -1.278   0.494   8.415  0.1551  0.4889 -0.7207
  962MOL0     C26890  -1.359   0.424   8.526  0.4915 -0.4194 -0.4192
  962MOL0     C26891  -1.517   0.429   8.507 -0.2707 -0.1309 -0.2773
  962MOL0     C26892  -1.589   0.331   8.595 -0.7554  0.0003  0.3253
  962MOL0     C26893  -1.745   0.332   8.563 -0.1502 -0.7731 -0.3022
  962MOL0     C26894  -1.826   0.270   8.674  0.8622 -0.0205  0.3901
  962MOL0     C26895  -1.835   0.113   8.646  0.1803  0.0147 -0.1665
  962MOL0    Cl26896  -1.813   0.016   8.793 -0.1491  0.3668 -0.2439
  962MOL0     C26897  -0.965   0.838   8.293 -0.4255 -0.4104  1.0962
  962MOL0     C26898  -0.862   0.932   8.306  0.3539  0.5433  0.0172
  962MOL0     O26899  -0.708   1.177   8.322  0.7758  0.4559  0.8165
  962MOL0     C26900  -0.443   1.119   8.561  0.5793  0.7729 -0.2799
  962MOL0     C26901  -0.332   1.184   8.612 -0.4485  0.2641  0.1360
  962MOL0     N26902   0.145   1.134   9.178  1.6777  0.7016 -0.2255
  962MOL0     N26903   0.223   1.159   9.274  0.3822  0.1022 -0.3297
  962MOL0     C26904   0.709   1.206  10.357 -0.2902  0.3568  0.0173
  962MOL0     C26905   0.814   1.149  10.443  0.1836  0.3473 -0.2048
  962MOL0     C26906   1.155   0.835  10.582  1.2677 -0.7754 -0.0690
  962MOL0     C26907   1.228   0.721  10.574 -0.2088  0.0476 -0.0959
  962MOL0     C26908   1.329   0.695  10.666 -0.7147 -0.0113  0.6433
  962MOL0     C26909   1.370   0.783  10.755  0.0247 -1.1403 -1.4880
  962MOL0     O26910   1.470   0.743  10.842 -0.0179  0.0417 -0.5148
  962MOL0     C26911   1.568   0.841  10.866  0.7248 -0.9177 -0.2658
  962MOL0     C26912   1.673   0.850  10.747  0.2226  0.3928 -1.1269
  962MOL0     C26913   1.768   0.966  10.755  0.3211  0.0964 -0.6212
  962MOL0     C26914   1.851   0.981  10.883  0.2591  0.5647 -1.1991
  962MOL0     C26915   1.786   1.051  10.995 -0.1001 -0.2425 -0.2130
  962MOL0     C26916   1.709   1.099  11.078  0.4517 -0.3597 -0.4394
  962MOL0     C26917   1.301   0.906  10.766  0.3598  1.4830  0.8230
  962MOL0     C26918   1.194   0.927  10.680 -0.3332 -0.2705 -0.1904
  962MOL0     H26919   0.838   0.847  10.285 -2.2322  0.0194 -1.1306
  962MOL0     H26920   0.662   0.926  10.166  2.0655  0.8651 -1.8948
  962MOL0     H26921   0.472   1.020  10.091  0.1856  0.3410  0.3112
  962MOL0     H26922   0.595   1.123  10.004  0.8660  3.5564  0.6591
  962MOL0     H26923   0.431   1.301   9.989  3.2720 -0.5575  2.1803
  962MOL0     H26924   0.300   1.213  10.069 -0.1324 -1.4496 -0.1852
  962MOL0     H26925   0.317   1.022   9.912 -0.8799  1.3890  1.3883
  962MOL0     H26926   0.439   1.115   9.827  0.9562  0.7067  1.4305
  962MOL0     H26927   0.163   1.224   9.876 -0.3024  1.1521 -1.4388
  962MOL0     H26928   0.288   1.294   9.771 -0.4000  0.2599 -0.0445
  962MOL0     H26929   0.183   1.011   9.721  0.3253 -0.2925 -2.7466
  962MOL0     H26930   0.298   1.098   9.628 -0.9106 -2.3740 -0.9419
  962MOL0     H26931   0.020   1.181   9.683 -0.4497 -0.4601 -0.7650
  962MOL0     H26932   0.075   1.106   9.531  0.0267 -0.6163  0.9824
  962MOL0     H26933   0.035   1.354   9.509  1.7953 -0.6643 -2.9134
  962MOL0     H26934   0.166   1.392   9.626  1.0961 -1.0601  0.1728
  962MOL0     H26935   0.326   1.268   9.461 -0.2330  0.4936  0.4671
  962MOL0     H26936   0.275   1.436   9.426  2.0367 -0.9767 -0.1283
  962MOL0     H26937   0.048   1.439   9.239  3.1996  1.5782 -1.9914
  962MOL0     H26938  -0.118   1.223   9.073 -0.3463 -1.2404  0.3822
  962MOL0     H26939   0.004   1.194   8.947  2.5871  0.3519  0.4267
  962MOL0     H26940   0.049   1.456   8.946  1.9665 -2.6040  0.2206
  962MOL0     H26941  -0.078   1.458   9.063  0.5595 -2.1291  1.3886
  962MOL0     H26942  -0.247   1.385   8.880 -0.5839 -0.0105  0.2124
  962MOL0     H26943  -0.147   1.527   8.849 -0.9594 -0.2199 -0.2751
  962MOL0     H26944  -0.099   1.237   8.737 -0.4437 -0.1175 -2.9210
  962MOL0     H26945   0.002   1.372   8.700 -0.5030  0.6663 -0.4954
  962MOL0     H26946  -0.328   1.462   8.433 -1.4013  0.2431 -0.7901
  962MOL0     H26947  -0.520   1.363   8.330  1.1352  0.7654  1.7840
  962MOL0     H26948  -0.738   0.803   8.595 -2.0125 -2.7114  1.1270
  962MOL0     H26949  -0.918   0.644   8.568  3.2095  0.1792 -0.3834
  962MOL0     H26950  -1.143   0.615   8.552  3.5944  1.2166 -0.9206
  962MOL0     H26951  -1.089   0.463   8.487 -3.7171 -2.2191 -0.0458
  962MOL0     H26952  -1.251   0.423   8.336 -0.8606 -0.8774  0.1128
  962MOL0     H26953  -1.339   0.568   8.363 -2.4291  0.2346  1.7136
  962MOL0     H26954  -1.328   0.468   8.622 -0.6505  0.1106 -0.2728
  962MOL0     H26955  -1.334   0.318   8.518 -1.4371 -0.8932 -0.6699
  962MOL0     H26956  -1.552   0.529   8.536 -4.1244 -1.7391  1.4026
  962MOL0     H26957  -1.545   0.415   8.402  1.0149  2.8339 -1.1424
  962MOL0     H26958  -1.582   0.371   8.697 -3.6991 -0.5078  0.8413
  962MOL0     H26959  -1.541   0.233   8.594 -1.0746 -0.2914  3.5064
  962MOL0     H26960  -1.764   0.285   8.466 -1.8400 -0.5323 -0.1212
  962MOL0     H26961  -1.782   0.435   8.563 -0.0098 -0.7114 -1.2443
  962MOL0     H26962  -1.775   0.288   8.769 -0.6846 -4.0292  2.2221
  962MOL0     H26963  -1.931   0.300   8.682  1.1481  0.8347  1.0616
  962MOL0     H26964  -1.759   0.093   8.570  0.6145 -2.9158  0.8978
  962MOL0     H26965  -1.932   0.087   8.603  0.6241 -1.0066 -0.5867
  962MOL0     H26966  -1.015   0.849   8.197  0.1282 -2.4084  0.5176
  962MOL0     H26967  -0.844   1.009   8.232 -0.5066 -0.8234 -1.6947
  962MOL0     H26968  -0.452   1.014   8.589  2.7996 -0.0831 -2.4337
  962MOL0     H26969  -0.264   1.122   8.671 -2.3905  0.5345  2.8425
  962MOL0     H26970   0.678   1.310  10.361 -0.9357  0.1471  0.8460
  962MOL0     H26971   0.850   1.213  10.523  0.0813 -0.2392  0.3246
  962MOL0     H26972   1.216   0.650  10.493 -0.9282 -2.4223  2.0441
  962MOL0     H26973   1.379   0.599  10.652 -2.0528 -0.9140  1.8484
  962MOL0     H26974   1.615   0.810  10.960  2.8957  0.2725 -0.8990
  962MOL0     H26975   1.523   0.940  10.874 -0.8307 -1.6487  0.5004
  962MOL0     H26976   1.727   0.755  10.755  1.4935  1.1271 -0.6172
  962MOL0     H26977   1.618   0.869  10.654  3.0701  2.8314 -2.5001
  962MOL0     H26978   1.726   1.064  10.734  1.7247  0.3201 -2.6905
  962MOL0     H26979   1.834   0.941  10.671 -0.4656  0.6076 -1.4029
  962MOL0     H26980   1.877   0.880  10.917 -2.9178  0.3631  1.2018
  962MOL0     H26981   1.949   1.027  10.865  0.9184  0.0188  0.7434
  962MOL0     H26982   1.641   1.143  11.149 -2.7505 -1.5951 -2.5258
  962MOL0     H26983   1.327   0.974  10.846 -0.9907  3.6946 -0.4970
  962MOL0     H26984   1.140   1.020  10.697 -0.2703 -0.3407  0.4071
  963MOL0     O26985   7.809   6.228   1.988 -0.0830  0.0600  0.1417
  963MOL0     C26986   7.874   6.271   2.083 -0.2333  0.2636 -0.4070
  963MOL0     O26987   7.875   6.398   2.135  0.6305  0.9621 -0.4221
  963MOL0     C26988   7.763   6.478   2.098 -0.8935 -0.1424  0.3229
  963MOL0     C26989   7.643   6.448   2.144  0.5135  0.0871  1.1068
  963MOL0     C26990   7.534   6.527   2.125  0.8406  1.0008  0.5704
  963MOL0     C26991   7.536   6.633   2.035 -0.5150 -0.0884  0.9730
  963MOL0     O26992   7.429   6.711   2.016  0.3707  0.0691  0.0633
  963MOL0     C26993   7.344   6.658   1.912 -0.2565 -0.7017  1.0641
  963MOL0     C26994   7.228   6.764   1.900  0.8328 -0.6309 -0.3773
  963MOL0     C26995   7.144   6.776   2.032 -0.0483 -0.1646 -0.0267
  963MOL0     C26996   7.019   6.861   2.000 -0.6876 -1.1469  0.2974
  963MOL0     C26997   6.926   6.857   2.121  1.0331  0.3135 -0.9362
  963MOL0     C26998   6.802   6.949   2.089  0.3643  0.4627 -0.6669
  963MOL0     C26999   6.741   7.019   2.208 -0.3340  1.3510  0.3859
  963MOL0     C27000   6.629   7.113   2.165 -0.0738  0.0289  0.4712
  963MOL0     N27001   6.511   7.033   2.117 -0.3698  0.6604 -0.4471
  963MOL0     C27002   6.484   7.021   1.986  0.1070 -0.1567  0.3696
  963MOL0     C27003   6.364   6.962   1.979 -0.3559  1.0052 -0.0957
  963MOL0     C27004   6.307   6.911   1.857 -0.2348  0.0941 -0.0660
  963MOL0     C27005   6.188   7.005   1.815 -0.6892  1.0021 -0.2771
  963MOL0     C27006   6.214   7.154   1.808 -0.3300  0.4878 -0.4389
  963MOL0     C27007   6.086   7.219   1.753  0.1363  0.6649  0.5157
  963MOL0     O27008   5.977   7.197   1.848 -0.0058 -0.6505 -0.5106
  963MOL0     C27009   5.861   7.251   1.801  0.4423  0.0180 -0.9811
  963MOL0     C27010   5.836   7.331   1.689  0.1581 -0.1242 -0.2151
  963MOL0     C27011   5.709   7.378   1.662  0.3546  0.4086  0.1116
  963MOL0     C27012   5.594   7.345   1.741 -0.2920 -0.3143  0.0941
  963MOL0     C27013   5.456   7.384   1.697  0.5133  0.4582  0.1612
  963MOL0     O27014   5.452   7.438   1.567  1.2073 -0.9190  0.5865
  963MOL0     C27015   5.329   7.474   1.504 -0.2057 -0.3661  0.4516
  963MOL0     C27016   5.223   7.382   1.507  0.0772  0.5495 -0.3509
  963MOL0     C27017   5.093   7.415   1.462  0.0570 -0.5264 -0.1235
  963MOL0     C27018   5.073   7.541   1.403  0.9749 -0.2102  0.1410
  963MOL0     O27019   4.944   7.557   1.348 -0.2488 -0.4371  0.3912
  963MOL0     C27020   4.869   7.654   1.415  0.0919 -0.4478  0.7930
  963MOL0     C27021   4.727   7.652   1.362 -0.1633  1.1417  0.5186
  963MOL0     C27022   4.631   7.735   1.441 -0.3577  0.4043 -0.2435
  963MOL0     C27023   4.499   7.736   1.373  0.0681 -0.6871  0.0594
  963MOL0     C27024   4.505   7.820   1.243 -0.6331 -0.0048 -0.6773
  963MOL0     C27025   4.361   7.840   1.188 -0.1497  0.3046 -0.0319
  963MOL0     C27026   4.313   7.717   1.109  0.4949 -0.1634 -0.5905
  963MOL0     C27027   4.187   7.752   1.037  0.0302  0.6360 -0.0736
  963MOL0    Cl27028   4.221   7.830   0.876  0.2777 -0.4428  0.0149
  963MOL0     C27029   5.180   7.638   1.403  0.6778 -0.3512  0.0385
  963MOL0     C27030   5.309   7.600   1.451  0.7437 -0.4143 -0.1468
  963MOL0     O27031   5.361   7.368   1.774  0.2699 -0.1564  0.9809
  963MOL0     C27032   5.625   7.280   1.857 -0.1303 -0.4287  0.5503
  963MOL0     C27033   5.751   7.233   1.890 -1.0410  0.4069  0.2051
  963MOL0     N27034   6.316   6.933   2.108  0.5877 -0.2111  0.4350
  963MOL0     N27035   6.413   6.972   2.190 -0.3954  0.2566 -0.3482
  963MOL0     C27036   7.666   6.671   1.985  0.6210 -0.1342  0.3609
  963MOL0     C27037   7.787   6.593   2.018  0.3053 -0.6060  0.9212
  963MOL0     C27038   7.991   6.193   2.137 -0.2856  0.7499  0.3705
  963MOL0     C27039   7.978   6.060   2.181 -1.0967 -0.3912 -0.1174
  963MOL0     C27040   8.088   5.990   2.235 -0.4660 -0.0758 -0.0669
  963MOL0     C27041   8.205   6.057   2.263 -0.3843 -0.0151  0.6346
  963MOL0     O27042   8.314   5.997   2.323  0.9043  0.8206 -0.0331
  963MOL0     C27043   8.319   5.856   2.321  0.7598  0.7567  0.7632
  963MOL0     C27044   8.428   5.806   2.428 -0.4042  0.4496  0.7216
  963MOL0     C27045   8.571   5.817   2.374 -0.4216  0.2798 -0.1498
  963MOL0     C27046   8.664   5.729   2.457 -0.6577 -0.2173 -0.3408
  963MOL0     C27047   8.806   5.767   2.445 -0.5112  0.9348 -0.1335
  963MOL0     C27048   8.922   5.792   2.436  1.2247 -0.1231  0.2801
  963MOL0     C27049   8.222   6.186   2.207 -0.2123 -0.1474  0.7972
  963MOL0     C27050   8.120   6.253   2.149  0.3837 -0.1672  1.5304
  963MOL0     H27051   7.620   6.369   2.215 -3.1998  1.4347  1.6301
  963MOL0     H27052   7.435   6.508   2.166  0.8940 -1.2330 -0.2100
  963MOL0     H27053   7.310   6.556   1.933 -0.9494 -0.5457  0.7491
  963MOL0     H27054   7.400   6.655   1.818 -2.3995 -1.7189 -0.2645
  963MOL0     H27055   7.160   6.728   1.823  0.2472 -0.9548  0.2803
  963MOL0     H27056   7.258   6.861   1.858 -1.6195 -0.0603 -0.9716
  963MOL0     H27057   7.201   6.821   2.113  1.1258  0.0348 -0.9395
  963MOL0     H27058   7.102   6.679   2.060  0.2730 -0.1506  0.5105
  963MOL0     H27059   7.057   6.960   1.971 -0.6097 -1.4374 -0.6459
  963MOL0     H27060   6.961   6.820   1.916  0.2768 -2.6495  0.3250
  963MOL0     H27061   6.977   6.891   2.212 -2.6464 -1.0610  1.9308
  963MOL0     H27062   6.894   6.754   2.141  0.9002  0.6596  0.7757
  963MOL0     H27063   6.713   6.898   2.049 -1.6856  1.2000  2.5765
  963MOL0     H27064   6.838   7.027   2.023 -3.1425  1.3822 -1.7036
  963MOL0     H27065   6.715   6.935   2.274  0.7103 -0.4679 -1.4144
  963MOL0     H27066   6.823   7.077   2.252 -0.7737  0.4945  2.4804
  963MOL0     H27067   6.667   7.179   2.086  1.7754 -0.2311  1.0767
  963MOL0     H27068   6.590   7.180   2.242 -0.9044 -0.0402  0.1197
  963MOL0     H27069   6.544   7.052   1.901  3.5992 -0.4129  2.5692
  963MOL0     H27070   6.272   6.809   1.876  1.4442 -0.2117  1.7647
  963MOL0     H27071   6.371   6.909   1.769 -0.8782 -1.4835 -0.5233
  963MOL0     H27072   6.097   6.987   1.873  0.1721  1.6957  1.3757
  963MOL0     H27073   6.176   6.975   1.711 -2.8774  0.9185 -0.0356
  963MOL0     H27074   6.243   7.188   1.908  2.0089  0.8800 -1.1841
  963MOL0     H27075   6.296   7.177   1.739 -0.8655  0.1156 -1.2103
  963MOL0     H27076   6.059   7.174   1.657 -0.9410  1.0509  0.6362
  963MOL0     H27077   6.104   7.327   1.748 -0.6384  0.8776  1.8999
  963MOL0     H27078   5.917   7.357   1.621  0.2099  1.9302  0.5462
  963MOL0     H27079   5.693   7.426   1.566 -1.8707  0.1382  0.2751
  963MOL0     H27080   5.240   7.286   1.555 -2.2780  0.5917  0.7106
  963MOL0     H27081   5.016   7.339   1.462  1.2788 -1.8287 -1.7263
  963MOL0     H27082   4.912   7.749   1.381  1.8514 -1.3887  0.2503
  963MOL0     H27083   4.868   7.643   1.524 -2.7242  1.1284  1.0218
  963MOL0     H27084   4.703   7.546   1.371  2.2643  0.3054 -1.6238
  963MOL0     H27085   4.737   7.681   1.257  2.1226 -0.3184  0.2526
  963MOL0     H27086   4.679   7.833   1.437 -2.8236  1.6629 -3.5190
  963MOL0     H27087   4.639   7.678   1.534 -2.7761  0.0347 -0.2092
  963MOL0     H27088   4.465   7.637   1.341  0.3297 -0.4071 -1.1380
  963MOL0     H27089   4.430   7.785   1.441  1.9036  5.3840 -1.7671
  963MOL0     H27090   4.562   7.775   1.161  1.4169  3.4500 -1.3862
  963MOL0     H27091   4.545   7.919   1.265  1.4880 -0.6889 -1.2422
  963MOL0     H27092   4.355   7.924   1.118  0.9606  0.0968 -0.3951
  963MOL0     H27093   4.300   7.866   1.274  0.1777 -0.7039  0.5161
  963MOL0     H27094   4.387   7.686   1.035  1.2361 -0.4766  0.2690
  963MOL0     H27095   4.296   7.636   1.181 -1.6327  1.7379  1.2324
  963MOL0     H27096   4.112   7.804   1.097 -1.1649 -1.4733  0.3663
  963MOL0     H27097   4.138   7.656   1.016  2.3194 -0.2776 -1.7140
  963MOL0     H27098   5.160   7.735   1.358 -2.6551  0.3697  2.7044
  963MOL0     H27099   5.394   7.666   1.437  1.4157 -0.9275  1.3247
  963MOL0     H27100   5.548   7.270   1.932 -1.6606 -0.2183 -0.9409
  963MOL0     H27101   5.757   7.171   1.978  0.1666 -0.6404 -0.5814
  963MOL0     H27102   7.672   6.754   1.916 -2.0644 -0.5929 -0.5366
  963MOL0     H27103   7.886   6.595   1.974  0.0560 -0.0094  0.3632
  963MOL0     H27104   7.884   6.010   2.160 -0.8165 -0.5291 -1.0749
  963MOL0     H27105   8.073   5.883   2.241  0.3363 -0.1687  0.4661
  963MOL0     H27106   8.343   5.818   2.221  0.4727  1.0462  0.5822
  963MOL0     H27107   8.224   5.816   2.359  0.5811 -0.2677 -0.6484
  963MOL0     H27108   8.411   5.857   2.523 -2.7808 -0.4109  0.8498
  963MOL0     H27109   8.410   5.698   2.435 -1.1764  0.4750 -0.5189
  963MOL0     H27110   8.608   5.918   2.391 -0.3419  0.2052  0.1243
  963MOL0     H27111   8.576   5.784   2.270  0.9520 -0.3448  0.0880
  963MOL0     H27112   8.637   5.738   2.562 -0.1544  2.9934 -0.3810
  963MOL0     H27113   8.661   5.626   2.421  0.3390 -0.1265 -0.7135
  963MOL0     H27114   9.026   5.818   2.439  1.1622  0.1506  0.0403
  963MOL0     H27115   8.323   6.225   2.216 -0.6899  1.1313  0.7916
  963MOL0     H27116   8.121   6.354   2.107 -1.1644 -0.4827  0.6569
  964MOL0     O27117   3.658  10.401   8.740 -0.0201  0.9309  0.7282
  964MOL0     C27118   3.628  10.287   8.714  0.1704  0.1991 -0.3829
  964MOL0     O27119   3.507  10.232   8.720 -0.6210  0.0796  0.5483
  964MOL0     C27120   3.402  10.296   8.787  1.0066  0.5319  0.0389
  964MOL0     C27121   3.332  10.227   8.890 -0.1956 -0.2836  0.5748
  964MOL0     C27122   3.241  10.297   8.973 -0.3910 -0.0518 -0.3436
  964MOL0     C27123   3.210  10.433   8.946 -0.5341  0.0967  0.7218
  964MOL0     O27124   3.115  10.510   9.008  0.1315 -0.6193 -0.0664
  964MOL0     C27125   3.047  10.451   9.118  1.3700 -0.0037 -0.5420
  964MOL0     C27126   2.917  10.539   9.126 -0.7685 -0.4285 -0.8216
  964MOL0     C27127   2.797  10.451   9.163  0.5807 -0.1250 -0.2412
  964MOL0     C27128   2.682  10.553   9.194  0.1053 -0.4018 -0.4099
  964MOL0     C27129   2.551  10.476   9.211  0.0874  0.0748  0.6666
  964MOL0     C27130   2.534  10.411   9.352  0.0842 -0.1811 -0.8745
  964MOL0     C27131   2.417  10.318   9.359  0.5740  0.1851 -0.1460
  964MOL0     C27132   2.426  10.189   9.266 -0.1096 -0.1238  0.6233
  964MOL0     N27133   2.553  10.121   9.290  0.1415  1.2906  1.2761
  964MOL0     C27134   2.666  10.139   9.214 -0.5652 -0.3645 -0.0207
  964MOL0     C27135   2.758  10.052   9.258  0.2906  0.3240  0.5583
  964MOL0     C27136   2.898  10.024   9.217  0.2105 -0.3218  0.0282
  964MOL0     C27137   2.901   9.992   9.069 -0.2125  1.1040  0.4536
  964MOL0     C27138   3.046   9.990   9.004  0.2568 -0.4965  0.3238
  964MOL0     C27139   3.036   9.899   8.884 -0.7085 -0.5548  0.6099
  964MOL0     O27140   3.141   9.922   8.784 -0.0729  0.8392 -0.0396
  964MOL0     C27141   3.258   9.859   8.794  0.1702  1.4547 -0.2347
  964MOL0     C27142   3.301   9.791   8.914 -0.1482  0.0706  0.0753
  964MOL0     C27143   3.420   9.723   8.916  0.0916 -0.5447 -0.1435
  964MOL0     C27144   3.501   9.719   8.796  0.7224 -0.4267 -1.0384
  964MOL0     C27145   3.629   9.650   8.809 -0.3020 -0.0519  1.2867
  964MOL0     O27146   3.669   9.608   8.929  0.3467  0.0490 -0.7777
  964MOL0     C27147   3.772   9.516   8.927 -0.0588 -1.0778  0.0719
  964MOL0     C27148   3.894   9.535   8.853  0.0261  0.0817  0.6672
  964MOL0     C27149   3.983   9.431   8.842  0.1535  0.1725  0.3444
  964MOL0     C27150   3.968   9.304   8.907  0.3233 -0.4915 -0.1071
  964MOL0     O27151   4.062   9.212   8.895 -0.8692  0.0678  0.1866
  964MOL0     C27152   4.003   9.089   8.841  0.0650 -0.3157 -0.2972
  964MOL0     C27153   4.113   9.012   8.773  0.6745 -0.3109  0.3847
  964MOL0     C27154   4.180   9.095   8.667  0.0817 -0.4652 -0.4969
  964MOL0     C27155   4.291   9.003   8.597 -0.5340  0.3919  0.0758
  964MOL0     C27156   4.356   9.063   8.469  0.0845  0.1841 -0.3414
  964MOL0     C27157   4.420   8.943   8.389  0.2955  0.4265 -0.4144
  964MOL0     C27158   4.548   8.885   8.456  0.5218 -0.0171 -0.1937
  964MOL0     C27159   4.674   8.898   8.368  0.2582 -1.0647  0.2697
  964MOL0    Cl27160   4.699   9.066   8.310 -0.1809  0.2037  0.0914
  964MOL0     C27161   3.849   9.286   8.977  0.5227 -0.8852  0.5967
  964MOL0     C27162   3.747   9.388   8.982 -0.5734  1.1423 -0.3849
  964MOL0     O27163   3.684   9.632   8.701 -0.1680  0.0786  0.3179
  964MOL0     C27164   3.457   9.782   8.683 -0.4554 -0.0202 -0.2975
  964MOL0     C27165   3.341   9.853   8.680 -0.0448 -0.3719 -0.1767
  964MOL0     N27166   2.703   9.985   9.367 -0.6142 -0.0239 -0.0098
  964MOL0     N27167   2.578  10.028   9.386 -0.3931  0.3489 -0.4682
  964MOL0     C27168   3.277  10.490   8.837  0.3013  0.3257  0.2825
  964MOL0     C27169   3.372  10.430   8.758  0.2166 -0.5722  0.5757
  964MOL0     C27170   3.733  10.193   8.671 -0.4638  0.1272  0.1757
  964MOL0     C27171   3.853  10.232   8.619  0.0518  1.1063  0.3372
  964MOL0     C27172   3.937  10.135   8.558 -0.0929  0.2514 -0.2804
  964MOL0     C27173   3.906   9.999   8.545  0.1841  0.3431  0.3589
  964MOL0     O27174   4.002   9.902   8.529  0.3502  0.1212 -0.0872
  964MOL0     C27175   4.103   9.926   8.423  0.2229 -0.5294 -0.1020
  964MOL0     C27176   4.173   9.798   8.371  0.4873 -0.0533 -0.3735
  964MOL0     C27177   4.251   9.731   8.490 -0.4165 -0.1943 -0.6721
  964MOL0     C27178   4.289   9.590   8.455  0.5285  0.1194 -0.1878
  964MOL0     C27179   4.378   9.526   8.552 -0.0526  0.1956 -0.6039
  964MOL0     C27180   4.463   9.476   8.624 -0.3668  0.7534  0.7020
  964MOL0     C27181   3.781   9.959   8.597 -0.3932 -0.2123 -0.5603
  964MOL0     C27182   3.697  10.053   8.654 -0.2914 -0.0787  0.6166
  964MOL0     H27183   3.359  10.125   8.915  1.8087  0.0292 -0.1644
  964MOL0     H27184   3.208  10.246   9.063 -3.2266 -1.8917 -2.2810
  964MOL0     H27185   3.099  10.451   9.214  0.1072 -0.8800  0.1535
  964MOL0     H27186   3.013  10.351   9.091 -3.1724  1.0800  0.3640
  964MOL0     H27187   2.896  10.589   9.031  0.1951  0.0425 -0.7903
  964MOL0     H27188   2.933  10.609   9.208 -2.9730 -1.4218  0.5506
  964MOL0     H27189   2.815  10.391   9.253  0.8175 -0.0357 -0.2277
  964MOL0     H27190   2.778  10.388   9.076  3.1524  1.7465 -2.2970
  964MOL0     H27191   2.699  10.594   9.294 -1.6488 -1.2208  0.2760
  964MOL0     H27192   2.685  10.625   9.112  0.5067  1.7297  1.3715
  964MOL0     H27193   2.541  10.395   9.138  1.9028 -1.1276  1.6733
  964MOL0     H27194   2.465  10.540   9.188 -0.4925 -1.2416 -1.0550
  964MOL0     H27195   2.528  10.491   9.425 -2.0564 -1.3994  0.3987
  964MOL0     H27196   2.620  10.350   9.382  0.9779  2.6115  2.9355
  964MOL0     H27197   2.395  10.287   9.461 -0.9038  0.5167 -0.3459
  964MOL0     H27198   2.330  10.380   9.334  1.3958  1.5509  0.2956
  964MOL0     H27199   2.421  10.231   9.165  1.4223 -1.5739 -0.1112
  964MOL0     H27200   2.337  10.126   9.280 -0.5605  0.0721 -1.0357
  964MOL0     H27201   2.679  10.207   9.131 -0.3903  0.8507  0.9714
  964MOL0     H27202   2.930   9.938   9.276 -3.3343 -2.5867 -1.0588
  964MOL0     H27203   2.963  10.112   9.230  0.4022 -0.6503  1.3640
  964MOL0     H27204   2.866  10.085   9.023  1.0895  0.5019 -1.9625
  964MOL0     H27205   2.828   9.920   9.030 -0.6058  1.7930 -0.1183
  964MOL0     H27206   3.083  10.087   8.969  1.7017 -2.0356 -2.8728
  964MOL0     H27207   3.113   9.946   9.078  1.6641 -0.8041 -1.0621
  964MOL0     H27208   2.949   9.927   8.824  0.3709  1.9456  0.0811
  964MOL0     H27209   3.034   9.794   8.913 -1.4327 -0.1663  2.0635
  964MOL0     H27210   3.248   9.804   9.008  1.6780  2.1395  0.9088
  964MOL0     H27211   3.441   9.688   9.017  1.3616  1.3143  0.2934
  964MOL0     H27212   3.902   9.626   8.795  1.7624  0.6582  1.7551
  964MOL0     H27213   4.071   9.440   8.778 -2.0949 -1.4098 -3.2746
  964MOL0     H27214   3.918   9.108   8.774  1.1293  2.3397 -1.0288
  964MOL0     H27215   3.970   9.036   8.931  0.8072  2.0301  1.4833
  964MOL0     H27216   4.066   8.920   8.736 -4.5132  1.1472  2.5473
  964MOL0     H27217   4.185   8.981   8.849  1.4845 -0.2970 -0.3492
  964MOL0     H27218   4.227   9.182   8.714 -1.5097  0.7614 -1.1033
  964MOL0     H27219   4.105   9.139   8.601  1.4422 -0.5675 -2.1837
  964MOL0     H27220   4.365   8.981   8.675 -3.9837 -1.8013  3.0335
  964MOL0     H27221   4.237   8.913   8.565 -0.9935  1.7200 -3.2365
  964MOL0     H27222   4.432   9.135   8.500 -0.8651  1.7747 -1.5885
  964MOL0     H27223   4.282   9.115   8.407 -0.6066 -0.7264 -0.3032
  964MOL0     H27224   4.441   8.966   8.284 -1.3066 -2.2345 -1.4322
  964MOL0     H27225   4.351   8.858   8.383  2.1576 -1.1255 -0.6716
  964MOL0     H27226   4.565   8.943   8.547  1.5992  1.2311 -1.1552
  964MOL0     H27227   4.524   8.783   8.489  2.3104 -0.1541  0.7579
  964MOL0     H27228   4.656   8.839   8.278 -2.7011 -2.1593  1.4365
  964MOL0     H27229   4.756   8.848   8.420  0.6572 -2.2067 -1.3864
  964MOL0     H27230   3.820   9.191   9.021 -1.1708  0.3082  2.2404
  964MOL0     H27231   3.650   9.382   9.030 -0.5614  2.5913 -0.1205
  964MOL0     H27232   3.510   9.786   8.588  2.1670  1.0146  1.0899
  964MOL0     H27233   3.292   9.900   8.595  0.2921 -1.4472 -0.9813
  964MOL0     H27234   3.238  10.588   8.810 -0.1085 -0.3749 -1.9423
  964MOL0     H27235   3.425  10.480   8.677  2.1556 -0.2664  1.9481
  964MOL0     H27236   3.886  10.335   8.622  0.8270  0.9087 -0.9162
  964MOL0     H27237   4.038  10.166   8.532  0.4858  1.2323  2.7505
  964MOL0     H27238   4.181   9.984   8.473 -0.8391  1.0188 -0.1950
  964MOL0     H27239   4.064   9.973   8.333  1.1480 -0.0880 -0.2792
  964MOL0     H27240   4.098   9.729   8.332  0.5358 -0.9241  1.0081
  964MOL0     H27241   4.240   9.809   8.285 -0.7994 -2.1137 -1.7232
  964MOL0     H27242   4.181   9.718   8.573 -2.1019 -0.5858 -2.1171
  964MOL0     H27243   4.335   9.794   8.523  1.2429 -1.4822 -2.2534
  964MOL0     H27244   4.194   9.537   8.453 -0.6309  2.0525  0.7633
  964MOL0     H27245   4.340   9.576   8.359  0.8060 -2.8390  0.3075
  964MOL0     H27246   4.540   9.443   8.691 -0.5697 -0.3045  0.4416
  964MOL0     H27247   3.757   9.855   8.613 -0.4000 -0.0864  0.3038
  964MOL0     H27248   3.597  10.026   8.688 -1.2427 -0.0924 -1.9899
  965MOL0     O27249  11.184   0.044   0.439 -0.6828 -0.3102 -0.3138
  965MOL0     C27250  11.177   0.004   0.552 -0.4401 -0.1119 -0.3084
  965MOL0     O27251  11.116   0.069   0.657  0.3348 -0.5390  0.3034
  965MOL0     C27252  11.027   0.168   0.644 -0.1555 -0.1624  0.3120
  965MOL0     C27253  10.970   0.228   0.766 -0.7924 -0.3845  0.0643
  965MOL0     C27254  10.874   0.327   0.757  0.7551 -0.4196  0.2100
  965MOL0     C27255  10.821   0.366   0.623  0.4076 -0.4015 -0.7696
  965MOL0     O27256  10.723   0.465   0.598  0.0671 -0.6478  0.1528
  965MOL0     C27257  10.649   0.518   0.712  0.4421  0.6877  0.6297
  965MOL0     C27258  10.557   0.632   0.675 -0.5972 -0.8632  0.0797
  965MOL0     C27259  10.451   0.602   0.577  0.0345 -0.2298  0.0098
  965MOL0     C27260  10.371   0.725   0.535  0.2160 -0.5312  0.2458
  965MOL0     C27261  10.253   0.697   0.439 -0.1138  0.7196  0.0560
  965MOL0     C27262  10.129   0.633   0.512 -0.9386 -0.8315 -0.8347
  965MOL0     C27263  10.007   0.621   0.413  0.8887 -0.7082  0.3149
  965MOL0     C27264   9.991   0.480   0.346  0.3883  0.4413 -0.0274
  965MOL0     N27265   9.861   0.459   0.271 -0.2916 -0.1023  0.4814
  965MOL0     C27266   9.817   0.344   0.217  0.0752 -0.4110 -0.2691
  965MOL0     C27267   9.706   0.377   0.146  0.5754 -0.5866  0.0775
  965MOL0     C27268   9.605   0.287   0.096 -0.7319  1.0634 -0.1537
  965MOL0     C27269   9.643   0.235  -0.044 -1.0867 -0.4637  0.5015
  965MOL0     C27270   9.563   0.110  -0.080  1.0666 -0.1621 -0.0579
  965MOL0     C27271   9.644  -0.022  -0.060 -0.4411  0.4942  0.6451
  965MOL0     O27272   9.708  -0.055   0.067 -0.0537  0.5264 -0.1359
  965MOL0     C27273   9.640  -0.120   0.163  0.4551  0.5602 -0.8101
  965MOL0     C27274   9.540  -0.055   0.247 -0.1553  0.2146 -0.1038
  965MOL0     C27275   9.480  -0.129   0.349  0.0517  0.2836  0.6449
  965MOL0     C27276   9.518  -0.263   0.379  0.0884  0.0482  0.5656
  965MOL0     C27277   9.448  -0.343   0.482 -0.0955  0.0266  0.3538
  965MOL0     O27278   9.319  -0.313   0.522  0.3605  0.7101 -0.1583
  965MOL0     C27279   9.257  -0.401   0.613  0.0387  0.2336  0.5465
  965MOL0     C27280   9.291  -0.397   0.747  0.0454  0.0894  0.0353
  965MOL0     C27281   9.217  -0.465   0.844  0.0937  0.3273 -0.2062
  965MOL0     C27282   9.116  -0.552   0.798 -0.1554 -0.2893  0.1299
  965MOL0     O27283   9.037  -0.626   0.888 -0.1627 -0.6763  0.5334
  965MOL0     C27284   9.027  -0.769   0.864 -0.0824  0.0530 -0.0760
  965MOL0     C27285   9.155  -0.846   0.910 -1.5734  0.1746  0.3569
  965MOL0     C27286   9.159  -0.896   1.053  0.2532  0.2369  0.2254
  965MOL0     C27287   9.156  -0.777   1.138  0.4012 -0.5077  0.0059
  965MOL0     C27288   9.166  -0.810   1.286 -0.3501 -0.5276 -0.3853
  965MOL0     C27289   9.298  -0.862   1.322 -0.5796 -0.2604 -0.1270
  965MOL0     C27290   9.328  -0.859   1.474 -0.1026 -0.1274  0.5621
  965MOL0     C27291   9.452  -0.938   1.509  0.1037  0.3935  0.0378
  965MOL0    Cl27292   9.447  -0.993   1.680 -0.3236  0.1678  0.0354
  965MOL0     C27293   9.085  -0.558   0.668  1.0851  0.2559  0.1162
  965MOL0     C27294   9.148  -0.481   0.576 -0.1075 -0.2392 -0.3947
  965MOL0     O27295   9.512  -0.438   0.524 -0.2471  0.2824 -0.0160
  965MOL0     C27296   9.618  -0.321   0.295  1.0151  0.0503 -0.8536
  965MOL0     C27297   9.683  -0.250   0.202 -1.1451 -0.2286  0.0771
  965MOL0     N27298   9.688   0.512   0.153  0.0776 -0.3751  0.0663
  965MOL0     N27299   9.785   0.558   0.222  0.1006 -0.4502 -0.3522
  965MOL0     C27300  10.867   0.305   0.517 -0.3124 -0.9830 -0.0877
  965MOL0     C27301  10.966   0.211   0.524 -0.6851  0.1536 -0.6225
  965MOL0     C27302  11.254  -0.119   0.591  0.3491 -0.0486  0.2606
  965MOL0     C27303  11.354  -0.177   0.500 -0.0158  0.0881 -0.3234
  965MOL0     C27304  11.416  -0.307   0.529  0.1556  0.7931  0.2779
  965MOL0     C27305  11.386  -0.375   0.646  1.0065 -0.0887  0.7927
  965MOL0     O27306  11.429  -0.503   0.684  0.8752  0.0059  1.1357
  965MOL0     C27307  11.559  -0.556   0.627  0.3090  0.3168  0.1563
  965MOL0     C27308  11.540  -0.691   0.552 -0.2660 -0.1835 -0.2983
  965MOL0     C27309  11.669  -0.761   0.520  0.0908 -0.2034  0.8341
  965MOL0     C27310  11.653  -0.902   0.450  0.2395 -0.4787 -0.0279
  965MOL0     C27311  11.777  -0.929   0.372  0.1097  0.0027 -0.0122
  965MOL0     C27312  11.890  -0.942   0.332  0.0130 -0.4682 -0.9384
  965MOL0     C27313  11.289  -0.306   0.730 -0.2080  0.4296  0.3600
  965MOL0     C27314  11.216  -0.188   0.705 -0.1123 -0.1076  0.1290
  965MOL0     H27315  11.008   0.199   0.863  1.2051 -1.4727 -0.9754
  965MOL0     H27316  10.833   0.359   0.853 -0.2229 -0.1173 -0.2942
  965MOL0     H27317  10.732   0.551   0.776  0.7924 -0.6781  0.8979
  965MOL0     H27318  10.608   0.434   0.769  1.7808 -0.0265  0.5889
  965MOL0     H27319  10.621   0.719   0.657  1.8494 -1.9386  2.7369
  965MOL0     H27320  10.512   0.661   0.770  1.6447  1.4768  0.5498
  965MOL0     H27321  10.375   0.536   0.620 -0.6806  2.2062  2.8760
  965MOL0     H27322  10.498   0.559   0.488  1.1462  1.2714 -0.1764
  965MOL0     H27323  10.329   0.766   0.627  0.3772 -1.2168  0.6223
  965MOL0     H27324  10.440   0.799   0.493  0.7528 -0.0664  1.8850
  965MOL0     H27325  10.297   0.631   0.364 -3.8892 -1.1884 -0.6927
  965MOL0     H27326  10.219   0.785   0.382 -2.4704 -1.2372 -1.7871
  965MOL0     H27327  10.111   0.705   0.592 -3.5859 -2.8279  0.4944
  965MOL0     H27328  10.149   0.536   0.557  0.3108  0.0901  0.7127
  965MOL0     H27329   9.918   0.635   0.475  2.0241  2.2669  1.4503
  965MOL0     H27330   9.998   0.692   0.330 -1.1307  0.7579  1.6717
  965MOL0     H27331   9.982   0.398   0.417  2.1498  0.2976  0.0767
  965MOL0     H27332  10.076   0.440   0.290  0.9017 -0.6833  1.5016
  965MOL0     H27333   9.853   0.245   0.243  0.6020  0.1076  1.0387
  965MOL0     H27334   9.505   0.330   0.087 -1.2963  0.5060  2.5311
  965MOL0     H27335   9.590   0.215   0.177  0.5306  1.0716  0.1046
  965MOL0     H27336   9.751   0.216  -0.052 -1.2275 -1.0232 -0.2369
  965MOL0     H27337   9.617   0.309  -0.120 -0.1937 -1.5542 -0.9263
  965MOL0     H27338   9.478   0.102  -0.012  1.8636 -1.2878  0.8351
  965MOL0     H27339   9.531   0.119  -0.184 -1.0034  2.7455  0.7009
  965MOL0     H27340   9.726  -0.026  -0.132  2.0591 -3.2707  3.3631
  965MOL0     H27341   9.570  -0.101  -0.073  0.8084 -0.3951 -1.5046
  965MOL0     H27342   9.490   0.037   0.219 -0.6087 -0.3932 -1.3911
  965MOL0     H27343   9.405  -0.087   0.416  0.7221  0.3788  1.3514
  965MOL0     H27344   9.367  -0.325   0.777  1.2155 -0.3436 -1.7373
  965MOL0     H27345   9.229  -0.440   0.949  1.2228  1.6307 -0.6130
  965MOL0     H27346   9.011  -0.797   0.759  0.8444 -3.5118  0.6290
  965MOL0     H27347   8.941  -0.800   0.923  1.0224 -1.2253  0.9061
  965MOL0     H27348   9.246  -0.788   0.891 -0.9132  0.0361  2.7720
  965MOL0     H27349   9.151  -0.929   0.838 -4.4828  1.3818 -1.0472
  965MOL0     H27350   9.252  -0.955   1.053  1.4951  2.0996  0.1997
  965MOL0     H27351   9.069  -0.951   1.083  0.0338  1.5996  2.2719
  965MOL0     H27352   9.234  -0.709   1.103 -1.1587  1.0509 -0.5604
  965MOL0     H27353   9.064  -0.723   1.115  1.8497  1.3559 -1.7847
  965MOL0     H27354   9.087  -0.880   1.314  0.2796 -0.7749  0.8236
  965MOL0     H27355   9.149  -0.721   1.346  0.3428 -0.4439 -0.3111
  965MOL0     H27356   9.371  -0.790   1.283  0.1453 -0.3570  1.0159
  965MOL0     H27357   9.324  -0.956   1.272 -2.4416 -1.3613  0.8761
  965MOL0     H27358   9.339  -0.753   1.500  1.4793  0.2820 -1.5275
  965MOL0     H27359   9.245  -0.894   1.537 -0.1109  0.8770  1.1333
  965MOL0     H27360   9.539  -0.872   1.513  2.0959 -1.9893  5.4035
  965MOL0     H27361   9.487  -1.019   1.444 -0.1173  0.2382  0.1073
  965MOL0     H27362   9.003  -0.628   0.653  2.1475 -0.9804 -0.1156
  965MOL0     H27363   9.111  -0.498   0.475 -1.2736 -1.4238  0.2074
  965MOL0     H27364   9.648  -0.424   0.312 -1.0704 -0.9961 -3.0431
  965MOL0     H27365   9.764  -0.289   0.141 -1.9273  0.4961 -1.4842
  965MOL0     H27366  10.839   0.337   0.417  0.1349  0.4995  0.2326
  965MOL0     H27367  10.992   0.171   0.427 -0.9411  0.2884 -0.7458
  965MOL0     H27368  11.376  -0.123   0.409  0.7739  0.5770  0.1421
  965MOL0     H27369  11.491  -0.349   0.462  1.1253 -0.9581  2.3358
  965MOL0     H27370  11.623  -0.571   0.714 -1.3704  1.0637  1.5612
  965MOL0     H27371  11.612  -0.488   0.559 -0.9530 -0.5530 -1.7919
  965MOL0     H27372  11.470  -0.752   0.610 -2.7726  1.6407 -1.2419
  965MOL0     H27373  11.489  -0.660   0.461  1.1189  0.9871 -0.7143
  965MOL0     H27374  11.733  -0.778   0.607 -0.4761  1.1566  1.5403
  965MOL0     H27375  11.711  -0.699   0.440  0.1425  1.2122  1.9205
  965MOL0     H27376  11.642  -0.982   0.524 -1.5809 -1.5040 -1.3322
  965MOL0     H27377  11.561  -0.906   0.392  0.1183 -2.6817  0.2441
  965MOL0     H27378  11.995  -0.953   0.314  0.7588  0.3621  2.1950
  965MOL0     H27379  11.278  -0.357   0.825  1.3229 -1.7311 -0.5441
  965MOL0     H27380  11.129  -0.155   0.761  1.3055  0.7094  1.9643
  966MOL0     O27381   6.553   8.684   6.279  0.2323 -0.1345 -0.0538
  966MOL0     C27382   6.629   8.770   6.320 -1.1248  0.0742 -0.3591
  966MOL0     O27383   6.594   8.896   6.351 -0.4942 -0.0255 -0.8489
  966MOL0     C27384   6.482   8.947   6.299  0.5000 -0.0429  0.0870
  966MOL0     C27385   6.359   8.924   6.353 -1.0952  0.2832 -0.0413
  966MOL0     C27386   6.242   8.975   6.297  0.6291  0.1101  0.7206
  966MOL0     C27387   6.256   9.042   6.174 -1.3151 -0.0395 -0.5041
  966MOL0     O27388   6.140   9.065   6.107 -0.6010  0.7019  0.2111
  966MOL0     C27389   6.131   9.152   5.995 -0.5336 -0.1939  0.2399
  966MOL0     C27390   6.150   9.089   5.864 -0.2748  0.2814  0.1684
  966MOL0     C27391   6.053   8.981   5.854  1.1837  0.1414  0.6220
  966MOL0     C27392   6.063   8.938   5.710  0.0765  0.7487 -0.1132
  966MOL0     C27393   5.950   8.831   5.682 -0.2953  0.3023  0.5171
  966MOL0     C27394   5.970   8.772   5.542  0.3651  0.2805 -0.0391
  966MOL0     C27395   5.863   8.655   5.544  1.8148  0.8831 -0.3295
  966MOL0     C27396   5.849   8.586   5.408 -0.4689  0.0935 -0.2651
  966MOL0     N27397   5.755   8.483   5.427 -0.2088 -0.4177  0.7356
  966MOL0     C27398   5.779   8.362   5.486 -0.0081  0.2723  0.7680
  966MOL0     C27399   5.658   8.304   5.488 -0.5386  0.2568 -0.3853
  966MOL0     C27400   5.622   8.162   5.525 -0.0064 -0.7251 -0.1322
  966MOL0     C27401   5.490   8.163   5.610  0.3476 -0.4679 -0.5358
  966MOL0     C27402   5.371   8.156   5.518  0.0680  0.1050  0.1436
  966MOL0     C27403   5.251   8.103   5.592 -0.1455 -0.6978 -0.5380
  966MOL0     O27404   5.144   8.129   5.505  0.1413 -0.1984  0.3699
  966MOL0     C27405   5.022   8.079   5.540  0.9371 -1.2142  0.0370
  966MOL0     C27406   4.916   8.096   5.452  0.3667  0.1564  0.2670
  966MOL0     C27407   4.783   8.067   5.484 -0.0672 -0.9447 -0.3315
  966MOL0     C27408   4.755   8.032   5.617  0.5162 -1.5691  0.0513
  966MOL0     C27409   4.608   8.025   5.647 -1.0682  0.5502  0.2739
  966MOL0     O27410   4.521   8.115   5.583  0.2919  0.1392 -0.5881
  966MOL0     C27411   4.396   8.133   5.636 -0.0284  0.2554 -1.1219
  966MOL0     C27412   4.283   8.072   5.578 -0.3950  0.7143  0.1566
  966MOL0     C27413   4.155   8.099   5.634 -0.5367 -0.4379  0.0443
  966MOL0     C27414   4.133   8.205   5.732 -0.0299  0.9931 -1.2272
  966MOL0     O27415   3.998   8.228   5.767 -0.4642 -1.1572  0.0347
  966MOL0     C27416   3.968   8.336   5.864 -0.6522 -0.6472  0.1211
  966MOL0     C27417   3.816   8.354   5.860  0.5212  0.4403 -0.2406
  966MOL0     C27418   3.752   8.233   5.937  0.1205 -0.5927  0.7384
  966MOL0     C27419   3.600   8.232   5.954  0.0049 -0.5201 -0.3883
  966MOL0     C27420   3.539   8.165   6.078  0.1390  0.5266  0.2287
  966MOL0     C27421   3.388   8.165   6.061  0.0376  0.5623  0.1137
  966MOL0     C27422   3.334   8.101   6.184 -1.4294 -0.1312 -0.0418
  966MOL0     C27423   3.190   8.138   6.213  0.2908  0.5735  0.7072
  966MOL0    Cl27424   3.082   8.088   6.084 -0.2292 -0.3025  0.1760
  966MOL0     C27425   4.248   8.266   5.780  0.2494 -0.0984  0.1170
  966MOL0     C27426   4.375   8.223   5.738 -0.5061 -0.2881  0.0253
  966MOL0     O27427   4.579   7.938   5.732  1.3138 -0.7270  0.2001
  966MOL0     C27428   4.861   8.005   5.703 -0.3704 -0.4474 -0.1020
  966MOL0     C27429   4.991   8.032   5.667 -0.0449  0.2301 -0.1334
  966MOL0     N27430   5.562   8.397   5.443 -0.1514  0.1217 -0.4026
  966MOL0     N27431   5.622   8.506   5.407 -0.4247  0.3727 -0.1092
  966MOL0     C27432   6.385   9.062   6.115  0.5351 -0.3062 -0.8242
  966MOL0     C27433   6.499   9.030   6.189  1.0249  0.6056 -0.2558
  966MOL0     C27434   6.768   8.716   6.352 -0.0780 -0.0712 -0.0729
  966MOL0     C27435   6.823   8.595   6.306  0.0161 -1.1197 -0.2424
  966MOL0     C27436   6.950   8.554   6.340 -1.1206  0.2712  0.3137
  966MOL0     C27437   7.028   8.626   6.428  1.0488  0.4872 -0.3948
  966MOL0     O27438   7.148   8.574   6.472  0.1736  0.0054 -0.1082
  966MOL0     C27439   7.208   8.629   6.594 -0.9088 -1.1615 -0.8601
  966MOL0     C27440   7.307   8.743   6.575  0.5217 -0.0430  0.2675
  966MOL0     C27441   7.415   8.706   6.468  0.1164  0.5809  0.4766
  966MOL0     C27442   7.519   8.807   6.461 -0.1222  0.2467 -0.6352
  966MOL0     C27443   7.607   8.779   6.347  0.6388  0.1624 -0.1757
  966MOL0     C27444   7.654   8.761   6.237 -0.5910 -0.1539  0.1033
  966MOL0     C27445   6.977   8.749   6.474 -0.3240  1.2728  0.2477
  966MOL0     C27446   6.860   8.799   6.428  0.1490  0.2554  0.1861
  966MOL0     H27447   6.344   8.865   6.443  1.1789 -1.3159 -0.6292
  966MOL0     H27448   6.142   8.953   6.333 -0.4590  2.3920 -0.6964
  966MOL0     H27449   6.202   9.235   6.003 -1.0881  0.2162  1.0414
  966MOL0     H27450   6.036   9.205   5.984 -1.4849 -2.1910 -1.8263
  966MOL0     H27451   6.251   9.048   5.852  1.1000  3.6105 -0.9312
  966MOL0     H27452   6.134   9.169   5.791 -1.4789  1.9683  2.1574
  966MOL0     H27453   5.949   9.011   5.875  0.7795 -1.0488  0.3626
  966MOL0     H27454   6.074   8.906   5.931 -1.0842 -0.1549  1.0441
  966MOL0     H27455   6.064   9.028   5.649  3.2396 -0.4148 -1.9879
  966MOL0     H27456   6.160   8.892   5.691  0.6283  1.7044  0.3501
  966MOL0     H27457   5.850   8.874   5.697 -0.7436 -1.0448  1.6269
  966MOL0     H27458   5.963   8.755   5.759  0.3646 -0.5606 -0.4275
  966MOL0     H27459   6.066   8.722   5.529 -0.2897 -0.6718 -1.4673
  966MOL0     H27460   5.961   8.846   5.461  1.4084  0.4092 -0.0432
  966MOL0     H27461   5.888   8.568   5.606  0.6101 -1.0680 -2.4510
  966MOL0     H27462   5.769   8.699   5.580  0.6325 -0.9401 -1.0529
  966MOL0     H27463   5.944   8.546   5.372 -1.0811  1.2097 -3.4263
  966MOL0     H27464   5.821   8.655   5.328 -0.2403 -0.8454 -1.1665
  966MOL0     H27465   5.874   8.313   5.507 -1.5652 -4.1810 -1.1729
  966MOL0     H27466   5.706   8.133   5.589  1.0533  1.0700 -0.6467
  966MOL0     H27467   5.626   8.104   5.432 -0.6248  0.1777 -0.7323
  966MOL0     H27468   5.473   8.251   5.672 -1.6825 -1.9431  1.1432
  966MOL0     H27469   5.499   8.075   5.674  2.0022 -0.3864 -0.6059
  966MOL0     H27470   5.347   8.259   5.491 -2.0111 -0.7945 -1.7201
  966MOL0     H27471   5.380   8.096   5.427  0.3517 -1.3376  1.0750
  966MOL0     H27472   5.225   8.160   5.682  0.7066  3.6259 -2.7270
  966MOL0     H27473   5.264   7.995   5.599 -0.2346 -0.6077  1.3330
  966MOL0     H27474   4.932   8.133   5.351 -0.1120 -0.8664 -0.2074
  966MOL0     H27475   4.710   8.076   5.403 -1.5500  4.6950  1.2032
  966MOL0     H27476   4.284   7.993   5.503 -1.9832  0.7338  0.0773
  966MOL0     H27477   4.062   8.048   5.614 -0.4912 -0.7377  0.5666
  966MOL0     H27478   4.022   8.426   5.832  0.0749 -1.4256 -0.9083
  966MOL0     H27479   3.997   8.314   5.967  1.4431 -1.4074 -0.5693
  966MOL0     H27480   3.776   8.351   5.758 -0.6822  0.4553  0.2058
  966MOL0     H27481   3.782   8.444   5.913 -1.9711  0.4306 -1.6669
  966MOL0     H27482   3.794   8.233   6.038 -0.0813  2.1840  0.9194
  966MOL0     H27483   3.776   8.139   5.887 -0.5144 -0.1635 -0.4169
  966MOL0     H27484   3.567   8.336   5.955  1.0060 -0.1658 -1.5232
  966MOL0     H27485   3.546   8.194   5.867 -1.6405  3.9017 -1.5784
  966MOL0     H27486   3.567   8.226   6.164  0.8862  1.1544 -0.4423
  966MOL0     H27487   3.585   8.066   6.086 -0.7021  0.2398  2.0637
  966MOL0     H27488   3.363   8.104   5.974 -1.0106 -0.8120  1.3159
  966MOL0     H27489   3.353   8.267   6.045  1.2737  1.1561  1.0017
  966MOL0     H27490   3.344   7.992   6.180  0.3247 -0.0903  1.7272
  966MOL0     H27491   3.401   8.142   6.260  1.7397  1.3960 -3.3702
  966MOL0     H27492   3.182   8.246   6.228 -0.2632  0.5423  0.6584
  966MOL0     H27493   3.165   8.095   6.311 -0.7577 -1.3808 -0.3565
  966MOL0     H27494   4.239   8.343   5.857 -1.8755 -0.7059  0.5631
  966MOL0     H27495   4.464   8.267   5.783 -0.5498 -1.1766  1.0345
  966MOL0     H27496   4.833   7.975   5.804 -1.4209 -2.4928 -0.9639
  966MOL0     H27497   5.077   8.019   5.732 -0.2279 -0.4361 -0.0239
  966MOL0     H27498   6.392   9.095   6.012  1.3122  1.5582 -0.2172
  966MOL0     H27499   6.601   9.050   6.157  1.5094 -0.7601  0.3269
  966MOL0     H27500   6.771   8.528   6.238  0.2055 -1.1857 -0.3226
  966MOL0     H27501   6.997   8.464   6.302 -0.8931  0.4401  0.1945
  966MOL0     H27502   7.280   8.556   6.633  1.7811  0.8275 -1.8328
  966MOL0     H27503   7.129   8.656   6.664 -1.7915 -1.8934 -1.5290
  966MOL0     H27504   7.259   8.832   6.534  1.1856 -0.6047 -1.8553
  966MOL0     H27505   7.345   8.777   6.672 -1.8995  1.9996  0.6055
  966MOL0     H27506   7.366   8.690   6.372 -0.7676 -3.1194  1.3981
  966MOL0     H27507   7.461   8.609   6.487 -2.2601 -0.7527 -0.1416
  966MOL0     H27508   7.472   8.904   6.444  1.1256  1.0910  0.4707
  966MOL0     H27509   7.577   8.811   6.554  1.5978  2.5745 -1.7052
  966MOL0     H27510   7.699   8.746   6.141 -0.5716  2.8914 -0.4594
  966MOL0     H27511   7.045   8.821   6.519  0.3643  0.1159  1.1125
  966MOL0     H27512   6.820   8.891   6.469 -1.7059  0.5412 -2.0294
  967MOL0     O27513   7.280   6.185   0.293  1.0669  0.0677 -0.1233
  967MOL0     C27514   7.379   6.211   0.223  0.0248  0.2046  0.2959
  967MOL0     O27515   7.382   6.287   0.112  0.2272  0.2682  0.1042
  967MOL0     C27516   7.259   6.331   0.063  0.0301 -0.5266  0.3299
  967MOL0     C27517   7.187   6.428   0.124 -0.3491  0.4316 -0.2061
  967MOL0     C27518   7.067   6.479   0.073  0.5212 -0.8412  0.3427
  967MOL0     C27519   7.029   6.450  -0.064 -1.1838 -0.4535  0.5027
  967MOL0     O27520   6.932   6.516  -0.140 -0.2334  0.1761  0.1090
  967MOL0     C27521   6.876   6.641  -0.090  1.4107  0.2795 -0.5815
  967MOL0     C27522   6.735   6.663  -0.120  0.0582  0.1864  0.2860
  967MOL0     C27523   6.639   6.546  -0.095 -0.8805  0.8958 -0.7510
  967MOL0     C27524   6.487   6.583  -0.111 -0.3277  0.3439 -0.3468
  967MOL0     C27525   6.403   6.449  -0.106 -0.3590 -0.6274  0.8464
  967MOL0     C27526   6.258   6.480  -0.084  0.6104 -0.3831  0.9145
  967MOL0     C27527   6.181   6.350  -0.076 -0.0242 -0.0273 -0.5199
  967MOL0     C27528   6.029   6.368  -0.073  1.3809  0.0687  0.6933
  967MOL0     N27529   5.976   6.429  -0.196  0.1955  0.5673  0.1954
  967MOL0     C27530   5.973   6.362  -0.312 -0.8366  0.0063  0.0098
  967MOL0     C27531   5.922   6.444  -0.402 -0.1560  0.7854  0.7597
  967MOL0     C27532   5.880   6.421  -0.552 -0.0406  0.2033 -0.7711
  967MOL0     C27533   5.734   6.365  -0.555  0.4286  0.7597  0.1911
  967MOL0     C27534   5.680   6.334  -0.695 -0.0251 -0.0360  0.7801
  967MOL0     C27535   5.524   6.306  -0.700 -1.2682 -0.7254  0.9925
  967MOL0     O27536   5.495   6.247  -0.829  0.5519  0.0479  0.1382
  967MOL0     C27537   5.361   6.228  -0.867 -0.9090 -0.1668 -0.4802
  967MOL0     C27538   5.327   6.130  -0.965  0.5070 -0.6443  0.2781
  967MOL0     C27539   5.192   6.112  -1.006 -0.5766 -0.0831  0.3881
  967MOL0     C27540   5.087   6.193  -0.958 -0.0988 -0.4871  0.4280
  967MOL0     C27541   4.947   6.176  -1.016  0.9445  0.4614 -0.1345
  967MOL0     O27542   4.923   6.049  -1.072 -0.1670  0.3771  0.1655
  967MOL0     C27543   4.799   6.025  -1.124 -0.5868  0.4132  0.6708
  967MOL0     C27544   4.739   6.112  -1.217 -0.9579  0.4653  0.1149
  967MOL0     C27545   4.611   6.077  -1.272  1.1233 -0.3842  0.6086
  967MOL0     C27546   4.544   5.954  -1.245 -0.2403  0.7440  0.9475
  967MOL0     O27547   4.420   5.935  -1.296  0.2689  0.6360 -0.3682
  967MOL0     C27548   4.315   5.932  -1.206  0.4588 -0.3361 -0.1642
  967MOL0     C27549   4.192   5.864  -1.279  0.0917 -0.7228  1.1026
  967MOL0     C27550   4.224   5.733  -1.347  0.3548  0.3622 -0.1903
  967MOL0     C27551   4.262   5.626  -1.240  0.1200  0.2913  0.5762
  967MOL0     C27552   4.310   5.494  -1.290  0.2894  0.6243  0.1613
  967MOL0     C27553   4.395   5.431  -1.174 -0.1715  0.0641  0.2436
  967MOL0     C27554   4.423   5.278  -1.217 -0.7873  0.0330 -0.3367
  967MOL0     C27555   4.451   5.186  -1.093  0.1717 -0.6517 -0.4962
  967MOL0    Cl27556   4.589   5.260  -0.996 -0.0911 -0.2369 -0.0845
  967MOL0     C27557   4.607   5.866  -1.152  0.1759 -0.0023 -0.1578
  967MOL0     C27558   4.730   5.906  -1.095  0.1017  0.0399 -0.1385
  967MOL0     O27559   4.859   6.262  -1.008 -0.7596 -0.4374  0.0112
  967MOL0     C27560   5.116   6.284  -0.860 -0.0270 -0.9281 -0.3539
  967MOL0     C27561   5.250   6.308  -0.821 -0.7202 -0.4852 -0.7281
  967MOL0     N27562   5.897   6.567  -0.335  0.5719  0.6278 -0.9285
  967MOL0     N27563   5.943   6.557  -0.217 -1.3207  0.3811 -0.6746
  967MOL0     C27564   7.108   6.355  -0.123 -0.7525 -0.4598 -0.4586
  967MOL0     C27565   7.222   6.294  -0.066 -0.2003 -0.2262 -0.4564
  967MOL0     C27566   7.509   6.149   0.266  0.1350 -0.0253 -0.5393
  967MOL0     C27567   7.529   6.123   0.403  0.4929  0.6423 -0.0629
  967MOL0     C27568   7.662   6.088   0.441  0.1885 -0.4437 -0.3799
  967MOL0     C27569   7.765   6.066   0.346 -0.2657 -0.0150  0.3309
  967MOL0     O27570   7.887   6.018   0.385  1.0103 -0.2488 -0.1123
  967MOL0     C27571   7.943   6.028   0.521  0.1810  0.1547  1.6306
  967MOL0     C27572   8.099   6.014   0.496 -0.1367 -0.3097  0.0936
  967MOL0     C27573   8.163   6.075   0.615 -0.0711 -0.0246 -0.5334
  967MOL0     C27574   8.307   6.127   0.578 -0.0909 -0.3206 -0.1840
  967MOL0     C27575   8.297   6.260   0.510  0.0187  0.5418 -0.2215
  967MOL0     C27576   8.292   6.368   0.453 -0.2283  0.0146 -0.3280
  967MOL0     C27577   7.732   6.064   0.214 -0.7570  0.6232 -0.8202
  967MOL0     C27578   7.604   6.109   0.177 -0.1606  0.4657 -0.6794
  967MOL0     H27579   7.221   6.469   0.219 -0.6249  0.9487 -0.3291
  967MOL0     H27580   7.034   6.555   0.143  0.6046 -1.0925  0.6561
  967MOL0     H27581   6.924   6.735  -0.117 -0.7009  1.7553  0.5132
  967MOL0     H27582   6.883   6.643   0.019 -2.9855 -1.1593 -0.0678
  967MOL0     H27583   6.727   6.702  -0.222  1.0243 -0.1060  0.0926
  967MOL0     H27584   6.711   6.743  -0.050  2.8289 -0.9270  2.7253
  967MOL0     H27585   6.673   6.495  -0.005 -0.7415 -0.6145 -1.6310
  967MOL0     H27586   6.647   6.474  -0.177 -3.8095 -1.7944  1.1004
  967MOL0     H27587   6.460   6.643  -0.024  0.1872  1.0650 -0.6766
  967MOL0     H27588   6.472   6.641  -0.202 -0.9073  3.3555  1.5463
  967MOL0     H27589   6.445   6.398  -0.019 -0.6401 -0.9770  0.7813
  967MOL0     H27590   6.416   6.383  -0.193 -0.5598  2.8263 -2.0552
  967MOL0     H27591   6.215   6.538  -0.166  1.1638 -1.5840 -0.2577
  967MOL0     H27592   6.240   6.543   0.004  0.2669  1.2045 -0.2449
  967MOL0     H27593   6.211   6.280  -0.155  5.0852 -3.3543  3.6259
  967MOL0     H27594   6.228   6.304   0.012 -0.1166  1.4113  0.3167
  967MOL0     H27595   6.000   6.426   0.015  0.5145  0.7741 -0.0430
  967MOL0     H27596   5.974   6.273  -0.070  0.5984  0.5260  1.2343
  967MOL0     H27597   6.005   6.260  -0.326 -4.1526 -1.0550 -0.6425
  967MOL0     H27598   5.950   6.351  -0.599  1.2931  1.3045 -0.4649
  967MOL0     H27599   5.866   6.513  -0.608 -0.3610 -0.1055 -1.2122
  967MOL0     H27600   5.664   6.439  -0.515 -1.0698  0.6972 -2.1578
  967MOL0     H27601   5.718   6.276  -0.493 -1.1260  4.1937  5.5102
  967MOL0     H27602   5.703   6.405  -0.775 -1.3776 -0.5578 -0.1046
  967MOL0     H27603   5.731   6.243  -0.730  0.1495 -0.0461  1.0527
  967MOL0     H27604   5.475   6.403  -0.687  0.3321  0.5962 -1.9096
  967MOL0     H27605   5.486   6.228  -0.633 -2.7391 -0.4737  0.4923
  967MOL0     H27606   5.397   6.063  -1.015 -0.2073 -0.9923 -0.2813
  967MOL0     H27607   5.166   6.032  -1.074  0.2320  1.2725 -1.6057
  967MOL0     H27608   4.792   6.197  -1.259  1.0685  0.1276  1.8208
  967MOL0     H27609   4.567   6.154  -1.334  3.1901  1.1028  0.8502
  967MOL0     H27610   4.287   6.034  -1.178 -0.7003 -0.4181 -0.9398
  967MOL0     H27611   4.345   5.878  -1.116  2.2242  1.0350  0.1253
  967MOL0     H27612   4.139   5.938  -1.340  1.3997  1.3358  2.3639
  967MOL0     H27613   4.120   5.841  -1.201  1.9174 -0.9528  2.7909
  967MOL0     H27614   4.304   5.750  -1.419  0.0077  2.1388 -0.2051
  967MOL0     H27615   4.134   5.691  -1.394  0.4116 -0.7937  0.6686
  967MOL0     H27616   4.345   5.674  -1.186  1.0779  2.5738 -2.6402
  967MOL0     H27617   4.176   5.608  -1.174 -0.4413  2.4608  0.5071
  967MOL0     H27618   4.360   5.507  -1.386 -1.2890  0.7833 -0.6589
  967MOL0     H27619   4.226   5.429  -1.318 -1.4276  2.4545  0.8737
  967MOL0     H27620   4.330   5.428  -1.086 -0.3860  1.4016  0.1461
  967MOL0     H27621   4.486   5.483  -1.145  0.1277 -0.0439 -0.4675
  967MOL0     H27622   4.343   5.242  -1.282  0.3768 -1.0441 -1.2312
  967MOL0     H27623   4.518   5.274  -1.273  1.2092 -4.6469  2.7344
  967MOL0     H27624   4.485   5.086  -1.125 -2.6657 -2.7888  2.4839
  967MOL0     H27625   4.366   5.165  -1.028 -0.3648  1.2658 -0.5385
  967MOL0     H27626   4.559   5.770  -1.139 -2.8218  1.0907 -2.1752
  967MOL0     H27627   4.771   5.839  -1.019 -2.0861 -0.2581  0.8839
  967MOL0     H27628   5.033   6.336  -0.814  2.1591 -0.0805  2.9612
  967MOL0     H27629   5.277   6.387  -0.752  0.1712  0.1078 -1.7340
  967MOL0     H27630   7.086   6.340  -0.228  1.4639  2.4240 -1.4892
  967MOL0     H27631   7.281   6.221  -0.120  1.9906  0.0927  1.3492
  967MOL0     H27632   7.452   6.136   0.478 -0.1526  1.8119 -0.8948
  967MOL0     H27633   7.695   6.088   0.545  0.9379  1.9112 -0.5675
  967MOL0     H27634   7.906   5.947   0.585  0.5765 -0.8048  0.6927
  967MOL0     H27635   7.914   6.124   0.563 -0.3793  1.0285 -0.5899
  967MOL0     H27636   8.132   5.910   0.481 -1.0279 -0.8083  1.4316
  967MOL0     H27637   8.120   6.080   0.411 -1.0495  3.8264  2.7790
  967MOL0     H27638   8.170   6.003   0.697 -0.1116  3.3771  2.7117
  967MOL0     H27639   8.101   6.151   0.665 -0.9989 -1.4359  0.5440
  967MOL0     H27640   8.369   6.134   0.668  2.8452 -2.2027 -1.8752
  967MOL0     H27641   8.362   6.055   0.516  2.5363 -0.8317  2.5245
  967MOL0     H27642   8.294   6.460   0.397 -0.4505 -0.1303 -0.5791
  967MOL0     H27643   7.787   6.031   0.127 -0.3497  0.6848 -0.5866
  967MOL0     H27644   7.582   6.114   0.071 -1.1377  0.6260 -0.4786
  968MOL0     O27645   3.401   4.900   1.953 -0.2255  0.0910  0.4349
  968MOL0     C27646   3.421   4.818   2.044  0.3846  0.0708  0.0180
  968MOL0     O27647   3.324   4.746   2.113  0.5861 -0.0532  0.0811
  968MOL0     C27648   3.198   4.729   2.070  0.1362  0.4284 -0.5042
  968MOL0     C27649   3.167   4.691   1.937  0.3809 -1.0664  0.0780
  968MOL0     C27650   3.043   4.636   1.896  0.7444  0.2820 -0.5351
  968MOL0     C27651   2.941   4.614   1.991 -0.1544 -0.3881 -0.3830
  968MOL0     O27652   2.828   4.544   1.957  0.5591 -0.5890 -0.2252
  968MOL0     C27653   2.712   4.531   2.041  0.7663 -0.0250 -0.1848
  968MOL0     C27654   2.589   4.489   1.962 -0.0493  0.3288  0.4717
  968MOL0     C27655   2.458   4.484   2.035  0.4152  0.7550  0.3414
  968MOL0     C27656   2.398   4.619   2.033  0.2682 -0.3044 -0.3923
  968MOL0     C27657   2.252   4.625   2.060  0.7381 -0.6772  0.1139
  968MOL0     C27658   2.199   4.552   2.191  0.3003  1.0134 -0.5869
  968MOL0     C27659   2.048   4.592   2.213 -0.4385 -0.6055 -0.6441
  968MOL0     C27660   1.970   4.509   2.326  0.3503 -0.1595  1.2725
  968MOL0     N27661   1.834   4.565   2.329  0.5816  0.2128  0.1193
  968MOL0     C27662   1.773   4.649   2.428  0.1774 -0.8860  0.8205
  968MOL0     C27663   1.642   4.645   2.403 -0.4712 -0.4289 -0.5764
  968MOL0     C27664   1.550   4.707   2.498  0.0085  0.7179  0.0567
  968MOL0     C27665   1.499   4.848   2.454  0.1720  0.2390 -0.2289
  968MOL0     C27666   1.345   4.849   2.443  0.2834 -0.1453 -0.0317
  968MOL0     C27667   1.266   4.827   2.571 -0.3584  0.1893 -0.7819
  968MOL0     O27668   1.280   4.951   2.644  0.3158 -0.6335  0.1473
  968MOL0     C27669   1.180   4.980   2.743  0.0225  0.0681 -0.3860
  968MOL0     C27670   1.196   5.094   2.823 -0.2120  0.1480 -0.1294
  968MOL0     C27671   1.094   5.136   2.910 -0.1912 -0.9639  0.3192
  968MOL0     C27672   0.978   5.058   2.922  0.4764 -0.4906  0.3510
  968MOL0     C27673   0.863   5.104   3.010  0.0386  0.8094 -0.4797
  968MOL0     O27674   0.736   5.051   2.991 -0.1433  0.2952  0.1751
  968MOL0     C27675   0.633   5.092   3.079 -0.8945  0.0113  0.1302
  968MOL0     C27676   0.518   5.147   3.017 -0.2407 -0.3908  0.2905
  968MOL0     C27677   0.410   5.184   3.103 -0.2439 -0.5906  0.8413
  968MOL0     C27678   0.416   5.174   3.238 -0.7430 -0.0921  0.0957
  968MOL0     O27679   0.301   5.210   3.315 -1.0330 -0.3207  0.6212
  968MOL0     C27680   0.295   5.168   3.447 -0.1798  0.0713 -0.4611
  968MOL0     C27681   0.160   5.175   3.516  0.6988 -0.2179  0.1610
  968MOL0     C27682   0.124   5.319   3.549 -0.4720  0.6829 -0.7580
  968MOL0     C27683   0.017   5.325   3.663 -0.1342  0.3566  1.1595
  968MOL0     C27684  -0.115   5.245   3.650 -0.3186 -0.4664 -0.4534
  968MOL0     C27685  -0.195   5.298   3.534 -0.2352  0.4031 -0.7322
  968MOL0     C27686  -0.323   5.210   3.529  0.3859  0.5365  0.0977
  968MOL0     C27687  -0.432   5.279   3.449  0.7903  0.8956  0.0595
  968MOL0    Cl27688  -0.567   5.165   3.403  0.1433  0.3132  0.5527
  968MOL0     C27689   0.533   5.133   3.294  0.6585  0.0319 -0.9523
  968MOL0     C27690   0.634   5.081   3.215 -0.3415 -0.0709 -1.5336
  968MOL0     O27691   0.893   5.195   3.084  0.1340  0.2851 -0.2175
  968MOL0     C27692   0.960   4.938   2.848 -0.2965 -0.3134  0.2596
  968MOL0     C27693   1.062   4.906   2.758  0.9437 -0.1911  0.6676
  968MOL0     N27694   1.612   4.564   2.301 -0.0004  0.8736 -0.4359
  968MOL0     N27695   1.726   4.512   2.263  0.6944 -1.2162 -0.5891
  968MOL0     C27696   2.971   4.646   2.123  0.2699  0.5416 -0.5790
  968MOL0     C27697   3.094   4.709   2.164  0.3419  0.5595  1.3214
  968MOL0     C27698   3.553   4.826   2.104 -0.4091  0.7012 -0.0806
  968MOL0     C27699   3.667   4.857   2.029  0.6213 -0.3401  0.2487
  968MOL0     C27700   3.797   4.859   2.095  1.3530 -0.2589 -0.5248
  968MOL0     C27701   3.815   4.844   2.236 -0.3133  0.7585  0.2134
  968MOL0     O27702   3.934   4.841   2.302 -0.0453  0.2127  0.6491
  968MOL0     C27703   4.061   4.868   2.237  0.4435  0.1839 -0.1194
  968MOL0     C27704   4.162   4.934   2.336 -0.6456  0.2683  0.1884
  968MOL0     C27705   4.197   4.838   2.452  0.1635 -0.0916 -0.2003
  968MOL0     C27706   4.284   4.901   2.552 -0.8200 -0.6685 -0.3720
  968MOL0     C27707   4.422   4.939   2.506 -0.1597  0.5692  0.1380
  968MOL0     C27708   4.542   4.949   2.478  0.2323 -0.2418 -0.0409
  968MOL0     C27709   3.696   4.841   2.310 -0.0807 -0.0276  0.0634
  968MOL0     C27710   3.573   4.822   2.247 -0.4106 -0.5173  0.5728
  968MOL0     H27711   3.243   4.720   1.865 -0.2484  0.9572  0.1609
  968MOL0     H27712   3.030   4.622   1.789  1.4732  0.6011 -0.6690
  968MOL0     H27713   2.687   4.622   2.095  0.4916 -1.2103  1.7627
  968MOL0     H27714   2.743   4.459   2.117  0.0028 -0.8183 -0.6119
  968MOL0     H27715   2.606   4.387   1.926 -0.6278  0.8633 -1.4553
  968MOL0     H27716   2.573   4.548   1.871 -0.7607 -1.6255 -0.7430
  968MOL0     H27717   2.467   4.455   2.140  0.7338  0.7337  0.3087
  968MOL0     H27718   2.399   4.408   1.982  2.3801 -0.1624 -0.6751
  968MOL0     H27719   2.445   4.682   2.109  0.4140  0.2105 -0.8979
  968MOL0     H27720   2.419   4.679   1.944 -1.5932  1.8785  0.5122
  968MOL0     H27721   2.205   4.578   1.973 -0.7939  1.6437 -0.4196
  968MOL0     H27722   2.226   4.731   2.056  1.5957 -0.5103 -1.4237
  968MOL0     H27723   2.253   4.568   2.285 -1.5841 -1.7442  1.1341
  968MOL0     H27724   2.207   4.443   2.177 -0.6542  0.4797  2.1973
  968MOL0     H27725   2.033   4.697   2.241 -0.4513 -0.6096 -0.6345
  968MOL0     H27726   1.994   4.580   2.119 -2.6342  0.7607  0.3744
  968MOL0     H27727   2.027   4.529   2.417  0.1461  3.2964  0.7696
  968MOL0     H27728   1.979   4.403   2.300  0.7341  0.3247 -0.8232
  968MOL0     H27729   1.819   4.696   2.514 -0.7371  0.2865  0.6972
  968MOL0     H27730   1.596   4.714   2.597 -0.2543 -3.7076  0.6895
  968MOL0     H27731   1.470   4.634   2.512  1.4520 -0.4073  3.4923
  968MOL0     H27732   1.538   4.871   2.354 -1.2010 -0.8043 -1.0389
  968MOL0     H27733   1.530   4.936   2.511  1.2502  0.1746 -0.6904
  968MOL0     H27734   1.316   4.941   2.392 -0.1843 -0.4898 -0.3977
  968MOL0     H27735   1.320   4.770   2.372 -0.2046 -2.0900  2.1807
  968MOL0     H27736   1.314   4.744   2.625  0.4499  1.4643  0.5415
  968MOL0     H27737   1.164   4.801   2.543 -0.6061  0.3858 -0.0724
  968MOL0     H27738   1.283   5.159   2.828  0.4394 -0.7472  4.0856
  968MOL0     H27739   1.108   5.234   2.954 -1.8560  1.2372 -3.5525
  968MOL0     H27740   0.510   5.155   2.909 -0.3155  0.3392  0.3483
  968MOL0     H27741   0.324   5.231   3.057 -1.3147 -1.6065  1.7225
  968MOL0     H27742   0.375   5.225   3.494  3.2031 -3.4366 -1.4182
  968MOL0     H27743   0.318   5.061   3.445 -2.9313 -0.7404  2.4311
  968MOL0     H27744   0.172   5.136   3.617 -0.3950  4.9642  2.6418
  968MOL0     H27745   0.083   5.120   3.462 -2.3779  1.3303  2.6276
  968MOL0     H27746   0.085   5.371   3.462 -1.1140  1.5370  0.0211
  968MOL0     H27747   0.215   5.370   3.582  0.5930 -1.6443  0.1104
  968MOL0     H27748   0.070   5.290   3.752  1.0712  1.4762  0.9042
  968MOL0     H27749  -0.002   5.431   3.681 -2.5204  0.2847 -0.4827
  968MOL0     H27750  -0.170   5.259   3.744  0.2619 -4.5641  0.7055
  968MOL0     H27751  -0.088   5.139   3.644  1.6012 -0.1030  0.7152
  968MOL0     H27752  -0.133   5.292   3.444  3.4111 -0.0643  1.6070
  968MOL0     H27753  -0.213   5.406   3.541 -2.1617  0.2528 -2.5179
  968MOL0     H27754  -0.303   5.108   3.493 -0.6228  0.6917 -0.9749
  968MOL0     H27755  -0.354   5.194   3.633 -1.1212  0.8300 -0.2775
  968MOL0     H27756  -0.404   5.338   3.361 -0.6138  0.7900 -0.4970
  968MOL0     H27757  -0.475   5.350   3.520  2.6298  0.2058  1.9400
  968MOL0     H27758   0.554   5.114   3.398  2.3769  0.3716 -1.2136
  968MOL0     H27759   0.715   5.027   3.262 -0.4776  0.4505 -0.6646
  968MOL0     H27760   0.867   4.883   2.863 -0.7428  0.2947 -0.2435
  968MOL0     H27761   1.040   4.814   2.705  1.2667 -0.3201  0.7516
  968MOL0     H27762   2.902   4.620   2.203  1.3536  3.1306  1.3338
  968MOL0     H27763   3.132   4.717   2.265  0.5671  0.8812  1.2118
  968MOL0     H27764   3.660   4.863   1.921  2.0984 -0.4049  0.1307
  968MOL0     H27765   3.884   4.880   2.034  2.0067 -0.9765  0.1512
  968MOL0     H27766   4.037   4.934   2.154 -5.2740 -1.1586  0.0379
  968MOL0     H27767   4.122   4.782   2.207 -1.6397 -0.2445 -3.6741
  968MOL0     H27768   4.254   4.946   2.277 -0.9072  0.3118 -0.2160
  968MOL0     H27769   4.132   5.029   2.379  0.4177  1.2918 -1.2281
  968MOL0     H27770   4.261   4.755   2.420  3.1582  2.0297 -0.1534
  968MOL0     H27771   4.107   4.805   2.504 -0.2563  0.5078 -0.5430
  968MOL0     H27772   4.233   4.990   2.588  0.9130  1.7222 -3.2748
  968MOL0     H27773   4.309   4.842   2.641  2.1785  1.9804  0.7411
  968MOL0     H27774   4.647   4.965   2.460  1.3209 -4.1416  1.7258
  968MOL0     H27775   3.714   4.841   2.417 -0.3726  1.0376  0.1192
  968MOL0     H27776   3.484   4.815   2.308 -1.2294  1.4628 -0.3075
  969MOL0     O27777   9.839   9.045   9.212  0.3446 -0.3191  0.2760
  969MOL0     C27778   9.875   9.129   9.289  0.6577 -0.8592 -0.5533
  969MOL0     O27779   9.783   9.217   9.358 -0.0797  0.0678 -1.0646
  969MOL0     C27780   9.649   9.196   9.331 -0.1491  0.1943  0.2541
  969MOL0     C27781   9.570   9.167   9.440  0.0970 -0.6849  0.0031
  969MOL0     C27782   9.435   9.132   9.420  0.1545 -0.4413 -0.2212
  969MOL0     C27783   9.378   9.150   9.293  1.3497  0.3200 -0.1546
  969MOL0     O27784   9.236   9.117   9.290 -0.8833  1.4013  0.0942
  969MOL0     C27785   9.158   9.198   9.194  0.3380  0.4110 -0.3142
  969MOL0     C27786   9.008   9.175   9.223  0.4515 -0.4204 -0.1224
  969MOL0     C27787   8.960   9.034   9.163  0.0439 -0.4334  1.0829
  969MOL0     C27788   8.811   9.050   9.122  0.5901  0.1862 -0.7398
  969MOL0     C27789   8.758   8.930   9.035 -0.1450 -0.4947  0.9591
  969MOL0     C27790   8.612   8.940   8.997  0.6817 -0.4248  0.0987
  969MOL0     C27791   8.575   8.825   8.904  0.3006  0.5113  0.4361
  969MOL0     C27792   8.524   8.708   8.980 -0.5151  0.2600  0.2918
  969MOL0     N27793   8.429   8.624   8.905 -0.6410  0.8470 -0.3231
  969MOL0     C27794   8.299   8.643   8.899  0.8020 -1.2011 -0.1963
  969MOL0     C27795   8.261   8.557   8.802 -0.0329  0.2690 -0.0485
  969MOL0     C27796   8.117   8.531   8.753  0.1636  0.5055 -0.3908
  969MOL0     C27797   8.070   8.602   8.628  0.0121 -0.5787 -0.0785
  969MOL0     C27798   8.020   8.741   8.663 -0.5107 -0.2500 -0.1728
  969MOL0     C27799   8.119   8.858   8.649 -0.5163  0.6737  0.1689
  969MOL0     O27800   8.192   8.863   8.522 -0.2585  0.1145 -0.5724
  969MOL0     C27801   8.321   8.886   8.540  0.8534 -0.7150 -0.5378
  969MOL0     C27802   8.359   9.019   8.538 -0.0000 -0.4571  0.0051
  969MOL0     C27803   8.493   9.052   8.542 -0.7731 -1.3768  0.4301
  969MOL0     C27804   8.595   8.956   8.552  0.7842 -0.4787  0.0961
  969MOL0     C27805   8.736   9.000   8.575  0.9207 -0.1860 -0.8382
  969MOL0     O27806   8.811   8.913   8.655  0.0871 -0.0676  0.5522
  969MOL0     C27807   8.939   8.946   8.678 -0.7385 -0.6423  0.9641
  969MOL0     C27808   9.041   8.868   8.631  0.4307 -0.2044  0.1105
  969MOL0     C27809   9.177   8.879   8.664  0.5546 -0.5297  0.7860
  969MOL0     C27810   9.209   8.978   8.759 -0.0828  0.0001 -0.1473
  969MOL0     O27811   9.331   9.008   8.818  0.7378 -0.2858 -0.2904
  969MOL0     C27812   9.445   8.946   8.762  0.4938 -0.5912  0.2345
  969MOL0     C27813   9.563   9.015   8.827  0.0754 -0.3295  0.2640
  969MOL0     C27814   9.702   8.995   8.762  1.1311  0.3962 -0.5188
  969MOL0     C27815   9.811   9.050   8.853 -0.8691 -0.1788  1.5327
  969MOL0     C27816   9.949   9.080   8.781  0.1461  0.7543  0.0801
  969MOL0     C27817  10.073   9.088   8.878  0.3891 -0.0091 -0.6331
  969MOL0     C27818  10.196   9.067   8.776 -0.2753  0.1728  0.3213
  969MOL0     C27819  10.332   9.087   8.843  0.3239  0.1549 -0.2963
  969MOL0    Cl27820  10.352   9.255   8.907 -0.4497 -0.1239  0.1748
  969MOL0     C27821   9.113   9.062   8.802  0.3187  0.8991  0.3910
  969MOL0     C27822   8.974   9.048   8.760 -0.2424 -0.5481 -0.8107
  969MOL0     O27823   8.771   9.110   8.534 -0.7191 -0.1380  0.2165
  969MOL0     C27824   8.549   8.824   8.573  0.3224  1.2490  0.6704
  969MOL0     C27825   8.413   8.783   8.561  0.1597 -0.0463 -0.6235
  969MOL0     N27826   8.377   8.504   8.745  0.7507  0.4664 -0.4095
  969MOL0     N27827   8.479   8.552   8.804  0.7559  0.0398 -0.2820
  969MOL0     C27828   9.456   9.188   9.184  0.0746 -0.4871  1.2201
  969MOL0     C27829   9.592   9.212   9.200 -0.2042 -0.1767  0.7114
  969MOL0     C27830  10.021   9.136   9.311  0.8286 -0.5339  0.1374
  969MOL0     C27831  10.113   9.062   9.235 -0.7356  0.0805  0.4391
  969MOL0     C27832  10.255   9.088   9.245  0.4262  0.0120  0.4569
  969MOL0     C27833  10.298   9.184   9.343 -0.0214  0.4924  0.7383
  969MOL0     O27834  10.439   9.203   9.348 -0.7351  0.1404  0.0327
  969MOL0     C27835  10.493   9.283   9.461  0.2826  0.8279 -0.2592
  969MOL0     C27836  10.644   9.294   9.440 -0.1435 -0.0813 -0.1217
  969MOL0     C27837  10.712   9.426   9.476 -0.4147  0.8946 -0.3912
  969MOL0     C27838  10.867   9.411   9.477 -0.4503  1.0756  0.6980
  969MOL0     C27839  10.936   9.538   9.507  0.4390 -0.4858  0.5198
  969MOL0     C27840  11.006   9.637   9.539 -0.5066  0.8170 -1.2999
  969MOL0     C27841  10.203   9.230   9.433 -0.0429  0.1651 -0.2322
  969MOL0     C27842  10.064   9.203   9.422 -0.0079 -0.1091 -0.3118
  969MOL0     H27843   9.616   9.151   9.537  0.6642  0.7750  0.0034
  969MOL0     H27844   9.375   9.099   9.504 -0.7083 -1.6262 -1.2614
  969MOL0     H27845   9.182   9.163   9.093  0.3482  2.5059 -1.0763
  969MOL0     H27846   9.186   9.303   9.209  2.1845  0.0779 -1.0334
  969MOL0     H27847   8.954   9.248   9.163 -2.4138 -2.7907 -0.6880
  969MOL0     H27848   8.976   9.192   9.326  1.4787 -2.0400  0.5020
  969MOL0     H27849   8.971   8.957   9.240 -0.2041 -0.8586  0.6962
  969MOL0     H27850   9.018   8.989   9.082 -1.8760 -2.6764  0.8570
  969MOL0     H27851   8.746   9.063   9.209 -2.3422 -1.4411 -2.5004
  969MOL0     H27852   8.807   9.137   9.055  1.9519  0.2664 -0.7484
  969MOL0     H27853   8.779   8.835   9.085  0.3679 -0.9918 -0.1428
  969MOL0     H27854   8.822   8.923   8.946  1.2925 -0.2851  1.9492
  969MOL0     H27855   8.592   9.037   8.951 -2.3707 -0.6528  0.7440
  969MOL0     H27856   8.561   8.938   9.093  0.3933 -0.1950 -0.0489
  969MOL0     H27857   8.485   8.858   8.851  0.5564  0.7758  0.1639
  969MOL0     H27858   8.658   8.798   8.838 -0.3689  1.7229 -0.9929
  969MOL0     H27859   8.471   8.744   9.069  0.0758 -0.3180  0.8825
  969MOL0     H27860   8.616   8.665   9.019 -1.4356  0.1002  2.4034
  969MOL0     H27861   8.236   8.713   8.954  3.1738  1.2288 -0.3576
  969MOL0     H27862   8.049   8.553   8.837 -0.5331  2.0505 -1.3124
  969MOL0     H27863   8.112   8.427   8.721  2.7666  0.6305 -1.4186
  969MOL0     H27864   7.982   8.554   8.585  0.3107 -0.8006 -0.4490
  969MOL0     H27865   8.149   8.590   8.553  1.0729  0.9047  0.7617
  969MOL0     H27866   7.932   8.763   8.602 -2.2428  1.7855  2.8520
  969MOL0     H27867   7.992   8.758   8.767  0.7026  1.8850 -0.1314
  969MOL0     H27868   8.181   8.851   8.739 -1.1139 -0.5038  0.5043
  969MOL0     H27869   8.066   8.953   8.661  0.5206  1.1456  1.3355
  969MOL0     H27870   8.276   9.089   8.539  3.2474  3.8395 -1.5661
  969MOL0     H27871   8.530   9.151   8.520  1.4590 -2.4318 -0.9265
  969MOL0     H27872   9.017   8.798   8.552 -2.2056 -0.8428  1.3736
  969MOL0     H27873   9.247   8.812   8.615  0.9591 -0.0549  0.6980
  969MOL0     H27874   9.441   8.963   8.654  1.8774  0.4949  0.3257
  969MOL0     H27875   9.446   8.840   8.788  0.7590 -0.4136  0.9772
  969MOL0     H27876   9.562   8.995   8.934 -3.0231 -0.9631  0.1969
  969MOL0     H27877   9.543   9.122   8.837 -0.3226 -0.4565  0.8575
  969MOL0     H27878   9.721   9.051   8.669  3.5178  0.4515 -0.0707
  969MOL0     H27879   9.711   8.889   8.737  2.7268  0.4432 -0.2722
  969MOL0     H27880   9.789   9.148   8.897  0.9624  0.7750  0.4328
  969MOL0     H27881   9.830   8.982   8.937 -0.7060  1.8617  3.2534
  969MOL0     H27882   9.938   9.173   8.725  0.4436  1.7132  1.5533
  969MOL0     H27883   9.969   9.003   8.707 -3.0273  0.1337 -0.2508
  969MOL0     H27884  10.063   9.014   8.957 -0.5094 -1.3126 -1.9113
  969MOL0     H27885  10.070   9.185   8.930 -1.0627 -1.1995  1.6598
  969MOL0     H27886  10.189   8.969   8.729 -0.3969  1.8849 -3.6527
  969MOL0     H27887  10.193   9.144   8.698  1.0690  0.7992  0.8522
  969MOL0     H27888  10.415   9.061   8.777  0.2296  1.3252 -0.8840
  969MOL0     H27889  10.337   9.018   8.929  0.7375  1.5939  0.8794
  969MOL0     H27890   9.134   9.137   8.877 -0.0158 -0.1397  1.5678
  969MOL0     H27891   8.893   9.104   8.805 -1.3147 -1.7827 -1.1447
  969MOL0     H27892   8.626   8.749   8.587  0.5606  1.7921  2.5650
  969MOL0     H27893   8.385   8.679   8.552  1.6071 -0.3087 -2.9773
  969MOL0     H27894   9.419   9.188   9.082 -1.5035 -1.3319  1.7612
  969MOL0     H27895   9.658   9.236   9.117 -0.2129 -1.5767  0.2777
  969MOL0     H27896  10.079   8.993   9.158  3.1253  0.0982 -1.5386
  969MOL0     H27897  10.325   9.035   9.182  2.4205 -1.0602  3.3739
  969MOL0     H27898  10.468   9.246   9.561 -1.9960  1.2858 -0.5979
  969MOL0     H27899  10.439   9.378   9.457 -0.8987  0.1229 -2.7662
  969MOL0     H27900  10.681   9.208   9.497 -0.9031  0.7364  1.6965
  969MOL0     H27901  10.666   9.303   9.334  1.5037  2.8206  0.3640
  969MOL0     H27902  10.671   9.467   9.569  1.4239  3.3210 -0.5600
  969MOL0     H27903  10.693   9.509   9.407  3.6686  3.4992  1.2291
  969MOL0     H27904  10.892   9.332   9.548  1.1568  0.3708 -0.5730
  969MOL0     H27905  10.892   9.381   9.375 -0.2099 -0.2112  1.1251
  969MOL0     H27906  11.056   9.726   9.571 -2.1765  1.3526  0.0019
  969MOL0     H27907  10.239   9.283   9.521 -1.2261  1.1241 -0.2932
  969MOL0     H27908   9.991   9.230   9.499  0.2549  0.0382 -0.1118
  970MOL0     O27909  10.056   9.321   9.707 -0.2739 -0.3653 -0.3076
  970MOL0     C27910  10.047   9.400   9.800  0.4637  0.6150  1.1098
  970MOL0     O27911   9.932   9.456   9.852 -0.5187 -0.6177  0.2311
  970MOL0     C27912   9.804   9.399   9.839 -0.1868 -0.4908  0.4595
  970MOL0     C27913   9.791   9.262   9.815 -0.3766 -0.1772  0.7517
  970MOL0     C27914   9.672   9.206   9.795 -0.0479  0.8506  0.0541
  970MOL0     C27915   9.556   9.287   9.794 -0.0701  0.3128 -0.2169
  970MOL0     O27916   9.445   9.219   9.747  0.2203 -0.6618 -0.0502
  970MOL0     C27917   9.321   9.290   9.752 -0.5934  0.1752 -0.0816
  970MOL0     C27918   9.215   9.176   9.748  0.4882 -0.2054 -0.1920
  970MOL0     C27919   9.067   9.205   9.748  0.8779 -0.1823 -0.2787
  970MOL0     C27920   8.988   9.116   9.657  0.1184 -0.2072 -0.9028
  970MOL0     C27921   8.842   9.160   9.666  0.2405  0.8333  0.3788
  970MOL0     C27922   8.747   9.085   9.568 -0.4654  0.1424 -0.7219
  970MOL0     C27923   8.603   9.134   9.575  0.9329 -0.1393  0.0031
  970MOL0     C27924   8.512   9.069   9.468  0.1359 -0.7465 -0.1537
  970MOL0     N27925   8.502   8.927   9.467  0.8390  0.4209  1.1272
  970MOL0     C27926   8.491   8.858   9.587  0.3350 -0.5945  0.8802
  970MOL0     C27927   8.495   8.727   9.549  1.0279 -0.0056  0.7799
  970MOL0     C27928   8.484   8.607   9.641 -0.7908  0.1513  0.2078
  970MOL0     C27929   8.340   8.592   9.705  0.1614 -0.3518 -0.1258
  970MOL0     C27930   8.230   8.597   9.605  0.8172  0.1311 -0.8543
  970MOL0     C27931   8.095   8.562   9.660 -0.8078  0.5558  0.0515
  970MOL0     O27932   8.004   8.563   9.547  0.3807  0.1221 -0.7467
  970MOL0     C27933   7.871   8.558   9.563 -0.4128 -0.3022 -0.1296
  970MOL0     C27934   7.786   8.599   9.456 -0.3015  0.1058  0.4326
  970MOL0     C27935   7.648   8.611   9.472 -0.1790  0.0094 -0.7607
  970MOL0     C27936   7.586   8.572   9.594  0.4921  0.4292  0.0533
  970MOL0     C27937   7.436   8.575   9.616 -0.0086 -0.3769 -0.0161
  970MOL0     O27938   7.383   8.493   9.713 -0.0902 -0.6072 -0.0615
  970MOL0     C27939   7.253   8.494   9.736  0.5645 -0.0158  0.3964
  970MOL0     C27940   7.169   8.435   9.646  0.4615  0.0155  0.0339
  970MOL0     C27941   7.028   8.447   9.671 -0.2877 -0.2824 -0.0488
  970MOL0     C27942   6.983   8.509   9.790  0.2168  0.5192  0.2717
  970MOL0     O27943   6.844   8.511   9.805 -0.0058  0.6025  0.6632
  970MOL0     C27944   6.778   8.616   9.874  0.1471  0.9495  0.4172
  970MOL0     C27945   6.757   8.738   9.788  0.2765 -0.3913  0.1541
  970MOL0     C27946   6.654   8.731   9.676  0.0571  0.0183  0.1020
  970MOL0     C27947   6.636   8.877   9.625  0.5193  0.8309 -0.1600
  970MOL0     C27948   6.559   8.894   9.492 -0.2010  0.6730  0.3842
  970MOL0     C27949   6.425   8.814   9.477 -1.3514  0.3450 -0.1302
  970MOL0     C27950   6.326   8.850   9.575 -1.0568 -0.1442 -0.1793
  970MOL0     C27951   6.188   8.831   9.514 -0.4732 -0.4185  0.2299
  970MOL0    Cl27952   6.060   8.850   9.627  0.1514 -0.3131  0.2986
  970MOL0     C27953   7.072   8.543   9.885  0.2910  0.0399  0.1372
  970MOL0     C27954   7.210   8.551   9.852 -0.7020 -0.0070  0.5051
  970MOL0     O27955   7.378   8.673   9.561  0.5534 -0.2841  0.3118
  970MOL0     C27956   7.670   8.523   9.697  0.2891 -0.3856 -0.3103
  970MOL0     C27957   7.808   8.525   9.684 -0.5516  0.4603  0.5601
  970MOL0     N27958   8.495   8.718   9.411  0.2065  0.0263  0.0223
  970MOL0     N27959   8.490   8.846   9.358  0.9310  0.4628 -0.5512
  970MOL0     C27960   9.566   9.420   9.828  0.1689  1.0872  0.1356
  970MOL0     C27961   9.689   9.475   9.863  0.8675  0.4836 -0.5518
  970MOL0     C27962  10.175   9.446   9.851 -0.2236  0.1991 -0.3000
  970MOL0     C27963  10.185   9.547   9.945 -0.1454 -0.0664 -0.2083
  970MOL0     C27964  10.314   9.596   9.987 -0.4108  0.5085  0.0028
  970MOL0     C27965  10.435   9.541   9.931 -0.2181 -0.4679 -0.7550
  970MOL0     O27966  10.561   9.587   9.958 -0.8110  0.0131 -0.2821
  970MOL0     C27967  10.585   9.691  10.050 -0.4569  0.0088 -0.3381
  970MOL0     C27968  10.733   9.734  10.054  0.4504 -0.3236  0.0561
  970MOL0     C27969  10.793   9.773   9.917  0.6509  0.1463 -1.0501
  970MOL0     C27970  10.934   9.850   9.931  0.7911 -0.7879 -0.0603
  970MOL0     C27971  11.027   9.756   9.987  0.6874 -0.3592  0.0482
  970MOL0     C27972  11.086   9.660  10.029 -0.3872  0.1060 -0.5781
  970MOL0     C27973  10.416   9.432   9.851  0.4354  0.5225 -0.8708
  970MOL0     C27974  10.296   9.390   9.802  0.6259  0.6774  0.6556
  970MOL0     H27975   9.867   9.185   9.800 -1.0484 -0.9186  1.0931
  970MOL0     H27976   9.678   9.101   9.768  0.8764  0.1021  2.8236
  970MOL0     H27977   9.311   9.347   9.659 -2.4985 -0.5832 -0.3866
  970MOL0     H27978   9.303   9.343   9.846 -2.3306 -2.8974  1.4842
  970MOL0     H27979   9.236   9.106   9.830 -1.6232 -0.5671  0.1018
  970MOL0     H27980   9.229   9.124   9.653  0.4728 -0.0127 -0.2994
  970MOL0     H27981   9.054   9.308   9.713  0.4535 -0.8337 -2.1736
  970MOL0     H27982   9.034   9.208   9.852 -0.6477  0.2152 -0.7395
  970MOL0     H27983   9.010   9.111   9.550 -1.0242  1.4115 -1.2403
  970MOL0     H27984   8.994   9.013   9.695 -1.4557 -0.7435 -2.0033
  970MOL0     H27985   8.830   9.268   9.656  0.5673  1.0258  1.7954
  970MOL0     H27986   8.813   9.145   9.771  0.8644  0.5664  0.5216
  970MOL0     H27987   8.753   8.983   9.606  2.1116  1.4039  2.8928
  970MOL0     H27988   8.785   9.098   9.466 -2.1325  2.9420 -1.1151
  970MOL0     H27989   8.570   9.113   9.678  2.0112  2.3551  0.9425
  970MOL0     H27990   8.591   9.242   9.568 -0.5302 -0.1592  1.3553
  970MOL0     H27991   8.549   9.092   9.368 -1.2231 -1.1933 -0.7840
  970MOL0     H27992   8.410   9.108   9.476 -0.0062 -1.1849  0.2445
  970MOL0     H27993   8.479   8.895   9.689 -2.2069 -0.1498  0.4935
  970MOL0     H27994   8.563   8.608   9.717 -1.7718  1.6123  1.2771
  970MOL0     H27995   8.499   8.519   9.578 -2.3365  0.6885 -0.9654
  970MOL0     H27996   8.323   8.673   9.777  0.4853  0.4497 -0.9243
  970MOL0     H27997   8.338   8.491   9.748  0.8499 -0.0614  0.6147
  970MOL0     H27998   8.219   8.696   9.560 -0.7301  0.1639 -0.4809
  970MOL0     H27999   8.247   8.520   9.529 -0.9905  1.2777 -2.5181
  970MOL0     H28000   8.067   8.620   9.748  1.6013  0.8044  0.7096
  970MOL0     H28001   8.094   8.458   9.695 -1.2316 -0.2266 -2.1201
  970MOL0     H28002   7.842   8.627   9.367 -4.5607 -0.0907 -2.6295
  970MOL0     H28003   7.588   8.649   9.391  1.4315  0.1747 -1.9380
  970MOL0     H28004   7.195   8.376   9.559 -5.3531 -2.2225 -0.5737
  970MOL0     H28005   6.964   8.399   9.598  1.0541 -0.0473 -1.4453
  970MOL0     H28006   6.834   8.641   9.964  0.7940  4.1684 -0.7401
  970MOL0     H28007   6.676   8.581   9.892  1.4917 -5.4271 -1.7632
  970MOL0     H28008   6.854   8.765   9.744  1.1810 -1.2008  1.5768
  970MOL0     H28009   6.728   8.825   9.848 -2.4910 -1.1307  0.0103
  970MOL0     H28010   6.559   8.700   9.721  1.2717  1.3920  3.9676
  970MOL0     H28011   6.688   8.660   9.599  2.4437  0.5067  0.6345
  970MOL0     H28012   6.597   8.935   9.709 -3.9266 -0.0187 -1.3782
  970MOL0     H28013   6.739   8.906   9.602  0.8888 -0.7705 -0.7120
  970MOL0     H28014   6.617   8.859   9.406 -2.1782 -0.2267 -0.6453
  970MOL0     H28015   6.530   9.000   9.492 -0.8985  0.4975  1.3036
  970MOL0     H28016   6.446   8.707   9.481 -1.7791  0.3010  1.3156
  970MOL0     H28017   6.381   8.849   9.383 -0.0026  1.7089 -0.2907
  970MOL0     H28018   6.341   8.786   9.663 -2.6417 -0.1683  0.1060
  970MOL0     H28019   6.338   8.949   9.619 -1.1304 -0.2189  0.0081
  970MOL0     H28020   6.178   8.729   9.477  0.5251 -0.1558 -0.8287
  970MOL0     H28021   6.177   8.899   9.429 -0.8162  0.7097  1.1570
  970MOL0     H28022   7.043   8.593   9.976  0.8011 -2.2321  1.6373
  970MOL0     H28023   7.279   8.608   9.913  2.5492  1.2491 -3.8719
  970MOL0     H28024   7.620   8.494   9.789 -1.6101  0.1871 -1.0997
  970MOL0     H28025   7.876   8.509   9.767  2.2069 -1.6792 -1.8839
  970MOL0     H28026   9.480   9.486   9.833  0.8455  1.9613  0.7844
  970MOL0     H28027   9.701   9.576   9.902  1.1468  0.3526 -0.2922
  970MOL0     H28028  10.098   9.595   9.989 -0.8594 -1.0168 -0.5556
  970MOL0     H28029  10.326   9.680  10.056  0.1166  0.7145 -0.3341
  970MOL0     H28030  10.569   9.645  10.148 -1.0905 -0.4116 -0.6355
  970MOL0     H28031  10.524   9.775  10.016 -1.0143 -0.9401 -1.7487
  970MOL0     H28032  10.740   9.819  10.122  2.6352  0.4177 -0.9899
  970MOL0     H28033  10.787   9.649  10.099 -0.3694 -0.1048  1.5178
  970MOL0     H28034  10.720   9.843   9.875  0.0014  2.1841  2.9593
  970MOL0     H28035  10.805   9.685   9.854  0.2454 -2.0380  1.7441
  970MOL0     H28036  10.973   9.884   9.834 -0.2553  0.6333 -0.0135
  970MOL0     H28037  10.933   9.935  10.000  1.5184  0.0691 -1.0723
  970MOL0     H28038  11.138   9.575  10.069  1.1270 -1.1995 -4.8120
  970MOL0     H28039  10.509   9.392   9.812 -0.3795  0.5946 -3.0095
  970MOL0     H28040  10.290   9.307   9.733 -4.7354  1.9596 -0.9652
  971MOL0     O28041   6.094  11.222   6.910 -0.5872  0.6539  0.5058
  971MOL0     C28042   6.153  11.307   6.982 -0.5072  0.6588  0.4760
  971MOL0     O28043   6.090  11.393   7.064 -0.2843  0.0851 -0.0544
  971MOL0     C28044   5.954  11.415   7.049  0.2849  0.8990  0.8110
  971MOL0     C28045   5.905  11.544   7.044  0.1910  0.4167  0.0855
  971MOL0     C28046   5.774  11.578   7.064  0.1953  1.0450 -0.1601
  971MOL0     C28047   5.673  11.474   7.058 -0.9525 -0.2184  0.3366
  971MOL0     O28048   5.543  11.515   7.081 -0.1538  0.3478  0.0097
  971MOL0     C28049   5.478  11.484   7.210 -0.3584  0.0137  0.6812
  971MOL0     C28050   5.392  11.365   7.213 -0.5362  0.3859 -0.3908
  971MOL0     C28051   5.288  11.356   7.330 -0.0665 -0.3294  0.1655
  971MOL0     C28052   5.223  11.208   7.341  0.6066  0.1285  0.3601
  971MOL0     C28053   5.143  11.199   7.472 -0.2147 -0.5906  0.6894
  971MOL0     C28054   5.090  11.059   7.504 -0.2287 -0.0859 -0.4451
  971MOL0     C28055   4.950  11.031   7.433 -0.0430 -0.3091 -0.0496
  971MOL0     C28056   4.959  11.025   7.277 -0.0517 -0.6221 -0.3486
  971MOL0     N28057   4.864  10.920   7.228  0.0746 -0.5415 -0.5190
  971MOL0     C28058   4.756  10.928   7.143  0.1406 -0.5226  0.5589
  971MOL0     C28059   4.709  10.803   7.118 -0.1736  0.9311 -0.4343
  971MOL0     C28060   4.598  10.785   7.019  0.9302  0.5660  0.3006
  971MOL0     C28061   4.470  10.729   7.092  0.0098 -0.1083  1.1257
  971MOL0     C28062   4.351  10.702   6.989 -0.3687 -0.4869  0.3436
  971MOL0     C28063   4.246  10.619   7.060 -0.3774  0.1124  0.5496
  971MOL0     O28064   4.181  10.685   7.180 -0.0827 -0.5053 -0.4738
  971MOL0     C28065   4.066  10.631   7.231  0.5918 -0.5519  0.8574
  971MOL0     C28066   4.053  10.495   7.262 -0.3136  0.2108  0.2303
  971MOL0     C28067   3.937  10.446   7.319 -0.8200  0.8610 -0.0620
  971MOL0     C28068   3.826  10.533   7.339  0.2916  0.2085  0.7335
  971MOL0     C28069   3.704  10.472   7.399 -0.8504 -0.1282  0.6069
  971MOL0     O28070   3.606  10.564   7.426  0.1598 -0.0083 -0.5469
  971MOL0     C28071   3.474  10.527   7.451 -0.1661 -0.2193 -0.0254
  971MOL0     C28072   3.421  10.399   7.486  0.5280 -0.0623 -0.0297
  971MOL0     C28073   3.286  10.373   7.511  0.2213 -0.2945 -0.4675
  971MOL0     C28074   3.193  10.479   7.497  0.2976  0.6574 -0.2984
  971MOL0     O28075   3.062  10.433   7.531  0.2789  0.8923 -0.0372
  971MOL0     C28076   2.944  10.509   7.507  0.0177  0.7425 -0.4142
  971MOL0     C28077   2.818  10.425   7.454  0.0678  0.3964 -0.6860
  971MOL0     C28078   2.794  10.318   7.569  0.0279  0.1756  0.6399
  971MOL0     C28079   2.683  10.215   7.534 -0.2755 -0.9630  0.0805
  971MOL0     C28080   2.550  10.295   7.567  0.1267 -0.3479  0.2663
  971MOL0     C28081   2.451  10.177   7.565 -0.0475 -0.6241 -0.0182
  971MOL0     C28082   2.394  10.145   7.429 -0.3869  0.1379  0.0457
  971MOL0     C28083   2.287  10.047   7.448  0.5554  0.4377 -0.3759
  971MOL0    Cl28084   2.260   9.948   7.306  0.0608 -0.4363 -0.2159
  971MOL0     C28085   3.239  10.605   7.450  0.2548  0.5144 -0.1722
  971MOL0     C28086   3.374  10.623   7.417  0.5828  0.2235  0.5509
  971MOL0     O28087   3.696  10.351   7.399 -0.7286  0.3307  0.3123
  971MOL0     C28088   3.843  10.666   7.309 -0.2663  0.3062 -1.1182
  971MOL0     C28089   3.963  10.716   7.263 -0.0273  0.1639 -0.2135
  971MOL0     N28090   4.795  10.715   7.192  0.0978  0.3904  0.8033
  971MOL0     N28091   4.887  10.784   7.247  0.4554  0.0005 -0.3444
  971MOL0     C28092   5.713  11.343   7.044  0.4473 -0.3482  1.4124
  971MOL0     C28093   5.855  11.313   7.041  0.4897 -0.0968 -0.1514
  971MOL0     C28094   6.307  11.301   6.977 -0.0120 -0.0158  0.4274
  971MOL0     C28095   6.368  11.199   6.902 -0.0911 -0.5521 -0.3516
  971MOL0     C28096   6.508  11.173   6.908  0.4369 -0.2222 -0.0998
  971MOL0     C28097   6.596  11.265   6.983 -0.2772 -0.8817 -0.4966
  971MOL0     O28098   6.724  11.249   7.011 -0.5253 -0.6654 -0.0579
  971MOL0     C28099   6.812  11.158   6.940 -0.7129 -0.5329  0.5558
  971MOL0     C28100   6.798  11.018   7.002  0.1006 -0.2864  0.1527
  971MOL0     C28101   6.834  10.911   6.898 -0.0379 -0.2373 -1.0067
  971MOL0     C28102   6.994  10.904   6.892  0.2299  0.4879  1.4447
  971MOL0     C28103   7.065  10.994   6.801  0.3793  0.3877  0.3148
  971MOL0     C28104   7.115  11.073   6.728 -0.3012  0.0556  0.1431
  971MOL0     C28105   6.529  11.362   7.053  0.6803 -0.0463  0.1630
  971MOL0     C28106   6.396  11.392   7.040 -0.0308 -0.0497  0.4853
  971MOL0     H28107   5.972  11.629   7.039  0.3666  0.3239  0.7250
  971MOL0     H28108   5.742  11.681   7.064 -0.1713  0.9822 -2.6362
  971MOL0     H28109   5.427  11.579   7.229  1.5729  1.0494  0.8861
  971MOL0     H28110   5.557  11.469   7.284 -0.4403 -1.6525  0.4641
  971MOL0     H28111   5.454  11.274   7.216  2.2999  2.1997  0.5238
  971MOL0     H28112   5.340  11.359   7.118 -3.4057 -0.1422  1.1005
  971MOL0     H28113   5.212  11.434   7.322 -0.6034 -0.8478  0.2182
  971MOL0     H28114   5.338  11.370   7.426 -2.2507 -0.9547  1.4380
  971MOL0     H28115   5.150  11.203   7.259 -0.6856  1.9222  1.3497
  971MOL0     H28116   5.297  11.127   7.331 -1.8633 -2.0544 -2.0054
  971MOL0     H28117   5.054  11.262   7.473 -0.7537 -1.3411  1.7221
  971MOL0     H28118   5.222  11.224   7.543  0.6236 -0.9431 -0.0890
  971MOL0     H28119   5.084  11.063   7.613 -1.3345  1.1770 -0.5222
  971MOL0     H28120   5.161  10.983   7.469  0.4186  0.3966 -0.1964
  971MOL0     H28121   4.910  10.937   7.469  0.4794 -0.2541  0.6905
  971MOL0     H28122   4.874  11.106   7.457  1.0600  1.0671 -0.6670
  971MOL0     H28123   5.055  10.990   7.239 -0.5641 -0.9128 -1.4070
  971MOL0     H28124   4.933  11.118   7.227  1.0735 -1.5078 -2.7071
  971MOL0     H28125   4.722  11.016   7.089 -1.7607 -1.1000  0.7672
  971MOL0     H28126   4.622  10.712   6.941  1.2803  1.8951 -0.8574
  971MOL0     H28127   4.573  10.879   6.969 -1.8997 -0.9822 -1.4538
  971MOL0     H28128   4.427  10.797   7.166 -2.7244 -0.7433  0.2561
  971MOL0     H28129   4.491  10.638   7.150 -0.4811  1.0937  3.2988
  971MOL0     H28130   4.296  10.794   6.965 -0.5679 -0.0859  2.1717
  971MOL0     H28131   4.377  10.651   6.896 -0.9183  0.3534 -0.2842
  971MOL0     H28132   4.296  10.529   7.096 -2.8064 -0.3187  3.2346
  971MOL0     H28133   4.174  10.587   6.984  0.4920 -0.8140  0.0957
  971MOL0     H28134   4.133  10.424   7.242 -0.6390 -0.8114  2.2574
  971MOL0     H28135   3.933  10.341   7.346 -1.7946  0.3711 -1.9270
  971MOL0     H28136   3.485  10.310   7.487  0.0314 -0.4288  1.1025
  971MOL0     H28137   3.252  10.276   7.545  1.8361 -0.7140  0.0466
  971MOL0     H28138   2.973  10.596   7.448 -0.0813  0.2884 -1.1475
  971MOL0     H28139   2.918  10.547   7.606  0.5039  2.7584 -1.0087
  971MOL0     H28140   2.839  10.365   7.365  1.2637 -3.7500  2.0994
  971MOL0     H28141   2.734  10.491   7.432  0.9897  2.2643  1.1207
  971MOL0     H28142   2.777  10.361   7.669 -0.5507  1.6521 -0.0656
  971MOL0     H28143   2.887  10.260   7.577  0.7965  1.3770  0.7533
  971MOL0     H28144   2.682  10.183   7.429 -4.9354 -0.8275 -0.1075
  971MOL0     H28145   2.701  10.127   7.597 -2.0690 -1.8788 -0.6199
  971MOL0     H28146   2.526  10.374   7.495 -1.8024 -2.0564 -1.0737
  971MOL0     H28147   2.553  10.325   7.672 -0.8187  0.8152 -0.0144
  971MOL0     H28148   2.373  10.213   7.633  1.3095 -1.4851  2.1162
  971MOL0     H28149   2.495  10.087   7.609 -1.6803 -1.4325  0.0462
  971MOL0     H28150   2.353  10.225   7.366  0.4892  0.3994 -0.1987
  971MOL0     H28151   2.469  10.103   7.361 -0.3843  0.4499 -0.1462
  971MOL0     H28152   2.196  10.102   7.476  0.8160 -0.3726  2.2940
  971MOL0     H28153   2.310   9.987   7.536 -1.8389 -0.8571 -0.5468
  971MOL0     H28154   3.159  10.676   7.428 -1.3957 -0.8440  1.1646
  971MOL0     H28155   3.404  10.715   7.369  4.3389 -1.2003 -0.1588
  971MOL0     H28156   3.766  10.741   7.326  1.5109  1.5813  2.2710
  971MOL0     H28157   3.975  10.824   7.259 -0.0560  0.2554  1.6005
  971MOL0     H28158   5.640  11.263   7.036  0.2541 -0.3543  2.8614
  971MOL0     H28159   5.885  11.210   7.021 -3.1149 -1.0678 -1.1991
  971MOL0     H28160   6.309  11.139   6.833 -1.1158 -1.1967  1.0415
  971MOL0     H28161   6.541  11.085   6.854  0.9606 -0.6586  0.8975
  971MOL0     H28162   6.918  11.185   6.948 -0.6199 -0.6186 -0.3459
  971MOL0     H28163   6.792  11.158   6.833 -0.3904 -0.0626  0.4929
  971MOL0     H28164   6.860  11.002   7.091  0.9434  0.4447 -0.2814
  971MOL0     H28165   6.696  10.998   7.036  0.3450 -2.7835 -0.3904
  971MOL0     H28166   6.786  10.926   6.802 -2.6588 -2.5884 -0.2083
  971MOL0     H28167   6.797  10.816   6.939  0.4863  0.4280  1.1409
  971MOL0     H28168   7.029  10.905   6.996  4.7846 -2.0784  0.2176
  971MOL0     H28169   7.015  10.803   6.857 -0.3593  0.5389  0.9249
  971MOL0     H28170   7.145  11.153   6.664  4.1032 -0.2176  1.5454
  971MOL0     H28171   6.588  11.430   7.114  0.8007 -0.6972  0.7914
  971MOL0     H28172   6.352  11.476   7.093 -1.8736 -1.7520  1.7703
  972MOL0     O28173   3.809   1.827  11.049  1.0578 -1.5191  0.6037
  972MOL0     C28174   3.852   1.813  10.941 -0.5662  0.9747  0.3700
  972MOL0     O28175   3.782   1.788  10.830 -0.3838 -0.5582  0.4613
  972MOL0     C28176   3.646   1.773  10.828 -0.7444 -0.2579 -0.4179
  972MOL0     C28177   3.580   1.698  10.921  0.3269 -0.0664  0.0477
  972MOL0     C28178   3.443   1.678  10.912 -0.6473  0.7088 -0.9744
  972MOL0     C28179   3.371   1.750  10.819  0.1456 -0.1617  0.0884
  972MOL0     O28180   3.232   1.742  10.836 -0.1550  0.1593  0.2887
  972MOL0     C28181   3.153   1.731  10.716  0.5358  0.6432  0.3391
  972MOL0     C28182   3.020   1.726  10.780 -0.4314 -0.0410  0.2366
  972MOL0     C28183   2.930   1.701  10.666  0.3035  0.2072 -0.0699
  972MOL0     C28184   2.793   1.698  10.733  0.6380  1.3821 -0.2312
  972MOL0     C28185   2.695   1.648  10.631 -0.3176 -0.2618  1.6348
  972MOL0     C28186   2.546   1.664  10.679  0.3854  0.2616  0.3421
  972MOL0     C28187   2.443   1.620  10.578 -0.2278  0.2868 -0.3585
  972MOL0     C28188   2.459   1.700  10.451 -0.2184 -0.6306  0.7084
  972MOL0     N28189   2.342   1.683  10.371  0.3736  0.4531  1.1642
  972MOL0     C28190   2.317   1.583  10.271 -0.9294 -0.2150 -0.7642
  972MOL0     C28191   2.199   1.622  10.226 -0.3501  0.1391 -0.5369
  972MOL0     C28192   2.133   1.531  10.129 -1.2541 -0.0025  0.0462
  972MOL0     C28193   2.199   1.557   9.985 -0.4524  0.4401 -0.1889
  972MOL0     C28194   2.170   1.692   9.925  0.3040 -0.0834  0.0873
  972MOL0     C28195   2.051   1.698   9.822  0.1285 -0.3605  0.4718
  972MOL0     O28196   2.097   1.628   9.699  0.0043  0.0221  0.5217
  972MOL0     C28197   2.007   1.604   9.595 -0.1482 -0.9733 -0.5032
  972MOL0     C28198   2.054   1.606   9.465  0.2074  0.6019  1.3757
  972MOL0     C28199   1.965   1.581   9.359 -0.1646  0.0269  0.1174
  972MOL0     C28200   1.826   1.569   9.375  0.0397  0.6493 -0.1171
  972MOL0     C28201   1.730   1.559   9.265  0.8236  0.2318 -0.1614
  972MOL0     O28202   1.602   1.514   9.287  0.1935 -0.4434  0.4572
  972MOL0     C28203   1.522   1.496   9.173 -0.4046 -0.3570 -0.2640
  972MOL0     C28204   1.448   1.382   9.184 -1.0747  0.3282  0.1004
  972MOL0     C28205   1.357   1.346   9.085  0.4101 -0.3829 -0.6433
  972MOL0     C28206   1.336   1.430   8.974 -0.2209 -0.6839 -0.6598
  972MOL0     O28207   1.245   1.401   8.881 -0.4789 -0.0464 -0.0655
  972MOL0     C28208   1.115   1.405   8.940 -0.3406 -0.0596 -0.3510
  972MOL0     C28209   1.019   1.335   8.843 -1.0905  0.2009 -0.2461
  972MOL0     C28210   0.874   1.343   8.887 -0.9021  0.2971 -0.0109
  972MOL0     C28211   0.802   1.248   8.796  0.6776  0.2633  0.7440
  972MOL0     C28212   0.647   1.250   8.818  0.1335 -0.1985 -0.3086
  972MOL0     C28213   0.584   1.395   8.793 -0.0636 -0.0200  0.3650
  972MOL0     C28214   0.436   1.389   8.769  0.1853 -0.4613  0.2495
  972MOL0     C28215   0.394   1.504   8.673  0.7083  0.6915  0.2404
  972MOL0    Cl28216   0.228   1.477   8.636 -0.1143  0.2196 -0.0643
  972MOL0     C28217   1.407   1.546   8.964 -0.1361  0.0962 -0.2712
  972MOL0     C28218   1.504   1.579   9.062  0.3445  0.1538  0.8576
  972MOL0     O28219   1.778   1.588   9.153 -0.3621  0.0456  0.0638
  972MOL0     C28220   1.779   1.557   9.509  0.6776 -0.5762  0.7570
  972MOL0     C28221   1.870   1.568   9.616 -0.5216  0.4030 -0.0637
  972MOL0     N28222   2.157   1.744  10.266  0.6962  0.5567 -0.5459
  972MOL0     N28223   2.238   1.772  10.361 -0.1029  0.5471  0.1148
  972MOL0     C28224   3.434   1.820  10.718  0.2174 -0.1033  0.2261
  972MOL0     C28225   3.574   1.832  10.719  0.4343  0.2689 -0.6527
  972MOL0     C28226   3.999   1.793  10.931 -0.0702 -0.3791 -0.3251
  972MOL0     C28227   4.054   1.783  10.799  0.0093 -0.4150  0.1665
  972MOL0     C28228   4.190   1.758  10.783  1.0357 -0.0226 -0.6919
  972MOL0     C28229   4.273   1.741  10.902 -0.3341  0.0535 -0.6098
  972MOL0     O28230   4.409   1.739  10.874 -0.7790  0.4243  0.4652
  972MOL0     C28231   4.506   1.749  10.980 -0.2111  0.0745  1.1189
  972MOL0     C28232   4.648   1.717  10.924 -0.6181 -0.3564 -0.2717
  972MOL0     C28233   4.741   1.653  11.031 -0.6237  0.2039  0.3913
  972MOL0     C28234   4.879   1.622  10.966  0.0368  0.2010  0.3948
  972MOL0     C28235   4.977   1.731  10.947 -0.8125  0.2215 -0.1666
  972MOL0     C28236   5.064   1.826  10.937  0.4219 -0.1009 -0.7429
  972MOL0     C28237   4.217   1.769  11.026  0.2664 -0.0553 -0.1154
  972MOL0     C28238   4.080   1.779  11.044  0.3555  0.9104 -0.5114
  972MOL0     H28239   3.651   1.654  10.991  1.4110  0.2083 -0.8482
  972MOL0     H28240   3.395   1.616  10.986 -1.2524  1.6287 -0.5709
  972MOL0     H28241   3.178   1.638  10.664 -1.3310 -0.2839  0.9990
  972MOL0     H28242   3.153   1.822  10.655  2.6430  0.2822 -0.2936
  972MOL0     H28243   2.999   1.822  10.828  2.9452  1.8424 -1.6595
  972MOL0     H28244   3.007   1.642  10.849  3.0332 -1.5807 -0.7332
  972MOL0     H28245   2.953   1.615  10.602  1.5307 -0.8623  1.7097
  972MOL0     H28246   2.927   1.785  10.596  1.1009  0.5913  0.3399
  972MOL0     H28247   2.778   1.625  10.813 -1.6932 -0.5519 -2.2458
  972MOL0     H28248   2.771   1.797  10.773  1.0843  0.9049  1.2936
  972MOL0     H28249   2.710   1.542  10.612 -0.9864  0.0102 -0.8277
  972MOL0     H28250   2.711   1.701  10.536  1.3506 -2.2992  0.7071
  972MOL0     H28251   2.531   1.772  10.687 -0.2814  0.2217 -0.3120
  972MOL0     H28252   2.528   1.631  10.782  0.8488 -0.0960  0.3142
  972MOL0     H28253   2.451   1.512  10.563 -0.9974  0.2854 -0.8084
  972MOL0     H28254   2.344   1.647  10.615 -1.4489 -1.8049 -1.9088
  972MOL0     H28255   2.540   1.655  10.393  0.7165  0.3018  1.2558
  972MOL0     H28256   2.476   1.806  10.471  1.5351 -0.6868 -0.3179
  972MOL0     H28257   2.368   1.494  10.237  2.7323  1.5031 -0.3244
  972MOL0     H28258   2.024   1.535  10.132 -1.3852  0.3303 -2.8251
  972MOL0     H28259   2.149   1.427  10.159 -1.3782 -0.5643 -1.7072
  972MOL0     H28260   2.167   1.481   9.913 -2.0934 -0.2717  1.2252
  972MOL0     H28261   2.307   1.545   9.993 -0.8091 -2.3413  1.9399
  972MOL0     H28262   2.148   1.762  10.006 -2.1412  2.2022 -2.3106
  972MOL0     H28263   2.266   1.723   9.881  0.0575 -1.2285 -1.3425
  972MOL0     H28264   2.016   1.800   9.806  0.1692 -0.6896 -2.2476
  972MOL0     H28265   1.981   1.640   9.883 -0.6057 -0.7250 -0.6966
  972MOL0     H28266   2.159   1.621   9.441 -0.3804  0.9008 -1.3566
  972MOL0     H28267   2.011   1.579   9.261 -0.7668 -0.3172 -0.1631
  972MOL0     H28268   1.470   1.307   9.259 -1.1075  0.4977  0.2803
  972MOL0     H28269   1.307   1.250   9.093 -0.0281 -0.1862 -0.9986
  972MOL0     H28270   1.074   1.505   8.955  0.2269  0.3227 -1.2263
  972MOL0     H28271   1.113   1.353   9.036  1.2068 -1.6724 -1.1321
  972MOL0     H28272   1.051   1.231   8.845  0.3255  0.4948 -2.9789
  972MOL0     H28273   1.036   1.376   8.743  2.6273  0.6112  0.4059
  972MOL0     H28274   0.839   1.444   8.863  0.0905  0.4374 -0.9730
  972MOL0     H28275   0.850   1.320   8.991 -1.0444 -2.0511 -0.5157
  972MOL0     H28276   0.825   1.275   8.692  0.2254  0.1418  0.6093
  972MOL0     H28277   0.835   1.146   8.813  1.1290  0.7910  3.5728
  972MOL0     H28278   0.627   1.200   8.914  0.1478 -0.8426 -0.6381
  972MOL0     H28279   0.600   1.187   8.742 -0.3551  1.8899 -1.7946
  972MOL0     H28280   0.633   1.429   8.702  0.2969  0.7067  0.8200
  972MOL0     H28281   0.614   1.465   8.872  3.1030 -0.0747 -0.6419
  972MOL0     H28282   0.406   1.298   8.717 -0.2575 -0.4752  0.5230
  972MOL0     H28283   0.383   1.391   8.865  0.4501  2.1581  0.4057
  972MOL0     H28284   0.463   1.518   8.590  1.0647 -3.5871 -0.4113
  972MOL0     H28285   0.404   1.588   8.742 -0.3799  2.2101 -1.3909
  972MOL0     H28286   1.380   1.611   8.882 -0.1735 -0.4387 -0.6955
  972MOL0     H28287   1.565   1.668   9.050 -0.0469  0.0749 -3.2754
  972MOL0     H28288   1.671   1.547   9.516  0.5307 -1.5356 -1.7480
  972MOL0     H28289   1.829   1.552   9.715 -1.3262 -0.5399 -0.5348
  972MOL0     H28290   3.383   1.866  10.634  0.9589 -3.0735 -2.0657
  972MOL0     H28291   3.627   1.894  10.647  2.2691  0.6121  0.9187
  972MOL0     H28292   3.999   1.801  10.707  0.3397  1.5577  0.2921
  972MOL0     H28293   4.241   1.754  10.687 -1.3538 -3.4523 -2.0132
  972MOL0     H28294   4.468   1.676  11.052 -1.4265  0.5448  0.9803
  972MOL0     H28295   4.518   1.853  11.014  0.3656  0.6867 -0.8335
  972MOL0     H28296   4.629   1.640  10.849  1.6943 -1.4324  0.1781
  972MOL0     H28297   4.693   1.805  10.877 -0.3217 -1.1428 -1.4967
  972MOL0     H28298   4.701   1.563  11.078  1.8744 -1.1342  0.1449
  972MOL0     H28299   4.758   1.728  11.109  2.5920 -0.0682  0.0914
  972MOL0     H28300   4.940   1.555  11.027  3.5859  2.6959 -0.0847
  972MOL0     H28301   4.852   1.585  10.867 -1.5327  3.7662 -0.6711
  972MOL0     H28302   5.142   1.899  10.928  0.4824 -0.2954 -1.9558
  972MOL0     H28303   4.270   1.769  11.121 -0.2867 -0.2178  0.1991
  972MOL0     H28304   4.046   1.794  11.146  0.8161  1.1289 -0.3862
  973MOL0     O28305   1.919  10.452   0.693  0.0492 -0.5979  0.3621
  973MOL0     C28306   1.963  10.486   0.583  0.2502 -0.5222 -0.1463
  973MOL0     O28307   1.880  10.511   0.470 -0.3648 -0.2925  0.2481
  973MOL0     C28308   1.747  10.505   0.469 -0.0975 -0.6964  0.3310
  973MOL0     C28309   1.666  10.531   0.581 -0.9000  0.2262 -0.3592
  973MOL0     C28310   1.528  10.524   0.590 -0.7422 -0.4700 -0.0295
  973MOL0     C28311   1.465  10.480   0.467  0.5654  0.9335 -0.0897
  973MOL0     O28312   1.331  10.474   0.466  0.0257  0.0960  0.0263
  973MOL0     C28313   1.268  10.401   0.579  0.4782 -0.5944 -0.4022
  973MOL0     C28314   1.131  10.356   0.523 -0.3736  0.4417  0.2046
  973MOL0     C28315   1.044  10.478   0.517 -0.3795 -0.6044  0.1976
  973MOL0     C28316   0.923  10.453   0.429  0.2905  0.2662 -0.2381
  973MOL0     C28317   0.830  10.570   0.415 -0.4237  0.0405  1.3237
  973MOL0     C28318   0.885  10.671   0.303  0.7946 -0.3950 -0.3212
  973MOL0     C28319   0.805  10.803   0.292  0.3508  0.4826 -0.4075
  973MOL0     C28320   0.663  10.785   0.231 -0.0875 -0.7276  1.0617
  973MOL0     N28321   0.591  10.902   0.265  0.0617  0.9369 -0.4523
  973MOL0     C28322   0.629  11.027   0.230 -0.0059  0.7456 -0.3410
  973MOL0     C28323   0.555  11.106   0.318 -0.9745  0.2891  0.1168
  973MOL0     C28324   0.562  11.259   0.329 -0.1595 -0.4826  0.4249
  973MOL0     C28325   0.453  11.331   0.245 -0.8353  0.6549  0.0245
  973MOL0     C28326   0.479  11.476   0.232  0.6068  0.2775 -0.6626
  973MOL0     C28327   0.383  11.545   0.126  0.2371 -0.0824  0.4340
  973MOL0     O28328   0.255  11.480   0.125 -0.0189 -0.8630 -0.2198
  973MOL0     C28329   0.149  11.564   0.089 -0.4445 -0.2922  0.5699
  973MOL0     C28330   0.141  11.624  -0.036  0.5418 -0.3204 -0.2199
  973MOL0     C28331   0.026  11.702  -0.062 -0.7463  0.0397 -0.5422
  973MOL0     C28332  -0.084  11.719   0.028 -0.5841 -0.6811 -0.4083
  973MOL0     C28333  -0.191  11.815  -0.024 -0.2646 -0.2472  0.0773
  973MOL0     O28334  -0.292  11.828   0.058  0.4417 -0.5968 -0.2399
  973MOL0     C28335  -0.406  11.888   0.018 -0.0744  0.3046  0.2023
  973MOL0     C28336  -0.413  12.031   0.021  0.0280  0.8760  0.6551
  973MOL0     C28337  -0.519  12.099  -0.037  0.1872 -0.7331 -0.4034
  973MOL0     C28338  -0.635  12.029  -0.078  0.0125  0.2207 -0.4194
  973MOL0     O28339  -0.748  12.087  -0.132 -0.3109  0.1041 -0.0353
  973MOL0     C28340  -0.744  12.234  -0.150  0.0061  0.4891  0.0675
  973MOL0     C28341  -0.870  12.266  -0.235  0.3192  0.5694  1.0017
  973MOL0     C28342  -1.005  12.226  -0.163 -0.8486 -0.3242 -0.4236
  973MOL0     C28343  -1.120  12.282  -0.241 -0.2007  0.9053  0.1115
  973MOL0     C28344  -1.249  12.285  -0.161 -0.5775  0.6778 -0.8317
  973MOL0     C28345  -1.371  12.329  -0.241 -0.7227  0.5748 -0.2224
  973MOL0     C28346  -1.487  12.354  -0.142  1.2245  0.1639 -0.7749
  973MOL0     C28347  -1.625  12.359  -0.213 -0.2801 -0.3153 -0.1243
  973MOL0    Cl28348  -1.622  12.448  -0.369 -0.2389 -0.0657 -0.3723
  973MOL0     C28349  -0.626  11.887  -0.084  0.3306 -0.5374 -0.0770
  973MOL0     C28350  -0.511  11.815  -0.032  0.4644 -0.5856 -0.7239
  973MOL0     O28351  -0.181  11.863  -0.137 -0.1063 -0.2431  0.5805
  973MOL0     C28352  -0.071  11.653   0.154  0.5365  0.4127 -0.2737
  973MOL0     C28353   0.047  11.573   0.178  0.4504  0.7290  0.7586
  973MOL0     N28354   0.485  11.022   0.401 -0.9671 -0.3262 -0.4913
  973MOL0     N28355   0.517  10.906   0.375 -0.5484 -0.3507 -0.7847
  973MOL0     C28356   1.538  10.446   0.359 -1.1586  0.2926 -0.3578
  973MOL0     C28357   1.678  10.452   0.363 -0.5815 -0.8529  0.2062
  973MOL0     C28358   2.108  10.518   0.583 -0.0467 -0.5408  0.5082
  973MOL0     C28359   2.163  10.591   0.476  0.2735  0.1764 -0.3338
  973MOL0     C28360   2.303  10.608   0.461 -0.5575  0.5501 -0.1843
  973MOL0     C28361   2.386  10.560   0.550 -0.0429 -0.0301  0.2204
  973MOL0     O28362   2.517  10.582   0.525 -0.2469 -0.2878  0.2360
  973MOL0     C28363   2.611  10.565   0.634  0.3833 -0.4360  0.1387
  973MOL0     C28364   2.745  10.635   0.603  1.0577  0.1059 -0.3100
  973MOL0     C28365   2.853  10.583   0.692  0.1400  0.3044  0.2845
  973MOL0     C28366   2.913  10.458   0.626 -0.5197  0.8277  0.0531
  973MOL0     C28367   3.054  10.439   0.679 -0.4113  0.6673 -0.3833
  973MOL0     C28368   3.164  10.418   0.728  0.4778 -0.4045 -0.2088
  973MOL0     C28369   2.335  10.487   0.650 -0.6453 -0.1515  0.1530
  973MOL0     C28370   2.197  10.459   0.662  0.0579  0.0846 -0.2397
  973MOL0     H28371   1.719  10.568   0.668  0.6952 -2.6397 -0.0045
  973MOL0     H28372   1.478  10.555   0.682  1.8165  2.3498  0.5784
  973MOL0     H28373   1.242  10.470   0.660  1.5487  0.2604 -0.7470
  973MOL0     H28374   1.332  10.320   0.615 -0.3070 -0.1791  2.0941
  973MOL0     H28375   1.083  10.279   0.585 -0.8301  2.3592  2.3375
  973MOL0     H28376   1.158  10.318   0.424 -1.1417 -0.0818  0.1784
  973MOL0     H28377   1.103  10.562   0.478  0.1901 -0.5725  1.1153
  973MOL0     H28378   1.017  10.503   0.620  3.1456  0.6570  0.9452
  973MOL0     H28379   0.960  10.427   0.329  2.6572  2.7361 -0.1222
  973MOL0     H28380   0.872  10.370   0.478  0.4875 -0.0560 -0.5708
  973MOL0     H28381   0.837  10.626   0.509  0.3901  1.0843  0.6613
  973MOL0     H28382   0.729  10.531   0.400 -0.7839  0.6861  1.9588
  973MOL0     H28383   0.877  10.633   0.201 -0.0743 -2.9146  0.6037
  973MOL0     H28384   0.991  10.689   0.326  0.6017  2.2377 -1.1285
  973MOL0     H28385   0.804  10.840   0.396  2.4203  3.0269 -1.1762
  973MOL0     H28386   0.864  10.874   0.233 -1.0091 -0.0354 -2.4666
  973MOL0     H28387   0.606  10.698   0.267 -0.6200 -2.0241 -2.4685
  973MOL0     H28388   0.662  10.793   0.122  1.9201 -1.4074  0.9440
  973MOL0     H28389   0.704  11.054   0.157 -0.5286  0.6769 -0.9054
  973MOL0     H28390   0.659  11.297   0.298 -1.4895  1.4658 -1.6211
  973MOL0     H28391   0.561  11.281   0.436  1.2457  0.4406  0.2735
  973MOL0     H28392   0.356  11.320   0.296  0.6928  0.6573  3.1613
  973MOL0     H28393   0.439  11.287   0.146  1.9571  1.4610 -0.8108
  973MOL0     H28394   0.453  11.512   0.331 -0.1928 -0.7398 -0.4831
  973MOL0     H28395   0.583  11.500   0.207  0.8655  0.6614  0.7026
  973MOL0     H28396   0.426  11.529   0.027  0.7619  3.2111 -0.0032
  973MOL0     H28397   0.379  11.653   0.145 -0.0216 -0.4221  2.5543
  973MOL0     H28398   0.213  11.595  -0.112  0.4082 -0.1556 -0.4086
  973MOL0     H28399   0.016  11.741  -0.163  2.5413  2.9213  0.0506
  973MOL0     H28400  -0.328  12.085   0.061 -1.4789  1.7916  2.7582
  973MOL0     H28401  -0.523  12.207  -0.050 -0.5361 -1.0625 -3.9966
  973MOL0     H28402  -0.652  12.264  -0.201  1.1413 -1.8622  0.5843
  973MOL0     H28403  -0.741  12.286  -0.053 -0.7349  4.0694 -1.6540
  973MOL0     H28404  -0.864  12.219  -0.333  1.4254 -0.2513  1.4425
  973MOL0     H28405  -0.876  12.372  -0.262 -3.3023  0.5766  1.2564
  973MOL0     H28406  -1.009  12.281  -0.068 -0.6116 -0.8788 -0.0854
  973MOL0     H28407  -1.015  12.120  -0.138  1.0004  0.1841  3.1927
  973MOL0     H28408  -1.089  12.384  -0.264  0.3287  1.5615  3.2458
  973MOL0     H28409  -1.141  12.216  -0.325  2.2513 -0.9467  0.8318
  973MOL0     H28410  -1.237  12.353  -0.076 -0.0827  1.2746 -1.3671
  973MOL0     H28411  -1.266  12.182  -0.129  3.0546  0.0318 -0.6583
  973MOL0     H28412  -1.406  12.254  -0.312 -2.1771  1.5801 -0.5976
  973MOL0     H28413  -1.355  12.421  -0.298  0.6471  0.4791 -0.0288
  973MOL0     H28414  -1.477  12.273  -0.070 -0.1202 -0.2697 -1.0515
  973MOL0     H28415  -1.476  12.444  -0.080 -0.8962 -0.7824  1.0963
  973MOL0     H28416  -1.717  12.389  -0.162 -0.9637 -0.0607 -1.4638
  973MOL0     H28417  -1.648  12.255  -0.236 -1.0226 -0.4769  1.2190
  973MOL0     H28418  -0.699  11.828  -0.139  0.9243  0.3555 -1.9147
  973MOL0     H28419  -0.515  11.706  -0.027  0.6323 -0.5888 -0.6260
  973MOL0     H28420  -0.140  11.662   0.238 -1.2726  0.3862 -1.6859
  973MOL0     H28421   0.067  11.523   0.272  3.2555  0.8453  0.3046
  973MOL0     H28422   1.491  10.403   0.271  1.8584 -2.5167 -0.7815
  973MOL0     H28423   1.737  10.419   0.278  1.6425  0.0301  1.3367
  973MOL0     H28424   2.112  10.634   0.391  1.8382  1.7128 -0.5697
  973MOL0     H28425   2.350  10.652   0.373  2.9426 -1.3548  0.5207
  973MOL0     H28426   2.631  10.461   0.661 -0.9188 -0.6768  0.2546
  973MOL0     H28427   2.571  10.608   0.726 -2.5581 -1.5736 -0.4774
  973MOL0     H28428   2.777  10.619   0.499  1.3203 -2.7526  0.1242
  973MOL0     H28429   2.737  10.740   0.631  3.8889  0.5006 -0.7314
  973MOL0     H28430   2.806  10.560   0.788 -1.2070  3.3890  0.4651
  973MOL0     H28431   2.921  10.666   0.711  0.4720  0.0547  0.2060
  973MOL0     H28432   2.844  10.375   0.643 -0.6424  0.4833 -1.9684
  973MOL0     H28433   2.924  10.466   0.518 -0.6821  0.2395 -0.0073
  973MOL0     H28434   3.269  10.412   0.748  1.1818 -2.0378 -3.6754
  973MOL0     H28435   2.401  10.442   0.724 -2.5394  1.2844  2.8807
  973MOL0     H28436   2.170  10.374   0.724  0.9129 -1.1532 -1.5023
  974MOL0     O28437   7.203   2.582   5.162  0.7552  0.1567 -0.4635
  974MOL0     C28438   7.250   2.641   5.255 -0.0936 -0.1690 -0.0788
  974MOL0     O28439   7.177   2.705   5.355 -0.3347 -0.1500 -0.2439
  974MOL0     C28440   7.040   2.684   5.359  0.3514 -0.1645  0.3586
  974MOL0     C28441   6.984   2.604   5.462 -0.4441 -0.7742 -0.8491
  974MOL0     C28442   6.847   2.583   5.474 -0.0182 -0.1526  0.0715
  974MOL0     C28443   6.762   2.647   5.387  0.7258  0.0728  0.2794
  974MOL0     O28444   6.628   2.599   5.398 -0.3269  0.1858 -0.1482
  974MOL0     C28445   6.533   2.629   5.297 -0.1496  0.0145 -0.5091
  974MOL0     C28446   6.414   2.537   5.327  1.2006  0.2657 -0.8247
  974MOL0     C28447   6.362   2.558   5.472 -0.7374 -0.3922 -0.7238
  974MOL0     C28448   6.232   2.483   5.497 -0.4347  0.3971  0.4060
  974MOL0     C28449   6.204   2.437   5.641  0.2614 -0.1535 -0.8996
  974MOL0     C28450   6.071   2.377   5.676 -0.1179  0.1238  0.5447
  974MOL0     C28451   6.074   2.313   5.815 -0.3143  0.5007  0.6036
  974MOL0     C28452   5.942   2.308   5.891 -0.8779  0.3116 -0.2067
  974MOL0     N28453   5.896   2.438   5.933 -0.6902 -0.6363  0.0392
  974MOL0     C28454   5.902   2.496   6.055  0.4264  0.1979 -0.2303
  974MOL0     C28455   5.822   2.601   6.042  0.5492 -0.0004 -0.0334
  974MOL0     C28456   5.773   2.691   6.152 -0.7826  0.2069 -0.2546
  974MOL0     C28457   5.633   2.671   6.216  0.5776  1.1460 -0.0060
  974MOL0     C28458   5.523   2.694   6.103  0.0119  0.2850  0.2164
  974MOL0     C28459   5.377   2.704   6.154 -0.5031 -0.4585 -0.1032
  974MOL0     O28460   5.367   2.820   6.238  0.5657  0.3038 -0.6859
  974MOL0     C28461   5.240   2.864   6.277 -0.9770  0.3012  0.3500
  974MOL0     C28462   5.121   2.807   6.231  0.1538 -0.4227  1.1145
  974MOL0     C28463   4.993   2.853   6.274 -0.1536 -0.7610 -0.3561
  974MOL0     C28464   4.970   2.969   6.354 -0.7123  0.2904  0.2040
  974MOL0     C28465   4.844   3.035   6.373  0.1538  0.4670 -0.6708
  974MOL0     O28466   4.733   2.952   6.340 -0.5816 -0.1113 -0.3891
  974MOL0     C28467   4.603   2.992   6.362 -0.3549  0.1024  0.1676
  974MOL0     C28468   4.500   2.939   6.280 -0.4199  0.1257  0.0192
  974MOL0     C28469   4.368   2.970   6.291 -0.1541 -0.0627 -0.3827
  974MOL0     C28470   4.336   3.054   6.391 -0.3059 -0.0815  0.1955
  974MOL0     O28471   4.198   3.078   6.409 -0.1010 -0.0168 -0.2898
  974MOL0     C28472   4.152   3.168   6.310  0.4394 -0.0537 -0.1328
  974MOL0     C28473   3.999   3.182   6.330  0.6445  0.8263  0.2443
  974MOL0     C28474   3.928   3.066   6.264 -0.0302  0.6352  0.2136
  974MOL0     C28475   3.776   3.097   6.268 -0.2965 -0.0583  0.8551
  974MOL0     C28476   3.696   2.967   6.243 -0.1654  0.0058 -0.6569
  974MOL0     C28477   3.553   2.986   6.209 -0.2653  0.3651  0.3820
  974MOL0     C28478   3.490   2.839   6.199  0.0089 -0.6214  0.6637
  974MOL0     C28479   3.339   2.850   6.155  0.5730 -0.1624  0.4108
  974MOL0    Cl28480   3.336   2.923   5.986 -0.1082 -0.4540 -0.1326
  974MOL0     C28481   4.426   3.118   6.471  0.9412 -0.0990 -0.7876
  974MOL0     C28482   4.561   3.076   6.464  0.3128 -0.6956 -0.0846
  974MOL0     O28483   4.836   3.157   6.396  0.1094 -0.4967  0.1418
  974MOL0     C28484   5.096   3.024   6.395  0.1711 -0.2666 -0.7473
  974MOL0     C28485   5.226   2.971   6.362 -0.2039 -0.3363  0.0297
  974MOL0     N28486   5.774   2.612   5.911  0.1732 -0.4178 -0.6365
  974MOL0     N28487   5.828   2.514   5.845  0.4417  0.5997  0.1492
  974MOL0     C28488   6.818   2.726   5.286 -0.3932 -0.4726 -0.2758
  974MOL0     C28489   6.955   2.744   5.269  0.0475  0.0433 -0.7674
  974MOL0     C28490   7.394   2.655   5.275  0.0775 -0.1023  0.2979
  974MOL0     C28491   7.485   2.621   5.170 -0.3519  1.0309 -0.0566
  974MOL0     C28492   7.619   2.652   5.174 -0.3357  0.2883 -0.5686
  974MOL0     C28493   7.675   2.721   5.279  0.4036 -0.4793  0.4281
  974MOL0     O28494   7.809   2.740   5.277  0.0816 -0.7081  0.0911
  974MOL0     C28495   7.873   2.834   5.370 -0.1756  1.5987 -0.3342
  974MOL0     C28496   8.003   2.885   5.306 -1.1022 -0.4098  0.2339
  974MOL0     C28497   8.115   2.766   5.303  0.1175 -1.0048  0.1343
  974MOL0     C28498   8.185   2.774   5.437 -0.9675  0.7072 -0.5112
  974MOL0     C28499   8.298   2.684   5.413  0.0088 -0.1503 -0.4086
  974MOL0     C28500   8.397   2.612   5.393 -0.3699 -0.5225  0.1802
  974MOL0     C28501   7.584   2.759   5.382  0.1197  0.5638 -0.4689
  974MOL0     C28502   7.450   2.726   5.377  0.1707  0.4335 -0.0591
  974MOL0     H28503   7.050   2.564   5.538  0.6358 -1.8767 -2.3247
  974MOL0     H28504   6.811   2.514   5.550 -1.1548 -0.0295 -0.3396
  974MOL0     H28505   6.578   2.603   5.201  4.8162  1.4321  1.1356
  974MOL0     H28506   6.501   2.733   5.293 -2.3671 -0.4976  1.8464
  974MOL0     H28507   6.450   2.434   5.322  4.0793  1.1898 -0.6331
  974MOL0     H28508   6.326   2.564   5.268  0.2071 -2.1246 -0.5893
  974MOL0     H28509   6.338   2.662   5.496  0.5900 -0.4178  0.9346
  974MOL0     H28510   6.440   2.526   5.542  0.4993  1.0576 -1.3524
  974MOL0     H28511   6.146   2.539   5.457 -0.7834 -0.7592 -0.5407
  974MOL0     H28512   6.231   2.389   5.441  3.3887  1.3673 -1.6173
  974MOL0     H28513   6.212   2.526   5.704 -0.1900 -1.6564  1.3941
  974MOL0     H28514   6.289   2.375   5.672 -0.1485 -0.4928 -0.4532
  974MOL0     H28515   6.055   2.296   5.604 -2.2454 -0.4855  1.6458
  974MOL0     H28516   5.991   2.450   5.673  0.3250  0.6867  1.9268
  974MOL0     H28517   6.117   2.214   5.804  2.0795  1.6648 -1.7869
  974MOL0     H28518   6.148   2.363   5.877  1.9554  0.0583 -1.5701
  974MOL0     H28519   5.949   2.242   5.978 -0.0018  2.1262  1.1723
  974MOL0     H28520   5.870   2.269   5.818  0.7722 -0.6490 -1.3973
  974MOL0     H28521   5.952   2.461   6.145 -0.8836 -0.6270  0.1953
  974MOL0     H28522   5.783   2.796   6.126  1.8447  0.6219  1.9027
  974MOL0     H28523   5.851   2.674   6.227 -0.4960  2.0516 -0.1050
  974MOL0     H28524   5.611   2.738   6.300 -0.9538 -0.4856  0.9570
  974MOL0     H28525   5.619   2.570   6.254 -1.2624  0.4550 -2.3063
  974MOL0     H28526   5.541   2.795   6.065 -0.2409  1.4571  2.9621
  974MOL0     H28527   5.538   2.622   6.022  2.9805 -0.3369  1.1939
  974MOL0     H28528   5.346   2.612   6.205  0.3880 -0.2953  0.7914
  974MOL0     H28529   5.309   2.714   6.070  0.6072  2.7865 -0.7744
  974MOL0     H28530   5.118   2.715   6.174 -1.6488  0.4078 -0.2239
  974MOL0     H28531   4.907   2.805   6.229 -0.4726 -0.1457 -0.4218
  974MOL0     H28532   4.533   2.876   6.199  0.7294 -1.1235  1.4018
  974MOL0     H28533   4.302   2.909   6.229 -0.1696  0.5453 -0.9798
  974MOL0     H28534   4.165   3.130   6.209 -0.6887  0.3199 -0.4304
  974MOL0     H28535   4.195   3.266   6.334 -0.7482  0.0924  1.5544
  974MOL0     H28536   3.969   3.279   6.291 -3.7001  0.6629  2.5695
  974MOL0     H28537   3.963   3.183   6.433 -2.8678 -0.6080 -0.8319
  974MOL0     H28538   3.944   2.973   6.320 -0.2925 -0.0658 -0.8574
  974MOL0     H28539   3.964   3.052   6.162  1.9695 -3.0448  1.2633
  974MOL0     H28540   3.764   3.141   6.367  1.0469  0.5645  0.7611
  974MOL0     H28541   3.757   3.168   6.187  2.5800  1.1964  1.1436
  974MOL0     H28542   3.695   2.889   6.320 -1.7715 -2.7338 -3.2399
  974MOL0     H28543   3.744   2.922   6.156 -0.8880  0.2001 -1.1638
  974MOL0     H28544   3.549   3.040   6.114  0.2295 -3.1772 -1.8350
  974MOL0     H28545   3.515   3.038   6.298 -0.0996 -0.7000  1.0929
  974MOL0     H28546   3.535   2.778   6.120 -2.2669  1.4178 -2.4413
  974MOL0     H28547   3.486   2.794   6.299 -3.7989  0.6958  1.2559
  974MOL0     H28548   3.283   2.914   6.223 -2.3175  0.5142 -2.3491
  974MOL0     H28549   3.288   2.754   6.151 -0.3636  0.3544 -1.5328
  974MOL0     H28550   4.377   3.175   6.549  0.5396  2.4942 -2.7938
  974MOL0     H28551   4.634   3.118   6.533  0.8161  0.2722 -1.1895
  974MOL0     H28552   5.090   3.114   6.455  0.6865 -0.9000  0.2702
  974MOL0     H28553   5.310   3.028   6.399  2.4702 -2.0746 -2.9142
  974MOL0     H28554   6.763   2.791   5.220  0.1093 -0.5733 -0.7994
  974MOL0     H28555   6.988   2.805   5.185  0.4299  0.7333 -0.1235
  974MOL0     H28556   7.444   2.550   5.099 -1.4923 -0.3377  1.8583
  974MOL0     H28557   7.683   2.615   5.095 -0.2262  0.9014 -0.7645
  974MOL0     H28558   7.898   2.781   5.462  1.3772  3.5207  0.4244
  974MOL0     H28559   7.816   2.920   5.408  2.3054  3.5109 -0.7030
  974MOL0     H28560   7.968   2.917   5.207  1.2330  1.6428 -0.0179
  974MOL0     H28561   8.047   2.969   5.360 -1.9857 -0.6994  1.4337
  974MOL0     H28562   8.190   2.796   5.230  1.5935  3.1504  2.9569
  974MOL0     H28563   8.072   2.669   5.276 -3.7448  0.2065  1.1669
  974MOL0     H28564   8.217   2.876   5.461 -0.5562  0.6509 -0.8150
  974MOL0     H28565   8.130   2.730   5.521  1.9901 -1.9454  0.2397
  974MOL0     H28566   8.477   2.541   5.384  0.4058  0.4758 -1.0462
  974MOL0     H28567   7.629   2.816   5.463  1.7598  2.8315 -2.8104
  974MOL0     H28568   7.387   2.762   5.458  0.1893  0.2754  0.0251
  975MOL0     O28569   7.325   4.337  11.056  0.1357  0.0315 -0.8273
  975MOL0     C28570   7.399   4.240  11.088  1.2689  0.8983 -0.0184
  975MOL0     O28571   7.413   4.126  11.016 -0.2215 -0.0862 -1.0679
  975MOL0     C28572   7.322   4.107  10.913 -0.0986 -0.1252 -0.6600
  975MOL0     C28573   7.316   4.182  10.796  0.4914 -0.1738  0.0753
  975MOL0     C28574   7.218   4.146  10.693  0.3733  0.6538 -0.7553
  975MOL0     C28575   7.129   4.031  10.713 -0.1825 -0.8738 -0.8314
  975MOL0     O28576   7.038   3.978  10.633  0.2532  0.2673  0.4142
  975MOL0     C28577   7.094   3.892  10.528  0.7316 -0.4392 -0.3335
  975MOL0     C28578   6.986   3.865  10.429 -0.1178  0.4836  0.5440
  975MOL0     C28579   7.034   3.798  10.299  0.2559 -0.3505 -0.0452
  975MOL0     C28580   6.926   3.777  10.201  0.2820  0.4966  0.2403
  975MOL0     C28581   6.982   3.788  10.062 -0.2782 -1.0587  0.3013
  975MOL0     C28582   6.876   3.742   9.969 -0.4479  0.3022  0.2010
  975MOL0     C28583   6.919   3.714   9.819  0.5715 -0.0220  0.1392
  975MOL0     C28584   6.803   3.662   9.740 -0.6655 -0.9139 -0.2367
  975MOL0     N28585   6.705   3.768   9.728 -0.4162 -0.4322  0.6508
  975MOL0     C28586   6.588   3.778   9.799 -0.1464 -0.3923 -0.1500
  975MOL0     C28587   6.532   3.890   9.746  0.3488  0.4448 -0.9815
  975MOL0     C28588   6.418   3.969   9.799  0.7891 -0.2024 -0.5511
  975MOL0     C28589   6.294   3.909   9.735  0.8146  0.5665 -0.2330
  975MOL0     C28590   6.156   3.980   9.758  1.0451  0.6266  0.2881
  975MOL0     C28591   6.037   3.890   9.705  0.1706  0.3675 -0.7097
  975MOL0     O28592   5.905   3.946   9.727 -1.0590 -0.1165  0.0074
  975MOL0     C28593   5.792   3.903   9.656  0.8079 -0.2259 -1.3248
  975MOL0     C28594   5.667   3.952   9.710 -0.9112 -0.4505  0.4232
  975MOL0     C28595   5.545   3.905   9.667 -0.2878 -0.9893 -0.5905
  975MOL0     C28596   5.528   3.803   9.581 -0.0037  0.7506 -0.0312
  975MOL0     C28597   5.393   3.760   9.541 -0.9976  0.6402 -1.3129
  975MOL0     O28598   5.294   3.784   9.634 -0.1825 -0.5755  0.1074
  975MOL0     C28599   5.170   3.741   9.617  0.4755  0.3862  0.0979
  975MOL0     C28600   5.120   3.627   9.549 -0.1951 -0.8464 -1.0632
  975MOL0     C28601   4.984   3.592   9.552  0.2910 -0.2500 -0.1962
  975MOL0     C28602   4.895   3.660   9.623  0.3559 -0.7763  0.1248
  975MOL0     O28603   4.763   3.633   9.643 -0.1513 -0.0000  0.0793
  975MOL0     C28604   4.724   3.498   9.663  0.3625  0.5118 -0.7515
  975MOL0     C28605   4.572   3.484   9.697 -0.3638 -0.1912 -0.0528
  975MOL0     C28606   4.543   3.346   9.752  0.0161  0.2091  0.8437
  975MOL0     C28607   4.394   3.315   9.743 -0.4937 -0.8968  0.0048
  975MOL0     C28608   4.317   3.393   9.837  0.6084  0.0781  0.5783
  975MOL0     C28609   4.163   3.394   9.812 -0.2761  0.2369 -0.0274
  975MOL0     C28610   4.116   3.487   9.701 -0.6095  0.6621 -0.0521
  975MOL0     C28611   3.964   3.479   9.690 -0.7823  0.7190 -0.4179
  975MOL0    Cl28612   3.899   3.556   9.835  0.4483  0.1495 -0.3940
  975MOL0     C28613   4.936   3.766   9.697  0.3812  0.7956 -1.4306
  975MOL0     C28614   5.067   3.811   9.690 -0.2637 -0.5256 -0.7642
  975MOL0     O28615   5.387   3.695   9.440 -0.4416  0.0136 -0.1136
  975MOL0     C28616   5.653   3.759   9.515  0.1172 -0.1026  0.1516
  975MOL0     C28617   5.783   3.809   9.554  0.7373  0.6356  0.3177
  975MOL0     N28618   6.607   3.938   9.643  1.3670 -0.1637  0.9050
  975MOL0     N28619   6.706   3.862   9.625  0.1348 -0.1432  1.1027
  975MOL0     C28620   7.133   3.967  10.836 -0.0958  0.0184 -0.5267
  975MOL0     C28621   7.223   4.013  10.940 -0.4300  0.3557  0.1351
  975MOL0     C28622   7.483   4.245  11.204  0.1792  0.0301  0.0376
  975MOL0     C28623   7.573   4.146  11.236  0.6590 -0.7747 -0.2127
  975MOL0     C28624   7.653   4.144  11.357 -0.6197 -0.2087 -0.1880
  975MOL0     C28625   7.648   4.263  11.434  0.0423  0.6932 -0.3845
  975MOL0     O28626   7.723   4.278  11.543 -0.1886  0.8297 -0.5867
  975MOL0     C28627   7.842   4.195  11.554 -0.0391  0.3041  0.4629
  975MOL0     C28628   7.928   4.268  11.658 -0.3066 -0.2983  0.3269
  975MOL0     C28629   8.071   4.211  11.668 -0.2103 -0.2888  0.0409
  975MOL0     C28630   8.147   4.296  11.770  0.0870 -0.1243 -0.3592
  975MOL0     C28631   8.294   4.273  11.776 -0.6747 -0.0092 -0.2085
  975MOL0     C28632   8.406   4.227  11.795  0.3300  0.1505  0.0165
  975MOL0     C28633   7.555   4.366  11.404  0.6491  0.7787 -0.4371
  975MOL0     C28634   7.476   4.352  11.292 -0.0357  0.5144 -0.2804
  975MOL0     H28635   7.381   4.269  10.799  0.6643 -0.2277 -1.3643
  975MOL0     H28636   7.189   4.212  10.611 -3.7080  0.6993  0.4871
  975MOL0     H28637   7.128   3.793  10.561 -2.1213 -3.0486 -4.2904
  975MOL0     H28638   7.178   3.945  10.482  2.5170 -0.9614  2.0809
  975MOL0     H28639   6.931   3.956  10.406 -1.5598  0.2926  2.9047
  975MOL0     H28640   6.914   3.797  10.477 -0.6054  1.5970  1.4191
  975MOL0     H28641   7.073   3.699  10.324  0.2277 -0.1585  0.7804
  975MOL0     H28642   7.112   3.863  10.260 -0.7003  1.9853  1.6593
  975MOL0     H28643   6.894   3.673  10.211  1.1444 -0.0926 -2.3504
  975MOL0     H28644   6.839   3.836  10.230  1.5547  0.5718  4.5637
  975MOL0     H28645   7.071   3.728  10.045  1.0146  1.1675 -1.4323
  975MOL0     H28646   7.023   3.887  10.037 -1.2699 -0.2789  1.6091
  975MOL0     H28647   6.807   3.826   9.974 -0.0775  0.5147  3.9288
  975MOL0     H28648   6.838   3.649  10.013  0.4735  0.0877  0.5511
  975MOL0     H28649   6.943   3.810   9.773  2.4240 -0.8867 -0.7900
  975MOL0     H28650   6.997   3.637   9.820 -2.0596 -2.9397 -1.7781
  975MOL0     H28651   6.758   3.583   9.800  0.1529 -0.5011  0.9616
  975MOL0     H28652   6.837   3.622   9.644 -2.5964  1.6037 -2.1028
  975MOL0     H28653   6.549   3.718   9.881 -1.7417  0.7649 -0.0156
  975MOL0     H28654   6.437   4.073   9.772  3.5224 -0.4940  0.0446
  975MOL0     H28655   6.402   3.966   9.907 -2.4153 -0.0723 -0.9164
  975MOL0     H28656   6.270   3.810   9.777 -4.3139  1.9234  0.6927
  975MOL0     H28657   6.304   3.900   9.627  0.2159 -1.2394 -0.1821
  975MOL0     H28658   6.140   4.012   9.861 -1.9971  0.5230 -0.0709
  975MOL0     H28659   6.161   4.071   9.696  1.6370 -0.2008 -0.9254
  975MOL0     H28660   6.053   3.797   9.760  0.3817  1.0600  0.4381
  975MOL0     H28661   6.063   3.878   9.600 -2.1290 -0.2932 -1.2634
  975MOL0     H28662   5.674   4.039   9.775  1.3593  0.9709 -1.5620
  975MOL0     H28663   5.463   3.957   9.717  1.9136  0.7326  1.5218
  975MOL0     H28664   5.189   3.576   9.483  2.5952  1.0377  0.2018
  975MOL0     H28665   4.952   3.501   9.503  1.4301 -1.3802  1.0794
  975MOL0     H28666   4.789   3.458   9.742  1.8200  2.9574 -0.5897
  975MOL0     H28667   4.733   3.437   9.572 -4.3664  1.3674 -2.0686
  975MOL0     H28668   4.508   3.491   9.608 -0.4008 -1.0804 -0.1087
  975MOL0     H28669   4.544   3.563   9.766  0.7643 -0.0199  0.2215
  975MOL0     H28670   4.574   3.344   9.856 -0.6394  1.9973  1.1025
  975MOL0     H28671   4.608   3.274   9.701 -1.0566  0.0612 -0.3739
  975MOL0     H28672   4.354   3.337   9.643 -1.6372 -0.0079  0.6331
  975MOL0     H28673   4.374   3.209   9.758  1.8776 -1.2928  0.8654
  975MOL0     H28674   4.338   3.500   9.826 -0.7147  0.2684 -0.3336
  975MOL0     H28675   4.346   3.342   9.930  0.5388 -3.4602 -1.1750
  975MOL0     H28676   4.125   3.428   9.909 -0.5712  1.2128 -0.4673
  975MOL0     H28677   4.119   3.295   9.796  1.1341  0.0143 -3.0715
  975MOL0     H28678   4.142   3.591   9.723 -0.4948  0.9365 -1.4144
  975MOL0     H28679   4.158   3.462   9.603 -0.8318 -1.1154  0.2841
  975MOL0     H28680   3.922   3.379   9.672  1.7797 -0.7215  0.9649
  975MOL0     H28681   3.933   3.535   9.601  0.2563 -0.3600 -1.5152
  975MOL0     H28682   4.861   3.821   9.752 -0.8140 -0.2111 -2.0004
  975MOL0     H28683   5.087   3.897   9.752 -1.5419 -1.4561  1.0111
  975MOL0     H28684   5.652   3.682   9.437 -3.2189  0.5884 -0.6365
  975MOL0     H28685   5.880   3.774   9.519 -0.7456 -0.4707 -3.1598
  975MOL0     H28686   7.063   3.889  10.866 -0.2573  1.0066  1.9113
  975MOL0     H28687   7.227   3.964  11.037 -0.6414  1.9734  0.9936
  975MOL0     H28688   7.565   4.058  11.173 -1.6472 -1.7112  1.2618
  975MOL0     H28689   7.718   4.060  11.378  0.3328  0.0914 -1.7919
  975MOL0     H28690   7.901   4.192  11.461  0.5962  0.2435  0.8631
  975MOL0     H28691   7.814   4.092  11.578  0.2317 -0.0521 -0.6559
  975MOL0     H28692   7.945   4.360  11.601  1.0399 -1.8761 -2.0365
  975MOL0     H28693   7.874   4.269  11.753  1.8202  0.2905  1.6015
  975MOL0     H28694   8.120   4.205  11.570  3.5201 -1.5595  1.7946
  975MOL0     H28695   8.082   4.108  11.702 -0.0236 -1.4286 -3.1132
  975MOL0     H28696   8.140   4.403  11.749 -1.4558 -0.5071 -2.0566
  975MOL0     H28697   8.096   4.288  11.866 -1.5160  2.7112 -0.8782
  975MOL0     H28698   8.498   4.179  11.820 -0.4658 -1.8724 -0.6509
  975MOL0     H28699   7.542   4.453  11.468  1.3772  0.2937  0.3874
  975MOL0     H28700   7.407   4.433  11.271 -0.2035 -0.0349 -2.0463
  976MOL0     O28701   6.230   1.159   6.757  0.1276 -0.0900  0.8141
  976MOL0     C28702   6.224   1.043   6.716 -0.4127  0.5522 -0.2634
  976MOL0     O28703   6.106   0.969   6.714  0.6671 -0.9108 -0.9993
  976MOL0     C28704   5.980   1.013   6.752 -0.1101 -0.4735 -0.3266
  976MOL0     C28705   5.872   0.923   6.749 -0.7569  0.4453  0.5708
  976MOL0     C28706   5.739   0.951   6.757  0.1947 -0.2119  0.4976
  976MOL0     C28707   5.699   1.081   6.795  0.9764 -1.0816 -0.0107
  976MOL0     O28708   5.571   1.123   6.813  0.3886  0.7127  0.2085
  976MOL0     C28709   5.467   1.069   6.719  1.0508 -0.3384  0.1570
  976MOL0     C28710   5.385   1.194   6.671 -0.7613  0.6794 -0.4814
  976MOL0     C28711   5.256   1.155   6.606  0.8253  0.0408 -0.1562
  976MOL0     C28712   5.172   1.278   6.579  0.3077 -0.5762 -0.2810
  976MOL0     C28713   5.025   1.218   6.548 -0.1513 -0.0106 -0.2232
  976MOL0     C28714   4.919   1.326   6.536  0.1188 -0.5360 -0.1846
  976MOL0     C28715   4.779   1.271   6.508 -0.0032 -0.8641  0.0646
  976MOL0     C28716   4.773   1.216   6.362  0.4513  0.1548 -0.9716
  976MOL0     N28717   4.641   1.185   6.314 -0.4220  0.4164  0.2446
  976MOL0     C28718   4.573   1.235   6.206 -0.1782 -0.3501 -0.5320
  976MOL0     C28719   4.458   1.157   6.196 -0.9804 -0.7776 -0.1801
  976MOL0     C28720   4.367   1.168   6.083  1.0240 -0.3601 -0.1425
  976MOL0     C28721   4.251   1.269   6.078 -0.4345 -0.1740 -0.6632
  976MOL0     C28722   4.171   1.285   6.212 -0.2280  0.7281 -0.2835
  976MOL0     C28723   4.108   1.160   6.267  0.3323  0.1366 -0.5027
  976MOL0     O28724   4.019   1.095   6.180  0.4169 -0.2635 -0.1908
  976MOL0     C28725   3.888   1.111   6.186 -0.8646 -0.0715  0.3458
  976MOL0     C28726   3.829   1.214   6.270  0.5456  0.2472  0.6573
  976MOL0     C28727   3.696   1.242   6.267  0.7674 -0.1126  0.5436
  976MOL0     C28728   3.613   1.165   6.174  0.4884 -0.6400  0.3570
  976MOL0     C28729   3.464   1.181   6.179  0.1683 -0.4514  0.0391
  976MOL0     O28730   3.394   1.074   6.126  0.2003 -0.5985 -0.2416
  976MOL0     C28731   3.264   1.091   6.096  0.1300  0.3497  0.7557
  976MOL0     C28732   3.207   0.974   6.057  0.3984  0.5968  0.7990
  976MOL0     C28733   3.077   0.966   6.014 -0.2583  0.0927 -0.5451
  976MOL0     C28734   3.002   1.082   6.007  0.2747 -0.0246 -0.9742
  976MOL0     O28735   2.870   1.088   5.967  0.1193 -0.2086  0.5793
  976MOL0     C28736   2.788   0.990   6.026  0.0346 -0.4738 -0.4608
  976MOL0     C28737   2.643   1.016   5.981 -0.2358 -0.0122 -0.5069
  976MOL0     C28738   2.556   0.907   6.036  0.3527  0.5649  0.3418
  976MOL0     C28739   2.415   0.910   5.971  0.8732 -0.7217 -0.9202
  976MOL0     C28740   2.325   0.797   6.028  0.0301  0.0081  0.4684
  976MOL0     C28741   2.179   0.828   6.002 -0.5586  0.2484  0.8918
  976MOL0     C28742   2.151   0.829   5.850 -0.4032  0.2952 -0.3521
  976MOL0     C28743   2.001   0.846   5.825 -0.4799  1.1924 -0.6233
  976MOL0    Cl28744   1.972   0.811   5.650 -0.2249 -0.4725  0.2649
  976MOL0     C28745   3.060   1.206   6.034 -0.0134  0.8861  0.4390
  976MOL0     C28746   3.190   1.209   6.084  0.2180  0.1407 -0.6335
  976MOL0     O28747   3.421   1.273   6.245 -0.2561 -0.0434  0.2418
  976MOL0     C28748   3.672   1.067   6.092 -0.3848  1.1541  0.1379
  976MOL0     C28749   3.806   1.036   6.107 -0.0812  0.3080 -0.6332
  976MOL0     N28750   4.461   1.061   6.301  0.2643 -0.0975 -0.1516
  976MOL0     N28751   4.565   1.083   6.370  0.2759  0.3297 -0.5414
  976MOL0     C28752   5.805   1.175   6.828  0.4249  0.5141  0.0357
  976MOL0     C28753   5.934   1.143   6.798 -0.6152 -0.5682  0.1591
  976MOL0     C28754   6.336   0.970   6.658 -0.5646  0.3227 -1.0283
  976MOL0     C28755   6.471   1.015   6.666  0.7338  0.8476 -0.8016
  976MOL0     C28756   6.571   0.932   6.621 -1.1067 -0.5428 -0.3208
  976MOL0     C28757   6.558   0.813   6.561  0.9951  1.0870  0.4693
  976MOL0     O28758   6.670   0.749   6.511 -0.3551  0.5571 -0.3595
  976MOL0     C28759   6.653   0.611   6.476  0.5014  0.4947 -1.1683
  976MOL0     C28760   6.779   0.541   6.423 -0.7881  0.7295  0.2100
  976MOL0     C28761   6.903   0.627   6.397 -0.2218  0.0806  0.6464
  976MOL0     C28762   7.030   0.555   6.352  0.9490 -0.1638 -0.6693
  976MOL0     C28763   7.020   0.432   6.273 -0.9365 -0.4780 -0.1014
  976MOL0     C28764   7.034   0.341   6.198  0.0206 -0.6916 -0.4599
  976MOL0     C28765   6.421   0.764   6.547  0.2346 -0.5258  0.4106
  976MOL0     C28766   6.319   0.839   6.597  0.7428 -1.1817 -1.4755
  976MOL0     H28767   5.904   0.822   6.726  0.2199  1.0973 -1.0953
  976MOL0     H28768   5.662   0.875   6.749  0.3924 -0.4514  0.8822
  976MOL0     H28769   5.396   1.007   6.773  1.0817 -0.4626  0.0546
  976MOL0     H28770   5.504   1.011   6.634 -1.0432  0.9013 -1.6929
  976MOL0     H28771   5.446   1.262   6.611 -0.1720 -0.3561 -1.0785
  976MOL0     H28772   5.362   1.252   6.761  0.5458  3.0724 -1.5943
  976MOL0     H28773   5.206   1.090   6.678 -1.7320  1.0494 -0.9142
  976MOL0     H28774   5.271   1.102   6.511  0.3128  3.7501 -2.5390
  976MOL0     H28775   5.164   1.350   6.661  0.4437 -1.1594  0.2495
  976MOL0     H28776   5.213   1.335   6.496 -1.7447  1.5815  0.0744
  976MOL0     H28777   4.997   1.137   6.616 -0.2283 -2.1088 -2.6284
  976MOL0     H28778   5.032   1.167   6.451 -2.8609  2.5269 -1.9079
  976MOL0     H28779   4.946   1.405   6.464 -0.5302  0.3854  0.5547
  976MOL0     H28780   4.910   1.372   6.635 -0.5981 -2.8306  0.8788
  976MOL0     H28781   4.730   1.203   6.578  1.3836 -1.3889  0.5576
  976MOL0     H28782   4.727   1.367   6.498  4.3769  2.3682  4.1423
  976MOL0     H28783   4.836   1.127   6.356 -3.1678 -2.7735  0.3161
  976MOL0     H28784   4.806   1.295   6.294  0.4795  0.8943 -0.1208
  976MOL0     H28785   4.612   1.311   6.139 -0.9657  1.5208  1.0231
  976MOL0     H28786   4.326   1.068   6.062  1.7311 -1.2941  2.5224
  976MOL0     H28787   4.432   1.185   5.997  0.1255 -2.6209 -1.3685
  976MOL0     H28788   4.177   1.237   6.004 -0.2737 -0.0011 -0.8966
  976MOL0     H28789   4.294   1.368   6.061 -4.9623  1.7153 -2.7223
  976MOL0     H28790   4.232   1.321   6.295  0.8266  1.1274 -1.2052
  976MOL0     H28791   4.093   1.359   6.193 -1.5284  0.3706  2.9744
  976MOL0     H28792   4.056   1.175   6.362  1.2576 -0.2338  0.0736
  976MOL0     H28793   4.190   1.089   6.281  1.2324  0.8267 -2.0148
  976MOL0     H28794   3.890   1.276   6.335 -0.4006 -0.2018  2.0293
  976MOL0     H28795   3.645   1.312   6.333 -0.8192  1.1735 -1.8689
  976MOL0     H28796   3.265   0.884   6.077  0.5748  0.9315  1.8211
  976MOL0     H28797   3.031   0.874   5.981  0.1052 -0.1594 -0.3499
  976MOL0     H28798   2.800   0.995   6.135 -0.9102 -1.3807 -0.2967
  976MOL0     H28799   2.814   0.888   5.995 -0.1089 -1.0588  1.2086
  976MOL0     H28800   2.647   1.017   5.872  0.1220  0.3105 -0.4899
  976MOL0     H28801   2.604   1.116   5.999  0.6807  0.5137 -1.3477
  976MOL0     H28802   2.549   0.923   6.144 -0.0587  2.6744  0.0505
  976MOL0     H28803   2.602   0.808   6.022 -1.2360 -0.5477  2.4890
  976MOL0     H28804   2.367   1.000   6.010  1.3605 -0.0795 -1.7863
  976MOL0     H28805   2.422   0.897   5.863 -1.1650 -4.0288 -0.8011
  976MOL0     H28806   2.344   0.793   6.136 -1.2043  0.1075  0.6946
  976MOL0     H28807   2.353   0.700   5.987 -1.2357 -0.1914  0.0599
  976MOL0     H28808   2.163   0.921   6.057  1.7112  0.4127  1.4063
  976MOL0     H28809   2.131   0.743   6.051  2.3852 -3.0366 -1.3811
  976MOL0     H28810   2.205   0.910   5.801  0.1382  0.3668  0.3536
  976MOL0     H28811   2.187   0.736   5.804  1.6257  1.1006 -0.4666
  976MOL0     H28812   1.952   0.934   5.868 -1.9522  0.2486 -0.3137
  976MOL0     H28813   1.937   0.777   5.881  2.3551 -0.1929  1.1182
  976MOL0     H28814   3.004   1.299   6.038  1.6551  1.9133  0.9469
  976MOL0     H28815   3.232   1.302   6.121  0.6981 -0.8875  1.5504
  976MOL0     H28816   3.608   1.008   6.026  1.3737 -2.0731  1.0899
  976MOL0     H28817   3.861   0.955   6.060  0.2895  0.0086  0.2911
  976MOL0     H28818   5.778   1.273   6.864  1.3231 -1.2452  6.8021
  976MOL0     H28819   6.004   1.225   6.806 -0.5808 -0.7554  2.5096
  976MOL0     H28820   6.500   1.103   6.723  1.9208 -1.6369  2.8423
  976MOL0     H28821   6.672   0.966   6.643 -0.1097 -2.7615 -1.1475
  976MOL0     H28822   6.586   0.582   6.394  1.4125  1.7227 -2.3839
  976MOL0     H28823   6.604   0.557   6.557  1.3625  1.8552  0.3093
  976MOL0     H28824   6.808   0.459   6.490 -0.8920 -0.0748 -0.7088
  976MOL0     H28825   6.759   0.484   6.332  2.2516 -1.9378  1.0159
  976MOL0     H28826   6.920   0.688   6.486 -0.0443  0.5520  0.2952
  976MOL0     H28827   6.876   0.692   6.313  2.0562 -0.3183 -0.4577
  976MOL0     H28828   7.085   0.627   6.291  1.3196  0.4293  0.3335
  976MOL0     H28829   7.092   0.531   6.439  0.0117 -0.8905 -0.1906
  976MOL0     H28830   7.044   0.255   6.134  0.2716 -1.2473  0.3154
  976MOL0     H28831   6.418   0.673   6.488 -0.6321  0.2223 -0.7645
  976MOL0     H28832   6.218   0.799   6.593 -0.4547  1.5999 -1.6067
  977MOL0     O28833   4.426   7.826   3.580 -0.1917  0.3552  0.8201
  977MOL0     C28834   4.343   7.874   3.503 -0.1569  0.8460  0.5614
  977MOL0     O28835   4.375   7.947   3.394 -1.0062  0.3204  1.0466
  977MOL0     C28836   4.510   7.944   3.353 -0.5470  0.2989 -0.0613
  977MOL0     C28837   4.589   7.833   3.334 -1.0398  0.2052  0.7431
  977MOL0     C28838   4.725   7.842   3.286  0.0339 -0.3816 -0.7308
  977MOL0     C28839   4.774   7.966   3.254  0.9511 -0.1485  0.0357
  977MOL0     O28840   4.899   7.978   3.193  0.3975  0.0532 -0.1859
  977MOL0     C28841   4.900   8.053   3.065 -0.4356  0.1015 -0.1612
  977MOL0     C28842   5.021   7.996   2.982 -0.1668 -0.3097  0.4986
  977MOL0     C28843   5.161   8.054   3.023 -0.6502  0.2122 -0.0234
  977MOL0     C28844   5.284   8.006   2.932 -0.0899 -0.4397  0.7743
  977MOL0     C28845   5.423   8.040   2.985 -0.6504  0.1148 -0.2736
  977MOL0     C28846   5.481   7.919   3.060 -0.0699  0.4262  0.2129
  977MOL0     C28847   5.630   7.943   3.091  0.3502  0.1774  0.1460
  977MOL0     C28848   5.700   7.829   3.152 -0.6083 -1.1152 -0.2040
  977MOL0     N28849   5.836   7.865   3.190 -0.1650 -1.2679 -0.3987
  977MOL0     C28850   5.873   7.928   3.308 -0.1529  0.1439  0.1289
  977MOL0     C28851   6.009   7.930   3.318  0.0598  0.0091 -0.4224
  977MOL0     C28852   6.090   8.003   3.416  0.3983  0.2781 -0.5696
  977MOL0     C28853   6.087   8.154   3.373 -0.1348  0.6623 -0.1709
  977MOL0     C28854   5.972   8.223   3.427  0.4621 -0.2668 -0.1886
  977MOL0     C28855   5.966   8.370   3.397  0.4799 -0.1165 -0.3921
  977MOL0     O28856   5.932   8.396   3.264 -0.2228 -0.4694  0.8232
  977MOL0     C28857   5.804   8.436   3.226  0.2836 -0.1570  0.4831
  977MOL0     C28858   5.698   8.414   3.301 -0.1767 -0.0225 -0.4777
  977MOL0     C28859   5.571   8.454   3.247  0.7576  1.1192  0.1750
  977MOL0     C28860   5.555   8.513   3.122  0.8571  0.8530  0.0975
  977MOL0     C28861   5.422   8.545   3.080 -0.3957  0.8469 -0.0406
  977MOL0     O28862   5.327   8.458   3.121  0.7509 -0.1277  0.3536
  977MOL0     C28863   5.199   8.484   3.077  0.3855 -0.2733 -0.4793
  977MOL0     C28864   5.104   8.485   3.180 -0.2714 -0.0154 -0.7588
  977MOL0     C28865   4.969   8.503   3.159 -0.0061  0.0782  0.2068
  977MOL0     C28866   4.922   8.502   3.030  1.0927  0.1082  0.2704
  977MOL0     O28867   4.782   8.509   3.008 -0.5493 -0.5079 -0.3261
  977MOL0     C28868   4.720   8.638   3.014 -0.5495  0.4472 -1.0227
  977MOL0     C28869   4.579   8.603   3.024 -1.0276 -0.6237  0.7048
  977MOL0     C28870   4.546   8.539   3.153  0.9294  0.3305 -0.1876
  977MOL0     C28871   4.403   8.492   3.168  0.4702 -0.1349  0.2196
  977MOL0     C28872   4.369   8.447   3.309  0.5172  0.5031 -0.2452
  977MOL0     C28873   4.248   8.358   3.324  2.3154 -1.6718  0.2157
  977MOL0     C28874   4.119   8.425   3.267  0.1414  0.0204 -0.1335
  977MOL0     C28875   3.987   8.345   3.302 -0.5194  0.3108  0.6597
  977MOL0    Cl28876   3.972   8.315   3.485 -0.6456 -0.3502  0.0285
  977MOL0     C28877   5.009   8.503   2.920 -0.0651 -0.0041  0.4316
  977MOL0     C28878   5.144   8.496   2.937 -0.1513 -0.2884  0.7623
  977MOL0     O28879   5.409   8.630   2.989 -0.0397 -0.3466 -0.3578
  977MOL0     C28880   5.670   8.530   3.051 -0.1080 -0.0269  0.1170
  977MOL0     C28881   5.793   8.488   3.097 -0.0671 -0.4194 -0.3945
  977MOL0     N28882   6.052   7.851   3.213 -0.8782 -0.8775  0.2438
  977MOL0     N28883   5.954   7.812   3.138 -0.7558 -0.9641 -0.4204
  977MOL0     C28884   4.684   8.076   3.256  0.0660 -0.0722  0.4202
  977MOL0     C28885   4.555   8.066   3.302  0.2141 -0.3168  0.0894
  977MOL0     C28886   4.201   7.856   3.545  0.5949 -0.6708  0.2728
  977MOL0     C28887   4.158   7.775   3.649 -0.6033  0.3862 -0.3815
  977MOL0     C28888   4.026   7.754   3.677  0.5406  0.6111 -0.0137
  977MOL0     C28889   3.924   7.825   3.613  0.7103 -0.8172  0.1896
  977MOL0     O28890   3.796   7.805   3.655 -0.3047  0.5911  0.3156
  977MOL0     C28891   3.685   7.837   3.579 -0.2719  0.0126 -0.9145
  977MOL0     C28892   3.612   7.953   3.653 -1.6292 -0.5362  0.0899
  977MOL0     C28893   3.717   8.059   3.712 -0.3334  0.5670 -0.1918
  977MOL0     C28894   3.639   8.188   3.735 -0.2347  0.5469 -0.7340
  977MOL0     C28895   3.724   8.301   3.771 -0.0309 -0.9095  0.5800
  977MOL0     C28896   3.794   8.399   3.795  0.8299  0.0055 -0.2777
  977MOL0     C28897   3.964   7.903   3.497  0.5205  0.4059  0.0312
  977MOL0     C28898   4.100   7.925   3.473  0.4076  0.6128  0.0754
  977MOL0     H28899   4.542   7.735   3.343 -1.2003 -0.0224 -1.9044
  977MOL0     H28900   4.781   7.751   3.270 -1.4345 -1.1881 -1.4755
  977MOL0     H28901   4.923   8.157   3.088 -1.6200  0.7714 -1.8432
  977MOL0     H28902   4.811   8.048   3.003  1.2442  0.4960 -2.7629
  977MOL0     H28903   5.013   8.020   2.875  3.0999  0.5875  0.3513
  977MOL0     H28904   5.016   7.887   2.990 -0.1379 -0.4517 -1.0742
  977MOL0     H28905   5.181   8.029   3.127  0.3187  0.8956 -0.0321
  977MOL0     H28906   5.157   8.163   3.020  1.8072  0.3469 -0.4438
  977MOL0     H28907   5.278   7.899   2.910 -0.3978 -0.4329  0.8302
  977MOL0     H28908   5.271   8.056   2.836 -3.4767 -1.9013  0.3298
  977MOL0     H28909   5.419   8.131   3.045  0.8429  0.4391 -0.6349
  977MOL0     H28910   5.490   8.059   2.901  2.0535 -0.2843  1.6540
  977MOL0     H28911   5.478   7.836   2.990  1.4870  2.1599 -2.0601
  977MOL0     H28912   5.423   7.906   3.152  0.3011  1.0253  0.5413
  977MOL0     H28913   5.672   7.956   2.991  0.6099  1.3370  0.3842
  977MOL0     H28914   5.647   8.037   3.145 -0.8743 -0.7876  2.3209
  977MOL0     H28915   5.697   7.743   3.084 -0.2231 -2.4097  1.3347
  977MOL0     H28916   5.653   7.794   3.245  1.0485 -1.7146  0.4662
  977MOL0     H28917   5.804   7.973   3.379 -1.1034 -0.9705 -0.0654
  977MOL0     H28918   6.196   7.976   3.414  0.2046 -0.4873 -0.8481
  977MOL0     H28919   6.043   7.986   3.513 -1.0341 -0.5497 -1.3649
  977MOL0     H28920   6.089   8.160   3.264 -1.1212 -1.6997 -0.3848
  977MOL0     H28921   6.174   8.199   3.422  0.9772 -1.8436  0.3486
  977MOL0     H28922   5.883   8.172   3.389 -1.8449  2.4599  1.1268
  977MOL0     H28923   5.972   8.231   3.536  0.5850  3.1396 -0.3146
  977MOL0     H28924   6.059   8.421   3.422  1.5486 -1.9104 -0.5067
  977MOL0     H28925   5.889   8.414   3.461  1.8788  1.4244  0.2977
  977MOL0     H28926   5.706   8.359   3.394 -0.9923 -0.7099 -0.7975
  977MOL0     H28927   5.486   8.442   3.315  1.2449 -0.4541  0.5671
  977MOL0     H28928   5.145   8.475   3.280 -0.9125  0.9607 -0.3820
  977MOL0     H28929   4.896   8.513   3.239 -0.4400 -1.9731  0.1330
  977MOL0     H28930   4.742   8.700   2.927 -0.9007  1.4610 -0.4051
  977MOL0     H28931   4.757   8.698   3.098 -0.2898 -1.8573  0.5985
  977MOL0     H28932   4.541   8.540   2.943 -3.2313  1.1428  0.2363
  977MOL0     H28933   4.524   8.697   3.017  1.2511  0.6702 -2.3650
  977MOL0     H28934   4.565   8.611   3.233  2.5971 -1.1009  0.7573
  977MOL0     H28935   4.606   8.450   3.173 -2.2594 -2.6036 -2.3758
  977MOL0     H28936   4.343   8.579   3.139  0.6165  0.0852  0.5721
  977MOL0     H28937   4.375   8.408   3.103 -0.9585 -1.3157  2.2666
  977MOL0     H28938   4.358   8.535   3.373 -4.3759  0.5537 -0.7878
  977MOL0     H28939   4.458   8.395   3.345 -0.0815 -1.1268 -1.0239
  977MOL0     H28940   4.237   8.349   3.433  0.9511  1.0913  0.4132
  977MOL0     H28941   4.255   8.257   3.284 -1.5716 -1.8093 -0.5258
  977MOL0     H28942   4.104   8.524   3.312 -0.8823 -1.0592  2.0500
  977MOL0     H28943   4.138   8.450   3.162 -3.7932  2.0727 -0.5663
  977MOL0     H28944   4.008   8.251   3.251 -0.5370 -0.0209  1.2539
  977MOL0     H28945   3.893   8.388   3.267 -0.8900  1.1361  2.5216
  977MOL0     H28946   4.961   8.498   2.822  1.1213  0.3189 -0.1903
  977MOL0     H28947   5.206   8.485   2.849 -2.7541 -3.5790 -0.8701
  977MOL0     H28948   5.659   8.576   2.953  1.2535  1.8749  0.7772
  977MOL0     H28949   5.882   8.500   3.036 -0.0379 -4.2212 -1.3660
  977MOL0     H28950   4.724   8.172   3.225 -0.2485  0.9444  2.8403
  977MOL0     H28951   4.481   8.145   3.294 -0.8650 -1.0363  2.1158
  977MOL0     H28952   4.232   7.712   3.697  1.4666  1.4876 -1.9238
  977MOL0     H28953   3.982   7.690   3.753  0.6090  0.3594 -0.1837
  977MOL0     H28954   3.624   7.746   3.581  0.4798 -0.5074  1.5096
  977MOL0     H28955   3.704   7.874   3.478  2.6843  2.5975  0.4055
  977MOL0     H28956   3.539   7.996   3.583 -1.9018  0.4733  0.9574
  977MOL0     H28957   3.553   7.913   3.736 -1.6197 -1.5981 -0.4114
  977MOL0     H28958   3.795   8.083   3.639 -0.3605  3.5667  0.6331
  977MOL0     H28959   3.772   8.017   3.797  0.9252  0.3873 -1.0639
  977MOL0     H28960   3.583   8.210   3.643  0.4968 -1.7013 -1.7696
  977MOL0     H28961   3.566   8.170   3.814 -0.3432 -0.2753 -1.0096
  977MOL0     H28962   3.849   8.488   3.818  0.3451  0.3550 -0.4619
  977MOL0     H28963   3.905   7.970   3.435  2.6983  1.0973 -1.3823
  977MOL0     H28964   4.121   7.984   3.384  2.9811 -1.1659 -0.6298
  978MOL0     O28965   2.403  10.753  10.165  0.4503  0.1108 -0.1889
  978MOL0     C28966   2.408  10.628  10.185 -0.0517 -0.6202 -0.8912
  978MOL0     O28967   2.304  10.559  10.238 -0.0306 -0.1366  0.1377
  978MOL0     C28968   2.184  10.619  10.280 -0.4903  0.4761  0.1273
  978MOL0     C28969   2.091  10.672  10.179  0.1888  0.0131  0.5021
  978MOL0     C28970   1.957  10.698  10.208 -0.0562  0.5309  0.4522
  978MOL0     C28971   1.927  10.689  10.347 -0.8467  0.9773 -0.3510
  978MOL0     O28972   1.804  10.701  10.391  0.1212 -0.1813  0.0822
  978MOL0     C28973   1.697  10.749  10.301 -0.4400 -0.1581 -0.6166
  978MOL0     C28974   1.570  10.761  10.374 -0.0313 -0.6047 -1.3236
  978MOL0     C28975   1.589  10.841  10.508 -1.0199 -0.0881  0.0618
  978MOL0     C28976   1.458  10.869  10.569  1.0046  0.1098  0.2564
  978MOL0     C28977   1.469  10.946  10.704  0.4459 -0.8545 -1.0609
  978MOL0     C28978   1.365  10.898  10.813 -0.1758  0.2143  0.1029
  978MOL0     C28979   1.243  10.993  10.808 -0.2061  0.3426 -0.0593
  978MOL0     C28980   1.165  10.991  10.679 -0.2881 -0.0650  1.0396
  978MOL0     N28981   1.073  11.111  10.683  0.3728  0.0790  0.4185
  978MOL0     C28982   0.940  11.109  10.721 -0.1526  1.2942  0.3797
  978MOL0     C28983   0.897  11.235  10.704 -1.2521  0.3144  0.3395
  978MOL0     C28984   0.764  11.294  10.711  0.3238  0.4823  0.0799
  978MOL0     C28985   0.717  11.372  10.594 -0.0512 -0.3286 -0.7081
  978MOL0     C28986   0.707  11.286  10.460  0.0361  0.1980  0.2585
  978MOL0     C28987   0.660  11.376  10.336  0.7603  0.3134 -0.3464
  978MOL0     O28988   0.523  11.400  10.382  0.0115 -0.0505  0.9887
  978MOL0     C28989   0.445  11.490  10.322 -0.2475  0.5774 -0.4881
  978MOL0     C28990   0.341  11.541  10.389  0.5646  0.4115 -1.1413
  978MOL0     C28991   0.255  11.623  10.330  0.3011  0.0059  0.3155
  978MOL0     C28992   0.263  11.654  10.195  0.1069  0.0068  0.2685
  978MOL0     C28993   0.158  11.733  10.122 -0.1218  0.6752  0.1679
  978MOL0     O28994   0.161  11.742   9.986 -0.0564 -0.0642 -0.7008
  978MOL0     C28995   0.069  11.820   9.924  0.2685  0.1871  0.6656
  978MOL0     C28996  -0.069  11.828   9.959 -0.3368  0.2432  1.0584
  978MOL0     C28997  -0.152  11.912   9.884  0.1345  0.4741  1.1445
  978MOL0     C28998  -0.099  11.983   9.776  1.5633  0.0354  0.2011
  978MOL0     O28999  -0.172  12.078   9.710  0.3475  0.2428  0.7991
  978MOL0     C29000  -0.314  12.058   9.699  1.4224  0.0519  0.2686
  978MOL0     C29001  -0.351  12.166   9.590 -0.7001  0.0590 -0.1109
  978MOL0     C29002  -0.488  12.132   9.528 -0.5198  0.0028  0.2972
  978MOL0     C29003  -0.506  12.198   9.392 -0.0295 -0.3433  0.2278
  978MOL0     C29004  -0.652  12.216   9.350  0.7885 -0.1496  0.4548
  978MOL0     C29005  -0.728  12.083   9.360 -0.7555 -0.4893 -0.5708
  978MOL0     C29006  -0.855  12.111   9.279  0.4691  0.5748 -0.5398
  978MOL0     C29007  -0.986  12.032   9.318  0.4238 -0.9117 -0.2159
  978MOL0    Cl29008  -1.126  12.076   9.229 -0.4355 -0.1102 -0.2642
  978MOL0     C29009   0.035  11.979   9.746 -0.0309  1.0846  0.7074
  978MOL0     C29010   0.117  11.896   9.813 -0.5105 -0.0355  0.0209
  978MOL0     O29011   0.078  11.794  10.193  0.0237  0.3941 -0.1885
  978MOL0     C29012   0.370  11.598  10.121 -0.9083  0.6799  0.4195
  978MOL0     C29013   0.466  11.523  10.189  0.3313  0.6785 -0.8113
  978MOL0     N29014   1.007  11.313  10.666  0.2977 -1.0877 -0.4935
  978MOL0     N29015   1.109  11.240  10.670 -0.5432  0.5906 -0.2780
  978MOL0     C29016   2.019  10.641  10.444 -0.4510 -0.5859 -0.3223
  978MOL0     C29017   2.146  10.602  10.411 -0.8447 -0.8734 -0.0638
  978MOL0     C29018   2.530  10.555  10.145 -0.5530 -1.2425 -0.2079
  978MOL0     C29019   2.535  10.415  10.156 -0.1218  0.3583  0.5900
  978MOL0     C29020   2.645  10.337  10.122  0.2212  0.3298  0.0847
  978MOL0     C29021   2.765  10.400  10.082 -0.4954 -0.3092  0.6768
  978MOL0     O29022   2.889  10.347  10.060  0.0273  1.3908  0.3717
  978MOL0     C29023   2.909  10.205  10.071 -0.3032  0.4762  1.0367
  978MOL0     C29024   3.063  10.189  10.046  0.2395  0.7396  0.2800
  978MOL0     C29025   3.140  10.238  10.167 -0.0280 -0.9454  0.2936
  978MOL0     C29026   3.292  10.273  10.152  0.2227 -0.4987 -0.3846
  978MOL0     C29027   3.374  10.160  10.205 -0.3312  0.8452 -0.4544
  978MOL0     C29028   3.440  10.065  10.257 -0.1949  0.5233  0.2287
  978MOL0     C29029   2.760  10.545  10.071  0.4146 -0.4987  0.4646
  978MOL0     C29030   2.643  10.625  10.108  0.2624 -0.4107  0.3104
  978MOL0     H29031   2.141  10.698  10.086  3.0070  0.2688  1.9801
  978MOL0     H29032   1.906  10.735  10.119 -0.6667  0.6133  0.8305
  978MOL0     H29033   1.666  10.687  10.217  0.4095  0.5053 -1.4380
  978MOL0     H29034   1.732  10.840  10.251  1.2584 -1.0687 -1.1636
  978MOL0     H29035   1.534  10.661  10.396  0.3590 -0.2648  1.1482
  978MOL0     H29036   1.488  10.813  10.322  0.1188  2.5543  1.2453
  978MOL0     H29037   1.647  10.933  10.491  2.0064 -1.9121 -0.1567
  978MOL0     H29038   1.648  10.781  10.578 -0.3084  2.6215  1.9855
  978MOL0     H29039   1.387  10.923  10.505 -2.1958 -2.1615  1.6328
  978MOL0     H29040   1.414  10.772  10.595  1.4266 -0.3276 -0.5753
  978MOL0     H29041   1.465  11.054  10.691 -0.6237 -0.5195  1.3682
  978MOL0     H29042   1.567  10.927  10.750 -0.1773  2.1567  1.9021
  978MOL0     H29043   1.414  10.894  10.910  1.2909  0.4541 -0.6000
  978MOL0     H29044   1.338  10.794  10.791 -0.5045  0.3232 -0.0139
  978MOL0     H29045   1.171  10.969  10.887 -3.0671 -1.1942 -2.9038
  978MOL0     H29046   1.274  11.096  10.826 -0.5037  0.3533  0.4021
  978MOL0     H29047   1.107  10.901  10.659 -0.7172  0.1812  1.1577
  978MOL0     H29048   1.234  11.006  10.595 -0.1813 -0.1907  1.1043
  978MOL0     H29049   0.887  11.018  10.742  0.0784  0.8016 -1.0239
  978MOL0     H29050   0.774  11.364  10.795  1.3592 -0.3757  0.6993
  978MOL0     H29051   0.685  11.220  10.730  1.1900 -0.0833  1.7690
  978MOL0     H29052   0.784  11.456  10.577 -0.0753 -0.4207 -1.2896
  978MOL0     H29053   0.617  11.409  10.617  0.6081  3.8816 -3.4806
  978MOL0     H29054   0.803  11.243  10.431 -0.7358 -1.1579 -0.3371
  978MOL0     H29055   0.636  11.203  10.465  0.1497  0.0016 -1.0514
  978MOL0     H29056   0.665  11.322  10.241  1.5174 -0.3870  0.0784
  978MOL0     H29057   0.709  11.473  10.322  1.5465 -0.0279 -0.0590
  978MOL0     H29058   0.315  11.528  10.493 -3.1906  2.4029 -1.6326
  978MOL0     H29059   0.168  11.656  10.386 -1.3989  0.0045 -2.1619
  978MOL0     H29060  -0.115  11.765  10.035 -0.2707  1.4578  2.1296
  978MOL0     H29061  -0.252  11.910   9.925  0.7182  0.7912  2.6416
  978MOL0     H29062  -0.362  12.081   9.794 -0.8782 -1.1347 -0.5416
  978MOL0     H29063  -0.339  11.959   9.659  1.4359 -0.5579  1.7261
  978MOL0     H29064  -0.266  12.170   9.521  2.3833 -4.4509  2.8915
  978MOL0     H29065  -0.377  12.261   9.637 -1.8467 -0.0342 -0.5414
  978MOL0     H29066  -0.569  12.166   9.593 -0.6310 -1.6260  1.0488
  978MOL0     H29067  -0.503  12.024   9.517 -3.5118  0.2248  1.1726
  978MOL0     H29068  -0.467  12.299   9.406  0.0920  0.0944 -2.7709
  978MOL0     H29069  -0.444  12.143   9.321 -0.9792 -1.1454 -0.0049
  978MOL0     H29070  -0.651  12.251   9.247  1.5791  1.9404  1.1339
  978MOL0     H29071  -0.706  12.295   9.403 -0.4010 -2.0848  2.2909
  978MOL0     H29072  -0.744  12.069   9.467 -0.1026  1.4429 -0.1693
  978MOL0     H29073  -0.673  12.001   9.313  0.8178  0.7445 -0.9633
  978MOL0     H29074  -0.881  12.217   9.268 -0.3787  0.1871 -2.6627
  978MOL0     H29075  -0.836  12.086   9.174  0.4702 -0.2824 -0.3373
  978MOL0     H29076  -0.994  12.036   9.427 -0.6228  2.8821 -0.2808
  978MOL0     H29077  -0.967  11.927   9.297  1.5908 -1.4886  3.0956
  978MOL0     H29078   0.062  12.043   9.663  2.2514 -3.4788 -2.5507
  978MOL0     H29079   0.220  11.890   9.781 -0.0308 -1.6205  1.6907
  978MOL0     H29080   0.376  11.608  10.013 -1.7494  0.7033  0.3694
  978MOL0     H29081   0.555  11.499  10.133  1.0549  0.5885  0.3580
  978MOL0     H29082   1.979  10.637  10.545  0.2916  2.4555  0.2042
  978MOL0     H29083   2.211  10.557  10.485 -0.0044 -1.5801 -1.1952
  978MOL0     H29084   2.445  10.367  10.193 -1.4540  2.2534 -0.0386
  978MOL0     H29085   2.653  10.229  10.126  0.1126  0.3150 -0.1064
  978MOL0     H29086   2.854  10.149   9.994 -1.2741  1.5336  0.9268
  978MOL0     H29087   2.877  10.170  10.169 -0.6378 -0.0161  0.7613
  978MOL0     H29088   3.085  10.082  10.032 -0.7310  0.5928 -0.2266
  978MOL0     H29089   3.093  10.239   9.954  0.2492 -2.8343 -1.8563
  978MOL0     H29090   3.134  10.165  10.248  0.1017 -0.7314  0.4987
  978MOL0     H29091   3.092  10.328  10.207  0.3631 -0.6517  0.1147
  978MOL0     H29092   3.324  10.293  10.050  2.0938  4.1545  0.8940
  978MOL0     H29093   3.312  10.359  10.217  1.9824  1.4467 -3.3088
  978MOL0     H29094   3.498   9.984  10.295  0.2008  0.9233  0.4966
  978MOL0     H29095   2.852  10.601  10.055  1.3580 -1.0714  3.3631
  978MOL0     H29096   2.645  10.733  10.122 -0.1952 -0.0250 -2.2007
  979MOL0     O29097   9.651   5.981   4.473 -1.3489 -0.2621  0.7278
  979MOL0     C29098   9.666   5.866   4.523 -0.7712 -0.8972 -0.0716
  979MOL0     O29099   9.559   5.788   4.561  0.1491 -0.0027 -0.2642
  979MOL0     C29100   9.428   5.820   4.534 -0.2110  0.3426 -0.0052
  979MOL0     C29101   9.370   5.822   4.405  0.4928  0.5342  0.0846
  979MOL0     C29102   9.234   5.854   4.381  1.0792 -0.3216 -1.2561
  979MOL0     C29103   9.159   5.908   4.490 -0.0716  0.3963 -0.6559
  979MOL0     O29104   9.027   5.953   4.490  0.3045 -0.7722  0.0940
  979MOL0     C29105   8.938   5.926   4.377  0.1758  0.0997 -0.0564
  979MOL0     C29106   8.827   5.846   4.441 -0.3020 -0.3928  0.4379
  979MOL0     C29107   8.716   5.803   4.345 -0.5583  0.3787 -0.8394
  979MOL0     C29108   8.600   5.756   4.435  0.0644 -0.6048  1.1999
  979MOL0     C29109   8.468   5.747   4.349 -1.1060  0.1494  0.1453
  979MOL0     C29110   8.347   5.724   4.445 -0.7302  0.6042  0.0467
  979MOL0     C29111   8.366   5.602   4.533  0.8087  0.2073  0.0493
  979MOL0     C29112   8.235   5.555   4.589  1.2649  0.3455  0.2837
  979MOL0     N29113   8.161   5.469   4.491 -0.6690  0.1116 -0.4543
  979MOL0     C29114   8.196   5.353   4.424  0.3124 -0.0048 -0.6506
  979MOL0     C29115   8.106   5.335   4.325 -0.0176  0.6201 -0.0902
  979MOL0     C29116   8.120   5.241   4.213 -0.1042  0.6951  0.1488
  979MOL0     C29117   8.018   5.125   4.237  0.3516 -0.2251 -0.4184
  979MOL0     C29118   8.034   5.025   4.356 -1.0404  0.4451 -0.0642
  979MOL0     C29119   8.165   4.946   4.352  0.2124 -0.4144  0.1039
  979MOL0     O29120   8.257   5.024   4.431  0.0604  0.0916  0.2382
  979MOL0     C29121   8.384   4.971   4.444 -0.5972 -0.4321  0.4490
  979MOL0     C29122   8.433   4.850   4.395  0.6188  0.6378  0.5481
  979MOL0     C29123   8.557   4.799   4.437  0.4417 -1.1055  0.1683
  979MOL0     C29124   8.639   4.873   4.538  0.2780  1.1755  0.6067
  979MOL0     C29125   8.779   4.830   4.592  0.6899 -0.3740 -0.7346
  979MOL0     O29126   8.844   4.747   4.509  0.7232  0.0144  0.0859
  979MOL0     C29127   8.975   4.713   4.519  1.0502  0.4484 -0.0164
  979MOL0     C29128   9.018   4.596   4.466  0.0490  0.4239  0.5022
  979MOL0     C29129   9.150   4.558   4.455 -0.2118 -0.3301  0.1671
  979MOL0     C29130   9.250   4.646   4.504 -0.3853  0.4373  0.0929
  979MOL0     O29131   9.377   4.603   4.483 -0.2786  0.4600 -1.0595
  979MOL0     C29132   9.475   4.668   4.564 -0.6873 -0.3369  0.1829
  979MOL0     C29133   9.620   4.631   4.522 -0.2185  0.8387 -0.6483
  979MOL0     C29134   9.648   4.480   4.544  0.0444  0.5699 -0.3883
  979MOL0     C29135   9.759   4.435   4.452 -0.9619 -0.4962  0.6221
  979MOL0     C29136   9.792   4.292   4.454  1.2317 -0.4197  1.1027
  979MOL0     C29137   9.866   4.240   4.575  0.6678 -0.3793  0.1392
  979MOL0     C29138  10.018   4.283   4.574  0.0355 -0.0577 -0.5528
  979MOL0     C29139  10.104   4.213   4.678 -0.1140  0.2955  0.6102
  979MOL0    Cl29140  10.056   4.271   4.844 -0.3715  0.2113 -0.1766
  979MOL0     C29141   9.210   4.759   4.571 -0.1058 -0.4761 -0.2847
  979MOL0     C29142   9.075   4.791   4.574 -0.7400 -0.2440  0.0947
  979MOL0     O29143   8.823   4.882   4.700 -0.6154  0.0100  0.3888
  979MOL0     C29144   8.587   4.995   4.579 -0.4877  0.3136  0.3918
  979MOL0     C29145   8.460   5.035   4.548  0.6813 -0.7782 -0.2730
  979MOL0     N29146   8.011   5.439   4.340 -0.2636  0.5609 -0.4875
  979MOL0     N29147   8.043   5.511   4.441  0.3775  0.4610  0.5413
  979MOL0     C29148   9.222   5.917   4.616  0.1485  0.1985 -0.2662
  979MOL0     C29149   9.357   5.876   4.635  1.2012  1.8185  0.6492
  979MOL0     C29150   9.795   5.803   4.541  0.8090  1.1780  0.1272
  979MOL0     C29151   9.806   5.664   4.581 -0.3815 -0.8583 -0.3984
  979MOL0     C29152   9.932   5.607   4.603 -0.2376 -0.0113  0.3064
  979MOL0     C29153  10.054   5.670   4.568  1.1066 -0.0248 -0.1923
  979MOL0     O29154  10.167   5.596   4.575 -0.5383 -0.6875 -0.3879
  979MOL0     C29155  10.295   5.661   4.572 -0.5749  0.2341 -0.3148
  979MOL0     C29156  10.350   5.722   4.701 -0.0565  0.5564 -0.0338
  979MOL0     C29157  10.501   5.744   4.697  0.4954  0.4610  2.0536
  979MOL0     C29158  10.540   5.840   4.590  0.6162  0.2781 -0.0369
  979MOL0     C29159  10.675   5.889   4.614  0.6439  0.3945  1.0620
  979MOL0     C29160  10.784   5.933   4.652 -0.2186  0.8942  0.6874
  979MOL0     C29161  10.040   5.799   4.513 -0.3888 -0.4708 -0.8972
  979MOL0     C29162   9.918   5.869   4.505  1.2550 -0.0901  0.0880
  979MOL0     H29163   9.432   5.803   4.319 -3.7244 -2.6436 -2.6240
  979MOL0     H29164   9.186   5.832   4.286 -0.2174 -1.3056 -0.4136
  979MOL0     H29165   8.996   5.878   4.298  1.7992  1.0580  0.5175
  979MOL0     H29166   8.905   6.024   4.343  1.5931  1.6024  2.5615
  979MOL0     H29167   8.790   5.899   4.530  0.2187  0.7976 -0.0355
  979MOL0     H29168   8.889   5.762   4.472  0.6848  0.5715  1.1468
  979MOL0     H29169   8.745   5.712   4.290  0.6220  0.6306 -0.6629
  979MOL0     H29170   8.691   5.884   4.276 -3.1867  1.6859  1.4585
  979MOL0     H29171   8.615   5.657   4.479 -2.1570 -1.8410 -0.6070
  979MOL0     H29172   8.577   5.835   4.508 -0.4825  2.9822 -2.4519
  979MOL0     H29173   8.466   5.671   4.270 -0.0709  0.4082 -0.1411
  979MOL0     H29174   8.469   5.848   4.306 -1.5561  0.7950  1.5902
  979MOL0     H29175   8.263   5.705   4.377 -1.2432  1.8845  0.2787
  979MOL0     H29176   8.339   5.812   4.510  2.2640  0.3466  0.8886
  979MOL0     H29177   8.421   5.520   4.486  1.0667  1.2349 -1.5208
  979MOL0     H29178   8.430   5.621   4.620  0.1336 -0.4771  0.7049
  979MOL0     H29179   8.185   5.646   4.622 -0.5153  0.0363 -1.4043
  979MOL0     H29180   8.233   5.492   4.679 -1.9867  3.4043  2.6392
  979MOL0     H29181   8.288   5.298   4.441  0.0305 -0.0067  1.0451
  979MOL0     H29182   8.221   5.200   4.203  0.1420  1.0173  1.2502
  979MOL0     H29183   8.101   5.290   4.117 -3.7365  3.5694  2.0861
  979MOL0     H29184   8.021   5.070   4.143 -0.7843 -1.0121 -0.0177
  979MOL0     H29185   7.915   5.162   4.245  0.3043 -0.7207  1.9461
  979MOL0     H29186   8.021   5.081   4.448 -1.6642 -1.0604  0.7876
  979MOL0     H29187   7.959   4.946   4.341 -0.8706  0.3116 -0.2304
  979MOL0     H29188   8.201   4.928   4.251  0.3720  0.0218  0.0790
  979MOL0     H29189   8.162   4.852   4.407 -0.8078 -1.0205 -0.9546
  979MOL0     H29190   8.375   4.784   4.331  0.6645  0.8792  0.2577
  979MOL0     H29191   8.591   4.702   4.401 -1.1527 -1.9398  0.7865
  979MOL0     H29192   8.951   4.527   4.414  1.8832 -0.1358 -1.2300
  979MOL0     H29193   9.176   4.463   4.411 -1.9684  0.2744 -2.3774
  979MOL0     H29194   9.458   4.647   4.670  0.6490  1.8333  0.8906
  979MOL0     H29195   9.474   4.774   4.537 -1.3922 -0.3598  0.1129
  979MOL0     H29196   9.686   4.686   4.590  1.1061 -2.2809  0.7410
  979MOL0     H29197   9.624   4.660   4.417  1.0258  0.4186 -0.7334
  979MOL0     H29198   9.564   4.410   4.529  1.6750 -1.2698 -1.3739
  979MOL0     H29199   9.684   4.463   4.646 -0.6839 -0.8746 -0.3410
  979MOL0     H29200   9.742   4.468   4.349  1.1509 -2.8688 -0.6002
  979MOL0     H29201   9.842   4.504   4.472 -1.8674  1.2092 -1.1449
  979MOL0     H29202   9.848   4.279   4.362  0.9489  0.5222  0.7848
  979MOL0     H29203   9.699   4.235   4.447  1.4359 -0.9246  2.2662
  979MOL0     H29204   9.869   4.131   4.562 -0.9201 -0.2038 -2.3642
  979MOL0     H29205   9.810   4.275   4.662  0.0439  0.4007 -0.5586
  979MOL0     H29206  10.066   4.265   4.477  1.7984  0.6532  0.1346
  979MOL0     H29207  10.018   4.391   4.593 -2.1004 -0.4823  2.6799
  979MOL0     H29208  10.208   4.241   4.657 -0.2652  0.3237 -0.0953
  979MOL0     H29209  10.094   4.105   4.674  1.2310  0.1326  0.9270
  979MOL0     H29210   9.263   4.837   4.623 -0.7605  0.1719 -0.5705
  979MOL0     H29211   9.051   4.879   4.633  2.2963  1.6597 -1.2491
  979MOL0     H29212   8.646   5.057   4.645  0.8955 -0.9989  0.4385
  979MOL0     H29213   8.422   5.125   4.595  1.7940 -0.0082 -0.7887
  979MOL0     H29214   9.166   5.950   4.703 -1.5051 -2.5936 -0.1649
  979MOL0     H29215   9.404   5.884   4.733  0.6600 -0.3105  1.1450
  979MOL0     H29216   9.712   5.614   4.605 -0.5507  0.2838  1.6252
  979MOL0     H29217   9.949   5.504   4.635 -1.6080 -0.7604 -1.2030
  979MOL0     H29218  10.314   5.737   4.496 -0.0385 -0.3531 -0.7802
  979MOL0     H29219  10.357   5.576   4.541 -2.5153 -1.7255  0.9233
  979MOL0     H29220  10.307   5.822   4.706  1.5139  1.3750 -1.6553
  979MOL0     H29221  10.311   5.667   4.787 -1.1027  1.4774  0.1085
  979MOL0     H29222  10.542   5.645   4.678 -1.4214  0.1127 -0.9526
  979MOL0     H29223  10.524   5.786   4.795 -1.5651  3.3807  1.4315
  979MOL0     H29224  10.549   5.786   4.495  2.0655  0.6330 -0.1245
  979MOL0     H29225  10.471   5.924   4.580  1.6192  1.0941 -0.2326
  979MOL0     H29226  10.873   5.978   4.691  0.1676  1.6897 -1.0111
  979MOL0     H29227  10.133   5.846   4.482  0.5053 -0.5802  1.4461
  979MOL0     H29228   9.926   5.967   4.459  2.4470  0.1029  0.6735
  980MOL0     O29229   1.965   4.726   3.740 -0.2607 -0.2215 -0.3845
  980MOL0     C29230   2.030   4.725   3.842 -0.0635  0.6634 -0.0585
  980MOL0     O29231   1.980   4.682   3.958  0.1930 -0.6840  0.4559
  980MOL0     C29232   1.843   4.657   3.975  0.0250  0.5810 -0.0822
  980MOL0     C29233   1.781   4.530   3.941 -0.6439 -0.5477  0.3510
  980MOL0     C29234   1.650   4.521   3.940 -0.0953  0.2538  0.4020
  980MOL0     C29235   1.565   4.621   3.992  0.0308 -0.1008  0.0946
  980MOL0     O29236   1.432   4.607   3.972  0.8035 -0.2404  0.3486
  980MOL0     C29237   1.348   4.691   4.048  0.7974  0.0771  0.7509
  980MOL0     C29238   1.205   4.642   4.008 -1.2970  0.2162 -0.6382
  980MOL0     C29239   1.108   4.687   4.117 -0.2078 -0.0350  0.3807
  980MOL0     C29240   0.980   4.626   4.103  0.5337  0.9311  0.2990
  980MOL0     C29241   0.867   4.689   4.182 -0.5854 -0.7496  0.4132
  980MOL0     C29242   0.737   4.600   4.195  0.2098  0.7370 -0.0937
  980MOL0     C29243   0.609   4.665   4.244  0.0501  0.6255 -0.2500
  980MOL0     C29244   0.507   4.553   4.274 -0.0332 -0.0450  0.3850
  980MOL0     N29245   0.522   4.481   4.406 -0.3746  0.1337  0.5797
  980MOL0     C29246   0.500   4.524   4.533 -0.0096 -1.0032  0.5724
  980MOL0     C29247   0.514   4.421   4.615 -0.3511  0.5295  0.4063
  980MOL0     C29248   0.483   4.424   4.762 -0.1132  0.0293  0.2436
  980MOL0     C29249   0.336   4.421   4.808  0.2951  0.3377  0.3048
  980MOL0     C29250   0.282   4.277   4.803 -0.7828 -0.6188  0.7614
  980MOL0     C29251   0.139   4.261   4.827  0.2927 -0.4074  0.2043
  980MOL0     O29252   0.056   4.327   4.721  0.0791  0.1751  0.1868
  980MOL0     C29253  -0.078   4.352   4.745 -0.8593  0.1693  0.1292
  980MOL0     C29254  -0.158   4.370   4.636  0.5278  0.0619  0.2202
  980MOL0     C29255  -0.301   4.378   4.652  0.4346 -0.0139 -0.7120
  980MOL0     C29256  -0.357   4.387   4.780 -0.4098 -0.7425 -0.4043
  980MOL0     C29257  -0.504   4.424   4.796 -0.1998 -0.6840  0.4937
  980MOL0     O29258  -0.542   4.465   4.924  0.1645 -0.3401  0.2602
  980MOL0     C29259  -0.675   4.500   4.949  0.1665  0.4985  0.1295
  980MOL0     C29260  -0.695   4.576   5.063 -0.4508 -0.5255  0.6458
  980MOL0     C29261  -0.821   4.609   5.107 -0.5517 -0.1855 -0.1944
  980MOL0     C29262  -0.937   4.574   5.041 -0.2323  0.4549 -0.7010
  980MOL0     O29263  -1.058   4.618   5.088 -0.0523  0.3321 -0.2337
  980MOL0     C29264  -1.163   4.535   5.063  1.0715  0.7458  0.1850
  980MOL0     C29265  -1.265   4.519   5.177 -0.1360  0.6604 -0.8643
  980MOL0     C29266  -1.397   4.447   5.143  0.1598 -0.2602  0.2940
  980MOL0     C29267  -1.467   4.498   5.013  0.7735  0.6889 -0.1102
  980MOL0     C29268  -1.593   4.417   4.980  0.6020 -0.0363 -1.2075
  980MOL0     C29269  -1.573   4.271   4.962 -0.0250  0.7934  0.7162
  980MOL0     C29270  -1.688   4.200   4.892 -0.2579 -0.3001  0.4896
  980MOL0     C29271  -1.674   4.045   4.894  0.6146  0.4201 -0.8009
  980MOL0    Cl29272  -1.785   3.977   4.787 -0.1753 -0.1445 -0.0687
  980MOL0     C29273  -0.921   4.496   4.924  0.1659  0.1002 -0.5668
  980MOL0     C29274  -0.791   4.455   4.879  0.6115  0.3204  0.5169
  980MOL0     O29275  -0.568   4.435   4.693  0.7299 -0.1321  0.1706
  980MOL0     C29276  -0.277   4.355   4.889  0.9426  0.6623 -0.2949
  980MOL0     C29277  -0.142   4.342   4.873  0.1634  0.4277  0.0437
  980MOL0     N29278   0.544   4.310   4.536 -0.1308  0.0568 -1.1116
  980MOL0     N29279   0.540   4.346   4.415  0.0520 -0.1741 -0.5357
  980MOL0     C29280   1.627   4.742   4.038 -0.4012 -0.1117 -0.2150
  980MOL0     C29281   1.761   4.762   4.021 -0.6230  0.0854  0.2380
  980MOL0     C29282   2.180   4.750   3.830  0.7241 -0.4058  0.5766
  980MOL0     C29283   2.226   4.801   3.703  0.6419 -0.3116 -0.3563
  980MOL0     C29284   2.366   4.802   3.687  0.4717 -0.2215 -0.3266
  980MOL0     C29285   2.452   4.785   3.797  0.6673  0.2340  0.6884
  980MOL0     O29286   2.582   4.783   3.763 -0.3746 -0.5989 -0.2229
  980MOL0     C29287   2.684   4.751   3.863  0.6654 -0.3660  0.2809
  980MOL0     C29288   2.808   4.742   3.773 -0.4005 -0.2762  1.0052
  980MOL0     C29289   2.927   4.706   3.859  0.2694  0.2763  0.7161
  980MOL0     C29290   3.054   4.693   3.773  0.3357 -0.0947 -0.3123
  980MOL0     C29291   3.138   4.586   3.838 -0.6032 -0.0057  0.0325
  980MOL0     C29292   3.203   4.499   3.897 -0.2294 -0.1902  0.1912
  980MOL0     C29293   2.401   4.753   3.926 -0.2084  0.2405  0.0844
  980MOL0     C29294   2.260   4.734   3.941 -0.8224 -0.6464 -0.9681
  980MOL0     H29295   1.843   4.452   3.897  0.3376  0.1142  0.5312
  980MOL0     H29296   1.605   4.444   3.878  0.8390  0.3884 -0.4583
  980MOL0     H29297   1.373   4.787   4.002  0.2555 -0.4057 -0.6179
  980MOL0     H29298   1.368   4.695   4.155 -0.0498 -1.1075  0.9759
  980MOL0     H29299   1.200   4.532   4.005 -1.4517  0.2165 -0.4204
  980MOL0     H29300   1.168   4.681   3.912 -1.4612 -0.5202 -0.8830
  980MOL0     H29301   1.096   4.796   4.117  1.1523  0.3062  4.4970
  980MOL0     H29302   1.153   4.653   4.211 -1.4695 -1.9718  0.3490
  980MOL0     H29303   0.943   4.635   4.001 -3.2893  1.2582  1.5357
  980MOL0     H29304   0.995   4.520   4.124  3.1715  0.7837 -1.8961
  980MOL0     H29305   0.851   4.778   4.121  0.8924 -1.5880 -1.2860
  980MOL0     H29306   0.897   4.708   4.286 -0.6439 -2.1243  0.6972
  980MOL0     H29307   0.767   4.515   4.257 -2.1726 -0.4341 -0.4370
  980MOL0     H29308   0.717   4.559   4.096  1.1324 -0.0549  0.0434
  980MOL0     H29309   0.632   4.725   4.332 -0.7468 -0.3539  0.6436
  980MOL0     H29310   0.560   4.724   4.166 -6.4503  0.1244  2.8365
  980MOL0     H29311   0.515   4.487   4.187  0.7289  1.4728 -0.7590
  980MOL0     H29312   0.405   4.591   4.283 -0.3941 -0.6916 -0.7732
  980MOL0     H29313   0.485   4.629   4.555 -0.0611 -0.6081 -1.1766
  980MOL0     H29314   0.498   4.525   4.801  0.3936 -0.8863  2.5870
  980MOL0     H29315   0.537   4.345   4.813 -0.1821  0.7118  1.4078
  980MOL0     H29316   0.271   4.479   4.742  0.2919 -2.1456 -2.0879
  980MOL0     H29317   0.334   4.466   4.907  3.8300 -0.4700  0.8486
  980MOL0     H29318   0.310   4.226   4.710 -0.4533 -1.2110  1.1798
  980MOL0     H29319   0.340   4.229   4.882 -0.5093 -1.2909  0.1625
  980MOL0     H29320   0.120   4.297   4.929  0.7789 -0.0273  0.1670
  980MOL0     H29321   0.123   4.153   4.827 -1.9566 -0.1453  1.6678
  980MOL0     H29322  -0.120   4.372   4.534  1.3137  0.0692  0.5042
  980MOL0     H29323  -0.371   4.396   4.571  0.8241  1.4930 -0.7543
  980MOL0     H29324  -0.605   4.600   5.119 -0.1356 -1.1565  0.4123
  980MOL0     H29325  -0.823   4.687   5.183  0.4908 -0.7336  0.4178
  980MOL0     H29326  -1.114   4.439   5.041 -0.6145 -0.1433  0.1410
  980MOL0     H29327  -1.220   4.569   4.976  0.8416  0.5688  0.2646
  980MOL0     H29328  -1.293   4.617   5.216 -0.6711  0.2063 -0.0773
  980MOL0     H29329  -1.215   4.479   5.265 -0.0518 -0.6663 -1.4847
  980MOL0     H29330  -1.472   4.452   5.222  1.5270 -0.6310  1.6506
  980MOL0     H29331  -1.381   4.342   5.119  1.0249  0.3182 -1.9467
  980MOL0     H29332  -1.506   4.597   5.040  0.1740  0.0151  1.7005
  980MOL0     H29333  -1.404   4.504   4.924  1.0569 -1.0767 -0.0635
  980MOL0     H29334  -1.647   4.466   4.898  0.8271  3.3203  0.4889
  980MOL0     H29335  -1.661   4.430   5.065  2.1956  2.1575 -0.1721
  980MOL0     H29336  -1.551   4.215   5.053  1.6718 -0.3396 -0.3417
  980MOL0     H29337  -1.488   4.256   4.895 -2.5544 -0.8964 -2.3838
  980MOL0     H29338  -1.782   4.235   4.936  0.3044 -0.2611  1.6887
  980MOL0     H29339  -1.681   4.233   4.788 -1.6398 -0.6635  0.2598
  980MOL0     H29340  -1.694   4.021   4.999  1.7026  4.6559  0.5899
  980MOL0     H29341  -1.575   4.004   4.873  1.1087 -0.0202  2.0036
  980MOL0     H29342  -0.999   4.463   4.856 -0.7520  0.6951  0.1675
  980MOL0     H29343  -0.792   4.402   4.785 -0.4225  1.6800 -0.2812
  980MOL0     H29344  -0.323   4.367   4.987 -0.8465  3.3875 -1.3629
  980MOL0     H29345  -0.077   4.322   4.958  0.2443  0.5194  0.0040
  980MOL0     H29346   1.563   4.825   4.064 -0.7644 -0.0631 -1.2019
  980MOL0     H29347   1.792   4.861   4.051 -0.2933  0.1484 -0.3037
  980MOL0     H29348   2.155   4.810   3.621  0.7573  1.9401 -0.2693
  980MOL0     H29349   2.402   4.836   3.591 -2.5676  2.5669 -0.6629
  980MOL0     H29350   2.656   4.664   3.923  0.5220 -1.3453 -1.1606
  980MOL0     H29351   2.704   4.833   3.931  0.1732  2.1300 -2.3733
  980MOL0     H29352   2.790   4.669   3.693  1.5819 -2.8013  2.6940
  980MOL0     H29353   2.834   4.838   3.729  0.0452 -0.3550  1.0895
  980MOL0     H29354   2.895   4.621   3.921 -0.5439 -0.1968 -0.3109
  980MOL0     H29355   2.934   4.780   3.938 -3.4592  1.8680 -0.2279
  980MOL0     H29356   3.034   4.662   3.670  2.4903 -1.9466 -0.2511
  980MOL0     H29357   3.108   4.788   3.765 -0.5111  0.2621 -2.7821
  980MOL0     H29358   3.255   4.425   3.955  0.6670 -1.3845 -2.0065
  980MOL0     H29359   2.468   4.717   4.003 -0.2023 -2.2428 -0.9882
  980MOL0     H29360   2.223   4.691   4.034  2.1355 -2.5454 -0.5231
  981MOL0     O29361   2.861   6.489   4.699 -0.1550  0.2287  0.3061
  981MOL0     C29362   2.804   6.584   4.650 -0.1397 -1.3072 -1.0165
  981MOL0     O29363   2.681   6.590   4.613 -0.0821 -0.4591  0.2960
  981MOL0     C29364   2.608   6.479   4.608  0.5954  0.3813 -0.2062
  981MOL0     C29365   2.483   6.475   4.682 -0.6583 -0.3814 -0.9242
  981MOL0     C29366   2.397   6.364   4.674 -0.2316  0.1037  0.1946
  981MOL0     C29367   2.427   6.259   4.583  0.0812 -0.1671  1.0751
  981MOL0     O29368   2.347   6.158   4.559  0.0734  0.2040 -0.0034
  981MOL0     C29369   2.203   6.167   4.567 -0.4446 -0.1105  0.7113
  981MOL0     C29370   2.144   6.081   4.458  0.7121 -0.1665  0.0059
  981MOL0     C29371   1.991   6.071   4.463 -0.9301  0.0227  0.6503
  981MOL0     C29372   1.922   6.210   4.426 -0.0921  0.4806  0.0099
  981MOL0     C29373   1.787   6.238   4.491 -0.8389  0.8456 -0.2449
  981MOL0     C29374   1.688   6.139   4.465  0.4677  0.1402  0.2819
  981MOL0     C29375   1.546   6.206   4.492 -0.4120 -0.5999 -0.1947
  981MOL0     C29376   1.434   6.097   4.493  0.4633  0.0979  0.9327
  981MOL0     N29377   1.306   6.156   4.521  0.2661 -0.5201 -0.4808
  981MOL0     C29378   1.234   6.149   4.637  0.9859 -0.1807 -0.4859
  981MOL0     C29379   1.104   6.178   4.608 -0.2320  0.9269 -0.2197
  981MOL0     C29380   0.990   6.164   4.704  0.4335 -0.7039 -0.6263
  981MOL0     C29381   0.854   6.220   4.654  0.6245  1.4349 -0.2696
  981MOL0     C29382   0.784   6.151   4.535  0.6023  0.8308  0.0689
  981MOL0     C29383   0.648   6.218   4.499 -0.1074 -0.3997  0.9569
  981MOL0     O29384   0.543   6.155   4.561  0.0985  0.4816  0.0616
  981MOL0     C29385   0.423   6.223   4.590 -0.6804  0.6274 -0.0963
  981MOL0     C29386   0.339   6.180   4.685  0.1567 -0.3497  0.8892
  981MOL0     C29387   0.209   6.235   4.709 -0.6203 -0.5409 -0.7292
  981MOL0     C29388   0.170   6.350   4.640  0.3478  0.7718 -1.4915
  981MOL0     C29389   0.036   6.399   4.664 -0.3690 -0.0381  0.4032
  981MOL0     O29390  -0.042   6.334   4.754  0.4564  0.3060  1.0287
  981MOL0     C29391  -0.168   6.374   4.785  0.6487 -0.3146 -0.2015
  981MOL0     C29392  -0.188   6.502   4.853 -0.1439  0.6751  0.0525
  981MOL0     C29393  -0.314   6.551   4.880  0.3299 -0.5605  0.4777
  981MOL0     C29394  -0.426   6.469   4.852 -0.5193 -0.0847 -0.0503
  981MOL0     O29395  -0.559   6.492   4.862 -0.0807  0.2827 -0.1989
  981MOL0     C29396  -0.600   6.593   4.961  1.0410  0.2973  0.3692
  981MOL0     C29397  -0.757   6.621   4.943 -1.0499 -0.7271  1.1711
  981MOL0     C29398  -0.852   6.514   4.985  0.4202  0.8908  0.2255
  981MOL0     C29399  -0.998   6.554   4.964 -0.2152  0.4278 -0.3618
  981MOL0     C29400  -1.079   6.440   5.032 -0.3658  0.0429  0.5695
  981MOL0     C29401  -1.226   6.445   4.984  0.7974 -0.1829 -0.1020
  981MOL0     C29402  -1.308   6.336   5.057 -0.4838  0.6864  0.3144
  981MOL0     C29403  -1.283   6.189   4.988  1.3232 -0.0718  0.0013
  981MOL0    Cl29404  -1.388   6.067   5.060 -0.0415  0.2176 -0.2669
  981MOL0     C29405  -0.404   6.341   4.794  0.6916 -1.6417 -0.0370
  981MOL0     C29406  -0.276   6.293   4.752  0.6429  0.0481  0.3528
  981MOL0     O29407   0.002   6.498   4.599 -0.3564  0.0142  0.1283
  981MOL0     C29408   0.266   6.407   4.552 -0.9680  0.4434  0.1843
  981MOL0     C29409   0.392   6.338   4.531 -0.2650 -0.1104 -0.6498
  981MOL0     N29410   1.100   6.210   4.471 -0.8302  0.1353 -0.4651
  981MOL0     N29411   1.218   6.192   4.428  0.1984  0.6351  0.7120
  981MOL0     C29412   2.545   6.267   4.497 -0.6119  0.2422 -0.3064
  981MOL0     C29413   2.631   6.383   4.509 -0.1528  0.2714 -0.1539
  981MOL0     C29414   2.881   6.705   4.643 -0.1728 -0.3068  0.2849
  981MOL0     C29415   3.023   6.698   4.666  0.8043 -1.0082  0.3836
  981MOL0     C29416   3.102   6.816   4.661  0.0608 -0.4752  0.0051
  981MOL0     C29417   3.035   6.937   4.648 -0.7334  0.4113  0.4132
  981MOL0     O29418   3.116   7.045   4.664  0.2282  0.9446  0.0366
  981MOL0     C29419   3.050   7.170   4.692  0.3557  0.5611  0.6714
  981MOL0     C29420   3.174   7.267   4.707  0.5618 -0.7948  0.1638
  981MOL0     C29421   3.124   7.410   4.725  0.0644 -0.6477  1.1769
  981MOL0     C29422   3.079   7.446   4.866 -0.5720  0.5851 -0.1785
  981MOL0     C29423   3.053   7.588   4.882  0.0652 -0.3904  0.0105
  981MOL0     C29424   3.030   7.708   4.897 -0.7550 -0.3695  0.8171
  981MOL0     C29425   2.895   6.947   4.616  0.0515  0.0502 -0.2524
  981MOL0     C29426   2.822   6.830   4.619 -0.5236  0.0976 -0.3472
  981MOL0     H29427   2.451   6.555   4.748  3.3186 -1.1900  2.4114
  981MOL0     H29428   2.303   6.364   4.729  0.3778  0.2803  1.2532
  981MOL0     H29429   2.177   6.273   4.570  2.0776  0.5518  1.9175
  981MOL0     H29430   2.171   6.125   4.662  0.8636  0.4649  1.4426
  981MOL0     H29431   2.180   5.978   4.467  2.4990  0.0967 -2.7487
  981MOL0     H29432   2.168   6.131   4.364  1.7211  2.2564  1.4634
  981MOL0     H29433   1.967   6.049   4.567 -3.8876 -1.1470 -0.1747
  981MOL0     H29434   1.948   5.993   4.399  0.5892 -0.3608  0.0589
  981MOL0     H29435   1.978   6.300   4.451 -1.1048  0.6564  1.8482
  981MOL0     H29436   1.913   6.214   4.317 -1.6526  3.6229  0.1404
  981MOL0     H29437   1.758   6.333   4.445  0.7234  1.6599  0.4005
  981MOL0     H29438   1.799   6.257   4.598 -2.6759  2.2799 -0.2350
  981MOL0     H29439   1.691   6.047   4.524 -0.9500 -1.1794 -1.5609
  981MOL0     H29440   1.691   6.103   4.362  2.0926 -4.3679  1.6597
  981MOL0     H29441   1.555   6.251   4.591  1.8103 -0.9666 -0.1718
  981MOL0     H29442   1.523   6.290   4.426 -2.7156  1.6223  3.1545
  981MOL0     H29443   1.455   6.020   4.569  2.0353 -0.4457 -0.0079
  981MOL0     H29444   1.420   6.042   4.399 -1.3992  0.1116  1.1728
  981MOL0     H29445   1.277   6.129   4.734  0.7310 -1.0224 -0.5381
  981MOL0     H29446   1.015   6.229   4.788 -2.5313 -0.2640  0.0287
  981MOL0     H29447   0.984   6.064   4.747 -0.2370 -0.7826 -0.8985
  981MOL0     H29448   0.880   6.321   4.621  2.6171  0.7260 -0.9747
  981MOL0     H29449   0.781   6.212   4.735  0.9599 -3.0336 -0.1584
  981MOL0     H29450   0.846   6.140   4.446  1.9165 -1.1491  1.1453
  981MOL0     H29451   0.754   6.049   4.560 -0.4679  1.4295  1.3581
  981MOL0     H29452   0.630   6.197   4.393  1.7244 -0.5357  0.6389
  981MOL0     H29453   0.652   6.325   4.523 -1.2788  0.3516 -1.7280
  981MOL0     H29454   0.370   6.095   4.746 -2.8474 -1.5575  0.9222
  981MOL0     H29455   0.148   6.186   4.785  0.4008  1.8649  1.8377
  981MOL0     H29456  -0.097   6.553   4.884  0.2316 -0.1437  0.3339
  981MOL0     H29457  -0.331   6.652   4.915 -2.1652 -0.7950  0.1034
  981MOL0     H29458  -0.538   6.682   4.945  1.8572 -0.2118  0.5871
  981MOL0     H29459  -0.592   6.558   5.065 -1.8573 -0.1951  0.4898
  981MOL0     H29460  -0.777   6.667   4.846  0.3327  0.5306  1.4500
  981MOL0     H29461  -0.768   6.697   5.022 -0.2489 -1.8820  2.4329
  981MOL0     H29462  -0.828   6.492   5.089  1.7971 -1.7746 -0.5863
  981MOL0     H29463  -0.832   6.421   4.931 -2.4752 -1.0122  2.1476
  981MOL0     H29464  -1.032   6.653   4.994 -3.0834 -0.7146  0.5417
  981MOL0     H29465  -1.018   6.550   4.857  2.1423  0.0744 -0.8493
  981MOL0     H29466  -1.079   6.462   5.139  1.3599  1.4548  0.3116
  981MOL0     H29467  -1.034   6.341   5.014  1.0339  0.2596  2.5928
  981MOL0     H29468  -1.249   6.435   4.878  1.5917  2.4667 -0.5928
  981MOL0     H29469  -1.253   6.546   5.014  1.0778  0.3383 -1.5732
  981MOL0     H29470  -1.285   6.345   5.164 -2.6904 -2.4312  1.1663
  981MOL0     H29471  -1.412   6.361   5.037 -1.1323  0.1529  2.7515
  981MOL0     H29472  -1.180   6.159   5.011  1.0818  1.3002  3.5131
  981MOL0     H29473  -1.309   6.189   4.882 -0.6364 -1.5618  0.4377
  981MOL0     H29474  -0.492   6.283   4.768 -0.6616 -0.5657  1.8376
  981MOL0     H29475  -0.274   6.196   4.704  0.6615  0.7839 -1.2146
  981MOL0     H29476   0.237   6.505   4.516 -0.1349 -0.5892 -3.7210
  981MOL0     H29477   0.457   6.381   4.455 -1.1163  2.5585 -0.0002
  981MOL0     H29478   2.559   6.196   4.416 -0.3319  2.2657 -2.1060
  981MOL0     H29479   2.720   6.398   4.449  0.1592  2.6272  0.7807
  981MOL0     H29480   3.071   6.601   4.680  2.1764 -0.2685  0.9057
  981MOL0     H29481   3.208   6.817   4.685  0.0967 -0.3053 -0.1645
  981MOL0     H29482   2.989   7.170   4.783  0.4262  1.8476  0.7390
  981MOL0     H29483   2.987   7.203   4.609 -1.1436 -0.1598  1.4740
  981MOL0     H29484   3.246   7.245   4.787  1.7512 -0.7947 -0.8607
  981MOL0     H29485   3.237   7.257   4.618  1.0969  2.7845  0.0109
  981MOL0     H29486   3.052   7.447   4.652  0.8956  4.1114  2.3930
  981MOL0     H29487   3.214   7.471   4.710  0.2314 -0.6075  2.2360
  981MOL0     H29488   2.989   7.384   4.872 -0.2275 -0.5437 -4.0774
  981MOL0     H29489   3.154   7.421   4.942  0.1537  2.8889 -0.0607
  981MOL0     H29490   3.018   7.813   4.916 -0.8771  0.0127 -1.1017
  981MOL0     H29491   2.839   7.039   4.605 -1.1314 -0.3062  2.1762
  981MOL0     H29492   2.716   6.826   4.597 -1.0567 -2.0641  2.0660
  982MOL0     O29493   4.559   6.854   3.525  0.7851 -0.6428 -0.2084
  982MOL0     C29494   4.579   6.859   3.403 -0.3645 -0.5143 -0.4302
  982MOL0     O29495   4.489   6.804   3.307  0.4117  0.1922  0.7166
  982MOL0     C29496   4.388   6.722   3.332  1.3975  0.5644 -0.6061
  982MOL0     C29497   4.376   6.638   3.443  0.1193 -0.3883  0.8690
  982MOL0     C29498   4.258   6.559   3.455 -0.4524  0.1643 -0.1729
  982MOL0     C29499   4.155   6.555   3.356  0.1541  0.4967  0.5240
  982MOL0     O29500   4.033   6.482   3.364 -0.0896  0.0654 -0.4821
  982MOL0     C29501   4.004   6.403   3.484 -0.2622  0.0454  0.8828
  982MOL0     C29502   3.857   6.392   3.495  0.3287  0.5162 -0.0321
  982MOL0     C29503   3.792   6.290   3.393  0.0595  0.2344  0.0975
  982MOL0     C29504   3.647   6.309   3.374  0.4845  1.4679  0.3451
  982MOL0     C29505   3.589   6.193   3.297 -0.4721 -0.1876 -0.1253
  982MOL0     C29506   3.431   6.194   3.301 -0.2601  0.5364  0.4248
  982MOL0     C29507   3.363   6.321   3.260 -0.6261 -0.5964 -0.3669
  982MOL0     C29508   3.313   6.410   3.380 -0.0363 -0.4707  0.0839
  982MOL0     N29509   3.195   6.483   3.335 -0.9597 -0.1841 -0.3433
  982MOL0     C29510   3.072   6.482   3.395  0.2350 -0.2667 -0.7438
  982MOL0     C29511   2.980   6.558   3.332  1.3595 -1.3728 -0.0156
  982MOL0     C29512   2.833   6.574   3.359 -0.0503 -0.1585  0.5175
  982MOL0     C29513   2.802   6.679   3.463 -0.1643 -0.2296 -0.0704
  982MOL0     C29514   2.839   6.627   3.600 -0.2396 -0.4309 -0.2512
  982MOL0     C29515   2.746   6.523   3.661 -0.4075  0.3981  0.1092
  982MOL0     O29516   2.621   6.593   3.702  0.1207 -0.0286  0.5625
  982MOL0     C29517   2.510   6.518   3.723 -0.2420  0.0807  0.9081
  982MOL0     C29518   2.505   6.376   3.708 -0.1245 -0.7165  0.2033
  982MOL0     C29519   2.377   6.311   3.722 -0.6711  0.2604  0.9228
  982MOL0     C29520   2.258   6.382   3.728  0.2442 -1.0482 -0.2856
  982MOL0     C29521   2.135   6.310   3.709  0.2540 -1.1034 -0.3571
  982MOL0     O29522   2.133   6.180   3.704 -0.4228  0.1582  0.0392
  982MOL0     C29523   2.012   6.112   3.707  0.3473 -0.0029 -0.8643
  982MOL0     C29524   1.910   6.147   3.796 -0.6826 -0.4947  0.3557
  982MOL0     C29525   1.792   6.073   3.812  0.6262  1.5476 -0.0697
  982MOL0     C29526   1.779   5.956   3.737 -0.0592 -0.9402 -0.3026
  982MOL0     O29527   1.664   5.883   3.710  0.1894  0.1368 -0.0454
  982MOL0     C29528   1.546   5.905   3.781  1.3887 -0.7524  0.2699
  982MOL0     C29529   1.549   5.868   3.927  0.2405 -0.7053  0.4345
  982MOL0     C29530   1.479   5.966   4.018  0.2625 -0.0238 -0.1036
  982MOL0     C29531   1.331   5.987   3.971 -0.5658 -0.1943 -0.2442
  982MOL0     C29532   1.245   6.037   4.090 -0.4804 -0.8597  0.2488
  982MOL0     C29533   1.202   5.924   4.181 -0.4316  0.8654  0.0834
  982MOL0     C29534   1.077   5.933   4.262 -0.6761  0.1455 -1.0141
  982MOL0     C29535   1.086   5.842   4.380  0.7554 -0.7825  0.2947
  982MOL0    Cl29536   1.109   5.672   4.312  0.0920 -0.1923 -0.5023
  982MOL0     C29537   1.888   5.911   3.661  0.0225 -0.5604 -0.2990
  982MOL0     C29538   2.010   5.985   3.650  0.1438  0.5089  0.1077
  982MOL0     O29539   2.037   6.385   3.706  0.0323 -0.0127  0.3645
  982MOL0     C29540   2.268   6.523   3.758  0.5441  0.1050  0.2592
  982MOL0     C29541   2.390   6.588   3.748 -0.0865  0.0933 -0.5928
  982MOL0     N29542   3.057   6.626   3.240 -0.6520 -0.0127  0.5915
  982MOL0     N29543   3.186   6.575   3.234  0.3844 -0.1657  0.0406
  982MOL0     C29544   4.182   6.624   3.238  0.9250  0.1556 -0.2537
  982MOL0     C29545   4.285   6.721   3.233  0.4239 -0.3978  0.5489
  982MOL0     C29546   4.711   6.921   3.350 -0.0010  0.1240 -0.2759
  982MOL0     C29547   4.736   6.926   3.213 -0.5409  0.5964 -0.3565
  982MOL0     C29548   4.845   6.993   3.162 -0.4047 -0.4306  0.0156
  982MOL0     C29549   4.930   7.063   3.246 -0.1818 -0.2183 -1.7167
  982MOL0     O29550   5.031   7.132   3.190 -0.0753 -0.2926  0.0898
  982MOL0     C29551   5.135   7.177   3.267 -0.5687  0.4790 -0.1393
  982MOL0     C29552   5.269   7.183   3.196 -0.1595  0.3388 -0.0218
  982MOL0     C29553   5.291   7.064   3.101  0.6802  0.2408 -0.4399
  982MOL0     C29554   5.435   7.052   3.064  0.5375 -0.1228 -0.7053
  982MOL0     C29555   5.451   6.929   2.988 -0.1992 -1.0799  0.4141
  982MOL0     C29556   5.473   6.822   2.944  1.1785  0.9092  0.2569
  982MOL0     C29557   4.904   7.074   3.389  0.3184 -0.0888  0.4163
  982MOL0     C29558   4.794   6.994   3.438  0.0918 -0.0997  0.5530
  982MOL0     H29559   4.451   6.626   3.520  3.3535 -1.0858 -2.1411
  982MOL0     H29560   4.250   6.494   3.542  0.7529 -1.5836 -1.2964
  982MOL0     H29561   4.041   6.446   3.578 -1.0579 -0.4835  1.4431
  982MOL0     H29562   4.058   6.309   3.473  0.1952 -0.2025  4.0531
  982MOL0     H29563   3.812   6.488   3.468  1.4595  1.0767  0.0351
  982MOL0     H29564   3.828   6.362   3.596 -0.8063  0.1075 -0.4630
  982MOL0     H29565   3.804   6.186   3.424 -0.1738 -0.5045 -2.1741
  982MOL0     H29566   3.842   6.303   3.297 -0.5973  0.5610 -0.2105
  982MOL0     H29567   3.597   6.309   3.471 -0.3140 -0.6962 -0.0174
  982MOL0     H29568   3.614   6.405   3.335 -4.2223 -0.3551 -0.8111
  982MOL0     H29569   3.623   6.099   3.342 -1.1415 -1.6410 -2.4421
  982MOL0     H29570   3.626   6.199   3.194 -0.4855 -4.3981 -0.5479
  982MOL0     H29571   3.391   6.170   3.400 -0.6511  4.8217  1.4895
  982MOL0     H29572   3.411   6.115   3.227 -1.0380  0.9102  0.2235
  982MOL0     H29573   3.426   6.382   3.195 -0.8693  0.5075  0.4062
  982MOL0     H29574   3.278   6.305   3.192 -0.3782  2.6598 -1.6237
  982MOL0     H29575   3.396   6.477   3.404 -0.6050  0.3616 -0.1992
  982MOL0     H29576   3.293   6.353   3.471  2.9711 -0.0311  1.1367
  982MOL0     H29577   3.045   6.421   3.481  0.6471 -0.6260 -0.8624
  982MOL0     H29578   2.783   6.479   3.382 -1.0938  0.2560  0.0487
  982MOL0     H29579   2.779   6.611   3.271  0.6660  0.8571  0.4939
  982MOL0     H29580   2.700   6.715   3.449 -0.1387  0.0667  0.4833
  982MOL0     H29581   2.853   6.773   3.444 -3.1418  1.6859  0.7785
  982MOL0     H29582   2.941   6.586   3.596 -1.3137 -3.2677 -0.4099
  982MOL0     H29583   2.842   6.717   3.662  1.0819  1.4151 -2.7967
  982MOL0     H29584   2.791   6.488   3.755  0.1365 -0.9733 -0.6310
  982MOL0     H29585   2.729   6.434   3.601 -0.9065 -0.2379  1.1693
  982MOL0     H29586   2.593   6.317   3.687 -0.3145  0.0843 -3.6408
  982MOL0     H29587   2.399   6.208   3.697  0.2735  0.2192  1.8419
  982MOL0     H29588   1.920   6.238   3.855  1.3192 -0.5109  0.1274
  982MOL0     H29589   1.713   6.124   3.867 -3.7227 -2.1897 -2.2506
  982MOL0     H29590   1.460   5.851   3.739  0.2120  0.6380  0.8035
  982MOL0     H29591   1.532   6.014   3.781 -0.1407 -0.8316  3.5860
  982MOL0     H29592   1.655   5.884   3.952  0.0825  1.4937 -0.1348
  982MOL0     H29593   1.506   5.768   3.942  2.3445 -1.9490 -1.1387
  982MOL0     H29594   1.538   6.058   4.022  0.0747  0.3965 -3.5996
  982MOL0     H29595   1.474   5.934   4.122 -4.0935  2.2462  0.6462
  982MOL0     H29596   1.340   6.068   3.899  1.7192  0.7781  1.0343
  982MOL0     H29597   1.295   5.899   3.916  2.1862 -0.9561 -0.9750
  982MOL0     H29598   1.151   6.073   4.048 -1.0880 -2.6386 -0.0001
  982MOL0     H29599   1.286   6.114   4.157 -0.7742 -2.1751  2.0083
  982MOL0     H29600   1.290   5.905   4.243 -0.7509  2.1541  0.9629
  982MOL0     H29601   1.186   5.838   4.115  3.5063  2.0210 -2.7172
  982MOL0     H29602   1.061   6.036   4.295  0.3104  0.6523 -2.0408
  982MOL0     H29603   0.992   5.907   4.198 -1.3452  1.1588 -0.5600
  982MOL0     H29604   0.991   5.845   4.434 -0.2695 -2.3931 -1.3106
  982MOL0     H29605   1.166   5.878   4.446 -1.6328  0.4577  2.6670
  982MOL0     H29606   1.876   5.815   3.612  0.3748 -0.6531 -0.2063
  982MOL0     H29607   2.090   5.939   3.594 -0.1095  1.3254 -0.9646
  982MOL0     H29608   2.172   6.569   3.778  0.0139 -0.7409 -0.2845
  982MOL0     H29609   2.380   6.696   3.751  0.6500  0.1607 -0.4334
  982MOL0     H29610   4.114   6.603   3.157  2.7328 -1.1080 -1.5439
  982MOL0     H29611   4.273   6.786   3.147 -1.4447  1.1134  1.8647
  982MOL0     H29612   4.673   6.878   3.139 -0.2010  1.4467 -1.2285
  982MOL0     H29613   4.877   6.989   3.058  1.6777  1.3884  0.4929
  982MOL0     H29614   5.150   7.118   3.358 -0.4762 -2.9456 -2.1924
  982MOL0     H29615   5.114   7.280   3.297 -0.8391 -0.2037  2.2451
  982MOL0     H29616   5.277   7.280   3.145 -3.0642 -0.5543 -2.4933
  982MOL0     H29617   5.344   7.181   3.275 -0.1282 -2.8612 -0.0057
  982MOL0     H29618   5.229   7.086   3.014  1.0932  0.1992 -0.7484
  982MOL0     H29619   5.265   6.977   3.162  0.4419  0.2662 -0.5033
  982MOL0     H29620   5.457   7.142   3.006  0.4496  0.1247 -0.3605
  982MOL0     H29621   5.484   7.062   3.162 -1.5098 -3.3988  0.8107
  982MOL0     H29622   5.475   6.734   2.882  2.1309  2.7402 -2.4933
  982MOL0     H29623   4.962   7.140   3.453 -0.7522 -0.4786  1.8434
  982MOL0     H29624   4.756   7.011   3.539 -0.6245  2.3410 -0.0433
  983MOL0     O29625   1.307   6.272   7.576  0.2040 -0.6211 -0.1606
  983MOL0     C29626   1.350   6.381   7.607  0.6595 -0.3790  0.4464
  983MOL0     O29627   1.275   6.489   7.651 -0.5180  0.3292 -0.2435
  983MOL0     C29628   1.150   6.460   7.700  0.8040  0.4643  1.3361
  983MOL0     C29629   1.124   6.353   7.786  0.4699  0.3061  0.1160
  983MOL0     C29630   0.994   6.322   7.822 -0.4222  0.2900 -0.0860
  983MOL0     C29631   0.888   6.409   7.784 -0.8197  0.4652 -0.2355
  983MOL0     O29632   0.766   6.390   7.838  0.0499  0.5100 -0.1363
  983MOL0     C29633   0.654   6.469   7.788  0.6863 -0.8507  0.7176
  983MOL0     C29634   0.528   6.399   7.818  0.4317 -1.2382  0.1733
  983MOL0     C29635   0.407   6.502   7.800 -0.0139 -1.0476 -0.0744
  983MOL0     C29636   0.288   6.435   7.866  0.0259 -0.0321 -0.3904
  983MOL0     C29637   0.176   6.536   7.906  0.2467 -0.0175  0.1289
  983MOL0     C29638   0.055   6.459   7.968 -0.5847  0.1850  0.4669
  983MOL0     C29639  -0.054   6.554   8.011 -0.1462  0.1608 -0.0622
  983MOL0     C29640  -0.154   6.469   8.088 -0.9076 -0.3200 -0.1887
  983MOL0     N29641  -0.277   6.553   8.112  0.0311 -0.1860  0.2758
  983MOL0     C29642  -0.388   6.535   8.031  0.0929 -0.6790 -1.0304
  983MOL0     C29643  -0.478   6.609   8.099  0.6511  0.8092 -0.5982
  983MOL0     C29644  -0.629   6.627   8.074 -0.2220  0.2590  0.7369
  983MOL0     C29645  -0.715   6.612   8.197 -0.4706 -0.0455 -0.1291
  983MOL0     C29646  -0.691   6.485   8.275  0.5536  1.0127 -0.6905
  983MOL0     C29647  -0.796   6.450   8.382 -0.3352  0.0750 -0.3791
  983MOL0     O29648  -0.747   6.488   8.518  0.5733  0.1997 -0.0346
  983MOL0     C29649  -0.820   6.413   8.609 -0.4071  0.7407  0.4768
  983MOL0     C29650  -0.946   6.459   8.645  0.0922 -0.1092  0.0978
  983MOL0     C29651  -1.020   6.383   8.734  0.8257 -0.8947 -0.6295
  983MOL0     C29652  -0.972   6.267   8.788 -0.1999 -0.4661 -0.6555
  983MOL0     C29653  -1.064   6.171   8.864  0.0623 -0.2110  0.3502
  983MOL0     O29654  -1.197   6.199   8.866  0.3393  0.3022 -0.0173
  983MOL0     C29655  -1.265   6.132   8.964 -0.2297  0.3641 -0.1196
  983MOL0     C29656  -1.326   6.010   8.936 -0.7168  0.5174  0.2915
  983MOL0     C29657  -1.387   5.939   9.038  0.4489  0.4935  0.0809
  983MOL0     C29658  -1.418   5.999   9.161 -0.1790  0.2344  0.1131
  983MOL0     O29659  -1.501   5.937   9.255  0.0608 -0.1164  0.2253
  983MOL0     C29660  -1.523   5.996   9.386 -0.0873  0.2210 -0.1426
  983MOL0     C29661  -1.602   5.895   9.477  0.4620  0.1911  0.0343
  983MOL0     C29662  -1.752   5.890   9.426  0.3372  0.4203  0.0211
  983MOL0     C29663  -1.828   5.769   9.497 -0.4886 -0.2942  0.3960
  983MOL0     C29664  -1.985   5.796   9.490 -0.3280  0.2119  0.1101
  983MOL0     C29665  -2.079   5.684   9.555  0.6677 -0.2069 -1.2639
  983MOL0     C29666  -2.227   5.700   9.530 -0.8698  0.6221 -0.3258
  983MOL0     C29667  -2.289   5.842   9.546 -0.5277  0.2084 -0.3311
  983MOL0    Cl29668  -2.332   5.884   9.720 -0.3895 -0.3411 -0.4879
  983MOL0     C29669  -1.360   6.120   9.186 -0.6430  0.1638 -0.3795
  983MOL0     C29670  -1.282   6.188   9.095 -0.1317  0.3012  0.9104
  983MOL0     O29671  -1.005   6.076   8.912  0.1745 -0.4625  0.7462
  983MOL0     C29672  -0.838   6.223   8.757  0.4262  0.4894 -0.1072
  983MOL0     C29673  -0.764   6.298   8.668 -1.4123 -0.0627 -0.4049
  983MOL0     N29674  -0.421   6.671   8.206  0.6099 -0.7046 -1.1684
  983MOL0     N29675  -0.296   6.645   8.208  0.2754  0.2136 -0.2992
  983MOL0     C29676   0.924   6.527   7.713 -0.3017 -0.3350  0.5233
  983MOL0     C29677   1.047   6.551   7.666  0.4247 -0.7464 -0.2930
  983MOL0     C29678   1.497   6.408   7.579  0.1163  0.1048  0.4226
  983MOL0     C29679   1.565   6.521   7.629 -0.0528 -0.6684 -0.0418
  983MOL0     C29680   1.707   6.540   7.628  0.2946 -0.8054 -0.6066
  983MOL0     C29681   1.781   6.445   7.567 -0.8915  0.2041 -0.6620
  983MOL0     O29682   1.922   6.453   7.545  0.2259  0.3795 -0.5695
  983MOL0     C29683   1.992   6.565   7.598 -0.0906  0.1377 -0.0204
  983MOL0     C29684   2.141   6.565   7.541  0.2295 -0.3059 -0.5634
  983MOL0     C29685   2.220   6.442   7.578 -0.1703  0.1202  0.6428
  983MOL0     C29686   2.358   6.468   7.511  0.1336  0.4064 -0.6637
  983MOL0     C29687   2.444   6.352   7.563 -0.6475 -0.2200  0.9338
  983MOL0     C29688   2.506   6.260   7.611  0.5456  0.0384 -0.7710
  983MOL0     C29689   1.720   6.334   7.508 -0.5328  0.0970 -0.1950
  983MOL0     C29690   1.581   6.317   7.514 -0.2505  0.9064 -0.5175
  983MOL0     H29691   1.204   6.289   7.823  0.1365  0.2242  0.7099
  983MOL0     H29692   0.965   6.242   7.889  0.2426 -3.1329 -3.5419
  983MOL0     H29693   0.655   6.477   7.679  0.3573  0.0649  0.7684
  983MOL0     H29694   0.650   6.570   7.830 -0.9308 -0.8364  0.5658
  983MOL0     H29695   0.541   6.364   7.921  0.9454  1.3668  1.0587
  983MOL0     H29696   0.516   6.320   7.743  0.9693  1.0899 -2.5280
  983MOL0     H29697   0.378   6.532   7.700 -0.8715  1.0364  0.7544
  983MOL0     H29698   0.420   6.588   7.866  2.4246 -1.3283 -0.1077
  983MOL0     H29699   0.261   6.360   7.790  0.8428 -0.7168 -0.0296
  983MOL0     H29700   0.325   6.393   7.960 -1.7833 -0.5132  0.1484
  983MOL0     H29701   0.152   6.585   7.811 -0.0321  1.7790  1.0898
  983MOL0     H29702   0.215   6.613   7.973  1.3768 -1.3263  1.0281
  983MOL0     H29703   0.088   6.411   8.060 -0.9994 -2.1608 -0.5401
  983MOL0     H29704   0.016   6.396   7.888  2.6872  0.7748 -1.7890
  983MOL0     H29705  -0.007   6.616   8.088  2.3591 -1.1723 -0.4119
  983MOL0     H29706  -0.095   6.605   7.924  1.4791 -1.9911 -2.2101
  983MOL0     H29707  -0.113   6.433   8.182 -2.1212 -0.8607  0.1575
  983MOL0     H29708  -0.183   6.375   8.041 -2.0142 -1.5997  2.8137
  983MOL0     H29709  -0.390   6.469   7.945  2.7374  0.6759 -2.2526
  983MOL0     H29710  -0.660   6.553   7.999  1.2658  1.8044 -1.5370
  983MOL0     H29711  -0.645   6.725   8.029  0.1821  0.0421  0.1111
  983MOL0     H29712  -0.817   6.617   8.160 -0.0841 -0.7454 -1.3722
  983MOL0     H29713  -0.689   6.701   8.255  3.1053 -1.6562  1.0379
  983MOL0     H29714  -0.704   6.402   8.206  1.5348 -1.4067  1.8511
  983MOL0     H29715  -0.589   6.478   8.312 -0.0717 -3.5467  0.8121
  983MOL0     H29716  -0.823   6.344   8.376  1.1260 -0.3623  0.3292
  983MOL0     H29717  -0.892   6.495   8.359 -0.3128 -0.8477 -2.4873
  983MOL0     H29718  -0.982   6.554   8.607  2.9088  2.2406  2.8067
  983MOL0     H29719  -1.120   6.416   8.759  0.3933 -1.7274 -1.1821
  983MOL0     H29720  -1.333   5.974   8.834 -1.4545  0.6337  0.2950
  983MOL0     H29721  -1.440   5.844   9.028 -0.4077  1.0779 -1.1076
  983MOL0     H29722  -1.581   6.086   9.364  1.5645  0.9469 -1.7556
  983MOL0     H29723  -1.425   6.021   9.428  0.4711 -1.0895 -0.5914
  983MOL0     H29724  -1.609   5.927   9.581  0.0117 -1.3526  0.5009
  983MOL0     H29725  -1.565   5.793   9.464 -1.4808 -0.2181 -4.4840
  983MOL0     H29726  -1.768   5.885   9.318 -0.4934 -1.2441  0.1827
  983MOL0     H29727  -1.799   5.983   9.461  2.1210  1.2309  0.3493
  983MOL0     H29728  -1.800   5.677   9.445  1.4115  1.1723 -1.3441
  983MOL0     H29729  -1.797   5.764   9.601  0.6498 -0.1688  0.0696
  983MOL0     H29730  -2.016   5.796   9.385 -1.2560  2.1004  0.3400
  983MOL0     H29731  -2.008   5.888   9.545  0.3523 -0.9376  2.4254
  983MOL0     H29732  -2.072   5.686   9.664 -0.6777 -2.5310 -1.0608
  983MOL0     H29733  -2.036   5.592   9.515  0.2164 -0.6728 -0.6966
  983MOL0     H29734  -2.226   5.651   9.432  2.4214 -2.5503  1.1036
  983MOL0     H29735  -2.282   5.630   9.594  0.1372  2.2569  2.5328
  983MOL0     H29736  -2.376   5.852   9.480  0.5548 -0.8550 -1.9821
  983MOL0     H29737  -2.218   5.920   9.514  0.7279 -1.4689 -1.8389
  983MOL0     H29738  -1.375   6.154   9.288  0.5029 -2.7690  0.8818
  983MOL0     H29739  -1.245   6.287   9.118  1.9705 -0.2174  0.0372
  983MOL0     H29740  -0.793   6.135   8.801  3.2556  0.6668 -2.3444
  983MOL0     H29741  -0.663   6.266   8.648 -1.4707 -2.0414  2.0236
  983MOL0     H29742   0.846   6.601   7.698 -1.2827 -1.5507 -0.5899
  983MOL0     H29743   1.072   6.625   7.590 -1.3627 -0.3357 -0.5311
  983MOL0     H29744   1.511   6.606   7.670 -0.6486 -1.0546 -0.0335
  983MOL0     H29745   1.755   6.616   7.688 -1.5534 -1.3713  1.7264
  983MOL0     H29746   1.999   6.569   7.707 -0.7895  0.5159  0.0179
  983MOL0     H29747   1.946   6.658   7.562  0.0385  0.8678  1.6465
  983MOL0     H29748   2.131   6.576   7.433 -2.1763  1.7453 -0.2173
  983MOL0     H29749   2.191   6.654   7.580 -2.0574  1.9874 -2.5453
  983MOL0     H29750   2.193   6.350   7.526 -1.5524  0.1380  1.2838
  983MOL0     H29751   2.229   6.433   7.686 -1.5742 -0.3681  0.7383
  983MOL0     H29752   2.350   6.463   7.402 -1.9409 -1.8077 -0.4918
  983MOL0     H29753   2.395   6.567   7.541 -0.5905  1.0499 -1.7831
  983MOL0     H29754   2.574   6.180   7.633 -3.1969 -3.2808 -0.2887
  983MOL0     H29755   1.789   6.269   7.456  0.0016 -0.3159  0.9959
  983MOL0     H29756   1.534   6.227   7.475  0.6148 -0.1229  0.7480
  984MOL0     O29757   4.766   2.228   5.982 -0.4137  0.0188 -0.5806
  984MOL0     C29758   4.791   2.261   5.864  0.1186  0.3212  0.4536
  984MOL0     O29759   4.692   2.299   5.779 -0.0992  0.5252 -0.4190
  984MOL0     C29760   4.577   2.344   5.830  0.1992  0.6963 -0.2589
  984MOL0     C29761   4.475   2.252   5.869 -0.1794 -0.0753  0.9638
  984MOL0     C29762   4.355   2.302   5.921 -0.4467  0.9003  0.8269
  984MOL0     C29763   4.328   2.434   5.922 -0.1102 -0.3120 -0.6656
  984MOL0     O29764   4.204   2.457   5.975  0.3870  0.5310 -0.0146
  984MOL0     C29765   4.166   2.593   6.007 -0.6308 -0.2804  0.2973
  984MOL0     C29766   4.038   2.575   6.085  0.5288 -0.2237 -0.3311
  984MOL0     C29767   3.920   2.508   6.008  0.2966  0.1262  0.7088
  984MOL0     C29768   3.878   2.576   5.876  1.0588 -0.5910  0.8460
  984MOL0     C29769   3.732   2.624   5.866  0.9450 -0.1472  0.8080
  984MOL0     C29770   3.636   2.498   5.858 -0.2167 -0.0009 -0.1911
  984MOL0     C29771   3.506   2.552   5.830  0.6256 -0.3318 -0.9760
  984MOL0     C29772   3.396   2.437   5.829  0.1965 -0.6061 -0.3243
  984MOL0     N29773   3.268   2.472   5.758 -0.0450 -0.0579 -0.3289
  984MOL0     C29774   3.175   2.554   5.818 -0.0571  0.3816 -0.2223
  984MOL0     C29775   3.062   2.544   5.743  0.0393 -0.1492  0.5277
  984MOL0     C29776   2.925   2.596   5.779  0.2529  0.3797  0.1425
  984MOL0     C29777   2.925   2.748   5.772  0.0584 -0.4455 -0.0654
  984MOL0     C29778   2.832   2.800   5.654  0.2048  0.4960 -0.2735
  984MOL0     C29779   2.683   2.801   5.706  0.2885  0.3553 -0.3980
  984MOL0     O29780   2.634   2.671   5.745 -0.0134  0.3308 -0.2934
  984MOL0     C29781   2.511   2.640   5.787  0.0651 -0.5036  0.5049
  984MOL0     C29782   2.482   2.510   5.812  0.6876  0.7322 -1.0560
  984MOL0     C29783   2.355   2.475   5.861  0.4997 -0.6583  0.5606
  984MOL0     C29784   2.256   2.567   5.871  0.7400  0.2080 -0.1668
  984MOL0     C29785   2.114   2.525   5.897  0.0371 -0.8651 -0.4707
  984MOL0     O29786   2.090   2.394   5.859 -0.2560 -0.4184  0.4844
  984MOL0     C29787   1.972   2.336   5.889  0.3402  0.3717 -0.4482
  984MOL0     C29788   1.981   2.207   5.948  0.4179 -0.1189  0.7616
  984MOL0     C29789   1.877   2.110   5.931 -0.1122 -0.6736 -0.0773
  984MOL0     C29790   1.758   2.155   5.873  0.3882  0.6731 -0.8246
  984MOL0     O29791   1.654   2.067   5.848  0.1934 -0.2047  0.3287
  984MOL0     C29792   1.687   1.929   5.827 -0.5462 -0.6016 -0.6510
  984MOL0     C29793   1.566   1.851   5.780 -0.3216 -0.5011 -0.4412
  984MOL0     C29794   1.592   1.726   5.710 -0.4460  0.2470 -0.6389
  984MOL0     C29795   1.456   1.674   5.659 -0.1502 -0.2773 -0.9095
  984MOL0     C29796   1.477   1.550   5.582  0.7794 -0.2748  0.0762
  984MOL0     C29797   1.353   1.501   5.516 -0.3382  0.4358 -0.0282
  984MOL0     C29798   1.390   1.362   5.441 -0.3174  0.5291 -0.0211
  984MOL0     C29799   1.263   1.297   5.376  0.1299 -1.0112  0.1548
  984MOL0    Cl29800   1.312   1.136   5.317  0.0420 -0.1050  0.3677
  984MOL0     C29801   1.741   2.289   5.832 -0.0790 -0.4137 -1.0623
  984MOL0     C29802   1.849   2.376   5.839 -0.1852  0.7272 -0.2625
  984MOL0     O29803   2.041   2.599   5.956 -0.1408 -0.2459  0.1838
  984MOL0     C29804   2.277   2.702   5.840 -0.6161  0.0908 -0.1263
  984MOL0     C29805   2.408   2.743   5.811 -0.9155  0.0120 -0.0473
  984MOL0     N29806   3.098   2.457   5.642 -0.4517  0.0976  0.1669
  984MOL0     N29807   3.221   2.407   5.650  0.8308  0.4188 -0.3376
  984MOL0     C29808   4.422   2.525   5.886 -1.1252  0.5015  0.0290
  984MOL0     C29809   4.554   2.484   5.850 -0.3008 -0.3868 -0.2799
  984MOL0     C29810   4.927   2.276   5.813  0.5645  0.1374 -0.0726
  984MOL0     C29811   5.038   2.246   5.898  0.3246  0.2465 -0.2611
  984MOL0     C29812   5.168   2.264   5.854  0.2406  1.2394 -0.1445
  984MOL0     C29813   5.194   2.312   5.729 -0.4065 -0.3687  0.3390
  984MOL0     O29814   5.325   2.311   5.683 -0.1572  0.1080 -0.2909
  984MOL0     C29815   5.354   2.399   5.578 -0.0255 -0.3744  0.6060
  984MOL0     C29816   5.497   2.439   5.585 -0.1084  0.6026 -0.0269
  984MOL0     C29817   5.575   2.338   5.494 -0.2379 -1.4362  0.3816
  984MOL0     C29818   5.725   2.371   5.496 -0.5410  0.1926 -0.2975
  984MOL0     C29819   5.804   2.247   5.462 -0.1615 -0.4858 -0.9736
  984MOL0     C29820   5.870   2.155   5.436 -0.0511  0.1795 -0.0385
  984MOL0     C29821   5.082   2.341   5.648  0.1083  0.0045  0.3871
  984MOL0     C29822   4.951   2.342   5.696  0.0543  1.0497  0.0656
  984MOL0     H29823   4.480   2.144   5.872 -2.7659 -0.2947  0.1007
  984MOL0     H29824   4.286   2.221   5.942  1.4011 -0.3890  2.2547
  984MOL0     H29825   4.150   2.645   5.912  1.1651 -1.0484 -0.4837
  984MOL0     H29826   4.242   2.635   6.073 -0.0240 -0.5061 -0.2464
  984MOL0     H29827   4.007   2.674   6.118 -0.2355  0.4982 -2.9431
  984MOL0     H29828   4.065   2.528   6.180  0.8258 -1.2993 -0.9207
  984MOL0     H29829   3.840   2.497   6.081  1.3555 -1.5454  1.6830
  984MOL0     H29830   3.946   2.405   5.983  2.7160  0.2961  2.2485
  984MOL0     H29831   3.940   2.662   5.851  0.6700  0.1982  2.4296
  984MOL0     H29832   3.897   2.506   5.794 -0.2189 -0.9578  0.8368
  984MOL0     H29833   3.725   2.687   5.777  0.6339  0.5153  1.2963
  984MOL0     H29834   3.711   2.678   5.959  2.7080 -1.4939  2.0642
  984MOL0     H29835   3.633   2.441   5.951 -1.4445  0.6552  0.1877
  984MOL0     H29836   3.663   2.425   5.781 -0.9936  0.0397 -0.5032
  984MOL0     H29837   3.481   2.614   5.916  1.7897 -1.1250 -0.0253
  984MOL0     H29838   3.498   2.613   5.740 -0.4709 -0.9523 -1.3146
  984MOL0     H29839   3.363   2.422   5.932 -1.0281  4.2989  0.2697
  984MOL0     H29840   3.439   2.342   5.796 -1.1841 -1.2208 -0.4319
  984MOL0     H29841   3.175   2.594   5.919 -1.7511 -2.3471  0.9811
  984MOL0     H29842   2.907   2.570   5.884  2.3187 -2.9658 -0.1669
  984MOL0     H29843   2.857   2.542   5.712 -1.6262 -0.3017  2.4567
  984MOL0     H29844   3.026   2.790   5.769 -0.0877 -0.0195  0.7283
  984MOL0     H29845   2.889   2.790   5.866  2.2382 -2.4170  1.7727
  984MOL0     H29846   2.869   2.899   5.627  4.7551 -0.9838 -0.3779
  984MOL0     H29847   2.841   2.732   5.568 -2.0558  0.2355 -0.3713
  984MOL0     H29848   2.620   2.821   5.619 -1.4249 -3.0620 -0.0886
  984MOL0     H29849   2.672   2.876   5.785 -3.0697 -1.9923  1.6448
  984MOL0     H29850   2.561   2.437   5.801 -3.0812 -3.6179 -2.0076
  984MOL0     H29851   2.338   2.369   5.874  0.4733 -0.6890  0.2769
  984MOL0     H29852   2.074   2.156   5.971  0.7423  0.0142 -0.2157
  984MOL0     H29853   1.894   2.007   5.961 -0.2816 -1.4323 -2.3808
  984MOL0     H29854   1.718   1.871   5.914 -1.2171  0.0200  0.0135
  984MOL0     H29855   1.763   1.920   5.748  0.3663  2.9663 -0.3200
  984MOL0     H29856   1.509   1.910   5.708  2.3715  1.8524 -0.8110
  984MOL0     H29857   1.513   1.832   5.874  0.0127 -2.5559 -0.6035
  984MOL0     H29858   1.632   1.651   5.779 -2.4187 -0.4488 -0.1961
  984MOL0     H29859   1.668   1.736   5.632  1.0002  0.5478  0.7606
  984MOL0     H29860   1.386   1.647   5.739 -3.6841  1.0036 -3.3547
  984MOL0     H29861   1.401   1.740   5.592 -3.4104 -1.5079  0.3170
  984MOL0     H29862   1.521   1.470   5.643  2.0023 -0.6446 -1.2403
  984MOL0     H29863   1.547   1.571   5.501 -0.8017 -0.2748 -1.3556
  984MOL0     H29864   1.318   1.572   5.440 -0.3860  1.4437  0.9035
  984MOL0     H29865   1.279   1.479   5.593  0.1054 -1.4661 -0.1135
  984MOL0     H29866   1.463   1.384   5.362 -0.9989  0.3293 -0.7271
  984MOL0     H29867   1.438   1.289   5.507  1.0736  0.7306 -0.7661
  984MOL0     H29868   1.224   1.357   5.294  1.7118  0.7432  0.6101
  984MOL0     H29869   1.184   1.278   5.449  0.0758 -2.8656 -0.3506
  984MOL0     H29870   1.649   2.323   5.785 -1.9741 -1.1549  1.8167
  984MOL0     H29871   1.846   2.472   5.787  0.8418  1.1569  0.4305
  984MOL0     H29872   2.198   2.775   5.852 -0.2137  0.8320 -1.7844
  984MOL0     H29873   2.431   2.849   5.806  1.9015 -0.4512  1.2225
  984MOL0     H29874   4.408   2.632   5.898 -0.6895  0.7667 -1.6042
  984MOL0     H29875   4.632   2.559   5.837 -1.5147  1.4037  1.9437
  984MOL0     H29876   5.022   2.210   5.999  1.7488 -1.7430 -0.6666
  984MOL0     H29877   5.253   2.239   5.916 -0.2719  2.2480  1.0176
  984MOL0     H29878   5.303   2.495   5.588  2.9329  1.6811 -2.0316
  984MOL0     H29879   5.329   2.360   5.479  1.0563 -1.3205  0.6874
  984MOL0     H29880   5.502   2.541   5.546 -0.1391  0.0713 -1.5154
  984MOL0     H29881   5.528   2.445   5.689 -1.2250  1.8679  0.2589
  984MOL0     H29882   5.538   2.344   5.391  0.3479 -0.0790  0.2293
  984MOL0     H29883   5.562   2.235   5.528  2.7613 -2.0393  0.0221
  984MOL0     H29884   5.745   2.435   5.409 -0.3562 -0.1262 -0.4896
  984MOL0     H29885   5.761   2.417   5.589  1.0557 -1.6674  0.0663
  984MOL0     H29886   5.925   2.068   5.408  0.0559  0.5379 -0.9852
  984MOL0     H29887   5.102   2.375   5.547  0.6452 -2.8877 -0.5756
  984MOL0     H29888   4.863   2.376   5.641 -1.2775 -0.2612  1.2868
  985MOL0     O29889   4.440   3.334   0.687  0.8855 -0.4604  0.4232
  985MOL0     C29890   4.471   3.361   0.804  0.4514 -0.5564  0.1696
  985MOL0     O29891   4.391   3.347   0.912 -0.4479 -0.1963  0.6991
  985MOL0     C29892   4.265   3.307   0.881  0.1378  0.4600  0.2075
  985MOL0     C29893   4.201   3.220   0.974  0.0185 -0.3800 -0.1742
  985MOL0     C29894   4.081   3.159   0.943  1.2946  0.5513  0.8850
  985MOL0     C29895   4.011   3.199   0.824  0.1386  0.5081 -1.4853
  985MOL0     O29896   3.892   3.134   0.807  0.9509 -0.3707  0.4287
  985MOL0     C29897   3.803   3.163   0.693  0.2279  0.5679 -0.4379
  985MOL0     C29898   3.661   3.105   0.708 -0.5339 -0.3850  0.8318
  985MOL0     C29899   3.616   3.035   0.587 -0.3953 -0.4188  0.6779
  985MOL0     C29900   3.487   2.952   0.600 -0.0070  0.3862 -0.1383
  985MOL0     C29901   3.459   2.899   0.466 -1.4558  0.1221 -0.2699
  985MOL0     C29902   3.335   2.812   0.436 -0.3571  0.0228  0.0213
  985MOL0     C29903   3.343   2.680   0.503  1.0965  0.1900  0.3116
  985MOL0     C29904   3.240   2.595   0.445  0.6913 -0.1261  0.5281
  985MOL0     N29905   3.104   2.582   0.513 -0.5526 -0.1504 -0.1630
  985MOL0     C29906   2.988   2.623   0.456 -0.0039  0.8690 -0.2635
  985MOL0     C29907   2.898   2.580   0.542 -0.7120  0.0529  0.5247
  985MOL0     C29908   2.758   2.612   0.541  0.7506  0.3226 -0.1957
  985MOL0     C29909   2.663   2.513   0.469  0.2358 -0.0341 -0.2212
  985MOL0     C29910   2.513   2.544   0.512 -0.0961  0.1860  0.1359
  985MOL0     C29911   2.408   2.430   0.479 -0.4000 -0.4816 -0.2136
  985MOL0     O29912   2.279   2.457   0.548  0.1562 -0.6296  0.4692
  985MOL0     C29913   2.165   2.413   0.482 -0.5243 -0.3292  0.0905
  985MOL0     C29914   2.158   2.307   0.390  0.2440  0.5105 -0.3215
  985MOL0     C29915   2.045   2.275   0.317 -0.1732 -0.6897  0.0857
  985MOL0     C29916   1.939   2.362   0.331  0.2981  0.0478 -0.1495
  985MOL0     C29917   1.811   2.322   0.265 -0.2882 -0.2128  0.5071
  985MOL0     O29918   1.823   2.216   0.181 -0.5474 -0.0273  0.5494
  985MOL0     C29919   1.705   2.158   0.129 -0.0059 -0.1673 -0.7146
  985MOL0     C29920   1.692   2.138  -0.004  0.3121  0.9806  0.7466
  985MOL0     C29921   1.576   2.077  -0.067 -0.6959  0.3447 -0.2007
  985MOL0     C29922   1.474   2.037   0.014  0.0365 -0.4696 -0.1670
  985MOL0     O29923   1.345   2.007  -0.025 -0.1836  0.5406  0.1641
  985MOL0     C29924   1.344   1.894  -0.103  0.0868 -0.0307 -0.4643
  985MOL0     C29925   1.213   1.814  -0.085 -0.7521 -1.1316  0.3012
  985MOL0     C29926   1.085   1.891  -0.080 -0.0006  0.0712  0.2734
  985MOL0     C29927   1.065   1.978  -0.207 -0.8160  0.3183  0.5392
  985MOL0     C29928   0.941   2.055  -0.191 -0.1647  0.2852  0.4550
  985MOL0     C29929   0.883   2.086  -0.332 -0.9984  0.1669  0.1025
  985MOL0     C29930   0.983   2.181  -0.411  1.0039 -0.1171 -0.3277
  985MOL0     C29931   0.909   2.302  -0.468 -0.5447  0.5872  0.7046
  985MOL0    Cl29932   0.794   2.237  -0.596 -0.7240 -0.1253 -0.2404
  985MOL0     C29933   1.495   2.041   0.155 -0.6512  0.6729  0.6252
  985MOL0     C29934   1.607   2.104   0.213 -0.7264 -0.4288  0.1055
  985MOL0     O29935   1.708   2.384   0.284 -0.9985  0.0004  0.0075
  985MOL0     C29936   1.939   2.464   0.425  0.3323 -0.2270  0.3986
  985MOL0     C29937   2.057   2.490   0.494  0.1490 -0.6401 -0.0015
  985MOL0     N29938   2.960   2.507   0.646  0.4084  0.4486 -0.2943
  985MOL0     N29939   3.085   2.508   0.627 -0.4641  0.4437 -0.5760
  985MOL0     C29940   4.067   3.291   0.739  0.6472  0.4937  0.7298
  985MOL0     C29941   4.192   3.341   0.763 -0.2253 -0.5516  0.3751
  985MOL0     C29942   4.599   3.427   0.827 -0.2951 -0.2061  0.3256
  985MOL0     C29943   4.634   3.467   0.959 -0.1551 -0.5944 -0.4362
  985MOL0     C29944   4.751   3.538   0.991 -0.2233  0.0501 -0.3194
  985MOL0     C29945   4.839   3.569   0.882  1.0822 -0.6413 -0.1629
  985MOL0     O29946   4.953   3.636   0.933  0.4149 -0.1529  0.4637
  985MOL0     C29947   5.058   3.676   0.842 -0.3199 -0.1832  1.0083
  985MOL0     C29948   5.195   3.726   0.893 -0.6031 -0.1357  0.3730
  985MOL0     C29949   5.199   3.848   0.985  0.4631  0.5666  0.1078
  985MOL0     C29950   5.143   3.972   0.914  0.3512 -0.4344 -0.5558
  985MOL0     C29951   5.241   4.014   0.810  0.3394  0.6658 -0.3453
  985MOL0     C29952   5.317   4.046   0.718  0.5663  0.5943 -0.7270
  985MOL0     C29953   4.801   3.535   0.751 -0.9605  1.0986  0.0852
  985MOL0     C29954   4.684   3.464   0.723  0.1055  0.0828  0.4371
  985MOL0     H29955   4.255   3.190   1.064  0.1278  0.4782  0.0502
  985MOL0     H29956   4.044   3.099   1.025  2.0083  1.0086  1.5537
  985MOL0     H29957   3.846   3.140   0.595 -0.5070  0.5396 -0.7680
  985MOL0     H29958   3.789   3.271   0.681 -0.7887  0.4676 -0.2668
  985MOL0     H29959   3.596   3.190   0.730  0.8462  1.2813 -1.0383
  985MOL0     H29960   3.667   3.035   0.791 -0.5022 -0.5732  0.6728
  985MOL0     H29961   3.697   2.972   0.550  1.3466  1.2762  1.4553
  985MOL0     H29962   3.599   3.116   0.515  1.7967 -0.2010  0.3452
  985MOL0     H29963   3.506   2.867   0.666  0.1637 -0.3839 -1.1645
  985MOL0     H29964   3.397   3.005   0.635 -3.2394 -3.8163 -1.2354
  985MOL0     H29965   3.545   2.840   0.435 -0.1156  0.5349  2.4066
  985MOL0     H29966   3.457   2.983   0.395  0.0035 -1.1215 -1.8519
  985MOL0     H29967   3.334   2.802   0.327  1.0991  0.4868 -0.0535
  985MOL0     H29968   3.246   2.866   0.470  0.3583  2.2038 -1.3204
  985MOL0     H29969   3.441   2.633   0.490  0.4319 -0.7089 -1.8929
  985MOL0     H29970   3.320   2.699   0.608 -1.3468  2.4498 -0.5479
  985MOL0     H29971   3.284   2.497   0.424 -1.2534 -0.6937 -1.2328
  985MOL0     H29972   3.216   2.634   0.346  0.9173 -0.8815  0.1623
  985MOL0     H29973   2.974   2.677   0.363 -0.0070 -2.1907 -2.1863
  985MOL0     H29974   2.748   2.714   0.501 -1.0490 -0.3857 -1.7197
  985MOL0     H29975   2.730   2.609   0.647 -0.1461 -0.7506 -0.4478
  985MOL0     H29976   2.685   2.408   0.489 -0.1720  0.0414  0.6640
  985MOL0     H29977   2.669   2.533   0.361  0.2218 -0.0643 -0.2277
  985MOL0     H29978   2.502   2.563   0.620 -3.7356  1.3448 -0.2713
  985MOL0     H29979   2.471   2.636   0.470  0.1313  0.4418  0.4626
  985MOL0     H29980   2.444   2.330   0.505  2.4334  0.9823  2.0717
  985MOL0     H29981   2.384   2.433   0.372 -0.4487  2.4135 -0.2129
  985MOL0     H29982   2.241   2.238   0.377  0.3883  0.9931 -2.2842
  985MOL0     H29983   2.046   2.193   0.246  0.0347 -0.2899 -0.3752
  985MOL0     H29984   1.756   2.181  -0.081 -0.2359 -1.1453 -1.0083
  985MOL0     H29985   1.571   2.055  -0.174 -3.7313 -2.9157  0.4246
  985MOL0     H29986   1.427   1.828  -0.075  2.3667  2.5629 -0.6300
  985MOL0     H29987   1.363   1.919  -0.208 -1.4115 -1.0229 -1.0020
  985MOL0     H29988   1.220   1.764   0.012 -0.5780  1.1968  1.5543
  985MOL0     H29989   1.206   1.737  -0.162  0.0182  0.2728 -1.2274
  985MOL0     H29990   1.083   1.953   0.010 -2.2693 -0.6110  0.7688
  985MOL0     H29991   1.000   1.824  -0.061  1.5020 -2.4896 -1.4494
  985MOL0     H29992   1.153   2.042  -0.213  1.0457 -1.9304  2.1922
  985MOL0     H29993   1.070   1.913  -0.295  0.4574  0.0295  0.8021
  985MOL0     H29994   0.953   2.149  -0.137 -2.0192  0.7160  0.1848
  985MOL0     H29995   0.861   1.999  -0.142 -0.2164 -0.1809 -0.1446
  985MOL0     H29996   0.794   2.149  -0.321 -0.3445  0.8300  1.9714
  985MOL0     H29997   0.856   2.000  -0.394  1.2057 -0.0166 -0.7040
  985MOL0     H29998   1.069   2.207  -0.350  1.8016 -3.8531  0.3699
  985MOL0     H29999   1.010   2.114  -0.494 -0.2603 -1.2802  0.1626
  985MOL0     H30000   0.984   2.363  -0.519 -0.6616  0.2498  0.1150
  985MOL0     H30001   0.852   2.357  -0.394  2.8323  1.0560  3.2062
  985MOL0     H30002   1.416   2.020   0.226 -0.3331  1.6420  1.2980
  985MOL0     H30003   1.618   2.113   0.320 -0.3110 -1.5366  0.1742
  985MOL0     H30004   1.845   2.516   0.440  0.8387  0.9062 -0.2730
  985MOL0     H30005   2.055   2.565   0.572  1.7344 -0.3496 -0.2075
  985MOL0     H30006   4.010   3.320   0.652  2.2120  1.0732 -0.1462
  985MOL0     H30007   4.225   3.419   0.696  0.1020 -0.6924  0.3718
  985MOL0     H30008   4.581   3.447   1.051  3.2319 -0.7952  1.6588
  985MOL0     H30009   4.781   3.574   1.089 -1.3853  0.8668 -0.2356
  985MOL0     H30010   5.007   3.732   0.763  0.8528 -2.3349 -1.4123
  985MOL0     H30011   5.092   3.584   0.793  0.1668  2.0496 -3.3267
  985MOL0     H30012   5.220   3.640   0.957 -1.1959  0.5103  1.5092
  985MOL0     H30013   5.276   3.724   0.819 -0.8958 -1.2274  0.0573
  985MOL0     H30014   5.299   3.871   1.022  1.0304 -1.6591  0.0601
  985MOL0     H30015   5.143   3.824   1.076 -1.5488  2.3256 -0.5865
  985MOL0     H30016   5.046   3.945   0.871 -0.3111  0.6950  0.1794
  985MOL0     H30017   5.126   4.052   0.987  0.6490 -0.8820  0.0088
  985MOL0     H30018   5.377   4.076   0.635 -2.2680  4.4622 -1.6703
  985MOL0     H30019   4.880   3.544   0.677  0.1338  1.8048  1.2909
  985MOL0     H30020   4.675   3.450   0.616  1.3256  1.3962  0.1201
  986MOL0     O30021   4.295   2.746   1.695  1.0680  0.5099  0.4817
  986MOL0     C30022   4.307   2.722   1.816  0.4182 -0.4039  0.2032
  986MOL0     O30023   4.205   2.717   1.901  0.1126 -0.3190 -0.6623
  986MOL0     C30024   4.077   2.761   1.869 -0.1229 -1.0888 -0.3011
  986MOL0     C30025   4.051   2.895   1.841  0.3227 -0.3414 -0.8088
  986MOL0     C30026   3.919   2.933   1.819  0.7005  0.2253  0.4499
  986MOL0     C30027   3.814   2.837   1.821  0.7339  0.2577  0.6836
  986MOL0     O30028   3.679   2.858   1.811 -0.2064 -0.3195  1.1775
  986MOL0     C30029   3.618   2.942   1.911 -0.4558  0.6119 -0.4066
  986MOL0     C30030   3.579   2.860   2.036 -0.3208  0.1779 -0.4374
  986MOL0     C30031   3.450   2.784   2.008  0.8176 -0.1808  0.2688
  986MOL0     C30032   3.331   2.868   1.978 -1.0835  0.5913 -0.1965
  986MOL0     C30033   3.198   2.783   1.963 -0.6657 -0.3614  0.1682
  986MOL0     C30034   3.150   2.729   2.104  0.8156 -0.5942 -0.7951
  986MOL0     C30035   3.005   2.682   2.092  0.0017 -0.2800 -0.2699
  986MOL0     C30036   2.989   2.575   1.998 -0.2224  0.3263  0.2466
  986MOL0     N30037   2.893   2.468   2.029 -0.0028  0.1568 -0.1412
  986MOL0     C30038   2.933   2.346   2.072  0.0092  0.4413 -0.1846
  986MOL0     C30039   2.819   2.285   2.100 -0.5610 -0.6959  0.3584
  986MOL0     C30040   2.793   2.158   2.169 -1.3107 -0.1191  0.0627
  986MOL0     C30041   2.790   2.035   2.083  0.2958 -0.4321 -0.3593
  986MOL0     C30042   2.681   2.036   1.968 -0.3066  0.2767 -0.6457
  986MOL0     C30043   2.535   2.036   2.018  0.6580  0.2143 -0.0989
  986MOL0     O30044   2.507   1.915   2.086  0.5091  0.1363 -0.0769
  986MOL0     C30045   2.390   1.892   2.153 -0.3671  0.0017  0.3534
  986MOL0     C30046   2.370   1.768   2.224 -0.5064 -0.5475  0.1131
  986MOL0     C30047   2.248   1.737   2.283  0.0830  0.5390 -0.6618
  986MOL0     C30048   2.147   1.836   2.304 -1.4163  0.8129  0.2232
  986MOL0     C30049   2.028   1.798   2.376 -0.6442  0.0431  0.0369
  986MOL0     O30050   1.932   1.889   2.385 -0.0198  0.2797 -0.6769
  986MOL0     C30051   1.804   1.844   2.397  0.9565  0.3995 -0.1977
  986MOL0     C30052   1.713   1.947   2.434 -1.0006  0.2852 -0.0174
  986MOL0     C30053   1.575   1.926   2.431  0.5919 -0.3367  0.1237
  986MOL0     C30054   1.517   1.803   2.404 -0.1584 -1.1402 -0.1366
  986MOL0     O30055   1.382   1.783   2.398 -0.1023  0.3761  0.0841
  986MOL0     C30056   1.294   1.902   2.365 -0.1430  0.9968 -0.0485
  986MOL0     C30057   1.216   1.968   2.487  0.9734  0.6441 -0.0154
  986MOL0     C30058   1.131   1.865   2.569 -0.3566 -0.6531  0.2833
  986MOL0     C30059   1.041   1.932   2.674  0.4429 -0.8660 -0.6684
  986MOL0     C30060   0.937   1.842   2.730  0.3863 -0.5505  0.3167
  986MOL0     C30061   0.845   1.924   2.817  0.0687  0.0376 -0.2105
  986MOL0     C30062   0.732   1.833   2.868 -0.6167  0.1910  1.1618
  986MOL0     C30063   0.605   1.907   2.903  0.5857  0.6706 -0.6025
  986MOL0    Cl30064   0.586   2.071   2.818  0.4801 -0.4950 -0.3549
  986MOL0     C30065   1.606   1.698   2.375 -0.0345 -0.2064  0.5743
  986MOL0     C30066   1.741   1.721   2.371  0.1036 -0.1610  0.3837
  986MOL0     O30067   2.025   1.682   2.422 -0.3171 -0.2282  0.7672
  986MOL0     C30068   2.165   1.964   2.236  0.8209  0.2792 -0.0276
  986MOL0     C30069   2.283   1.991   2.165 -0.6680  0.4257  0.0071
  986MOL0     N30070   2.710   2.366   2.076 -0.8452 -0.3465 -0.4622
  986MOL0     N30071   2.757   2.480   2.033 -0.1000 -0.3348 -1.4941
  986MOL0     C30072   3.846   2.706   1.854 -0.2022 -1.0324  0.0755
  986MOL0     C30073   3.978   2.669   1.874  0.0312  0.5038 -0.3062
  986MOL0     C30074   4.441   2.684   1.864 -0.3005 -0.4974  0.0754
  986MOL0     C30075   4.558   2.698   1.784  0.5111 -0.3661 -0.1136
  986MOL0     C30076   4.686   2.673   1.849 -0.1594  0.5101 -0.4406
  986MOL0     C30077   4.699   2.638   1.983  0.1648 -0.5366 -0.4955
  986MOL0     O30078   4.817   2.615   2.052 -0.4774  0.2075  0.0071
  986MOL0     C30079   4.942   2.658   2.003  0.3266 -0.6030  0.0904
  986MOL0     C30080   5.039   2.620   2.118  0.1969 -1.0704 -0.1141
  986MOL0     C30081   5.049   2.466   2.132 -0.0552 -0.3845 -0.5607
  986MOL0     C30082   5.175   2.414   2.204 -0.6944 -0.2781 -0.0520
  986MOL0     C30083   5.285   2.438   2.110 -0.7948  0.5066 -0.3675
  986MOL0     C30084   5.370   2.468   2.033 -0.5618  0.7692 -0.6031
  986MOL0     C30085   4.587   2.634   2.059  0.3267  0.1297  0.4543
  986MOL0     C30086   4.456   2.650   2.000 -0.7335  0.2434  0.0760
  986MOL0     H30087   4.128   2.972   1.838 -0.7940  0.7818 -2.6900
  986MOL0     H30088   3.892   3.035   1.794  1.8631  0.5343  0.4270
  986MOL0     H30089   3.534   3.000   1.871 -1.1119  0.3467  0.5423
  986MOL0     H30090   3.687   3.021   1.941  0.5135  0.6157 -2.5214
  986MOL0     H30091   3.563   2.929   2.120  0.5109  0.2330 -0.3133
  986MOL0     H30092   3.658   2.791   2.067 -0.0043  1.1328  1.0063
  986MOL0     H30093   3.435   2.727   2.100  2.3915  1.3982  1.5845
  986MOL0     H30094   3.468   2.717   1.924  2.1456  2.1884 -1.4749
  986MOL0     H30095   3.304   2.926   2.068  0.1703 -0.8027  1.1283
  986MOL0     H30096   3.343   2.943   1.899 -0.9293  2.3179  1.3849
  986MOL0     H30097   3.215   2.704   1.889  0.6478  0.6831 -0.6947
  986MOL0     H30098   3.113   2.846   1.933 -0.3447  0.2666  0.5699
  986MOL0     H30099   3.155   2.806   2.181  0.3876 -0.3336 -1.0262
  986MOL0     H30100   3.220   2.649   2.133 -1.9289 -2.8323  0.0758
  986MOL0     H30101   2.973   2.625   2.180 -0.6877 -1.0702 -1.0094
  986MOL0     H30102   2.940   2.768   2.073 -0.5289 -1.2505 -3.4249
  986MOL0     H30103   3.082   2.529   1.964 -0.4517  0.3758 -0.4795
  986MOL0     H30104   2.955   2.623   1.905 -0.4140 -1.9142 -0.9317
  986MOL0     H30105   3.027   2.300   2.102 -0.9689 -0.3913  1.8325
  986MOL0     H30106   2.699   2.166   2.226 -1.6871  2.3224 -0.7742
  986MOL0     H30107   2.877   2.131   2.234 -2.0983 -1.0187  0.7356
  986MOL0     H30108   2.770   1.952   2.151 -2.2028  1.9990  2.1464
  986MOL0     H30109   2.891   2.030   2.041  0.5553 -3.9130  0.4236
  986MOL0     H30110   2.693   2.119   1.898 -1.7258  1.7899  0.8169
  986MOL0     H30111   2.704   1.947   1.909 -2.3552 -0.7185 -0.0696
  986MOL0     H30112   2.469   2.046   1.932 -0.6173 -2.9534  0.3566
  986MOL0     H30113   2.515   2.115   2.090  0.7306 -1.0873  1.4151
  986MOL0     H30114   2.444   1.689   2.213 -1.5698 -1.4121 -1.0991
  986MOL0     H30115   2.251   1.640   2.333  2.1988  1.3734  0.9901
  986MOL0     H30116   1.764   2.036   2.471  2.4320 -1.0262 -1.1770
  986MOL0     H30117   1.514   2.005   2.474  0.6835 -0.1724 -0.0467
  986MOL0     H30118   1.209   1.868   2.305 -1.2773  0.5609  1.7049
  986MOL0     H30119   1.344   1.983   2.311 -0.5497  0.8378 -0.6629
  986MOL0     H30120   1.148   2.042   2.442 -0.3632 -0.5731 -0.0486
  986MOL0     H30121   1.292   2.009   2.553  1.9308  0.3530 -0.9122
  986MOL0     H30122   1.213   1.804   2.609  1.3272  1.5448  0.3804
  986MOL0     H30123   1.072   1.807   2.498  2.3288 -2.2119 -0.8699
  986MOL0     H30124   1.101   1.964   2.759 -0.1102 -0.4454 -0.4274
  986MOL0     H30125   0.992   2.019   2.627 -0.1649 -0.6494  0.3339
  986MOL0     H30126   0.987   1.767   2.791  0.8219  1.4763  2.5969
  986MOL0     H30127   0.885   1.795   2.646  2.9820 -1.8717 -0.6405
  986MOL0     H30128   0.821   2.008   2.752 -0.1292 -1.1123 -1.6993
  986MOL0     H30129   0.887   1.960   2.911 -0.7557  0.6944 -0.0912
  986MOL0     H30130   0.707   1.766   2.785 -0.0253 -0.0337  1.1613
  986MOL0     H30131   0.764   1.773   2.953 -0.4127 -2.7555 -0.8307
  986MOL0     H30132   0.613   1.917   3.012 -0.9053 -1.1161 -0.2832
  986MOL0     H30133   0.521   1.838   2.886  0.4243  0.5864  0.4227
  986MOL0     H30134   1.573   1.596   2.357 -0.0833 -0.1651  0.4256
  986MOL0     H30135   1.802   1.636   2.342 -0.3382 -0.4603  0.3103
  986MOL0     H30136   2.081   2.033   2.244  0.7585  0.1929  0.0753
  986MOL0     H30137   2.299   2.088   2.120  1.2136  0.2543  0.2030
  986MOL0     H30138   3.764   2.635   1.845 -0.9120 -0.3486  0.9325
  986MOL0     H30139   4.006   2.564   1.873 -0.8831  0.2201  1.0800
  986MOL0     H30140   4.534   2.740   1.687 -0.4981  1.5586  0.8898
  986MOL0     H30141   4.776   2.701   1.796 -0.4757  2.5148 -0.0052
  986MOL0     H30142   4.937   2.767   1.990  1.1630 -0.7576 -1.8215
  986MOL0     H30143   4.967   2.607   1.910 -2.6869  0.3123 -1.3352
  986MOL0     H30144   5.134   2.673   2.108  0.4268 -1.2880  0.8236
  986MOL0     H30145   4.991   2.649   2.212 -2.5520 -2.1882 -1.0531
  986MOL0     H30146   5.037   2.404   2.042  0.9460 -2.1222  0.4486
  986MOL0     H30147   4.966   2.439   2.198 -1.3958  0.2701 -1.9076
  986MOL0     H30148   5.190   2.476   2.293  0.1909  1.2021 -1.1934
  986MOL0     H30149   5.174   2.308   2.231 -1.0537 -0.1206  0.5960
  986MOL0     H30150   5.451   2.490   1.965  1.8069 -1.6437  1.2143
  986MOL0     H30151   4.603   2.619   2.165 -0.6135  4.2740  1.3724
  986MOL0     H30152   4.372   2.637   2.068  0.3583  0.7310  1.5748
  987MOL0     O30153   3.575   8.150   7.333  0.5880 -0.2381  0.2907
  987MOL0     C30154   3.648   8.166   7.432  0.3312  0.5859  0.2411
  987MOL0     O30155   3.608   8.203   7.555 -0.8833 -0.3044 -0.2223
  987MOL0     C30156   3.478   8.234   7.572 -0.4263  0.0593 -0.8170
  987MOL0     C30157   3.465   8.340   7.665  0.0908  0.5181 -0.0420
  987MOL0     C30158   3.343   8.391   7.716 -0.6506  0.0676  0.3000
  987MOL0     C30159   3.229   8.324   7.676 -0.2396  0.2897  0.2251
  987MOL0     O30160   3.118   8.363   7.725 -0.1660  0.0638 -0.5691
  987MOL0     C30161   3.044   8.272   7.808 -0.1086 -0.1178 -0.8028
  987MOL0     C30162   2.922   8.218   7.725  0.6290 -0.5798  0.2934
  987MOL0     C30163   2.822   8.124   7.804 -0.2640 -0.2699  1.6611
  987MOL0     C30164   2.708   8.062   7.717  0.1970 -0.8328  0.3878
  987MOL0     C30165   2.614   8.184   7.668 -0.4850 -0.9101  0.2646
  987MOL0     C30166   2.499   8.140   7.577  0.1197 -0.1743 -0.6138
  987MOL0     C30167   2.376   8.242   7.566  0.2851  1.0817 -0.1353
  987MOL0     C30168   2.257   8.170   7.499 -0.2402 -0.8042 -0.0873
  987MOL0     N30169   2.187   8.062   7.586 -0.0289  0.1661  0.3848
  987MOL0     C30170   2.054   8.081   7.644 -0.4669 -0.4409  0.5654
  987MOL0     C30171   2.021   7.988   7.723 -0.3187 -0.8624 -0.2282
  987MOL0     C30172   1.898   7.974   7.794 -0.0016  0.9478 -0.1635
  987MOL0     C30173   1.806   7.857   7.731 -0.3249 -0.3999 -0.7215
  987MOL0     C30174   1.786   7.741   7.832 -0.3313 -0.7191  0.7400
  987MOL0     C30175   1.662   7.651   7.804  0.6449  0.2881 -0.2397
  987MOL0     O30176   1.556   7.745   7.812  0.2746  0.5525  0.0999
  987MOL0     C30177   1.433   7.704   7.856 -0.4839 -0.2858 -0.2065
  987MOL0     C30178   1.391   7.569   7.879  0.8011 -0.0861 -0.1069
  987MOL0     C30179   1.255   7.542   7.895  0.6120  0.8358 -0.6908
  987MOL0     C30180   1.155   7.647   7.900 -0.3212  0.1368  0.1404
  987MOL0     C30181   1.009   7.622   7.913 -0.3233  0.9144 -0.2459
  987MOL0     O30182   0.924   7.714   7.878 -0.1997  0.1314  0.1478
  987MOL0     C30183   0.790   7.690   7.891  1.1282 -0.1789  0.5387
  987MOL0     C30184   0.709   7.743   7.791  0.4263 -0.6819  0.0284
  987MOL0     C30185   0.570   7.728   7.793 -0.6407  0.6775  0.5442
  987MOL0     C30186   0.514   7.667   7.905  0.5438 -0.5345 -0.6114
  987MOL0     O30187   0.377   7.645   7.916  0.1741  0.1121 -0.1533
  987MOL0     C30188   0.292   7.648   7.802 -0.0577  0.4357  0.4590
  987MOL0     C30189   0.160   7.569   7.820  0.6754 -0.0033  0.0466
  987MOL0     C30190   0.044   7.621   7.737 -0.6027  0.2899  0.2998
  987MOL0     C30191  -0.087   7.556   7.760  0.9076  0.5347 -0.7408
  987MOL0     C30192  -0.201   7.609   7.674 -0.3912 -0.5947 -1.0607
  987MOL0     C30193  -0.314   7.511   7.676  0.4092  1.2772  0.4638
  987MOL0     C30194  -0.417   7.555   7.581  0.2707 -0.3287 -0.1376
  987MOL0     C30195  -0.510   7.436   7.549 -0.0663 -0.0100 -0.2903
  987MOL0    Cl30196  -0.669   7.481   7.484  0.3910 -0.0661 -0.5167
  987MOL0     C30197   0.595   7.625   8.017  1.0484  0.1817  0.6544
  987MOL0     C30198   0.729   7.640   8.006  1.1394  0.5115  0.2795
  987MOL0     O30199   0.978   7.506   7.929  0.3526 -0.0431  0.2650
  987MOL0     C30200   1.212   7.775   7.889 -0.3788 -0.3839  0.4172
  987MOL0     C30201   1.346   7.807   7.863 -0.3153 -0.7266 -0.2752
  987MOL0     N30202   2.127   7.907   7.718 -0.6238 -0.3939 -0.1730
  987MOL0     N30203   2.229   7.948   7.640  0.6135 -0.0390 -0.3848
  987MOL0     C30204   3.240   8.214   7.587 -0.7754 -0.0595  0.4396
  987MOL0     C30205   3.363   8.175   7.534 -0.6026 -0.1420 -0.5380
  987MOL0     C30206   3.800   8.161   7.414  0.8291 -0.3406  0.2579
  987MOL0     C30207   3.845   8.121   7.291  0.0017 -0.2340  0.0181
  987MOL0     C30208   3.986   8.128   7.271  1.0057  1.2187 -0.1938
  987MOL0     C30209   4.077   8.160   7.373  0.3693 -0.6091 -0.3830
  987MOL0     O30210   4.216   8.177   7.361  0.1996  0.1503 -0.3701
  987MOL0     C30211   4.286   8.124   7.251  0.0854 -0.1130 -0.0821
  987MOL0     C30212   4.422   8.194   7.236 -0.1433 -0.1128 -0.4215
  987MOL0     C30213   4.500   8.114   7.132  0.0973  0.6363  0.5606
  987MOL0     C30214   4.646   8.177   7.120  0.2268 -0.0828 -0.8961
  987MOL0     C30215   4.744   8.153   7.230  0.0953  0.0737  0.2241
  987MOL0     C30216   4.835   8.136   7.311  0.3062  0.0047  0.3763
  987MOL0     C30217   4.017   8.207   7.494  0.0691 -0.2283  1.2350
  987MOL0     C30218   3.879   8.211   7.514  0.1327  1.1047 -0.8595
  987MOL0     H30219   3.552   8.377   7.719 -0.6181  1.4400  0.5075
  987MOL0     H30220   3.341   8.474   7.785 -2.2620  0.4671 -0.1708
  987MOL0     H30221   3.027   8.326   7.902 -2.4598  1.4365 -2.0408
  987MOL0     H30222   3.110   8.188   7.834 -1.8294 -2.3285 -3.0228
  987MOL0     H30223   2.965   8.165   7.640  3.1970  3.6103 -1.3258
  987MOL0     H30224   2.872   8.311   7.696  2.1287 -0.7977 -3.4874
  987MOL0     H30225   2.789   8.191   7.885 -0.4188  1.6438  0.0815
  987MOL0     H30226   2.877   8.037   7.842  2.5933  0.1047 -1.1970
  987MOL0     H30227   2.756   8.011   7.633 -0.5028  0.2639 -0.6953
  987MOL0     H30228   2.658   7.978   7.766  0.8381 -1.8264 -0.6255
  987MOL0     H30229   2.674   8.249   7.604  0.1153 -0.5574  1.1628
  987MOL0     H30230   2.580   8.243   7.754  2.1629 -0.7603  1.3266
  987MOL0     H30231   2.474   8.047   7.630  0.1844 -0.1061 -0.4634
  987MOL0     H30232   2.541   8.121   7.478  3.6331 -0.0855  0.7125
  987MOL0     H30233   2.350   8.275   7.667  2.1853  1.0503  0.4089
  987MOL0     H30234   2.396   8.330   7.505 -1.6449  0.9957 -0.9621
  987MOL0     H30235   2.300   8.117   7.413  2.2018  3.5216 -1.8655
  987MOL0     H30236   2.180   8.237   7.459 -2.3560 -2.4174  1.1156
  987MOL0     H30237   2.004   8.173   7.616  1.8209  0.4086 -1.1244
  987MOL0     H30238   1.858   8.075   7.784  2.0106  1.8151 -0.0044
  987MOL0     H30239   1.910   7.959   7.902  2.6666  2.5836 -0.1391
  987MOL0     H30240   1.834   7.827   7.630 -1.9238 -0.6247 -1.1301
  987MOL0     H30241   1.704   7.897   7.716 -0.3533  0.7765  1.9955
  987MOL0     H30242   1.880   7.684   7.832  1.1854  1.6557 -0.1110
  987MOL0     H30243   1.767   7.780   7.932 -0.5235 -2.7766  1.5472
  987MOL0     H30244   1.661   7.570   7.877 -0.5770  1.8149  1.5186
  987MOL0     H30245   1.654   7.597   7.709 -4.0094 -1.1078  0.7011
  987MOL0     H30246   1.468   7.493   7.876  0.7049 -0.1618 -0.9680
  987MOL0     H30247   1.226   7.439   7.917 -0.6458  0.9878 -1.5332
  987MOL0     H30248   0.757   7.784   7.703  1.6186 -0.5564  0.7186
  987MOL0     H30249   0.515   7.779   7.715 -1.1672  0.9889  1.1086
  987MOL0     H30250   0.340   7.610   7.711  0.2763  1.0362  0.3822
  987MOL0     H30251   0.272   7.754   7.786 -2.3622  0.2545  1.6643
  987MOL0     H30252   0.134   7.574   7.926  0.0368  0.6813 -0.1352
  987MOL0     H30253   0.184   7.465   7.796  3.6369  0.6350 -0.1455
  987MOL0     H30254   0.070   7.626   7.630  2.0676 -1.0391  0.8036
  987MOL0     H30255   0.020   7.722   7.773 -1.0089 -0.2627  1.6265
  987MOL0     H30256  -0.070   7.449   7.742  2.7469  0.5450  0.6323
  987MOL0     H30257  -0.122   7.577   7.862  0.9582 -0.1422 -0.5788
  987MOL0     H30258  -0.162   7.627   7.573  0.5381 -2.3222 -1.0589
  987MOL0     H30259  -0.243   7.703   7.711  0.6563 -0.0841 -1.1275
  987MOL0     H30260  -0.346   7.507   7.780  1.4236  0.3587  0.7626
  987MOL0     H30261  -0.268   7.417   7.644  1.1308  0.9016  2.4490
  987MOL0     H30262  -0.467   7.641   7.626 -1.0492  0.2211 -2.4769
  987MOL0     H30263  -0.364   7.590   7.492  0.9676  1.7933  1.0411
  987MOL0     H30264  -0.517   7.368   7.635  2.6928 -0.6119 -0.4281
  987MOL0     H30265  -0.449   7.384   7.474  1.5340  0.9611  0.2929
  987MOL0     H30266   0.549   7.595   8.110 -0.1597 -0.1709 -0.0393
  987MOL0     H30267   0.781   7.612   8.097  1.0779  1.5348  0.6467
  987MOL0     H30268   1.143   7.859   7.888 -1.7784 -1.3391 -3.6210
  987MOL0     H30269   1.391   7.905   7.852  0.9593 -1.3939 -1.3124
  987MOL0     H30270   3.151   8.157   7.562 -0.5728 -0.0390 -0.3478
  987MOL0     H30271   3.370   8.088   7.469 -0.2017  1.0579 -2.1825
  987MOL0     H30272   3.779   8.074   7.219  1.4096 -1.8901 -0.2668
  987MOL0     H30273   4.035   8.102   7.178  3.2240  1.3534  0.8754
  987MOL0     H30274   4.233   8.128   7.155  0.0519 -1.1376 -0.1133
  987MOL0     H30275   4.296   8.017   7.271  2.8739  0.2945  1.2063
  987MOL0     H30276   4.403   8.300   7.218 -2.0906 -0.4140 -0.4646
  987MOL0     H30277   4.471   8.177   7.332 -0.7156 -1.2064 -0.3002
  987MOL0     H30278   4.445   8.124   7.038  1.2016 -2.9866 -0.6230
  987MOL0     H30279   4.510   8.006   7.142 -1.3582 -0.0590 -3.4339
  987MOL0     H30280   4.707   8.154   7.032  0.8431  0.7238 -0.6948
  987MOL0     H30281   4.622   8.283   7.121  2.0667  0.3830  0.7756
  987MOL0     H30282   4.921   8.117   7.373 -3.1710 -4.7597  4.5458
  987MOL0     H30283   4.090   8.239   7.567 -0.0019  0.6479  0.9298
  987MOL0     H30284   3.843   8.256   7.606  0.6562 -1.8277  0.8839
  988MOL0     O30285   4.525   0.867   2.392 -0.5436 -0.4545 -0.2911
  988MOL0     C30286   4.515   0.820   2.505  0.8868  0.2521 -0.2661
  988MOL0     O30287   4.401   0.766   2.554 -0.8146 -0.3065  0.4496
  988MOL0     C30288   4.298   0.752   2.464  0.5485  0.0836 -0.7584
  988MOL0     C30289   4.176   0.797   2.506 -0.6056 -0.0091  0.2728
  988MOL0     C30290   4.063   0.795   2.418  0.3381 -0.0237 -0.2583
  988MOL0     C30291   4.076   0.745   2.291 -0.3059 -0.3043 -1.2614
  988MOL0     O30292   3.977   0.748   2.200 -0.1908 -0.1957 -0.3937
  988MOL0     C30293   3.853   0.811   2.226 -0.0544  0.2204  0.4694
  988MOL0     C30294   3.755   0.773   2.114  0.1645  0.1592 -0.5881
  988MOL0     C30295   3.693   0.628   2.141 -0.2184  0.2908  0.6619
  988MOL0     C30296   3.605   0.591   2.021 -0.4381  0.7976  1.0438
  988MOL0     C30297   3.539   0.449   2.049 -0.1933  0.5801 -0.5313
  988MOL0     C30298   3.414   0.433   1.951  0.4308 -0.7273 -0.1369
  988MOL0     C30299   3.337   0.303   1.973 -0.3123  0.9208  0.2966
  988MOL0     C30300   3.222   0.294   1.879  0.9796  1.1817 -0.3315
  988MOL0     N30301   3.152   0.167   1.904 -0.4414  0.3516  0.1425
  988MOL0     C30302   3.050   0.142   1.992  0.1932  0.3470 -0.4173
  988MOL0     C30303   3.021   0.012   1.982  0.4314 -0.1426 -0.4713
  988MOL0     C30304   2.925  -0.072   2.065  0.9530  0.0182  0.3410
  988MOL0     C30305   2.786  -0.048   2.011 -0.3878 -0.0622 -0.1015
  988MOL0     C30306   2.687  -0.143   2.071 -0.0570 -0.2728 -0.7065
  988MOL0     C30307   2.554  -0.124   2.001  0.1558  0.0299  0.2007
  988MOL0     O30308   2.451  -0.198   2.061  0.2706 -0.4038  0.3159
  988MOL0     C30309   2.323  -0.193   2.007 -0.0177  0.7722 -0.5062
  988MOL0     C30310   2.277  -0.104   1.903 -0.6497  0.9529  0.0135
  988MOL0     C30311   2.148  -0.112   1.851  0.0795 -0.3463 -0.1800
  988MOL0     C30312   2.062  -0.195   1.926  0.5322  0.5636 -0.4842
  988MOL0     C30313   1.917  -0.190   1.895 -0.0368 -0.0100 -0.2320
  988MOL0     O30314   1.886  -0.154   1.769  0.5224  0.3410 -0.2372
  988MOL0     C30315   1.754  -0.175   1.727 -0.0159 -0.2137  0.1510
  988MOL0     C30316   1.662  -0.080   1.759  0.3739 -0.7177 -0.0919
  988MOL0     C30317   1.524  -0.092   1.738  0.3288 -0.1753  0.6476
  988MOL0     C30318   1.473  -0.207   1.682  0.0168 -0.7962 -0.5397
  988MOL0     O30319   1.334  -0.215   1.685 -0.7913 -0.4386  0.0467
  988MOL0     C30320   1.281  -0.351   1.664 -0.1024  0.0954  0.1146
  988MOL0     C30321   1.132  -0.368   1.665 -0.1163  0.5012  0.1901
  988MOL0     C30322   1.073  -0.312   1.541  0.3028  0.2080  0.3435
  988MOL0     C30323   0.918  -0.305   1.549  0.3405 -0.1665 -0.2722
  988MOL0     C30324   0.850  -0.272   1.411  0.4664  0.3405 -0.1841
  988MOL0     C30325   0.851  -0.131   1.360  1.2097  0.5961 -0.2620
  988MOL0     C30326   0.754  -0.093   1.240 -0.5926 -0.0991  0.3199
  988MOL0     C30327   0.809   0.007   1.138  0.2808 -0.0074  0.1685
  988MOL0    Cl30328   0.675   0.034   1.011 -0.1888  0.2076 -0.0572
  988MOL0     C30329   1.562  -0.312   1.655 -0.2372 -0.1712 -1.2668
  988MOL0     C30330   1.701  -0.291   1.674 -0.5582  0.3033  0.7132
  988MOL0     O30331   1.838  -0.219   1.986  0.2874 -0.2917  0.7031
  988MOL0     C30332   2.104  -0.278   2.034  0.2780 -0.3080 -0.1532
  988MOL0     C30333   2.238  -0.266   2.085 -0.4797 -0.2557  1.1147
  988MOL0     N30334   3.113  -0.047   1.896 -0.3276 -0.5632  0.3074
  988MOL0     N30335   3.197   0.048   1.860 -0.3947  0.9054 -0.5767
  988MOL0     C30336   4.201   0.701   2.242  0.3820 -0.2496  0.1335
  988MOL0     C30337   4.310   0.702   2.334 -0.6495 -0.5031 -1.0760
  988MOL0     C30338   4.634   0.834   2.584 -0.0036  0.1724  0.0113
  988MOL0     C30339   4.638   0.796   2.719  0.1562  0.6207  0.8183
  988MOL0     C30340   4.755   0.802   2.788 -1.0523  0.4594 -0.3545
  988MOL0     C30341   4.869   0.860   2.739 -0.5548 -0.8273  0.2474
  988MOL0     O30342   4.978   0.894   2.812 -0.6329 -0.0046  0.1958
  988MOL0     C30343   5.025   0.802   2.909  0.5944  0.0655 -0.3463
  988MOL0     C30344   5.180   0.780   2.878  0.1430  0.0422 -0.3048
  988MOL0     C30345   5.250   0.700   2.989 -0.5901 -0.5050  0.4758
  988MOL0     C30346   5.375   0.633   2.934 -0.5698 -0.2102 -0.3906
  988MOL0     C30347   5.478   0.734   2.901 -0.0978  0.6524  0.1785
  988MOL0     C30348   5.543   0.826   2.861 -0.5690  0.6227  0.3048
  988MOL0     C30349   4.867   0.893   2.603 -0.3965 -0.5567  0.1204
  988MOL0     C30350   4.752   0.886   2.526  0.1926 -0.0498  1.2324
  988MOL0     H30351   4.172   0.832   2.608 -0.8903 -0.9878  0.6060
  988MOL0     H30352   3.964   0.826   2.451 -0.7313 -1.6664 -1.7486
  988MOL0     H30353   3.851   0.919   2.210 -2.5499  0.0981 -0.5513
  988MOL0     H30354   3.826   0.773   2.325  0.0448  1.1459  0.8628
  988MOL0     H30355   3.805   0.779   2.017 -2.2118 -1.3246 -1.9858
  988MOL0     H30356   3.676   0.848   2.119  0.8418  1.0434 -2.3359
  988MOL0     H30357   3.628   0.639   2.228  0.4183 -0.1861  1.2080
  988MOL0     H30358   3.768   0.551   2.163  1.5530  1.5129 -0.8061
  988MOL0     H30359   3.528   0.664   1.992  0.2162  0.2669 -2.4512
  988MOL0     H30360   3.665   0.574   1.931 -1.8882 -3.4814  0.6440
  988MOL0     H30361   3.498   0.449   2.150  2.5706 -0.7938  0.6923
  988MOL0     H30362   3.611   0.366   2.047 -0.7365  0.0883 -0.0634
  988MOL0     H30363   3.452   0.440   1.849 -0.5575 -1.0236 -0.5356
  988MOL0     H30364   3.355   0.520   1.981 -0.3017 -0.7760 -1.3764
  988MOL0     H30365   3.406   0.220   1.958 -0.7108  0.7934 -0.9518
  988MOL0     H30366   3.316   0.304   2.080  1.0306 -0.9278  0.6215
  988MOL0     H30367   3.256   0.297   1.775  1.2783 -1.6772 -0.3840
  988MOL0     H30368   3.145   0.371   1.891 -1.3013 -0.6198 -2.4179
  988MOL0     H30369   2.991   0.210   2.052 -0.7096 -1.6298  1.0561
  988MOL0     H30370   2.920  -0.055   2.173 -1.4653 -0.7152  0.4040
  988MOL0     H30371   2.947  -0.178   2.057  2.8013  0.3086  0.9464
  988MOL0     H30372   2.785  -0.064   1.903 -1.1372  1.6264 -0.3732
  988MOL0     H30373   2.760   0.056   2.033  0.8211 -0.0266  1.3601
  988MOL0     H30374   2.735  -0.241   2.067  1.7325  0.5220  0.2958
  988MOL0     H30375   2.680  -0.134   2.179  1.0984 -1.2141 -0.5298
  988MOL0     H30376   2.555  -0.151   1.895 -0.6700  1.5291 -0.2264
  988MOL0     H30377   2.528  -0.019   2.018 -2.0882 -0.3865 -0.2657
  988MOL0     H30378   2.353  -0.045   1.853 -3.6006  2.7571 -2.7254
  988MOL0     H30379   2.124  -0.047   1.768 -0.5412  0.3633  0.5343
  988MOL0     H30380   1.712   0.009   1.797  1.2400 -0.9532 -0.6625
  988MOL0     H30381   1.457  -0.014   1.773  0.8304 -0.1346  1.5393
  988MOL0     H30382   1.314  -0.417   1.744 -1.2173 -1.7571 -0.8733
  988MOL0     H30383   1.321  -0.378   1.565  0.1609  1.1454 -0.0690
  988MOL0     H30384   1.080  -0.333   1.754 -0.6830 -1.6692  0.7700
  988MOL0     H30385   1.108  -0.475   1.672  2.4148 -0.1533 -0.2920
  988MOL0     H30386   1.095  -0.387   1.465 -0.3077 -1.1006  1.4097
  988MOL0     H30387   1.114  -0.214   1.512  0.7659 -0.5796 -1.8511
  988MOL0     H30388   0.871  -0.395   1.591  1.0930  0.3451  1.8228
  988MOL0     H30389   0.900  -0.224   1.621  0.2171 -2.0126  1.8978
  988MOL0     H30390   0.747  -0.311   1.408  0.7250 -0.4094  0.4402
  988MOL0     H30391   0.904  -0.334   1.339 -2.8412  0.6619 -3.2452
  988MOL0     H30392   0.951  -0.107   1.324  2.0701 -0.8695  1.0285
  988MOL0     H30393   0.831  -0.062   1.444 -2.5245 -1.1546  0.5094
  988MOL0     H30394   0.719  -0.180   1.184 -0.8191  1.3119 -1.8048
  988MOL0     H30395   0.654  -0.071   1.279 -0.6285  0.1122  0.1081
  988MOL0     H30396   0.899  -0.029   1.087  0.5195  0.7321  0.0615
  988MOL0     H30397   0.848   0.099   1.182  1.6565 -0.3772 -0.2305
  988MOL0     H30398   1.519  -0.411   1.641  0.4422 -0.6803  0.0240
  988MOL0     H30399   1.766  -0.370   1.639 -0.7778 -0.5332  2.1270
  988MOL0     H30400   2.044  -0.348   2.091 -2.3991  0.8110 -1.4197
  988MOL0     H30401   2.264  -0.333   2.167 -1.3528  0.6571  2.1833
  988MOL0     H30402   4.203   0.662   2.141 -0.9697 -1.9850  0.7206
  988MOL0     H30403   4.403   0.660   2.297  1.8427  3.1703  0.4541
  988MOL0     H30404   4.558   0.749   2.775  0.7249 -1.2027  0.2021
  988MOL0     H30405   4.768   0.776   2.892  3.4111  0.2259 -0.7890
  988MOL0     H30406   4.966   0.711   2.905  1.5554 -0.5481 -0.8107
  988MOL0     H30407   5.003   0.842   3.009 -1.6160 -1.4080 -0.1585
  988MOL0     H30408   5.187   0.732   2.780 -0.4107  0.7476 -0.7000
  988MOL0     H30409   5.219   0.882   2.869  1.0094 -0.0719  1.6407
  988MOL0     H30410   5.190   0.613   3.016  2.5184 -2.5234  1.4925
  988MOL0     H30411   5.265   0.751   3.085  3.5690  0.1698 -0.3553
  988MOL0     H30412   5.417   0.567   3.010 -0.9084  1.1406  1.0165
  988MOL0     H30413   5.350   0.572   2.846 -2.8063  1.2098 -0.8501
  988MOL0     H30414   5.591   0.912   2.819 -4.0065  2.2556 -0.7009
  988MOL0     H30415   4.954   0.939   2.556 -0.6803 -0.3172 -0.1802
  988MOL0     H30416   4.763   0.919   2.423 -0.5790 -1.2156  0.7486
  989MOL0     O30417   1.729   7.486   1.866  0.2348 -0.4797 -0.5764
  989MOL0     C30418   1.752   7.478   1.740 -0.2404  0.0325 -0.3093
  989MOL0     O30419   1.665   7.439   1.647 -0.1315  0.5888 -0.0345
  989MOL0     C30420   1.543   7.400   1.690 -0.3805  0.4779 -0.2428
  989MOL0     C30421   1.432   7.487   1.659 -0.5358  0.5579  0.6517
  989MOL0     C30422   1.308   7.449   1.684  0.2899 -0.6823  0.9748
  989MOL0     C30423   1.281   7.330   1.764  0.2942 -0.5446 -0.4687
  989MOL0     O30424   1.154   7.301   1.793  0.7482 -0.1476  0.6851
  989MOL0     C30425   1.109   7.203   1.888  0.1999  0.1098  0.0575
  989MOL0     C30426   0.953   7.184   1.883 -0.2477 -0.0107 -1.1082
  989MOL0     C30427   0.899   7.136   1.747  0.0219  0.2789 -0.5146
  989MOL0     C30428   0.753   7.100   1.760 -0.2041 -0.5846 -0.3140
  989MOL0     C30429   0.663   7.110   1.633  0.5525  0.2436  0.3129
  989MOL0     C30430   0.648   7.263   1.599  0.0671  0.1524 -0.3402
  989MOL0     C30431   0.551   7.283   1.486  0.6818  1.2060 -0.1256
  989MOL0     C30432   0.603   7.226   1.352  0.1720  0.3217 -0.2482
  989MOL0     N30433   0.500   7.251   1.246  0.2286 -0.3785 -0.1966
  989MOL0     C30434   0.478   7.380   1.197  0.7133  0.1990 -0.2452
  989MOL0     C30435   0.382   7.361   1.097  0.1846 -0.6588  0.7645
  989MOL0     C30436   0.324   7.466   0.999 -1.0357 -0.1732  0.4997
  989MOL0     C30437   0.205   7.540   1.056  0.4385 -0.5408  0.9859
  989MOL0     C30438   0.168   7.650   0.965  0.6369  0.0324  0.3413
  989MOL0     C30439   0.058   7.744   1.019  0.3234 -0.8768 -0.4635
  989MOL0     O30440  -0.064   7.668   1.050  0.0474 -0.6547 -0.2183
  989MOL0     C30441  -0.187   7.729   1.079 -0.2659  0.0968 -0.2542
  989MOL0     C30442  -0.299   7.651   1.078  0.8240 -0.1056  0.3832
  989MOL0     C30443  -0.415   7.694   1.129  0.4675  0.5772  0.0405
  989MOL0     C30444  -0.431   7.823   1.193  0.2808 -0.2864 -0.2319
  989MOL0     C30445  -0.556   7.875   1.250  0.3698 -0.2864 -0.1408
  989MOL0     O30446  -0.553   7.947   1.366 -0.0299 -0.0661 -0.5548
  989MOL0     C30447  -0.667   7.996   1.434  0.2576  0.4919 -0.1149
  989MOL0     C30448  -0.643   7.991   1.574 -0.5654  0.6215  0.7250
  989MOL0     C30449  -0.749   8.030   1.658 -0.2563 -0.8607  0.2524
  989MOL0     C30450  -0.875   8.075   1.607  0.3856 -0.2124 -0.2013
  989MOL0     O30451  -0.981   8.094   1.695  0.2757 -0.3931 -0.2624
  989MOL0     C30452  -1.117   8.057   1.660  0.2129 -0.5543  0.1999
  989MOL0     C30453  -1.190   8.054   1.792 -0.1752 -0.2612  0.1387
  989MOL0     C30454  -1.338   8.040   1.773 -0.2103 -0.2649  0.0996
  989MOL0     C30455  -1.419   8.077   1.893  0.7906  0.3831  0.1706
  989MOL0     C30456  -1.559   8.042   1.869  0.5844 -0.6755  0.4360
  989MOL0     C30457  -1.639   8.126   1.768 -1.0960 -0.0972  0.3356
  989MOL0     C30458  -1.793   8.115   1.794 -0.0314 -0.2458  0.2701
  989MOL0     C30459  -1.846   8.245   1.861  1.1083 -0.5510 -0.4570
  989MOL0    Cl30460  -1.892   8.352   1.716 -0.0445  0.5557  0.6512
  989MOL0     C30461  -0.893   8.071   1.469  0.0453 -0.7015  0.4940
  989MOL0     C30462  -0.786   8.037   1.384  0.7074 -0.0717  1.0378
  989MOL0     O30463  -0.658   7.838   1.184  0.5065 -0.1062  0.4190
  989MOL0     C30464  -0.310   7.903   1.194 -0.0313 -0.1285  0.3303
  989MOL0     C30465  -0.190   7.858   1.136  0.1975 -1.0523  0.1041
  989MOL0     N30466   0.342   7.231   1.102  0.2506 -0.1591  0.6152
  989MOL0     N30467   0.411   7.165   1.189 -0.1983  0.5071 -1.2089
  989MOL0     C30468   1.382   7.248   1.801  0.0717  0.5675 -0.0326
  989MOL0     C30469   1.518   7.282   1.759 -0.9968  0.0145  0.1340
  989MOL0     C30470   1.885   7.523   1.689 -0.8864 -0.4107 -0.0619
  989MOL0     C30471   1.997   7.550   1.782 -0.1186 -0.6664  0.2713
  989MOL0     C30472   2.119   7.597   1.726 -0.1551 -0.1071 -0.7471
  989MOL0     C30473   2.139   7.605   1.590  0.2916  0.2358 -0.5051
  989MOL0     O30474   2.251   7.660   1.528  0.4776 -0.4874 -0.1997
  989MOL0     C30475   2.365   7.707   1.608 -0.0176 -0.9963 -0.3754
  989MOL0     C30476   2.488   7.701   1.520 -0.1097 -0.1646 -0.3005
  989MOL0     C30477   2.557   7.829   1.490 -1.4442 -0.1023  0.1596
  989MOL0     C30478   2.691   7.790   1.412  0.4018  0.1704 -0.3549
  989MOL0     C30479   2.747   7.912   1.348 -0.3059 -0.5139 -0.4947
  989MOL0     C30480   2.803   8.014   1.314  0.1402  0.0583  0.1333
  989MOL0     C30481   2.034   7.580   1.509 -1.1274 -0.7657 -0.1016
  989MOL0     C30482   1.907   7.538   1.556 -0.2640 -1.5948 -0.1518
  989MOL0     H30483   1.456   7.580   1.609 -1.8177  1.0837  0.9612
  989MOL0     H30484   1.230   7.513   1.644  1.7230  0.2815 -0.4053
  989MOL0     H30485   1.141   7.221   1.992  0.9014 -0.6215 -0.0144
  989MOL0     H30486   1.162   7.112   1.856  1.8305  1.2786 -0.7107
  989MOL0     H30487   0.904   7.270   1.929 -0.7791 -2.5061  3.6222
  989MOL0     H30488   0.937   7.098   1.948 -0.2130 -0.2397 -1.4024
  989MOL0     H30489   0.952   7.046   1.712 -1.5928 -1.3748  1.0739
  989MOL0     H30490   0.914   7.215   1.673 -2.7192 -2.1741 -4.0934
  989MOL0     H30491   0.741   6.999   1.800 -1.4274 -2.5308 -4.8719
  989MOL0     H30492   0.711   7.166   1.836 -1.3753  0.7566 -2.0606
  989MOL0     H30493   0.564   7.071   1.657  0.4069  1.8844  2.7914
  989MOL0     H30494   0.699   7.040   1.557  1.9150  1.3954 -0.1528
  989MOL0     H30495   0.743   7.308   1.573 -0.9163  2.8645  0.4540
  989MOL0     H30496   0.617   7.316   1.690  1.6447  0.1293  0.2285
  989MOL0     H30497   0.448   7.256   1.510  0.2880  2.5116 -0.2865
  989MOL0     H30498   0.553   7.392   1.475 -1.5003  1.3772  0.6937
  989MOL0     H30499   0.627   7.119   1.359  3.4605  0.9421 -0.4776
  989MOL0     H30500   0.696   7.276   1.325 -0.5718  1.8445 -0.1020
  989MOL0     H30501   0.530   7.472   1.221 -0.2437  0.3983  1.1615
  989MOL0     H30502   0.286   7.416   0.910 -0.9730 -0.1889  0.4820
  989MOL0     H30503   0.407   7.531   0.969 -1.0762 -0.4473 -0.2106
  989MOL0     H30504   0.236   7.597   1.144  2.0592 -1.7765  1.2604
  989MOL0     H30505   0.121   7.473   1.076 -0.6612  0.7189  0.7268
  989MOL0     H30506   0.256   7.707   0.936  1.5658 -2.1885 -1.4739
  989MOL0     H30507   0.130   7.614   0.869 -1.3525  0.3226  0.9605
  989MOL0     H30508   0.041   7.828   0.950  1.5581  0.8842  1.2606
  989MOL0     H30509   0.088   7.792   1.113  0.5667 -0.5189 -0.7196
  989MOL0     H30510  -0.285   7.551   1.038  1.1924  0.1886 -0.2262
  989MOL0     H30511  -0.496   7.622   1.135 -0.3077  1.5276  1.9876
  989MOL0     H30512  -0.547   7.965   1.618  0.4980 -0.1409 -1.8589
  989MOL0     H30513  -0.742   8.021   1.766 -2.7383 -0.4523  0.5171
  989MOL0     H30514  -1.127   7.954   1.626 -3.2434 -0.2012 -0.1702
  989MOL0     H30515  -1.154   8.120   1.579  1.6539 -0.8976 -0.7642
  989MOL0     H30516  -1.176   8.153   1.838 -3.1746 -0.3676  1.4981
  989MOL0     H30517  -1.150   7.983   1.864 -1.5762  0.1687  1.3922
  989MOL0     H30518  -1.353   7.933   1.753  0.9249 -0.5174  0.5300
  989MOL0     H30519  -1.371   8.092   1.683 -0.7408  1.9944  1.4985
  989MOL0     H30520  -1.376   8.026   1.980  0.5457 -1.9176 -0.9866
  989MOL0     H30521  -1.415   8.183   1.919  1.3065 -0.0788  2.1683
  989MOL0     H30522  -1.604   8.049   1.968  0.0480 -1.0937  0.2285
  989MOL0     H30523  -1.564   7.934   1.854  3.6627 -1.4329  3.6833
  989MOL0     H30524  -1.613   8.083   1.671  1.7765 -0.9251  1.3624
  989MOL0     H30525  -1.608   8.231   1.775 -0.0804 -0.4905  3.5875
  989MOL0     H30526  -1.842   8.097   1.697  0.3320 -1.7184  0.3286
  989MOL0     H30527  -1.816   8.030   1.859  0.5119 -2.0615 -1.7515
  989MOL0     H30528  -1.781   8.301   1.929  0.0934  1.0506 -0.7488
  989MOL0     H30529  -1.936   8.233   1.922  1.0595  1.6707  0.0011
  989MOL0     H30530  -0.985   8.079   1.413 -0.2679 -2.5364  0.6694
  989MOL0     H30531  -0.807   8.025   1.278 -0.7721  0.3266  1.2530
  989MOL0     H30532  -0.300   7.994   1.252  1.3437  0.4773 -0.7785
  989MOL0     H30533  -0.108   7.929   1.131 -2.6034  2.4189 -0.2845
  989MOL0     H30534   1.358   7.167   1.869 -2.7514  0.7628 -0.6749
  989MOL0     H30535   1.602   7.229   1.804 -0.4720  2.0580  1.7411
  989MOL0     H30536   1.976   7.559   1.888  3.7700  0.2314  1.1293
  989MOL0     H30537   2.196   7.636   1.792  0.6853 -1.1016 -1.1065
  989MOL0     H30538   2.394   7.645   1.694  1.2719 -3.4380 -2.4438
  989MOL0     H30539   2.349   7.810   1.642 -2.2082 -2.1428  2.5202
  989MOL0     H30540   2.560   7.635   1.569 -0.9757 -0.1078  1.0907
  989MOL0     H30541   2.461   7.652   1.426 -1.6790 -0.4456  0.2640
  989MOL0     H30542   2.586   7.882   1.581 -1.4827  2.0375 -1.0158
  989MOL0     H30543   2.499   7.900   1.431 -1.4395  0.3169  0.6536
  989MOL0     H30544   2.764   7.757   1.486 -1.6055  1.7213  2.4836
  989MOL0     H30545   2.664   7.718   1.334 -0.1922  0.7142 -0.6684
  989MOL0     H30546   2.852   8.097   1.268  2.2861 -1.5338 -0.6250
  989MOL0     H30547   2.049   7.594   1.402  1.1265  0.5427  0.3319
  989MOL0     H30548   1.831   7.510   1.483 -0.5415  1.1109 -1.0423
  990MOL0     O30549   3.662   0.581   3.063  0.4059 -0.6277  0.5291
  990MOL0     C30550   3.726   0.626   2.966 -0.0826 -0.4065 -0.8206
  990MOL0     O30551   3.679   0.639   2.843 -0.2036  0.0313  0.0108
  990MOL0     C30552   3.550   0.613   2.808 -0.5827 -0.0065 -0.6479
  990MOL0     C30553   3.488   0.710   2.725  0.4174 -0.2342  0.2375
  990MOL0     C30554   3.350   0.702   2.696  0.5653  0.1533  0.4592
  990MOL0     C30555   3.275   0.593   2.746 -0.1178  0.3565 -0.7094
  990MOL0     O30556   3.140   0.575   2.723 -0.1024 -0.4523  0.3703
  990MOL0     C30557   3.066   0.687   2.665  0.0201 -0.1611  0.8188
  990MOL0     C30558   2.927   0.648   2.652  0.5729  0.1092  0.4812
  990MOL0     C30559   2.859   0.619   2.784 -0.6824  0.2089 -0.1620
  990MOL0     C30560   2.708   0.618   2.778  0.0702  0.5979 -0.1623
  990MOL0     C30561   2.645   0.507   2.678 -0.7926 -0.3136 -0.0848
  990MOL0     C30562   2.494   0.515   2.682  0.0521 -0.0735 -0.0032
  990MOL0     C30563   2.433   0.442   2.564  0.0524  0.5094  0.5596
  990MOL0     C30564   2.285   0.477   2.537  0.6753  0.0407  0.4921
  990MOL0     N30565   2.198   0.397   2.628  0.3141 -0.0156 -1.1231
  990MOL0     C30566   2.163   0.262   2.616  0.4102  0.2353 -0.6591
  990MOL0     C30567   2.070   0.243   2.710  0.4590 -0.5766 -1.1023
  990MOL0     C30568   1.999   0.121   2.750  0.8138  1.0570 -0.8921
  990MOL0     C30569   1.895   0.089   2.643 -0.8194  0.2139  0.0512
  990MOL0     C30570   1.789   0.196   2.641 -0.2645  0.2984  0.0829
  990MOL0     C30571   1.671   0.169   2.550 -0.2473 -0.1726  0.4028
  990MOL0     O30572   1.574   0.111   2.627  0.4151 -0.1337  0.1730
  990MOL0     C30573   1.442   0.121   2.583  0.3060 -0.3531 -0.0059
  990MOL0     C30574   1.398   0.154   2.456 -0.8485  0.8487 -0.2926
  990MOL0     C30575   1.265   0.173   2.430  0.2820 -0.9384  0.2242
  990MOL0     C30576   1.163   0.176   2.532 -0.3670  0.7753 -0.2818
  990MOL0     C30577   1.025   0.209   2.511 -0.7258  0.8292 -0.0347
  990MOL0     O30578   0.997   0.251   2.380 -0.0279  0.6844 -0.2590
  990MOL0     C30579   0.879   0.207   2.328  0.4839 -0.1759 -0.3903
  990MOL0     C30580   0.882   0.089   2.256  0.2760  0.6335  0.5615
  990MOL0     C30581   0.762   0.039   2.206  0.5571  0.8502  0.1634
  990MOL0     C30582   0.639   0.098   2.233  0.6315  0.7097  0.0118
  990MOL0     O30583   0.515   0.043   2.201  0.0795  0.2128  0.7807
  990MOL0     C30584   0.520  -0.050   2.102  0.6513  0.1730 -0.0733
  990MOL0     C30585   0.381  -0.116   2.074 -0.4303 -0.8529  0.4993
  990MOL0     C30586   0.287  -0.031   1.986 -1.3580  0.3952 -0.3839
  990MOL0     C30587   0.249   0.100   2.055  0.3121  0.8110 -0.4699
  990MOL0     C30588   0.120   0.155   1.997  0.1822 -0.0744 -0.0014
  990MOL0     C30589   0.090   0.290   2.059  0.0076  0.7737  0.3994
  990MOL0     C30590   0.176   0.411   2.008  0.8602  1.1017  0.1473
  990MOL0     C30591   0.121   0.536   2.067 -0.8769 -0.0615 -0.6732
  990MOL0    Cl30592   0.200   0.545   2.238  0.2156  0.2220  0.2334
  990MOL0     C30593   0.629   0.221   2.293  0.3444  0.6251 -0.1637
  990MOL0     C30594   0.751   0.275   2.340 -0.1254  0.8460  0.0649
  990MOL0     O30595   0.938   0.197   2.603  0.0897 -0.3539  1.2430
  990MOL0     C30596   1.209   0.143   2.663 -0.3021 -0.0630  0.1650
  990MOL0     C30597   1.343   0.108   2.681 -0.5671 -0.2776  0.2916
  990MOL0     N30598   2.040   0.364   2.777  0.2034  0.1662 -0.3868
  990MOL0     N30599   2.112   0.454   2.721  0.1118  0.1841  0.1129
  990MOL0     C30600   3.330   0.507   2.840  0.8011  0.1382 -0.5240
  990MOL0     C30601   3.467   0.517   2.867  0.0748 -0.3462  0.7168
  990MOL0     C30602   3.882   0.650   2.971  0.2897  0.4469 -0.6786
  990MOL0     C30603   3.955   0.711   2.868 -0.1745 -0.0077 -0.2927
  990MOL0     C30604   4.099   0.738   2.888  0.5036  0.1157  0.0839
  990MOL0     C30605   4.160   0.705   3.011 -0.2858  0.1201  1.1421
  990MOL0     O30606   4.292   0.731   3.038 -0.2035 -0.0108 -0.0087
  990MOL0     C30607   4.375   0.621   3.004 -0.7131 -0.5842  0.0500
  990MOL0     C30608   4.517   0.655   3.060  0.2324  0.4021 -0.6721
  990MOL0     C30609   4.527   0.625   3.215 -0.0433 -1.3692  0.0324
  990MOL0     C30610   4.660   0.667   3.291  0.2444  0.2043  0.4085
  990MOL0     C30611   4.775   0.596   3.230  1.2941 -0.3316  0.3994
  990MOL0     C30612   4.872   0.544   3.175 -0.4221 -0.5017 -0.1343
  990MOL0     C30613   4.086   0.633   3.106 -1.2264  0.4119 -0.3677
  990MOL0     C30614   3.948   0.613   3.088  0.5788 -0.2323  0.5562
  990MOL0     H30615   3.538   0.800   2.691  1.6711 -1.0213 -0.0816
  990MOL0     H30616   3.308   0.786   2.641  2.6640 -0.5523 -2.4795
  990MOL0     H30617   3.109   0.698   2.565  1.5430 -3.4848  0.9658
  990MOL0     H30618   3.072   0.778   2.726 -0.1994  1.2059 -1.1200
  990MOL0     H30619   2.920   0.560   2.587  1.6897  0.0346  0.4458
  990MOL0     H30620   2.875   0.736   2.611 -2.4197 -1.4443  0.6233
  990MOL0     H30621   2.883   0.703   2.850  0.8642  3.0223 -3.9041
  990MOL0     H30622   2.883   0.526   2.835 -1.9261  0.2713  0.5773
  990MOL0     H30623   2.683   0.587   2.879 -0.6743  0.9015 -0.2495
  990MOL0     H30624   2.659   0.711   2.749 -1.4192 -0.6608 -1.9942
  990MOL0     H30625   2.688   0.411   2.706  0.9776 -0.3087 -2.4199
  990MOL0     H30626   2.681   0.517   2.575 -1.0514 -0.0094 -0.1493
  990MOL0     H30627   2.468   0.620   2.664  4.2101  1.0405 -0.6226
  990MOL0     H30628   2.450   0.475   2.774  0.6428 -2.8162 -0.8156
  990MOL0     H30629   2.489   0.471   2.474  2.0556  0.5617  1.7805
  990MOL0     H30630   2.447   0.335   2.580 -3.8203 -0.5081 -1.6637
  990MOL0     H30631   2.256   0.458   2.433  1.7522  2.4381 -0.2985
  990MOL0     H30632   2.270   0.584   2.554 -1.7106 -0.2442  0.4243
  990MOL0     H30633   2.208   0.195   2.544  1.0774  2.3212 -2.2804
  990MOL0     H30634   1.947   0.120   2.846  2.4083  1.4587  0.0213
  990MOL0     H30635   2.073   0.042   2.766  0.5887  1.5062  3.5312
  990MOL0     H30636   1.842  -0.006   2.659 -4.3846  2.1242  0.6216
  990MOL0     H30637   1.948   0.082   2.547  1.1972  1.3725  1.0282
  990MOL0     H30638   1.756   0.212   2.744  2.6377 -0.7360  1.2753
  990MOL0     H30639   1.846   0.283   2.605 -1.0032  0.3791 -0.9416
  990MOL0     H30640   1.694   0.108   2.462 -0.5459  1.5016 -0.8869
  990MOL0     H30641   1.638   0.261   2.501 -3.2611 -1.6011 -0.4709
  990MOL0     H30642   1.473   0.165   2.379 -0.2125  2.5223  0.5355
  990MOL0     H30643   1.234   0.194   2.328  1.7481  2.9600  0.4434
  990MOL0     H30644   0.975   0.032   2.250  1.4977  2.5869  0.1936
  990MOL0     H30645   0.766  -0.052   2.148  1.0234 -0.0396  1.5647
  990MOL0     H30646   0.584  -0.132   2.135 -0.5251 -0.1976  1.4030
  990MOL0     H30647   0.564  -0.008   2.011  0.8068 -1.0606 -0.5908
  990MOL0     H30648   0.320  -0.138   2.162 -1.5245  1.0934  0.2961
  990MOL0     H30649   0.402  -0.214   2.030  2.2176 -1.0728  2.0318
  990MOL0     H30650   0.204  -0.097   1.961  0.0021 -3.0891  3.3157
  990MOL0     H30651   0.345  -0.013   1.894  2.3348  0.2965  1.7407
  990MOL0     H30652   0.236   0.090   2.163 -0.5573  0.2398 -0.6180
  990MOL0     H30653   0.333   0.167   2.035  1.9177 -0.4181  1.6526
  990MOL0     H30654   0.042   0.082   2.021  0.5747 -0.9530 -1.2252
  990MOL0     H30655   0.122   0.167   1.888 -2.3008 -0.3005 -0.1313
  990MOL0     H30656   0.104   0.283   2.167 -1.9483  1.6400  0.7489
  990MOL0     H30657  -0.016   0.313   2.047 -0.3507  0.8941  3.1394
  990MOL0     H30658   0.279   0.403   2.044  0.3005  0.0017  1.6090
  990MOL0     H30659   0.163   0.425   1.900 -0.5096 -0.7510  0.0247
  990MOL0     H30660   0.015   0.518   2.083 -0.0655 -2.0291  3.6872
  990MOL0     H30661   0.143   0.629   2.012 -0.2666 -0.2055 -0.6787
  990MOL0     H30662   0.535   0.273   2.302 -0.1862 -0.4903  1.2264
  990MOL0     H30663   0.739   0.363   2.402 -3.5663 -0.1808  1.1013
  990MOL0     H30664   1.142   0.140   2.748  0.4134 -1.4225  0.6968
  990MOL0     H30665   1.370   0.086   2.784 -1.0143  0.9793  0.7029
  990MOL0     H30666   3.262   0.437   2.889  1.8902 -0.4161  0.2477
  990MOL0     H30667   3.515   0.454   2.942 -0.3840 -0.3739  0.9928
  990MOL0     H30668   3.904   0.740   2.777 -0.4034  0.6361  0.0335
  990MOL0     H30669   4.142   0.791   2.803 -1.0097 -0.1161 -0.8740
  990MOL0     H30670   4.376   0.616   2.894  3.7129 -2.5003 -0.0329
  990MOL0     H30671   4.340   0.526   3.046 -0.4762  0.4629  2.7587
  990MOL0     H30672   4.590   0.582   3.024 -0.4366  0.1395 -1.5233
  990MOL0     H30673   4.541   0.755   3.024 -0.3506 -0.2227 -2.9214
  990MOL0     H30674   4.527   0.517   3.234 -2.9043 -1.1482  1.7539
  990MOL0     H30675   4.436   0.666   3.257 -1.7520 -0.3403 -4.1485
  990MOL0     H30676   4.668   0.776   3.288  0.4036  0.2374  1.5477
  990MOL0     H30677   4.648   0.643   3.397 -1.8473  3.3985  1.0422
  990MOL0     H30678   4.961   0.509   3.127 -0.8663 -2.1583  0.1770
  990MOL0     H30679   4.143   0.590   3.188  0.9658  0.0270 -2.0042
  990MOL0     H30680   3.884   0.562   3.159  0.6573 -2.6871 -1.0317
  991MOL0     O30681   1.590   3.117   9.162 -0.3319  0.1706 -0.4028
  991MOL0     C30682   1.653   3.209   9.108 -0.8416  0.6188 -0.1188
  991MOL0     O30683   1.613   3.285   8.996 -0.5689  0.6993 -0.0880
  991MOL0     C30684   1.489   3.264   8.941  0.3462 -0.8651  0.6091
  991MOL0     C30685   1.377   3.185   8.972 -0.7210  0.2332 -0.4181
  991MOL0     C30686   1.259   3.170   8.890 -0.1554  0.3376  0.6680
  991MOL0     C30687   1.244   3.258   8.774 -0.0085  0.6992  0.6235
  991MOL0     O30688   1.140   3.236   8.689 -0.3306 -0.3256  0.2254
  991MOL0     C30689   1.009   3.210   8.739  0.2093  1.2913  0.2652
  991MOL0     C30690   0.933   3.180   8.600 -0.6575  0.1069 -0.2147
  991MOL0     C30691   0.798   3.119   8.626  0.3036  0.4077 -0.9053
  991MOL0     C30692   0.714   3.140   8.492 -0.3652 -0.4606 -0.4764
  991MOL0     C30693   0.631   3.019   8.457  0.5920 -0.2060  0.5362
  991MOL0     C30694   0.509   3.074   8.380  0.3729  0.3332 -0.6800
  991MOL0     C30695   0.531   3.144   8.245 -0.3164  0.0730 -0.4370
  991MOL0     C30696   0.461   3.285   8.237  0.0982  0.5281 -0.5297
  991MOL0     N30697   0.312   3.272   8.208 -0.0926 -0.1564  0.1780
  991MOL0     C30698   0.253   3.225   8.089  0.1532  0.9039  0.4659
  991MOL0     C30699   0.115   3.236   8.112  0.3323 -0.0238 -0.3492
  991MOL0     C30700  -0.004   3.193   8.031  0.2973  0.4962  0.0036
  991MOL0     C30701   0.032   3.133   7.892  0.5360 -0.1485 -0.5483
  991MOL0     C30702   0.046   3.251   7.793  0.4006 -0.2240 -0.0297
  991MOL0     C30703   0.089   3.215   7.647  0.0493  0.1812 -1.3141
  991MOL0     O30704   0.207   3.136   7.649  0.3278  0.1284 -0.1939
  991MOL0     C30705   0.314   3.189   7.722  0.2890 -0.1293  0.1012
  991MOL0     C30706   0.336   3.324   7.745 -0.2786 -0.3758  0.4499
  991MOL0     C30707   0.457   3.361   7.793 -1.0719 -1.2223 -1.3446
  991MOL0     C30708   0.550   3.269   7.853  0.7173 -0.0701 -0.3624
  991MOL0     C30709   0.676   3.310   7.916  0.4302  1.1300  0.1477
  991MOL0     O30710   0.769   3.203   7.925 -0.0314  0.2490  0.5473
  991MOL0     C30711   0.889   3.217   7.993 -0.3868  0.3409 -1.0025
  991MOL0     C30712   1.009   3.148   7.959  0.1276  0.2645  0.1918
  991MOL0     C30713   1.122   3.158   8.033 -0.1057 -0.0426 -1.1164
  991MOL0     C30714   1.124   3.233   8.153 -0.0519  1.3674  0.7790
  991MOL0     O30715   1.245   3.256   8.207 -0.4700 -0.9506  0.0230
  991MOL0     C30716   1.261   3.275   8.346 -0.1639  0.2882 -0.2312
  991MOL0     C30717   1.383   3.193   8.397 -0.1865 -0.5102  0.1126
  991MOL0     C30718   1.515   3.235   8.335 -0.3240 -0.1104 -0.2472
  991MOL0     C30719   1.635   3.162   8.391  0.3848 -0.2167  0.6587
  991MOL0     C30720   1.693   3.245   8.507 -0.5627 -0.0530  0.0265
  991MOL0     C30721   1.840   3.227   8.529  0.0320  0.3400 -0.3356
  991MOL0     C30722   1.902   3.281   8.661 -1.6248 -0.3600 -0.4224
  991MOL0     C30723   2.041   3.214   8.668  0.1471 -0.2310 -0.4448
  991MOL0    Cl30724   2.114   3.240   8.829 -0.1665  0.2935 -0.1566
  991MOL0     C30725   1.006   3.304   8.189  0.1312  0.4783 -1.0007
  991MOL0     C30726   0.891   3.293   8.113  0.5078 -0.4330  0.1203
  991MOL0     O30727   0.696   3.422   7.951  0.3070 -0.3857  0.7673
  991MOL0     C30728   0.520   3.137   7.845  0.1606  0.4428  0.2207
  991MOL0     C30729   0.405   3.097   7.781  0.1337  1.1222  0.3022
  991MOL0     N30730   0.109   3.300   8.236 -0.4283  0.2960 -0.1915
  991MOL0     N30731   0.219   3.333   8.286  0.3775  0.0871 -0.7746
  991MOL0     C30732   1.348   3.337   8.741  0.3917  0.1414  0.7000
  991MOL0     C30733   1.470   3.346   8.823  0.4869 -0.2333 -0.7461
  991MOL0     C30734   1.795   3.235   9.155 -1.2244  0.2188  0.5027
  991MOL0     C30735   1.846   3.184   9.270 -0.5068 -0.0694 -0.0425
  991MOL0     C30736   1.976   3.212   9.315 -0.5147  0.2504  0.5075
  991MOL0     C30737   2.058   3.293   9.240  0.5720 -0.1876 -0.1278
  991MOL0     O30738   2.183   3.333   9.273 -0.1402  0.5674 -0.2655
  991MOL0     C30739   2.270   3.278   9.378  1.2698  0.4344  0.0886
  991MOL0     C30740   2.366   3.393   9.428  0.5797 -0.3132 -0.8291
  991MOL0     C30741   2.461   3.366   9.539  0.3471 -1.0777  0.2786
  991MOL0     C30742   2.560   3.256   9.504 -0.9440 -0.1658 -0.8925
  991MOL0     C30743   2.654   3.231   9.617  0.7861 -0.0338  0.1706
  991MOL0     C30744   2.722   3.207   9.718  0.7883  0.2404 -0.0285
  991MOL0     C30745   2.016   3.339   9.115  0.5106 -0.0813  0.3832
  991MOL0     C30746   1.883   3.310   9.070  0.2714 -0.3888  0.1676
  991MOL0     H30747   1.385   3.126   9.063 -1.8825 -0.1892 -0.5729
  991MOL0     H30748   1.175   3.115   8.932  1.2810 -3.3274 -0.8671
  991MOL0     H30749   0.969   3.292   8.801 -0.3913 -0.8584  2.9068
  991MOL0     H30750   1.014   3.119   8.799 -3.3757  0.1799 -0.8678
  991MOL0     H30751   0.992   3.128   8.525  0.9618  1.5883 -0.0298
  991MOL0     H30752   0.915   3.275   8.548  0.4046 -1.1398 -3.0515
  991MOL0     H30753   0.749   3.143   8.721 -0.5307 -1.3869 -0.8320
  991MOL0     H30754   0.815   3.011   8.630 -3.0188 -0.2084 -0.6604
  991MOL0     H30755   0.660   3.235   8.495 -1.9678 -1.3543 -0.5007
  991MOL0     H30756   0.784   3.159   8.410  1.5518 -0.7362  0.9970
  991MOL0     H30757   0.586   2.977   8.547 -1.1095 -2.3709 -1.1886
  991MOL0     H30758   0.691   2.947   8.399  0.5758 -0.2449  0.5688
  991MOL0     H30759   0.439   3.134   8.439 -1.1446 -2.0731  0.1120
  991MOL0     H30760   0.451   2.983   8.364 -1.0423  0.7431  1.6483
  991MOL0     H30761   0.636   3.154   8.218 -0.4073 -1.7841 -1.6958
  991MOL0     H30762   0.487   3.077   8.170  0.7349 -0.5352 -0.5316
  991MOL0     H30763   0.515   3.341   8.160  1.1365  2.9333  1.7642
  991MOL0     H30764   0.480   3.333   8.334 -0.5499 -1.2380  0.5167
  991MOL0     H30765   0.306   3.174   8.009  1.0359 -1.3682  2.4084
  991MOL0     H30766  -0.076   3.275   8.031  2.8063  2.8972  1.6843
  991MOL0     H30767  -0.055   3.121   8.096  2.5014 -0.8081  0.4290
  991MOL0     H30768  -0.052   3.081   7.844 -0.7541  3.5816 -2.7308
  991MOL0     H30769   0.127   3.079   7.894  1.0884  0.8264  0.4760
  991MOL0     H30770  -0.050   3.302   7.787  2.5433  4.2145 -4.7936
  991MOL0     H30771   0.111   3.333   7.827 -0.6668  0.1181  1.2764
  991MOL0     H30772   0.105   3.302   7.582  2.3665  0.8053 -0.0514
  991MOL0     H30773   0.012   3.150   7.604 -1.4353  0.2659  1.0254
  991MOL0     H30774   0.276   3.399   7.693  0.0912 -1.2201 -1.2763
  991MOL0     H30775   0.501   3.460   7.781 -0.8654 -1.1921 -0.3545
  991MOL0     H30776   0.999   3.090   7.868 -1.2853  1.6177 -0.5607
  991MOL0     H30777   1.216   3.115   8.000  0.1207  0.6544 -1.4087
  991MOL0     H30778   1.175   3.235   8.401 -2.2489  1.2775 -2.5940
  991MOL0     H30779   1.277   3.383   8.353 -0.3729  0.3521 -0.6800
  991MOL0     H30780   1.373   3.085   8.384  0.0819 -0.9325  2.8475
  991MOL0     H30781   1.397   3.207   8.505 -1.2000 -1.1949  0.3461
  991MOL0     H30782   1.534   3.342   8.346  0.2232 -0.2608  0.3518
  991MOL0     H30783   1.513   3.211   8.228 -0.7885  0.7566 -0.4435
  991MOL0     H30784   1.605   3.060   8.419  2.8094 -1.1250  0.2044
  991MOL0     H30785   1.716   3.162   8.318  0.8195  1.4690  1.1102
  991MOL0     H30786   1.648   3.228   8.605 -1.9875  0.5753 -0.4925
  991MOL0     H30787   1.679   3.351   8.481 -3.0274 -0.2278  0.4451
  991MOL0     H30788   1.892   3.275   8.446  1.3006 -0.7325 -0.1896
  991MOL0     H30789   1.854   3.119   8.520  0.2118  0.5188 -3.0901
  991MOL0     H30790   1.920   3.389   8.665  0.2464 -0.6190 -0.7861
  991MOL0     H30791   1.852   3.240   8.749 -1.8818 -2.6759 -1.5935
  991MOL0     H30792   2.116   3.249   8.597 -0.7825  2.3508 -0.2791
  991MOL0     H30793   2.024   3.108   8.652 -1.6474  0.3972 -3.6079
  991MOL0     H30794   1.007   3.359   8.283 -2.4462 -0.6940 -0.1895
  991MOL0     H30795   0.805   3.347   8.153  1.4484  0.6298  0.7743
  991MOL0     H30796   0.584   3.066   7.897 -2.1307 -0.9933  1.1911
  991MOL0     H30797   0.385   2.991   7.768  1.9111  0.8783 -0.8904
  991MOL0     H30798   1.341   3.386   8.644 -3.1458  0.0846  0.8090
  991MOL0     H30799   1.554   3.409   8.794  0.4365  0.9261  1.4154
  991MOL0     H30800   1.783   3.114   9.323  1.0141  0.6003  2.8236
  991MOL0     H30801   2.003   3.180   9.415 -1.5694  1.6507  1.2702
  991MOL0     H30802   2.320   3.188   9.340 -0.0466 -1.2626  2.1233
  991MOL0     H30803   2.210   3.244   9.463 -1.2336 -2.0248 -2.4148
  991MOL0     H30804   2.427   3.429   9.344  0.4539  2.1395  0.0624
  991MOL0     H30805   2.308   3.477   9.468  2.5677  0.3847  0.7517
  991MOL0     H30806   2.410   3.333   9.630 -0.1560  0.7041  0.7012
  991MOL0     H30807   2.506   3.465   9.555 -4.3284  1.0189  2.7715
  991MOL0     H30808   2.503   3.166   9.479  1.9964 -2.5627  0.3647
  991MOL0     H30809   2.620   3.290   9.419 -0.2470  1.1045  0.0668
  991MOL0     H30810   2.791   3.185   9.797  1.6677 -0.2845 -0.9168
  991MOL0     H30811   2.078   3.399   9.050 -0.2481  0.0559 -0.2385
  991MOL0     H30812   1.865   3.336   8.966  4.7667 -3.7654 -1.8006
  992MOL0     O30813   2.728   0.579   4.687 -0.0275  0.1497  0.4934
  992MOL0     C30814   2.796   0.670   4.646  0.4166  0.3003 -0.2797
  992MOL0     O30815   2.759   0.759   4.554  0.4256  0.0870 -0.7111
  992MOL0     C30816   2.629   0.790   4.530 -0.3575  0.0672  0.7182
  992MOL0     C30817   2.598   0.921   4.499 -0.3943 -0.1490 -0.2148
  992MOL0     C30818   2.469   0.963   4.451 -0.1452 -0.2414 -0.4304
  992MOL0     C30819   2.369   0.869   4.430 -0.0267  0.4941 -0.2071
  992MOL0     O30820   2.242   0.906   4.397  0.7193 -0.1174 -0.2944
  992MOL0     C30821   2.207   0.896   4.258  0.0799 -0.8084 -0.4344
  992MOL0     C30822   2.168   0.752   4.214  0.2519 -0.1317  0.1196
  992MOL0     C30823   2.062   0.694   4.298  0.6848  1.3438  0.1634
  992MOL0     C30824   1.926   0.772   4.303 -0.0855 -0.0066  0.3738
  992MOL0     C30825   1.804   0.696   4.223 -0.6252  0.1232 -0.3558
  992MOL0     C30826   1.740   0.610   4.332 -0.1773 -0.4454 -0.4353
  992MOL0     C30827   1.621   0.535   4.267  0.3599  0.3473 -0.3234
  992MOL0     C30828   1.554   0.450   4.374  0.2576 -0.2394  0.1255
  992MOL0     N30829   1.442   0.370   4.323 -0.3115  0.3444  0.5906
  992MOL0     C30830   1.439   0.236   4.327  0.2947 -0.4693 -0.7970
  992MOL0     C30831   1.310   0.204   4.300 -0.3978  0.0382 -0.0147
  992MOL0     C30832   1.259   0.067   4.280 -0.8523 -0.6594  0.7178
  992MOL0     C30833   1.121   0.035   4.337  0.1363 -0.1388  0.3969
  992MOL0     C30834   1.098  -0.107   4.388 -0.2697  0.4724  0.3499
  992MOL0     C30835   0.968  -0.122   4.475  0.4578  0.4607  0.1517
  992MOL0     O30836   0.861  -0.157   4.380  0.6009 -0.0869 -0.5286
  992MOL0     C30837   0.745  -0.211   4.440 -0.8959  0.0727 -0.5430
  992MOL0     C30838   0.669  -0.283   4.352 -0.1134 -0.8633 -0.5423
  992MOL0     C30839   0.542  -0.329   4.388  0.2868  0.3634  0.5849
  992MOL0     C30840   0.495  -0.311   4.518 -0.0020  0.1631 -0.1947
  992MOL0     C30841   0.359  -0.362   4.560 -0.1449 -1.0926 -0.7454
  992MOL0     O30842   0.304  -0.293   4.663 -0.7962  0.7909 -0.3105
  992MOL0     C30843   0.195  -0.342   4.718  0.0916  0.2740 -0.9414
  992MOL0     C30844   0.190  -0.387   4.848 -0.5420  1.0250  0.1743
  992MOL0     C30845   0.081  -0.435   4.919  0.2341 -1.0740  0.8545
  992MOL0     C30846  -0.042  -0.442   4.857 -0.3789 -0.0713 -0.5690
  992MOL0     O30847  -0.155  -0.467   4.931  1.3261  0.3527  0.4747
  992MOL0     C30848  -0.226  -0.593   4.914  0.0029  0.3350 -0.8447
  992MOL0     C30849  -0.358  -0.600   4.986 -0.8300  0.0357  0.9326
  992MOL0     C30850  -0.422  -0.733   4.960 -0.3625 -0.3335  0.3255
  992MOL0     C30851  -0.554  -0.754   5.034 -0.1621 -0.9434 -0.1830
  992MOL0     C30852  -0.633  -0.876   4.975 -0.5766 -0.6595  0.4483
  992MOL0     C30853  -0.718  -0.939   5.088 -0.8782  0.2275  1.6103
  992MOL0     C30854  -0.841  -0.850   5.120  0.3567  0.1579 -1.2721
  992MOL0     C30855  -0.973  -0.929   5.079  0.0044 -0.6803  1.0813
  992MOL0    Cl30856  -0.966  -0.945   4.909 -0.0773  0.7482 -0.0080
  992MOL0     C30857  -0.044  -0.396   4.723  0.1619  0.8056 -0.0022
  992MOL0     C30858   0.070  -0.348   4.657  0.3685  0.0790 -0.1467
  992MOL0     O30859   0.309  -0.458   4.505  0.2261 -0.3371  0.3844
  992MOL0     C30860   0.565  -0.226   4.606 -0.3195  1.0191 -0.4085
  992MOL0     C30861   0.690  -0.178   4.567 -0.7201 -0.2709  0.1258
  992MOL0     N30862   1.235   0.312   4.286  0.1038  0.3406 -0.6326
  992MOL0     N30863   1.313   0.414   4.301 -0.7807 -0.3258 -0.4607
  992MOL0     C30864   2.411   0.735   4.445  0.1227  0.3180  0.8550
  992MOL0     C30865   2.534   0.692   4.503  0.5294 -0.2285 -0.5440
  992MOL0     C30866   2.930   0.683   4.708  0.9238 -0.4363 -0.5791
  992MOL0     C30867   3.010   0.796   4.689  0.9803  0.1236 -0.0579
  992MOL0     C30868   3.141   0.797   4.740  0.0179 -0.1226  0.2137
  992MOL0     C30869   3.193   0.677   4.796  0.3063 -0.2947  0.8561
  992MOL0     O30870   3.319   0.658   4.832 -0.5006  0.4244  0.3601
  992MOL0     C30871   3.411   0.767   4.828  0.0326 -0.5951 -0.4770
  992MOL0     C30872   3.543   0.716   4.877  0.0209  0.2026 -0.6072
  992MOL0     C30873   3.656   0.805   4.831  0.1497 -0.3440 -1.0115
  992MOL0     C30874   3.680   0.798   4.683 -0.0332  0.2984  0.9172
  992MOL0     C30875   3.803   0.871   4.651 -0.8739  0.4320  0.8577
  992MOL0     C30876   3.913   0.925   4.623  0.1218 -0.3497 -0.4870
  992MOL0     C30877   3.115   0.564   4.805  0.5931  1.1146  0.1985
  992MOL0     C30878   2.986   0.565   4.762 -0.6807 -0.1022 -0.0534
  992MOL0     H30879   2.676   0.995   4.515  0.6522 -0.0442 -4.5655
  992MOL0     H30880   2.439   1.066   4.438  2.0916  0.3627 -1.3115
  992MOL0     H30881   2.285   0.937   4.193 -0.8564 -1.0344 -1.7525
  992MOL0     H30882   2.123   0.960   4.230  1.0650 -0.4289 -2.7762
  992MOL0     H30883   2.259   0.690   4.215  0.0615 -0.4133  0.5056
  992MOL0     H30884   2.130   0.742   4.112  0.8431 -3.2204  0.1032
  992MOL0     H30885   2.087   0.684   4.404 -2.9995 -0.5271  1.0086
  992MOL0     H30886   2.052   0.592   4.261  2.6502  0.8170  1.0056
  992MOL0     H30887   1.905   0.796   4.408  2.5656 -3.0494  1.8002
  992MOL0     H30888   1.939   0.862   4.243 -4.8210 -0.2324 -1.4000
  992MOL0     H30889   1.852   0.639   4.143  0.6231 -0.2971  0.6458
  992MOL0     H30890   1.730   0.771   4.196  1.1354  1.7367 -0.9081
  992MOL0     H30891   1.715   0.670   4.420 -0.6920 -2.6745  1.0026
  992MOL0     H30892   1.813   0.539   4.371  3.2928  1.3002 -3.2065
  992MOL0     H30893   1.545   0.608   4.234 -2.0560 -2.4494 -1.3589
  992MOL0     H30894   1.641   0.482   4.174 -2.8569 -0.1656 -0.8353
  992MOL0     H30895   1.516   0.527   4.442  3.2905  0.6929  0.9733
  992MOL0     H30896   1.628   0.385   4.423  0.9094 -1.1931 -2.0035
  992MOL0     H30897   1.526   0.174   4.346  1.9375  1.8611 -0.2893
  992MOL0     H30898   1.328  -0.006   4.323 -1.1647 -0.5764  1.3722
  992MOL0     H30899   1.260   0.057   4.171  0.0339  1.2336  0.5267
  992MOL0     H30900   1.051   0.062   4.257  0.1110  1.1601  0.8301
  992MOL0     H30901   1.095   0.098   4.422  1.7419 -1.2011  1.7347
  992MOL0     H30902   1.086  -0.171   4.300  1.7347  2.2458 -1.3262
  992MOL0     H30903   1.185  -0.141   4.445  0.4619  3.3166  1.0483
  992MOL0     H30904   0.951  -0.025   4.524 -3.2311  0.2027 -0.3387
  992MOL0     H30905   0.974  -0.206   4.544 -0.8692  0.7395  0.6390
  992MOL0     H30906   0.708  -0.302   4.253  1.7083 -0.5831  0.0905
  992MOL0     H30907   0.485  -0.383   4.313  2.1400 -0.2577 -0.4462
  992MOL0     H30908   0.280  -0.362   4.902 -0.9259  1.9147  0.4118
  992MOL0     H30909   0.097  -0.462   5.023  3.0857 -0.2675  0.7179
  992MOL0     H30910  -0.177  -0.671   4.973 -1.6540  0.0553  0.2373
  992MOL0     H30911  -0.232  -0.620   4.808  0.2281  2.1076 -1.3351
  992MOL0     H30912  -0.430  -0.522   4.959  0.2401 -0.1285 -3.0169
  992MOL0     H30913  -0.350  -0.599   5.095  0.7157 -0.8831  0.8526
  992MOL0     H30914  -0.351  -0.809   4.992  1.1874  0.8915 -0.0836
  992MOL0     H30915  -0.443  -0.743   4.853  0.2095 -0.5646  0.2357
  992MOL0     H30916  -0.530  -0.773   5.139  0.4924  3.6179  0.6805
  992MOL0     H30917  -0.612  -0.661   5.033 -0.7040 -1.2758 -0.2874
  992MOL0     H30918  -0.559  -0.949   4.941 -1.8446 -1.5318 -0.4729
  992MOL0     H30919  -0.705  -0.851   4.897 -1.3579  0.8445  1.6001
  992MOL0     H30920  -0.659  -0.947   5.180 -1.5100  1.7660  2.1872
  992MOL0     H30921  -0.740  -1.040   5.054 -1.8837 -0.0854  3.1262
  992MOL0     H30922  -0.854  -0.824   5.226 -0.6219 -1.7525 -0.8782
  992MOL0     H30923  -0.848  -0.751   5.075  1.8723  0.6205 -0.5409
  992MOL0     H30924  -1.061  -0.875   5.114 -0.3127 -0.4568 -0.0247
  992MOL0     H30925  -0.982  -1.031   5.117 -3.0774 -2.0388 -2.6076
  992MOL0     H30926  -0.137  -0.406   4.668  0.7180  1.4789 -1.0919
  992MOL0     H30927   0.049  -0.320   4.554 -5.0860 -2.5229 -0.1193
  992MOL0     H30928   0.527  -0.205   4.706 -3.0773  3.4608 -1.8097
  992MOL0     H30929   0.744  -0.114   4.636  0.6956  0.7247 -1.8136
  992MOL0     H30930   2.347   0.654   4.413  1.4270  0.0667 -1.3090
  992MOL0     H30931   2.556   0.589   4.528  3.9295  0.2057 -1.2270
  992MOL0     H30932   2.968   0.880   4.635  2.4326 -0.6075 -2.4783
  992MOL0     H30933   3.200   0.888   4.736 -0.8746  0.4068 -2.8002
  992MOL0     H30934   3.369   0.850   4.885  1.0439  0.1545 -0.7936
  992MOL0     H30935   3.420   0.809   4.727 -1.0218  0.3296 -0.2090
  992MOL0     H30936   3.541   0.722   4.986 -0.2300 -0.5820 -0.5620
  992MOL0     H30937   3.562   0.609   4.861  1.8825  0.3414  0.3830
  992MOL0     H30938   3.746   0.772   4.883  0.9270  3.7456  0.5487
  992MOL0     H30939   3.636   0.904   4.872  0.1500 -0.8591  0.2802
  992MOL0     H30940   3.679   0.694   4.647 -0.3810  0.2573  1.0344
  992MOL0     H30941   3.599   0.856   4.636  1.0441 -0.0136 -1.4605
  992MOL0     H30942   4.005   0.964   4.584  0.8768 -2.1313 -0.5831
  992MOL0     H30943   3.153   0.472   4.848  0.5991  0.5184 -1.0460
  992MOL0     H30944   2.927   0.474   4.765  1.2696 -1.4213  1.7945
  993MOL0     O30945   6.323   9.404   6.346 -0.8397 -0.0076  0.3549
  993MOL0     C30946   6.388   9.501   6.309 -0.1024 -0.2200 -0.5271
  993MOL0     O30947   6.344   9.613   6.237  0.1600 -0.5655  0.3960
  993MOL0     C30948   6.216   9.630   6.190 -0.6603  0.1979  0.4499
  993MOL0     C30949   6.189   9.768   6.170 -0.0659  0.1125  0.5642
  993MOL0     C30950   6.064   9.796   6.104 -0.5061  0.0269  0.3289
  993MOL0     C30951   5.975   9.696   6.065  0.0454 -0.5383 -0.0379
  993MOL0     O30952   5.848   9.722   6.016 -0.1256 -0.3410  0.7247
  993MOL0     C30953   5.790   9.843   6.054  0.3319 -0.1071  0.2493
  993MOL0     C30954   5.638   9.830   6.041 -0.1310 -0.0088 -0.4959
  993MOL0     C30955   5.571   9.960   6.068 -0.5011 -0.4834 -0.6556
  993MOL0     C30956   5.418   9.946   6.065 -0.5950  0.0433 -0.6349
  993MOL0     C30957   5.350  10.088   6.089 -0.1532  0.3136  0.6098
  993MOL0     C30958   5.374  10.182   5.966  0.4531  0.6137 -0.5573
  993MOL0     C30959   5.271  10.293   5.959  0.6839 -0.7418  0.6194
  993MOL0     C30960   5.300  10.408   6.048  0.4908  0.3301 -0.9554
  993MOL0     N30961   5.204  10.514   6.037 -0.1716  0.4461 -0.4921
  993MOL0     C30962   5.088  10.519   5.970  0.9183 -0.4044 -0.2039
  993MOL0     C30963   5.030  10.643   6.005  0.7300 -0.9070  0.1209
  993MOL0     C30964   4.898  10.705   5.956  0.0224 -0.3339  0.3064
  993MOL0     C30965   4.802  10.695   6.071 -0.0729  0.3035  0.6144
  993MOL0     C30966   4.773  10.554   6.102  0.9954  1.3328  0.8839
  993MOL0     C30967   4.732  10.456   5.990 -0.1278 -0.8459  0.1131
  993MOL0     O30968   4.648  10.510   5.887  0.2398 -0.2666  0.3494
  993MOL0     C30969   4.538  10.579   5.919  0.1386 -0.2526  0.0185
  993MOL0     C30970   4.449  10.536   6.019  0.5895 -0.4000  0.6143
  993MOL0     C30971   4.324  10.605   6.031  1.1879  0.0602  0.3661
  993MOL0     C30972   4.286  10.707   5.937  0.0214 -0.8742 -0.2290
  993MOL0     C30973   4.150  10.771   5.938  0.0485  0.1743 -0.6055
  993MOL0     O30974   4.080  10.756   6.055  0.6991 -0.1140  0.5604
  993MOL0     C30975   3.945  10.762   6.047 -0.1625 -0.1643  0.8264
  993MOL0     C30976   3.857  10.693   5.957 -0.2763 -0.1955  0.0026
  993MOL0     C30977   3.719  10.674   5.980  0.0486 -0.1101  0.2497
  993MOL0     C30978   3.672  10.724   6.099 -0.1439 -0.4719  0.2208
  993MOL0     O30979   3.536  10.706   6.132  0.0801  0.4981  0.2941
  993MOL0     C30980   3.477  10.801   6.223  0.5712  0.3286  0.3845
  993MOL0     C30981   3.330  10.795   6.236  0.6282 -0.1140 -0.5341
  993MOL0     C30982   3.264  10.662   6.278 -0.4763  0.2535  0.0153
  993MOL0     C30983   3.112  10.679   6.270 -0.5062  0.0858 -0.4455
  993MOL0     C30984   3.034  10.561   6.300  0.1937 -0.0590  0.0788
  993MOL0     C30985   2.888  10.603   6.317 -0.0566 -0.1906  1.1097
  993MOL0     C30986   2.797  10.486   6.335  0.2521  0.0510  0.0048
  993MOL0     C30987   2.656  10.545   6.330  0.7305  0.2246  0.1528
  993MOL0    Cl30988   2.594  10.571   6.162  0.4831 -0.3779 -0.1858
  993MOL0     C30989   3.751  10.809   6.175 -0.1381 -0.7078 -0.4962
  993MOL0     C30990   3.890  10.832   6.150  0.5788  0.5723 -0.3009
  993MOL0     O30991   4.112  10.821   5.826 -0.3098  0.5212  0.0355
  993MOL0     C30992   4.385  10.753   5.847  0.5770 -1.0996  0.0877
  993MOL0     C30993   4.504  10.685   5.835  0.6054 -0.5520 -0.4747
  993MOL0     N30994   5.116  10.696   6.102 -0.3323  0.1848 -0.1301
  993MOL0     N30995   5.219  10.624   6.111  0.9165  0.3563  0.6874
  993MOL0     C30996   6.005   9.564   6.100  0.2489  0.3722 -1.0604
  993MOL0     C30997   6.120   9.531   6.155 -0.3424 -0.5245 -0.1542
  993MOL0     C30998   6.535   9.494   6.337 -0.5045  1.3810  0.6025
  993MOL0     C30999   6.609   9.609   6.338  0.5724  0.2212 -0.0648
  993MOL0     C31000   6.747   9.620   6.362  0.5154  0.1479  0.7575
  993MOL0     C31001   6.810   9.498   6.392 -0.3764  0.2658 -0.7791
  993MOL0     O31002   6.942   9.496   6.443 -0.1818 -0.4432 -0.1831
  993MOL0     C31003   7.016   9.373   6.428  0.5412  0.1553  0.1687
  993MOL0     C31004   7.160   9.411   6.396 -0.2983  0.6900  0.0211
  993MOL0     C31005   7.247   9.473   6.510 -0.1641  0.5493 -0.4179
  993MOL0     C31006   7.397   9.477   6.464 -0.0265  0.3359  0.3596
  993MOL0     C31007   7.475   9.551   6.565 -0.2181  0.3904  0.2567
  993MOL0     C31008   7.551   9.598   6.646 -0.1060 -0.2710 -0.2556
  993MOL0     C31009   6.735   9.381   6.397  0.1620 -0.0062  0.8658
  993MOL0     C31010   6.599   9.375   6.363 -0.9814 -0.4562  0.4323
  993MOL0     H31011   6.263   9.844   6.196 -0.1119  0.7802 -1.1227
  993MOL0     H31012   6.036   9.900   6.088  1.6147  0.5600 -0.3241
  993MOL0     H31013   5.823   9.915   5.978 -1.1607  1.4724  1.0198
  993MOL0     H31014   5.817   9.871   6.156  1.4166 -0.7847  0.1685
  993MOL0     H31015   5.605   9.754   6.113 -0.5961  1.0597  0.4511
  993MOL0     H31016   5.606   9.799   5.941  0.1032  1.0329 -0.9083
  993MOL0     H31017   5.601  10.022   5.983  0.4480  1.1523  0.7919
  993MOL0     H31018   5.606  10.002   6.163 -1.9565  0.7891 -0.6314
  993MOL0     H31019   5.387   9.903   5.969 -1.3199  0.1085 -0.4415
  993MOL0     H31020   5.383   9.872   6.138 -1.1502  2.0769  1.2748
  993MOL0     H31021   5.392  10.134   6.179 -2.0138 -2.2052  2.9257
  993MOL0     H31022   5.241  10.080   6.094 -0.1360 -0.5781 -0.0678
  993MOL0     H31023   5.345  10.129   5.874  2.2928 -1.0557 -0.2438
  993MOL0     H31024   5.477  10.215   5.956  0.5752  0.9081  1.3315
  993MOL0     H31025   5.272  10.334   5.858  0.7352 -0.0848  0.8848
  993MOL0     H31026   5.172  10.251   5.981  0.0365  1.0080  1.1642
  993MOL0     H31027   5.400  10.441   6.020  0.9987 -2.8105 -3.2672
  993MOL0     H31028   5.301  10.382   6.154 -1.1374  3.0544 -0.1439
  993MOL0     H31029   5.045  10.452   5.896 -0.7080  1.2686 -0.8452
  993MOL0     H31030   4.860  10.656   5.867  1.0407 -0.1670 -0.2352
  993MOL0     H31031   4.921  10.810   5.934  3.5429 -0.8389  0.9815
  993MOL0     H31032   4.702  10.737   6.057  0.0821  0.8936  1.1914
  993MOL0     H31033   4.832  10.759   6.155 -4.1694  1.8647  1.1130
  993MOL0     H31034   4.848  10.511   6.169  0.1720  0.6699  1.4029
  993MOL0     H31035   4.682  10.548   6.161  0.4893 -0.6236  0.0038
  993MOL0     H31036   4.676  10.371   6.031  0.6959 -2.1573 -1.3924
  993MOL0     H31037   4.821  10.421   5.938 -0.8962  0.7748 -2.4960
  993MOL0     H31038   4.473  10.452   6.082 -0.5141 -2.4437 -1.5425
  993MOL0     H31039   4.248  10.582   6.105  0.7631  2.0896  0.6338
  993MOL0     H31040   3.897  10.637   5.873 -2.5980  1.9991 -2.7806
  993MOL0     H31041   3.663  10.616   5.908 -1.2147 -0.7797  1.7084
  993MOL0     H31042   3.501  10.908   6.217 -4.6218  1.6684 -0.8165
  993MOL0     H31043   3.514  10.761   6.318  1.9334  0.1274 -0.1997
  993MOL0     H31044   3.281  10.827   6.143  0.7092 -2.7027 -1.5537
  993MOL0     H31045   3.312  10.869   6.314  0.3309 -0.9192  0.1747
  993MOL0     H31046   3.297  10.633   6.378 -0.4247 -0.9894 -0.3374
  993MOL0     H31047   3.294  10.572   6.223 -0.5498 -2.0384  3.4640
  993MOL0     H31048   3.084  10.770   6.324  1.3175  2.5640 -3.3535
  993MOL0     H31049   3.091  10.710   6.167 -1.4025 -0.0208 -0.3089
  993MOL0     H31050   3.065  10.515   6.394  0.8312 -0.9291 -0.5445
  993MOL0     H31051   3.036  10.492   6.215 -0.7934  0.6770 -0.5684
  993MOL0     H31052   2.864  10.657   6.225 -0.0684 -2.1622 -0.1115
  993MOL0     H31053   2.889  10.669   6.404  1.9619  0.5207  0.6097
  993MOL0     H31054   2.804  10.412   6.255  0.8019  2.4776 -2.3163
  993MOL0     H31055   2.825  10.454   6.436  0.2036  0.2298  0.0759
  993MOL0     H31056   2.658  10.640   6.384  1.8302  1.6486 -2.2107
  993MOL0     H31057   2.600  10.468   6.383  0.5012  0.0943 -0.2724
  993MOL0     H31058   3.711  10.867   6.258 -2.2883 -1.3091 -1.0571
  993MOL0     H31059   3.945  10.902   6.212  0.7731  2.4975 -2.5370
  993MOL0     H31060   4.363  10.827   5.771  0.4062  0.6837  1.7885
  993MOL0     H31061   4.585  10.708   5.767 -0.0656  1.6433 -0.5836
  993MOL0     H31062   5.923   9.495   6.078 -3.0189  2.6878  2.4702
  993MOL0     H31063   6.170   9.435   6.162  0.3210 -0.1977 -0.3649
  993MOL0     H31064   6.561   9.704   6.315  0.6309  0.2844  0.0670
  993MOL0     H31065   6.808   9.709   6.373 -1.4873  1.3357  3.2171
  993MOL0     H31066   6.980   9.323   6.337  0.9347 -1.1539  0.7068
  993MOL0     H31067   7.019   9.305   6.513  1.2432  1.4066  1.1734
  993MOL0     H31068   7.215   9.328   6.351  1.3360  0.4861  2.2031
  993MOL0     H31069   7.154   9.485   6.317 -2.0459  1.6983  1.0278
  993MOL0     H31070   7.245   9.416   6.603  0.1601 -0.9131 -1.2757
  993MOL0     H31071   7.205   9.573   6.529  0.3755  0.3124  2.5094
  993MOL0     H31072   7.437   9.376   6.468  2.7848  1.3445 -0.1196
  993MOL0     H31073   7.404   9.529   6.367  0.9674  0.4135  0.4630
  993MOL0     H31074   7.620   9.627   6.723  0.3483 -4.5124  1.2102
  993MOL0     H31075   6.775   9.286   6.431 -0.0177 -0.2323  0.4457
  993MOL0     H31076   6.539   9.285   6.372  0.1018 -1.2230  0.1963
  994MOL0     O31077   8.046  10.918   7.593  0.0131 -0.0854  0.1993
  994MOL0     C31078   8.135  10.843   7.586  0.3507  0.4022  0.2361
  994MOL0     O31079   8.126  10.708   7.605  0.0546 -0.5413  0.3205
  994MOL0     C31080   8.020  10.652   7.668 -0.5349  0.4359 -0.4032
  994MOL0     C31081   7.947  10.704   7.775  0.1305 -0.2745 -0.2269
  994MOL0     C31082   7.830  10.643   7.823 -0.2813  0.7370  0.6489
  994MOL0     C31083   7.792  10.519   7.768  0.4891  0.5151  0.2707
  994MOL0     O31084   7.671  10.459   7.796 -0.3210  0.4180 -0.8468
  994MOL0     C31085   7.608  10.363   7.704  0.2807 -0.5402  0.3972
  994MOL0     C31086   7.463  10.360   7.734  0.3763  0.5045 -0.1551
  994MOL0     C31087   7.380  10.337   7.613  0.5333  0.3737  0.6414
  994MOL0     C31088   7.237  10.302   7.645 -0.2800  0.1235 -0.1342
  994MOL0     C31089   7.140  10.332   7.531  0.8103  0.2860 -0.7390
  994MOL0     C31090   7.006  10.267   7.556  0.6292 -0.2300  0.3605
  994MOL0     C31091   6.888  10.326   7.469 -0.5793 -0.1390 -0.4115
  994MOL0     C31092   6.769  10.230   7.468  0.2415 -0.1517  0.3449
  994MOL0     N31093   6.672  10.276   7.358  0.3568  0.5334 -0.1551
  994MOL0     C31094   6.563  10.351   7.381  0.5019 -0.1285  0.3934
  994MOL0     C31095   6.468  10.331   7.288  0.4963 -0.4992  0.1244
  994MOL0     C31096   6.325  10.394   7.282 -0.0601  0.6561  0.0545
  994MOL0     C31097   6.244  10.332   7.161  0.4561 -0.0979 -0.3002
  994MOL0     C31098   6.117  10.418   7.170  0.2547  0.4827 -0.4828
  994MOL0     C31099   6.005  10.349   7.099 -0.3283 -0.1770 -0.6930
  994MOL0     O31100   5.938  10.261   7.181 -0.0270 -0.2973  0.6968
  994MOL0     C31101   5.819  10.205   7.137 -0.1919  0.2158  1.0027
  994MOL0     C31102   5.757  10.121   7.231 -0.9241 -0.0079 -0.1773
  994MOL0     C31103   5.632  10.072   7.199 -0.3575 -0.1089 -0.4059
  994MOL0     C31104   5.568  10.091   7.077 -1.5901  0.9635 -0.2002
  994MOL0     C31105   5.445  10.004   7.034 -0.3172 -0.2899  0.2591
  994MOL0     O31106   5.390  10.020   6.914  0.3982  0.0974  0.9619
  994MOL0     C31107   5.278   9.968   6.886  0.3390 -0.8830  0.0226
  994MOL0     C31108   5.247   9.830   6.892 -0.7572  1.3700 -0.7698
  994MOL0     C31109   5.121   9.778   6.862  0.8394  0.8913  0.1344
  994MOL0     C31110   5.010   9.859   6.830 -0.5970 -0.6062  0.0921
  994MOL0     O31111   4.888   9.803   6.808  0.1799 -0.2530  0.7135
  994MOL0     C31112   4.787   9.892   6.764  0.5150  0.4140 -0.9530
  994MOL0     C31113   4.674   9.798   6.728 -0.4832 -0.0396 -0.1671
  994MOL0     C31114   4.548   9.883   6.708  0.2963 -0.0395 -0.0183
  994MOL0     C31115   4.426   9.803   6.680 -0.5709 -0.1007  0.4441
  994MOL0     C31116   4.295   9.874   6.649  0.0814  0.2448 -0.6784
  994MOL0     C31117   4.186   9.784   6.595 -0.5758 -0.8762  0.8207
  994MOL0     C31118   4.051   9.851   6.613 -0.1645 -0.4611  0.1232
  994MOL0     C31119   3.949   9.744   6.645  0.3250  0.1886 -0.3873
  994MOL0    Cl31120   3.939   9.618   6.520  0.0604 -0.0241  0.3240
  994MOL0     C31121   5.038   9.994   6.826 -0.4279 -0.3993 -0.1283
  994MOL0     C31122   5.166  10.052   6.865  0.2528 -0.2586 -0.5320
  994MOL0     O31123   5.411   9.922   7.120 -0.2953  0.3884  0.2968
  994MOL0     C31124   5.637  10.171   6.985  0.1464 -0.2693  1.0440
  994MOL0     C31125   5.762  10.221   7.012 -1.0447 -0.2689 -0.7865
  994MOL0     N31126   6.526  10.237   7.205  0.5374 -0.2221 -0.3186
  994MOL0     N31127   6.649  10.202   7.242 -0.2425 -0.0424  0.2084
  994MOL0     C31128   7.864  10.464   7.655  0.3299  0.2491 -0.2359
  994MOL0     C31129   7.979  10.529   7.609  0.5592 -0.4692  0.3343
  994MOL0     C31130   8.270  10.899   7.531  0.2751 -0.2153 -0.2699
  994MOL0     C31131   8.345  10.811   7.449 -0.3743 -0.0424  0.2661
  994MOL0     C31132   8.466  10.861   7.393  0.4004  0.6013 -0.7438
  994MOL0     C31133   8.512  10.985   7.420  0.0115 -0.6675  0.1369
  994MOL0     O31134   8.627  11.022   7.355 -1.2291  0.3666  0.0953
  994MOL0     C31135   8.697  11.142   7.390  0.1768 -0.1196 -0.3445
  994MOL0     C31136   8.831  11.140   7.329  0.0524  0.0720  0.4135
  994MOL0     C31137   8.907  11.271   7.342 -0.0788  0.0036 -0.2574
  994MOL0     C31138   9.055  11.256   7.298  0.3710  0.1389  0.6396
  994MOL0     C31139   9.127  11.381   7.333 -1.1261 -0.1466  0.1051
  994MOL0     C31140   9.177  11.493   7.349 -0.7724  0.0025 -0.9817
  994MOL0     C31141   8.433  11.076   7.504  0.0697 -0.4473 -0.6289
  994MOL0     C31142   8.314  11.028   7.548  0.5159  1.6680 -0.5192
  994MOL0     H31143   7.977  10.800   7.816  0.6961  0.0746 -1.4182
  994MOL0     H31144   7.774  10.694   7.901 -1.9893 -0.4736  0.2651
  994MOL0     H31145   7.654  10.265   7.722  0.1274 -0.5305  0.8420
  994MOL0     H31146   7.618  10.380   7.596 -2.7287  0.4646  0.1688
  994MOL0     H31147   7.437  10.458   7.775  2.9242  0.4030  1.9764
  994MOL0     H31148   7.432  10.290   7.812 -0.6912 -0.8836 -1.7491
  994MOL0     H31149   7.413  10.255   7.548 -0.0063  0.8490 -0.2504
  994MOL0     H31150   7.380  10.434   7.562  1.9207  0.0774  0.0326
  994MOL0     H31151   7.238  10.196   7.670  3.0296 -0.0156 -0.3125
  994MOL0     H31152   7.203  10.358   7.733 -1.2488  1.7672 -1.4945
  994MOL0     H31153   7.182  10.275   7.447 -0.7334  0.0998 -1.4135
  994MOL0     H31154   7.147  10.438   7.505  1.0389  0.2013 -1.0339
  994MOL0     H31155   6.984  10.267   7.663  0.1932 -3.0341  0.3333
  994MOL0     H31156   7.011  10.159   7.547 -1.6979 -0.5934  2.3697
  994MOL0     H31157   6.865  10.422   7.515  1.2953  0.0118  0.3088
  994MOL0     H31158   6.926  10.352   7.370  1.4996  1.1404  0.6397
  994MOL0     H31159   6.719  10.219   7.565  2.1186  1.0071  1.5069
  994MOL0     H31160   6.808  10.132   7.441 -1.4837 -0.5792 -0.7529
  994MOL0     H31161   6.557  10.412   7.470 -0.4089 -0.1264  0.3416
  994MOL0     H31162   6.326  10.501   7.259 -0.8310  0.4989 -0.7839
  994MOL0     H31163   6.264  10.369   7.369 -2.3523 -1.3029 -1.9790
  994MOL0     H31164   6.227  10.228   7.188  1.6688 -0.7117 -1.7862
  994MOL0     H31165   6.307  10.341   7.073 -0.6882 -0.6485 -1.2093
  994MOL0     H31166   6.082  10.436   7.272  1.3670 -2.3152  0.4894
  994MOL0     H31167   6.143  10.514   7.124  0.0290  0.0978 -1.4283
  994MOL0     H31168   6.048  10.302   7.010  1.8726  1.2460 -0.4542
  994MOL0     H31169   5.936  10.430   7.071 -0.6705 -0.7036 -1.3923
  994MOL0     H31170   5.806  10.096   7.325 -2.5076 -1.6141  0.2853
  994MOL0     H31171   5.583  10.007   7.270  0.4262  0.7324  0.9601
  994MOL0     H31172   5.323   9.756   6.917  0.2137  1.4826 -3.1239
  994MOL0     H31173   5.107   9.671   6.849 -0.3907  1.1130 -0.5179
  994MOL0     H31174   4.825   9.961   6.689 -1.9011  2.6337 -0.2996
  994MOL0     H31175   4.751   9.950   6.850 -1.6469  1.7232 -2.6287
  994MOL0     H31176   4.657   9.732   6.813 -2.5269 -0.5652 -0.9111
  994MOL0     H31177   4.682   9.741   6.635 -3.3957 -2.0846  0.6661
  994MOL0     H31178   4.561   9.955   6.626 -1.0042 -1.4822 -1.5730
  994MOL0     H31179   4.521   9.936   6.799  0.8393 -1.1060  0.7904
  994MOL0     H31180   4.449   9.745   6.591  2.2513  0.9164  0.3890
  994MOL0     H31181   4.412   9.736   6.766 -2.1344 -1.2105 -0.6220
  994MOL0     H31182   4.316   9.956   6.579  2.7511  1.3661  1.2817
  994MOL0     H31183   4.258   9.929   6.736 -2.9978  0.7830 -2.1746
  994MOL0     H31184   4.190   9.685   6.641  1.0105 -1.3014 -0.1495
  994MOL0     H31185   4.206   9.763   6.490  1.3828 -0.0835  0.9852
  994MOL0     H31186   4.050   9.926   6.693 -1.6903 -0.1960 -0.1206
  994MOL0     H31187   4.018   9.901   6.521 -1.0642 -0.2755  0.5327
  994MOL0     H31188   3.856   9.795   6.672  0.8218  0.5839  0.6270
  994MOL0     H31189   3.981   9.685   6.731  1.3338 -1.8642 -2.0965
  994MOL0     H31190   4.963  10.065   6.793  0.2027  1.0342  1.3683
  994MOL0     H31191   5.171  10.161   6.864 -1.7438 -0.0592  1.9411
  994MOL0     H31192   5.593  10.180   6.886  0.6878 -1.8280  0.6349
  994MOL0     H31193   5.808  10.289   6.942  1.3703 -1.0542 -0.0577
  994MOL0     H31194   7.849  10.361   7.623  0.9152  0.3217 -0.7565
  994MOL0     H31195   8.035  10.499   7.521  0.6379 -1.4602  0.7141
  994MOL0     H31196   8.323  10.706   7.434  0.1862 -0.2412  0.8129
  994MOL0     H31197   8.530  10.801   7.328  1.2118 -0.2219  0.7492
  994MOL0     H31198   8.708  11.148   7.499 -1.8483  3.0156 -0.1886
  994MOL0     H31199   8.640  11.228   7.355 -0.4803 -1.1294 -1.8928
  994MOL0     H31200   8.888  11.064   7.384 -1.4413 -2.1871 -1.0154
  994MOL0     H31201   8.834  11.113   7.223  2.0955  2.0193 -0.0848
  994MOL0     H31202   8.907  11.306   7.446 -1.5725 -0.7922  0.0369
  994MOL0     H31203   8.864  11.355   7.287  2.1561 -0.1431 -2.3598
  994MOL0     H31204   9.104  11.181   7.360  1.4716  0.3880  0.0957
  994MOL0     H31205   9.064  11.231   7.191  1.3658  0.6900  0.5816
  994MOL0     H31206   9.222  11.588   7.368 -1.2355  0.0586 -0.0961
  994MOL0     H31207   8.456  11.182   7.510  1.6170 -0.7939 -0.1392
  994MOL0     H31208   8.253  11.097   7.606 -1.8756 -1.8939  1.5215
  995MOL0     O31209   7.102   6.496   0.850  0.3797  0.1763 -0.0337
  995MOL0     C31210   7.095   6.555   0.744  0.8195 -0.6864  0.4768
  995MOL0     O31211   6.975   6.583   0.674 -0.5042 -0.2733  0.3143
  995MOL0     C31212   6.853   6.553   0.730  0.3834  0.2558  0.3340
  995MOL0     C31213   6.754   6.652   0.711 -0.1415  0.4916  0.0440
  995MOL0     C31214   6.624   6.631   0.755  0.2844 -0.1090 -0.0792
  995MOL0     C31215   6.588   6.508   0.813  0.6342 -0.6667  0.4500
  995MOL0     O31216   6.459   6.505   0.862 -0.1964 -0.1688  0.0385
  995MOL0     C31217   6.381   6.389   0.828  0.1653 -0.1091 -0.2807
  995MOL0     C31218   6.238   6.408   0.875 -0.5901  0.6707 -0.8356
  995MOL0     C31219   6.149   6.292   0.821  0.6486  0.2387  0.5884
  995MOL0     C31220   6.143   6.295   0.660 -0.0231  0.8317  0.0097
  995MOL0     C31221   6.021   6.213   0.615 -0.0322  0.1057  0.0269
  995MOL0     C31222   6.044   6.062   0.645  0.4778  0.1704  0.2022
  995MOL0     C31223   5.922   5.975   0.614  0.5859 -0.3932  0.0821
  995MOL0     C31224   5.936   5.828   0.657  0.2559  0.1653 -0.3520
  995MOL0     N31225   5.807   5.764   0.652 -0.1043  0.0443  0.1085
  995MOL0     C31226   5.778   5.663   0.561  0.0863 -0.5008 -0.2619
  995MOL0     C31227   5.672   5.604   0.613  0.3836 -0.2125  0.5185
  995MOL0     C31228   5.621   5.468   0.569  0.2909 -0.8518 -0.1289
  995MOL0     C31229   5.471   5.476   0.522  0.1347 -0.0927 -0.1146
  995MOL0     C31230   5.375   5.518   0.636 -0.8694 -0.1410 -0.3896
  995MOL0     C31231   5.224   5.519   0.609 -1.5709  0.6714 -0.1021
  995MOL0     O31232   5.153   5.565   0.724 -0.1345  0.3787  0.0137
  995MOL0     C31233   5.018   5.555   0.729 -0.5679 -0.0860  0.0771
  995MOL0     C31234   4.929   5.501   0.635 -0.8281  0.0235  0.2904
  995MOL0     C31235   4.797   5.504   0.651  0.6066 -0.1281  0.8342
  995MOL0     C31236   4.736   5.548   0.766  0.1644 -0.9273  0.7116
  995MOL0     C31237   4.593   5.542   0.773 -0.0813 -0.3220  0.2826
  995MOL0     O31238   4.518   5.540   0.657 -0.0127  0.6404 -0.2950
  995MOL0     C31239   4.381   5.555   0.646  0.3746 -0.7028 -0.3179
  995MOL0     C31240   4.286   5.513   0.738 -0.8596 -0.3431  0.0310
  995MOL0     C31241   4.146   5.534   0.720  0.1395  0.5290  0.7487
  995MOL0     C31242   4.101   5.581   0.588 -0.7076  0.0949  0.2099
  995MOL0     O31243   3.972   5.607   0.552 -0.0625  0.5403 -0.5237
  995MOL0     C31244   3.870   5.573   0.645 -0.7078 -0.7989 -0.5544
  995MOL0     C31245   3.735   5.574   0.584 -0.1907 -0.1478 -0.8020
  995MOL0     C31246   3.634   5.526   0.700  0.3216 -0.2289 -0.0447
  995MOL0     C31247   3.495   5.576   0.652  0.2290 -0.5308 -0.2784
  995MOL0     C31248   3.381   5.535   0.754 -0.6270 -0.2591 -0.4030
  995MOL0     C31249   3.383   5.632   0.881  0.4459 -0.2396  0.1446
  995MOL0     C31250   3.332   5.574   1.009 -0.0808  0.3187 -0.1546
  995MOL0     C31251   3.196   5.635   1.044  0.3936 -0.1923 -0.2491
  995MOL0    Cl31252   3.069   5.615   0.928  0.3766 -0.0431 -0.0864
  995MOL0     C31253   4.199   5.598   0.489  0.0911 -0.3976 -0.2979
  995MOL0     C31254   4.335   5.581   0.515 -0.9208 -0.6878 -0.9873
  995MOL0     O31255   4.549   5.548   0.888  0.4067  0.0043 -0.4373
  995MOL0     C31256   4.825   5.599   0.864 -0.2881  0.4984  0.1195
  995MOL0     C31257   4.962   5.621   0.844  0.0926  0.3236  0.2480
  995MOL0     N31258   5.633   5.668   0.727  0.2010 -0.0348  1.0503
  995MOL0     N31259   5.715   5.761   0.753 -0.4947 -0.4405  0.2950
  995MOL0     C31260   6.690   6.410   0.835 -0.4617  0.2653 -0.5426
  995MOL0     C31261   6.818   6.431   0.784  0.3267  0.2361  0.4428
  995MOL0     C31262   7.217   6.587   0.687 -0.5297 -0.7119  0.5339
  995MOL0     C31263   7.218   6.626   0.554  0.0673 -0.1175  0.1766
  995MOL0     C31264   7.341   6.652   0.496 -0.6453 -0.4880  0.5887
  995MOL0     C31265   7.465   6.649   0.567  0.6460 -0.0746  0.9074
  995MOL0     O31266   7.582   6.668   0.494  0.0851  0.1839  0.5579
  995MOL0     C31267   7.614   6.556   0.410  0.1464  0.1197 -0.2005
  995MOL0     C31268   7.707   6.458   0.475 -0.4033  0.3660 -0.5909
  995MOL0     C31269   7.836   6.525   0.527  0.5778  0.9457  0.3559
  995MOL0     C31270   7.935   6.417   0.578  0.2508  0.4907  0.3201
  995MOL0     C31271   8.037   6.481   0.662 -0.1014  1.5440  0.2685
  995MOL0     C31272   8.116   6.529   0.738  0.5271 -0.7573  0.3537
  995MOL0     C31273   7.462   6.606   0.705  0.2402  0.5668  0.3752
  995MOL0     C31274   7.334   6.581   0.766 -0.5474 -0.0694 -0.3747
  995MOL0     H31275   6.775   6.745   0.659 -5.1281  1.9557  0.1447
  995MOL0     H31276   6.542   6.700   0.739  0.9459  0.7749  0.2103
  995MOL0     H31277   6.430   6.301   0.869  0.0715  0.5243  1.2710
  995MOL0     H31278   6.401   6.386   0.720  4.1282  0.0014  0.3193
  995MOL0     H31279   6.201   6.503   0.838 -0.0468  2.5824  3.0095
  995MOL0     H31280   6.230   6.411   0.984 -2.3110  0.2688 -0.9176
  995MOL0     H31281   6.045   6.300   0.855  0.7708  0.4108  0.9330
  995MOL0     H31282   6.192   6.201   0.863  0.7863  0.4394  0.8913
  995MOL0     H31283   6.146   6.398   0.625  1.7396  0.3469 -1.4362
  995MOL0     H31284   6.234   6.239   0.636 -2.9818 -2.9822 -3.8943
  995MOL0     H31285   5.993   6.235   0.511  0.0759 -0.7576 -0.1918
  995MOL0     H31286   5.938   6.249   0.676  0.1318  1.0301 -0.2825
  995MOL0     H31287   6.077   6.048   0.748  1.7160 -0.6324 -0.2804
  995MOL0     H31288   6.121   6.015   0.583  0.5075 -0.7431  0.9126
  995MOL0     H31289   5.830   6.020   0.652  1.0448 -0.2437  1.0744
  995MOL0     H31290   5.912   5.971   0.506 -0.8742  3.0443 -0.0224
  995MOL0     H31291   5.962   5.833   0.763  0.3346  1.3000 -0.4147
  995MOL0     H31292   6.006   5.765   0.602 -0.8223  1.1460 -2.9818
  995MOL0     H31293   5.826   5.621   0.473  0.9001 -2.9096  1.2327
  995MOL0     H31294   5.616   5.399   0.654  2.1979  0.7287  1.3526
  995MOL0     H31295   5.676   5.433   0.481 -0.1761  0.1747 -0.8493
  995MOL0     H31296   5.449   5.373   0.493 -0.3010  0.9524 -3.9609
  995MOL0     H31297   5.466   5.545   0.438 -1.7256  0.8572  0.7139
  995MOL0     H31298   5.400   5.457   0.724  2.3628 -0.0189 -1.0777
  995MOL0     H31299   5.404   5.619   0.664  1.0615 -0.9473  0.7617
  995MOL0     H31300   5.187   5.420   0.580 -2.2856  0.4634  1.4501
  995MOL0     H31301   5.213   5.582   0.520  2.5630 -1.2913 -2.3294
  995MOL0     H31302   4.962   5.470   0.537 -0.8511  2.2786 -0.4834
  995MOL0     H31303   4.745   5.460   0.566  2.5465  0.1872 -0.5647
  995MOL0     H31304   4.316   5.467   0.832 -0.9795 -0.0493  0.2151
  995MOL0     H31305   4.089   5.500   0.806 -1.4501 -1.6635 -1.0688
  995MOL0     H31306   3.865   5.653   0.719  1.3463 -0.7410 -0.4278
  995MOL0     H31307   3.881   5.474   0.688 -2.7911 -0.7908  0.1169
  995MOL0     H31308   3.732   5.509   0.496  0.6921  0.4719 -1.3082
  995MOL0     H31309   3.700   5.674   0.555 -0.8657  0.4213  1.7140
  995MOL0     H31310   3.660   5.574   0.795 -0.8677  1.3244 -0.4632
  995MOL0     H31311   3.636   5.417   0.711  0.2757 -0.2884 -0.6052
  995MOL0     H31312   3.506   5.683   0.633  1.1196 -0.8722 -1.7906
  995MOL0     H31313   3.462   5.539   0.554 -1.1490  1.3932 -0.5908
  995MOL0     H31314   3.405   5.434   0.787 -0.5815  0.4078  1.8448
  995MOL0     H31315   3.284   5.525   0.705 -0.9693 -1.2598  0.4469
  995MOL0     H31316   3.343   5.729   0.851 -0.1246 -0.4389  0.2512
  995MOL0     H31317   3.486   5.660   0.908  0.0013  3.2651 -1.2876
  995MOL0     H31318   3.335   5.465   1.012  1.0678  0.1658  5.6816
  995MOL0     H31319   3.395   5.601   1.094  2.2767  0.1575 -1.7483
  995MOL0     H31320   3.208   5.743   1.057 -0.7838 -0.1330  0.5511
  995MOL0     H31321   3.166   5.593   1.141  2.1673 -1.8225 -0.3498
  995MOL0     H31322   4.166   5.634   0.392 -2.6857  0.8345  0.9985
  995MOL0     H31323   4.410   5.596   0.438 -1.9782 -0.8542 -2.0849
  995MOL0     H31324   4.782   5.626   0.960  0.3154  1.6116  0.0935
  995MOL0     H31325   5.031   5.669   0.913  1.6052 -2.4204  0.7936
  995MOL0     H31326   6.665   6.314   0.879  0.7294 -0.7366 -1.9341
  995MOL0     H31327   6.889   6.350   0.789  1.7496  1.4268  0.0529
  995MOL0     H31328   7.126   6.628   0.496  0.0430 -0.3168  0.2062
  995MOL0     H31329   7.337   6.677   0.391  0.3624  1.6218  1.0034
  995MOL0     H31330   7.647   6.579   0.309 -1.9375 -2.1856 -1.5134
  995MOL0     H31331   7.519   6.504   0.394  0.8994 -0.7046 -2.2484
  995MOL0     H31332   7.649   6.424   0.561  2.0213 -3.8906 -0.3632
  995MOL0     H31333   7.726   6.377   0.404 -1.6877 -0.8042  0.3520
  995MOL0     H31334   7.808   6.599   0.602  1.4901  2.0662 -0.3872
  995MOL0     H31335   7.882   6.587   0.450 -0.5349  2.1144  0.6039
  995MOL0     H31336   7.885   6.339   0.636  0.5518 -1.8073 -2.3398
  995MOL0     H31337   7.975   6.375   0.486 -4.8268  1.8568 -2.8797
  995MOL0     H31338   8.183   6.560   0.816  0.4056 -2.1790  1.0576
  995MOL0     H31339   7.553   6.585   0.759 -2.1701 -0.7541  4.3815
  995MOL0     H31340   7.328   6.559   0.872  0.1948 -0.6156 -0.4306
  996MOL0     O31341   6.749  11.119   7.430  0.2212 -0.2634  0.4661
  996MOL0     C31342   6.773  11.225   7.373  0.5102 -0.1565  0.1492
  996MOL0     O31343   6.700  11.337   7.374  0.0901  0.3650 -0.3894
  996MOL0     C31344   6.569  11.356   7.411  0.3489  0.7225 -0.3922
  996MOL0     C31345   6.514  11.485   7.426  0.3368 -0.5642  0.0646
  996MOL0     C31346   6.386  11.502   7.487 -0.5667 -0.1370 -0.6228
  996MOL0     C31347   6.308  11.396   7.531 -0.6153 -1.0114 -1.0406
  996MOL0     O31348   6.183  11.397   7.597 -0.7189 -0.2756  0.2316
  996MOL0     C31349   6.137  11.520   7.656 -0.1415 -0.1887  0.6093
  996MOL0     C31350   5.982  11.498   7.690  0.2261  0.5667  0.6416
  996MOL0     C31351   5.890  11.581   7.598  1.1807  0.6002  0.5651
  996MOL0     C31352   5.744  11.543   7.618 -0.6872 -0.2159 -0.3746
  996MOL0     C31353   5.654  11.633   7.528  0.1763 -1.0627  0.3581
  996MOL0     C31354   5.603  11.757   7.604  0.5276 -0.0039  0.5982
  996MOL0     C31355   5.519  11.844   7.510  1.0105 -0.5035 -0.0797
  996MOL0     C31356   5.379  11.784   7.478 -0.1069  1.1445 -0.6218
  996MOL0     N31357   5.277  11.878   7.528 -0.5432  0.7088 -0.3033
  996MOL0     C31358   5.264  12.010   7.498  0.6458  0.1848  0.0641
  996MOL0     C31359   5.171  12.059   7.587  1.3475 -0.9470  0.3880
  996MOL0     C31360   5.123  12.199   7.592 -0.5665 -0.1874  0.2720
  996MOL0     C31361   5.014  12.256   7.499 -0.1652  0.4810  0.4466
  996MOL0     C31362   4.993  12.400   7.518  0.1206  0.1363 -0.2047
  996MOL0     C31363   4.887  12.455   7.419 -0.9313  0.3462 -0.1323
  996MOL0     O31364   4.761  12.400   7.452 -0.3624  0.1608 -0.2927
  996MOL0     C31365   4.651  12.450   7.393 -0.3283 -1.1504  0.6154
  996MOL0     C31366   4.630  12.522   7.276  0.0131 -0.7680  0.1213
  996MOL0     C31367   4.510  12.543   7.201  0.5929  0.3235 -0.0649
  996MOL0     C31368   4.400  12.476   7.251  0.2925 -0.6782 -0.3811
  996MOL0     C31369   4.267  12.485   7.195  1.3352  0.7391 -0.2487
  996MOL0     O31370   4.158  12.398   7.255  0.0519 -0.1587  0.7458
  996MOL0     C31371   4.024  12.411   7.217 -0.4669  0.4297 -0.6047
  996MOL0     C31372   3.976  12.465   7.094 -0.1143  0.6786  0.1651
  996MOL0     C31373   3.836  12.471   7.070  0.3668 -0.2461 -0.0866
  996MOL0     C31374   3.741  12.424   7.158  0.4343 -0.3110 -0.5671
  996MOL0     O31375   3.611  12.422   7.112 -0.3238 -0.3956  0.1157
  996MOL0     C31376   3.496  12.440   7.205 -0.4897  0.2349 -0.5146
  996MOL0     C31377   3.368  12.442   7.127  0.4491 -0.3311  0.1658
  996MOL0     C31378   3.251  12.450   7.234  0.1785  0.3019 -0.1904
  996MOL0     C31379   3.125  12.423   7.159  0.0431  0.8028  0.5200
  996MOL0     C31380   3.005  12.493   7.241  0.2021 -0.0330  0.2247
  996MOL0     C31381   2.868  12.450   7.184  0.0798 -0.2055  0.9861
  996MOL0     C31382   2.838  12.304   7.215  0.4794 -0.2359 -0.1929
  996MOL0     C31383   2.719  12.286   7.307  0.4877 -0.0385  0.3215
  996MOL0    Cl31384   2.584  12.318   7.201 -0.2784  0.3953 -0.2186
  996MOL0     C31385   3.787  12.389   7.286  0.9547 -0.1627  0.7660
  996MOL0     C31386   3.922  12.368   7.306  0.1622  0.6988 -0.6036
  996MOL0     O31387   4.243  12.573   7.123 -0.4339  0.5932  0.0698
  996MOL0     C31388   4.412  12.405   7.369 -0.2373 -0.0285 -0.5258
  996MOL0     C31389   4.529  12.399   7.444 -0.1235 -0.3791  0.3900
  996MOL0     N31390   5.133  11.955   7.669  0.7336  0.9607  0.5861
  996MOL0     N31391   5.190  11.851   7.631 -0.3736 -0.1835 -0.3519
  996MOL0     C31392   6.349  11.273   7.490 -0.9926 -0.0723 -0.5196
  996MOL0     C31393   6.475  11.250   7.426  0.2174 -1.7353  0.3718
  996MOL0     C31394   6.904  11.243   7.303 -0.1228  0.8852 -0.4762
  996MOL0     C31395   6.948  11.368   7.245  0.6241 -0.3941  0.3364
  996MOL0     C31396   7.077  11.379   7.191 -1.1543  0.1817  0.3964
  996MOL0     C31397   7.159  11.269   7.189 -0.1154  0.6177 -0.0283
  996MOL0     O31398   7.281  11.294   7.115  0.1433  0.2582  0.2344
  996MOL0     C31399   7.368  11.184   7.089 -0.1212 -0.4806 -0.3591
  996MOL0     C31400   7.322  11.101   6.973 -0.1724  0.0375  0.3205
  996MOL0     C31401   7.423  10.981   6.965 -0.2398  0.7722  0.9545
  996MOL0     C31402   7.381  10.889   6.840  0.7906 -0.4506 -1.5553
  996MOL0     C31403   7.464  10.772   6.832  0.3582  0.1159  0.2614
  996MOL0     C31404   7.543  10.679   6.826  0.5068 -1.0878  0.0994
  996MOL0     C31405   7.120  11.151   7.243 -0.5350 -0.8501  0.5678
  996MOL0     C31406   6.994  11.139   7.306 -0.2813 -0.0588  0.6361
  996MOL0     H31407   6.580  11.565   7.394 -0.1565 -0.4925 -0.8259
  996MOL0     H31408   6.360  11.607   7.498 -0.4486  0.0580 -2.0472
  996MOL0     H31409   6.145  11.602   7.584 -2.2091 -0.3105  0.1763
  996MOL0     H31410   6.193  11.542   7.748  1.2974 -1.4123  0.0665
  996MOL0     H31411   5.954  11.530   7.791 -0.1730  0.0950  0.6809
  996MOL0     H31412   5.963  11.391   7.700  0.8613  0.4703  0.8892
  996MOL0     H31413   5.925  11.574   7.494  0.4812  0.3332  0.3445
  996MOL0     H31414   5.902  11.686   7.627 -0.4575  1.2619 -0.9699
  996MOL0     H31415   5.737  11.438   7.589  1.2259 -0.6888  0.6584
  996MOL0     H31416   5.721  11.544   7.725  0.7963 -0.0810 -0.0266
  996MOL0     H31417   5.574  11.564   7.501 -1.7116  0.6577  1.3081
  996MOL0     H31418   5.709  11.654   7.436 -1.5008  0.9188 -0.2596
  996MOL0     H31419   5.684  11.825   7.629  1.7724 -0.5664 -1.6568
  996MOL0     H31420   5.553  11.732   7.699 -0.1568  0.4643  0.3711
  996MOL0     H31421   5.518  11.942   7.558  0.1121 -1.8143  2.7805
  996MOL0     H31422   5.569  11.852   7.413  5.3099 -0.3597  1.9308
  996MOL0     H31423   5.369  11.687   7.526  0.3821  0.3818 -2.0099
  996MOL0     H31424   5.365  11.762   7.372 -1.0759  2.4510 -0.7902
  996MOL0     H31425   5.311  12.076   7.425 -2.6985  2.2876 -0.4131
  996MOL0     H31426   5.203  12.271   7.574 -1.3079  0.5918  0.0247
  996MOL0     H31427   5.088  12.214   7.695  2.0152  0.6731  1.0802
  996MOL0     H31428   4.916  12.208   7.507 -1.7554  3.5803  1.2157
  996MOL0     H31429   5.054  12.240   7.399  0.2524 -0.0745  0.6904
  996MOL0     H31430   4.976  12.419   7.625 -0.9049 -1.8608  0.0215
  996MOL0     H31431   5.093  12.439   7.496  0.3447 -0.3070  0.0107
  996MOL0     H31432   4.902  12.417   7.318 -0.4298 -3.3060  1.1286
  996MOL0     H31433   4.886  12.562   7.437 -2.8635 -0.0084  2.4571
  996MOL0     H31434   4.725  12.545   7.230 -0.8528  3.3654 -0.0069
  996MOL0     H31435   4.513  12.582   7.100  1.1502 -2.0694 -1.0462
  996MOL0     H31436   4.039  12.509   7.018 -1.6798  1.0946 -0.9552
  996MOL0     H31437   3.803  12.523   6.981 -2.1863  0.1594  1.0243
  996MOL0     H31438   3.515  12.532   7.261 -3.2014  0.0819  0.8230
  996MOL0     H31439   3.492  12.363   7.282 -1.4496  1.8430  1.1343
  996MOL0     H31440   3.370  12.361   7.053  4.6068  2.2834 -3.0826
  996MOL0     H31441   3.373  12.539   7.076 -0.0242 -0.7134 -0.6204
  996MOL0     H31442   3.249  12.550   7.278 -0.0342  0.4495 -0.5405
  996MOL0     H31443   3.264  12.369   7.307  0.2935  1.1190  0.7156
  996MOL0     H31444   3.131  12.451   7.053  2.7531  0.5830  0.5365
  996MOL0     H31445   3.109  12.315   7.146 -2.5378  1.2567 -0.6495
  996MOL0     H31446   3.015  12.601   7.228  0.3926  0.2112  2.1360
  996MOL0     H31447   3.010  12.471   7.348 -4.4207 -2.8707  0.1308
  996MOL0     H31448   2.879  12.458   7.075  0.6416  0.9400  1.1122
  996MOL0     H31449   2.784  12.516   7.202 -0.3688 -0.7574  0.9579
  996MOL0     H31450   2.821  12.236   7.131 -2.4936 -3.6467  2.8307
  996MOL0     H31451   2.922  12.256   7.267 -0.5124  0.8060  2.5907
  996MOL0     H31452   2.722  12.366   7.382  0.1723  2.6985 -2.3968
  996MOL0     H31453   2.725  12.190   7.359 -0.8135 -1.0313 -1.2818
  996MOL0     H31454   3.721  12.340   7.356 -0.7632  0.7264 -0.1650
  996MOL0     H31455   3.951  12.329   7.403  2.6624  0.9404 -1.1819
  996MOL0     H31456   4.331  12.348   7.414 -1.5755  2.5690  0.5955
  996MOL0     H31457   4.540  12.339   7.534  1.6601  0.0561  0.5056
  996MOL0     H31458   6.300  11.178   7.511  1.8023 -2.1796 -2.5800
  996MOL0     H31459   6.506  11.148   7.405  1.7948 -1.4693  1.2294
  996MOL0     H31460   6.878  11.451   7.241 -0.2416 -1.1235 -3.3030
  996MOL0     H31461   7.108  11.470   7.143 -2.0745  0.8396  1.0125
  996MOL0     H31462   7.377  11.113   7.172 -1.6375  0.7511  0.9088
  996MOL0     H31463   7.470  11.213   7.062 -1.0005  3.1554 -0.2230
  996MOL0     H31464   7.226  11.055   6.996  1.0374 -3.2841 -0.7187
  996MOL0     H31465   7.321  11.166   6.885 -0.8669 -1.0659 -0.5008
  996MOL0     H31466   7.408  10.912   7.049 -1.7062 -3.3404 -2.3177
  996MOL0     H31467   7.525  11.016   6.943 -0.1618  0.4714  0.8244
  996MOL0     H31468   7.283  10.842   6.851 -0.0066  0.8713 -2.7009
  996MOL0     H31469   7.382  10.946   6.746  1.1032 -1.9068 -2.4701
  996MOL0     H31470   7.622  10.606   6.829  0.2218 -1.6174 -2.6291
  996MOL0     H31471   7.191  11.069   7.250  1.3575  0.7781  1.1937
  996MOL0     H31472   6.968  11.041   7.343  1.6220 -0.3271  1.3827
  997MOL0     O31473  10.657   1.602   4.030 -0.5799 -0.5819  0.3196
  997MOL0     C31474  10.658   1.483   4.064  0.3252  0.1197  0.4174
  997MOL0     O31475  10.546   1.408   4.065  0.5754  0.1301 -0.1123
  997MOL0     C31476  10.425   1.449   4.014 -0.2668  0.8681  0.0699
  997MOL0     C31477  10.310   1.405   4.069  0.6920  0.3142 -0.0538
  997MOL0     C31478  10.182   1.445   4.021 -0.1901 -1.1823  0.7618
  997MOL0     C31479  10.172   1.530   3.903  0.4174 -0.6899 -0.2063
  997MOL0     O31480  10.054   1.564   3.837  0.8707  0.4144  0.0255
  997MOL0     C31481   9.930   1.559   3.922 -0.3225 -0.7622 -0.0825
  997MOL0     C31482   9.821   1.646   3.855 -0.3001  0.0420  0.2132
  997MOL0     C31483   9.688   1.608   3.911  0.4414 -0.3207  0.3401
  997MOL0     C31484   9.567   1.654   3.825 -0.2524  0.3728 -0.2597
  997MOL0     C31485   9.442   1.660   3.910  0.2022  0.1075 -0.6206
  997MOL0     C31486   9.326   1.687   3.814  0.2499  0.4907 -0.8623
  997MOL0     C31487   9.280   1.571   3.719  0.9445 -0.0680  1.0864
  997MOL0     C31488   9.143   1.608   3.656 -0.6995 -0.1341  0.2409
  997MOL0     N31489   9.162   1.718   3.553 -0.4577 -0.9848  0.1072
  997MOL0     C31490   9.206   1.690   3.433 -0.1495  0.8309  0.1558
  997MOL0     C31491   9.209   1.812   3.372  0.8450  0.1089  0.2687
  997MOL0     C31492   9.226   1.841   3.225 -0.6026  0.2549 -0.6092
  997MOL0     C31493   9.100   1.813   3.143 -0.1107 -0.4502 -0.3324
  997MOL0     C31494   8.981   1.905   3.171 -0.7517  0.7399  0.0434
  997MOL0     C31495   9.008   2.061   3.139 -0.2232  0.6263  0.4833
  997MOL0     O31496   8.891   2.139   3.118 -0.4405  0.0760 -0.9362
  997MOL0     C31497   8.802   2.144   3.009 -0.2857 -0.5092 -0.1786
  997MOL0     C31498   8.822   2.080   2.888  0.1979  0.7874 -0.1070
  997MOL0     C31499   8.735   2.100   2.771 -0.6719 -0.3392 -0.0048
  997MOL0     C31500   8.631   2.177   2.782  0.1544 -0.5546  0.9294
  997MOL0     C31501   8.543   2.218   2.671  0.4054 -0.1201  0.3338
  997MOL0     O31502   8.439   2.298   2.696 -0.2986  0.1323  0.1455
  997MOL0     C31503   8.342   2.317   2.599 -0.3604 -0.0943  0.5318
  997MOL0     C31504   8.210   2.258   2.615 -0.2761  0.4264  0.8270
  997MOL0     C31505   8.111   2.270   2.511 -1.0081  0.3585  0.0146
  997MOL0     C31506   8.144   2.346   2.392  0.3888  0.3412 -0.5216
  997MOL0     O31507   8.058   2.348   2.289  0.4121 -0.3551  0.8094
  997MOL0     C31508   8.108   2.386   2.164 -0.8379  0.3171  0.3309
  997MOL0     C31509   7.996   2.343   2.067  0.0958 -0.4428 -0.6350
  997MOL0     C31510   7.954   2.193   2.076 -0.2966  0.0157 -0.3508
  997MOL0     C31511   7.845   2.150   1.975  1.1406 -0.7752  0.2159
  997MOL0     C31512   7.792   2.008   1.993  0.3567  1.0950  0.2032
  997MOL0     C31513   7.696   1.958   1.891 -0.2738  0.3419  0.0325
  997MOL0     C31514   7.638   1.818   1.925  1.2281 -0.0016 -0.5296
  997MOL0     C31515   7.741   1.709   1.912 -0.5965 -0.1680 -0.6895
  997MOL0    Cl31516   7.649   1.570   1.953 -0.4011 -0.1484 -0.4467
  997MOL0     C31517   8.271   2.419   2.394 -0.3624  0.0883  0.8267
  997MOL0     C31518   8.368   2.391   2.484  0.8092 -0.0299  0.1353
  997MOL0     O31519   8.575   2.175   2.562  0.4709  0.0194  0.1341
  997MOL0     C31520   8.604   2.237   2.908 -0.2775  0.6662 -0.3214
  997MOL0     C31521   8.693   2.223   3.016  0.8362  0.7819  0.4688
  997MOL0     N31522   9.162   1.906   3.464  0.1858  0.3231 -0.3272
  997MOL0     N31523   9.132   1.850   3.573  0.6850 -0.2766  0.1504
  997MOL0     C31524  10.287   1.577   3.854  0.0972 -0.3548  0.0092
  997MOL0     C31525  10.410   1.542   3.906 -0.6020  0.8999  0.2831
  997MOL0     C31526  10.779   1.426   4.115  0.9009 -0.3557 -0.4196
  997MOL0     C31527  10.793   1.287   4.128  0.0379  0.2150 -1.1639
  997MOL0     C31528  10.907   1.221   4.188 -0.0463 -0.3192  0.0272
  997MOL0     C31529  11.005   1.307   4.235 -0.1318 -0.4981 -0.1338
  997MOL0     O31530  11.108   1.257   4.318  0.2265  1.0519  0.4029
  997MOL0     C31531  11.193   1.344   4.391 -0.4589  1.5896  0.5627
  997MOL0     C31532  11.297   1.262   4.449  0.2011  0.2830  0.6549
  997MOL0     C31533  11.364   1.339   4.565 -0.6196  0.0991 -0.5947
  997MOL0     C31534  11.484   1.250   4.628  0.1972 -0.5346 -0.3546
  997MOL0     C31535  11.429   1.141   4.706 -0.1736 -0.5333  0.5350
  997MOL0     C31536  11.380   1.054   4.771  1.4503  0.3008  0.2514
  997MOL0     C31537  11.005   1.447   4.209  0.0935  0.5814  0.7271
  997MOL0     C31538  10.894   1.501   4.143 -0.0055  0.0211 -0.2506
  997MOL0     H31539  10.313   1.340   4.156  2.0807  1.7307  1.0213
  997MOL0     H31540  10.093   1.403   4.066  0.7877 -1.5066  2.4958
  997MOL0     H31541   9.945   1.590   4.026 -0.5755  0.4654 -0.3972
  997MOL0     H31542   9.902   1.454   3.929  0.8380 -1.1923 -1.3573
  997MOL0     H31543   9.811   1.635   3.746 -2.1577 -1.6236  0.4904
  997MOL0     H31544   9.849   1.750   3.873  0.5511 -0.3647  1.2816
  997MOL0     H31545   9.675   1.624   4.018  0.5233 -1.0048  0.4518
  997MOL0     H31546   9.675   1.501   3.896  2.1791 -0.7993  1.9815
  997MOL0     H31547   9.582   1.757   3.792  1.2457  0.5761  0.9417
  997MOL0     H31548   9.543   1.595   3.736 -2.8944 -0.4949  0.8985
  997MOL0     H31549   9.467   1.742   3.979  0.9457 -0.4555 -0.1966
  997MOL0     H31550   9.426   1.573   3.975  2.9426  0.4405  0.6521
  997MOL0     H31551   9.352   1.769   3.746  3.1449  0.4625  0.1040
  997MOL0     H31552   9.251   1.720   3.887  0.9588 -1.6544  0.9513
  997MOL0     H31553   9.353   1.543   3.642 -0.4944  0.5003 -0.5619
  997MOL0     H31554   9.255   1.481   3.775  1.6805 -1.1308 -0.2344
  997MOL0     H31555   9.071   1.653   3.725 -1.0461  3.3097 -2.1216
  997MOL0     H31556   9.090   1.526   3.605 -2.2410  1.6933 -1.2636
  997MOL0     H31557   9.233   1.592   3.395  0.0249  1.1967 -0.6849
  997MOL0     H31558   9.301   1.775   3.179 -0.3957 -3.3419  4.1163
  997MOL0     H31559   9.268   1.940   3.208 -0.0086 -0.0699 -1.0724
  997MOL0     H31560   9.075   1.710   3.169 -0.4676 -0.2696  0.0436
  997MOL0     H31561   9.119   1.820   3.035  1.0862 -0.5077 -0.1404
  997MOL0     H31562   8.898   1.872   3.109  1.8143 -1.0513 -2.6873
  997MOL0     H31563   8.951   1.894   3.276 -1.2279  1.6303  0.0123
  997MOL0     H31564   9.051   2.069   3.038 -2.8016  1.4229 -0.6202
  997MOL0     H31565   9.061   2.098   3.227 -1.7653 -0.5313  1.9377
  997MOL0     H31566   8.912   2.023   2.869 -0.8432  0.1076 -3.9330
  997MOL0     H31567   8.761   2.053   2.676 -1.1673 -1.4759  0.3979
  997MOL0     H31568   8.182   2.203   2.704  2.2825  0.2777  1.6182
  997MOL0     H31569   8.018   2.216   2.522 -1.3328  1.2744  2.2370
  997MOL0     H31570   8.196   2.325   2.141 -0.2330  1.0712  0.5778
  997MOL0     H31571   8.144   2.487   2.141 -2.2014  0.2117 -2.8166
  997MOL0     H31572   8.033   2.359   1.965  2.9324 -3.3382 -0.2185
  997MOL0     H31573   7.912   2.409   2.092 -0.0606 -1.0151  0.4014
  997MOL0     H31574   7.903   2.178   2.172 -0.2147  1.9253  0.0357
  997MOL0     H31575   8.051   2.144   2.072  0.9981  2.4343 -0.0141
  997MOL0     H31576   7.762   2.218   1.997  0.1455 -1.2747 -1.7390
  997MOL0     H31577   7.875   2.168   1.872 -0.1469 -0.9412 -0.2125
  997MOL0     H31578   7.738   1.993   2.086 -1.4788  1.6302 -0.7278
  997MOL0     H31579   7.880   1.945   2.008  0.3649  1.1720  0.4747
  997MOL0     H31580   7.748   1.943   1.796 -1.5230  1.4332 -0.8568
  997MOL0     H31581   7.614   2.030   1.888 -0.6167 -0.0652 -0.4467
  997MOL0     H31582   7.604   1.810   2.029  0.4890  0.3642 -0.7339
  997MOL0     H31583   7.547   1.804   1.866  1.2492  0.7985 -0.7704
  997MOL0     H31584   7.834   1.727   1.967 -1.3692  0.5147  0.4213
  997MOL0     H31585   7.762   1.702   1.805 -0.8459  2.2091 -0.9443
  997MOL0     H31586   8.289   2.484   2.309 -1.0138  1.1451  1.4668
  997MOL0     H31587   8.468   2.431   2.474  1.1452 -0.5348  1.2960
  997MOL0     H31588   8.533   2.315   2.931  1.6352  1.9317  1.7525
  997MOL0     H31589   8.670   2.270   3.111  0.4155  1.1144  0.2042
  997MOL0     H31590  10.284   1.634   3.762  1.3475  0.7415  0.6098
  997MOL0     H31591  10.494   1.578   3.847 -2.5379  3.1154 -1.2753
  997MOL0     H31592  10.706   1.225   4.108  1.7365 -1.7296 -2.9472
  997MOL0     H31593  10.914   1.117   4.217  0.8007 -0.4713 -0.6859
  997MOL0     H31594  11.120   1.378   4.465  0.4854 -0.2185  2.4155
  997MOL0     H31595  11.231   1.435   4.342 -1.9900  1.6612 -0.5916
  997MOL0     H31596  11.248   1.168   4.477 -2.4103  0.1843 -3.3574
  997MOL0     H31597  11.372   1.239   4.372  0.3690  1.2640  0.5140
  997MOL0     H31598  11.286   1.362   4.638  0.3544  0.3947  0.3936
  997MOL0     H31599  11.408   1.430   4.524  0.0197  0.5055  0.9074
  997MOL0     H31600  11.536   1.213   4.539  0.9728  1.5710 -0.8522
  997MOL0     H31601  11.548   1.319   4.685 -2.1864 -0.4207  2.4219
  997MOL0     H31602  11.348   0.959   4.808  0.5244  1.0134  1.3374
  997MOL0     H31603  11.088   1.509   4.239 -0.1498  1.1249  0.2923
  997MOL0     H31604  10.885   1.608   4.126 -0.6589 -0.1731 -1.1935
  998MOL0     O31605   2.757   9.249   3.851  0.3958  0.8332 -0.0489
  998MOL0     C31606   2.742   9.339   3.931 -0.1506  0.3465  0.5125
  998MOL0     O31607   2.840   9.391   4.007 -0.1502 -0.0043  0.1232
  998MOL0     C31608   2.970   9.364   3.989  0.2128  0.0583  0.1728
  998MOL0     C31609   3.073   9.458   4.020  0.6016  0.0798 -0.8166
  998MOL0     C31610   3.204   9.428   4.017 -0.1818 -0.1812  0.4262
  998MOL0     C31611   3.250   9.299   4.003 -1.2613  1.3196 -0.3715
  998MOL0     O31612   3.380   9.259   4.034  0.3100 -0.2745 -0.1558
  998MOL0     C31613   3.457   9.177   3.944  0.2167 -0.0380 -0.3780
  998MOL0     C31614   3.461   9.031   3.977 -0.6166  0.1705  0.1642
  998MOL0     C31615   3.517   9.001   4.116 -0.3580  0.3804  1.7939
  998MOL0     C31616   3.673   9.002   4.105  0.5077  0.7178  0.8602
  998MOL0     C31617   3.742   9.032   4.237 -0.3086  0.2983  0.1422
  998MOL0     C31618   3.708   8.935   4.355  0.1645 -0.1570  0.3491
  998MOL0     C31619   3.756   8.993   4.484  0.7896 -1.0710  1.2210
  998MOL0     C31620   3.736   8.898   4.613 -0.4234  0.2680  0.1133
  998MOL0     N31621   3.599   8.842   4.629 -0.2639 -0.1504 -0.1030
  998MOL0     C31622   3.492   8.927   4.625  0.2442  0.2441  0.9496
  998MOL0     C31623   3.388   8.842   4.650  0.0887  0.1220 -1.0950
  998MOL0     C31624   3.244   8.873   4.659 -0.6452 -0.0619  0.5305
  998MOL0     C31625   3.158   8.780   4.755 -0.5134 -0.2155  0.0969
  998MOL0     C31626   3.224   8.746   4.887 -0.5120 -1.1061  0.3720
  998MOL0     C31627   3.129   8.694   4.996 -0.2488 -1.1948  1.0926
  998MOL0     O31628   3.085   8.568   4.953  0.0534  0.7387  0.4497
  998MOL0     C31629   3.025   8.486   5.043  0.3919  0.6376 -0.2549
  998MOL0     C31630   2.989   8.356   4.990  0.0835 -0.0956 -0.3485
  998MOL0     C31631   2.906   8.266   5.060 -0.0829 -0.7830 -0.5304
  998MOL0     C31632   2.856   8.309   5.186 -0.5957 -0.5179  0.4034
  998MOL0     C31633   2.760   8.219   5.252 -0.1805  0.7732 -0.8126
  998MOL0     O31634   2.725   8.099   5.180  0.2886 -0.5549  0.3350
  998MOL0     C31635   2.596   8.056   5.175 -0.4475 -0.4503 -0.2592
  998MOL0     C31636   2.570   7.956   5.074 -0.4661  0.4987 -0.1899
  998MOL0     C31637   2.440   7.910   5.051  0.2003  0.6434 -0.1265
  998MOL0     C31638   2.332   7.948   5.135 -0.1807 -0.3039 -0.9365
  998MOL0     O31639   2.205   7.905   5.106  0.0172  0.5629 -0.2010
  998MOL0     C31640   2.109   7.916   5.214  0.6959 -0.2273 -0.9066
  998MOL0     C31641   1.984   7.826   5.184 -0.2661 -0.3662  0.1399
  998MOL0     C31642   1.890   7.817   5.310 -0.2915  0.5823  0.1934
  998MOL0     C31643   1.758   7.750   5.268  0.5014  0.6830 -0.8318
  998MOL0     C31644   1.655   7.758   5.390  0.6346 -0.8096 -0.7024
  998MOL0     C31645   1.526   7.680   5.339  0.0714 -0.7868 -0.2474
  998MOL0     C31646   1.429   7.659   5.450  0.1524  0.7578 -0.8465
  998MOL0     C31647   1.472   7.536   5.535 -0.7462 -1.3205  0.6176
  998MOL0    Cl31648   1.324   7.503   5.627  0.0867 -0.2178  0.0078
  998MOL0     C31649   2.357   8.042   5.236 -0.5386  0.5131 -0.3373
  998MOL0     C31650   2.489   8.098   5.254  0.7482 -0.3252  0.4892
  998MOL0     O31651   2.727   8.244   5.367  0.1690 -0.6544 -0.2505
  998MOL0     C31652   2.881   8.449   5.225  0.0540  0.4149  0.5729
  998MOL0     C31653   2.968   8.532   5.162  0.6521  0.0964  0.6038
  998MOL0     N31654   3.434   8.709   4.655 -0.1656 -0.6604 -0.1594
  998MOL0     N31655   3.559   8.710   4.624  0.3306 -0.3470 -0.7029
  998MOL0     C31656   3.154   9.204   3.968 -0.4297 -0.8110 -0.2700
  998MOL0     C31657   3.016   9.233   3.966  0.0778 -0.6891 -1.2275
  998MOL0     C31658   2.608   9.400   3.949 -0.5315 -0.0287  1.0435
  998MOL0     C31659   2.498   9.357   3.878 -0.5574  0.8944  0.2706
  998MOL0     C31660   2.376   9.418   3.890 -0.6086 -0.7430  0.1862
  998MOL0     C31661   2.360   9.529   3.972  0.0915  0.8046  0.0790
  998MOL0     O31662   2.243   9.596   3.990  0.3692 -0.5376  0.4366
  998MOL0     C31663   2.161   9.605   3.874 -0.6521  0.4727 -0.3047
  998MOL0     C31664   2.049   9.707   3.906 -0.4925  0.1096 -0.4356
  998MOL0     C31665   1.963   9.735   3.786 -0.4370 -0.2051  0.1079
  998MOL0     C31666   2.027   9.804   3.663  0.1717  0.4146  0.3592
  998MOL0     C31667   1.925   9.808   3.554  0.3419 -0.5885 -0.4443
  998MOL0     C31668   1.840   9.833   3.470  0.0261  0.0861 -0.0242
  998MOL0     C31669   2.473   9.577   4.039 -0.5226 -0.5136  0.8949
  998MOL0     C31670   2.595   9.518   4.021  0.1739  0.1310  0.0266
  998MOL0     H31671   3.040   9.552   4.064 -0.2204 -0.8495  0.6439
  998MOL0     H31672   3.266   9.513   4.044 -1.0979  0.4795  0.5033
  998MOL0     H31673   3.557   9.214   3.921  0.4603 -0.6592 -0.3315
  998MOL0     H31674   3.418   9.180   3.842 -0.6432 -1.5984 -0.1231
  998MOL0     H31675   3.519   8.969   3.907 -3.3118 -3.1797  0.5914
  998MOL0     H31676   3.356   9.000   3.968 -1.2119  2.2135 -0.3364
  998MOL0     H31677   3.486   8.903   4.154 -2.5266 -0.1294 -0.9399
  998MOL0     H31678   3.489   9.084   4.181 -1.9092  0.8297  0.6222
  998MOL0     H31679   3.703   8.904   4.067  1.0284  0.9525  0.6496
  998MOL0     H31680   3.713   9.076   4.035 -1.8205  1.9696  0.7823
  998MOL0     H31681   3.724   9.139   4.255  1.1410  1.0592 -2.3979
  998MOL0     H31682   3.848   9.012   4.218 -0.7408 -0.7817 -1.2582
  998MOL0     H31683   3.745   8.835   4.329 -0.3510  0.3202 -2.5527
  998MOL0     H31684   3.600   8.927   4.364  0.1534 -2.0685 -0.8465
  998MOL0     H31685   3.862   9.019   4.473  0.2746  0.7082  0.0756
  998MOL0     H31686   3.716   9.093   4.501  0.5023 -0.2560 -3.0920
  998MOL0     H31687   3.777   8.939   4.706  1.2219 -0.7278 -0.1246
  998MOL0     H31688   3.799   8.811   4.589 -1.4901 -0.7989  1.0605
  998MOL0     H31689   3.481   9.031   4.597 -0.7082  0.5890  2.4751
  998MOL0     H31690   3.199   8.855   4.561 -1.2539 -1.8043  1.0802
  998MOL0     H31691   3.227   8.978   4.683 -1.1653  0.1446 -0.6572
  998MOL0     H31692   3.131   8.690   4.700 -3.1490  1.4072 -1.5414
  998MOL0     H31693   3.068   8.835   4.786  0.8439  1.4633  1.2439
  998MOL0     H31694   3.303   8.673   4.868 -1.6772 -1.8297 -2.1467
  998MOL0     H31695   3.270   8.838   4.924 -2.9905 -0.6656  2.6994
  998MOL0     H31696   3.041   8.759   5.001  0.4104 -0.2278  0.5940
  998MOL0     H31697   3.182   8.689   5.091  1.0170 -6.3519  0.4205
  998MOL0     H31698   3.027   8.325   4.893  0.7875 -1.7723  0.4247
  998MOL0     H31699   2.875   8.171   5.017 -2.2791  0.1881 -1.2742
  998MOL0     H31700   2.643   7.915   5.005 -2.8975 -0.0009 -2.6010
  998MOL0     H31701   2.406   7.839   4.976  0.3103 -1.4444  1.6829
  998MOL0     H31702   2.062   8.013   5.231 -0.1887 -0.5628 -1.3483
  998MOL0     H31703   2.141   7.882   5.313 -0.1002 -0.2661 -0.6545
  998MOL0     H31704   2.019   7.727   5.153  0.9148 -0.5535  1.8961
  998MOL0     H31705   1.926   7.874   5.105 -0.6236 -0.9718  0.0217
  998MOL0     H31706   1.868   7.914   5.356 -2.7220  0.4686 -0.5889
  998MOL0     H31707   1.942   7.758   5.386  0.7648  1.5686  0.2667
  998MOL0     H31708   1.720   7.791   5.174 -0.0663  1.1896 -0.3916
  998MOL0     H31709   1.776   7.644   5.247 -0.0555  0.3331  0.3775
  998MOL0     H31710   1.625   7.858   5.424  0.9879 -0.3021 -1.8328
  998MOL0     H31711   1.693   7.715   5.483 -0.1853  0.9604  0.5059
  998MOL0     H31712   1.549   7.581   5.299 -0.1880 -1.0601  0.2712
  998MOL0     H31713   1.478   7.739   5.259  0.0691  2.1827  1.7812
  998MOL0     H31714   1.407   7.751   5.506  1.4613  0.5252  0.0883
  998MOL0     H31715   1.336   7.621   5.406 -0.0679  0.1755  0.0779
  998MOL0     H31716   1.560   7.567   5.592 -1.7222  1.6613  0.6995
  998MOL0     H31717   1.500   7.449   5.476  1.8967  0.3980 -0.8601
  998MOL0     H31718   2.269   8.073   5.291 -0.7575 -3.0818  1.7065
  998MOL0     H31719   2.496   8.175   5.331  1.7782 -0.0405  0.1348
  998MOL0     H31720   2.825   8.481   5.313  1.1563 -0.8981  1.8161
  998MOL0     H31721   2.979   8.631   5.205  1.0661 -0.1365  1.0471
  998MOL0     H31722   3.190   9.108   3.931 -2.3255 -0.7428 -2.5843
  998MOL0     H31723   2.943   9.154   3.948  1.2792 -2.1731  0.0392
  998MOL0     H31724   2.518   9.270   3.815  3.0812  1.8312 -0.0845
  998MOL0     H31725   2.293   9.390   3.825 -1.2423  1.7159 -0.1583
  998MOL0     H31726   2.106   9.517   3.841 -0.6331  0.4738 -0.3397
  998MOL0     H31727   2.226   9.638   3.792 -0.1486  1.4496  0.4679
  998MOL0     H31728   1.985   9.661   3.983 -1.2932  1.0278 -0.5352
  998MOL0     H31729   2.079   9.796   3.962  2.0603 -1.2241  0.4832
  998MOL0     H31730   1.873   9.792   3.809 -2.2648 -2.9016  0.0673
  998MOL0     H31731   1.926   9.643   3.740  2.7115 -0.5099 -2.1446
  998MOL0     H31732   2.079   9.899   3.683  1.6780 -0.3501  0.2298
  998MOL0     H31733   2.110   9.745   3.622  0.3406  0.9752 -0.1209
  998MOL0     H31734   1.768   9.848   3.392  0.4931 -1.2892 -0.7478
  998MOL0     H31735   2.467   9.656   4.114  2.0217 -0.3195  0.9856
  998MOL0     H31736   2.689   9.549   4.065  0.3935  0.8602 -0.9358
  999MOL0     O31737   6.767   5.104   9.846  0.6927 -0.0288  0.5038
  999MOL0     C31738   6.805   5.102   9.963  0.8046 -0.3559 -0.0461
  999MOL0     O31739   6.720   5.071  10.072 -0.2216 -0.1883 -0.5475
  999MOL0     C31740   6.587   5.068  10.063  0.3992 -0.1852  0.5629
  999MOL0     C31741   6.506   5.024   9.958 -0.1161 -0.5327 -0.9644
  999MOL0     C31742   6.365   5.024   9.972 -0.2747 -0.8279  0.5379
  999MOL0     C31743   6.301   5.061  10.091  0.2930 -0.0556  0.8793
  999MOL0     O31744   6.168   5.046  10.096  0.4245 -0.5734  0.0654
  999MOL0     C31745   6.099   5.127  10.188  0.2413 -0.0585  0.2465
  999MOL0     C31746   5.952   5.129  10.143 -1.3276 -1.4797 -0.1270
  999MOL0     C31747   5.892   4.996  10.171  0.1877 -0.0065 -0.4944
  999MOL0     C31748   5.737   5.012  10.150  0.1584 -0.3304 -0.7619
  999MOL0     C31749   5.660   4.873  10.122  0.1659  0.8290 -0.0393
  999MOL0     C31750   5.652   4.783  10.253  0.1811 -0.9774  0.3271
  999MOL0     C31751   5.603   4.636  10.230 -0.8633 -1.0425 -0.9768
  999MOL0     C31752   5.455   4.621  10.188 -0.0030 -0.2795  0.7599
  999MOL0     N31753   5.407   4.495  10.224  0.3916 -0.3531  0.5695
  999MOL0     C31754   5.274   4.459  10.245 -0.1288 -0.1062 -0.4532
  999MOL0     C31755   5.256   4.325  10.230 -1.2094  0.5721 -0.2338
  999MOL0     C31756   5.131   4.245  10.239 -0.0132 -0.4316  0.4881
  999MOL0     C31757   5.013   4.340  10.243  0.7434  0.7304  0.8814
  999MOL0     C31758   4.881   4.258  10.230  0.6820 -0.4563 -0.0702
  999MOL0     C31759   4.759   4.333  10.294 -1.0545 -0.7725  0.4136
  999MOL0     O31760   4.642   4.268  10.254 -0.4034 -0.5248 -0.3918
  999MOL0     C31761   4.531   4.296  10.326 -0.0194  0.0701  0.6057
  999MOL0     C31762   4.516   4.392  10.432  0.3871  0.0775 -1.0774
  999MOL0     C31763   4.391   4.406  10.491  0.1872 -0.5288  0.3279
  999MOL0     C31764   4.282   4.325  10.446  0.2168  0.5452 -0.6861
  999MOL0     C31765   4.145   4.339  10.499 -0.5382 -0.1057 -0.1894
  999MOL0     O31766   4.045   4.303  10.421  0.9457  0.4728  1.0748
  999MOL0     C31767   3.919   4.324  10.469  0.7176 -0.0470 -0.3499
  999MOL0     C31768   3.838   4.433  10.434  0.2347 -0.4699 -0.4060
  999MOL0     C31769   3.710   4.446  10.484  0.1313 -0.7926 -0.0401
  999MOL0     C31770   3.654   4.340  10.555  0.3728  0.0409  0.0541
  999MOL0     O31771   3.527   4.327  10.596  0.4651 -0.8486 -0.2067
  999MOL0     C31772   3.426   4.407  10.529  0.5047  1.0989 -0.1281
  999MOL0     C31773   3.283   4.358  10.569  0.7039 -0.3191 -0.2327
  999MOL0     C31774   3.164   4.420  10.493  0.1930 -0.3781 -0.5874
  999MOL0     C31775   3.030   4.347  10.523  0.3744 -0.3665 -0.1737
  999MOL0     C31776   2.915   4.404  10.445  0.0865  0.6650 -0.0320
  999MOL0     C31777   2.789   4.388  10.532  0.3543 -0.3623 -0.6433
  999MOL0     C31778   2.760   4.235  10.552  0.0189 -0.9919  0.0049
  999MOL0     C31779   2.639   4.210  10.636 -0.2920 -0.4731  0.0553
  999MOL0    Cl31780   2.613   4.032  10.653 -0.2796 -0.4384 -0.1608
  999MOL0     C31781   3.735   4.235  10.601 -0.1749 -0.1024 -0.3168
  999MOL0     C31782   3.867   4.226  10.559 -0.1998 -0.7543  0.6086
  999MOL0     O31783   4.126   4.396  10.608 -0.2942  0.2860  0.9338
  999MOL0     C31784   4.304   4.232  10.352  0.5847  0.6428 -0.5808
  999MOL0     C31785   4.422   4.221  10.290 -0.9653  0.2727 -0.6846
  999MOL0     N31786   5.387   4.279  10.208  0.7970 -1.3080  0.9495
  999MOL0     N31787   5.469   4.376  10.200  0.0510  0.0561 -0.2580
  999MOL0     C31788   6.385   5.104  10.199  0.5990  0.0207  0.0777
  999MOL0     C31789   6.522   5.118  10.178 -0.3978  0.3843  0.0817
  999MOL0     C31790   6.947   5.079   9.988 -0.6927  0.3089  0.0466
  999MOL0     C31791   6.988   5.083  10.121 -0.0605 -0.3410 -0.1713
  999MOL0     C31792   7.118   5.055  10.155  1.1530  0.1709 -0.3678
  999MOL0     C31793   7.214   5.035  10.061 -0.1130  0.8705  1.0177
  999MOL0     O31794   7.337   5.004  10.092  0.5238 -0.0531 -0.9141
  999MOL0     C31795   7.385   4.976  10.226  0.7925 -0.2682  0.1358
  999MOL0     C31796   7.350   4.836  10.270 -0.4729  0.6946 -0.3448
  999MOL0     C31797   7.425   4.723  10.198 -0.5521  0.6526 -0.1709
  999MOL0     C31798   7.575   4.715  10.230  0.3068  0.0444  0.9969
  999MOL0     C31799   7.643   4.614  10.152 -0.4734  0.1706  0.6874
  999MOL0     C31800   7.714   4.528  10.094 -0.2343  0.2485 -0.5432
  999MOL0     C31801   7.180   5.047   9.922 -1.0312 -0.0908  0.6327
  999MOL0     C31802   7.050   5.066   9.889  0.6949 -0.3542  0.8353
  999MOL0     H31803   6.547   4.986   9.865  0.8264 -3.8593  0.6651
  999MOL0     H31804   6.305   5.013   9.882  0.5229 -1.4405  0.0683
  999MOL0     H31805   6.125   5.233  10.184 -2.6472  0.7270 -0.1430
  999MOL0     H31806   6.119   5.095  10.291 -0.3836 -1.0948  0.0573
  999MOL0     H31807   5.942   5.155  10.037  0.9682  1.4722  0.2480
  999MOL0     H31808   5.908   5.205  10.208  2.9507  1.8090 -0.6796
  999MOL0     H31809   5.922   4.975  10.274 -1.5491  4.7587  1.2828
  999MOL0     H31810   5.924   4.922  10.097 -3.1228  0.0804 -2.1863
  999MOL0     H31811   5.689   5.058  10.237 -1.6482 -1.1074 -1.3208
  999MOL0     H31812   5.722   5.080  10.066  1.2315  1.8467  0.6964
  999MOL0     H31813   5.699   4.813  10.039 -0.6145  1.2845 -0.7453
  999MOL0     H31814   5.565   4.912  10.084  0.9868  1.2729 -1.7440
  999MOL0     H31815   5.593   4.839  10.326 -0.5308 -0.5067 -0.5909
  999MOL0     H31816   5.751   4.772  10.298 -0.3586  0.4965  1.9840
  999MOL0     H31817   5.660   4.577  10.157  1.1899 -1.3791  0.7992
  999MOL0     H31818   5.607   4.590  10.329 -3.7161  1.3574  0.4114
  999MOL0     H31819   5.457   4.635  10.079  1.1683  0.8168  0.9091
  999MOL0     H31820   5.382   4.697  10.217  0.5068  0.7858 -0.6317
  999MOL0     H31821   5.191   4.527  10.263  0.6948  0.4449  1.5587
  999MOL0     H31822   5.122   4.184  10.329 -2.1343  1.1330  1.4090
  999MOL0     H31823   5.118   4.184  10.149 -0.6644  2.6213 -1.6575
  999MOL0     H31824   5.012   4.416  10.164 -3.8399 -1.8337 -2.0185
  999MOL0     H31825   5.014   4.397  10.336  0.9619  0.3249  1.1266
  999MOL0     H31826   4.861   4.223  10.128  3.9028  1.2766 -1.4727
  999MOL0     H31827   4.887   4.169  10.293  0.6259  0.2681  0.9819
  999MOL0     H31828   4.749   4.439  10.268 -1.5453 -0.7594  0.6485
  999MOL0     H31829   4.776   4.331  10.402  2.5407  0.7126  0.0258
  999MOL0     H31830   4.599   4.453  10.466 -0.6559  0.8190  0.2653
  999MOL0     H31831   4.365   4.463  10.580  1.5570  1.3195 -0.4067
  999MOL0     H31832   3.886   4.515  10.382 -0.6672  0.4769  0.2269
  999MOL0     H31833   3.661   4.540  10.463 -0.6430 -1.2446 -0.2867
  999MOL0     H31834   3.433   4.406  10.420 -1.0569 -0.5474 -0.2566
  999MOL0     H31835   3.434   4.510  10.567 -1.1532  1.4458 -0.6214
  999MOL0     H31836   3.276   4.366  10.678  2.1359  0.6633 -0.1855
  999MOL0     H31837   3.280   4.252  10.545 -0.2585 -0.8391  1.9669
  999MOL0     H31838   3.170   4.406  10.384 -0.8087  1.0360 -0.8639
  999MOL0     H31839   3.153   4.526  10.520  2.0011 -0.3153  0.0084
  999MOL0     H31840   3.038   4.237  10.523  2.2085 -0.2938  1.8233
  999MOL0     H31841   3.007   4.359  10.629  1.8530 -4.3996  0.7862
  999MOL0     H31842   2.911   4.345  10.353  1.7309  2.2727 -1.1854
  999MOL0     H31843   2.930   4.510  10.422  2.4333  0.3851  0.0104
  999MOL0     H31844   2.704   4.439  10.484  0.3246 -0.9915 -1.2696
  999MOL0     H31845   2.806   4.433  10.630 -1.3985 -3.3234  1.1814
  999MOL0     H31846   2.748   4.185  10.456  1.4822 -1.1837 -0.1023
  999MOL0     H31847   2.834   4.188  10.617 -1.5910  0.4229  3.1025
  999MOL0     H31848   2.551   4.257  10.590  0.4155  0.2576 -0.5698
  999MOL0     H31849   2.656   4.256  10.733 -1.3488  0.0270  0.0186
  999MOL0     H31850   3.691   4.159  10.663  2.3245  0.3279  2.1797
  999MOL0     H31851   3.936   4.152  10.600  0.5886 -0.2520  0.2090
  999MOL0     H31852   4.228   4.166  10.312  1.2833 -0.1923 -0.5756
  999MOL0     H31853   4.426   4.154  10.205 -4.4382 -2.2375  0.8842
  999MOL0     H31854   6.340   5.131  10.294 -2.9444 -0.1828 -1.3981
  999MOL0     H31855   6.580   5.154  10.262  0.3119  0.4529 -0.4291
  999MOL0     H31856   6.927   5.090  10.211 -0.8797  3.0387 -0.8233
  999MOL0     H31857   7.134   5.055  10.263  2.2758  0.8830 -0.5198
  999MOL0     H31858   7.339   5.051  10.291  0.0177 -0.0182 -0.6678
  999MOL0     H31859   7.489   5.005  10.240 -0.4128  4.6023  1.0399
  999MOL0     H31860   7.372   4.832  10.377  0.6760 -2.2778 -0.6068
  999MOL0     H31861   7.245   4.812  10.252 -0.1249 -0.5674 -0.8134
  999MOL0     H31862   7.393   4.735  10.094 -2.7999  1.9648  0.6132
  999MOL0     H31863   7.384   4.628  10.234 -1.6442 -1.5808 -6.1239
  999MOL0     H31864   7.622   4.813  10.215 -1.4086  0.4897 -2.4988
  999MOL0     H31865   7.607   4.674  10.327  1.7701 -1.4308 -0.0455
  999MOL0     H31866   7.785   4.453  10.065 -0.7229 -1.9973  3.2815
  999MOL0     H31867   7.247   5.026   9.839 -1.8220  1.5317 -0.4829
  999MOL0     H31868   7.036   5.065   9.781 -2.6563  1.4183  1.1161
 1000MOL0     O31869   9.254   3.935   3.397 -0.2816  0.4198  0.3895
 1000MOL0     C31870   9.314   3.925   3.295  0.9365 -0.7191  0.9233
 1000MOL0     O31871   9.257   3.906   3.178 -0.3216  1.0534  0.7694
 1000MOL0     C31872   9.127   3.879   3.149 -0.3167 -0.3365 -0.4901
 1000MOL0     C31873   9.110   3.788   3.051 -0.5973 -0.8766 -0.1320
 1000MOL0     C31874   8.979   3.764   3.001  0.2306 -0.1374  0.1141
 1000MOL0     C31875   8.861   3.831   3.055 -0.3448  0.8711 -0.2427
 1000MOL0     O31876   8.743   3.795   3.002 -0.6640 -0.3420  0.4234
 1000MOL0     C31877   8.643   3.891   3.005 -0.8507 -0.4147  0.6683
 1000MOL0     C31878   8.520   3.821   2.936 -0.1173  0.1778  0.7710
 1000MOL0     C31879   8.409   3.917   2.955  0.4838 -0.2521  0.2019
 1000MOL0     C31880   8.280   3.854   2.902 -0.2302  0.0362  0.1109
 1000MOL0     C31881   8.157   3.941   2.916 -1.0165  0.4439  0.3801
 1000MOL0     C31882   8.029   3.880   2.858 -0.4305 -0.7294  0.1023
 1000MOL0     C31883   7.908   3.976   2.870 -0.1262  0.3684 -1.0491
 1000MOL0     C31884   7.785   3.904   2.812 -0.5290 -0.6361  0.0857
 1000MOL0     N31885   7.710   3.994   2.730 -0.5691 -0.0006  0.8638
 1000MOL0     C31886   7.621   4.095   2.757  0.0305 -0.5496  0.0702
 1000MOL0     C31887   7.588   4.154   2.639  0.2269  0.2139  0.1142
 1000MOL0     C31888   7.503   4.271   2.614 -0.7104 -0.8971 -0.7815
 1000MOL0     C31889   7.386   4.228   2.536 -0.2229 -0.6103  0.6946
 1000MOL0     C31890   7.289   4.341   2.486 -0.0918  0.0556  0.0511
 1000MOL0     C31891   7.141   4.292   2.472 -0.5710 -0.3387  0.2546
 1000MOL0     O31892   7.038   4.393   2.465 -0.2997 -0.3684 -0.0060
 1000MOL0     C31893   6.902   4.362   2.468  0.8030  0.0060 -0.1545
 1000MOL0     C31894   6.814   4.468   2.451  0.2651 -0.1761 -0.5447
 1000MOL0     C31895   6.675   4.448   2.444  0.6504  0.5598 -0.0253
 1000MOL0     C31896   6.616   4.320   2.460 -0.2202 -0.3282 -0.6344
 1000MOL0     C31897   6.473   4.300   2.469 -0.1721  0.9060  0.2698
 1000MOL0     O31898   6.402   4.412   2.483 -0.1910  0.0656  0.1045
 1000MOL0     C31899   6.274   4.424   2.524 -0.0021  0.0492 -0.2320
 1000MOL0     C31900   6.205   4.522   2.455 -0.5845 -1.3471 -0.3866
 1000MOL0     C31901   6.068   4.552   2.479 -0.7881 -0.3656  0.5701
 1000MOL0     C31902   5.993   4.475   2.571 -0.4228  0.3498 -0.8738
 1000MOL0     O31903   5.861   4.490   2.604  0.2583 -0.4539 -0.7376
 1000MOL0     C31904   5.766   4.509   2.488  0.4719 -0.5334  0.1099
 1000MOL0     C31905   5.614   4.468   2.524 -0.4990  0.0203 -0.5585
 1000MOL0     C31906   5.516   4.483   2.405  0.1841 -0.7121 -0.0241
 1000MOL0     C31907   5.367   4.515   2.458  0.2979  0.0693 -0.3118
 1000MOL0     C31908   5.268   4.502   2.341  0.1544 -0.1179 -0.3335
 1000MOL0     C31909   5.112   4.497   2.379 -0.4890 -0.5680 -0.1165
 1000MOL0     C31910   5.011   4.492   2.264 -0.0595  0.5041  0.0600
 1000MOL0     C31911   5.005   4.633   2.206 -0.4349 -0.2850  0.1069
 1000MOL0    Cl31912   4.869   4.638   2.092 -0.1661  0.3485 -0.4809
 1000MOL0     C31913   6.064   4.388   2.662 -0.5981  0.3475 -0.0480
 1000MOL0     C31914   6.208   4.364   2.634 -0.8487 -1.0806 -0.3892
 1000MOL0     O31915   6.439   4.184   2.483  0.5337 -0.7815  0.1350
 1000MOL0     C31916   6.711   4.208   2.466  0.3741  0.4786 -0.0182
 1000MOL0     C31917   6.848   4.229   2.468 -0.5995 -0.1733 -0.0549
 1000MOL0     N31918   7.649   4.074   2.541  0.2056 -0.5736 -0.6837
 1000MOL0     N31919   7.714   3.981   2.596  0.4157  0.4051  0.0093
 1000MOL0     C31920   8.883   3.918   3.165 -0.0064  0.0692  0.8558
 1000MOL0     C31921   9.013   3.936   3.211 -0.7846  0.6191  0.5272
 1000MOL0     C31922   9.455   3.969   3.296 -0.1669  1.1269  0.4171
 1000MOL0     C31923   9.514   4.033   3.407  0.9953  0.0388  0.0865
 1000MOL0     C31924   9.650   4.058   3.405 -0.1625 -0.2586  0.0310
 1000MOL0     C31925   9.725   4.043   3.281 -0.0423  0.1780 -0.7019
 1000MOL0     O31926   9.858   4.073   3.269 -0.4935  0.2249 -1.0618
 1000MOL0     C31927   9.899   4.191   3.342  0.2973 -0.2617 -0.4185
 1000MOL0     C31928  10.033   4.254   3.270  0.1872  0.0008 -0.4580
 1000MOL0     C31929  10.087   4.377   3.343  0.0579  0.5044  0.2215
 1000MOL0     C31930  10.186   4.465   3.274  0.2144 -0.5288  0.0086
 1000MOL0     C31931  10.134   4.531   3.152 -0.7045  0.0265 -0.0307
 1000MOL0     C31932  10.105   4.585   3.049  0.5082  0.3039 -0.0468
 1000MOL0     C31933   9.661   3.984   3.174  0.4715  0.7409 -0.3946
 1000MOL0     C31934   9.530   3.949   3.180  0.5747 -0.5026  0.2883
 1000MOL0     H31935   9.190   3.745   2.992 -0.4037 -0.4686 -0.1732
 1000MOL0     H31936   8.969   3.698   2.915 -2.2646  0.5490 -0.2271
 1000MOL0     H31937   8.662   3.993   2.968 -1.4379 -0.8581 -0.9446
 1000MOL0     H31938   8.618   3.907   3.110 -1.3227 -1.4378  0.7198
 1000MOL0     H31939   8.498   3.724   2.981 -1.2439 -1.8054 -3.5502
 1000MOL0     H31940   8.543   3.786   2.835  2.2372 -0.1470  1.3488
 1000MOL0     H31941   8.419   4.012   2.904 -2.0232 -0.5472 -1.0134
 1000MOL0     H31942   8.395   3.938   3.062 -2.1750 -2.0870  0.3256
 1000MOL0     H31943   8.286   3.827   2.796 -1.1201  0.5165 -0.0629
 1000MOL0     H31944   8.267   3.761   2.959  1.5647 -0.1697  0.2484
 1000MOL0     H31945   8.170   4.039   2.871  0.5971  0.1071  0.0493
 1000MOL0     H31946   8.126   3.962   3.019  1.0069  2.8017  0.6129
 1000MOL0     H31947   8.019   3.793   2.924  1.2147  0.4770  2.0826
 1000MOL0     H31948   8.045   3.840   2.758  3.9291 -0.0153  0.3280
 1000MOL0     H31949   7.898   4.009   2.974  0.8885  1.0890 -1.1677
 1000MOL0     H31950   7.935   4.062   2.807  0.2969 -0.0368 -1.4247
 1000MOL0     H31951   7.726   3.888   2.903 -1.8195  0.7701 -0.4718
 1000MOL0     H31952   7.814   3.814   2.758  1.3073  1.4762 -2.7340
 1000MOL0     H31953   7.599   4.118   2.861  0.9612 -3.3273  0.9657
 1000MOL0     H31954   7.564   4.343   2.560  1.8271 -0.8515  1.8992
 1000MOL0     H31955   7.482   4.323   2.708  0.2394  2.2447 -2.1707
 1000MOL0     H31956   7.330   4.151   2.589 -3.5520 -0.3430 -2.0413
 1000MOL0     H31957   7.423   4.186   2.442 -0.5442  0.6017  0.0057
 1000MOL0     H31958   7.289   4.414   2.567 -0.6224  0.2732 -0.1380
 1000MOL0     H31959   7.316   4.398   2.396 -1.8226 -1.3296 -1.4423
 1000MOL0     H31960   7.133   4.240   2.568  4.0589  1.2428  1.7467
 1000MOL0     H31961   7.132   4.221   2.389  0.4637  0.6056 -0.7116
 1000MOL0     H31962   6.850   4.570   2.447  0.1639 -0.1432 -0.6263
 1000MOL0     H31963   6.615   4.538   2.437 -2.8111 -1.6031 -0.6140
 1000MOL0     H31964   6.258   4.574   2.377 -0.7340 -0.7013 -0.0647
 1000MOL0     H31965   6.011   4.625   2.423  0.6902  0.3816 -0.0212
 1000MOL0     H31966   5.795   4.439   2.409 -0.8329 -0.8181 -0.1427
 1000MOL0     H31967   5.767   4.611   2.449 -2.0535 -1.1435 -1.7583
 1000MOL0     H31968   5.591   4.546   2.598 -0.6978 -0.8267  0.2839
 1000MOL0     H31969   5.609   4.373   2.578  2.3084  0.9171  1.5078
 1000MOL0     H31970   5.511   4.391   2.345 -0.0980  1.8299 -4.3147
 1000MOL0     H31971   5.545   4.567   2.341 -1.9103 -0.6652 -1.0040
 1000MOL0     H31972   5.343   4.441   2.535 -3.5254  0.2627 -1.1120
 1000MOL0     H31973   5.359   4.612   2.508 -1.5287  1.0720 -2.3557
 1000MOL0     H31974   5.284   4.404   2.294 -3.0516 -2.1230  2.2685
 1000MOL0     H31975   5.286   4.582   2.269  4.1349 -2.2214 -1.9730
 1000MOL0     H31976   5.079   4.571   2.453 -0.0664 -1.7231  1.2919
 1000MOL0     H31977   5.097   4.396   2.419  1.3660 -1.9311 -2.5883
 1000MOL0     H31978   5.047   4.424   2.186 -1.1396  0.8209 -0.7352
 1000MOL0     H31979   4.910   4.461   2.292  0.5333  0.5157  2.4604
 1000MOL0     H31980   5.097   4.650   2.148 -3.0746 -0.5971 -4.7574
 1000MOL0     H31981   4.996   4.711   2.281  1.7629 -1.3505  1.5843
 1000MOL0     H31982   6.016   4.357   2.754  1.0398  2.7519  1.7607
 1000MOL0     H31983   6.264   4.302   2.703 -1.6780 -3.4995 -1.7678
 1000MOL0     H31984   6.677   4.106   2.479  0.0872  0.7448  1.5722
 1000MOL0     H31985   6.923   4.152   2.472 -0.5376 -0.0880  2.8917
 1000MOL0     H31986   8.801   3.975   3.209 -1.3478 -0.6543 -0.5796
 1000MOL0     H31987   9.046   3.988   3.301 -0.1596 -1.4805  1.5900
 1000MOL0     H31988   9.453   4.059   3.493  0.9997 -2.9900  1.1405
 1000MOL0     H31989   9.684   4.121   3.487 -0.7612  0.7562 -0.4810
 1000MOL0     H31990   9.935   4.170   3.443 -1.0316 -0.7639 -0.0362
 1000MOL0     H31991   9.820   4.266   3.349  1.0307  0.3807  3.4578
 1000MOL0     H31992  10.107   4.175   3.256  0.5579  0.4569 -1.0987
 1000MOL0     H31993  10.009   4.282   3.167 -0.8994  1.4070  0.1498
 1000MOL0     H31994  10.136   4.342   3.435  0.6708 -0.9135 -0.6161
 1000MOL0     H31995  10.001   4.440   3.370 -1.1100  1.1269 -4.2405
 1000MOL0     H31996  10.210   4.548   3.342 -1.0325 -0.1937  0.0647
 1000MOL0     H31997  10.281   4.416   3.251  1.7738  1.9318  0.8407
 1000MOL0     H31998  10.071   4.648   2.968  3.5993  3.6088  0.9351
 1000MOL0     H31999   9.720   3.958   3.087 -0.7671  0.5789 -1.2031
 1000MOL0     H32000   9.496   3.901   3.089 -1.7695  1.8483 -0.2088
 1001MOL0     O32001   8.494   8.270   9.420 -0.0610  0.7120 -0.3796
 1001MOL0     C32002   8.565   8.320   9.337  0.5183 -0.4986  0.2928
 1001MOL0     O32003   8.523   8.368   9.219  0.1860  0.7058 -0.2894
 1001MOL0     C32004   8.390   8.338   9.192 -0.2349  0.8372 -0.2311
 1001MOL0     C32005   8.355   8.235   9.100  0.5289 -1.2618  0.4747
 1001MOL0     C32006   8.223   8.225   9.059  0.8502 -0.4433  0.5070
 1001MOL0     C32007   8.122   8.299   9.123  0.0967  0.4255  0.7772
 1001MOL0     O32008   7.995   8.276   9.070 -0.5974  0.1669  0.8025
 1001MOL0     C32009   7.879   8.302   9.158  0.6168  0.2335  0.0548
 1001MOL0     C32010   7.759   8.253   9.082 -0.5756  0.0358  0.1793
 1001MOL0     C32011   7.652   8.205   9.173 -0.2167  0.1086 -0.0212
 1001MOL0     C32012   7.595   8.314   9.273  0.4044  0.6117  0.1500
 1001MOL0     C32013   7.453   8.275   9.317  0.4886 -0.3192 -0.0676
 1001MOL0     C32014   7.349   8.284   9.199 -0.6137  0.1752  0.5927
 1001MOL0     C32015   7.203   8.313   9.233 -0.0103 -0.0352  0.3637
 1001MOL0     C32016   7.139   8.188   9.270 -0.4222  0.2738 -0.6383
 1001MOL0     N32017   7.000   8.211   9.307 -0.5688 -0.7381  0.1499
 1001MOL0     C32018   6.958   8.198   9.431  1.0586 -0.4405 -0.8802
 1001MOL0     C32019   6.818   8.223   9.416 -0.0294  0.5231 -0.5592
 1001MOL0     C32020   6.725   8.215   9.529  0.7373 -0.5847 -0.8776
 1001MOL0     C32021   6.738   8.076   9.602  0.4251 -0.7250 -0.2554
 1001MOL0     C32022   6.682   7.960   9.509 -0.6197 -0.9803  0.0088
 1001MOL0     C32023   6.532   7.949   9.496 -0.3985  0.8121 -0.3088
 1001MOL0     O32024   6.472   7.949   9.627  0.2669 -0.0159  0.0974
 1001MOL0     C32025   6.336   7.957   9.624 -0.2226  0.3871  0.9108
 1001MOL0     C32026   6.247   7.931   9.519 -0.5591 -0.1851  0.9115
 1001MOL0     C32027   6.108   7.961   9.523  0.1137  0.2548  0.5340
 1001MOL0     C32028   6.057   7.993   9.649 -0.1730  0.1054  0.9135
 1001MOL0     C32029   5.912   8.004   9.671 -0.2059  0.7780  0.4524
 1001MOL0     O32030   5.835   7.998   9.562  0.2006 -1.0263 -0.1193
 1001MOL0     C32031   5.700   8.006   9.600 -0.8314  0.4129  0.2353
 1001MOL0     C32032   5.627   7.888   9.654 -0.5628  0.1061  0.5175
 1001MOL0     C32033   5.489   7.893   9.671  0.5860  0.1914 -0.3619
 1001MOL0     C32034   5.416   8.010   9.657  0.6305  0.0248  0.1098
 1001MOL0     O32035   5.277   7.997   9.675 -0.2629 -0.1238  0.0151
 1001MOL0     C32036   5.191   8.111   9.687 -0.2497  0.2889  0.4245
 1001MOL0     C32037   5.054   8.065   9.654 -0.2088 -0.1450 -0.3798
 1001MOL0     C32038   4.959   8.188   9.661  0.1983  0.4954  0.0172
 1001MOL0     C32039   4.814   8.135   9.666  0.5846  0.4357  0.2584
 1001MOL0     C32040   4.726   8.227   9.746  0.4052 -0.2426  0.1270
 1001MOL0     C32041   4.592   8.168   9.796  0.0200  0.1773  0.4472
 1001MOL0     C32042   4.532   8.267   9.892  0.1679 -0.2724 -0.3606
 1001MOL0     C32043   4.385   8.216   9.930  0.3977 -0.3317 -0.7879
 1001MOL0    Cl32044   4.392   8.065  10.029 -0.2697  0.3800 -0.0426
 1001MOL0     C32045   5.483   8.124   9.602 -0.0366  0.8948  0.6532
 1001MOL0     C32046   5.621   8.119   9.585 -0.3328 -1.1946 -0.4064
 1001MOL0     O32047   5.869   8.020   9.786 -0.5465 -0.2107 -0.6844
 1001MOL0     C32048   6.145   8.005   9.755  0.3144 -0.0842  0.1636
 1001MOL0     C32049   6.283   7.996   9.746 -0.1308 -0.6021  0.0440
 1001MOL0     N32050   6.793   8.244   9.284  1.0030 -0.2969 -0.4319
 1001MOL0     N32051   6.898   8.224   9.219 -0.6462 -0.0053  0.1500
 1001MOL0     C32052   8.157   8.402   9.213 -0.4467 -0.5804  0.6030
 1001MOL0     C32053   8.295   8.426   9.249  1.0161 -0.1803  0.2074
 1001MOL0     C32054   8.708   8.333   9.373  0.3860 -0.2534  0.7621
 1001MOL0     C32055   8.780   8.442   9.323 -0.4445 -0.8214 -0.1755
 1001MOL0     C32056   8.920   8.450   9.339  0.6520 -0.2823 -0.5772
 1001MOL0     C32057   8.991   8.346   9.401 -0.9286  0.0340 -0.1058
 1001MOL0     O32058   9.122   8.349   9.423  0.3334 -0.1262  0.6540
 1001MOL0     C32059   9.198   8.396   9.307 -0.2886  0.1525 -0.0365
 1001MOL0     C32060   9.172   8.310   9.184 -0.1063  0.4327 -0.7705
 1001MOL0     C32061   9.226   8.160   9.216 -0.1728  0.9730  0.2609
 1001MOL0     C32062   9.163   8.041   9.144  0.9284  0.4042  0.0364
 1001MOL0     C32063   9.025   8.028   9.188 -0.5567  0.1475  0.1660
 1001MOL0     C32064   8.908   8.029   9.213  0.3835 -0.1497  0.3188
 1001MOL0     C32065   8.922   8.236   9.451 -0.1052 -0.2725  0.2764
 1001MOL0     C32066   8.779   8.233   9.442  0.9835 -0.3889 -0.1824
 1001MOL0     H32067   8.433   8.178   9.051 -0.2728 -2.3510  0.4144
 1001MOL0     H32068   8.193   8.152   8.985  1.4317  0.3840 -0.5674
 1001MOL0     H32069   7.871   8.408   9.184 -3.0761 -0.0235  0.4160
 1001MOL0     H32070   7.887   8.236   9.245  1.5439 -0.2705 -0.3911
 1001MOL0     H32071   7.782   8.171   9.013  0.6973 -0.9156  1.6720
 1001MOL0     H32072   7.709   8.329   9.022 -0.8007 -1.0022 -0.9894
 1001MOL0     H32073   7.686   8.115   9.225 -3.2632 -0.5303  1.0291
 1001MOL0     H32074   7.580   8.178   9.096  0.1855  0.5583 -0.5687
 1001MOL0     H32075   7.656   8.325   9.363 -1.3892  1.1401  1.3778
 1001MOL0     H32076   7.577   8.414   9.233  0.7867  0.4464 -0.4397
 1001MOL0     H32077   7.440   8.353   9.393  0.4368  0.9030 -1.2949
 1001MOL0     H32078   7.440   8.176   9.362 -0.6321  0.8935  2.4922
 1001MOL0     H32079   7.359   8.198   9.132 -2.5244 -0.0685  0.5547
 1001MOL0     H32080   7.380   8.367   9.135 -1.2869  1.1987  1.5447
 1001MOL0     H32081   7.202   8.387   9.314  2.4847  2.5158 -1.7117
 1001MOL0     H32082   7.150   8.354   9.147 -0.6297  2.9810  2.0521
 1001MOL0     H32083   7.203   8.146   9.347  1.5323  2.7890 -0.7449
 1001MOL0     H32084   7.149   8.118   9.187 -0.8026  1.9737 -2.2000
 1001MOL0     H32085   7.007   8.169   9.523  0.6381 -1.0838 -0.8505
 1001MOL0     H32086   6.620   8.234   9.502  0.8640 -1.4771 -2.0894
 1001MOL0     H32087   6.749   8.300   9.593  0.2862 -0.9496 -0.2028
 1001MOL0     H32088   6.681   8.069   9.695  0.2772 -2.0151 -0.4312
 1001MOL0     H32089   6.842   8.061   9.631  0.7943  1.0292 -0.5541
 1001MOL0     H32090   6.724   7.971   9.409  0.9956  4.2043  0.9436
 1001MOL0     H32091   6.721   7.869   9.555  1.1490 -0.1827  0.1692
 1001MOL0     H32092   6.506   7.855   9.446 -2.0443  0.4826  1.0625
 1001MOL0     H32093   6.490   8.024   9.428 -2.7837 -1.3919 -1.4834
 1001MOL0     H32094   6.294   7.907   9.424  0.9102  0.3510  1.4758
 1001MOL0     H32095   6.038   7.955   9.440  3.1576  2.0447 -2.4315
 1001MOL0     H32096   5.673   7.801   9.698 -1.8493 -0.7997  0.1183
 1001MOL0     H32097   5.442   7.806   9.715 -0.9637 -0.1156 -2.4578
 1001MOL0     H32098   5.213   8.182   9.606 -0.4538  0.0724  0.1787
 1001MOL0     H32099   5.194   8.138   9.793  0.6745 -1.6311  0.9231
 1001MOL0     H32100   5.025   7.977   9.711 -1.4204  1.1148  1.0718
 1001MOL0     H32101   5.053   8.030   9.551 -3.8875 -4.2172  0.7494
 1001MOL0     H32102   4.969   8.256   9.576 -1.8400 -1.2157 -1.6658
 1001MOL0     H32103   4.976   8.242   9.756  0.2089  0.4821  0.0229
 1001MOL0     H32104   4.775   8.112   9.567 -1.1317 -0.1782  1.0372
 1001MOL0     H32105   4.826   8.045   9.727  0.6266 -0.3312 -0.8623
 1001MOL0     H32106   4.706   8.314   9.682  2.3916  2.0407  2.3881
 1001MOL0     H32107   4.782   8.270   9.829  2.8595  0.6388 -1.8444
 1001MOL0     H32108   4.607   8.073   9.848 -2.2063 -0.2239  0.4802
 1001MOL0     H32109   4.518   8.161   9.715  0.7198  0.7981 -0.2604
 1001MOL0     H32110   4.592   8.275   9.983  0.2828  1.6941 -0.5688
 1001MOL0     H32111   4.516   8.368   9.851 -1.9751 -0.3034  0.2537
 1001MOL0     H32112   4.334   8.199   9.835  1.6366  0.5698 -1.6675
 1001MOL0     H32113   4.332   8.292   9.988  0.8139  0.2857 -1.2028
 1001MOL0     H32114   5.426   8.215   9.583  0.6920  0.7463 -3.1349
 1001MOL0     H32115   5.671   8.205   9.541  2.5656 -1.9260  1.2657
 1001MOL0     H32116   6.108   8.017   9.857  1.9217 -2.0073  1.0405
 1001MOL0     H32117   6.338   8.007   9.839 -1.5180 -2.2311  1.1245
 1001MOL0     H32118   8.086   8.476   9.247 -1.4245 -0.8576 -0.7662
 1001MOL0     H32119   8.321   8.511   9.312 -2.0845  0.3804  0.9193
 1001MOL0     H32120   8.732   8.531   9.284 -0.1125 -0.6339 -0.1583
 1001MOL0     H32121   8.968   8.541   9.304  0.6894  0.9674  2.4135
 1001MOL0     H32122   9.303   8.389   9.336 -0.6046 -1.5532  0.8165
 1001MOL0     H32123   9.172   8.500   9.282  3.7103  1.3045 -0.0688
 1001MOL0     H32124   9.070   8.314   9.147 -0.3675  2.8476  0.0923
 1001MOL0     H32125   9.241   8.354   9.112 -0.4250  1.3825 -0.5009
 1001MOL0     H32126   9.225   8.134   9.322  0.3392  1.0700  0.2938
 1001MOL0     H32127   9.334   8.153   9.198 -0.5720 -1.6824 -1.6572
 1001MOL0     H32128   9.188   8.037   9.037  2.9289 -3.2001  0.4753
 1001MOL0     H32129   9.210   7.950   9.181 -0.3144 -0.5332 -0.6093
 1001MOL0     H32130   8.804   8.035   9.236  0.3884 -1.6186  0.8393
 1001MOL0     H32131   8.963   8.147   9.498 -2.3073 -0.7057  1.5365
 1001MOL0     H32132   8.727   8.141   9.467  0.7911 -0.6551 -1.5022
 1002MOL0     O32133   5.801   6.579   3.846  0.7152 -0.9166  0.0613
 1002MOL0     C32134   5.741   6.681   3.864 -0.1962  0.9358 -0.4110
 1002MOL0     O32135   5.610   6.686   3.902 -0.2441 -0.2598 -0.3290
 1002MOL0     C32136   5.514   6.584   3.900  0.0053  0.0743  0.9237
 1002MOL0     C32137   5.522   6.472   3.812  0.5099  0.1250 -0.1422
 1002MOL0     C32138   5.409   6.402   3.778 -0.7964 -0.6416  0.3091
 1002MOL0     C32139   5.289   6.433   3.831 -0.9427 -0.0161 -0.4557
 1002MOL0     O32140   5.173   6.374   3.794 -0.8270 -0.0923 -1.0626
 1002MOL0     C32141   5.178   6.229   3.768 -0.0041 -0.2793 -0.0630
 1002MOL0     C32142   5.044   6.194   3.699  0.3443  0.6054  0.1426
 1002MOL0     C32143   4.921   6.225   3.790  0.2081  0.0219  0.1441
 1002MOL0     C32144   4.802   6.172   3.704  0.0020 -0.4516 -0.5510
 1002MOL0     C32145   4.669   6.217   3.775 -0.3437  0.0561 -0.1738
 1002MOL0     C32146   4.549   6.153   3.699 -0.0236 -0.7783 -0.5388
 1002MOL0     C32147   4.410   6.199   3.759 -0.1768  0.3885 -0.0403
 1002MOL0     C32148   4.289   6.142   3.684  0.1450  0.5987 -0.8929
 1002MOL0     N32149   4.164   6.156   3.763 -0.0273  0.2239 -0.3401
 1002MOL0     C32150   4.112   6.273   3.813  0.2626  0.3484 -0.2090
 1002MOL0     C32151   3.975   6.261   3.832 -0.0120 -0.2883 -0.3137
 1002MOL0     C32152   3.887   6.368   3.889  0.5353 -0.5835  0.1082
 1002MOL0     C32153   3.769   6.311   3.959 -1.1108 -0.2175  0.4121
 1002MOL0     C32154   3.659   6.257   3.862 -0.4947  0.4470  0.4453
 1002MOL0     C32155   3.533   6.210   3.938 -0.5413 -0.1387 -0.1336
 1002MOL0     O32156   3.424   6.214   3.844 -1.3969 -0.0381  0.0384
 1002MOL0     C32157   3.300   6.194   3.898  0.5876 -0.4790  0.2448
 1002MOL0     C32158   3.264   6.080   3.966  0.0827 -0.6393  0.4453
 1002MOL0     C32159   3.138   6.075   4.016  0.6414  0.4519 -0.0843
 1002MOL0     C32160   3.040   6.171   3.991 -0.3646  0.2845  0.3242
 1002MOL0     C32161   2.905   6.154   4.033 -0.3654 -0.3161 -0.2288
 1002MOL0     O32162   2.868   6.039   4.084  0.1098 -0.7438  0.0151
 1002MOL0     C32163   2.732   6.022   4.083 -0.9437  0.1854 -1.0811
 1002MOL0     C32164   2.669   6.002   4.206 -0.7157  0.5174  0.1264
 1002MOL0     C32165   2.542   5.961   4.220 -0.0390  0.0807  0.5102
 1002MOL0     C32166   2.462   5.945   4.103 -0.5260 -0.0193 -0.0062
 1002MOL0     O32167   2.337   5.920   4.124  0.2737  0.2542 -0.3452
 1002MOL0     C32168   2.245   5.895   4.013  0.4304 -0.2743 -0.1709
 1002MOL0     C32169   2.096   5.901   4.056 -0.0456  0.1945 -0.5928
 1002MOL0     C32170   2.048   5.771   4.132 -0.0653 -0.9257  0.2188
 1002MOL0     C32171   1.900   5.782   4.154 -0.1462  0.0783 -0.9671
 1002MOL0     C32172   1.848   5.682   4.255 -0.1056  0.2834  0.3547
 1002MOL0     C32173   1.697   5.692   4.265  0.4143 -0.1064  0.5160
 1002MOL0     C32174   1.648   5.582   4.359 -1.0731 -0.2021  0.3503
 1002MOL0     C32175   1.525   5.624   4.433  0.1589 -0.7691  0.2994
 1002MOL0    Cl32176   1.540   5.777   4.525  0.3589 -0.1121 -0.2431
 1002MOL0     C32177   2.522   5.958   3.975  0.0355 -0.4360  0.5201
 1002MOL0     C32178   2.662   5.992   3.967 -0.1672 -0.4062 -0.0510
 1002MOL0     O32179   2.832   6.250   4.017  0.8658 -0.1640 -0.3391
 1002MOL0     C32180   3.085   6.286   3.916 -0.0946  0.1566  0.0752
 1002MOL0     C32181   3.211   6.292   3.866 -0.0862  0.3736 -0.5717
 1002MOL0     N32182   3.945   6.127   3.790 -0.1593 -0.5515 -0.9454
 1002MOL0     N32183   4.056   6.075   3.755  0.0710 -0.3267  0.2936
 1002MOL0     C32184   5.276   6.541   3.925 -0.0601  0.4819  0.6842
 1002MOL0     C32185   5.392   6.619   3.962  0.0902  0.0468 -0.5297
 1002MOL0     C32186   5.824   6.802   3.870 -0.1160 -0.1920 -0.1067
 1002MOL0     C32187   5.769   6.913   3.928 -0.3878 -1.0952 -0.8367
 1002MOL0     C32188   5.835   7.036   3.916 -1.0932 -0.5717 -0.2810
 1002MOL0     C32189   5.957   7.050   3.850 -0.0529 -0.3217 -0.2110
 1002MOL0     O32190   6.022   7.171   3.826 -0.3812  0.8783 -0.6356
 1002MOL0     C32191   6.171   7.167   3.824  0.0399 -0.6142  0.5975
 1002MOL0     C32192   6.230   7.301   3.824  0.5705 -0.0958 -0.0932
 1002MOL0     C32193   6.386   7.296   3.817  0.1179 -0.6557  0.0218
 1002MOL0     C32194   6.462   7.427   3.777 -0.1967  0.5192  0.0779
 1002MOL0     C32195   6.601   7.398   3.740 -0.3422  0.5064  0.7134
 1002MOL0     C32196   6.725   7.373   3.719  0.1460 -0.4933 -0.2807
 1002MOL0     C32197   6.013   6.932   3.791  0.0081 -0.6782  0.0934
 1002MOL0     C32198   5.940   6.814   3.793 -0.3117  0.8500  1.3151
 1002MOL0     H32199   5.612   6.457   3.753  2.2969 -0.3712  2.5195
 1002MOL0     H32200   5.425   6.331   3.697  0.5407  1.5033 -1.4710
 1002MOL0     H32201   5.181   6.175   3.863  0.4599 -0.1002  0.0257
 1002MOL0     H32202   5.266   6.206   3.707  2.3557  5.2846  0.6480
 1002MOL0     H32203   5.051   6.085   3.691 -0.6319  0.2785  2.7407
 1002MOL0     H32204   5.045   6.250   3.606  1.9450  1.5158  0.6724
 1002MOL0     H32205   4.902   6.332   3.804 -1.5271 -0.3943  1.1969
 1002MOL0     H32206   4.936   6.178   3.887  0.6831 -1.2028 -0.5009
 1002MOL0     H32207   4.803   6.227   3.610 -0.6705 -1.2918 -1.0716
 1002MOL0     H32208   4.808   6.068   3.670 -0.9920 -0.3743 -0.9948
 1002MOL0     H32209   4.661   6.326   3.770  1.3952  0.1850 -0.5623
 1002MOL0     H32210   4.656   6.169   3.873 -2.2476 -1.7831 -1.2210
 1002MOL0     H32211   4.551   6.044   3.705  3.8433 -0.8154  0.2719
 1002MOL0     H32212   4.553   6.188   3.595 -0.7944  2.0192  0.2636
 1002MOL0     H32213   4.410   6.176   3.866 -1.5635  0.1190 -0.0699
 1002MOL0     H32214   4.398   6.306   3.740 -0.3900  0.1283 -1.4312
 1002MOL0     H32215   4.311   6.041   3.649 -1.0301 -0.1571  0.4725
 1002MOL0     H32216   4.272   6.209   3.599  0.8128  0.4124 -1.1857
 1002MOL0     H32217   4.183   6.355   3.815  0.5272  0.1135  0.0020
 1002MOL0     H32218   3.860   6.436   3.807  1.0006  0.2289  0.6111
 1002MOL0     H32219   3.945   6.424   3.964 -1.2595  1.0221  0.3816
 1002MOL0     H32220   3.717   6.382   4.024  0.0191 -1.5880  2.9440
 1002MOL0     H32221   3.818   6.238   4.023 -1.3656  0.5153  1.4803
 1002MOL0     H32222   3.621   6.342   3.804 -0.0163  1.2018  1.2205
 1002MOL0     H32223   3.697   6.179   3.794 -0.4249 -0.6357  1.6927
 1002MOL0     H32224   3.517   6.282   4.019 -2.0890 -0.3773 -0.1951
 1002MOL0     H32225   3.535   6.109   3.979  0.8876  0.0588  0.3126
 1002MOL0     H32226   3.332   6.004   4.005 -0.7793 -0.5026  2.3531
 1002MOL0     H32227   3.110   5.986   4.071  2.0693 -2.0021 -3.0285
 1002MOL0     H32228   2.727   6.020   4.296  0.6597  2.1456 -1.0206
 1002MOL0     H32229   2.497   5.942   4.317  0.7064 -1.5680  0.5493
 1002MOL0     H32230   2.272   5.796   3.974 -4.1193 -1.4701 -0.8220
 1002MOL0     H32231   2.254   5.975   3.940 -0.7664 -0.2610 -0.3183
 1002MOL0     H32232   2.035   5.918   3.967 -1.0163  1.2194  0.2422
 1002MOL0     H32233   2.083   5.985   4.124 -1.5892  2.4998 -3.4984
 1002MOL0     H32234   2.112   5.757   4.220 -0.8381 -1.7964  0.6760
 1002MOL0     H32235   2.069   5.690   4.062 -0.3232  1.6625 -3.1040
 1002MOL0     H32236   1.874   5.883   4.187  3.6440  0.5727  1.0259
 1002MOL0     H32237   1.849   5.764   4.059 -0.9159  1.4674 -0.8430
 1002MOL0     H32238   1.903   5.707   4.347 -0.1870  0.2910  0.4019
 1002MOL0     H32239   1.879   5.580   4.232  1.1582  1.1118 -1.9243
 1002MOL0     H32240   1.650   5.673   4.168 -0.6897  0.1442  0.9900
 1002MOL0     H32241   1.664   5.795   4.281 -3.5029  0.4202 -6.6603
 1002MOL0     H32242   1.619   5.496   4.296 -1.3467  1.2461 -1.5966
 1002MOL0     H32243   1.726   5.551   4.428  0.5711  0.5496 -1.1025
 1002MOL0     H32244   1.499   5.545   4.504  0.4761 -0.5177  0.6963
 1002MOL0     H32245   1.434   5.638   4.373  1.1470  2.5034 -0.6672
 1002MOL0     H32246   2.471   5.939   3.881  0.2820  0.4072  0.2095
 1002MOL0     H32247   2.704   6.013   3.869 -1.8783  1.2160 -0.4980
 1002MOL0     H32248   3.014   6.368   3.905  0.3668  0.6612  0.7887
 1002MOL0     H32249   3.231   6.376   3.799 -3.2132 -0.2788 -2.5551
 1002MOL0     H32250   5.182   6.553   3.979  0.3578  0.3202  1.4744
 1002MOL0     H32251   5.394   6.710   4.021  1.0997  2.2303 -3.6662
 1002MOL0     H32252   5.677   6.919   3.986  0.5460  1.1050  0.5649
 1002MOL0     H32253   5.792   7.126   3.960  1.5056 -0.4343  2.2313
 1002MOL0     H32254   6.222   7.107   3.747  1.1001 -0.3438  1.0717
 1002MOL0     H32255   6.207   7.123   3.917 -0.7684  0.4782  1.4501
 1002MOL0     H32256   6.187   7.358   3.742  1.3831  0.4509 -0.1472
 1002MOL0     H32257   6.202   7.356   3.914 -1.2035 -0.8654 -0.1316
 1002MOL0     H32258   6.417   7.217   3.748 -3.1395  0.7416 -3.3561
 1002MOL0     H32259   6.419   7.271   3.919  1.8692 -0.5378 -0.4770
 1002MOL0     H32260   6.410   7.491   3.705  1.1725 -0.5730 -1.9999
 1002MOL0     H32261   6.461   7.498   3.861  0.7684  1.0705 -0.3546
 1002MOL0     H32262   6.830   7.353   3.716  0.4883  0.5651  2.0464
 1002MOL0     H32263   6.109   6.934   3.741  0.2347  2.0560  0.4980
 1002MOL0     H32264   5.986   6.732   3.740 -1.3640 -0.0460  1.7593
 1003MOL0     O32265   4.162   9.981   1.067  0.4902  0.7233 -0.1109
 1003MOL0     C32266   4.250   9.894   1.086  0.0613  0.1690 -0.7083
 1003MOL0     O32267   4.220   9.761   1.111  0.3481 -0.0092 -0.5583
 1003MOL0     C32268   4.089   9.722   1.112 -1.2177 -0.5418 -0.9751
 1003MOL0     C32269   4.045   9.676   1.237  0.0671 -0.0893  0.2891
 1003MOL0     C32270   3.922   9.628   1.234  0.2331 -0.3817 -0.0688
 1003MOL0     C32271   3.837   9.615   1.124  0.0855 -1.3165  0.1718
 1003MOL0     O32272   3.706   9.586   1.133 -0.2622 -0.9471  0.1634
 1003MOL0     C32273   3.636   9.672   1.227 -0.1505  1.0936 -0.5625
 1003MOL0     C32274   3.558   9.599   1.342 -0.2166 -0.3880  0.0382
 1003MOL0     C32275   3.478   9.485   1.279 -0.5011  0.1381  0.1697
 1003MOL0     C32276   3.400   9.414   1.392  0.5763  0.3860 -0.3039
 1003MOL0     C32277   3.486   9.319   1.480  0.2422 -0.1282  0.0330
 1003MOL0     C32278   3.470   9.356   1.629 -0.1382  0.5494  0.0063
 1003MOL0     C32279   3.332   9.350   1.689  0.5331  0.2673 -0.3093
 1003MOL0     C32280   3.320   9.283   1.831  0.5581  0.2561 -0.1925
 1003MOL0     N32281   3.339   9.382   1.937  0.4170  0.5657  0.0399
 1003MOL0     C32282   3.455   9.437   1.966 -0.9002 -0.1174  0.6080
 1003MOL0     C32283   3.420   9.532   2.063  0.3392 -0.0392  0.2993
 1003MOL0     C32284   3.538   9.618   2.111  0.2780 -0.6938  0.4295
 1003MOL0     C32285   3.539   9.747   2.019  0.4077  0.3723 -0.6784
 1003MOL0     C32286   3.658   9.829   2.030  0.3703 -0.4581 -0.1925
 1003MOL0     C32287   3.791   9.762   2.006  0.5469  0.3847 -0.7935
 1003MOL0     O32288   3.808   9.674   1.891  0.6650  0.5545  0.3494
 1003MOL0     C32289   3.928   9.643   1.849 -0.1858  0.7182  0.8549
 1003MOL0     C32290   3.932   9.595   1.715  0.4274  0.2884 -0.1825
 1003MOL0     C32291   4.049   9.559   1.654 -0.5919  0.1644  0.1918
 1003MOL0     C32292   4.170   9.583   1.717 -1.0652  0.1935 -0.8241
 1003MOL0     C32293   4.296   9.544   1.651  0.3281  0.6495  0.1721
 1003MOL0     O32294   4.284   9.450   1.555 -0.0880  0.0699  0.3686
 1003MOL0     C32295   4.387   9.427   1.470 -0.6658  1.0516  0.6751
 1003MOL0     C32296   4.372   9.432   1.334 -1.0587  0.1524 -0.2766
 1003MOL0     C32297   4.471   9.402   1.237  1.2702  0.2709 -0.0192
 1003MOL0     C32298   4.600   9.382   1.272 -0.3409 -0.4803  0.6240
 1003MOL0     O32299   4.700   9.389   1.176  0.2709 -0.2589  0.1951
 1003MOL0     C32300   4.832   9.368   1.213 -0.8106  0.9485 -0.7761
 1003MOL0     C32301   4.910   9.337   1.097 -1.0146  0.4814  0.4779
 1003MOL0     C32302   4.893   9.197   1.041  0.1649  0.4383 -0.7322
 1003MOL0     C32303   4.970   9.188   0.912 -0.4526  0.3450 -0.2419
 1003MOL0     C32304   4.977   9.058   0.840 -0.3744  0.0237  0.1740
 1003MOL0     C32305   4.840   9.011   0.784 -1.0246  0.2268 -0.6837
 1003MOL0     C32306   4.862   8.887   0.695  0.1651  0.6713 -0.6009
 1003MOL0     C32307   4.733   8.824   0.650  0.2349 -0.4729  0.1408
 1003MOL0    Cl32308   4.770   8.678   0.559 -0.4912 -0.2669 -0.3629
 1003MOL0     C32309   4.624   9.377   1.412  0.4946  0.2421 -0.5959
 1003MOL0     C32310   4.524   9.397   1.509  0.8065 -0.2871  0.2809
 1003MOL0     O32311   4.399   9.602   1.689  0.1158 -0.4516 -0.3337
 1003MOL0     C32312   4.173   9.634   1.853 -0.1716  0.1432  0.3220
 1003MOL0     C32313   4.046   9.659   1.916 -0.0273 -1.2463 -0.1389
 1003MOL0     N32314   3.291   9.517   2.100 -0.4562 -0.0656 -0.7702
 1003MOL0     N32315   3.245   9.433   2.021 -0.3048  0.0627  0.4615
 1003MOL0     C32316   3.895   9.643   1.000  0.1601 -0.2268 -0.5088
 1003MOL0     C32317   4.020   9.711   0.997  0.2771  0.7800  0.6527
 1003MOL0     C32318   4.390   9.933   1.067  0.3702 -0.0700  0.7404
 1003MOL0     C32319   4.430  10.070   1.029 -0.4510 -1.0617 -0.4846
 1003MOL0     C32320   4.563  10.095   0.983  0.2338  0.1850 -0.3291
 1003MOL0     C32321   4.658   9.990   0.958 -0.1075  0.3144  0.9779
 1003MOL0     O32322   4.779  10.002   0.899 -0.1489 -0.2821 -0.4399
 1003MOL0     C32323   4.887   9.991   0.998 -0.0783 -0.5016  0.8021
 1003MOL0     C32324   4.949   9.854   0.963 -0.4270  0.6619 -0.6286
 1003MOL0     C32325   5.015   9.843   0.825  0.0175  0.1617 -0.3532
 1003MOL0     C32326   5.061   9.697   0.799 -0.3305 -0.0699 -0.1916
 1003MOL0     C32327   4.963   9.609   0.745 -0.4835  0.3993 -1.3399
 1003MOL0     C32328   4.886   9.533   0.691  1.4275 -0.6168 -0.8017
 1003MOL0     C32329   4.606   9.862   0.983 -0.1765  0.8280 -0.0492
 1003MOL0     C32330   4.489   9.829   1.044  0.2195  0.3118 -0.1823
 1003MOL0     H32331   4.103   9.668   1.328  1.2911 -1.6497 -0.5634
 1003MOL0     H32332   3.883   9.591   1.328 -1.5076 -0.3401 -0.7366
 1003MOL0     H32333   3.554   9.718   1.171 -0.6050  2.0739  0.8478
 1003MOL0     H32334   3.696   9.753   1.268  0.9684 -0.9712  2.2359
 1003MOL0     H32335   3.494   9.658   1.408  1.1688 -2.2532  3.2849
 1003MOL0     H32336   3.632   9.558   1.411  0.5860  1.6737  0.4769
 1003MOL0     H32337   3.545   9.414   1.230  1.9211  1.2631  1.6360
 1003MOL0     H32338   3.410   9.522   1.201  0.3432  0.7658 -0.2819
 1003MOL0     H32339   3.346   9.489   1.450 -1.1933 -0.4832 -0.7292
 1003MOL0     H32340   3.324   9.355   1.338  1.0700 -0.8288  0.2858
 1003MOL0     H32341   3.590   9.307   1.451  0.6700  0.4502  1.2739
 1003MOL0     H32342   3.446   9.217   1.468  0.5238 -0.1905 -0.3858
 1003MOL0     H32343   3.511   9.457   1.644  0.3642  0.0955  1.9375
 1003MOL0     H32344   3.537   9.287   1.682 -0.4188 -1.4161 -2.0672
 1003MOL0     H32345   3.276   9.443   1.701 -2.0779 -1.2601  0.1581
 1003MOL0     H32346   3.277   9.285   1.620  2.0200  0.2554 -1.5637
 1003MOL0     H32347   3.389   9.199   1.841  0.0100 -0.4749 -2.1434
 1003MOL0     H32348   3.221   9.236   1.840  0.2236  0.7720 -0.9809
 1003MOL0     H32349   3.548   9.422   1.912 -2.9276 -1.5743 -2.7800
 1003MOL0     H32350   3.632   9.565   2.095 -0.5098 -1.2081 -3.6909
 1003MOL0     H32351   3.521   9.657   2.212 -2.6716  4.3470 -1.6001
 1003MOL0     H32352   3.461   9.816   2.050  1.3900  1.8850 -1.4336
 1003MOL0     H32353   3.533   9.714   1.915 -0.0620 -0.6761 -0.3314
 1003MOL0     H32354   3.646   9.918   1.967 -0.8346 -0.3771  0.1268
 1003MOL0     H32355   3.653   9.864   2.134 -0.2617 -1.2975  0.0692
 1003MOL0     H32356   3.808   9.697   2.092  1.0259 -0.2125 -1.3283
 1003MOL0     H32357   3.859   9.848   2.007  1.2293 -0.1532 -0.0226
 1003MOL0     H32358   3.839   9.566   1.666  2.0142 -2.5014 -1.8165
 1003MOL0     H32359   4.037   9.512   1.557  1.2732  1.6226 -0.8022
 1003MOL0     H32360   4.270   9.461   1.310 -0.7056  1.4160 -0.2952
 1003MOL0     H32361   4.440   9.411   1.133 -0.8146 -4.2759 -0.0595
 1003MOL0     H32362   4.847   9.287   1.284  2.9673  2.2111  0.1055
 1003MOL0     H32363   4.860   9.463   1.259 -2.4961  1.9625 -1.7115
 1003MOL0     H32364   5.016   9.348   1.121 -0.8318  0.7831 -0.4252
 1003MOL0     H32365   4.890   9.402   1.012  1.6245  1.0059  0.1778
 1003MOL0     H32366   4.785   9.178   1.035 -0.2669  0.7473  3.1839
 1003MOL0     H32367   4.932   9.126   1.116 -0.1990  1.3186  0.3188
 1003MOL0     H32368   4.926   9.260   0.842  0.9624 -0.1539 -1.7091
 1003MOL0     H32369   5.075   9.207   0.937  0.5177 -0.8024 -3.0282
 1003MOL0     H32370   5.017   8.977   0.901 -1.9257  0.1992  1.5001
 1003MOL0     H32371   5.035   9.077   0.749 -1.2231 -0.4014 -0.4809
 1003MOL0     H32372   4.794   9.089   0.722 -1.4873  1.2213  0.8813
 1003MOL0     H32373   4.770   8.989   0.865 -1.9529  1.3042 -1.1637
 1003MOL0     H32374   4.928   8.912   0.612  1.6334 -2.0606 -0.3859
 1003MOL0     H32375   4.931   8.814   0.741  4.4487  2.0849 -4.1008
 1003MOL0     H32376   4.672   8.902   0.603 -0.2869  0.1834  1.8021
 1003MOL0     H32377   4.675   8.785   0.734 -1.8835 -0.5238 -1.2551
 1003MOL0     H32378   4.722   9.366   1.458 -1.1093  0.7493  3.3351
 1003MOL0     H32379   4.541   9.398   1.616 -3.2013 -0.6636  1.0758
 1003MOL0     H32380   4.267   9.655   1.905 -0.0816 -1.2233  0.7388
 1003MOL0     H32381   4.050   9.703   2.016  0.1120 -1.9092  0.1574
 1003MOL0     H32382   3.832   9.629   0.913 -0.8908  0.6678  0.0835
 1003MOL0     H32383   4.057   9.750   0.902 -1.2672 -0.2119 -0.4131
 1003MOL0     H32384   4.359  10.149   1.050  2.5204  1.5584  0.5180
 1003MOL0     H32385   4.601  10.194   0.960 -0.0180  0.2206 -0.6060
 1003MOL0     H32386   4.857   9.982   1.103  2.7739 -1.8067  1.6176
 1003MOL0     H32387   4.965  10.067   0.986  0.7523 -1.4881 -0.3087
 1003MOL0     H32388   5.025   9.840   1.040 -1.4246 -0.0671  0.2536
 1003MOL0     H32389   4.880   9.771   0.978  0.3194  0.5405  3.1926
 1003MOL0     H32390   5.102   9.909   0.825  0.5254 -0.0440  5.5160
 1003MOL0     H32391   4.942   9.874   0.750 -1.9682  3.7003  2.7342
 1003MOL0     H32392   5.146   9.696   0.730 -0.5243 -1.4222 -0.4277
 1003MOL0     H32393   5.095   9.671   0.899  2.4889  1.2728 -0.6967
 1003MOL0     H32394   4.810   9.475   0.641 -0.7016  0.7574  0.6971
 1003MOL0     H32395   4.672   9.778   0.961  3.0318  3.5941 -1.9933
 1003MOL0     H32396   4.462   9.724   1.048 -0.2766  0.4624  0.7387
 1004MOL0     O32397  11.158   1.654   9.450 -0.4766 -0.4669  0.8735
 1004MOL0     C32398  11.182   1.647   9.569  0.2253  0.3335  0.0982
 1004MOL0     O32399  11.099   1.597   9.668 -0.0756  0.9396  0.3191
 1004MOL0     C32400  10.976   1.553   9.630  0.6307  0.9732  0.1085
 1004MOL0     C32401  10.962   1.418   9.602 -0.8736  0.2346 -0.9115
 1004MOL0     C32402  10.840   1.372   9.555 -0.6481 -0.5691 -0.1508
 1004MOL0     C32403  10.732   1.456   9.557  0.4693  0.1986  1.1753
 1004MOL0     O32404  10.609   1.395   9.530 -0.0443  0.4765  0.0035
 1004MOL0     C32405  10.494   1.457   9.582  0.1568  0.2628 -0.3706
 1004MOL0     C32406  10.368   1.379   9.540 -0.1552  0.0551  0.1435
 1004MOL0     C32407  10.384   1.235   9.599 -0.1487  0.4053 -0.0747
 1004MOL0     C32408  10.301   1.129   9.532  0.3158 -0.6727  0.0070
 1004MOL0     C32409  10.155   1.149   9.576 -0.0086  0.9601 -0.0822
 1004MOL0     C32410  10.069   1.053   9.497 -0.1755  0.1213  0.6137
 1004MOL0     C32411   9.924   1.088   9.522 -0.7547 -0.0559  0.3176
 1004MOL0     C32412   9.833   0.982   9.449 -1.1773 -0.1925 -0.3736
 1004MOL0     N32413   9.697   1.004   9.495 -0.4553  0.1070  0.6021
 1004MOL0     C32414   9.600   1.089   9.437  1.1780 -0.2188  0.3438
 1004MOL0     C32415   9.490   1.057   9.513 -0.3474  0.0331 -0.9854
 1004MOL0     C32416   9.351   1.091   9.483 -0.5996 -0.2311  0.5332
 1004MOL0     C32417   9.320   1.233   9.533  0.2876  0.2085  0.5964
 1004MOL0     C32418   9.302   1.228   9.693  0.1324 -0.6808  0.4439
 1004MOL0     C32419   9.245   1.358   9.749 -0.3964 -0.0983 -0.0896
 1004MOL0     O32420   9.223   1.330   9.890 -1.2684 -0.0568  0.3337
 1004MOL0     C32421   9.197   1.443   9.966  0.3829  0.9147  0.3572
 1004MOL0     C32422   9.228   1.436  10.101 -0.5650  0.4537 -0.5175
 1004MOL0     C32423   9.216   1.551  10.184  1.2924  1.2321 -0.8927
 1004MOL0     C32424   9.175   1.670  10.135  0.2593 -0.5392 -0.4119
 1004MOL0     C32425   9.183   1.795  10.216 -0.2367  0.2080 -0.1488
 1004MOL0     O32426   9.159   1.910  10.154  0.0440 -0.2007  0.3936
 1004MOL0     C32427   9.166   2.038  10.203 -0.3797  0.3702  0.1017
 1004MOL0     C32428   9.255   2.075  10.301 -0.1066  0.6003 -0.3289
 1004MOL0     C32429   9.257   2.205  10.347 -0.1488 -0.0072  0.4490
 1004MOL0     C32430   9.168   2.304  10.298 -0.8657  0.0531  0.2946
 1004MOL0     O32431   9.185   2.423  10.344  0.0991 -0.1520  0.5881
 1004MOL0     C32432   9.081   2.522  10.332 -0.6037  0.0025 -0.0325
 1004MOL0     C32433   9.134   2.657  10.383  0.7038  0.5756 -0.7244
 1004MOL0     C32434   9.262   2.691  10.314  0.1577  0.4118 -0.2664
 1004MOL0     C32435   9.308   2.834  10.349  0.5211 -0.7180  0.5947
 1004MOL0     C32436   9.451   2.865  10.303 -0.6113  0.5732 -0.1788
 1004MOL0     C32437   9.542   2.828  10.417  0.1505  0.6701 -0.0901
 1004MOL0     C32438   9.680   2.808  10.361  0.0550  0.3721 -0.0902
 1004MOL0     C32439   9.772   2.826  10.478  0.5033 -0.5798  0.2285
 1004MOL0    Cl32440   9.934   2.802  10.411  0.2241 -0.0573  0.1800
 1004MOL0     C32441   9.074   2.264  10.197 -0.3138  0.1977 -0.2124
 1004MOL0     C32442   9.084   2.133  10.148  0.2784  0.0118 -0.0207
 1004MOL0     O32443   9.200   1.782  10.342  0.1751  0.0371  0.0530
 1004MOL0     C32444   9.150   1.672  10.001 -0.2048 -0.7511  0.0158
 1004MOL0     C32445   9.141   1.559   9.919 -0.3735  0.6307 -0.7803
 1004MOL0     N32446   9.512   0.972   9.614  0.2115  0.1402 -0.4069
 1004MOL0     N32447   9.637   0.940   9.607  0.2530 -0.9859 -0.1151
 1004MOL0     C32448  10.750   1.594   9.574 -0.3019 -0.7253  0.6174
 1004MOL0     C32449  10.870   1.645   9.615  0.1449 -0.0642  0.5772
 1004MOL0     C32450  11.315   1.684   9.621 -0.0658 -0.4053  0.0569
 1004MOL0     C32451  11.345   1.654   9.761  0.5093  1.3789  0.3505
 1004MOL0     C32452  11.473   1.677   9.810 -0.0664  0.1378 -0.2202
 1004MOL0     C32453  11.575   1.723   9.729 -0.3803 -0.6919  0.6373
 1004MOL0     O32454  11.704   1.731   9.779  0.5974 -0.5347  0.6607
 1004MOL0     C32455  11.793   1.619   9.796 -0.5003  0.3125 -0.0770
 1004MOL0     C32456  11.798   1.563   9.938 -0.5047 -0.3689  0.4332
 1004MOL0     C32457  11.879   1.648  10.037  0.5341 -0.1195  0.5149
 1004MOL0     C32458  11.924   1.553  10.147 -0.9562 -0.4437 -0.1939
 1004MOL0     C32459  12.051   1.606  10.210  0.0614 -0.0461  0.5335
 1004MOL0     C32460  12.149   1.641  10.261 -0.2981  0.3620 -0.5004
 1004MOL0     C32461  11.544   1.757   9.597  0.2163  0.0285  0.3336
 1004MOL0     C32462  11.419   1.734   9.537  0.1143 -0.0121  0.0781
 1004MOL0     H32463  11.042   1.348   9.626 -0.2697  1.4177  0.7000
 1004MOL0     H32464  10.825   1.266   9.532 -1.4374 -0.0959 -1.9927
 1004MOL0     H32465  10.483   1.559   9.544 -0.3235  1.3215  2.3405
 1004MOL0     H32466  10.493   1.470   9.691  0.9424 -1.3751 -0.1258
 1004MOL0     H32467  10.360   1.377   9.431 -0.9722 -0.4383  0.2047
 1004MOL0     H32468  10.281   1.433   9.580  2.4928  2.5930  3.0655
 1004MOL0     H32469  10.377   1.236   9.708 -0.4963 -1.0079 -0.0683
 1004MOL0     H32470  10.485   1.199   9.577 -1.1132 -2.3624 -0.3612
 1004MOL0     H32471  10.315   1.139   9.424  1.9125 -1.4099  0.1204
 1004MOL0     H32472  10.340   1.034   9.569  1.6208 -0.0738  0.2565
 1004MOL0     H32473  10.129   1.252   9.552  0.3340  0.7197 -1.6326
 1004MOL0     H32474  10.144   1.117   9.680 -1.8210  2.7350  0.3488
 1004MOL0     H32475  10.082   0.953   9.539  1.0522  0.3046  0.7008
 1004MOL0     H32476  10.097   1.058   9.391  2.8931  2.6131  1.3762
 1004MOL0     H32477   9.916   1.077   9.630  2.0407 -3.4327  0.3454
 1004MOL0     H32478   9.889   1.186   9.488 -2.9239 -0.9220 -0.1294
 1004MOL0     H32479   9.875   0.886   9.479  2.8224  1.9496  1.7546
 1004MOL0     H32480   9.843   0.989   9.340 -1.0322  0.2722 -0.3364
 1004MOL0     H32481   9.613   1.147   9.346 -3.7600 -3.6221 -3.0118
 1004MOL0     H32482   9.281   1.023   9.533 -0.7322 -1.0615 -0.7306
 1004MOL0     H32483   9.334   1.095   9.374  2.0318  3.9138  0.0744
 1004MOL0     H32484   9.225   1.270   9.492 -0.1051 -0.7287  0.6522
 1004MOL0     H32485   9.394   1.310   9.512  1.8968 -1.1232  1.2250
 1004MOL0     H32486   9.230   1.147   9.713 -2.1921  1.2857  0.5671
 1004MOL0     H32487   9.399   1.208   9.739 -0.0353 -0.6149  0.8380
 1004MOL0     H32488   9.149   1.372   9.699  1.1949 -1.9260 -4.0693
 1004MOL0     H32489   9.319   1.434   9.721 -0.3612  0.6175  1.8006
 1004MOL0     H32490   9.272   1.343  10.136 -2.5530 -0.8115 -1.2124
 1004MOL0     H32491   9.248   1.544  10.288 -0.0802  2.7055 -0.3461
 1004MOL0     H32492   9.317   1.996  10.344 -0.8984  1.5400  2.8472
 1004MOL0     H32493   9.330   2.230  10.423  0.2121 -1.5668  0.6635
 1004MOL0     H32494   9.014   2.489  10.412  2.1839 -1.6856  1.7658
 1004MOL0     H32495   9.032   2.522  10.234  1.2780 -0.6627 -1.0295
 1004MOL0     H32496   9.154   2.658  10.490  1.4060 -0.7531 -0.8234
 1004MOL0     H32497   9.052   2.730  10.372 -0.4213 -0.1193  2.0972
 1004MOL0     H32498   9.240   2.679  10.207 -0.6947 -0.4928 -0.0071
 1004MOL0     H32499   9.337   2.622  10.354  0.2763  1.1280  0.7741
 1004MOL0     H32500   9.240   2.906  10.303  2.2748  0.8487  0.3317
 1004MOL0     H32501   9.306   2.846  10.458 -1.4612  1.5949  0.3951
 1004MOL0     H32502   9.455   2.974  10.294  2.1305  0.9892  3.4156
 1004MOL0     H32503   9.476   2.820  10.207  2.1112 -2.2326  1.6314
 1004MOL0     H32504   9.511   2.738  10.471 -0.6446  2.0340  1.8197
 1004MOL0     H32505   9.550   2.911  10.488  0.6296 -1.6530  2.7588
 1004MOL0     H32506   9.697   2.706  10.326 -0.2718  0.8569 -1.7287
 1004MOL0     H32507   9.702   2.880  10.282  1.8842 -0.8394 -0.7436
 1004MOL0     H32508   9.747   2.749  10.552  0.2983 -1.4856 -0.7690
 1004MOL0     H32509   9.764   2.928  10.517 -0.9178  0.8045 -3.2913
 1004MOL0     H32510   8.997   2.328  10.156 -1.1980 -0.2511  0.6887
 1004MOL0     H32511   9.020   2.108  10.064  0.5237  1.3223 -0.6142
 1004MOL0     H32512   9.137   1.769   9.954  1.2000 -0.6119 -0.1320
 1004MOL0     H32513   9.097   1.558   9.821 -0.2677 -1.5605 -0.8547
 1004MOL0     H32514  10.664   1.658   9.560  0.6777  0.3124 -0.9753
 1004MOL0     H32515  10.895   1.750   9.607 -0.6884 -0.0084 -2.0338
 1004MOL0     H32516  11.271   1.603   9.822  2.5022 -1.1353  0.7980
 1004MOL0     H32517  11.504   1.649   9.910  2.1781  1.1162 -0.5895
 1004MOL0     H32518  11.893   1.624   9.753 -1.5861  0.4420 -2.7954
 1004MOL0     H32519  11.747   1.539   9.736 -0.4862  1.2427 -1.3857
 1004MOL0     H32520  11.697   1.557   9.980 -0.7041  2.1503  0.4536
 1004MOL0     H32521  11.843   1.463   9.931 -1.4596 -0.6852 -2.1949
 1004MOL0     H32522  11.817   1.726  10.082  1.0787  1.5297 -1.4769
 1004MOL0     H32523  11.956   1.697   9.977 -1.1572  0.2921 -1.4216
 1004MOL0     H32524  11.845   1.531  10.219 -2.1860  0.7869 -1.1260
 1004MOL0     H32525  11.964   1.461  10.104 -0.6530  0.7549 -2.6268
 1004MOL0     H32526  12.242   1.655  10.311 -0.6743 -1.6021  0.8680
 1004MOL0     H32527  11.619   1.817   9.547 -2.1591  1.2386 -1.9899
 1004MOL0     H32528  11.404   1.772   9.437  1.3864  3.4336  1.0559
 1005MOL0     O32529   5.011   2.273  10.893  0.1947 -0.2194 -0.2675
 1005MOL0     C32530   5.047   2.212  10.994  0.4760  0.0363 -0.3982
 1005MOL0     O32531   4.968   2.181  11.103  0.1716  0.2139 -0.0019
 1005MOL0     C32532   4.833   2.200  11.091 -0.1065  0.1265 -1.3779
 1005MOL0     C32533   4.741   2.155  10.992 -0.4048  0.4252 -0.1261
 1005MOL0     C32534   4.618   2.216  10.986  0.3521 -0.2923 -0.2196
 1005MOL0     C32535   4.568   2.308  11.074  0.2344 -0.2627 -0.5628
 1005MOL0     O32536   4.446   2.359  11.058  0.0461  0.0630  0.0674
 1005MOL0     C32537   4.434   2.490  11.121 -0.0678 -0.4576 -0.2765
 1005MOL0     C32538   4.287   2.537  11.101 -0.6246 -0.2727  0.0550
 1005MOL0     C32539   4.258   2.670  11.171 -0.2649  0.1064  0.0263
 1005MOL0     C32540   4.113   2.703  11.149  0.2953  0.7579 -0.2751
 1005MOL0     C32541   4.078   2.785  11.018  0.0981  0.2502  0.2489
 1005MOL0     C32542   3.926   2.798  11.005 -0.2653 -0.1856 -0.5856
 1005MOL0     C32543   3.841   2.864  11.113 -0.0399 -0.4397 -0.1680
 1005MOL0     C32544   3.707   2.924  11.069 -0.1554 -0.2345  0.2665
 1005MOL0     N32545   3.618   2.842  10.984  0.2287  0.4038  0.1077
 1005MOL0     C32546   3.578   2.717  11.009  0.1756  0.7578 -0.4546
 1005MOL0     C32547   3.495   2.690  10.903 -0.3587 -0.2035 -0.6916
 1005MOL0     C32548   3.423   2.552  10.890 -0.9891  0.1357  0.1168
 1005MOL0     C32549   3.271   2.555  10.925 -0.3736 -0.4990  1.1043
 1005MOL0     C32550   3.191   2.600  10.797  0.8368  0.1008  0.3363
 1005MOL0     C32551   3.053   2.538  10.809  0.2133  0.1215  0.7072
 1005MOL0     O32552   2.961   2.597  10.716 -0.2392  0.5867  0.5237
 1005MOL0     C32553   2.834   2.558  10.708 -0.2554  0.9107 -0.1093
 1005MOL0     C32554   2.785   2.456  10.792 -0.0671 -0.4822  1.0629
 1005MOL0     C32555   2.653   2.423  10.791  0.4102 -0.4384 -0.4419
 1005MOL0     C32556   2.558   2.493  10.709  0.6941  0.2167  0.1909
 1005MOL0     C32557   2.412   2.468  10.736 -0.4105  0.1311  0.3452
 1005MOL0     O32558   2.374   2.350  10.787 -0.0501 -1.0677 -0.3379
 1005MOL0     C32559   2.234   2.326  10.792 -0.3784 -1.1450  0.0990
 1005MOL0     C32560   2.139   2.341  10.691  0.3425 -0.0600  0.0540
 1005MOL0     C32561   2.005   2.323  10.711  0.0649 -0.0409  0.5556
 1005MOL0     C32562   1.961   2.268  10.833 -0.4511  0.2861  0.6149
 1005MOL0     O32563   1.828   2.250  10.856 -0.1527  0.1060 -0.4148
 1005MOL0     C32564   1.738   2.353  10.806 -0.3542 -0.6417  0.0469
 1005MOL0     C32565   1.596   2.321  10.843  1.0597  0.4333 -0.0377
 1005MOL0     C32566   1.566   2.191  10.768 -0.2364  0.9430  0.1527
 1005MOL0     C32567   1.422   2.141  10.809  0.3206  0.0380 -0.3929
 1005MOL0     C32568   1.364   2.042  10.704 -0.3566  0.4888  0.2003
 1005MOL0     C32569   1.336   1.904  10.764  0.8341  0.4502 -0.3535
 1005MOL0     C32570   1.331   1.789  10.659 -0.9512 -0.1770  0.0395
 1005MOL0     C32571   1.215   1.809  10.558 -0.8560  0.5269 -0.7213
 1005MOL0    Cl32572   1.040   1.818  10.615  0.1845  0.3543 -0.3630
 1005MOL0     C32573   2.059   2.229  10.928  1.3027  0.1926  0.1994
 1005MOL0     C32574   2.198   2.263  10.910  1.0584  0.5656 -0.0202
 1005MOL0     O32575   2.336   2.558  10.699 -0.1674  0.4008 -0.0866
 1005MOL0     C32576   2.609   2.596  10.626  0.8194 -0.7126 -0.4839
 1005MOL0     C32577   2.744   2.620  10.623  0.2196 -0.6344  0.1024
 1005MOL0     N32578   3.481   2.792  10.816  0.3328  0.1991 -0.1537
 1005MOL0     N32579   3.562   2.883  10.863  0.5601 -0.1202 -0.4656
 1005MOL0     C32580   4.659   2.336  11.181  0.0095 -0.6345 -0.6272
 1005MOL0     C32581   4.785   2.288  11.194 -0.4454  0.8910 -0.2171
 1005MOL0     C32582   5.189   2.181  11.006 -0.2444  0.4386 -0.2777
 1005MOL0     C32583   5.286   2.264  10.946 -0.4341  0.6063  0.5069
 1005MOL0     C32584   5.418   2.216  10.961 -0.1246  0.0761  0.2126
 1005MOL0     C32585   5.456   2.105  11.036  0.4897 -0.4291  0.5895
 1005MOL0     O32586   5.585   2.057  11.019 -0.1892  0.0485  0.1408
 1005MOL0     C32587   5.688   2.103  11.112 -0.0046  0.0100  0.2075
 1005MOL0     C32588   5.732   1.984  11.206 -0.0661  0.1855  0.7267
 1005MOL0     C32589   5.810   2.034  11.333  0.2410 -0.7573  0.0692
 1005MOL0     C32590   5.857   1.921  11.421 -0.7828 -0.0930 -0.4547
 1005MOL0     C32591   5.936   1.989  11.524  0.8208  0.4672  0.9225
 1005MOL0     C32592   6.020   2.032  11.603  1.2368 -0.5294  0.2002
 1005MOL0     C32593   5.355   2.033  11.105  0.1214 -0.5148  0.7370
 1005MOL0     C32594   5.226   2.074  11.083  0.1450  0.5490  0.1902
 1005MOL0     H32595   4.776   2.078  10.924 -1.9628  0.6604 -1.2664
 1005MOL0     H32596   4.570   2.187  10.893  1.3442  0.0077 -0.8464
 1005MOL0     H32597   4.497   2.568  11.077  0.9579 -1.7512 -1.1713
 1005MOL0     H32598   4.449   2.487  11.229 -0.3710 -0.5272 -0.2360
 1005MOL0     H32599   4.226   2.462  11.153  1.3439 -0.2853  2.5731
 1005MOL0     H32600   4.263   2.544  10.995 -2.0764  1.7678  0.4569
 1005MOL0     H32601   4.320   2.746  11.123  1.1068 -0.7742  0.3337
 1005MOL0     H32602   4.290   2.656  11.275 -0.7109  0.7872  0.2627
 1005MOL0     H32603   4.052   2.613  11.146 -0.0344  0.9499  0.4275
 1005MOL0     H32604   4.075   2.764  11.232 -0.1631  2.4150 -1.6454
 1005MOL0     H32605   4.104   2.718  10.936  0.0007  0.3040  0.1755
 1005MOL0     H32606   4.131   2.881  11.020 -0.0423  0.3505  3.2212
 1005MOL0     H32607   3.877   2.703  10.980 -1.2060  0.2307 -0.3798
 1005MOL0     H32608   3.909   2.859  10.916 -0.1881 -0.9362 -1.1229
 1005MOL0     H32609   3.822   2.785  11.186  1.8688 -0.6645  0.1292
 1005MOL0     H32610   3.907   2.939  11.157  3.1159 -2.2816 -1.4488
 1005MOL0     H32611   3.727   3.020  11.020  0.1253 -0.0489  0.7452
 1005MOL0     H32612   3.661   2.948  11.165 -4.8926 -1.0637 -1.5093
 1005MOL0     H32613   3.616   2.643  11.079  0.1984  1.8523  0.7287
 1005MOL0     H32614   3.466   2.476  10.955 -0.6571  0.5983  0.4473
 1005MOL0     H32615   3.438   2.527  10.785 -0.1624 -1.8297  0.6639
 1005MOL0     H32616   3.269   2.630  11.004 -2.2125 -0.6999  1.2755
 1005MOL0     H32617   3.242   2.456  10.961 -1.4693 -0.9906 -0.9567
 1005MOL0     H32618   3.181   2.709  10.796 -0.0680  0.0323  0.4874
 1005MOL0     H32619   3.239   2.569  10.705  0.7461 -2.1493  0.9958
 1005MOL0     H32620   3.014   2.552  10.910 -0.5724  2.3361  0.1701
 1005MOL0     H32621   3.051   2.430  10.795  0.4009  0.2805 -0.7936
 1005MOL0     H32622   2.845   2.403  10.865 -0.3964  0.6495  2.2027
 1005MOL0     H32623   2.615   2.346  10.857 -1.9840 -0.3719 -1.6366
 1005MOL0     H32624   2.166   2.386  10.595 -0.2477  1.6947  0.6729
 1005MOL0     H32625   1.928   2.337  10.635  0.4388  0.4017  0.2539
 1005MOL0     H32626   1.744   2.360  10.697  3.6650  0.4087  0.1804
 1005MOL0     H32627   1.767   2.450  10.846  1.8626 -0.4940 -1.7470
 1005MOL0     H32628   1.521   2.395  10.813  0.2668  0.7420  2.4738
 1005MOL0     H32629   1.581   2.314  10.951 -1.9412  0.5909 -0.3639
 1005MOL0     H32630   1.640   2.119  10.804 -2.6071 -1.0837  1.2971
 1005MOL0     H32631   1.569   2.202  10.660 -1.0120  1.4438  0.1737
 1005MOL0     H32632   1.412   2.091  10.906  0.0215  0.4349 -0.2152
 1005MOL0     H32633   1.353   2.227  10.809 -1.4929 -1.3493 -0.9521
 1005MOL0     H32634   1.445   2.019  10.634  0.7854  0.0415  1.6143
 1005MOL0     H32635   1.273   2.081  10.658  0.0793  1.0987 -0.1640
 1005MOL0     H32636   1.242   1.906  10.821  0.0643  3.7889 -1.4889
 1005MOL0     H32637   1.411   1.875  10.838 -0.0759 -1.7609 -0.2228
 1005MOL0     H32638   1.424   1.768  10.605 -0.7617 -4.0704  1.5444
 1005MOL0     H32639   1.314   1.695  10.714 -0.7487 -0.0422  0.3355
 1005MOL0     H32640   1.216   1.739  10.473  1.6329 -0.0700 -0.2870
 1005MOL0     H32641   1.242   1.904  10.511  2.3143  0.1044  0.0044
 1005MOL0     H32642   2.023   2.185  11.020  1.3473  0.0138  0.1313
 1005MOL0     H32643   2.269   2.242  10.989 -1.1700 -1.0734  1.6782
 1005MOL0     H32644   2.551   2.660  10.560  1.8406  0.6755 -0.0575
 1005MOL0     H32645   2.789   2.706  10.574  2.4886  0.2200  3.3411
 1005MOL0     H32646   4.638   2.404  11.263 -0.4349 -1.9010  0.3407
 1005MOL0     H32647   4.858   2.305  11.272  1.2806 -0.4798 -1.4475
 1005MOL0     H32648   5.263   2.350  10.884 -0.8326 -1.4749 -2.4642
 1005MOL0     H32649   5.499   2.276  10.921 -0.0755 -0.5144 -0.6157
 1005MOL0     H32650   5.664   2.190  11.173  1.0389  2.6263 -2.8428
 1005MOL0     H32651   5.776   2.135  11.054  0.5975 -2.0022 -0.0657
 1005MOL0     H32652   5.641   1.938  11.245 -1.5393  1.0362 -1.5155
 1005MOL0     H32653   5.800   1.912  11.160  0.2663 -1.2571  3.2557
 1005MOL0     H32654   5.741   2.106  11.378 -1.0128 -0.3625 -2.3082
 1005MOL0     H32655   5.900   2.086  11.301  0.2892 -0.4313  0.7301
 1005MOL0     H32656   5.781   1.854  11.462  0.9647 -3.1356 -1.9079
 1005MOL0     H32657   5.920   1.870  11.349 -0.2536  2.2979 -1.8008
 1005MOL0     H32658   6.096   2.056  11.674  1.5463 -0.2949 -0.2036
 1005MOL0     H32659   5.379   1.946  11.165  2.8804 -1.1699 -1.1063
 1005MOL0     H32660   5.155   2.009  11.135 -0.8639  1.5440  0.0991
 1006MOL0     O32661   5.356   8.204   2.010 -0.1650  0.2387 -0.2782
 1006MOL0     C32662   5.368   8.133   2.108 -0.2329  0.7268  0.0363
 1006MOL0     O32663   5.268   8.072   2.178  0.3608 -0.3058  0.2019
 1006MOL0     C32664   5.135   8.098   2.165  0.0897  0.3562 -0.6646
 1006MOL0     C32665   5.071   8.220   2.129  0.7669  0.4556 -0.2910
 1006MOL0     C32666   4.925   8.228   2.118 -0.6298  0.3851 -0.3868
 1006MOL0     C32667   4.851   8.105   2.133 -0.3610  0.5224  0.7446
 1006MOL0     O32668   4.717   8.101   2.117  0.6202  0.6108 -0.5516
 1006MOL0     C32669   4.643   8.213   2.173  0.2795 -0.0839  0.1871
 1006MOL0     C32670   4.511   8.163   2.239 -0.3177  0.3535  0.0909
 1006MOL0     C32671   4.409   8.281   2.232  0.3384 -0.5612  0.2791
 1006MOL0     C32672   4.280   8.241   2.302 -0.0446 -0.4371  0.1507
 1006MOL0     C32673   4.162   8.336   2.291  0.3617 -0.5721 -0.5070
 1006MOL0     C32674   4.022   8.270   2.289  0.4957 -0.7604  0.6817
 1006MOL0     C32675   4.002   8.170   2.407 -0.2089  0.1478 -0.3519
 1006MOL0     C32676   4.013   8.241   2.544  0.1755  0.8779  0.3100
 1006MOL0     N32677   3.905   8.333   2.576  0.7798  0.3658  0.0815
 1006MOL0     C32678   3.767   8.293   2.593  0.4890 -0.3377 -0.3867
 1006MOL0     C32679   3.699   8.406   2.630 -0.3991  0.2712 -0.7743
 1006MOL0     C32680   3.552   8.429   2.647  0.4221  0.5951  1.2777
 1006MOL0     C32681   3.509   8.441   2.793  0.0348 -0.5906 -0.2374
 1006MOL0     C32682   3.360   8.409   2.811  0.3694 -0.3944 -0.2876
 1006MOL0     C32683   3.328   8.405   2.956 -0.5651 -0.3877  0.0279
 1006MOL0     O32684   3.215   8.323   2.973  0.3159  0.2703 -0.2105
 1006MOL0     C32685   3.112   8.399   3.023  0.0582  0.5693 -0.4264
 1006MOL0     C32686   2.998   8.435   2.955 -0.1565  0.1630  1.0877
 1006MOL0     C32687   2.900   8.510   3.015 -0.7104 -0.1150 -0.0117
 1006MOL0     C32688   2.905   8.551   3.148 -0.3771  0.0486 -0.0078
 1006MOL0     C32689   2.789   8.617   3.213  0.1735 -0.5074  1.0635
 1006MOL0     O32690   2.670   8.607   3.141  0.6053 -0.0244  0.3690
 1006MOL0     C32691   2.550   8.634   3.197  0.4537  0.3528  0.4248
 1006MOL0     C32692   2.504   8.575   3.323  0.8135  0.1265  0.1982
 1006MOL0     C32693   2.367   8.582   3.367 -0.1071  0.2622 -0.0856
 1006MOL0     C32694   2.267   8.620   3.267  0.0969  0.8022 -0.6035
 1006MOL0     O32695   2.135   8.600   3.287 -0.3248 -0.5111  0.4871
 1006MOL0     C32696   2.097   8.463   3.289 -0.7432 -0.1451  0.6921
 1006MOL0     C32697   1.954   8.453   3.340  0.1613 -0.4108  0.2902
 1006MOL0     C32698   1.908   8.313   3.351 -0.1199  0.7266 -0.4190
 1006MOL0     C32699   1.766   8.307   3.415 -0.5700  0.0799  0.4827
 1006MOL0     C32700   1.706   8.169   3.404 -0.1011  1.1614 -0.1655
 1006MOL0     C32701   1.557   8.155   3.427  0.2640  0.5268  0.2227
 1006MOL0     C32702   1.522   8.006   3.421 -0.8013 -0.1326  0.2412
 1006MOL0     C32703   1.372   7.984   3.397 -0.5469 -0.0343  0.1429
 1006MOL0    Cl32704   1.340   7.810   3.380 -0.2680 -0.4565  0.0974
 1006MOL0     C32705   2.317   8.664   3.146  0.5656 -0.5069  0.4013
 1006MOL0     C32706   2.451   8.685   3.113 -0.2531  0.3198 -0.0099
 1006MOL0     O32707   2.804   8.666   3.327 -0.1323 -0.3312 -0.4553
 1006MOL0     C32708   3.028   8.521   3.221 -0.2207  0.2833  0.1051
 1006MOL0     C32709   3.123   8.438   3.158  0.4944  0.6405  0.7733
 1006MOL0     N32710   3.801   8.504   2.633 -0.8265  0.6070  0.0557
 1006MOL0     N32711   3.919   8.460   2.602  0.3083  0.0300  0.6510
 1006MOL0     C32712   4.919   7.990   2.174 -0.4535 -0.1194  0.3031
 1006MOL0     C32713   5.059   7.985   2.180 -0.6039 -0.6461 -0.6403
 1006MOL0     C32714   5.513   8.096   2.127 -0.2702  0.3818 -1.0200
 1006MOL0     C32715   5.627   8.172   2.090  0.5973  0.8235 -0.8208
 1006MOL0     C32716   5.749   8.115   2.099 -0.6522  0.6246 -1.7104
 1006MOL0     C32717   5.775   7.987   2.157  0.7285  0.4994 -0.0813
 1006MOL0     O32718   5.890   7.914   2.155  0.0621  0.6119  1.0884
 1006MOL0     C32719   6.017   7.965   2.186 -0.1782  0.1406  0.2671
 1006MOL0     C32720   6.039   7.943   2.339  0.5843  0.0164 -0.8101
 1006MOL0     C32721   6.016   7.796   2.383 -0.1249  0.5959 -0.6764
 1006MOL0     C32722   6.148   7.717   2.357 -0.7303  0.1206 -0.5962
 1006MOL0     C32723   6.234   7.739   2.481 -0.5259 -0.0862 -0.8679
 1006MOL0     C32724   6.313   7.750   2.570  0.4132 -0.3112 -0.3828
 1006MOL0     C32725   5.667   7.911   2.194  0.5498 -0.4353  0.4724
 1006MOL0     C32726   5.534   7.968   2.177 -0.0264  0.0298 -0.7708
 1006MOL0     H32727   5.122   8.315   2.117 -0.5488  1.0275 -1.7596
 1006MOL0     H32728   4.884   8.322   2.085  0.6976  1.2929  0.4538
 1006MOL0     H32729   4.627   8.285   2.092 -2.0504 -1.3929 -0.5864
 1006MOL0     H32730   4.705   8.265   2.246  1.1814  0.1629 -0.7264
 1006MOL0     H32731   4.518   8.127   2.342 -1.7065 -0.4437 -0.0643
 1006MOL0     H32732   4.481   8.082   2.172  1.6368 -0.5181  0.2200
 1006MOL0     H32733   4.391   8.302   2.126  0.2172  1.5167  0.6708
 1006MOL0     H32734   4.448   8.371   2.280 -0.4054 -1.1669  2.0770
 1006MOL0     H32735   4.262   8.141   2.263  0.7307 -2.0393  3.5782
 1006MOL0     H32736   4.283   8.216   2.408  1.0491  1.8511  0.7329
 1006MOL0     H32737   4.177   8.394   2.200  0.4053 -0.2363 -0.2880
 1006MOL0     H32738   4.167   8.402   2.378 -1.2808 -0.0538 -0.7664
 1006MOL0     H32739   3.995   8.220   2.196  0.4544 -1.3414  1.0008
 1006MOL0     H32740   3.943   8.344   2.304  0.1382 -0.4152 -2.3440
 1006MOL0     H32741   3.902   8.127   2.400 -0.1181  0.2209 -3.2118
 1006MOL0     H32742   4.082   8.096   2.400  1.7046  2.0692  0.0263
 1006MOL0     H32743   4.105   8.300   2.547  0.1392  0.9024  1.0985
 1006MOL0     H32744   4.020   8.164   2.621 -2.8177 -2.0824 -2.0259
 1006MOL0     H32745   3.719   8.196   2.581 -1.8696  1.0106 -3.0831
 1006MOL0     H32746   3.494   8.349   2.600  1.1686  0.7322  0.0650
 1006MOL0     H32747   3.522   8.520   2.594  2.1716  0.5879  0.1787
 1006MOL0     H32748   3.525   8.546   2.818  2.5475 -0.6086 -1.3654
 1006MOL0     H32749   3.565   8.378   2.863 -1.0394 -2.0908 -0.6837
 1006MOL0     H32750   3.295   8.491   2.779 -2.5620 -2.4601 -0.0302
 1006MOL0     H32751   3.333   8.317   2.758  2.1627  0.4675 -2.9245
 1006MOL0     H32752   3.312   8.510   2.982  1.0114 -0.3836  1.1139
 1006MOL0     H32753   3.413   8.360   3.008  1.1371  1.6430 -0.8590
 1006MOL0     H32754   2.988   8.406   2.851 -4.6847 -2.2869  1.9346
 1006MOL0     H32755   2.808   8.527   2.960 -1.0273  0.5439  0.7160
 1006MOL0     H32756   2.564   8.516   3.392  1.2769  1.5945  1.0890
 1006MOL0     H32757   2.346   8.556   3.471 -0.0097  2.3670  0.4961
 1006MOL0     H32758   2.171   8.411   3.350  0.9953  1.3827 -0.0203
 1006MOL0     H32759   2.100   8.427   3.186  2.8555 -1.9148  1.2553
 1006MOL0     H32760   1.888   8.513   3.277 -1.8906  1.1708  3.6189
 1006MOL0     H32761   1.932   8.496   3.439 -2.1859 -4.7036  1.9217
 1006MOL0     H32762   1.973   8.252   3.415 -0.1477  2.8576  1.8100
 1006MOL0     H32763   1.906   8.273   3.249  0.9221 -1.8476  0.4914
 1006MOL0     H32764   1.769   8.342   3.518 -1.4967  1.7274  0.0027
 1006MOL0     H32765   1.702   8.381   3.365  2.1230  0.0759 -3.4045
 1006MOL0     H32766   1.764   8.099   3.465 -0.5045 -0.1196 -1.2121
 1006MOL0     H32767   1.705   8.135   3.300 -3.0866 -2.0148  0.7019
 1006MOL0     H32768   1.482   8.204   3.365  0.3870  0.0433 -0.3145
 1006MOL0     H32769   1.552   8.195   3.529  1.6490 -0.0694  0.5471
 1006MOL0     H32770   1.576   7.955   3.340 -0.3864  0.1204  0.3499
 1006MOL0     H32771   1.550   7.954   3.513  0.9330  1.7595  0.8453
 1006MOL0     H32772   1.334   8.039   3.311 -4.3688  3.4676  3.6143
 1006MOL0     H32773   1.313   8.021   3.482 -2.6651 -0.5764 -1.0191
 1006MOL0     H32774   2.248   8.689   3.065 -0.9466 -4.2257  0.3172
 1006MOL0     H32775   2.485   8.702   3.012  1.7764  0.4199  0.6313
 1006MOL0     H32776   3.045   8.542   3.326  0.3420 -2.7737  0.7143
 1006MOL0     H32777   3.214   8.403   3.207  2.2029  1.4162 -1.6180
 1006MOL0     H32778   4.857   7.900   2.184 -2.7479  1.0540 -2.1874
 1006MOL0     H32779   5.108   7.889   2.197  0.5318 -0.0450 -0.3841
 1006MOL0     H32780   5.616   8.272   2.048 -0.1998  0.6090 -1.1272
 1006MOL0     H32781   5.836   8.164   2.057  1.7232 -1.3901  0.4689
 1006MOL0     H32782   6.023   8.070   2.156 -0.8676  1.0094  2.9102
 1006MOL0     H32783   6.088   7.901   2.134  0.5239 -1.4828  3.0044
 1006MOL0     H32784   6.126   7.988   2.387 -0.6910  1.1066  0.5617
 1006MOL0     H32785   5.962   7.991   2.400  2.0357  0.2868  0.9025
 1006MOL0     H32786   5.931   7.756   2.328  1.0974  2.0165 -3.7915
 1006MOL0     H32787   5.998   7.790   2.491 -1.1016  0.4294 -0.8419
 1006MOL0     H32788   6.128   7.610   2.343  0.4909 -0.1626 -0.3724
 1006MOL0     H32789   6.206   7.750   2.271  1.6397 -2.3209 -0.0765
 1006MOL0     H32790   6.391   7.762   2.642 -0.2393  0.8654  0.1531
 1006MOL0     H32791   5.679   7.806   2.218 -0.5970 -1.1396 -1.7621
 1006MOL0     H32792   5.454   7.907   2.219  0.3460 -0.3618 -0.6290
 1007MOL0     O32793   9.704   6.829  10.386  0.0892  0.3144 -0.8759
 1007MOL0     C32794   9.744   6.916  10.467  0.0740 -0.1313 -0.7608
 1007MOL0     O32795   9.684   7.025  10.510 -0.4948  0.2735 -0.3457
 1007MOL0     C32796   9.576   7.081  10.453 -1.2722  0.0997  0.1606
 1007MOL0     C32797   9.495   7.171  10.529  0.3915 -0.5008  0.2557
 1007MOL0     C32798   9.371   7.209  10.485 -1.1980  0.9766  0.2821
 1007MOL0     C32799   9.322   7.176  10.356  0.2806  0.8301  0.6546
 1007MOL0     O32800   9.188   7.211  10.320  0.0381 -0.0268  0.3151
 1007MOL0     C32801   9.111   7.115  10.238  0.5438  0.8371 -0.1441
 1007MOL0     C32802   8.990   7.178  10.174  0.1001  0.5636 -0.2110
 1007MOL0     C32803   9.040   7.283  10.066 -0.3784  0.3089 -0.0755
 1007MOL0     C32804   8.922   7.361  10.010  0.3757  0.6177  0.5250
 1007MOL0     C32805   8.961   7.492   9.941  0.0753 -1.1172 -0.1027
 1007MOL0     C32806   8.827   7.580   9.944 -0.7757  0.5790  0.1900
 1007MOL0     C32807   8.811   7.661  10.072  0.0272 -0.4536  0.3669
 1007MOL0     C32808   8.703   7.781  10.065 -0.1275 -0.0820 -0.1127
 1007MOL0     N32809   8.581   7.727  10.000 -0.5483  0.4691  0.7540
 1007MOL0     C32810   8.527   7.775   9.885 -0.0828  0.3096  0.2900
 1007MOL0     C32811   8.426   7.685   9.852 -0.2930 -0.5008 -0.0388
 1007MOL0     C32812   8.342   7.706   9.729 -0.1223  0.3584  0.3781
 1007MOL0     C32813   8.233   7.812   9.746  0.1577  0.4464  0.0666
 1007MOL0     C32814   8.124   7.745   9.831  0.6668  0.1261 -0.0280
 1007MOL0     C32815   8.002   7.845   9.845 -1.0326  0.6902 -0.4182
 1007MOL0     O32816   7.921   7.845   9.725  0.9687 -0.0832 -0.2190
 1007MOL0     C32817   7.792   7.802   9.751 -1.0370  0.0752 -0.4246
 1007MOL0     C32818   7.751   7.670   9.725 -0.0604  0.0584  0.0603
 1007MOL0     C32819   7.618   7.624   9.755 -0.2242  0.2281 -0.1196
 1007MOL0     C32820   7.521   7.716   9.801 -0.0337 -0.4746 -0.2439
 1007MOL0     C32821   7.390   7.669   9.844  0.0587 -0.2275  0.2666
 1007MOL0     O32822   7.351   7.549   9.798 -0.5016 -0.1831 -0.1049
 1007MOL0     C32823   7.225   7.504   9.827  0.5681  0.4579 -0.6420
 1007MOL0     C32824   7.115   7.539   9.757 -0.3550  0.3239  0.7737
 1007MOL0     C32825   6.984   7.509   9.781  0.3444  0.2606 -0.5103
 1007MOL0     C32826   6.954   7.434   9.900 -0.4057  0.3951  0.2720
 1007MOL0     O32827   6.823   7.401   9.922  0.1545  0.2491  0.0470
 1007MOL0     C32828   6.778   7.305  10.017  0.3038  0.3584  0.5023
 1007MOL0     C32829   6.641   7.263   9.993  1.4059 -0.5814 -0.0963
 1007MOL0     C32830   6.538   7.371   9.998  0.3701 -0.2084 -0.4553
 1007MOL0     C32831   6.403   7.304   9.974 -0.4472  0.0915  0.4458
 1007MOL0     C32832   6.292   7.407   9.989 -0.1456 -0.3277  0.0794
 1007MOL0     C32833   6.144   7.348  10.009  0.8402 -0.9563  0.0996
 1007MOL0     C32834   6.051   7.445  10.091  0.2974 -0.3003  0.2437
 1007MOL0     C32835   5.903   7.394  10.104 -0.7337 -0.3404  0.1247
 1007MOL0    Cl32836   5.779   7.509  10.171 -0.1496 -0.2131 -0.3470
 1007MOL0     C32837   7.061   7.395   9.977 -0.0280  0.0598 -0.4361
 1007MOL0     C32838   7.191   7.422   9.942 -1.3216 -0.3222 -0.5391
 1007MOL0     O32839   7.325   7.744   9.923  0.3218 -0.3356  0.2020
 1007MOL0     C32840   7.562   7.860   9.820 -0.3136 -0.0899  0.0844
 1007MOL0     C32841   7.695   7.893   9.804  0.4607 -0.2197 -0.0721
 1007MOL0     N32842   8.420   7.589   9.947  0.2337 -0.7929  0.3553
 1007MOL0     N32843   8.511   7.620  10.037  0.1937 -0.0931 -0.7975
 1007MOL0     C32844   9.408   7.099  10.267 -0.3626 -0.3541  0.1856
 1007MOL0     C32845   9.534   7.049  10.315 -0.0043  0.5044  0.4695
 1007MOL0     C32846   9.868   6.879  10.535  0.3630  0.2041  1.1575
 1007MOL0     C32847   9.905   6.907  10.668 -0.3125  0.8605 -0.0716
 1007MOL0     C32848  10.014   6.836  10.733  0.8745 -0.1773 -0.0892
 1007MOL0     C32849  10.096   6.762  10.657  0.0397  0.0921  0.0767
 1007MOL0     O32850  10.196   6.707  10.733  0.1546  1.2754  0.9964
 1007MOL0     C32851  10.325   6.698  10.673 -0.0965  1.3438 -0.3118
 1007MOL0     C32852  10.432   6.737  10.775  0.5179  0.9657  0.1458
 1007MOL0     C32853  10.418   6.664  10.907 -0.4682  0.2869 -0.9016
 1007MOL0     C32854  10.546   6.680  10.987 -0.6849 -0.0901 -0.5182
 1007MOL0     C32855  10.532   6.596  11.102  0.3049  0.4019  0.1905
 1007MOL0     C32856  10.502   6.522  11.192 -0.4247  1.1320 -0.2026
 1007MOL0     C32857  10.073   6.738  10.517  0.3853 -0.6324 -0.4995
 1007MOL0     C32858   9.958   6.797  10.463  0.0021 -0.5749  0.7431
 1007MOL0     H32859   9.526   7.195  10.630  2.0253  0.2696 -0.3771
 1007MOL0     H32860   9.318   7.266  10.561 -1.3900 -0.3240  1.1515
 1007MOL0     H32861   9.067   7.038  10.303  1.4031 -1.4701 -2.1268
 1007MOL0     H32862   9.181   7.063  10.172  0.9441 -1.3901  1.8470
 1007MOL0     H32863   8.920   7.218  10.248 -5.3954 -2.0916 -3.3393
 1007MOL0     H32864   8.934   7.100  10.123 -3.6078  3.4119 -0.9110
 1007MOL0     H32865   9.080   7.222   9.984 -5.2466  0.6252 -3.1196
 1007MOL0     H32866   9.112   7.346  10.119 -1.0691  1.4241 -0.4299
 1007MOL0     H32867   8.866   7.300   9.939 -0.4918 -0.4561  2.0901
 1007MOL0     H32868   8.847   7.390  10.084  0.3749  1.1166  0.3379
 1007MOL0     H32869   8.997   7.480   9.838  1.8508  3.2123 -0.1955
 1007MOL0     H32870   9.036   7.557   9.986 -0.0839 -0.2840 -0.9932
 1007MOL0     H32871   8.746   7.511   9.919  0.0953  0.0671 -1.3263
 1007MOL0     H32872   8.832   7.642   9.854  0.5950 -2.3100 -1.8713
 1007MOL0     H32873   8.778   7.591  10.149 -0.6773 -0.6176 -0.0711
 1007MOL0     H32874   8.908   7.696  10.107  0.0655 -0.7683  0.5722
 1007MOL0     H32875   8.740   7.865  10.006 -1.7821 -0.1216 -1.2871
 1007MOL0     H32876   8.693   7.815  10.169  1.7317  1.5330 -0.4053
 1007MOL0     H32877   8.560   7.868   9.841 -0.4886  0.0636 -0.5491
 1007MOL0     H32878   8.304   7.611   9.692  2.8587 -0.0223 -2.1061
 1007MOL0     H32879   8.408   7.746   9.651  2.8707  0.6108  2.8492
 1007MOL0     H32880   8.188   7.842   9.651 -0.5242  0.2014  0.3051
 1007MOL0     H32881   8.270   7.905   9.790  3.0086 -0.3054 -0.5732
 1007MOL0     H32882   8.087   7.659   9.776  3.4462 -0.2449 -1.4941
 1007MOL0     H32883   8.142   7.713   9.934 -2.8678  0.7700  0.9008
 1007MOL0     H32884   8.031   7.950   9.857  1.3272  0.3031 -2.0092
 1007MOL0     H32885   7.949   7.805   9.932 -0.4365 -3.3436 -1.6781
 1007MOL0     H32886   7.806   7.588   9.679 -2.6809 -2.3110  0.8673
 1007MOL0     H32887   7.599   7.520   9.731 -0.2022  0.0769  0.5049
 1007MOL0     H32888   7.145   7.602   9.674 -1.0015  1.0210  1.0554
 1007MOL0     H32889   6.912   7.534   9.704 -0.2986 -1.4119 -0.4915
 1007MOL0     H32890   6.791   7.331  10.122  1.5488 -2.7946  1.2247
 1007MOL0     H32891   6.842   7.217  10.019 -3.8612 -2.9936  1.0390
 1007MOL0     H32892   6.615   7.185  10.065  1.1165  0.4044  0.8909
 1007MOL0     H32893   6.637   7.216   9.894  0.8874 -0.3767 -0.1751
 1007MOL0     H32894   6.555   7.447   9.921 -0.4071  0.1219 -0.3179
 1007MOL0     H32895   6.544   7.419  10.096  1.0140 -1.9643  0.3984
 1007MOL0     H32896   6.409   7.256   9.875 -0.4594 -0.6567  0.8053
 1007MOL0     H32897   6.380   7.226  10.046 -0.8298  1.8688  2.3493
 1007MOL0     H32898   6.278   7.474   9.904 -0.6554  0.5468  0.8320
 1007MOL0     H32899   6.321   7.462  10.079 -0.0487  1.3761 -0.9495
 1007MOL0     H32900   6.150   7.253  10.063  0.7125  0.6703  3.1861
 1007MOL0     H32901   6.089   7.320   9.919 -0.1164  0.0181  0.3685
 1007MOL0     H32902   6.095   7.470  10.188 -0.6539  2.7883 -0.0260
 1007MOL0     H32903   6.049   7.536  10.031  0.5805  0.2018  0.9742
 1007MOL0     H32904   5.914   7.302  10.163  0.3620  0.0861  0.6331
 1007MOL0     H32905   5.870   7.357  10.007 -1.2010 -2.9454  1.1911
 1007MOL0     H32906   7.044   7.330  10.062 -0.4806  0.3487 -0.3004
 1007MOL0     H32907   7.265   7.364   9.997 -1.8017  0.2643  0.7879
 1007MOL0     H32908   7.490   7.933   9.855 -0.1715 -0.1437  0.5013
 1007MOL0     H32909   7.716   7.998   9.819 -6.0937  1.8490 -2.2667
 1007MOL0     H32910   9.378   7.069  10.167  0.1122 -0.1764 -0.0117
 1007MOL0     H32911   9.609   6.988  10.265 -0.3332  0.3666  0.1352
 1007MOL0     H32912   9.827   6.967  10.715 -1.2492  1.0541 -1.8116
 1007MOL0     H32913  10.024   6.852  10.839  1.0552  3.0132 -0.4955
 1007MOL0     H32914  10.328   6.769  10.590 -0.0932 -1.3902 -2.8495
 1007MOL0     H32915  10.339   6.599  10.629  1.3170  0.6563  1.5165
 1007MOL0     H32916  10.533   6.712  10.740  0.4051  0.0285  0.4401
 1007MOL0     H32917  10.429   6.845  10.785  1.7906  0.9224  1.3369
 1007MOL0     H32918  10.387   6.561  10.888 -0.3730  0.2516 -0.8619
 1007MOL0     H32919  10.335   6.698  10.970 -0.6870 -3.0474  0.8092
 1007MOL0     H32920  10.636   6.657  10.928 -0.8717  0.0638 -0.8629
 1007MOL0     H32921  10.567   6.782  11.020  0.9021 -0.8892  1.1637
 1007MOL0     H32922  10.469   6.449  11.263  0.3643  2.6177  1.8063
 1007MOL0     H32923  10.145   6.683  10.456  1.4210 -1.7585  1.6348
 1007MOL0     H32924   9.943   6.755  10.364 -0.4702  0.7724  0.2234
 1008MOL0     O32925   5.287   1.593   8.726  0.1459  0.3070 -0.0079
 1008MOL0     C32926   5.344   1.527   8.814  0.4916 -0.6143  0.7488
 1008MOL0     O32927   5.294   1.452   8.908  0.1589 -0.3122 -0.5191
 1008MOL0     C32928   5.154   1.433   8.912  0.2953 -0.2391  0.1009
 1008MOL0     C32929   5.083   1.474   9.020 -1.0656  0.5199 -0.1785
 1008MOL0     C32930   4.951   1.442   9.039  0.3669  0.2689 -1.1253
 1008MOL0     C32931   4.883   1.363   8.947 -0.0597  0.5965  0.2559
 1008MOL0     O32932   4.756   1.319   8.971 -0.2792 -0.0805 -0.2070
 1008MOL0     C32933   4.710   1.203   8.911  0.6738  0.3685 -0.4358
 1008MOL0     C32934   4.609   1.139   9.007  0.0558 -0.8888  0.5961
 1008MOL0     C32935   4.474   1.209   9.019 -0.2878 -0.1256 -0.2654
 1008MOL0     C32936   4.380   1.155   8.914 -0.1988 -0.2093  0.0733
 1008MOL0     C32937   4.232   1.171   8.935 -0.0435  0.2058  0.2941
 1008MOL0     C32938   4.171   1.106   9.058  0.8241 -0.1430 -0.2152
 1008MOL0     C32939   4.135   0.962   9.030  0.6036  0.1051  0.0596
 1008MOL0     C32940   4.001   0.938   8.953 -0.5947 -0.4563 -0.0064
 1008MOL0     N32941   3.875   0.931   9.026  0.5162  0.8132 -0.0667
 1008MOL0     C32942   3.824   0.820   9.099 -0.1524  0.2384  1.0036
 1008MOL0     C32943   3.730   0.862   9.177 -0.0745  0.4106  0.0708
 1008MOL0     C32944   3.654   0.790   9.290  0.0886 -0.2455 -0.2828
 1008MOL0     C32945   3.506   0.802   9.271  0.3575 -0.1152 -0.7168
 1008MOL0     C32946   3.438   0.707   9.368 -0.4959  0.3234  0.4022
 1008MOL0     C32947   3.281   0.719   9.366  0.1147 -0.6727  0.2190
 1008MOL0     O32948   3.250   0.856   9.406 -0.0937 -0.3160  0.3528
 1008MOL0     C32949   3.153   0.922   9.333  0.0248 -0.4243 -0.5711
 1008MOL0     C32950   3.173   1.058   9.306  0.1758 -0.5422  0.5112
 1008MOL0     C32951   3.093   1.127   9.219 -0.2730  0.2993 -0.4717
 1008MOL0     C32952   2.979   1.064   9.168  0.9414 -0.3352 -0.3105
 1008MOL0     C32953   2.878   1.144   9.083 -0.6443 -0.2585 -0.0308
 1008MOL0     O32954   2.921   1.263   9.038 -0.9205  0.3974  0.7020
 1008MOL0     C32955   2.846   1.352   8.969  0.4465 -0.4771  0.4683
 1008MOL0     C32956   2.918   1.451   8.904  0.1054  0.2567 -0.9160
 1008MOL0     C32957   2.854   1.555   8.839  0.7192 -0.2253  0.0003
 1008MOL0     C32958   2.713   1.560   8.819 -0.4622 -0.6546  0.2532
 1008MOL0     O32959   2.660   1.661   8.749  0.1846  0.4583  0.2559
 1008MOL0     C32960   2.522   1.647   8.708  0.6304 -0.8183 -0.2651
 1008MOL0     C32961   2.503   1.779   8.627 -0.4645  0.8498  0.3815
 1008MOL0     C32962   2.355   1.803   8.590  1.2091 -0.3796 -0.6613
 1008MOL0     C32963   2.342   1.929   8.501 -0.8232 -0.0073 -0.9102
 1008MOL0     C32964   2.194   1.950   8.455 -1.1108  0.1733 -0.4443
 1008MOL0     C32965   2.161   2.072   8.373 -0.3114 -0.2804 -0.0254
 1008MOL0     C32966   2.018   2.115   8.380  0.0065 -0.6517 -0.3333
 1008MOL0     C32967   1.992   2.189   8.508 -0.2339  0.6766  0.2026
 1008MOL0    Cl32968   2.073   2.353   8.489  0.2008 -0.1265 -0.2263
 1008MOL0     C32969   2.642   1.458   8.890  0.7581 -1.0864  1.1434
 1008MOL0     C32970   2.709   1.362   8.963  0.8962 -0.6215  0.2338
 1008MOL0     O32971   2.767   1.093   9.065  0.1091  0.3538  0.4099
 1008MOL0     C32972   2.957   0.931   9.195 -0.8748  0.2914 -1.2374
 1008MOL0     C32973   3.043   0.864   9.273 -0.6946  0.8280 -0.1682
 1008MOL0     N32974   3.716   0.991   9.144  0.5633 -0.2211  0.1337
 1008MOL0     N32975   3.800   1.032   9.057  0.0627 -0.6283 -1.0223
 1008MOL0     C32976   4.950   1.328   8.834  0.1230 -0.1251 -1.0314
 1008MOL0     C32977   5.082   1.363   8.808  0.8127 -0.0515  1.1792
 1008MOL0     C32978   5.492   1.542   8.808  0.1948 -1.0953 -0.7328
 1008MOL0     C32979   5.566   1.520   8.922 -0.5754 -0.4430  0.5567
 1008MOL0     C32980   5.706   1.518   8.918  0.4151  0.3494  0.6727
 1008MOL0     C32981   5.775   1.546   8.800 -0.0318 -0.1371 -0.2899
 1008MOL0     O32982   5.908   1.557   8.814  0.3383 -0.8567  0.5085
 1008MOL0     C32983   5.994   1.570   8.698 -0.6302 -0.0111  0.4046
 1008MOL0     C32984   6.136   1.564   8.748 -0.5212 -0.5209 -0.1549
 1008MOL0     C32985   6.222   1.492   8.635 -1.1350 -0.8035  0.0819
 1008MOL0     C32986   6.222   1.562   8.502  0.1841 -0.5336 -0.2621
 1008MOL0     C32987   6.264   1.703   8.505  0.5087 -1.2050 -0.4929
 1008MOL0     C32988   6.299   1.818   8.510  0.5395  0.2463 -0.1038
 1008MOL0     C32989   5.696   1.554   8.676 -0.5434 -0.5946 -0.2627
 1008MOL0     C32990   5.552   1.557   8.689  0.2245  0.3016  0.4128
 1008MOL0     H32991   5.133   1.521   9.104 -0.0243  2.4290 -1.7931
 1008MOL0     H32992   4.902   1.461   9.134 -0.5390 -0.3882 -1.4347
 1008MOL0     H32993   4.787   1.125   8.902  0.2322  0.0003 -1.0711
 1008MOL0     H32994   4.675   1.222   8.809  0.9713 -1.7963 -0.9899
 1008MOL0     H32995   4.659   1.134   9.104  3.2359 -1.2762 -0.9119
 1008MOL0     H32996   4.598   1.036   8.973  1.4432 -0.7038 -0.5385
 1008MOL0     H32997   4.488   1.317   9.018  1.4092 -0.2715  1.8196
 1008MOL0     H32998   4.439   1.188   9.120  0.6681 -2.1374 -0.2975
 1008MOL0     H32999   4.393   1.199   8.815 -2.1535 -1.5353 -0.8367
 1008MOL0     H33000   4.394   1.048   8.896 -2.1179  0.1926 -6.1936
 1008MOL0     H33001   4.176   1.146   8.845  1.2334 -1.2166 -0.1548
 1008MOL0     H33002   4.226   1.279   8.951  2.1838  0.2859  0.8930
 1008MOL0     H33003   4.081   1.164   9.078  1.2014  0.7297 -0.9283
 1008MOL0     H33004   4.226   1.107   9.152 -1.8353  0.5277  1.4251
 1008MOL0     H33005   4.208   0.917   8.963  0.7111 -0.6175  0.6458
 1008MOL0     H33006   4.138   0.902   9.121  2.3131  1.7922  1.1964
 1008MOL0     H33007   4.014   0.846   8.896 -0.0384 -1.7286  2.0647
 1008MOL0     H33008   3.984   1.019   8.881 -0.3442 -0.1629  0.2653
 1008MOL0     H33009   3.873   0.724   9.107 -0.6109 -0.0282  0.6404
 1008MOL0     H33010   3.679   0.835   9.387  1.7554 -0.4835 -0.5694
 1008MOL0     H33011   3.686   0.686   9.293 -3.8329 -1.6829 -1.7933
 1008MOL0     H33012   3.472   0.785   9.169  0.9842 -1.0597 -0.7848
 1008MOL0     H33013   3.473   0.903   9.297 -0.2636 -1.3927  4.5361
 1008MOL0     H33014   3.463   0.604   9.340  0.6137  0.2760  1.4863
 1008MOL0     H33015   3.478   0.736   9.466  0.3033 -0.4664  0.3221
 1008MOL0     H33016   3.241   0.649   9.441 -2.3485  0.4801  0.0774
 1008MOL0     H33017   3.243   0.687   9.269 -1.6327  0.3929  0.5006
 1008MOL0     H33018   3.241   1.118   9.365 -0.5573  1.0679 -0.2440
 1008MOL0     H33019   3.117   1.231   9.200 -0.2549  0.7799  1.8929
 1008MOL0     H33020   3.025   1.441   8.917 -0.0101  0.0560 -0.0729
 1008MOL0     H33021   2.916   1.622   8.780  1.9678 -0.4555  1.0126
 1008MOL0     H33022   2.454   1.650   8.794  0.6103  2.2471 -0.2969
 1008MOL0     H33023   2.501   1.556   8.651  0.9001 -1.4104  0.5622
 1008MOL0     H33024   2.576   1.776   8.546 -0.1844  2.3933  0.5529
 1008MOL0     H33025   2.544   1.856   8.692  1.2207  1.0938 -0.9093
 1008MOL0     H33026   2.299   1.809   8.684  0.1225  0.0047 -1.3214
 1008MOL0     H33027   2.311   1.717   8.538 -1.1625  0.6792 -0.5256
 1008MOL0     H33028   2.357   2.016   8.565 -2.3736 -0.1181 -0.3371
 1008MOL0     H33029   2.410   1.936   8.416  1.0653  4.2605  0.6899
 1008MOL0     H33030   2.140   1.952   8.550  1.7488 -2.2440  1.4380
 1008MOL0     H33031   2.158   1.859   8.406 -2.3363  0.5795 -0.3338
 1008MOL0     H33032   2.172   2.039   8.269 -0.8230 -4.0532  0.9719
 1008MOL0     H33033   2.228   2.156   8.391 -0.2116 -0.4992  0.6441
 1008MOL0     H33034   2.010   2.192   8.302 -0.0532 -0.1756  0.1407
 1008MOL0     H33035   1.951   2.032   8.355 -4.6648  1.9633  2.2756
 1008MOL0     H33036   2.028   2.139   8.598  1.9552  2.0172  0.1337
 1008MOL0     H33037   1.883   2.191   8.522 -0.1375 -1.9233  2.0556
 1008MOL0     H33038   2.539   1.424   8.893  0.0995  0.8871  2.2858
 1008MOL0     H33039   2.641   1.300   9.021 -1.3113 -0.3117 -1.8467
 1008MOL0     H33040   2.881   0.863   9.156  1.6809 -1.9935 -2.5717
 1008MOL0     H33041   3.042   0.756   9.280  0.5283  0.7901 -0.3932
 1008MOL0     H33042   4.901   1.276   8.752  0.6257 -2.4832  0.0502
 1008MOL0     H33043   5.117   1.322   8.714 -1.0002 -2.2124  1.3383
 1008MOL0     H33044   5.519   1.509   9.019 -3.9649 -3.0772 -1.1521
 1008MOL0     H33045   5.760   1.502   9.011 -0.1842 -0.9771  0.8146
 1008MOL0     H33046   5.974   1.661   8.641 -3.2165 -1.7243 -1.6779
 1008MOL0     H33047   5.973   1.482   8.637 -1.1751  2.0948 -2.6463
 1008MOL0     H33048   6.170   1.665   8.775  0.2767 -0.7373 -0.3348
 1008MOL0     H33049   6.138   1.506   8.841 -2.7444 -1.2845 -0.5413
 1008MOL0     H33050   6.183   1.389   8.635 -2.5961 -0.2796 -1.0950
 1008MOL0     H33051   6.327   1.484   8.664 -1.1551  0.6114  0.6090
 1008MOL0     H33052   6.289   1.518   8.427  2.1864  1.2963  0.3464
 1008MOL0     H33053   6.120   1.542   8.468 -0.4260  2.5161 -0.4353
 1008MOL0     H33054   6.346   1.914   8.517  0.5722  0.5849 -3.4809
 1008MOL0     H33055   5.749   1.564   8.582 -1.4686  4.4272 -0.5226
 1008MOL0     H33056   5.481   1.567   8.607 -1.4980  1.0150  1.9171
 1009MOL0     O33057   9.398   1.630   4.498  0.0744 -0.2961  0.5880
 1009MOL0     C33058   9.474   1.632   4.405 -0.7721 -0.1109  0.0173
 1009MOL0     O33059   9.440   1.614   4.274  0.8764  0.1605 -0.9211
 1009MOL0     C33060   9.313   1.579   4.250  0.1258  0.0729  0.1310
 1009MOL0     C33061   9.249   1.463   4.287 -0.1477  0.0823 -0.1051
 1009MOL0     C33062   9.112   1.452   4.268 -0.8427  0.3384  0.2717
 1009MOL0     C33063   9.041   1.551   4.188  1.0374 -0.3028 -0.4585
 1009MOL0     O33064   8.913   1.522   4.147  0.1543 -0.1967 -0.3895
 1009MOL0     C33065   8.838   1.638   4.091  0.2897  0.0678  0.2827
 1009MOL0     C33066   8.707   1.587   4.042 -0.6301  0.5764 -1.0430
 1009MOL0     C33067   8.654   1.676   3.928 -1.1361 -0.7658 -0.7129
 1009MOL0     C33068   8.503   1.658   3.935  0.5918  0.6658 -0.7124
 1009MOL0     C33069   8.425   1.750   3.837  0.1412 -0.6845  0.2947
 1009MOL0     C33070   8.266   1.737   3.847  0.0639 -0.4255 -0.3990
 1009MOL0     C33071   8.188   1.828   3.743 -1.1020  0.4754 -1.2914
 1009MOL0     C33072   8.037   1.827   3.751  0.5523  0.1926  0.5418
 1009MOL0     N33073   7.994   1.691   3.741  0.7146 -0.4188  0.2155
 1009MOL0     C33074   7.996   1.609   3.628  0.4047  0.1364  0.4339
 1009MOL0     C33075   7.956   1.486   3.667 -0.1274 -0.5264  0.4712
 1009MOL0     C33076   7.952   1.371   3.572 -0.3635 -0.5869 -0.3726
 1009MOL0     C33077   7.847   1.389   3.464 -0.2108  0.3620 -0.0120
 1009MOL0     C33078   7.715   1.447   3.509 -0.3833 -0.0470 -0.5276
 1009MOL0     C33079   7.626   1.362   3.595  0.5047 -0.0287 -0.1164
 1009MOL0     O33080   7.511   1.437   3.649 -0.5202 -0.2865 -0.3969
 1009MOL0     C33081   7.388   1.435   3.597  0.7880 -0.9026 -0.4872
 1009MOL0     C33082   7.279   1.464   3.674 -0.1542 -0.2046 -1.0885
 1009MOL0     C33083   7.146   1.444   3.628 -0.3702  0.0392 -0.1220
 1009MOL0     C33084   7.128   1.393   3.500  0.6742 -1.2315 -0.2000
 1009MOL0     C33085   6.987   1.369   3.447 -0.2666 -0.2879 -0.4955
 1009MOL0     O33086   6.979   1.352   3.307  0.0205  0.4004  0.5978
 1009MOL0     C33087   6.852   1.321   3.271 -0.3361 -0.3066 -0.9065
 1009MOL0     C33088   6.823   1.186   3.253 -0.5614  0.6945  0.4434
 1009MOL0     C33089   6.692   1.152   3.199  0.1338  0.3020  0.1253
 1009MOL0     C33090   6.602   1.256   3.168 -0.2141 -0.4974  0.8667
 1009MOL0     O33091   6.483   1.230   3.107  0.0495 -0.1783 -0.2954
 1009MOL0     C33092   6.475   1.140   2.989 -0.4394 -0.2584 -0.0579
 1009MOL0     C33093   6.333   1.141   2.927 -0.0204 -0.4073 -0.3127
 1009MOL0     C33094   6.343   1.073   2.794  0.4430 -0.4500  0.2154
 1009MOL0     C33095   6.214   1.069   2.722  0.3897 -0.6171 -0.1332
 1009MOL0     C33096   6.107   0.981   2.786  0.4627  0.9089 -0.5661
 1009MOL0     C33097   5.996   0.952   2.682 -0.2555 -0.1440 -0.5979
 1009MOL0     C33098   5.893   0.853   2.740 -0.7775 -0.3041 -0.8755
 1009MOL0     C33099   5.791   0.793   2.639 -1.1174  0.1597 -0.6394
 1009MOL0    Cl33100   5.883   0.681   2.526  0.1383  0.2584  0.5398
 1009MOL0     C33101   6.645   1.395   3.183  0.8381  1.0241  0.4290
 1009MOL0     C33102   6.769   1.426   3.238 -0.2166  0.6813  0.1313
 1009MOL0     O33103   6.889   1.376   3.533 -0.1650  0.7984  0.1832
 1009MOL0     C33104   7.242   1.365   3.425  0.5507  0.2364  1.0056
 1009MOL0     C33105   7.368   1.389   3.467 -0.5058  0.3873 -0.0280
 1009MOL0     N33106   7.935   1.482   3.805  0.7387 -0.8514 -0.7185
 1009MOL0     N33107   7.957   1.604   3.845 -0.7481 -0.0025  0.0694
 1009MOL0     C33108   9.110   1.664   4.148  0.0312  0.4824  0.1206
 1009MOL0     C33109   9.241   1.679   4.177 -0.8489  0.1963 -0.5895
 1009MOL0     C33110   9.613   1.675   4.433 -0.3715  0.9915  0.6142
 1009MOL0     C33111   9.706   1.694   4.335  0.5156 -0.0031  0.1884
 1009MOL0     C33112   9.834   1.727   4.355  0.4368  0.8343  0.2128
 1009MOL0     C33113   9.878   1.738   4.492 -0.6721  0.0939  0.2682
 1009MOL0     O33114  10.003   1.789   4.509  0.0330 -1.0893  0.1143
 1009MOL0     C33115  10.023   1.863   4.628 -0.6935 -1.1188 -0.4126
 1009MOL0     C33116  10.159   1.946   4.625  0.8059 -0.2846 -0.2048
 1009MOL0     C33117  10.177   2.021   4.758  0.4758  0.0758 -0.0913
 1009MOL0     C33118  10.319   2.014   4.813  0.2767 -0.3361  0.2007
 1009MOL0     C33119  10.421   2.067   4.732  0.4523  0.3257  0.0879
 1009MOL0     C33120  10.501   2.102   4.647  0.0017 -0.8595 -0.7091
 1009MOL0     C33121   9.785   1.716   4.598  0.5579 -0.1479 -0.6049
 1009MOL0     C33122   9.653   1.682   4.564 -0.1998  0.2601  0.1638
 1009MOL0     H33123   9.296   1.392   4.355  0.6809  0.7419  0.0233
 1009MOL0     H33124   9.064   1.363   4.307 -0.4240 -0.0533 -0.0932
 1009MOL0     H33125   8.891   1.673   4.002  2.7604  2.3739  2.4459
 1009MOL0     H33126   8.825   1.725   4.157 -0.7563  0.3638 -0.3010
 1009MOL0     H33127   8.640   1.566   4.127  1.2739 -0.6564  0.2263
 1009MOL0     H33128   8.723   1.491   3.994 -1.2611  0.4890 -1.0932
 1009MOL0     H33129   8.698   1.645   3.833  0.1742 -0.8559 -0.1080
 1009MOL0     H33130   8.677   1.781   3.949 -1.7527 -0.6174 -0.7698
 1009MOL0     H33131   8.474   1.556   3.911  0.5163  0.3057  0.8048
 1009MOL0     H33132   8.466   1.674   4.037 -3.0134 -2.1894 -1.3612
 1009MOL0     H33133   8.456   1.738   3.733  1.1777 -0.5301  0.5756
 1009MOL0     H33134   8.445   1.852   3.872  0.3835 -0.7973  0.4893
 1009MOL0     H33135   8.235   1.765   3.947 -1.4455  1.6602 -1.3763
 1009MOL0     H33136   8.265   1.631   3.819  1.4903 -1.1793  2.1282
 1009MOL0     H33137   8.233   1.927   3.749 -2.5068  1.0291  1.0633
 1009MOL0     H33138   8.217   1.786   3.646 -2.0484  1.0436 -1.8332
 1009MOL0     H33139   7.990   1.890   3.675  0.2445  0.2074  0.7455
 1009MOL0     H33140   8.010   1.877   3.845  0.0879 -0.4807  0.7692
 1009MOL0     H33141   8.022   1.636   3.526 -0.9040 -2.3626 -0.6722
 1009MOL0     H33142   7.955   1.276   3.626  1.2137 -0.0945  0.4686
 1009MOL0     H33143   8.050   1.371   3.522  0.1189 -1.5546  0.5371
 1009MOL0     H33144   7.837   1.290   3.417 -0.9422  0.6256 -0.4415
 1009MOL0     H33145   7.889   1.455   3.387 -1.2322  1.0558  0.0007
 1009MOL0     H33146   7.728   1.549   3.547 -0.9365  0.1619 -0.8881
 1009MOL0     H33147   7.650   1.472   3.425 -0.8372 -0.2730 -0.2501
 1009MOL0     H33148   7.686   1.303   3.665  1.6584  0.2868 -0.8012
 1009MOL0     H33149   7.596   1.278   3.531  0.0777 -0.9071  1.2013
 1009MOL0     H33150   7.289   1.500   3.776  1.6800  0.6822 -1.5360
 1009MOL0     H33151   7.062   1.458   3.695  1.3636 -1.6226  2.6034
 1009MOL0     H33152   6.896   1.108   3.275  0.7230  2.1391  1.5389
 1009MOL0     H33153   6.663   1.054   3.162 -0.0517  0.8003 -1.0922
 1009MOL0     H33154   6.496   1.038   3.022  0.6037 -0.1584 -0.3678
 1009MOL0     H33155   6.546   1.168   2.910  1.2754 -3.8044 -0.0024
 1009MOL0     H33156   6.295   1.240   2.898 -1.1541 -1.3291 -2.1388
 1009MOL0     H33157   6.260   1.095   2.993  0.3055 -0.7382 -0.1804
 1009MOL0     H33158   6.378   0.969   2.801 -1.3989 -1.0326  1.3277
 1009MOL0     H33159   6.407   1.125   2.722 -0.6678  1.7991  0.7921
 1009MOL0     H33160   6.176   1.171   2.715  2.5439  0.1804 -0.9915
 1009MOL0     H33161   6.227   1.034   2.620  0.3458 -0.9536 -0.0247
 1009MOL0     H33162   6.065   1.029   2.874  1.7136 -0.2581  0.7256
 1009MOL0     H33163   6.150   0.886   2.820 -2.0937 -0.1873 -0.1778
 1009MOL0     H33164   6.035   0.919   2.585  0.4801 -1.3401  0.0811
 1009MOL0     H33165   5.943   1.044   2.658 -3.5258 -1.7069  0.1572
 1009MOL0     H33166   5.957   0.774   2.779 -0.3338 -0.6512 -2.2451
 1009MOL0     H33167   5.841   0.877   2.833 -0.9580  1.2629 -1.3577
 1009MOL0     H33168   5.757   0.877   2.577 -0.2418  1.0247  0.0302
 1009MOL0     H33169   5.706   0.744   2.688 -0.8271 -0.6254 -0.9044
 1009MOL0     H33170   6.581   1.475   3.148  0.2199  0.1665 -0.4591
 1009MOL0     H33171   6.806   1.525   3.263 -1.5316  0.9771  0.9849
 1009MOL0     H33172   7.236   1.353   3.317  1.6065  3.1899  0.5383
 1009MOL0     H33173   7.455   1.365   3.406 -0.5238 -1.0459  0.4755
 1009MOL0     H33174   9.065   1.742   4.088  1.1031  2.3838  1.6670
 1009MOL0     H33175   9.295   1.767   4.144  1.9921 -1.0309  0.4246
 1009MOL0     H33176   9.667   1.686   4.235 -1.1030 -0.8709  0.8656
 1009MOL0     H33177   9.900   1.764   4.277 -0.4459  0.9427 -0.5117
 1009MOL0     H33178  10.024   1.799   4.717 -1.5214  1.2252  1.3901
 1009MOL0     H33179   9.952   1.944   4.647  1.2876  0.2798  1.6567
 1009MOL0     H33180  10.244   1.877   4.623  0.7411 -0.3993  0.6534
 1009MOL0     H33181  10.150   2.013   4.539  2.9027 -0.1571 -0.3820
 1009MOL0     H33182  10.105   1.978   4.828 -0.5152  0.0760 -1.0853
 1009MOL0     H33183  10.165   2.128   4.737  1.8585 -0.1163 -2.2800
 1009MOL0     H33184  10.322   2.072   4.906  1.7854 -0.5648  0.3197
 1009MOL0     H33185  10.347   1.909   4.818 -3.3292 -1.3617  2.1495
 1009MOL0     H33186  10.567   2.134   4.568  1.1827  1.8736  1.2255
 1009MOL0     H33187   9.822   1.708   4.700  1.0147 -2.8098 -0.8993
 1009MOL0     H33188   9.580   1.657   4.641  0.6767  1.1274  1.3187
 1010MOL0     O33189   5.423   1.484   7.108  0.0923  0.1501  0.1230
 1010MOL0     C33190   5.421   1.592   7.178 -0.0090  0.1721  0.2900
 1010MOL0     O33191   5.511   1.633   7.269 -0.3249  0.3066  0.7496
 1010MOL0     C33192   5.633   1.561   7.276 -0.1069 -1.1028 -0.3526
 1010MOL0     C33193   5.669   1.520   7.410 -0.1982  0.4986 -0.4810
 1010MOL0     C33194   5.789   1.453   7.441 -0.3915  0.4275 -0.0154
 1010MOL0     C33195   5.874   1.430   7.336 -0.1278 -0.4247 -0.3843
 1010MOL0     O33196   6.004   1.375   7.360 -0.3347 -0.6762  0.3700
 1010MOL0     C33197   6.010   1.275   7.464 -0.2724  0.4944 -1.3879
 1010MOL0     C33198   6.119   1.176   7.440  0.4533 -0.5232 -0.4682
 1010MOL0     C33199   6.256   1.248   7.436  0.5965 -0.2255 -1.0138
 1010MOL0     C33200   6.379   1.155   7.415  0.5479 -0.4065 -0.0652
 1010MOL0     C33201   6.369   1.074   7.283 -0.5842  0.3381  0.4501
 1010MOL0     C33202   6.497   0.999   7.255 -0.3552  0.0890 -0.9645
 1010MOL0     C33203   6.497   0.906   7.133 -0.6891  0.0377  0.1048
 1010MOL0     C33204   6.542   0.981   7.003 -0.4530 -0.0395  0.2486
 1010MOL0     N33205   6.691   1.017   7.001 -0.6585  0.0980  0.5453
 1010MOL0     C33206   6.789   0.925   7.019 -0.3547 -0.1108  0.1250
 1010MOL0     C33207   6.905   1.003   7.007 -0.3651  0.2918  0.7980
 1010MOL0     C33208   7.045   0.942   7.001  0.1232  0.9813  0.3870
 1010MOL0     C33209   7.105   0.952   6.850  0.3878 -0.2271  0.1056
 1010MOL0     C33210   7.021   0.884   6.740 -0.4620  0.0274 -1.1364
 1010MOL0     C33211   7.088   0.904   6.605  0.0316  0.0362  0.4390
 1010MOL0     O33212   7.214   0.841   6.609  0.1812  0.4593 -0.8796
 1010MOL0     C33213   7.283   0.822   6.493 -0.6937  1.0432 -0.8060
 1010MOL0     C33214   7.394   0.745   6.503 -1.1928  0.3773  0.8267
 1010MOL0     C33215   7.474   0.706   6.390  0.5620  0.1704  0.4167
 1010MOL0     C33216   7.440   0.743   6.263  1.1002  0.6667  0.5278
 1010MOL0     C33217   7.527   0.694   6.156 -0.7332  0.3478 -0.2712
 1010MOL0     O33218   7.655   0.670   6.186 -0.8880 -0.1224  0.5345
 1010MOL0     C33219   7.748   0.648   6.085  0.7438 -0.5375  0.0440
 1010MOL0     C33220   7.823   0.534   6.086 -0.8720 -0.2268  0.3649
 1010MOL0     C33221   7.912   0.502   5.986 -0.4620  0.7402  0.0168
 1010MOL0     C33222   7.937   0.593   5.886  0.4341 -0.5170  0.4387
 1010MOL0     O33223   8.027   0.566   5.775  0.0644 -0.9467 -0.7508
 1010MOL0     C33224   8.079   0.685   5.714  0.4506 -0.0654  0.4411
 1010MOL0     C33225   8.211   0.666   5.641  0.3632 -0.7948  0.4791
 1010MOL0     C33226   8.322   0.607   5.735 -0.0370  0.0835  0.7227
 1010MOL0     C33227   8.338   0.681   5.861 -0.1429 -0.4780  0.5469
 1010MOL0     C33228   8.461   0.625   5.944 -0.2050  0.0797 -1.0347
 1010MOL0     C33229   8.436   0.508   6.027  0.2078  0.8010 -0.3734
 1010MOL0     C33230   8.313   0.501   6.111  0.4555 -0.6041 -0.0102
 1010MOL0     C33231   8.315   0.620   6.209 -0.4203 -0.8263 -0.2986
 1010MOL0    Cl33232   8.149   0.616   6.293 -0.2251  0.1575  0.1849
 1010MOL0     C33233   7.862   0.710   5.885 -0.1242 -0.0176 -0.3973
 1010MOL0     C33234   7.766   0.742   5.983  0.3518  0.2188  0.4421
 1010MOL0     O33235   7.480   0.697   6.046 -0.5465 -0.5968 -0.4135
 1010MOL0     C33236   7.323   0.825   6.245 -0.2573  0.9469 -0.1225
 1010MOL0     C33237   7.252   0.858   6.357 -0.1018 -0.0140 -0.1494
 1010MOL0     N33238   6.866   1.133   6.967 -0.0953  0.2342 -0.7183
 1010MOL0     N33239   6.739   1.144   6.971  0.2751  0.0242 -0.6455
 1010MOL0     C33240   5.840   1.476   7.200 -0.1949 -0.1061 -0.8141
 1010MOL0     C33241   5.715   1.524   7.173 -0.3525 -1.0903 -0.2356
 1010MOL0     C33242   5.323   1.697   7.142 -0.1346 -0.1023 -0.3989
 1010MOL0     C33243   5.201   1.660   7.090  0.3834  0.4931  0.2767
 1010MOL0     C33244   5.109   1.751   7.043 -0.4445 -0.7752 -0.0053
 1010MOL0     C33245   5.148   1.891   7.033  0.0399  0.1319  0.5386
 1010MOL0     O33246   5.058   1.987   6.988 -0.2457  0.4572 -0.7456
 1010MOL0     C33247   5.090   2.124   7.002  0.4247 -0.0560 -0.1432
 1010MOL0     C33248   4.978   2.220   6.950 -0.2547  0.5460 -0.5227
 1010MOL0     C33249   4.854   2.204   7.043  0.0602 -0.1541 -0.9186
 1010MOL0     C33250   4.745   2.299   7.007  0.2966 -0.1484 -0.6256
 1010MOL0     C33251   4.622   2.239   7.065  0.3639 -0.8638  0.1144
 1010MOL0     C33252   4.532   2.200   7.127  0.3855  0.2322 -0.1772
 1010MOL0     C33253   5.281   1.926   7.071  0.1180 -0.1378 -0.2920
 1010MOL0     C33254   5.362   1.832   7.133  0.9756  0.2985 -0.3646
 1010MOL0     H33255   5.606   1.548   7.495 -0.4560 -1.1121 -0.1201
 1010MOL0     H33256   5.828   1.417   7.535 -1.5963 -1.7068 -0.2780
 1010MOL0     H33257   5.918   1.217   7.471  0.5303 -0.8024 -1.2172
 1010MOL0     H33258   6.020   1.325   7.560 -0.7062 -1.5876 -0.2001
 1010MOL0     H33259   6.091   1.124   7.348 -2.0637 -0.1119 -0.0055
 1010MOL0     H33260   6.110   1.110   7.526 -7.0564 -0.9246 -0.9218
 1010MOL0     H33261   6.268   1.300   7.531 -0.6963  1.0293 -1.5065
 1010MOL0     H33262   6.252   1.328   7.362 -2.0351  0.1093 -0.6391
 1010MOL0     H33263   6.467   1.219   7.417  2.1555 -2.3837 -2.1519
 1010MOL0     H33264   6.393   1.074   7.488 -0.2096  0.6360  1.2679
 1010MOL0     H33265   6.354   1.139   7.197  0.0708 -0.3207 -0.1824
 1010MOL0     H33266   6.284   1.006   7.276  0.6864 -1.1570 -2.4007
 1010MOL0     H33267   6.504   0.930   7.339 -4.1239  1.3041  0.5734
 1010MOL0     H33268   6.579   1.072   7.262 -1.9452  1.8096  3.4807
 1010MOL0     H33269   6.564   0.822   7.156 -0.0655  0.6068  0.3968
 1010MOL0     H33270   6.394   0.870   7.125 -0.5369 -1.3418  3.0305
 1010MOL0     H33271   6.489   1.077   6.997 -1.0768  0.1839  5.2216
 1010MOL0     H33272   6.512   0.923   6.915  0.6288 -2.0892  1.1602
 1010MOL0     H33273   6.785   0.820   7.043 -0.1288 -0.2481 -0.4276
 1010MOL0     H33274   7.042   0.836   7.028  2.6332  0.3653 -1.4535
 1010MOL0     H33275   7.115   0.998   7.064  0.3966  0.4516  0.5616
 1010MOL0     H33276   7.199   0.898   6.858  0.6696  0.4170  1.6343
 1010MOL0     H33277   7.122   1.059   6.835  1.0849 -0.1713  1.1845
 1010MOL0     H33278   7.004   0.779   6.768  1.5868  0.3596  1.6891
 1010MOL0     H33279   6.929   0.942   6.747 -0.6333 -0.4639  1.3662
 1010MOL0     H33280   7.108   1.010   6.585  1.3842 -0.7817 -3.6072
 1010MOL0     H33281   7.026   0.866   6.523  2.0757  3.8578 -3.2940
 1010MOL0     H33282   7.415   0.698   6.598 -1.6165 -0.4590  0.5153
 1010MOL0     H33283   7.552   0.631   6.404 -0.2199 -1.6051 -3.3841
 1010MOL0     H33284   7.815   0.456   6.162  1.8665 -0.7676  0.1960
 1010MOL0     H33285   7.963   0.406   5.988  2.2536  2.0823 -0.2631
 1010MOL0     H33286   8.090   0.762   5.791 -0.9050  2.6624 -1.9416
 1010MOL0     H33287   8.010   0.716   5.636  1.2337  0.3888 -0.0893
 1010MOL0     H33288   8.249   0.761   5.602 -2.1487  0.0551 -0.0500
 1010MOL0     H33289   8.193   0.599   5.557  1.6091 -0.0038 -0.4549
 1010MOL0     H33290   8.411   0.615   5.673 -0.6329 -0.1366 -0.1879
 1010MOL0     H33291   8.308   0.500   5.753  2.4932 -0.3472  0.4007
 1010MOL0     H33292   8.343   0.788   5.838 -1.9954 -0.1978  1.3097
 1010MOL0     H33293   8.249   0.658   5.920  1.3622 -2.0404  2.3516
 1010MOL0     H33294   8.496   0.708   6.006  0.5851  0.6802 -2.2605
 1010MOL0     H33295   8.543   0.587   5.882 -0.7939 -0.3418 -1.5644
 1010MOL0     H33296   8.526   0.495   6.088  1.2562 -0.6448 -2.1313
 1010MOL0     H33297   8.425   0.433   5.948 -0.6273  2.7140 -2.1759
 1010MOL0     H33298   8.222   0.510   6.051 -0.3678 -1.2168  1.1283
 1010MOL0     H33299   8.323   0.410   6.169  1.2463 -2.0570 -2.2724
 1010MOL0     H33300   8.327   0.718   6.160 -0.0628  0.4753  2.2338
 1010MOL0     H33301   8.400   0.604   6.275 -0.9306 -1.3786  0.2312
 1010MOL0     H33302   7.864   0.786   5.807 -1.8894 -1.4596 -1.9552
 1010MOL0     H33303   7.709   0.834   5.972  1.2696  0.6124 -1.5156
 1010MOL0     H33304   7.286   0.855   6.147 -1.5244  0.1056  0.0821
 1010MOL0     H33305   7.169   0.927   6.348  0.4267  0.7476  0.6419
 1010MOL0     H33306   5.920   1.461   7.129  2.5282  1.2846  1.7026
 1010MOL0     H33307   5.698   1.551   7.070  3.4397 -0.7875 -0.9381
 1010MOL0     H33308   5.168   1.558   7.106  1.0864 -0.2666 -2.5861
 1010MOL0     H33309   5.010   1.717   7.015 -0.8420 -0.4679  0.9814
 1010MOL0     H33310   5.175   2.157   6.942 -1.4003  0.5924 -2.5043
 1010MOL0     H33311   5.102   2.149   7.108  1.3371  0.4862 -0.3625
 1010MOL0     H33312   5.022   2.320   6.949  0.9727  0.1466  2.3952
 1010MOL0     H33313   4.945   2.198   6.848 -3.1583 -2.2716  0.8360
 1010MOL0     H33314   4.881   2.223   7.147  2.5556  0.6294 -1.6306
 1010MOL0     H33315   4.811   2.103   7.039 -0.6538  0.1715 -3.1312
 1010MOL0     H33316   4.770   2.395   7.053  2.6487 -1.3967  0.9185
 1010MOL0     H33317   4.741   2.319   6.900  3.4128  1.3394 -0.5590
 1010MOL0     H33318   4.462   2.141   7.183 -0.0233 -0.2572 -1.1613
 1010MOL0     H33319   5.323   2.023   7.045 -3.2223  0.9504 -2.2388
 1010MOL0     H33320   5.456   1.866   7.175  0.0190  2.1766  0.4331
 1011MOL0     O33321   1.221  10.653   1.918 -0.5026 -0.3241 -0.7290
 1011MOL0     C33322   1.272  10.569   1.841  0.0384 -0.4109  0.4936
 1011MOL0     O33323   1.205  10.468   1.770  0.3161  0.4518  0.4019
 1011MOL0     C33324   1.072  10.438   1.780  0.5905  0.4219  0.4215
 1011MOL0     C33325   1.023  10.306   1.750 -0.4009 -0.9957  0.4326
 1011MOL0     C33326   0.891  10.275   1.753  1.1385  0.1338 -0.8241
 1011MOL0     C33327   0.795  10.372   1.792 -0.3656 -0.2073  0.0923
 1011MOL0     O33328   0.669  10.323   1.815  0.5373 -0.0057 -0.6678
 1011MOL0     C33329   0.559  10.418   1.822  0.0289  0.0890  0.1509
 1011MOL0     C33330   0.511  10.461   1.674  0.2666 -0.1258 -0.7443
 1011MOL0     C33331   0.415  10.356   1.611  0.0257  0.0963  0.2418
 1011MOL0     C33332   0.473  10.211   1.596  0.3525 -0.3347 -0.0542
 1011MOL0     C33333   0.386  10.125   1.501  0.1012  0.2063 -0.1102
 1011MOL0     C33334   0.247  10.102   1.562  0.1682 -0.2098 -0.5893
 1011MOL0     C33335   0.175   9.981   1.491 -0.8294 -1.2747 -0.7759
 1011MOL0     C33336   0.056   9.920   1.567  0.0788  0.2313 -0.0239
 1011MOL0     N33337  -0.032   9.833   1.486 -0.7594  0.1483  0.2235
 1011MOL0     C33338  -0.129   9.871   1.392  0.0340 -1.1518  0.2546
 1011MOL0     C33339  -0.195   9.759   1.363  0.3618  0.4059 -0.3100
 1011MOL0     C33340  -0.296   9.731   1.253 -0.0167  0.3542 -0.0862
 1011MOL0     C33341  -0.402   9.626   1.290  0.6884  0.6382  0.4186
 1011MOL0     C33342  -0.470   9.569   1.169 -0.1549  0.2234 -0.2730
 1011MOL0     C33343  -0.590   9.483   1.185 -0.2948  0.2952 -0.6565
 1011MOL0     O33344  -0.706   9.563   1.214 -0.3909  0.2637  0.7343
 1011MOL0     C33345  -0.833   9.523   1.182 -0.1414 -0.7081  0.8590
 1011MOL0     C33346  -0.870   9.393   1.147 -0.5138 -0.6486 -0.8293
 1011MOL0     C33347  -1.000   9.363   1.107  0.0198 -1.2167 -0.1489
 1011MOL0     C33348  -1.098   9.464   1.109  0.5505 -0.3951  0.4404
 1011MOL0     C33349  -1.242   9.421   1.073 -0.2476 -0.1719  0.4965
 1011MOL0     O33350  -1.264   9.284   1.052  0.2897 -0.2779 -0.4588
 1011MOL0     C33351  -1.383   9.235   1.012 -0.5573  0.0648  0.0898
 1011MOL0     C33352  -1.451   9.301   0.915 -0.0718 -0.6075  0.3465
 1011MOL0     C33353  -1.576   9.258   0.863  0.2882  0.6940  0.2881
 1011MOL0     C33354  -1.636   9.140   0.907  0.2911  0.3690 -0.2442
 1011MOL0     O33355  -1.754   9.104   0.851 -0.0463  0.1020  0.2011
 1011MOL0     C33356  -1.829   8.992   0.918 -0.3112 -0.7643  0.1255
 1011MOL0     C33357  -1.934   8.977   0.813 -0.4160 -0.1457  0.3888
 1011MOL0     C33358  -2.046   8.879   0.846  0.8948  0.1110 -0.1732
 1011MOL0     C33359  -1.983   8.745   0.879 -0.1098 -0.2753  0.4406
 1011MOL0     C33360  -2.094   8.637   0.879  0.1950  0.2351 -0.6862
 1011MOL0     C33361  -2.142   8.601   0.733  0.1241  0.5697  0.1661
 1011MOL0     C33362  -2.220   8.477   0.750  0.5669  1.0644 -0.5032
 1011MOL0     C33363  -2.288   8.437   0.620 -0.2573  0.2590  0.8700
 1011MOL0    Cl33364  -2.329   8.267   0.614 -0.0541 -0.5893  0.4630
 1011MOL0     C33365  -1.563   9.061   1.002  0.7785 -1.0136  0.4642
 1011MOL0     C33366  -1.441   9.114   1.052 -0.5042  0.4318  0.0350
 1011MOL0     O33367  -1.327   9.507   1.079 -0.1996  0.2726 -0.1246
 1011MOL0     C33368  -1.059   9.601   1.148  0.5209 -0.1025  0.3793
 1011MOL0     C33369  -0.931   9.626   1.191 -0.2490  0.7601 -0.5968
 1011MOL0     N33370  -0.143   9.657   1.436 -0.3721  0.4021  0.0782
 1011MOL0     N33371  -0.056   9.702   1.517 -0.2297  0.3124  0.4652
 1011MOL0     C33372   0.839  10.501   1.811  0.9514 -0.5448  0.5241
 1011MOL0     C33373   0.973  10.533   1.812 -0.1411  0.0446  0.6330
 1011MOL0     C33374   1.417  10.575   1.842 -0.5351  0.0036 -0.0276
 1011MOL0     C33375   1.491  10.681   1.904 -0.7342  0.1433  0.8587
 1011MOL0     C33376   1.632  10.669   1.891  0.1187  0.9064 -0.8664
 1011MOL0     C33377   1.690  10.563   1.820 -0.2152  0.1444 -0.1629
 1011MOL0     O33378   1.829  10.556   1.795  0.1733  0.0774 -0.6322
 1011MOL0     C33379   1.912  10.664   1.838  0.2280 -0.2158  0.1701
 1011MOL0     C33380   2.053  10.667   1.769  0.1019 -0.1753 -0.0887
 1011MOL0     C33381   2.136  10.538   1.796 -0.2049  1.0742 -0.0099
 1011MOL0     C33382   2.281  10.546   1.731  0.5179 -0.2534 -0.2665
 1011MOL0     C33383   2.369  10.641   1.805 -0.5272 -0.1936 -0.3043
 1011MOL0     C33384   2.430  10.730   1.863 -0.2842 -0.9844  0.0184
 1011MOL0     C33385   1.617  10.457   1.774  0.0065 -1.0247  0.1602
 1011MOL0     C33386   1.476  10.457   1.787 -0.8035 -0.7272  0.5081
 1011MOL0     H33387   1.103  10.240   1.719 -1.0022 -0.8855 -1.5015
 1011MOL0     H33388   0.853  10.178   1.724 -2.6532  1.7560 -1.9524
 1011MOL0     H33389   0.576  10.502   1.890 -1.2511 -1.2863  2.2892
 1011MOL0     H33390   0.473  10.369   1.867  0.4384  1.2662  2.4010
 1011MOL0     H33391   0.600  10.469   1.610  0.1469 -0.2475 -0.9227
 1011MOL0     H33392   0.460  10.558   1.680 -1.6182 -0.9951 -1.8687
 1011MOL0     H33393   0.383  10.387   1.512 -1.0005  0.7905  0.7681
 1011MOL0     H33394   0.321  10.343   1.665 -2.9481  3.9233 -3.3830
 1011MOL0     H33395   0.569  10.211   1.543  0.6112 -1.5262  0.3663
 1011MOL0     H33396   0.498  10.154   1.686 -0.8896  0.0535  0.5589
 1011MOL0     H33397   0.439  10.029   1.495  1.5657  1.0307 -1.0187
 1011MOL0     H33398   0.398  10.172   1.403  2.7335  3.1609  1.4563
 1011MOL0     H33399   0.189  10.195   1.554 -0.5752 -0.3119  2.4269
 1011MOL0     H33400   0.256  10.086   1.670  0.4173  0.1123 -0.5619
 1011MOL0     H33401   0.142  10.030   1.399 -0.3826 -1.2771 -0.9425
 1011MOL0     H33402   0.249   9.903   1.473 -0.0593 -0.6882 -0.2450
 1011MOL0     H33403  -0.015   9.994   1.604 -1.9428 -1.4900 -0.2717
 1011MOL0     H33404   0.097   9.864   1.652  0.4576  0.9297  0.2529
 1011MOL0     H33405  -0.140   9.970   1.349  0.1567 -2.2804 -2.5787
 1011MOL0     H33406  -0.242   9.696   1.164 -3.7608  0.9228 -2.8295
 1011MOL0     H33407  -0.351   9.823   1.231 -1.0878  0.5261  2.8563
 1011MOL0     H33408  -0.474   9.690   1.342 -1.2425 -1.2373  0.1751
 1011MOL0     H33409  -0.361   9.544   1.349 -1.6837 -1.2797 -0.4714
 1011MOL0     H33410  -0.496   9.652   1.102  1.5081  1.2576  0.3241
 1011MOL0     H33411  -0.398   9.499   1.125  0.0638  0.9746 -1.1336
 1011MOL0     H33412  -0.567   9.420   1.271 -2.7742  2.5913  1.9014
 1011MOL0     H33413  -0.605   9.438   1.086  0.0876  1.9845 -1.5205
 1011MOL0     H33414  -0.797   9.313   1.154 -0.2997 -0.2728  2.3843
 1011MOL0     H33415  -1.032   9.261   1.088 -0.2855 -0.7898 -2.1180
 1011MOL0     H33416  -1.402   9.389   0.874  0.3457 -0.7583  0.5153
 1011MOL0     H33417  -1.622   9.320   0.786  0.0423  1.1729  0.8098
 1011MOL0     H33418  -1.870   9.010   1.018  0.1056 -2.3506  0.6143
 1011MOL0     H33419  -1.776   8.897   0.915  1.1155  0.0061  0.1506
 1011MOL0     H33420  -1.885   8.941   0.722 -0.8425 -2.2809  0.9502
 1011MOL0     H33421  -1.970   9.078   0.790  1.9103  0.9071  1.0412
 1011MOL0     H33422  -2.110   8.857   0.760 -0.5343 -1.2034  1.1658
 1011MOL0     H33423  -2.111   8.902   0.931 -2.2062 -1.5184 -1.9384
 1011MOL0     H33424  -1.916   8.717   0.798  1.2415  0.7836  1.1579
 1011MOL0     H33425  -1.936   8.754   0.977 -3.3121  0.1025  2.0938
 1011MOL0     H33426  -2.176   8.676   0.938  0.9283 -2.1911  2.1783
 1011MOL0     H33427  -2.060   8.547   0.932 -1.0269  0.9049  1.3193
 1011MOL0     H33428  -2.062   8.578   0.662  0.3977 -1.4053  1.0695
 1011MOL0     H33429  -2.212   8.679   0.700  1.0407  2.7496  3.0286
 1011MOL0     H33430  -2.162   8.389   0.779 -1.5610  0.2930  1.7878
 1011MOL0     H33431  -2.299   8.479   0.826  0.2654  2.4233 -0.8349
 1011MOL0     H33432  -2.210   8.448   0.543  0.4738 -0.4136  1.5040
 1011MOL0     H33433  -2.377   8.499   0.605 -0.3439  0.0251  0.3888
 1011MOL0     H33434  -1.616   8.977   1.047 -0.9155 -1.0188 -1.3902
 1011MOL0     H33435  -1.396   9.051   1.128  1.3622  0.2157 -1.1852
 1011MOL0     H33436  -1.136   9.677   1.139 -0.5642 -1.2259 -0.1351
 1011MOL0     H33437  -0.926   9.728   1.226 -3.2823 -0.0149  2.6943
 1011MOL0     H33438   0.771  10.575   1.853  1.9225  0.2026  0.8365
 1011MOL0     H33439   1.003  10.634   1.840  3.3438  0.5251 -3.7658
 1011MOL0     H33440   1.452  10.771   1.949 -0.6816  0.2465  0.7002
 1011MOL0     H33441   1.688  10.744   1.947  1.6975 -1.2515  0.6066
 1011MOL0     H33442   1.913  10.677   1.946 -0.3865 -0.9835  0.2738
 1011MOL0     H33443   1.878  10.756   1.789  3.4690  1.1125  0.1052
 1011MOL0     H33444   2.047  10.671   1.660 -1.3520 -0.3905 -0.0393
 1011MOL0     H33445   2.104  10.753   1.813 -2.0585 -0.2657  2.9041
 1011MOL0     H33446   2.077  10.453   1.759 -1.2987  1.9045 -0.2033
 1011MOL0     H33447   2.138  10.529   1.905 -0.3857 -0.5868 -0.1150
 1011MOL0     H33448   2.332  10.450   1.721 -0.8623 -0.8700 -1.8549
 1011MOL0     H33449   2.268  10.585   1.630  1.0963  0.2002 -0.1744
 1011MOL0     H33450   2.490  10.803   1.913 -2.8250  1.0892  0.2693
 1011MOL0     H33451   1.670  10.378   1.722  2.5471  0.9579 -0.4477
 1011MOL0     H33452   1.418  10.373   1.749  0.5106 -0.2343 -3.0126
 1012MOL0     O33453   0.485   2.450   0.559  0.3550  0.0794 -0.4964
 1012MOL0     C33454   0.589   2.512   0.532  0.0790 -0.8118  0.1652
 1012MOL0     O33455   0.589   2.635   0.457 -0.9854 -0.0915  0.1359
 1012MOL0     C33456   0.477   2.702   0.419 -0.1230 -0.2628  0.6116
 1012MOL0     C33457   0.353   2.709   0.489  0.1319  0.0675  0.0778
 1012MOL0     C33458   0.245   2.786   0.441  0.0580  0.4331  0.6499
 1012MOL0     C33459   0.278   2.877   0.339 -0.0933 -0.4488 -0.7500
 1012MOL0     O33460   0.195   2.971   0.291  0.6253 -0.0830 -0.2790
 1012MOL0     C33461   0.053   2.962   0.315 -0.1934 -0.8224  0.4523
 1012MOL0     C33462  -0.011   3.099   0.286 -0.2319  0.2074  0.0040
 1012MOL0     C33463  -0.146   3.093   0.345 -0.3604  1.1581  0.9560
 1012MOL0     C33464  -0.211   3.226   0.315 -0.6962  1.3949 -0.2387
 1012MOL0     C33465  -0.362   3.249   0.336 -0.3866 -0.8589 -0.7646
 1012MOL0     C33466  -0.449   3.157   0.249 -0.0804 -0.0480 -0.4074
 1012MOL0     C33467  -0.601   3.196   0.234  0.0981  0.6918 -0.2601
 1012MOL0     C33468  -0.669   3.243   0.367  0.1064 -0.2686  0.1147
 1012MOL0     N33469  -0.812   3.249   0.332 -0.1449  0.6834  0.3200
 1012MOL0     C33470  -0.878   3.361   0.282 -0.4376  0.4744  0.1460
 1012MOL0     C33471  -1.006   3.354   0.327 -0.3880  0.4082 -0.1994
 1012MOL0     C33472  -1.120   3.447   0.304 -0.9137  0.0731  0.0919
 1012MOL0     C33473  -1.256   3.385   0.310 -0.0350  0.2820  0.2852
 1012MOL0     C33474  -1.290   3.283   0.198  0.1841 -0.3967 -0.1739
 1012MOL0     C33475  -1.436   3.236   0.187 -0.6128  0.1185 -0.0029
 1012MOL0     O33476  -1.496   3.331   0.092  0.2807  0.1546  0.3787
 1012MOL0     C33477  -1.631   3.302   0.060 -0.1228 -0.8401  0.0220
 1012MOL0     C33478  -1.683   3.378  -0.042  0.2114 -0.5886 -0.7660
 1012MOL0     C33479  -1.815   3.364  -0.090 -0.1985  0.2960 -0.3648
 1012MOL0     C33480  -1.897   3.263  -0.032 -0.0514 -0.0070  0.5803
 1012MOL0     C33481  -2.030   3.247  -0.087 -0.2901  0.2896  0.1807
 1012MOL0     O33482  -2.054   3.276  -0.218  0.8615  1.0556 -0.5460
 1012MOL0     C33483  -2.175   3.247  -0.271 -0.0948  0.2832 -0.2126
 1012MOL0     C33484  -2.242   3.337  -0.349  0.7850 -0.1104  0.1612
 1012MOL0     C33485  -2.360   3.305  -0.411 -0.5232 -0.4494 -0.1488
 1012MOL0     C33486  -2.417   3.186  -0.391  0.9507  0.0119 -0.0397
 1012MOL0     O33487  -2.542   3.160  -0.448 -0.2604  0.0356  0.3745
 1012MOL0     C33488  -2.594   3.027  -0.441 -0.4591  0.1774 -0.1633
 1012MOL0     C33489  -2.732   3.039  -0.499 -0.6239  0.5764  0.3268
 1012MOL0     C33490  -2.794   2.905  -0.513  0.1976  0.0480  0.6226
 1012MOL0     C33491  -2.930   2.917  -0.574 -0.4069 -0.8506 -0.0455
 1012MOL0     C33492  -2.964   2.783  -0.656  0.0186  0.1564 -0.8163
 1012MOL0     C33493  -3.105   2.789  -0.717 -0.6975 -0.0852 -0.1841
 1012MOL0     C33494  -3.116   2.877  -0.850 -0.5358  0.0995 -0.5349
 1012MOL0     C33495  -3.250   2.884  -0.908  0.1177  0.2466 -0.4917
 1012MOL0    Cl33496  -3.365   2.947  -0.796  0.4325  0.0877  0.0222
 1012MOL0     C33497  -2.350   3.095  -0.314  0.1270 -0.2786 -0.9190
 1012MOL0     C33498  -2.234   3.125  -0.250  1.0363  0.5799 -0.5569
 1012MOL0     O33499  -2.110   3.220   0.004 -0.2419 -0.1625  0.1750
 1012MOL0     C33500  -1.851   3.183   0.077  0.1360 -0.4007  0.5249
 1012MOL0     C33501  -1.715   3.204   0.119 -0.0309 -0.6403  0.0182
 1012MOL0     N33502  -1.016   3.235   0.396 -0.2016 -0.1990 -0.4375
 1012MOL0     N33503  -0.900   3.175   0.406 -0.2614  0.0483 -0.1618
 1012MOL0     C33504   0.387   2.857   0.266 -0.1417 -0.0229  0.1040
 1012MOL0     C33505   0.494   2.770   0.294 -0.0611  0.3575 -0.2640
 1012MOL0     C33506   0.712   2.463   0.579  0.0531 -0.7592  0.1836
 1012MOL0     C33507   0.729   2.330   0.628 -0.1480  0.6951 -1.0279
 1012MOL0     C33508   0.854   2.276   0.656 -0.3335 -0.2067  0.1218
 1012MOL0     C33509   0.974   2.354   0.644 -0.2820 -0.1716 -0.0290
 1012MOL0     O33510   1.082   2.285   0.694  1.0432  0.4547  0.5192
 1012MOL0     C33511   1.199   2.314   0.620 -0.2427  0.2938  0.3293
 1012MOL0     C33512   1.322   2.294   0.706  0.3829  0.0530 -0.2815
 1012MOL0     C33513   1.444   2.310   0.637 -0.0227  0.2776  0.3873
 1012MOL0     C33514   1.563   2.303   0.740  1.0507  0.2689 -0.7650
 1012MOL0     C33515   1.685   2.248   0.687 -0.0895  0.5237 -0.1501
 1012MOL0     C33516   1.781   2.193   0.637 -0.2803  0.0574  0.2800
 1012MOL0     C33517   0.957   2.483   0.595  0.9121  0.3677  0.5281
 1012MOL0     C33518   0.835   2.539   0.564  1.0099 -0.4864  0.3098
 1012MOL0     H33519   0.336   2.645   0.575 -1.7199 -2.1792 -1.8002
 1012MOL0     H33520   0.151   2.787   0.495 -0.8472  0.7186 -0.8736
 1012MOL0     H33521   0.035   2.943   0.421  0.0611  2.3143  1.1351
 1012MOL0     H33522   0.015   2.884   0.248 -0.9184  0.0441 -0.1795
 1012MOL0     H33523  -0.007   3.112   0.178  3.2787 -2.1570 -0.3405
 1012MOL0     H33524   0.055   3.175   0.328 -2.0988  1.5151  0.6991
 1012MOL0     H33525  -0.141   3.085   0.454 -1.0379  1.5874  1.0264
 1012MOL0     H33526  -0.200   3.006   0.306 -1.3622 -0.2302  4.9853
 1012MOL0     H33527  -0.159   3.293   0.385 -0.6941  1.7801 -0.6045
 1012MOL0     H33528  -0.195   3.256   0.211  2.2294  2.3427  0.3684
 1012MOL0     H33529  -0.397   3.347   0.299 -0.6216 -0.3553  0.7344
 1012MOL0     H33530  -0.387   3.254   0.442  0.3921 -0.6901 -0.5895
 1012MOL0     H33531  -0.449   3.057   0.295 -2.0180 -0.3532 -1.0051
 1012MOL0     H33532  -0.416   3.149   0.145 -3.5810 -1.4394 -1.5422
 1012MOL0     H33533  -0.606   3.278   0.161  0.3855 -1.8536 -3.4034
 1012MOL0     H33534  -0.650   3.114   0.181  3.2117 -1.8009  0.3875
 1012MOL0     H33535  -0.624   3.329   0.417  0.5532 -1.3909  1.7175
 1012MOL0     H33536  -0.652   3.161   0.438 -0.3503  0.4316  1.0642
 1012MOL0     H33537  -0.856   3.433   0.204 -1.8577 -0.8629 -1.5775
 1012MOL0     H33538  -1.109   3.499   0.209 -1.4244  0.2930  0.1494
 1012MOL0     H33539  -1.115   3.527   0.378 -1.2147  1.7262 -1.6024
 1012MOL0     H33540  -1.333   3.460   0.289 -0.9499 -1.2993 -2.5703
 1012MOL0     H33541  -1.264   3.341   0.410  0.1751  2.4634  1.3312
 1012MOL0     H33542  -1.272   3.326   0.099 -0.1642  0.0478 -0.0494
 1012MOL0     H33543  -1.227   3.195   0.208 -0.5849 -1.0749 -1.1304
 1012MOL0     H33544  -1.483   3.228   0.286  1.5124  1.3198  1.1844
 1012MOL0     H33545  -1.427   3.136   0.144  0.5364  1.1490 -2.3502
 1012MOL0     H33546  -1.617   3.459  -0.071  2.1341 -1.3778  1.1418
 1012MOL0     H33547  -1.840   3.398  -0.189  2.3186 -0.4656 -1.3442
 1012MOL0     H33548  -2.199   3.436  -0.361 -2.2241  1.5200  1.6353
 1012MOL0     H33549  -2.411   3.386  -0.462 -0.9529  0.3160  1.4193
 1012MOL0     H33550  -2.593   2.983  -0.341  1.2623 -0.1146 -0.2766
 1012MOL0     H33551  -2.532   2.957  -0.499 -1.3366 -1.7664  1.1401
 1012MOL0     H33552  -2.738   3.080  -0.601 -3.5265  2.6476  1.2007
 1012MOL0     H33553  -2.793   3.111  -0.444 -0.7554  0.6664  0.0676
 1012MOL0     H33554  -2.786   2.857  -0.415 -0.7965 -0.7070  0.3490
 1012MOL0     H33555  -2.726   2.846  -0.575 -0.9133 -0.8670  0.2345
 1012MOL0     H33556  -2.996   2.916  -0.487  1.5914 -0.3998  1.5560
 1012MOL0     H33557  -2.952   3.011  -0.625  0.4150 -1.6147 -1.9020
 1012MOL0     H33558  -2.959   2.695  -0.591 -0.9388 -0.3242 -1.3689
 1012MOL0     H33559  -2.889   2.765  -0.733  0.2246  1.5353 -0.9580
 1012MOL0     H33560  -3.159   2.831  -0.632 -1.3359  2.7339 -1.8377
 1012MOL0     H33561  -3.138   2.685  -0.731  0.2557 -0.7829  2.2710
 1012MOL0     H33562  -3.087   2.983  -0.842  0.7216 -0.0881 -2.0977
 1012MOL0     H33563  -3.057   2.840  -0.933  1.9129  2.1518  0.1467
 1012MOL0     H33564  -3.279   2.780  -0.925  1.0973  0.2632 -2.5017
 1012MOL0     H33565  -3.255   2.950  -0.995  1.7588  2.7875  1.1989
 1012MOL0     H33566  -2.396   2.997  -0.305 -2.8480  0.9237 -1.5886
 1012MOL0     H33567  -2.186   3.040  -0.202  1.3098  0.0422 -1.7471
 1012MOL0     H33568  -1.920   3.108   0.115 -0.0506  0.8024  2.7385
 1012MOL0     H33569  -1.672   3.140   0.195 -1.2869 -0.6096  0.7667
 1012MOL0     H33570   0.402   2.921   0.180  1.7696 -2.6816 -1.6950
 1012MOL0     H33571   0.588   2.760   0.241 -0.3702 -0.4741 -0.6726
 1012MOL0     H33572   0.637   2.273   0.637  1.6134 -2.1479  0.2067
 1012MOL0     H33573   0.860   2.170   0.679 -1.2777 -0.5666 -1.1729
 1012MOL0     H33574   1.210   2.420   0.592  0.3857  0.5019  1.3076
 1012MOL0     H33575   1.210   2.245   0.536 -2.1236  1.1947 -0.7213
 1012MOL0     H33576   1.323   2.351   0.799 -2.3265  1.4558 -0.9942
 1012MOL0     H33577   1.324   2.189   0.736  0.7943 -0.1450 -0.9873
 1012MOL0     H33578   1.446   2.414   0.601 -0.8271  1.1281  2.6320
 1012MOL0     H33579   1.459   2.236   0.558 -0.0206 -0.1562  0.7900
 1012MOL0     H33580   1.572   2.406   0.777 -3.2154  0.7919 -0.6692
 1012MOL0     H33581   1.536   2.242   0.827 -0.1197  0.8510 -0.7013
 1012MOL0     H33582   1.860   2.145   0.582 -1.1956 -0.7125 -0.4128
 1012MOL0     H33583   1.050   2.536   0.576  0.4389  1.1025  0.2166
 1012MOL0     H33584   0.842   2.637   0.517  1.4407 -0.6852 -0.0494
 1013MOL0     O33585   2.471  10.275   6.124 -0.5733  0.1256 -0.1926
 1013MOL0     C33586   2.359  10.278   6.063 -0.1499  0.5559  0.9263
 1013MOL0     O33587   2.311  10.190   5.975  0.2110 -0.1576 -0.4929
 1013MOL0     C33588   2.401  10.092   5.947  0.6102  0.1839 -0.7744
 1013MOL0     C33589   2.459  10.007   6.044  0.2436 -0.1139 -0.7680
 1013MOL0     C33590   2.544   9.900   6.019  0.9351 -1.0291 -0.7569
 1013MOL0     C33591   2.563   9.862   5.891  0.5474 -0.4725 -0.0442
 1013MOL0     O33592   2.641   9.756   5.851  0.0405 -0.3896 -0.1381
 1013MOL0     C33593   2.614   9.633   5.922  0.0144 -0.8105 -0.4627
 1013MOL0     C33594   2.722   9.531   5.887 -0.8561 -0.1475  0.1734
 1013MOL0     C33595   2.855   9.542   5.964 -0.2507  0.0946  0.5467
 1013MOL0     C33596   2.939   9.675   5.954  0.6213  0.4443  0.6580
 1013MOL0     C33597   3.071   9.650   6.034  0.2921 -0.2042 -0.1866
 1013MOL0     C33598   3.159   9.770   6.057  0.6729 -0.0133  0.0419
 1013MOL0     C33599   3.311   9.738   6.094 -0.1398  0.7166 -0.3593
 1013MOL0     C33600   3.380   9.728   5.958  0.0926 -0.3112  0.1862
 1013MOL0     N33601   3.431   9.863   5.914  0.1831 -0.4667  0.2837
 1013MOL0     C33602   3.557   9.917   5.954  0.7899  0.2406  0.5362
 1013MOL0     C33603   3.564  10.039   5.891  0.9747  0.1410 -0.8861
 1013MOL0     C33604   3.667  10.146   5.935 -1.1289  0.2957 -0.4672
 1013MOL0     C33605   3.793  10.145   5.855  1.0958 -0.2942  0.2572
 1013MOL0     C33606   3.866  10.275   5.886 -0.5272  0.2832  0.2558
 1013MOL0     C33607   3.982  10.298   5.807 -0.7496 -0.7298  0.2702
 1013MOL0     O33608   4.090  10.211   5.836  0.5021  0.6841  0.5435
 1013MOL0     C33609   4.210  10.234   5.769 -0.2342 -0.4618  0.6557
 1013MOL0     C33610   4.328  10.211   5.842 -0.4516 -0.4364 -0.0548
 1013MOL0     C33611   4.451  10.226   5.779 -0.3337  1.1877 -0.2855
 1013MOL0     C33612   4.453  10.288   5.652 -0.5547  0.7051  0.6828
 1013MOL0     C33613   4.590  10.348   5.614 -0.1935  0.1332 -0.0161
 1013MOL0     O33614   4.700  10.299   5.682  0.2667  0.0422  0.0851
 1013MOL0     C33615   4.832  10.324   5.644 -0.4548 -0.1723  0.8055
 1013MOL0     C33616   4.871  10.424   5.554  0.0340 -0.1656  0.3646
 1013MOL0     C33617   5.005  10.443   5.510 -0.4478  1.0893  0.1485
 1013MOL0     C33618   5.100  10.362   5.570 -0.5098  0.2871  0.7246
 1013MOL0     O33619   5.237  10.377   5.547 -0.1013  0.0219 -0.3660
 1013MOL0     C33620   5.295  10.511   5.519  0.2182 -0.0311  0.1610
 1013MOL0     C33621   5.443  10.514   5.529  0.0548 -0.1229 -0.2365
 1013MOL0     C33622   5.493  10.643   5.473  0.0518 -0.0459  0.3695
 1013MOL0     C33623   5.638  10.675   5.516  0.4500 -0.3643 -0.2108
 1013MOL0     C33624   5.684  10.812   5.453 -0.5831 -0.8287  0.2156
 1013MOL0     C33625   5.823  10.847   5.508 -0.6473 -0.5037 -0.2505
 1013MOL0     C33626   5.915  10.730   5.555  0.7483 -0.2944 -0.2308
 1013MOL0     C33627   6.063  10.788   5.571 -0.1911  0.4413  0.4489
 1013MOL0    Cl33628   6.083  10.903   5.709  0.0586  0.0462  0.0616
 1013MOL0     C33629   5.061  10.262   5.669 -0.1401 -0.7042  0.2156
 1013MOL0     C33630   4.925  10.244   5.700 -0.0486 -0.1035 -0.5126
 1013MOL0     O33631   4.587  10.427   5.519  0.1289 -0.4487 -0.1729
 1013MOL0     C33632   4.333  10.304   5.586  0.2600 -0.0296 -0.0213
 1013MOL0     C33633   4.212  10.285   5.636 -0.4098 -0.3363 -0.3933
 1013MOL0     N33634   3.449  10.060   5.815  0.2002 -0.4877 -0.2514
 1013MOL0     N33635   3.374   9.952   5.834  1.0302 -0.1890  0.6531
 1013MOL0     C33636   2.503   9.940   5.795 -0.1765 -0.2044 -0.5910
 1013MOL0     C33637   2.432  10.053   5.815 -0.0364 -1.2329 -0.0587
 1013MOL0     C33638   2.273  10.399   6.086  1.2644 -0.1763 -0.7042
 1013MOL0     C33639   2.160  10.417   6.002 -0.5412 -0.3758  0.2887
 1013MOL0     C33640   2.060  10.512   6.042 -0.2532  0.0098 -0.6339
 1013MOL0     C33641   2.083  10.582   6.159 -0.0079  0.4040  0.8776
 1013MOL0     O33642   1.993  10.680   6.194  1.0122  0.0285  0.1852
 1013MOL0     C33643   1.859  10.652   6.233 -0.0862 -0.9153 -0.0898
 1013MOL0     C33644   1.760  10.728   6.150 -0.1798 -0.4668  0.9021
 1013MOL0     C33645   1.777  10.882   6.164  0.1494 -0.7097 -0.7425
 1013MOL0     C33646   1.647  10.953   6.100  0.3985 -0.1766 -0.6121
 1013MOL0     C33647   1.597  10.896   5.981  0.3375  1.0501  0.6115
 1013MOL0     C33648   1.550  10.847   5.885 -0.2851 -0.5403  0.4395
 1013MOL0     C33649   2.194  10.578   6.231  0.2040  0.0434  0.5434
 1013MOL0     C33650   2.285  10.478   6.203  0.2401  0.3843  0.3033
 1013MOL0     H33651   2.435  10.023   6.149 -1.0016 -1.4009 -0.8208
 1013MOL0     H33652   2.595   9.842   6.096  1.9159 -2.0057 -2.0978
 1013MOL0     H33653   2.516   9.586   5.905 -0.8390  0.2628  1.2595
 1013MOL0     H33654   2.616   9.645   6.031 -1.3017  0.6102 -0.5508
 1013MOL0     H33655   2.752   9.543   5.783  0.0005 -4.3349 -0.2443
 1013MOL0     H33656   2.679   9.431   5.904 -1.2133  0.1523  1.1497
 1013MOL0     H33657   2.917   9.456   5.934  2.8654  2.6137 -0.9665
 1013MOL0     H33658   2.832   9.524   6.069  0.0500 -0.0723  0.5858
 1013MOL0     H33659   2.956   9.688   5.847 -0.2653  2.1007  0.6874
 1013MOL0     H33660   2.880   9.763   5.983 -1.1134  0.0171 -1.3773
 1013MOL0     H33661   3.125   9.575   5.976 -0.4988  0.1756 -1.4532
 1013MOL0     H33662   3.054   9.602   6.131 -0.6109 -0.2985 -0.3832
 1013MOL0     H33663   3.123   9.830   6.141  2.0076  0.1001  0.5527
 1013MOL0     H33664   3.149   9.826   5.964  2.5432 -0.8775 -0.7443
 1013MOL0     H33665   3.354   9.814   6.160  0.0175 -0.9049  1.4861
 1013MOL0     H33666   3.336   9.643   6.142  1.0656  1.1943  0.0008
 1013MOL0     H33667   3.305   9.688   5.889  0.8023 -0.2024 -0.6599
 1013MOL0     H33668   3.469   9.664   5.956 -1.5596 -2.8008  0.9742
 1013MOL0     H33669   3.637   9.869   6.009  1.6551  1.4584  0.3769
 1013MOL0     H33670   3.702  10.104   6.029  3.7630  0.0300 -2.1139
 1013MOL0     H33671   3.623  10.245   5.943 -1.1822  0.3708 -1.5453
 1013MOL0     H33672   3.765  10.141   5.750 -1.8997  2.3621  0.7882
 1013MOL0     H33673   3.855  10.057   5.873 -0.3467 -1.3453  0.1872
 1013MOL0     H33674   3.795  10.355   5.862 -2.5231 -1.5470 -0.3018
 1013MOL0     H33675   3.895  10.276   5.991  1.5484 -1.3249 -0.2387
 1013MOL0     H33676   4.015  10.401   5.822 -0.1680 -0.7437 -0.8007
 1013MOL0     H33677   3.949  10.286   5.703  0.6915 -1.1283 -0.1664
 1013MOL0     H33678   4.320  10.183   5.947  0.5757  0.4310  0.2658
 1013MOL0     H33679   4.543  10.217   5.836 -0.9341  0.1005  0.5488
 1013MOL0     H33680   4.794  10.490   5.516 -2.3573 -1.7516  2.1447
 1013MOL0     H33681   5.029  10.540   5.467 -1.7630  1.8573  1.0551
 1013MOL0     H33682   5.253  10.590   5.582  0.0867  2.1413 -2.4577
 1013MOL0     H33683   5.269  10.545   5.418 -0.1853  0.4680  0.4298
 1013MOL0     H33684   5.493  10.434   5.473  2.4407  1.4574 -0.5280
 1013MOL0     H33685   5.473  10.506   5.634 -0.7700  0.7920  0.0837
 1013MOL0     H33686   5.437  10.726   5.516 -0.8479 -1.8785  3.0539
 1013MOL0     H33687   5.495  10.642   5.364 -0.9852 -1.5616  0.3313
 1013MOL0     H33688   5.637  10.691   5.624  0.2738 -1.9809  0.0511
 1013MOL0     H33689   5.686  10.580   5.490 -0.8455 -0.6958 -1.5102
 1013MOL0     H33690   5.609  10.891   5.456 -0.6438 -0.7196 -2.0418
 1013MOL0     H33691   5.698  10.787   5.347 -2.4684 -0.8183 -0.0627
 1013MOL0     H33692   5.812  10.904   5.601  1.3383 -0.7791  0.2017
 1013MOL0     H33693   5.870  10.919   5.441  0.0561  1.4073  2.1478
 1013MOL0     H33694   5.889  10.684   5.651  1.4231 -2.1419 -0.9019
 1013MOL0     H33695   5.918  10.658   5.473  0.6100 -0.9853  0.3584
 1013MOL0     H33696   6.089  10.843   5.480  0.1966  0.2023  0.4135
 1013MOL0     H33697   6.128  10.701   5.584 -1.4643 -0.2818  2.4347
 1013MOL0     H33698   5.132  10.191   5.711 -0.0660 -2.0332 -1.9650
 1013MOL0     H33699   4.898  10.165   5.770  0.7204  0.7590  0.7876
 1013MOL0     H33700   4.345  10.356   5.491  0.9106  0.7412  0.4694
 1013MOL0     H33701   4.125  10.310   5.577 -2.1796  0.4982  2.3433
 1013MOL0     H33702   2.549   9.910   5.702  0.8660 -1.7248  0.3728
 1013MOL0     H33703   2.390  10.113   5.735  0.0599 -0.0343  0.7482
 1013MOL0     H33704   2.140  10.351   5.918 -4.2363 -1.1131  1.5708
 1013MOL0     H33705   1.969  10.536   5.989  0.4327  1.7618 -1.1044
 1013MOL0     H33706   1.852  10.675   6.340  3.3577  2.7096 -0.4053
 1013MOL0     H33707   1.837  10.545   6.233 -1.5090 -0.7100  2.0979
 1013MOL0     H33708   1.775  10.693   6.048 -0.0228  2.0961 -0.0433
 1013MOL0     H33709   1.658  10.698   6.174 -1.1314 -0.4707 -2.6340
 1013MOL0     H33710   1.872  10.914   6.119 -0.0219 -1.0425 -1.3527
 1013MOL0     H33711   1.776  10.919   6.267  0.6611 -0.4608 -0.8234
 1013MOL0     H33712   1.564  10.943   6.170 -1.2017  0.4894 -2.3175
 1013MOL0     H33713   1.668  11.059   6.086  0.0170 -0.1903 -1.3673
 1013MOL0     H33714   1.515  10.797   5.797 -0.5888  1.7260 -0.7911
 1013MOL0     H33715   2.221  10.639   6.318  0.8113 -2.6950  2.4026
 1013MOL0     H33716   2.367  10.464   6.272 -0.1736 -0.6385  0.6155
 1014MOL0     O33717   9.667  10.013   0.866 -0.4054 -0.4362 -0.2987
 1014MOL0     C33718   9.742  10.041   0.961  0.6766  0.3320 -0.5746
 1014MOL0     O33719   9.721  10.024   1.096 -0.2731 -0.9898  0.1624
 1014MOL0     C33720   9.594   9.993   1.143 -0.1508 -0.6403 -0.0418
 1014MOL0     C33721   9.463  10.029   1.097 -0.7688 -0.7372 -0.0046
 1014MOL0     C33722   9.341   9.975   1.157 -0.3093 -0.2168  0.2659
 1014MOL0     C33723   9.355   9.888   1.261  0.6517 -0.0148 -0.2347
 1014MOL0     O33724   9.235   9.839   1.313 -0.6059  0.6367  0.6340
 1014MOL0     C33725   9.222   9.846   1.453  0.4759  0.7255 -0.3091
 1014MOL0     C33726   9.080   9.796   1.487 -1.0074  0.4395  0.0192
 1014MOL0     C33727   9.068   9.794   1.638 -0.1897  0.2035  0.3782
 1014MOL0     C33728   8.944   9.714   1.662  0.1872 -0.2467  0.4339
 1014MOL0     C33729   8.901   9.694   1.811 -0.5438  0.6089  0.4277
 1014MOL0     C33730   8.756   9.635   1.836 -0.6402 -0.8999  0.1205
 1014MOL0     C33731   8.648   9.741   1.818  0.4866  0.4681  0.2407
 1014MOL0     C33732   8.510   9.678   1.806  0.7851  0.1292 -0.3873
 1014MOL0     N33733   8.451   9.621   1.925  0.6340  0.5427 -0.7895
 1014MOL0     C33734   8.363   9.513   1.916 -0.3490  0.0802 -0.0340
 1014MOL0     C33735   8.306   9.491   2.039 -0.1036 -0.8441  0.1323
 1014MOL0     C33736   8.200   9.381   2.060 -0.9818  0.4327  0.4727
 1014MOL0     C33737   8.085   9.406   2.156  0.8932 -0.3406  0.4426
 1014MOL0     C33738   8.017   9.542   2.108  0.7197 -0.1567  0.5313
 1014MOL0     C33739   7.869   9.563   2.167 -0.0603  0.0754  0.6669
 1014MOL0     O33740   7.779   9.497   2.078 -0.0129 -0.2975 -0.2900
 1014MOL0     C33741   7.649   9.520   2.117  0.2326 -1.6560 -0.9537
 1014MOL0     C33742   7.596   9.570   2.235  0.6142  0.5483  0.2952
 1014MOL0     C33743   7.463   9.606   2.257  0.2648 -0.3873 -0.2350
 1014MOL0     C33744   7.374   9.589   2.158  0.2308  0.2026  0.1133
 1014MOL0     C33745   7.234   9.626   2.174  0.6652  0.1848 -0.0181
 1014MOL0     O33746   7.184   9.665   2.302  0.0587 -0.2056  0.3186
 1014MOL0     C33747   7.049   9.692   2.330 -0.3183  0.4210  0.3637
 1014MOL0     C33748   6.938   9.659   2.254 -0.2591 -1.2252 -0.3636
 1014MOL0     C33749   6.806   9.702   2.296  0.1794  0.7117  0.1507
 1014MOL0     C33750   6.780   9.774   2.407 -0.3121  0.1715 -0.5776
 1014MOL0     O33751   6.660   9.808   2.449 -0.6325 -0.1688  0.2577
 1014MOL0     C33752   6.562   9.820   2.347  0.0463  0.1743 -0.1686
 1014MOL0     C33753   6.436   9.884   2.377 -0.6346 -0.6688  0.0226
 1014MOL0     C33754   6.333   9.794   2.445  0.5118 -0.0491  0.9337
 1014MOL0     C33755   6.188   9.849   2.446 -0.3915 -0.4502 -0.1778
 1014MOL0     C33756   6.086   9.747   2.493 -0.3098 -0.2868  0.7156
 1014MOL0     C33757   5.946   9.802   2.469  0.1227 -0.1161  0.2981
 1014MOL0     C33758   5.837   9.714   2.508  0.3927 -0.0514  0.1335
 1014MOL0     C33759   5.701   9.784   2.508  0.2138 -1.1108  0.6817
 1014MOL0    Cl33760   5.561   9.674   2.511 -0.0071 -0.5772  0.1543
 1014MOL0     C33761   6.887   9.806   2.483  0.5350  0.0633 -0.0133
 1014MOL0     C33762   7.018   9.767   2.446  0.1749 -0.4473 -0.1165
 1014MOL0     O33763   7.160   9.616   2.075 -0.3493 -0.9092  0.1860
 1014MOL0     C33764   7.420   9.540   2.029 -0.2334 -0.4052  0.0118
 1014MOL0     C33765   7.556   9.495   2.021  0.3152  0.3129  0.1861
 1014MOL0     N33766   8.382   9.559   2.131 -0.1278  0.2883  0.0627
 1014MOL0     N33767   8.462   9.637   2.065 -1.3240  0.2031 -0.6448
 1014MOL0     C33768   9.477   9.870   1.328 -0.0020 -0.7676  1.4022
 1014MOL0     C33769   9.603   9.919   1.267  1.0146  0.1256 -0.6653
 1014MOL0     C33770   9.877  10.089   0.925  0.4257 -0.0415  0.3506
 1014MOL0     C33771   9.924  10.088   0.789 -0.2715  0.5979 -0.4970
 1014MOL0     C33772  10.052  10.147   0.757 -0.7584  0.6058 -0.7875
 1014MOL0     C33773  10.132  10.216   0.858  0.2563 -0.3103  0.4659
 1014MOL0     O33774  10.230  10.306   0.832  0.0268  0.7344  0.0454
 1014MOL0     C33775  10.285  10.282   0.705 -0.9941  0.4501 -0.0332
 1014MOL0     C33776  10.418  10.356   0.691 -1.0509  0.4687  0.8022
 1014MOL0     C33777  10.535  10.278   0.767 -1.1471 -0.8371  0.6688
 1014MOL0     C33778  10.652  10.374   0.795  0.0316 -1.1461 -0.2482
 1014MOL0     C33779  10.753  10.298   0.863  0.1479 -1.0892 -0.5221
 1014MOL0     C33780  10.846  10.245   0.927 -0.0601 -0.2817  0.0126
 1014MOL0     C33781  10.078  10.215   0.992  0.5074  0.8552  0.4237
 1014MOL0     C33782   9.959  10.144   1.025 -0.2670 -0.7717 -0.5131
 1014MOL0     H33783   9.453  10.085   1.005 -2.5605 -1.3576 -0.2368
 1014MOL0     H33784   9.244   9.996   1.114 -1.0991 -2.7164  0.6536
 1014MOL0     H33785   9.227   9.951   1.485  2.4382  0.2773  1.0313
 1014MOL0     H33786   9.293   9.787   1.512 -1.7020 -1.5970  0.1746
 1014MOL0     H33787   9.067   9.694   1.449 -0.5472  0.6544 -0.7466
 1014MOL0     H33788   9.008   9.866   1.444 -2.3315 -1.3377 -0.8053
 1014MOL0     H33789   9.057   9.895   1.678  0.1216  0.2085  0.4512
 1014MOL0     H33790   9.160   9.750   1.678 -0.5690  0.7135  1.8690
 1014MOL0     H33791   8.869   9.766   1.601  1.3228  1.5344  0.4811
 1014MOL0     H33792   8.948   9.610   1.629 -0.4723 -0.1837  0.1438
 1014MOL0     H33793   8.907   9.788   1.866  2.9176  1.0837 -0.5071
 1014MOL0     H33794   8.972   9.633   1.867  1.8563  3.2384  0.4505
 1014MOL0     H33795   8.747   9.585   1.933  1.4727  1.3218  1.5962
 1014MOL0     H33796   8.748   9.557   1.759  0.3833 -1.2149  0.3181
 1014MOL0     H33797   8.640   9.810   1.902  1.1051  0.6770  0.1301
 1014MOL0     H33798   8.661   9.784   1.718  0.3569 -3.6360 -1.7791
 1014MOL0     H33799   8.512   9.602   1.728  0.9534 -1.3367  0.9821
 1014MOL0     H33800   8.443   9.758   1.774 -0.1825 -1.5947 -3.0487
 1014MOL0     H33801   8.311   9.465   1.834 -4.0894  1.8910  1.0398
 1014MOL0     H33802   8.255   9.292   2.091 -0.7883  1.0557  2.0188
 1014MOL0     H33803   8.151   9.356   1.965 -1.0763  0.2464  0.5707
 1014MOL0     H33804   8.116   9.401   2.260  0.9251 -0.1230  0.4450
 1014MOL0     H33805   8.004   9.333   2.148 -2.5400  3.1989 -0.3299
 1014MOL0     H33806   8.082   9.623   2.144  1.3685  0.3847 -1.6737
 1014MOL0     H33807   8.017   9.554   1.999  1.2069 -1.0812  0.4142
 1014MOL0     H33808   7.855   9.671   2.164  2.5775  0.4585 -1.0226
 1014MOL0     H33809   7.874   9.531   2.271 -0.3041 -3.9644 -0.3911
 1014MOL0     H33810   7.659   9.579   2.323  2.0968 -2.0754 -0.3742
 1014MOL0     H33811   7.419   9.654   2.344 -2.4974 -2.4965 -0.3216
 1014MOL0     H33812   6.936   9.615   2.155 -2.2184  1.1874 -1.5181
 1014MOL0     H33813   6.724   9.675   2.229 -0.8012  1.1579  1.1427
 1014MOL0     H33814   6.535   9.722   2.307  0.4957 -0.0154 -0.0054
 1014MOL0     H33815   6.602   9.872   2.259 -1.7807  2.5560  0.2955
 1014MOL0     H33816   6.391   9.931   2.289 -1.2189  2.1419  1.6971
 1014MOL0     H33817   6.446   9.970   2.444 -1.2475  2.0724 -3.1241
 1014MOL0     H33818   6.358   9.770   2.549  1.9152  3.4352  1.5341
 1014MOL0     H33819   6.324   9.701   2.387 -1.7635  0.2302  0.7332
 1014MOL0     H33820   6.176   9.943   2.501 -0.8502 -1.6549  1.8487
 1014MOL0     H33821   6.168   9.885   2.344  0.0257 -0.4655 -0.2673
 1014MOL0     H33822   6.110   9.723   2.597  1.6493  1.5610  0.7397
 1014MOL0     H33823   6.085   9.652   2.438 -0.6538  0.3131 -0.3462
 1014MOL0     H33824   5.919   9.831   2.367 -1.2233  0.9264  0.9114
 1014MOL0     H33825   5.942   9.895   2.527 -2.1731  0.4760 -0.6626
 1014MOL0     H33826   5.830   9.636   2.431  0.9650  0.2998 -0.2811
 1014MOL0     H33827   5.860   9.672   2.606 -0.6681  0.9329  0.8244
 1014MOL0     H33828   5.692   9.849   2.420 -0.1613 -0.1856  1.3876
 1014MOL0     H33829   5.703   9.848   2.597 -2.4791  1.2464 -0.7645
 1014MOL0     H33830   6.871   9.856   2.578  1.3104  1.0032 -0.3598
 1014MOL0     H33831   7.102   9.795   2.509 -1.0687  1.0879  0.9392
 1014MOL0     H33832   7.346   9.534   1.950  0.0653 -0.2223 -0.2831
 1014MOL0     H33833   7.590   9.464   1.923 -0.8624  2.3766 -0.9630
 1014MOL0     H33834   9.468   9.809   1.418  2.1926 -0.5512  1.8340
 1014MOL0     H33835   9.698   9.879   1.302  2.2355  2.5786 -0.9785
 1014MOL0     H33836   9.864  10.045   0.710  0.9708 -0.8065 -0.7212
 1014MOL0     H33837  10.062  10.141   0.649 -2.9599  0.9489 -1.0659
 1014MOL0     H33838  10.210  10.294   0.626 -0.7921 -0.0784 -0.3063
 1014MOL0     H33839  10.302  10.174   0.704 -1.5057  0.3483  1.0551
 1014MOL0     H33840  10.432  10.362   0.582 -1.1053 -2.3020  0.5828
 1014MOL0     H33841  10.407  10.459   0.726  1.1592  0.7279  0.8761
 1014MOL0     H33842  10.572  10.192   0.710  2.0226  0.9403 -0.1933
 1014MOL0     H33843  10.507  10.248   0.868  0.0074 -0.5532  1.0830
 1014MOL0     H33844  10.695  10.408   0.700  1.6337  1.0397  1.1880
 1014MOL0     H33845  10.617  10.455   0.859  1.3635  2.3077 -3.5092
 1014MOL0     H33846  10.911  10.222   1.009 -1.4716  2.2568  1.9920
 1014MOL0     H33847  10.135  10.263   1.070  2.0621  0.3545 -0.3474
 1014MOL0     H33848   9.932  10.131   1.129 -0.2168 -2.2422 -0.6614
 1015MOL0     O33849  11.125   5.958   0.774 -0.1049  0.0701  0.2434
 1015MOL0     C33850  11.174   5.908   0.872  0.3474 -0.4331 -0.3918
 1015MOL0     O33851  11.141   5.935   1.004  0.1476  0.4990 -0.3815
 1015MOL0     C33852  11.046   6.037   1.007 -0.3508 -0.0829 -0.0214
 1015MOL0     C33853  11.085   6.171   0.978  0.1997 -0.0546  0.3952
 1015MOL0     C33854  11.001   6.285   1.007 -0.9003  0.0469 -0.8311
 1015MOL0     C33855  10.878   6.268   1.054 -0.4871  1.2722 -0.2932
 1015MOL0     O33856  10.803   6.377   1.080  0.2461 -0.3714 -0.2742
 1015MOL0     C33857  10.661   6.356   1.075  0.0021  0.1167  0.1226
 1015MOL0     C33858  10.596   6.496   1.059 -0.3588  0.5125 -1.0095
 1015MOL0     C33859  10.442   6.511   1.048 -1.0327  0.1350  0.0126
 1015MOL0     C33860  10.411   6.665   1.052 -0.8026 -0.3377  0.2799
 1015MOL0     C33861  10.259   6.694   1.060 -0.3601 -0.0707  0.1126
 1015MOL0     C33862  10.187   6.637   1.188  0.4549  0.1776  0.6941
 1015MOL0     C33863  10.036   6.666   1.174 -0.4683  0.4094 -0.3218
 1015MOL0     C33864   9.958   6.586   1.077 -0.8680 -0.1112  0.0021
 1015MOL0     N33865   9.819   6.593   1.103 -0.2471 -0.1623  0.2442
 1015MOL0     C33866   9.724   6.672   1.041  1.5409 -0.2552  0.1288
 1015MOL0     C33867   9.603   6.626   1.088  0.4369 -0.4564  0.4692
 1015MOL0     C33868   9.465   6.667   1.036 -0.9216 -0.5520  0.0763
 1015MOL0     C33869   9.436   6.578   0.920  0.1854 -0.3285 -0.0334
 1015MOL0     C33870   9.314   6.637   0.842  0.3950  0.1507 -1.3751
 1015MOL0     C33871   9.282   6.544   0.725  0.2692  0.2223 -0.2204
 1015MOL0     O33872   9.156   6.592   0.663  0.0642  0.2064 -0.4969
 1015MOL0     C33873   9.068   6.495   0.625  0.2498 -0.4102 -0.0756
 1015MOL0     C33874   9.031   6.391   0.706 -0.4225 -0.3295  0.1383
 1015MOL0     C33875   8.930   6.306   0.669 -0.0187  0.7233  0.4420
 1015MOL0     C33876   8.854   6.325   0.554 -0.1495  0.6331 -0.5929
 1015MOL0     C33877   8.742   6.227   0.522  0.0014  0.3035 -0.2253
 1015MOL0     O33878   8.693   6.221   0.401  0.0334  0.5832  0.4446
 1015MOL0     C33879   8.616   6.111   0.364  0.3935  0.3696 -0.0528
 1015MOL0     C33880   8.498   6.139   0.286 -0.0687  0.4471 -0.2037
 1015MOL0     C33881   8.413   6.031   0.243  0.1819  0.6617 -0.1212
 1015MOL0     C33882   8.442   5.893   0.271 -0.0167  0.2818 -0.1980
 1015MOL0     O33883   8.349   5.801   0.225  0.4667  0.4893 -0.2874
 1015MOL0     C33884   8.391   5.662   0.204 -0.1263  0.5561 -0.2155
 1015MOL0     C33885   8.293   5.578   0.130 -0.2364  0.7526 -0.3871
 1015MOL0     C33886   8.274   5.610  -0.022  0.2466  1.2210 -0.2122
 1015MOL0     C33887   8.204   5.739  -0.049  0.1391  0.0685 -0.6523
 1015MOL0     C33888   8.162   5.769  -0.195  0.0102 -0.8666  0.2746
 1015MOL0     C33889   8.129   5.910  -0.227  0.3326  0.2215  0.6091
 1015MOL0     C33890   8.004   5.973  -0.141  0.8709 -0.0909 -0.4352
 1015MOL0     C33891   7.874   5.905  -0.170 -0.1066 -0.3381  0.0191
 1015MOL0    Cl33892   7.746   6.012  -0.125  0.0476  0.5229  0.3603
 1015MOL0     C33893   8.554   5.868   0.349 -0.7858 -0.3926 -0.4281
 1015MOL0     C33894   8.642   5.974   0.384 -0.6197  0.1313  0.2631
 1015MOL0     O33895   8.706   6.158   0.615  0.1513 -0.1347 -0.2212
 1015MOL0     C33896   8.883   6.439   0.472 -0.7834 -0.7737 -0.1401
 1015MOL0     C33897   8.989   6.517   0.507 -0.4373 -0.4425  0.0681
 1015MOL0     N33898   9.633   6.528   1.180 -0.4934  0.0099  0.2596
 1015MOL0     N33899   9.757   6.506   1.187  0.7185  0.8410 -0.2886
 1015MOL0     C33900  10.833   6.128   1.083  0.1223 -0.2807  0.9171
 1015MOL0     C33901  10.923   6.018   1.058  1.2711 -0.1013  0.3525
 1015MOL0     C33902  11.277   5.797   0.859 -0.6428 -0.3937  0.8641
 1015MOL0     C33903  11.289   5.733   0.732 -0.1729 -0.2207 -0.3226
 1015MOL0     C33904  11.399   5.649   0.708 -0.1171  0.7649 -0.0016
 1015MOL0     C33905  11.487   5.612   0.816  0.9200 -0.4820  0.5114
 1015MOL0     O33906  11.583   5.523   0.794  0.9625 -0.3720  0.0921
 1015MOL0     C33907  11.697   5.577   0.728  0.5828 -0.2591 -0.5423
 1015MOL0     C33908  11.821   5.510   0.786  0.1943 -0.0584 -0.6213
 1015MOL0     C33909  11.944   5.573   0.736 -0.4880  0.6944  0.4442
 1015MOL0     C33910  12.062   5.505   0.794  0.1187  0.1756  0.0720
 1015MOL0     C33911  12.095   5.386   0.713 -0.0605 -0.0547  0.2308
 1015MOL0     C33912  12.135   5.295   0.648  0.8464  1.0522  0.0010
 1015MOL0     C33913  11.476   5.682   0.936  0.5465  0.2751 -0.1109
 1015MOL0     C33914  11.373   5.771   0.957  0.4356 -0.7717  0.0659
 1015MOL0     H33915  11.184   6.194   0.941 -0.7665  3.1900 -0.5158
 1015MOL0     H33916  11.038   6.387   1.004 -0.2490 -0.0076  2.1251
 1015MOL0     H33917  10.627   6.307   1.168  0.5587  3.2765  2.1345
 1015MOL0     H33918  10.635   6.290   0.992 -1.0940 -0.2671  0.7422
 1015MOL0     H33919  10.637   6.544   0.970 -1.6067  3.6803 -0.0087
 1015MOL0     H33920  10.622   6.554   1.148 -4.9609 -0.5261  1.3141
 1015MOL0     H33921  10.397   6.457   1.132  1.4284 -0.9306  0.7233
 1015MOL0     H33922  10.392   6.482   0.955 -0.0213 -3.1108  0.3827
 1015MOL0     H33923  10.464   6.715   1.134 -0.4410  0.6255 -0.5178
 1015MOL0     H33924  10.444   6.703   0.955 -0.4588 -1.9733 -0.2725
 1015MOL0     H33925  10.197   6.662   0.975 -1.8921 -0.5490  1.3764
 1015MOL0     H33926  10.253   6.803   1.065  2.4378  0.1482  0.5327
 1015MOL0     H33927  10.233   6.669   1.282 -1.1599 -3.3487  2.8957
 1015MOL0     H33928  10.208   6.530   1.198  3.6955  0.5270 -1.0365
 1015MOL0     H33929   9.995   6.646   1.273  0.1101 -1.1982 -0.3741
 1015MOL0     H33930  10.027   6.771   1.147 -1.9623 -0.4877 -3.9328
 1015MOL0     H33931   9.999   6.485   1.065 -1.1400 -0.1966 -0.2252
 1015MOL0     H33932   9.974   6.639   0.983  1.1021  2.3108  1.5596
 1015MOL0     H33933   9.717   6.744   0.960 -0.9736  1.3903  1.6506
 1015MOL0     H33934   9.491   6.770   1.009  1.7320 -0.3164  2.9539
 1015MOL0     H33935   9.388   6.666   1.113  1.1141 -0.9912  2.2229
 1015MOL0     H33936   9.408   6.481   0.960  1.0390  0.1463  1.8144
 1015MOL0     H33937   9.524   6.579   0.856 -0.2784  1.1293 -0.7000
 1015MOL0     H33938   9.227   6.649   0.907 -0.5160 -0.7039 -2.3930
 1015MOL0     H33939   9.339   6.734   0.799 -0.2825  0.8902 -0.1435
 1015MOL0     H33940   9.283   6.440   0.759  3.0441  0.6788  1.4130
 1015MOL0     H33941   9.359   6.557   0.648  0.6019 -1.5684 -0.2288
 1015MOL0     H33942   9.070   6.368   0.804  1.3864  1.4053 -0.0965
 1015MOL0     H33943   8.909   6.223   0.735  0.6519  0.1631 -0.0291
 1015MOL0     H33944   8.472   6.237   0.246 -1.1173  0.1907 -0.1563
 1015MOL0     H33945   8.328   6.050   0.178  1.4118 -0.7193 -2.2747
 1015MOL0     H33946   8.404   5.614   0.301 -1.7133  1.5086  0.5181
 1015MOL0     H33947   8.488   5.664   0.153  1.8367  0.2373  3.2533
 1015MOL0     H33948   8.194   5.577   0.176 -0.9898  1.1753 -1.9568
 1015MOL0     H33949   8.339   5.479   0.141 -0.8287  0.5558  0.4262
 1015MOL0     H33950   8.215   5.527  -0.062 -1.0925  0.6970  2.6404
 1015MOL0     H33951   8.369   5.624  -0.075  0.4859 -2.6803 -1.1103
 1015MOL0     H33952   8.131   5.748   0.032 -0.1176 -5.8108  0.1999
 1015MOL0     H33953   8.282   5.812  -0.027  1.8261 -0.7365 -3.4443
 1015MOL0     H33954   8.072   5.710  -0.212  1.4441 -2.0045 -5.8828
 1015MOL0     H33955   8.244   5.731  -0.258  0.7867  0.1040  0.6803
 1015MOL0     H33956   8.097   5.930  -0.330 -0.1986  1.0430  0.9167
 1015MOL0     H33957   8.213   5.975  -0.204  1.0987 -0.4884 -0.1381
 1015MOL0     H33958   8.023   5.972  -0.034  0.8219 -0.6270 -0.4301
 1015MOL0     H33959   7.976   6.074  -0.172  0.3271 -0.3308 -0.7464
 1015MOL0     H33960   7.858   5.815  -0.110  1.8856 -1.3194 -0.8394
 1015MOL0     H33961   7.869   5.874  -0.274 -1.7873  2.2027 -0.7704
 1015MOL0     H33962   8.567   5.768   0.388  0.7885 -0.2420 -0.4944
 1015MOL0     H33963   8.729   5.939   0.438 -1.5918 -0.7134  1.3183
 1015MOL0     H33964   8.825   6.469   0.385  0.4923  1.2251 -0.3658
 1015MOL0     H33965   9.022   6.608   0.459 -2.8324  0.7235  0.4688
 1015MOL0     H33966  10.740   6.091   1.125 -0.4890  0.8696  0.6140
 1015MOL0     H33967  10.899   5.916   1.084  2.2795  0.0282  1.9642
 1015MOL0     H33968  11.217   5.771   0.661  0.9977  3.6620  0.2940
 1015MOL0     H33969  11.422   5.613   0.608  1.2956 -0.2148  0.6422
 1015MOL0     H33970  11.697   5.685   0.749 -0.5628 -0.5614  1.1942
 1015MOL0     H33971  11.683   5.557   0.621 -0.5876 -2.0207 -0.0978
 1015MOL0     H33972  11.814   5.511   0.895  0.8003  0.6346 -0.5803
 1015MOL0     H33973  11.817   5.407   0.749  0.3436  0.4446 -2.0971
 1015MOL0     H33974  11.945   5.681   0.753  2.1393  1.1645 -1.9391
 1015MOL0     H33975  11.941   5.557   0.628 -0.5895 -2.8754  0.8649
 1015MOL0     H33976  12.149   5.570   0.781 -0.3104  0.8742  0.6376
 1015MOL0     H33977  12.053   5.478   0.899  0.1398 -0.7423 -0.1526
 1015MOL0     H33978  12.178   5.205   0.608  0.8287  0.0025  2.1958
 1015MOL0     H33979  11.543   5.635   1.007 -0.4178 -2.3522 -0.8246
 1015MOL0     H33980  11.365   5.811   1.058  1.8698 -3.0349  1.1670
 1016MOL0     O33981   3.947   2.311   0.477  0.4501  0.2215 -0.0881
 1016MOL0     C33982   3.963   2.319   0.602  1.0936 -0.8651 -0.4335
 1016MOL0     O33983   3.861   2.328   0.695  0.0366  0.3714 -0.6509
 1016MOL0     C33984   3.734   2.295   0.652 -0.7373 -0.5344  0.7476
 1016MOL0     C33985   3.650   2.368   0.564  0.8488 -0.2053  0.5784
 1016MOL0     C33986   3.523   2.324   0.525  0.9717 -0.1336  0.5527
 1016MOL0     C33987   3.475   2.198   0.574 -0.5263  0.0772  0.7276
 1016MOL0     O33988   3.352   2.154   0.544  0.6309 -0.1803 -0.3554
 1016MOL0     C33989   3.238   2.216   0.482 -0.4125  0.2185 -0.9628
 1016MOL0     C33990   3.139   2.098   0.470 -0.0830 -0.2560 -0.1219
 1016MOL0     C33991   3.013   2.134   0.390  0.6301  0.0207  0.4274
 1016MOL0     C33992   2.937   2.010   0.361  0.2705  0.6304 -0.6526
 1016MOL0     C33993   2.811   2.034   0.268  0.4168  0.5264 -0.6167
 1016MOL0     C33994   2.687   2.060   0.369  0.2015 -0.2831 -0.0182
 1016MOL0     C33995   2.562   2.092   0.293 -0.5543  0.6018  0.3993
 1016MOL0     C33996   2.500   1.972   0.219 -0.8506 -0.2809  0.1925
 1016MOL0     N33997   2.374   2.004   0.155 -0.9699 -0.0636  0.0503
 1016MOL0     C33998   2.253   1.933   0.162  0.2326 -0.4038 -0.8724
 1016MOL0     C33999   2.171   2.014   0.098  0.6123  0.0122 -0.7476
 1016MOL0     C34000   2.030   1.975   0.074 -0.5781 -0.3893 -0.1833
 1016MOL0     C34001   2.029   1.846  -0.011  0.2053 -0.4076  0.2364
 1016MOL0     C34002   1.886   1.802  -0.056 -0.0235 -0.0844 -0.1248
 1016MOL0     C34003   1.883   1.675  -0.140 -0.2356 -0.1222  0.1040
 1016MOL0     O34004   1.744   1.664  -0.185 -0.4577 -0.0448  0.1120
 1016MOL0     C34005   1.724   1.585  -0.295 -0.5295 -0.7058  0.0476
 1016MOL0     C34006   1.608   1.604  -0.364 -0.1471  0.2154 -0.1462
 1016MOL0     C34007   1.586   1.540  -0.491 -0.7829  0.5413 -0.0196
 1016MOL0     C34008   1.681   1.456  -0.551  0.6717  0.6808 -0.3649
 1016MOL0     C34009   1.662   1.403  -0.686  0.8409 -0.0171 -0.0206
 1016MOL0     O34010   1.736   1.296  -0.739  0.2224  0.2849 -0.0110
 1016MOL0     C34011   1.723   1.262  -0.875  0.6488  0.1153 -0.8279
 1016MOL0     C34012   1.619   1.172  -0.909 -0.2451  0.2920 -0.4309
 1016MOL0     C34013   1.592   1.148  -1.041  0.4883  0.1130  0.3890
 1016MOL0     C34014   1.676   1.205  -1.140  0.2319 -0.3466  0.5592
 1016MOL0     O34015   1.623   1.197  -1.264 -0.0906  0.2271 -0.0647
 1016MOL0     C34016   1.703   1.182  -1.376  0.1924 -1.0694 -0.1556
 1016MOL0     C34017   1.626   1.101  -1.477 -0.2856 -1.2014  0.3045
 1016MOL0     C34018   1.500   1.174  -1.531 -0.7745 -0.1047  0.4873
 1016MOL0     C34019   1.440   1.078  -1.630  0.5456 -0.5404 -0.1867
 1016MOL0     C34020   1.334   1.147  -1.718 -0.7320 -0.7916  0.0935
 1016MOL0     C34021   1.282   1.051  -1.824 -0.2549  0.2028 -0.0898
 1016MOL0     C34022   1.165   1.121  -1.889  0.0157  0.8328  0.5278
 1016MOL0     C34023   1.026   1.115  -1.820 -0.0384 -0.0779 -1.2329
 1016MOL0    Cl34024   0.899   1.197  -1.902 -0.2221 -0.2290  0.0422
 1016MOL0     C34025   1.768   1.299  -1.107  0.7739 -0.2853  0.3696
 1016MOL0     C34026   1.789   1.333  -0.972  0.3431 -0.5813 -0.1304
 1016MOL0     O34027   1.593   1.468  -0.759  0.2514  0.1200 -0.1108
 1016MOL0     C34028   1.797   1.429  -0.480 -0.8307  0.4670 -0.2534
 1016MOL0     C34029   1.825   1.499  -0.358 -0.2577 -0.1614 -0.6369
 1016MOL0     N34030   2.245   2.116   0.039 -0.2503  0.1539 -0.4333
 1016MOL0     N34031   2.362   2.117   0.081 -0.1972  0.2005  0.2921
 1016MOL0     C34032   3.560   2.124   0.657 -0.0572  0.5920 -0.0521
 1016MOL0     C34033   3.676   2.178   0.708 -0.2819  0.1509 -0.0761
 1016MOL0     C34034   4.099   2.335   0.657  0.0203  0.2702 -0.0008
 1016MOL0     C34035   4.192   2.389   0.576 -0.7426 -0.4611 -0.1413
 1016MOL0     C34036   4.320   2.402   0.612 -0.2749 -0.5137 -0.3226
 1016MOL0     C34037   4.362   2.371   0.748 -0.5225 -0.5551 -0.4658
 1016MOL0     O34038   4.478   2.404   0.810 -0.3460  0.9925  0.3395
 1016MOL0     C34039   4.554   2.517   0.764 -0.2864 -0.9455  0.8475
 1016MOL0     C34040   4.503   2.648   0.821  0.1237 -0.0188  0.4755
 1016MOL0     C34041   4.592   2.770   0.805 -0.5529 -0.0311 -0.6768
 1016MOL0     C34042   4.524   2.898   0.861 -0.2342 -0.3144 -0.0158
 1016MOL0     C34043   4.623   3.009   0.895 -1.2812 -0.0746 -0.0494
 1016MOL0     C34044   4.696   3.094   0.941 -0.2237 -0.0806  0.1581
 1016MOL0     C34045   4.261   2.312   0.833 -0.8101 -0.4232 -0.2845
 1016MOL0     C34046   4.133   2.296   0.789  0.1348 -0.7667 -0.8279
 1016MOL0     H34047   3.672   2.460   0.510  2.2261  0.2984  1.9171
 1016MOL0     H34048   3.465   2.369   0.446  0.3123  0.7285  1.5047
 1016MOL0     H34049   3.248   2.266   0.385 -2.6734 -1.4587 -2.1685
 1016MOL0     H34050   3.194   2.286   0.553 -1.0364  3.2686 -4.0694
 1016MOL0     H34051   3.109   2.069   0.571  1.1166 -1.1326  0.0015
 1016MOL0     H34052   3.192   2.012   0.429 -3.1269 -1.8263 -1.0336
 1016MOL0     H34053   3.045   2.168   0.291  1.9547 -1.5967  0.2556
 1016MOL0     H34054   2.949   2.203   0.446  0.3593  0.7634 -0.7544
 1016MOL0     H34055   3.008   1.944   0.310  0.1544 -0.4675  0.5773
 1016MOL0     H34056   2.903   1.967   0.455  0.2063  0.3954 -0.7822
 1016MOL0     H34057   2.810   1.944   0.206  1.1567  0.7358 -0.9393
 1016MOL0     H34058   2.824   2.116   0.196 -0.8926 -0.6708 -2.3063
 1016MOL0     H34059   2.707   2.148   0.431 -3.4528  2.5595 -2.4332
 1016MOL0     H34060   2.665   1.966   0.420 -0.0250 -1.4137 -2.0875
 1016MOL0     H34061   2.481   2.122   0.360 -2.6072  0.2349 -1.7830
 1016MOL0     H34062   2.577   2.177   0.225 -1.0186 -1.1238 -1.9816
 1016MOL0     H34063   2.488   1.886   0.286  1.3258  0.5393  1.7424
 1016MOL0     H34064   2.563   1.961   0.130  0.4969  0.3429  1.0438
 1016MOL0     H34065   2.228   1.840   0.211  0.2611  0.4638  0.8769
 1016MOL0     H34066   1.983   2.060   0.023  0.3421 -0.3952 -1.0718
 1016MOL0     H34067   1.971   1.961   0.165  1.7111  0.1606  1.4859
 1016MOL0     H34068   2.078   1.767   0.047 -1.6979 -0.3510  2.0095
 1016MOL0     H34069   2.092   1.857  -0.100  0.1453  2.4795  0.4612
 1016MOL0     H34070   1.834   1.782   0.038 -1.7984 -0.8007 -1.2150
 1016MOL0     H34071   1.839   1.879  -0.118 -0.9468  1.5901  2.4560
 1016MOL0     H34072   1.913   1.593  -0.074  0.9554 -0.1342 -0.4354
 1016MOL0     H34073   1.953   1.691  -0.223 -0.1750 -0.8879 -0.0027
 1016MOL0     H34074   1.536   1.669  -0.315  0.0771  0.7758 -0.5466
 1016MOL0     H34075   1.499   1.556  -0.554  0.0232  0.0633 -1.2952
 1016MOL0     H34076   1.566   1.125  -0.827  1.6484  2.8532  2.4998
 1016MOL0     H34077   1.516   1.076  -1.070  0.2851  0.0129  1.1506
 1016MOL0     H34078   1.795   1.131  -1.346  0.0492 -1.9874 -1.1880
 1016MOL0     H34079   1.734   1.274  -1.426  1.4695 -2.1076 -1.4083
 1016MOL0     H34080   1.605   1.001  -1.439  0.9364 -1.0400  1.5056
 1016MOL0     H34081   1.697   1.092  -1.560 -0.2514  1.4831 -0.0604
 1016MOL0     H34082   1.524   1.271  -1.577  1.1530 -0.0653  1.4708
 1016MOL0     H34083   1.425   1.195  -1.455 -0.7320  1.7137  0.0829
 1016MOL0     H34084   1.513   1.050  -1.707 -1.7279  1.7972 -3.5010
 1016MOL0     H34085   1.402   0.991  -1.575  1.5995  0.0662  1.5822
 1016MOL0     H34086   1.374   1.234  -1.772 -0.3222 -0.8314  0.3275
 1016MOL0     H34087   1.247   1.190  -1.667 -2.8343  3.6855 -5.9753
 1016MOL0     H34088   1.242   0.955  -1.790 -1.5664  0.8505  0.2504
 1016MOL0     H34089   1.358   1.024  -1.899  0.2700 -1.4695  0.9824
 1016MOL0     H34090   1.200   1.219  -1.920 -0.2636  0.8735  0.3358
 1016MOL0     H34091   1.146   1.057  -1.976 -1.1763  2.0350 -0.1322
 1016MOL0     H34092   1.034   1.150  -1.717  2.1319  0.3847 -1.5205
 1016MOL0     H34093   0.994   1.011  -1.811 -0.9166  0.3129  0.6609
 1016MOL0     H34094   1.828   1.359  -1.175 -1.2407 -2.0464 -3.2508
 1016MOL0     H34095   1.847   1.419  -0.942 -1.4277  0.3234  0.8756
 1016MOL0     H34096   1.875   1.370  -0.525  1.3109  1.6171  1.7246
 1016MOL0     H34097   1.921   1.492  -0.308  0.1653 -1.8295 -1.5982
 1016MOL0     H34098   3.511   2.036   0.697 -1.2630  1.7396  1.1144
 1016MOL0     H34099   3.722   2.127   0.792 -0.7691 -1.2671 -0.6349
 1016MOL0     H34100   4.164   2.416   0.475 -1.3702 -1.4636 -0.2533
 1016MOL0     H34101   4.398   2.442   0.548  0.9341  0.0818  1.4375
 1016MOL0     H34102   4.549   2.529   0.655  1.3764 -0.8414  0.7657
 1016MOL0     H34103   4.659   2.501   0.788  0.1515 -0.9426 -0.9001
 1016MOL0     H34104   4.408   2.673   0.774 -0.1782  1.5382  1.8263
 1016MOL0     H34105   4.486   2.619   0.925 -2.5484  0.6947  0.3022
 1016MOL0     H34106   4.608   2.792   0.699  4.5978  1.6676  0.1954
 1016MOL0     H34107   4.687   2.749   0.854 -1.2327  0.3452  0.8610
 1016MOL0     H34108   4.441   2.931   0.797  1.6996 -0.0535 -2.5814
 1016MOL0     H34109   4.485   2.868   0.958  4.7432 -0.8617  2.0844
 1016MOL0     H34110   4.765   3.173   0.961  0.6720 -0.0432 -2.7255
 1016MOL0     H34111   4.277   2.280   0.936  1.7144  0.1502 -0.4509
 1016MOL0     H34112   4.061   2.261   0.863  3.3794 -0.6906  2.6897
 1017MOL0     O34113   9.294   8.240   7.749  0.4243 -0.1357  0.1179
 1017MOL0     C34114   9.359   8.234   7.854  0.1547  0.2102 -0.2839
 1017MOL0     O34115   9.304   8.226   7.978 -0.6243  0.1457  0.6873
 1017MOL0     C34116   9.167   8.209   7.985 -0.5753 -0.5598  0.3623
 1017MOL0     C34117   9.102   8.109   7.908 -0.1066  0.3873  0.4043
 1017MOL0     C34118   8.961   8.098   7.910  0.6456  0.2172 -0.3495
 1017MOL0     C34119   8.887   8.186   7.993 -0.4737 -0.0346  0.4696
 1017MOL0     O34120   8.749   8.186   7.989 -0.0638  0.0195  0.6198
 1017MOL0     C34121   8.704   8.260   7.871  0.0405 -0.2750 -0.8404
 1017MOL0     C34122   8.556   8.225   7.831  0.0833 -0.4130  0.2151
 1017MOL0     C34123   8.524   8.076   7.806 -0.3631  0.3747 -0.3378
 1017MOL0     C34124   8.377   8.044   7.828  0.1914 -0.5696  0.2676
 1017MOL0     C34125   8.349   7.907   7.772  0.5201  1.2729  0.6910
 1017MOL0     C34126   8.202   7.851   7.808 -0.4013 -0.7307  0.0586
 1017MOL0     C34127   8.192   7.708   7.769  1.2501 -0.5062  0.8195
 1017MOL0     C34128   8.190   7.693   7.615  0.0698 -0.6403  0.1272
 1017MOL0     N34129   8.239   7.565   7.570 -0.2328  1.0314  0.1549
 1017MOL0     C34130   8.368   7.517   7.589 -0.6326  0.8514  0.1309
 1017MOL0     C34131   8.361   7.388   7.558 -0.1561  0.1093  0.0336
 1017MOL0     C34132   8.479   7.296   7.574  0.5926 -0.2095  0.3086
 1017MOL0     C34133   8.586   7.331   7.454 -0.2068 -1.0099 -0.4776
 1017MOL0     C34134   8.703   7.229   7.472  0.1905 -0.3078  0.1018
 1017MOL0     C34135   8.827   7.271   7.384  0.2199  0.5494  0.1082
 1017MOL0     O34136   8.892   7.391   7.421 -0.0009  0.4058 -0.3049
 1017MOL0     C34137   9.029   7.407   7.389 -0.5248  0.8022 -0.6102
 1017MOL0     C34138   9.061   7.451   7.265 -0.2345 -0.0458 -0.4210
 1017MOL0     C34139   9.197   7.472   7.235 -0.2694  0.3066  0.3134
 1017MOL0     C34140   9.304   7.448   7.330  0.7990  0.3731 -0.6077
 1017MOL0     C34141   9.439   7.487   7.315 -0.7500  1.0088  0.4934
 1017MOL0     O34142   9.536   7.452   7.405 -0.5391  0.7724  0.5356
 1017MOL0     C34143   9.669   7.461   7.368  0.1694  0.6663 -0.2254
 1017MOL0     C34144   9.720   7.427   7.234 -0.9880  0.0695  0.1780
 1017MOL0     C34145   9.858   7.431   7.214  0.1663 -0.2363  0.1890
 1017MOL0     C34146   9.947   7.444   7.319 -0.5146 -0.6387 -1.0159
 1017MOL0     O34147  10.075   7.430   7.294  0.6364  0.4079  0.6156
 1017MOL0     C34148  10.170   7.414   7.397  0.6076 -0.1512 -0.3143
 1017MOL0     C34149  10.167   7.289   7.481 -0.2189 -0.7728  0.3075
 1017MOL0     C34150  10.144   7.166   7.405  0.1999 -0.4075  0.7615
 1017MOL0     C34151  10.147   7.035   7.496  0.2542  0.3536  0.4425
 1017MOL0     C34152  10.062   6.911   7.434  0.1320 -0.5363  1.3412
 1017MOL0     C34153  10.122   6.861   7.298 -0.2848 -0.5183 -0.4926
 1017MOL0     C34154  10.125   6.710   7.282  0.2244 -0.6686 -0.5038
 1017MOL0     C34155  10.009   6.623   7.335 -0.0215 -0.6204  1.3012
 1017MOL0    Cl34156   9.867   6.691   7.253 -0.1223  0.0905 -0.3057
 1017MOL0     C34157   9.900   7.471   7.451  0.3401 -0.2263  0.2270
 1017MOL0     C34158   9.758   7.475   7.474  0.0741  0.3184  0.2483
 1017MOL0     O34159   9.459   7.558   7.217 -0.2388 -0.9039  0.0706
 1017MOL0     C34160   9.260   7.407   7.460  0.2596  0.3663  0.0701
 1017MOL0     C34161   9.126   7.387   7.488  0.7016 -0.1378  0.4568
 1017MOL0     N34162   8.239   7.359   7.506  0.7476 -0.3448 -1.3849
 1017MOL0     N34163   8.168   7.465   7.510  0.3376  0.4980  0.0678
 1017MOL0     C34164   8.956   8.278   8.074 -0.3438 -0.5195 -0.1675
 1017MOL0     C34165   9.098   8.293   8.069 -0.2210  0.4325 -0.3969
 1017MOL0     C34166   9.510   8.250   7.840  0.6357  0.2919 -0.1121
 1017MOL0     C34167   9.587   8.162   7.914 -0.7011  0.1675  0.4981
 1017MOL0     C34168   9.721   8.154   7.897 -0.5555  0.3086  0.1954
 1017MOL0     C34169   9.783   8.235   7.802 -0.3057  0.5850 -0.8026
 1017MOL0     O34170   9.916   8.226   7.791  0.2379  0.0988 -0.8550
 1017MOL0     C34171   9.963   8.169   7.664  0.1472 -0.6253 -0.8936
 1017MOL0     C34172  10.109   8.137   7.673  0.1626 -0.3820 -0.6517
 1017MOL0     C34173  10.202   8.256   7.661  0.5914  0.8097 -0.6731
 1017MOL0     C34174  10.171   8.376   7.763 -0.7066  0.1048  0.8789
 1017MOL0     C34175  10.276   8.478   7.762  0.2127 -0.5413  0.4380
 1017MOL0     C34176  10.348   8.571   7.742  0.2171 -0.0243 -0.6831
 1017MOL0     C34177   9.707   8.326   7.729  0.2512  0.1198  0.6857
 1017MOL0     C34178   9.570   8.336   7.750 -0.1678  0.2502  0.2629
 1017MOL0     H34179   9.164   8.037   7.856 -1.7384 -1.0384  0.3192
 1017MOL0     H34180   8.915   8.025   7.844  0.5614 -2.0161  2.0311
 1017MOL0     H34181   8.755   8.218   7.783  0.8936 -0.2439 -0.3680
 1017MOL0     H34182   8.728   8.366   7.876 -1.3429  0.1206 -1.8189
 1017MOL0     H34183   8.533   8.280   7.739  3.7045  0.5640 -0.2348
 1017MOL0     H34184   8.494   8.260   7.914  0.5704 -0.5968  0.6600
 1017MOL0     H34185   8.586   8.023   7.878  0.6928  0.2392 -1.3131
 1017MOL0     H34186   8.560   8.041   7.709 -1.4461 -0.5039 -0.4346
 1017MOL0     H34187   8.339   8.056   7.930 -2.4057  1.1599 -0.7781
 1017MOL0     H34188   8.324   8.116   7.764  0.1752 -0.7813  0.0405
 1017MOL0     H34189   8.423   7.839   7.817  1.4524 -0.4341 -2.9687
 1017MOL0     H34190   8.366   7.912   7.664 -2.0998  3.7524  0.2756
 1017MOL0     H34191   8.120   7.915   7.775 -1.1815  0.0253  3.2254
 1017MOL0     H34192   8.192   7.863   7.916  0.2672 -3.1591  0.4425
 1017MOL0     H34193   8.283   7.658   7.804  1.0191 -1.0557  0.6508
 1017MOL0     H34194   8.103   7.653   7.801  0.1008  0.5626 -0.4063
 1017MOL0     H34195   8.240   7.773   7.559 -2.8293  1.4498  0.2932
 1017MOL0     H34196   8.086   7.711   7.586  0.6478  0.6636 -1.3127
 1017MOL0     H34197   8.458   7.573   7.611 -1.3964  2.5881 -0.9714
 1017MOL0     H34198   8.434   7.196   7.572 -1.2865  0.6055 -0.0618
 1017MOL0     H34199   8.533   7.316   7.667 -1.0473  1.2366  1.0012
 1017MOL0     H34200   8.618   7.435   7.462 -0.9467 -0.8415  0.4665
 1017MOL0     H34201   8.537   7.310   7.359 -1.1886 -1.2860  0.0790
 1017MOL0     H34202   8.734   7.223   7.577  2.3399  1.5037 -0.3587
 1017MOL0     H34203   8.679   7.128   7.436  2.2627 -0.3481 -1.3602
 1017MOL0     H34204   8.781   7.276   7.285  2.0570 -1.0737 -0.8974
 1017MOL0     H34205   8.897   7.187   7.377 -0.4423 -0.0667  0.6892
 1017MOL0     H34206   8.986   7.460   7.187 -0.3471  0.9074 -0.2167
 1017MOL0     H34207   9.221   7.498   7.133  2.3038 -0.3966  0.6761
 1017MOL0     H34208   9.658   7.407   7.148  0.7217 -0.9149 -0.8911
 1017MOL0     H34209   9.891   7.409   7.113  1.2679  1.0270  0.2465
 1017MOL0     H34210  10.171   7.490   7.476 -3.2834 -1.3308  1.1175
 1017MOL0     H34211  10.268   7.401   7.350 -0.0641  0.8549 -2.0520
 1017MOL0     H34212  10.092   7.311   7.557  0.6318  3.9193  0.1368
 1017MOL0     H34213  10.270   7.279   7.518 -0.6535  0.3966  1.9203
 1017MOL0     H34214  10.220   7.151   7.329 -0.6093 -1.8177  0.1948
 1017MOL0     H34215  10.054   7.175   7.344  2.1707 -1.3510 -2.5194
 1017MOL0     H34216  10.246   6.995   7.515  0.6652  0.0374 -2.0251
 1017MOL0     H34217  10.104   7.051   7.596 -0.9078 -0.0186  0.0265
 1017MOL0     H34218   9.953   6.926   7.432  0.1774 -0.1857 -0.5617
 1017MOL0     H34219  10.074   6.834   7.512  3.0138 -0.9469  0.5987
 1017MOL0     H34220  10.230   6.868   7.283  0.4483  1.5693  4.1523
 1017MOL0     H34221  10.061   6.898   7.215 -2.0896 -0.2085  0.9133
 1017MOL0     H34222  10.122   6.687   7.175 -2.8364 -1.0918 -0.4199
 1017MOL0     H34223  10.218   6.668   7.322  1.5234 -0.0602 -2.6818
 1017MOL0     H34224   9.996   6.629   7.443 -1.3028 -0.5511  1.1590
 1017MOL0     H34225  10.016   6.521   7.297  0.4315 -0.0049 -0.3349
 1017MOL0     H34226   9.967   7.499   7.531 -1.3099  2.0550  0.9305
 1017MOL0     H34227   9.715   7.491   7.572 -0.0250 -0.4796  0.3343
 1017MOL0     H34228   9.338   7.384   7.532  0.0225 -1.1872 -0.1276
 1017MOL0     H34229   9.082   7.346   7.578 -1.6725  2.1183  0.4594
 1017MOL0     H34230   8.898   8.343   8.138  0.8491 -2.0232  2.6352
 1017MOL0     H34231   9.149   8.371   8.125  2.2109 -1.1310 -0.2862
 1017MOL0     H34232   9.555   8.090   7.990  0.5514 -1.2228 -0.2379
 1017MOL0     H34233   9.793   8.086   7.943  3.0432  1.3793 -3.2547
 1017MOL0     H34234   9.948   8.247   7.589 -1.2606  0.0082 -0.0050
 1017MOL0     H34235   9.907   8.079   7.636 -3.2312  0.3200  2.0004
 1017MOL0     H34236  10.115   8.089   7.771  1.2347  1.0723  0.0386
 1017MOL0     H34237  10.136   8.064   7.596  2.4174 -1.6056  1.1755
 1017MOL0     H34238  10.193   8.306   7.564  3.0260  1.8106 -0.4536
 1017MOL0     H34239  10.299   8.209   7.678 -0.7491 -2.2459 -0.8789
 1017MOL0     H34240  10.078   8.425   7.731 -1.1194 -1.0863  0.2069
 1017MOL0     H34241  10.178   8.340   7.866  3.7571  0.4536  0.8595
 1017MOL0     H34242  10.406   8.661   7.734 -0.8258  0.5565 -2.3100
 1017MOL0     H34243   9.765   8.382   7.657  1.8773 -1.4261  0.7098
 1017MOL0     H34244   9.519   8.408   7.688  2.1878 -0.3913 -2.6614
 1018MOL0     O34245   8.324   2.940   3.254  0.0515 -0.2277 -0.2846
 1018MOL0     C34246   8.420   2.937   3.177  0.7391  0.1692 -0.3839
 1018MOL0     O34247   8.410   2.918   3.033  0.1622 -0.0088  0.0553
 1018MOL0     C34248   8.287   2.894   2.986 -0.0835 -0.0866  0.4703
 1018MOL0     C34249   8.255   2.761   2.961  0.4925 -0.1302  0.5399
 1018MOL0     C34250   8.128   2.731   2.914  0.0779  0.6011 -0.2689
 1018MOL0     C34251   8.042   2.832   2.878  0.1511  0.8576 -0.0689
 1018MOL0     O34252   7.924   2.790   2.815  0.1053 -0.1348 -0.0404
 1018MOL0     C34253   7.841   2.879   2.747 -0.4111 -0.7047 -0.0497
 1018MOL0     C34254   7.744   2.793   2.679 -1.1102  0.1595 -0.1636
 1018MOL0     C34255   7.657   2.862   2.573  0.3290 -0.1006  0.2971
 1018MOL0     C34256   7.545   2.765   2.517  0.1045  0.3984  0.4157
 1018MOL0     C34257   7.466   2.822   2.394 -0.1321 -0.5262 -1.6814
 1018MOL0     C34258   7.389   2.955   2.416  0.1116 -0.3029 -0.2301
 1018MOL0     C34259   7.297   2.993   2.299  0.4743  0.3307 -0.7881
 1018MOL0     C34260   7.370   3.068   2.176  0.6038  0.2702  0.5822
 1018MOL0     N34261   7.282   3.150   2.095 -0.0315 -0.6516  0.7738
 1018MOL0     C34262   7.196   3.093   2.001 -0.3096 -0.9299 -0.5282
 1018MOL0     C34263   7.098   3.187   1.969  0.0589 -0.3178 -0.1025
 1018MOL0     C34264   6.999   3.162   1.863  0.1658  0.4795  0.8297
 1018MOL0     C34265   6.930   3.030   1.884  0.1087  0.3209 -0.1850
 1018MOL0     C34266   6.843   3.024   2.018 -0.7876 -0.3588 -0.5461
 1018MOL0     C34267   6.792   2.890   2.071 -0.2549  0.1851 -0.7861
 1018MOL0     O34268   6.763   2.797   1.962  0.1947 -0.2085  0.3676
 1018MOL0     C34269   6.641   2.806   1.905  0.6336  0.1088  0.0086
 1018MOL0     C34270   6.629   2.735   1.787 -0.5266  0.5819  0.9655
 1018MOL0     C34271   6.507   2.734   1.723  0.1608 -0.0413 -0.0367
 1018MOL0     C34272   6.389   2.808   1.766  0.5266  0.9017  0.5497
 1018MOL0     C34273   6.261   2.806   1.700  0.1323 -0.3267 -1.1319
 1018MOL0     O34274   6.171   2.898   1.735 -0.1519  0.0911  0.4652
 1018MOL0     C34275   6.049   2.900   1.662 -0.2885 -0.2968  0.0421
 1018MOL0     C34276   5.952   2.790   1.676  0.3516 -0.0558 -0.7766
 1018MOL0     C34277   5.841   2.792   1.594 -0.4343 -0.0848 -0.6895
 1018MOL0     C34278   5.810   2.908   1.520 -0.9395 -0.1130 -0.4539
 1018MOL0     O34279   5.686   2.904   1.465  0.3675  0.4226 -0.1098
 1018MOL0     C34280   5.667   2.968   1.350 -0.6089 -0.1523 -0.4022
 1018MOL0     C34281   5.537   2.924   1.290  0.1393 -0.1874  0.5513
 1018MOL0     C34282   5.514   2.998   1.157  0.3191  0.2341  0.3516
 1018MOL0     C34283   5.381   2.948   1.096 -0.7652  0.5746 -0.9543
 1018MOL0     C34284   5.355   3.029   0.970 -0.0672 -0.1527  0.4468
 1018MOL0     C34285   5.250   2.966   0.885 -0.2616 -0.7342  0.5527
 1018MOL0     C34286   5.111   2.958   0.942  0.6323  0.5607  0.0509
 1018MOL0     C34287   5.025   2.865   0.864  0.5593 -0.2520  0.9211
 1018MOL0    Cl34288   5.056   2.683   0.879  0.4861  0.4416 -0.1219
 1018MOL0     C34289   5.894   3.021   1.527  0.7049 -0.3999  1.0231
 1018MOL0     C34290   6.022   3.013   1.584 -0.3350 -0.0785 -0.0460
 1018MOL0     O34291   6.252   2.735   1.599 -0.0011  0.2636 -0.2467
 1018MOL0     C34292   6.410   2.886   1.884  0.5677 -0.8111  0.1637
 1018MOL0     C34293   6.528   2.865   1.957 -0.0995  0.4901 -0.4608
 1018MOL0     N34294   7.122   3.287   2.061  0.2897  0.2475  0.1023
 1018MOL0     N34295   7.233   3.270   2.129 -0.5248  0.3080 -0.6648
 1018MOL0     C34296   8.074   2.959   2.911 -0.1019 -0.0442 -0.0740
 1018MOL0     C34297   8.193   2.996   2.965  1.0071  0.2239  0.1621
 1018MOL0     C34298   8.554   2.936   3.238 -0.5124 -0.9276  0.3049
 1018MOL0     C34299   8.581   2.953   3.380 -0.1606  0.8692  0.2183
 1018MOL0     C34300   8.711   2.938   3.428  0.2613 -0.1311 -0.4606
 1018MOL0     C34301   8.820   2.913   3.346  0.4529 -0.0120 -0.0812
 1018MOL0     O34302   8.948   2.921   3.410 -0.3125 -0.4737  0.2995
 1018MOL0     C34303   9.053   2.858   3.341 -0.4516 -0.5055 -0.5953
 1018MOL0     C34304   9.170   2.820   3.444  0.0457  0.0067 -0.2629
 1018MOL0     C34305   9.284   2.744   3.380 -0.3492 -0.3098 -0.9261
 1018MOL0     C34306   9.395   2.732   3.486 -0.1862  0.4974  0.1817
 1018MOL0     C34307   9.472   2.609   3.456 -0.5473  0.7827 -0.6432
 1018MOL0     C34308   9.519   2.493   3.436 -0.6485 -0.8954 -0.6109
 1018MOL0     C34309   8.790   2.892   3.209 -1.0904  0.0963  0.2815
 1018MOL0     C34310   8.661   2.906   3.157  0.2114 -0.2864  0.3472
 1018MOL0     H34311   8.325   2.680   2.978  0.1559 -0.2705  1.3308
 1018MOL0     H34312   8.107   2.628   2.887  0.8608 -0.3521  2.3398
 1018MOL0     H34313   7.889   2.949   2.677 -4.6080 -0.2620 -2.8454
 1018MOL0     H34314   7.788   2.942   2.819 -0.5919 -0.9152  0.0014
 1018MOL0     H34315   7.681   2.735   2.748  1.3584 -2.6915 -0.0801
 1018MOL0     H34316   7.803   2.724   2.617 -1.6539  1.6264 -2.4340
 1018MOL0     H34317   7.728   2.875   2.491  0.1195 -2.6104 -0.3822
 1018MOL0     H34318   7.612   2.956   2.605 -0.0296  0.4014 -1.5825
 1018MOL0     H34319   7.586   2.665   2.495  0.6346  1.1376 -2.2521
 1018MOL0     H34320   7.480   2.757   2.605  1.0916  0.8893  1.2058
 1018MOL0     H34321   7.388   2.750   2.365 -3.2881  2.0955 -0.3508
 1018MOL0     H34322   7.538   2.836   2.313  0.2030 -1.8716 -1.6423
 1018MOL0     H34323   7.456   3.038   2.445  2.1480 -1.4664 -1.3680
 1018MOL0     H34324   7.338   2.943   2.512 -0.5949 -0.6586 -0.6430
 1018MOL0     H34325   7.243   2.907   2.258 -1.3409  0.5481  0.9510
 1018MOL0     H34326   7.225   3.067   2.336 -0.2507  0.3089 -2.0856
 1018MOL0     H34327   7.433   3.004   2.113 -1.5784  0.7446 -2.3356
 1018MOL0     H34328   7.433   3.145   2.222  0.6876  0.9399 -0.5884
 1018MOL0     H34329   7.216   2.996   1.957  2.0493  0.4420 -2.8099
 1018MOL0     H34330   7.050   3.153   1.767 -0.0247 -0.8712  0.8383
 1018MOL0     H34331   6.919   3.237   1.866 -2.6064 -2.3073  3.1736
 1018MOL0     H34332   7.007   2.952   1.881 -0.6138 -0.3888 -0.9279
 1018MOL0     H34333   6.850   3.018   1.810 -1.8476  0.0299  1.8402
 1018MOL0     H34334   6.906   3.065   2.098 -1.3307  0.6747 -0.6384
 1018MOL0     H34335   6.767   3.102   2.010  1.0917  1.7072  0.4747
 1018MOL0     H34336   6.713   2.905   2.144 -0.2905  0.0661 -0.8002
 1018MOL0     H34337   6.878   2.849   2.125  1.4945  2.3204 -1.8140
 1018MOL0     H34338   6.717   2.686   1.745 -0.1171  1.0569  1.2650
 1018MOL0     H34339   6.501   2.686   1.625 -0.6681  2.1193 -1.1125
 1018MOL0     H34340   5.961   2.713   1.751 -0.1746 -0.9953 -1.6590
 1018MOL0     H34341   5.768   2.712   1.592 -1.9859  1.2442 -0.0207
 1018MOL0     H34342   5.746   2.939   1.279 -1.9674 -0.2112 -1.9553
 1018MOL0     H34343   5.665   3.078   1.353 -1.6195 -0.1598 -0.5001
 1018MOL0     H34344   5.454   2.946   1.358 -0.6345  0.2374 -0.5023
 1018MOL0     H34345   5.531   2.816   1.273  0.8939 -0.2744  0.8203
 1018MOL0     H34346   5.597   2.971   1.091 -0.2346  1.2908 -0.7932
 1018MOL0     H34347   5.518   3.107   1.167  1.5103  0.4223 -1.6242
 1018MOL0     H34348   5.387   2.844   1.063  0.9464 -0.1795  1.4766
 1018MOL0     H34349   5.296   2.952   1.165 -1.0753 -2.4193 -1.0376
 1018MOL0     H34350   5.445   3.024   0.908  2.1668  2.7494  3.1225
 1018MOL0     H34351   5.329   3.135   0.981  0.1434 -0.2005  1.5176
 1018MOL0     H34352   5.278   2.861   0.869  0.7957 -0.1642 -1.6064
 1018MOL0     H34353   5.253   3.021   0.791  0.2838  0.0687  1.0263
 1018MOL0     H34354   5.109   2.910   1.041 -0.3764 -0.6066 -0.5034
 1018MOL0     H34355   5.066   3.057   0.946 -0.2320  0.1428  2.0972
 1018MOL0     H34356   5.026   2.892   0.758 -0.0709 -0.6465  0.8082
 1018MOL0     H34357   4.924   2.884   0.900  0.2291 -0.0670 -0.0666
 1018MOL0     H34358   5.867   3.109   1.469  3.4963  3.2361  4.6769
 1018MOL0     H34359   6.103   3.085   1.582 -0.0125 -0.2239  3.0642
 1018MOL0     H34360   6.341   2.963   1.916  0.7546  1.2847 -3.8640
 1018MOL0     H34361   6.543   2.913   2.053  1.1544 -0.1460 -0.3143
 1018MOL0     H34362   8.011   3.042   2.880  1.1353  1.5443  1.4915
 1018MOL0     H34363   8.215   3.102   2.979 -1.2823  0.8556 -0.5760
 1018MOL0     H34364   8.492   2.968   3.441  0.6532  2.1300  1.1466
 1018MOL0     H34365   8.747   2.953   3.529 -1.1915  0.7079 -0.0526
 1018MOL0     H34366   9.090   2.926   3.263 -1.0467  0.6891  0.1439
 1018MOL0     H34367   9.022   2.758   3.307  1.2972 -1.0063 -0.8400
 1018MOL0     H34368   9.214   2.912   3.483  1.1037 -0.6452  0.1304
 1018MOL0     H34369   9.119   2.758   3.519 -2.5112  0.2933 -1.6542
 1018MOL0     H34370   9.328   2.795   3.294  3.5307  0.1306  1.0841
 1018MOL0     H34371   9.247   2.643   3.362 -0.0250 -1.4940  3.6217
 1018MOL0     H34372   9.463   2.817   3.483  0.9237 -0.3669  0.2915
 1018MOL0     H34373   9.353   2.726   3.587 -3.4139 -0.2499 -1.0780
 1018MOL0     H34374   9.551   2.391   3.422 -2.6020 -1.9859  2.0243
 1018MOL0     H34375   8.869   2.860   3.141 -0.4313  0.1395  1.0187
 1018MOL0     H34376   8.665   2.880   3.052  1.2149 -0.9729  0.5438
 1019MOL0     O34377   5.237  10.937  10.982  0.4108  0.0522  0.2256
 1019MOL0     C34378   5.303  10.900  10.881 -0.3494 -0.1295 -0.4094
 1019MOL0     O34379   5.309  10.771  10.832  0.4842  0.1464  0.1248
 1019MOL0     C34380   5.232  10.672  10.887 -1.0294  0.0199 -0.4149
 1019MOL0     C34381   5.097  10.685  10.879  0.0435 -0.5398 -0.6147
 1019MOL0     C34382   5.016  10.592  10.944  0.8784  0.7903  0.3917
 1019MOL0     C34383   5.065  10.485  11.016  0.8712  0.3994  0.8080
 1019MOL0     O34384   4.977  10.403  11.086 -0.1697  0.4453 -0.6590
 1019MOL0     C34385   5.025  10.277  11.135  1.0155 -0.1919  0.1961
 1019MOL0     C34386   4.908  10.187  11.168  0.1095  0.6878  0.2819
 1019MOL0     C34387   4.832  10.241  11.293  0.2989 -0.2265 -0.3561
 1019MOL0     C34388   4.773  10.130  11.377  0.3941  1.1581  0.1951
 1019MOL0     C34389   4.651  10.174  11.460 -0.3863 -0.8742  0.2935
 1019MOL0     C34390   4.590  10.059  11.546  0.2343 -0.8061 -0.2597
 1019MOL0     C34391   4.455  10.114  11.604 -0.4591  0.1219 -0.7442
 1019MOL0     C34392   4.337  10.091  11.506  0.0683 -0.0514  0.9358
 1019MOL0     N34393   4.224  10.192  11.510 -0.1646  0.4955 -0.2409
 1019MOL0     C34394   4.121  10.204  11.604 -0.4931 -0.7595  0.1544
 1019MOL0     C34395   4.047  10.317  11.581  0.0375  0.2581  0.7645
 1019MOL0     C34396   3.917  10.371  11.661 -1.0885  0.1753  0.2479
 1019MOL0     C34397   3.844  10.483  11.583  0.1228 -0.1519 -0.0260
 1019MOL0     C34398   3.698  10.468  11.614 -0.9599 -0.4124  0.2135
 1019MOL0     C34399   3.609  10.575  11.541 -0.3702 -0.6827  0.2662
 1019MOL0     O34400   3.482  10.577  11.612  0.1079 -0.4863  0.0459
 1019MOL0     C34401   3.379  10.655  11.562  0.0835 -0.2067 -0.1137
 1019MOL0     C34402   3.261  10.610  11.624  1.0427  0.2930 -0.1815
 1019MOL0     C34403   3.138  10.671  11.584  0.7943  1.2598  1.1616
 1019MOL0     C34404   3.143  10.766  11.476  0.5359  0.6601 -0.4121
 1019MOL0     C34405   3.014  10.831  11.427 -0.0293  0.6027  0.0998
 1019MOL0     O34406   3.019  10.906  11.314  0.4982 -0.2555  1.1431
 1019MOL0     C34407   2.911  10.990  11.299  0.5488  0.7076  0.1939
 1019MOL0     C34408   2.909  11.101  11.380  0.3881 -0.1579 -0.0551
 1019MOL0     C34409   2.809  11.204  11.385  0.8876  1.2053 -0.2406
 1019MOL0     C34410   2.707  11.186  11.285 -0.2561  0.3823  0.4386
 1019MOL0     O34411   2.594  11.262  11.268 -0.9147  0.4399  0.0213
 1019MOL0     C34412   2.601  11.388  11.346  0.1788  0.7002  0.3662
 1019MOL0     C34413   2.470  11.468  11.326 -0.1881  0.8266  0.4850
 1019MOL0     C34414   2.344  11.378  11.354 -0.9524  1.0017  0.3690
 1019MOL0     C34415   2.213  11.458  11.368  0.3801 -0.5979 -0.4686
 1019MOL0     C34416   2.112  11.375  11.453  0.8766 -0.0904  0.7130
 1019MOL0     C34417   1.985  11.459  11.476 -0.2971  0.7036  0.0910
 1019MOL0     C34418   1.865  11.362  11.495  0.1326 -0.3390  0.2250
 1019MOL0     C34419   1.739  11.440  11.517  0.8893 -0.1367  0.0011
 1019MOL0    Cl34420   1.599  11.337  11.510 -0.1229 -0.1608  0.0023
 1019MOL0     C34421   2.713  11.075  11.197 -0.4728 -0.2627  0.3338
 1019MOL0     C34422   2.809  10.976  11.204  0.8552 -0.2042 -0.0518
 1019MOL0     O34423   2.923  10.835  11.508 -0.2896  0.6694 -0.1559
 1019MOL0     C34424   3.262  10.817  11.435  0.3094  0.7902  0.3580
 1019MOL0     C34425   3.385  10.762  11.469 -0.5470  0.1677 -0.8512
 1019MOL0     N34426   4.114  10.377  11.475  0.3803 -0.7759 -0.0023
 1019MOL0     N34427   4.208  10.302  11.426 -0.6790 -0.5159 -0.4566
 1019MOL0     C34428   5.204  10.470  11.018  0.3179  0.5652  0.7371
 1019MOL0     C34429   5.290  10.571  10.962 -0.0839  0.4195 -0.4083
 1019MOL0     C34430   5.407  10.998  10.831  0.1890 -0.0752 -0.4295
 1019MOL0     C34431   5.510  10.969  10.740 -0.4857  0.0230  0.0757
 1019MOL0     C34432   5.609  11.063  10.713 -0.2395 -0.3135  0.2717
 1019MOL0     C34433   5.596  11.198  10.766  0.3803  0.9621 -0.7698
 1019MOL0     O34434   5.673  11.310  10.754  0.3127 -0.1607 -0.1108
 1019MOL0     C34435   5.788  11.278  10.677 -0.2390 -0.0528 -0.1843
 1019MOL0     C34436   5.890  11.382  10.688 -0.6865 -0.0689 -0.1794
 1019MOL0     C34437   5.825  11.520  10.685 -0.5064 -0.5833 -0.2109
 1019MOL0     C34438   5.923  11.635  10.712  0.1778 -0.6649  0.1122
 1019MOL0     C34439   6.020  11.659  10.602  0.4971  0.9672 -0.1167
 1019MOL0     C34440   6.088  11.663  10.499  0.5370 -0.4277  0.2965
 1019MOL0     C34441   5.489  11.225  10.847  0.5299  0.6288  0.2252
 1019MOL0     C34442   5.401  11.130  10.883  0.2772  0.2507  0.7395
 1019MOL0     H34443   5.067  10.772  10.821  1.5931  1.0315  0.8135
 1019MOL0     H34444   4.909  10.609  10.957  0.2856 -1.8231 -0.3437
 1019MOL0     H34445   5.094  10.268  11.220  1.1807 -3.6397 -0.1713
 1019MOL0     H34446   5.078  10.231  11.052  1.8457  0.2303  0.4822
 1019MOL0     H34447   4.943  10.085  11.181  1.0108  0.6565 -1.9327
 1019MOL0     H34448   4.836  10.190  11.085  0.6825 -2.2091 -0.4320
 1019MOL0     H34449   4.754  10.314  11.273 -1.0446 -1.0368  1.6409
 1019MOL0     H34450   4.897  10.299  11.360 -0.8138  0.5235  0.0997
 1019MOL0     H34451   4.745  10.049  11.309 -0.1038 -0.5606  2.3181
 1019MOL0     H34452   4.854  10.097  11.444  0.5984  2.0519  0.3976
 1019MOL0     H34453   4.577  10.208  11.386 -0.0914  0.2201  0.4814
 1019MOL0     H34454   4.685  10.254  11.526  1.6695 -1.3759 -0.0843
 1019MOL0     H34455   4.649  10.039  11.636 -1.1617  1.0082  1.1225
 1019MOL0     H34456   4.567   9.964  11.496  0.6239 -1.1961  0.2823
 1019MOL0     H34457   4.434  10.051  11.691  2.5773  0.3675  0.2692
 1019MOL0     H34458   4.451  10.216  11.643 -0.7304  0.1022 -0.7143
 1019MOL0     H34459   4.292   9.995  11.533  0.8246  0.3140  3.8184
 1019MOL0     H34460   4.377  10.093  11.404 -4.4109 -1.9492 -1.1380
 1019MOL0     H34461   4.105  10.140  11.690  2.0071 -1.4998  0.1425
 1019MOL0     H34462   3.948  10.420  11.754  3.2225 -2.6306  0.5772
 1019MOL0     H34463   3.849  10.292  11.695 -0.3048 -1.2683 -1.3670
 1019MOL0     H34464   3.848  10.491  11.474 -0.2173 -2.0549 -0.2143
 1019MOL0     H34465   3.881  10.581  11.613  1.0596 -0.6964  0.6460
 1019MOL0     H34466   3.665  10.369  11.580  2.8511 -1.4890 -0.8014
 1019MOL0     H34467   3.677  10.477  11.721  0.0008  2.4236  0.2660
 1019MOL0     H34468   3.599  10.545  11.436  0.6310 -2.0726  0.5267
 1019MOL0     H34469   3.652  10.675  11.540  0.0674 -0.8678  0.3809
 1019MOL0     H34470   3.265  10.524  11.690  1.0253  0.0623 -0.4808
 1019MOL0     H34471   3.048  10.646  11.639 -0.1440 -2.5676 -1.7427
 1019MOL0     H34472   2.998  11.112  11.442  0.1632 -1.2086  0.4778
 1019MOL0     H34473   2.816  11.289  11.453 -1.1699  1.2025  0.0500
 1019MOL0     H34474   2.680  11.457  11.317 -0.3675  2.7223  3.2044
 1019MOL0     H34475   2.615  11.378  11.454 -1.8297  1.9676  0.7943
 1019MOL0     H34476   2.465  11.509  11.225 -1.6458  2.6641  1.2623
 1019MOL0     H34477   2.459  11.554  11.392  0.2999  1.1248  0.1892
 1019MOL0     H34478   2.362  11.321  11.446 -2.8480  0.2359  0.3211
 1019MOL0     H34479   2.334  11.304  11.274 -0.3174  1.8110 -0.4736
 1019MOL0     H34480   2.224  11.552  11.423 -3.4684 -0.0362 -0.3855
 1019MOL0     H34481   2.177  11.480  11.267 -2.0751 -1.4347  0.1512
 1019MOL0     H34482   2.152  11.331  11.545 -0.8799 -1.5832  0.8254
 1019MOL0     H34483   2.094  11.288  11.390 -0.0211 -0.3585  1.3170
 1019MOL0     H34484   1.970  11.512  11.381  0.2098 -0.4527 -0.6587
 1019MOL0     H34485   1.995  11.535  11.553 -0.6911  2.3194 -1.3899
 1019MOL0     H34486   1.849  11.294  11.411 -0.8048  0.1020  0.0350
 1019MOL0     H34487   1.880  11.304  11.587  0.2084 -0.7768 -0.0569
 1019MOL0     H34488   1.737  11.521  11.444  1.7050  1.1527  1.3293
 1019MOL0     H34489   1.743  11.484  11.618  2.7213  1.7872 -0.8203
 1019MOL0     H34490   2.633  11.060  11.125  0.7406 -0.1755 -1.0682
 1019MOL0     H34491   2.796  10.893  11.134 -0.6815 -0.2542  0.2709
 1019MOL0     H34492   3.261  10.889  11.355  0.0993  1.2414  0.7617
 1019MOL0     H34493   3.480  10.803  11.436  1.1403 -2.0144  0.9531
 1019MOL0     H34494   5.244  10.397  11.087 -0.6079 -1.0730 -0.3715
 1019MOL0     H34495   5.398  10.568  10.979 -0.1943  0.5070  0.3779
 1019MOL0     H34496   5.512  10.885  10.671 -1.1588  0.7888 -0.9032
 1019MOL0     H34497   5.687  11.046  10.639  1.2599  3.3868  0.8066
 1019MOL0     H34498   5.770  11.281  10.569 -3.2507  2.4157  0.2374
 1019MOL0     H34499   5.827  11.180  10.706 -1.2000 -0.4004 -0.0416
 1019MOL0     H34500   5.946  11.365  10.780  1.3660  0.7512 -1.2132
 1019MOL0     H34501   5.968  11.387  10.611 -1.2666  4.0835 -0.7211
 1019MOL0     H34502   5.765  11.527  10.776  0.2524  0.1149  0.2485
 1019MOL0     H34503   5.760  11.540  10.599 -2.1215 -5.1132 -0.3584
 1019MOL0     H34504   5.869  11.729  10.732 -1.6455 -2.2150  3.4248
 1019MOL0     H34505   5.975  11.609  10.804 -1.9006 -0.3013  1.4794
 1019MOL0     H34506   6.140  11.676  10.406 -0.8850 -2.0183 -0.7878
 1019MOL0     H34507   5.490  11.320  10.899  0.9926  0.7869 -0.0667
 1019MOL0     H34508   5.316  11.158  10.944 -0.7688 -1.3345  0.0714
 1020MOL0     O34509   7.702   1.997   7.996 -0.3030  0.4805  0.1284
 1020MOL0     C34510   7.703   1.885   7.938  1.0041 -0.2759 -1.3460
 1020MOL0     O34511   7.599   1.806   7.930 -0.7450  0.6250 -0.2006
 1020MOL0     C34512   7.482   1.845   7.987 -0.3024  0.7003 -0.2202
 1020MOL0     C34513   7.470   1.879   8.128  0.4423  0.2782  0.1204
 1020MOL0     C34514   7.349   1.918   8.186 -0.3627 -0.5704  0.2630
 1020MOL0     C34515   7.231   1.914   8.108 -0.7089 -0.5451  0.1908
 1020MOL0     O34516   7.112   1.958   8.167 -0.3534 -0.2934 -0.5209
 1020MOL0     C34517   6.997   1.996   8.081 -0.4123 -0.2756 -0.2788
 1020MOL0     C34518   6.883   2.041   8.167  0.8309  0.1570  0.4143
 1020MOL0     C34519   6.766   2.077   8.081  0.3988 -0.6719 -0.3440
 1020MOL0     C34520   6.649   2.110   8.177 -0.1595 -0.1830 -0.1319
 1020MOL0     C34521   6.514   2.129   8.114 -0.5156  0.6174 -0.0269
 1020MOL0     C34522   6.407   2.110   8.216 -0.4914  0.0026  0.3247
 1020MOL0     C34523   6.406   2.217   8.321 -0.3179  0.4689  0.1502
 1020MOL0     C34524   6.278   2.225   8.408 -0.2635 -0.5790  0.0286
 1020MOL0     N34525   6.177   2.320   8.351 -0.7519 -0.2136  0.0343
 1020MOL0     C34526   6.078   2.280   8.269  0.4808 -0.5037  0.3173
 1020MOL0     C34527   6.018   2.397   8.238 -0.6634  0.8957  0.4874
 1020MOL0     C34528   5.900   2.420   8.151  1.0416 -0.0704 -0.4378
 1020MOL0     C34529   5.764   2.429   8.229  0.0769  0.3568 -0.2965
 1020MOL0     C34530   5.726   2.299   8.294 -0.2882  0.0261  0.1377
 1020MOL0     C34531   5.577   2.299   8.338 -0.2983 -0.4911 -0.1798
 1020MOL0     O34532   5.543   2.414   8.410 -0.1681 -0.0450  0.2937
 1020MOL0     C34533   5.410   2.426   8.433 -0.0470  0.2919  0.0470
 1020MOL0     C34534   5.323   2.317   8.423  1.3436 -0.3967 -0.0197
 1020MOL0     C34535   5.187   2.332   8.445  0.7041 -0.0676  0.4094
 1020MOL0     C34536   5.140   2.467   8.471  0.7541  0.1727  1.0795
 1020MOL0     C34537   4.992   2.491   8.490  0.7452  0.8427 -0.2048
 1020MOL0     O34538   4.916   2.381   8.495 -0.2300 -0.2089  0.3589
 1020MOL0     C34539   4.776   2.387   8.487 -0.2290  0.1582 -0.4428
 1020MOL0     C34540   4.703   2.459   8.389  0.6081 -0.3428 -0.5437
 1020MOL0     C34541   4.567   2.455   8.399 -0.0229  0.4357  0.6649
 1020MOL0     C34542   4.496   2.386   8.493 -0.7895 -0.0776 -0.6139
 1020MOL0     O34543   4.364   2.399   8.488  0.5707 -0.3651  0.2600
 1020MOL0     C34544   4.278   2.315   8.565  0.3939  0.0769  0.0231
 1020MOL0     C34545   4.134   2.362   8.540  0.1891 -0.7470  0.0149
 1020MOL0     C34546   4.069   2.288   8.423 -0.0471 -0.3125  1.0490
 1020MOL0     C34547   3.938   2.347   8.398  0.1764 -0.2214 -0.7138
 1020MOL0     C34548   3.867   2.291   8.278  0.9553  0.2362 -0.5271
 1020MOL0     C34549   3.718   2.334   8.294 -0.3972  0.6849 -0.0472
 1020MOL0     C34550   3.631   2.265   8.197 -0.0185 -0.0554  0.4093
 1020MOL0     C34551   3.487   2.303   8.226 -0.3605  0.7017 -0.1533
 1020MOL0    Cl34552   3.375   2.221   8.119 -0.1469 -0.1918 -0.2295
 1020MOL0     C34553   4.569   2.318   8.591  0.9922  0.0669 -0.4087
 1020MOL0     C34554   4.707   2.322   8.591  0.0433  0.0418 -0.1694
 1020MOL0     O34555   4.949   2.610   8.505 -0.7030 -0.0977  0.0017
 1020MOL0     C34556   5.222   2.574   8.484 -0.1842 -0.5025  0.2082
 1020MOL0     C34557   5.358   2.554   8.463 -0.1903 -0.4747 -0.7928
 1020MOL0     N34558   6.078   2.502   8.304  0.5147  0.2829  0.2223
 1020MOL0     N34559   6.185   2.455   8.354  0.0352 -0.6482 -0.1057
 1020MOL0     C34560   7.247   1.882   7.966  0.4918  0.4631 -1.0769
 1020MOL0     C34561   7.367   1.850   7.910  0.6324  0.3403  0.6255
 1020MOL0     C34562   7.822   1.825   7.876 -0.1860 -0.6208  0.3097
 1020MOL0     C34563   7.938   1.905   7.850  0.1228 -0.2089  0.2712
 1020MOL0     C34564   8.052   1.855   7.781 -0.6057  0.6161  0.2632
 1020MOL0     C34565   8.058   1.721   7.743  0.1221 -1.0750  0.0296
 1020MOL0     O34566   8.164   1.671   7.673 -0.8499  1.3750  0.5826
 1020MOL0     C34567   8.215   1.752   7.561 -0.2258  0.2554 -0.3287
 1020MOL0     C34568   8.270   1.666   7.443  0.1976  0.2957  0.0352
 1020MOL0     C34569   8.398   1.604   7.498 -0.2708 -0.5061 -0.0118
 1020MOL0     C34570   8.462   1.558   7.367  0.8769 -0.0382  0.0381
 1020MOL0     C34571   8.387   1.447   7.301  0.1110  0.1451  0.0272
 1020MOL0     C34572   8.315   1.353   7.281 -0.2027  0.7651  0.1158
 1020MOL0     C34573   7.940   1.637   7.773 -0.9110  0.6077  0.3175
 1020MOL0     C34574   7.824   1.691   7.835 -0.0309 -1.3850  1.0404
 1020MOL0     H34575   7.558   1.860   8.188  0.7853 -0.4352 -0.5924
 1020MOL0     H34576   7.346   1.933   8.293  1.1926  1.6379  0.0643
 1020MOL0     H34577   6.968   1.907   8.023  2.4184 -3.2820  2.4626
 1020MOL0     H34578   7.042   2.074   8.018  3.2727  1.1092  3.5983
 1020MOL0     H34579   6.902   2.115   8.246  0.7336 -1.4799  2.0569
 1020MOL0     H34580   6.862   1.950   8.225  0.7807 -2.3149 -3.1820
 1020MOL0     H34581   6.733   1.997   8.014  2.2334 -0.0186 -2.1255
 1020MOL0     H34582   6.798   2.156   8.012 -2.7222  1.9132  0.9325
 1020MOL0     H34583   6.642   2.023   8.243  1.4435 -0.2024  0.0713
 1020MOL0     H34584   6.678   2.194   8.240  1.2780 -0.7780  0.0632
 1020MOL0     H34585   6.492   2.055   8.036 -4.2016 -3.1797  4.0504
 1020MOL0     H34586   6.516   2.231   8.073  1.0051  2.0486  3.2101
 1020MOL0     H34587   6.417   2.009   8.257 -1.5866 -2.2895 -4.3932
 1020MOL0     H34588   6.308   2.120   8.171 -0.4229 -0.9512 -0.0428
 1020MOL0     H34589   6.493   2.206   8.387 -1.0331  0.9080  1.1817
 1020MOL0     H34590   6.412   2.311   8.266 -0.9532 -0.1816 -1.0791
 1020MOL0     H34591   6.309   2.269   8.504 -2.7689  2.8275 -0.5232
 1020MOL0     H34592   6.240   2.125   8.428  0.6719 -0.8679  0.4083
 1020MOL0     H34593   6.042   2.184   8.231 -0.4869  0.4871 -1.4124
 1020MOL0     H34594   5.893   2.355   8.064  1.0077  0.8237 -1.1243
 1020MOL0     H34595   5.929   2.513   8.101 -2.1267  0.3971 -1.6923
 1020MOL0     H34596   5.693   2.438   8.146  1.0498 -1.2494 -1.3645
 1020MOL0     H34597   5.760   2.515   8.296  1.4256  2.0029 -2.1893
 1020MOL0     H34598   5.743   2.208   8.236  0.0268 -0.8770  1.5952
 1020MOL0     H34599   5.799   2.285   8.374  0.3762 -1.0314 -0.6379
 1020MOL0     H34600   5.559   2.214   8.404 -3.7312  1.7154  2.0272
 1020MOL0     H34601   5.515   2.285   8.249  1.0070 -2.5766 -0.8553
 1020MOL0     H34602   5.351   2.216   8.394  0.9628 -0.4800 -0.1039
 1020MOL0     H34603   5.107   2.260   8.431 -0.2191  0.9171  0.5071
 1020MOL0     H34604   4.755   2.508   8.308 -0.1914  0.2715 -0.7075
 1020MOL0     H34605   4.509   2.514   8.329 -0.1992 -0.7324 -0.2109
 1020MOL0     H34606   4.299   2.333   8.671 -0.8722  1.2032  0.1102
 1020MOL0     H34607   4.285   2.210   8.534  0.5186 -0.0380  0.4385
 1020MOL0     H34608   4.140   2.470   8.520 -1.0545 -0.8434 -1.0436
 1020MOL0     H34609   4.083   2.334   8.633  3.7535 -1.5430  1.9204
 1020MOL0     H34610   4.056   2.181   8.443 -1.9555  0.2397  3.0666
 1020MOL0     H34611   4.129   2.284   8.331  1.5776  0.5060  2.0125
 1020MOL0     H34612   3.882   2.328   8.489 -0.5794 -0.5939 -1.2540
 1020MOL0     H34613   3.948   2.456   8.384 -0.4554 -0.0033  0.4566
 1020MOL0     H34614   3.871   2.182   8.273 -1.2383  0.1394 -1.3034
 1020MOL0     H34615   3.909   2.330   8.185 -0.5711 -0.9471 -1.7576
 1020MOL0     H34616   3.708   2.443   8.295 -1.1650  0.7800  4.5256
 1020MOL0     H34617   3.672   2.311   8.391 -2.2185  2.1955 -0.4765
 1020MOL0     H34618   3.663   2.297   8.097 -0.1537  1.9057  0.9602
 1020MOL0     H34619   3.654   2.159   8.207  2.6387  0.4428  0.3827
 1020MOL0     H34620   3.470   2.410   8.211 -0.4615  0.4557 -2.0214
 1020MOL0     H34621   3.452   2.281   8.328  0.5951  2.4332  0.5933
 1020MOL0     H34622   4.511   2.269   8.669 -0.5210  0.2356 -1.3948
 1020MOL0     H34623   4.775   2.280   8.664  1.4198 -3.0403 -2.9870
 1020MOL0     H34624   5.180   2.673   8.500  0.1089 -0.3931  0.3131
 1020MOL0     H34625   5.441   2.624   8.467 -0.0557 -0.6907  0.6582
 1020MOL0     H34626   7.157   1.888   7.906 -0.7510 -4.1173 -0.0307
 1020MOL0     H34627   7.365   1.822   7.806  2.0468  0.5828  0.5067
 1020MOL0     H34628   7.924   2.011   7.867 -2.7472 -0.2283 -1.3165
 1020MOL0     H34629   8.130   1.927   7.759 -2.9534  2.3574 -3.1068
 1020MOL0     H34630   8.304   1.802   7.603  0.0996 -0.9623  0.4822
 1020MOL0     H34631   8.143   1.829   7.532 -0.2629  0.5764  0.5569
 1020MOL0     H34632   8.193   1.592   7.418 -0.0965  0.9280 -0.9792
 1020MOL0     H34633   8.274   1.723   7.350  0.0875 -1.2626 -0.9649
 1020MOL0     H34634   8.381   1.518   7.564 -3.2533 -1.6212 -2.0272
 1020MOL0     H34635   8.469   1.676   7.540 -2.3129  2.3604 -1.2049
 1020MOL0     H34636   8.472   1.645   7.302 -0.5379  0.3369  0.2814
 1020MOL0     H34637   8.559   1.519   7.398 -0.2418 -2.6587  0.5782
 1020MOL0     H34638   8.255   1.272   7.246  2.7091 -0.7279 -1.8535
 1020MOL0     H34639   7.930   1.537   7.731 -1.6129  0.7884  0.0516
 1020MOL0     H34640   7.741   1.621   7.841  1.7461 -3.7583 -0.3606
 1021MOL0     O34641   8.568   2.763   0.918 -0.0945  0.4676 -0.6813
 1021MOL0     C34642   8.600   2.856   0.846  0.1329  0.9910 -0.6778
 1021MOL0     O34643   8.523   2.949   0.798  0.5056  0.5428 -0.6943
 1021MOL0     C34644   8.381   2.928   0.792  0.3046  0.3617 -0.4074
 1021MOL0     C34645   8.319   2.806   0.775  1.1879  0.4880  0.2323
 1021MOL0     C34646   8.176   2.790   0.799  0.3332  0.1906 -0.1719
 1021MOL0     C34647   8.093   2.903   0.815 -0.6404  0.4902 -0.4087
 1021MOL0     O34648   7.961   2.874   0.817  0.2380 -0.6412  0.1013
 1021MOL0     C34649   7.867   2.962   0.764  0.3392 -0.1388  0.1431
 1021MOL0     C34650   7.746   2.879   0.727  0.3801  0.5353  0.1412
 1021MOL0     C34651   7.674   2.833   0.858  0.1124 -0.0628 -0.4927
 1021MOL0     C34652   7.538   2.776   0.827 -0.4470  0.2738 -0.3480
 1021MOL0     C34653   7.464   2.714   0.952  0.1456 -0.3357 -0.2173
 1021MOL0     C34654   7.335   2.657   0.922  0.0699 -0.2843 -0.2264
 1021MOL0     C34655   7.282   2.574   1.039 -1.0395 -0.4703 -0.0675
 1021MOL0     C34656   7.141   2.531   1.025  0.6328 -0.1312  0.1056
 1021MOL0     N34657   7.056   2.653   1.043 -0.0469 -0.3018 -0.2470
 1021MOL0     C34658   7.005   2.699   1.166  0.4350  0.9491  0.1423
 1021MOL0     C34659   6.902   2.782   1.130  0.0818  0.3339  1.0358
 1021MOL0     C34660   6.831   2.876   1.219  0.1589  0.1918  0.1489
 1021MOL0     C34661   6.696   2.834   1.260  0.4312  0.1603  0.6246
 1021MOL0     C34662   6.610   2.803   1.138  0.4455  0.2197  0.4491
 1021MOL0     C34663   6.479   2.740   1.181 -0.0354  0.2022 -1.4804
 1021MOL0     O34664   6.395   2.830   1.250 -0.0707  0.3961 -0.0041
 1021MOL0     C34665   6.271   2.838   1.196  0.1861 -0.0386  0.1725
 1021MOL0     C34666   6.259   2.902   1.069 -0.2107  0.0514 -0.0728
 1021MOL0     C34667   6.132   2.922   1.014  0.6480  0.0192  0.2968
 1021MOL0     C34668   6.017   2.886   1.082  0.7026  0.4620 -0.5454
 1021MOL0     C34669   5.882   2.900   1.025 -0.0320  0.5779 -0.0249
 1021MOL0     O34670   5.862   2.992   0.928  0.4781  0.4852  0.4935
 1021MOL0     C34671   5.765   2.981   0.829 -0.1311  0.1644  0.0518
 1021MOL0     C34672   5.678   2.869   0.801 -0.4173  0.1940 -0.3939
 1021MOL0     C34673   5.587   2.879   0.696  0.7521 -0.0189  0.5999
 1021MOL0     C34674   5.571   3.003   0.631  0.7918 -0.8479  0.4010
 1021MOL0     O34675   5.471   3.022   0.541  0.6824 -0.7752  0.2445
 1021MOL0     C34676   5.467   2.919   0.435  0.1273  0.1283  0.2736
 1021MOL0     C34677   5.325   2.900   0.383 -0.2626 -0.2014  0.7489
 1021MOL0     C34678   5.248   2.803   0.467 -0.2666  0.1813  0.3446
 1021MOL0     C34679   5.138   2.734   0.375 -0.1378  0.4756  0.0315
 1021MOL0     C34680   5.024   2.826   0.348  0.0299 -1.3894  0.5118
 1021MOL0     C34681   4.927   2.748   0.255 -0.4480  0.0439  0.7878
 1021MOL0     C34682   4.793   2.821   0.226 -0.2942 -0.0822 -0.9602
 1021MOL0     C34683   4.699   2.738   0.126 -0.0913 -1.4806  0.6474
 1021MOL0    Cl34684   4.597   2.871   0.049 -0.1703  0.2576 -0.0225
 1021MOL0     C34685   5.659   3.110   0.657 -0.2955  0.0768 -0.0543
 1021MOL0     C34686   5.763   3.098   0.748  0.0372 -0.5262 -0.6639
 1021MOL0     O34687   5.804   2.813   1.068 -0.1827 -0.2573  0.3536
 1021MOL0     C34688   6.031   2.825   1.207  0.1181  0.0394  0.0330
 1021MOL0     C34689   6.154   2.794   1.265 -0.4074 -0.1876 -0.1792
 1021MOL0     N34690   6.902   2.792   0.988 -0.5711  0.0191 -0.7047
 1021MOL0     N34691   6.991   2.718   0.940  0.2316  0.2000  0.2517
 1021MOL0     C34692   8.156   3.020   0.822 -0.0440  0.1269  0.3568
 1021MOL0     C34693   8.298   3.039   0.810  0.0548  0.0850  0.4327
 1021MOL0     C34694   8.748   2.871   0.820 -0.0953 -0.4964  1.0385
 1021MOL0     C34695   8.796   2.980   0.743  0.4918 -0.6276 -0.6678
 1021MOL0     C34696   8.931   3.011   0.726 -0.9046 -0.0114 -0.3174
 1021MOL0     C34697   9.024   2.935   0.790 -0.1081 -0.3087  0.6299
 1021MOL0     O34698   9.153   2.986   0.768 -0.0054 -0.3010 -0.3072
 1021MOL0     C34699   9.272   2.899   0.791  0.2765  1.2279  0.1886
 1021MOL0     C34700   9.346   2.917   0.928 -0.1060 -0.2830  0.5093
 1021MOL0     C34701   9.434   2.798   0.966  0.5034 -0.1696  0.2609
 1021MOL0     C34702   9.363   2.665   0.995  0.0852 -0.2939  0.5658
 1021MOL0     C34703   9.258   2.686   1.093  1.2759  0.1791  0.0311
 1021MOL0     C34704   9.166   2.693   1.174 -0.3084  0.1964  0.0639
 1021MOL0     C34705   8.982   2.819   0.867 -0.3836 -0.4646 -0.4800
 1021MOL0     C34706   8.849   2.802   0.886  0.6924 -0.1863 -0.5520
 1021MOL0     H34707   8.377   2.717   0.751  1.1777  0.2458  1.0825
 1021MOL0     H34708   8.137   2.690   0.787 -0.8639  0.5349  0.7210
 1021MOL0     H34709   7.893   3.006   0.668 -0.2002  0.0374  0.0742
 1021MOL0     H34710   7.829   3.046   0.823 -0.2254 -0.2370 -0.0663
 1021MOL0     H34711   7.769   2.795   0.661  2.6262  0.4754  0.9197
 1021MOL0     H34712   7.680   2.940   0.664  0.2910 -0.1866 -0.4757
 1021MOL0     H34713   7.669   2.916   0.930  0.3938 -1.8582  1.7199
 1021MOL0     H34714   7.739   2.759   0.905  0.8526  1.1271  0.4274
 1021MOL0     H34715   7.481   2.867   0.805 -0.1918  0.9706  1.6561
 1021MOL0     H34716   7.557   2.704   0.748  1.1491 -0.1338  0.3640
 1021MOL0     H34717   7.457   2.789   1.032 -1.0232 -1.1102  0.4428
 1021MOL0     H34718   7.509   2.620   0.985 -2.6083 -0.7942  2.8003
 1021MOL0     H34719   7.347   2.594   0.833  1.0989  0.5198 -0.6873
 1021MOL0     H34720   7.262   2.734   0.896  2.3748  1.9731 -0.3918
 1021MOL0     H34721   7.333   2.480   1.058 -0.7458  0.0906  2.1743
 1021MOL0     H34722   7.294   2.635   1.129 -2.2831 -1.2577  0.6618
 1021MOL0     H34723   7.116   2.450   1.094  2.8407 -1.5528 -0.6582
 1021MOL0     H34724   7.128   2.482   0.928  1.5445 -0.7894  0.3012
 1021MOL0     H34725   7.036   2.676   1.267  2.4255  5.4175  0.7570
 1021MOL0     H34726   6.822   2.975   1.173 -1.8360  1.1239  2.3252
 1021MOL0     H34727   6.887   2.884   1.312 -1.1578 -2.3043  1.2560
 1021MOL0     H34728   6.649   2.911   1.322 -2.1473 -0.9418  0.1557
 1021MOL0     H34729   6.704   2.742   1.318  1.9473  0.0195  0.2474
 1021MOL0     H34730   6.596   2.897   1.084 -0.0939 -0.3883 -0.5129
 1021MOL0     H34731   6.658   2.741   1.061  2.9201 -0.8526  2.7112
 1021MOL0     H34732   6.506   2.658   1.248  2.3348  1.9511 -0.1358
 1021MOL0     H34733   6.424   2.684   1.105 -1.1375 -1.4810  0.4272
 1021MOL0     H34734   6.346   2.941   1.018  1.5682 -0.3110  2.4965
 1021MOL0     H34735   6.125   2.969   0.917 -1.5098  0.4705  0.6114
 1021MOL0     H34736   5.689   2.776   0.855 -0.9357 -0.7993 -1.9608
 1021MOL0     H34737   5.518   2.795   0.691 -1.2882  1.5589  0.5930
 1021MOL0     H34738   5.509   2.820   0.453  0.0706 -0.5976 -3.0406
 1021MOL0     H34739   5.533   2.952   0.354  0.3396 -0.0685  0.3661
 1021MOL0     H34740   5.336   2.861   0.281 -2.3306  1.7500 -0.2824
 1021MOL0     H34741   5.272   2.994   0.368 -0.4299 -0.1687  1.5245
 1021MOL0     H34742   5.212   2.844   0.562 -0.4864 -1.0976  0.8333
 1021MOL0     H34743   5.315   2.724   0.503 -0.6408 -0.2308  0.1467
 1021MOL0     H34744   5.183   2.707   0.279 -1.7025  1.2926 -0.9620
 1021MOL0     H34745   5.116   2.637   0.421 -0.3284  0.1006 -0.8327
 1021MOL0     H34746   5.057   2.923   0.310 -1.2088 -0.7914  0.9031
 1021MOL0     H34747   4.972   2.860   0.437 -0.6136  0.1872 -0.4248
 1021MOL0     H34748   4.897   2.654   0.302 -2.2049  0.3515  0.3400
 1021MOL0     H34749   4.978   2.710   0.166  0.0948 -1.8652  1.8520
 1021MOL0     H34750   4.742   2.823   0.323 -0.7101  1.7899 -1.1775
 1021MOL0     H34751   4.809   2.920   0.183 -1.9237  0.1137 -1.1551
 1021MOL0     H34752   4.619   2.676   0.168  0.0263 -1.5233  0.8074
 1021MOL0     H34753   4.758   2.688   0.049  2.2740  0.4962  1.0324
 1021MOL0     H34754   5.644   3.203   0.602  1.0694  0.8064  0.7259
 1021MOL0     H34755   5.842   3.169   0.767  0.1065 -0.8495  0.2679
 1021MOL0     H34756   5.940   2.810   1.264  0.7546  0.0047  1.0768
 1021MOL0     H34757   6.166   2.735   1.355 -1.7215 -0.2393 -0.0097
 1021MOL0     H34758   8.100   3.113   0.830  0.0166  0.2387 -0.4284
 1021MOL0     H34759   8.347   3.135   0.819 -0.9918  0.8280 -1.3134
 1021MOL0     H34760   8.727   3.053   0.700 -1.8071 -3.2960 -1.8296
 1021MOL0     H34761   8.966   3.095   0.667  0.2825 -0.6408 -0.5338
 1021MOL0     H34762   9.349   2.930   0.720 -0.8236  0.2935 -1.4964
 1021MOL0     H34763   9.255   2.792   0.772 -1.2466  1.5352 -0.3005
 1021MOL0     H34764   9.412   3.004   0.921 -2.0855  1.2325 -0.5995
 1021MOL0     H34765   9.269   2.939   1.003 -0.7116  2.7897 -0.8243
 1021MOL0     H34766   9.511   2.828   1.037  1.6058 -2.9586  0.3793
 1021MOL0     H34767   9.496   2.770   0.880  2.9940  0.3585  1.8110
 1021MOL0     H34768   9.330   2.621   0.900  0.4201  0.6887 -0.0257
 1021MOL0     H34769   9.430   2.589   1.034  0.6018  0.1311  0.5205
 1021MOL0     H34770   9.079   2.692   1.236 -0.1326 -1.2218  0.3120
 1021MOL0     H34771   9.053   2.753   0.916 -0.8031 -0.2743  0.3973
 1021MOL0     H34772   8.817   2.716   0.944  2.5984 -1.4671 -1.2830
 1022MOL0     O34773   9.140   9.769   0.482  0.8032  0.5698  0.4604
 1022MOL0     C34774   9.160   9.791   0.362  0.2141  0.6273  0.3807
 1022MOL0     O34775   9.077   9.761   0.258 -0.5721  0.0339 -1.0068
 1022MOL0     C34776   8.972   9.681   0.283 -0.4278  0.8233  0.1178
 1022MOL0     C34777   8.987   9.550   0.350  0.1054 -1.1433  0.6278
 1022MOL0     C34778   8.880   9.453   0.341  0.1071  0.3614  0.4382
 1022MOL0     C34779   8.755   9.495   0.295 -0.5088  0.2993  0.6130
 1022MOL0     O34780   8.648   9.414   0.304  0.4428  0.3093 -0.6570
 1022MOL0     C34781   8.607   9.394   0.441  0.2191  1.3481 -0.3583
 1022MOL0     C34782   8.560   9.250   0.453  0.0333  0.2401  0.3744
 1022MOL0     C34783   8.497   9.236   0.584  0.0806 -0.0459 -0.6970
 1022MOL0     C34784   8.451   9.088   0.609  0.0749 -0.5459  0.8535
 1022MOL0     C34785   8.379   9.055   0.743  0.0385 -0.8592  0.0333
 1022MOL0     C34786   8.349   8.908   0.762  0.5652 -0.9649 -0.4761
 1022MOL0     C34787   8.371   8.865   0.907  0.0964  0.0136 -0.0603
 1022MOL0     C34788   8.284   8.934   1.012 -0.0516  0.0145  0.7047
 1022MOL0     N34789   8.138   8.916   0.984 -0.9672  0.0745 -1.0869
 1022MOL0     C34790   8.059   8.828   1.045  0.0161  0.4141 -0.4751
 1022MOL0     C34791   7.934   8.863   1.011  0.2673  0.0833 -0.0542
 1022MOL0     C34792   7.811   8.813   1.087  0.3259 -0.4938  0.5982
 1022MOL0     C34793   7.682   8.869   1.024 -0.2435 -0.3594 -0.2431
 1022MOL0     C34794   7.568   8.809   1.098 -0.4217  0.2768 -0.0672
 1022MOL0     C34795   7.445   8.898   1.097 -0.5432 -0.0311 -0.7147
 1022MOL0     O34796   7.456   9.025   1.168 -0.2789  0.1210  0.5111
 1022MOL0     C34797   7.332   9.089   1.174  0.4502  1.1725  0.0010
 1022MOL0     C34798   7.322   9.180   1.281 -0.4739 -0.0530 -0.2842
 1022MOL0     C34799   7.196   9.229   1.316  0.0254 -0.7255 -0.0066
 1022MOL0     C34800   7.084   9.205   1.236 -0.2863  0.4821  0.4136
 1022MOL0     C34801   6.950   9.241   1.287  0.5377 -0.0374 -0.9133
 1022MOL0     O34802   6.938   9.297   1.419  0.8998  0.9529 -0.4099
 1022MOL0     C34803   6.812   9.335   1.460 -0.1277  0.6272  0.6728
 1022MOL0     C34804   6.752   9.451   1.408  0.4033  0.4206  0.2209
 1022MOL0     C34805   6.625   9.491   1.434 -0.0395 -0.5276  0.6048
 1022MOL0     C34806   6.542   9.414   1.525 -0.3172  0.7266  0.2994
 1022MOL0     O34807   6.413   9.465   1.550 -0.2899  0.2251 -0.2492
 1022MOL0     C34808   6.353   9.407   1.659  0.2033 -0.2031  0.5432
 1022MOL0     C34809   6.224   9.480   1.675 -0.7254  0.3358  1.1145
 1022MOL0     C34810   6.117   9.405   1.761 -0.3096  0.1129  0.3751
 1022MOL0     C34811   5.980   9.483   1.745 -0.0766 -0.4751 -0.3116
 1022MOL0     C34812   5.848   9.396   1.765  0.1776  0.1139  0.6690
 1022MOL0     C34813   5.719   9.469   1.777 -0.5886 -0.0566  0.5432
 1022MOL0     C34814   5.694   9.569   1.660 -0.1188 -0.5234  0.2847
 1022MOL0     C34815   5.548   9.571   1.608  0.5859 -0.2825 -0.6446
 1022MOL0    Cl34816   5.495   9.404   1.567 -0.7245 -0.2858  0.1722
 1022MOL0     C34817   6.602   9.297   1.582  0.1895 -0.2550 -0.2314
 1022MOL0     C34818   6.739   9.264   1.557 -0.4194 -1.4423  0.4470
 1022MOL0     O34819   6.852   9.226   1.217 -0.1383  0.2612 -0.3720
 1022MOL0     C34820   7.099   9.118   1.120 -1.0752 -0.3674  0.1242
 1022MOL0     C34821   7.217   9.048   1.104 -1.4111 -0.6393  0.2006
 1022MOL0     N34822   7.937   8.962   0.913  0.2397  0.3255  0.5628
 1022MOL0     N34823   8.064   8.987   0.895  0.3470  0.0038  0.3116
 1022MOL0     C34824   8.738   9.617   0.235  0.1574 -0.2170  0.3608
 1022MOL0     C34825   8.847   9.706   0.228  0.0166 -0.4536  0.1759
 1022MOL0     C34826   9.283   9.863   0.331  0.2889 -0.0637 -0.6374
 1022MOL0     C34827   9.380   9.871   0.434 -0.3336  0.3703  0.4707
 1022MOL0     C34828   9.502   9.937   0.412  0.0425 -0.4440  0.4166
 1022MOL0     C34829   9.533   9.988   0.281  0.1986  0.1131 -0.6360
 1022MOL0     O34830   9.664  10.038   0.240  1.3666 -0.1642 -0.8804
 1022MOL0     C34831   9.752  10.081   0.339  0.2354 -0.9798 -0.1656
 1022MOL0     C34832   9.852  10.163   0.269  0.4287  0.0890 -0.8579
 1022MOL0     C34833   9.945  10.255   0.355 -0.0738 -0.6706 -0.7566
 1022MOL0     C34834  10.090  10.223   0.310  0.3631  0.1834 -0.0332
 1022MOL0     C34835  10.181  10.332   0.350  0.2651  0.6665  0.6599
 1022MOL0     C34836  10.259  10.420   0.367  0.1159 -0.4346 -0.0684
 1022MOL0     C34837   9.430   9.995   0.190 -1.0947 -0.7328 -0.1032
 1022MOL0     C34838   9.310   9.922   0.207  0.4623 -0.5357  0.0100
 1022MOL0     H34839   9.087   9.528   0.387  0.9487  1.4063  0.1120
 1022MOL0     H34840   8.900   9.352   0.376 -0.6787 -0.7623 -2.1426
 1022MOL0     H34841   8.528   9.464   0.470 -0.5234  1.0537 -1.6110
 1022MOL0     H34842   8.698   9.406   0.502  0.5521 -1.4425 -0.1541
 1022MOL0     H34843   8.646   9.185   0.438  0.3725  0.0901  2.6242
 1022MOL0     H34844   8.487   9.226   0.375  0.9686 -1.9193  0.1183
 1022MOL0     H34845   8.406   9.296   0.590 -0.2890 -0.7005  0.3557
 1022MOL0     H34846   8.562   9.260   0.669 -2.7943 -0.5377  1.8205
 1022MOL0     H34847   8.383   9.061   0.527 -1.2043  0.8506  1.4258
 1022MOL0     H34848   8.538   9.022   0.602 -0.0435 -0.8617  2.1260
 1022MOL0     H34849   8.289   9.116   0.756  0.8690 -0.0184  2.4421
 1022MOL0     H34850   8.439   9.098   0.824 -2.5287 -0.4525  1.8216
 1022MOL0     H34851   8.420   8.860   0.693 -0.2634 -0.1633 -1.9513
 1022MOL0     H34852   8.251   8.880   0.724  0.3692  3.0174 -3.7354
 1022MOL0     H34853   8.353   8.757   0.917 -3.1028  0.6365  3.7317
 1022MOL0     H34854   8.473   8.891   0.935 -0.5998  2.0638  0.7770
 1022MOL0     H34855   8.301   9.042   1.018  0.4710 -0.1560  3.3998
 1022MOL0     H34856   8.320   8.888   1.104 -0.2092 -0.6614  0.4324
 1022MOL0     H34857   8.078   8.757   1.125 -0.5270  2.2947  1.3941
 1022MOL0     H34858   7.824   8.843   1.192  1.5158  0.4036  0.2192
 1022MOL0     H34859   7.806   8.704   1.093 -1.7707 -0.5270 -0.9897
 1022MOL0     H34860   7.687   8.846   0.917 -0.3256 -2.6610  0.2020
 1022MOL0     H34861   7.678   8.978   1.034  0.6681 -0.2339 -1.0549
 1022MOL0     H34862   7.531   8.716   1.053 -1.5933  0.0217  1.3328
 1022MOL0     H34863   7.592   8.784   1.202 -2.2688  0.6208  0.4977
 1022MOL0     H34864   7.358   8.847   1.141 -0.1528 -0.0577  0.0547
 1022MOL0     H34865   7.419   8.916   0.992 -1.0576 -0.9356 -0.7592
 1022MOL0     H34866   7.402   9.203   1.351  0.9035 -1.5984 -1.2658
 1022MOL0     H34867   7.165   9.289   1.401 -3.9805  2.4493 -3.2651
 1022MOL0     H34868   6.805   9.509   1.332 -0.9851  0.3040 -0.8925
 1022MOL0     H34869   6.581   9.576   1.382 -2.5424 -2.3131 -0.3652
 1022MOL0     H34870   6.415   9.421   1.748 -0.1748 -1.2774  0.9889
 1022MOL0     H34871   6.337   9.301   1.640 -2.3266  0.4975 -2.0993
 1022MOL0     H34872   6.177   9.493   1.578  2.9360  2.1794 -0.6325
 1022MOL0     H34873   6.248   9.578   1.717 -1.4143 -0.6059  3.9487
 1022MOL0     H34874   6.155   9.391   1.862 -0.0212  0.7747  0.3666
 1022MOL0     H34875   6.090   9.305   1.726 -0.9079 -0.0020  1.1262
 1022MOL0     H34876   5.981   9.559   1.824  0.4928 -1.1838  0.3796
 1022MOL0     H34877   5.981   9.541   1.653  3.2073  2.5936  1.3948
 1022MOL0     H34878   5.863   9.337   1.856 -0.4940  1.9568  2.0319
 1022MOL0     H34879   5.845   9.320   1.686 -0.5939  0.1951  0.6097
 1022MOL0     H34880   5.734   9.529   1.867  0.2752  2.8457 -1.3771
 1022MOL0     H34881   5.635   9.400   1.789 -0.1630 -1.2012 -2.1721
 1022MOL0     H34882   5.722   9.671   1.687 -2.3022  0.5129 -1.0892
 1022MOL0     H34883   5.760   9.541   1.578  1.0049  0.2433  0.8999
 1022MOL0     H34884   5.538   9.639   1.523 -2.4331  2.9442  2.0074
 1022MOL0     H34885   5.484   9.601   1.692  0.3252 -0.6654 -0.7019
 1022MOL0     H34886   6.535   9.244   1.649 -0.2822  3.6154  2.7014
 1022MOL0     H34887   6.781   9.174   1.600  1.4098 -0.5929  0.5727
 1022MOL0     H34888   7.027   9.101   1.041  2.8252 -1.3847 -3.6180
 1022MOL0     H34889   7.224   8.976   1.023 -1.2657  0.1170 -0.4761
 1022MOL0     H34890   8.642   9.652   0.198  0.7117  1.2503  0.2359
 1022MOL0     H34891   8.830   9.795   0.168  2.9521 -2.5203 -4.2965
 1022MOL0     H34892   9.375   9.837   0.537  3.2546 -2.5899 -0.1125
 1022MOL0     H34893   9.576   9.941   0.491  1.7187  2.1005 -1.1237
 1022MOL0     H34894   9.795  10.006   0.405  1.0419  0.6081  1.1900
 1022MOL0     H34895   9.697  10.158   0.394 -1.7518 -0.0590 -3.1631
 1022MOL0     H34896   9.911  10.095   0.207  1.3277  0.5436 -0.5301
 1022MOL0     H34897   9.801  10.231   0.200 -1.2840 -1.6942 -1.4291
 1022MOL0     H34898   9.939  10.239   0.463  3.6667 -2.5435 -0.6296
 1022MOL0     H34899   9.922  10.358   0.327  1.5308 -0.0791 -0.0105
 1022MOL0     H34900  10.115  10.131   0.363  1.5135 -0.8720 -2.2909
 1022MOL0     H34901  10.095  10.192   0.206  1.6815 -2.1042  0.6555
 1022MOL0     H34902  10.319  10.508   0.378 -0.0062 -0.4950  1.2440
 1022MOL0     H34903   9.443  10.044   0.094 -0.6210  1.3258  0.9611
 1022MOL0     H34904   9.230   9.937   0.135 -0.0603 -1.5639  0.3548
 1023MOL0     O34905   6.426   6.286   6.107  0.0959 -0.5977 -0.4325
 1023MOL0     C34906   6.480   6.170   6.109 -0.2389  0.2238  1.1344
 1023MOL0     O34907   6.417   6.053   6.106  0.0965  0.1850 -0.4464
 1023MOL0     C34908   6.280   6.055   6.100  0.3016  1.1885 -0.1903
 1023MOL0     C34909   6.197   6.000   6.203 -0.3181  0.3470 -0.1995
 1023MOL0     C34910   6.058   5.995   6.190  0.1288  0.4565 -1.2296
 1023MOL0     C34911   5.989   6.041   6.078  0.1920  0.0306 -0.1018
 1023MOL0     O34912   5.853   6.018   6.054  0.6115  0.1497  0.0530
 1023MOL0     C34913   5.775   6.059   6.167  0.1340 -0.2596 -0.3127
 1023MOL0     C34914   5.630   6.080   6.125  0.4578 -0.3334  0.0989
 1023MOL0     C34915   5.566   5.956   6.093  0.2214 -0.2393  0.4648
 1023MOL0     C34916   5.428   5.997   6.028  1.4140  0.2190 -0.0914
 1023MOL0     C34917   5.323   5.881   6.023 -0.3884  0.5458 -0.2641
 1023MOL0     C34918   5.187   5.905   5.955 -0.8911 -0.0293  0.6117
 1023MOL0     C34919   5.092   5.788   5.967  0.4687  0.5808  0.3612
 1023MOL0     C34920   4.952   5.836   5.948 -0.4674 -0.2911 -0.6166
 1023MOL0     N34921   4.918   5.878   5.807 -0.0319  0.2108  0.1481
 1023MOL0     C34922   4.841   5.809   5.720 -0.8538  0.3191 -0.3008
 1023MOL0     C34923   4.822   5.890   5.620 -0.0576 -0.9571  0.9841
 1023MOL0     C34924   4.751   5.855   5.498 -0.2334 -0.3336  0.1844
 1023MOL0     C34925   4.618   5.786   5.538  0.8614 -0.1646  0.8486
 1023MOL0     C34926   4.507   5.783   5.434 -0.6243  0.4720 -0.4683
 1023MOL0     C34927   4.378   5.711   5.465  0.2140  0.1953 -0.8753
 1023MOL0     O34928   4.321   5.658   5.345  0.8557  0.0633 -0.0408
 1023MOL0     C34929   4.181   5.627   5.343  0.3567  0.3907  0.7483
 1023MOL0     C34930   4.099   5.668   5.446 -0.6002 -0.1820 -1.1193
 1023MOL0     C34931   3.968   5.629   5.445  0.2735 -0.9293 -0.1124
 1023MOL0     C34932   3.901   5.566   5.333 -0.4547 -0.6202 -0.2214
 1023MOL0     C34933   3.764   5.533   5.333  0.6226  0.7060  0.2865
 1023MOL0     O34934   3.697   5.568   5.447 -0.3850 -0.0108  0.7250
 1023MOL0     C34935   3.571   5.511   5.447 -1.8123 -0.0615 -0.2062
 1023MOL0     C34936   3.550   5.394   5.517  0.7133 -0.0994 -0.2458
 1023MOL0     C34937   3.421   5.368   5.555 -0.2972 -0.2984 -0.3560
 1023MOL0     C34938   3.310   5.448   5.522  0.0274  0.3160  0.5532
 1023MOL0     O34939   3.190   5.428   5.574  0.4762 -1.0108  0.3175
 1023MOL0     C34940   3.130   5.299   5.545 -0.2256  0.0926 -0.1226
 1023MOL0     C34941   2.982   5.293   5.584 -0.2655 -0.1666  0.7600
 1023MOL0     C34942   2.933   5.149   5.568 -0.0951 -0.5423  0.1817
 1023MOL0     C34943   2.785   5.136   5.607  0.4344 -0.6950 -0.5891
 1023MOL0     C34944   2.735   4.990   5.601  0.5481  0.2468 -0.1806
 1023MOL0     C34945   2.602   4.968   5.674  0.1655  0.2246  0.3568
 1023MOL0     C34946   2.558   4.821   5.653 -0.4151 -1.1093 -0.2501
 1023MOL0     C34947   2.432   4.791   5.735 -0.4425  0.4547 -0.1842
 1023MOL0    Cl34948   2.331   4.692   5.644  0.4226 -0.1504  0.1365
 1023MOL0     C34949   3.330   5.553   5.443 -0.2246 -1.2491 -0.1669
 1023MOL0     C34950   3.463   5.593   5.413 -0.1516 -0.2521 -0.3678
 1023MOL0     O34951   3.711   5.486   5.230 -0.5619 -0.3317 -0.0462
 1023MOL0     C34952   3.989   5.516   5.229 -0.0557 -0.3170  0.0971
 1023MOL0     C34953   4.128   5.540   5.238 -0.6157  0.0655  0.0604
 1023MOL0     N34954   4.883   6.016   5.652  0.8078  0.2544 -0.3732
 1023MOL0     N34955   4.940   5.999   5.765 -0.2721 -1.0327  0.0300
 1023MOL0     C34956   6.070   6.113   5.976  0.7185  0.7025 -0.4645
 1023MOL0     C34957   6.211   6.116   5.991 -0.1267 -0.0660 -0.1626
 1023MOL0     C34958   6.631   6.151   6.098  0.7731 -0.5763 -0.1554
 1023MOL0     C34959   6.693   6.026   6.113 -0.5166 -0.1445  0.0228
 1023MOL0     C34960   6.834   6.025   6.112 -0.3803  0.5398 -0.9598
 1023MOL0     C34961   6.911   6.130   6.081  0.4396 -0.9434 -0.4579
 1023MOL0     O34962   7.047   6.147   6.099  0.0597 -0.2463  0.2377
 1023MOL0     C34963   7.124   6.029   6.103 -0.0764 -0.0499  0.2558
 1023MOL0     C34964   7.284   6.040   6.081  0.0446  0.0849 -0.5265
 1023MOL0     C34965   7.312   6.093   5.939  1.3131 -0.1971  0.3434
 1023MOL0     C34966   7.456   6.080   5.906  1.0076 -0.1589 -0.2654
 1023MOL0     C34967   7.528   6.193   5.971  0.6097  0.8388  0.1494
 1023MOL0     C34968   7.611   6.270   6.018 -0.0017 -0.0697 -0.2432
 1023MOL0     C34969   6.847   6.251   6.049  0.6117 -0.7681 -0.7061
 1023MOL0     C34970   6.703   6.266   6.062  0.0283 -0.6068  0.1341
 1023MOL0     H34971   6.244   5.954   6.290 -0.7277 -1.6765 -0.9845
 1023MOL0     H34972   6.004   5.944   6.270 -2.6922  0.5811 -2.9221
 1023MOL0     H34973   5.812   6.148   6.219 -1.3966 -0.6863  1.6795
 1023MOL0     H34974   5.774   5.987   6.250 -0.3056 -0.1265 -0.1963
 1023MOL0     H34975   5.629   6.147   6.039 -0.3271  2.6551  2.2714
 1023MOL0     H34976   5.577   6.130   6.207  0.3369  0.5409 -0.4984
 1023MOL0     H34977   5.560   5.899   6.186  0.1206 -0.4397  0.3372
 1023MOL0     H34978   5.627   5.898   6.024 -0.9666 -0.4085 -0.4984
 1023MOL0     H34979   5.383   6.072   6.093 -0.9126 -2.1916  1.3093
 1023MOL0     H34980   5.444   6.024   5.923 -0.6058  2.4350  0.1007
 1023MOL0     H34981   5.292   5.846   6.122 -0.1957  1.4214  0.1213
 1023MOL0     H34982   5.373   5.791   5.987  0.9034 -0.3699  3.3725
 1023MOL0     H34983   5.208   5.923   5.850 -0.5987 -3.2903 -0.0037
 1023MOL0     H34984   5.141   5.994   5.999 -0.2367 -0.6150  2.6360
 1023MOL0     H34985   5.116   5.714   5.890 -1.8824 -0.5768  0.6619
 1023MOL0     H34986   5.110   5.729   6.058 -0.2025 -1.0517 -0.5276
 1023MOL0     H34987   4.944   5.932   6.000 -2.4412  1.3424 -3.6300
 1023MOL0     H34988   4.879   5.762   5.982 -1.3748 -0.1160 -2.0726
 1023MOL0     H34989   4.800   5.709   5.732 -2.0184  0.6983 -1.0119
 1023MOL0     H34990   4.815   5.802   5.427 -1.2065 -0.2191 -0.8160
 1023MOL0     H34991   4.719   5.944   5.443  0.1981  1.4469  2.6995
 1023MOL0     H34992   4.569   5.838   5.620 -0.5656 -2.6815  1.7069
 1023MOL0     H34993   4.638   5.685   5.576  2.1116  0.5355  2.1054
 1023MOL0     H34994   4.481   5.886   5.412 -0.3892  1.0716  1.7848
 1023MOL0     H34995   4.535   5.726   5.345  2.0316 -1.2959  1.3207
 1023MOL0     H34996   4.325   5.798   5.506 -0.0788 -0.1377 -0.5409
 1023MOL0     H34997   4.394   5.628   5.534 -0.5693  0.9723  0.2777
 1023MOL0     H34998   4.123   5.728   5.534 -0.2913 -2.4280  0.4001
 1023MOL0     H34999   3.911   5.658   5.533  0.7902  1.5582 -0.5251
 1023MOL0     H35000   3.625   5.324   5.553 -0.0819  0.2710  2.3556
 1023MOL0     H35001   3.399   5.278   5.612 -0.7158  1.7777  3.0607
 1023MOL0     H35002   3.184   5.221   5.601  2.4176  0.1420 -2.3784
 1023MOL0     H35003   3.150   5.272   5.441  0.3500 -1.2801  0.3198
 1023MOL0     H35004   2.919   5.356   5.521  1.0107  0.6477  0.2695
 1023MOL0     H35005   2.967   5.320   5.689  3.4097  3.9174  0.4937
 1023MOL0     H35006   2.995   5.086   5.631 -0.0964  1.1299  1.9325
 1023MOL0     H35007   2.941   5.120   5.462 -2.1279  2.8122 -1.0706
 1023MOL0     H35008   2.780   5.171   5.711 -1.1996 -1.0946 -0.5009
 1023MOL0     H35009   2.725   5.207   5.549  1.6398 -0.2908 -1.3829
 1023MOL0     H35010   2.801   4.916   5.647  0.0278  1.4478  2.7124
 1023MOL0     H35011   2.731   4.959   5.496  0.3021  1.8987 -0.6884
 1023MOL0     H35012   2.528   5.039   5.635  2.1662  1.5215 -1.3508
 1023MOL0     H35013   2.616   4.984   5.781 -3.2282 -2.2699  1.3162
 1023MOL0     H35014   2.526   4.808   5.549 -2.6436  0.0120  0.2238
 1023MOL0     H35015   2.644   4.756   5.670  1.1959  0.3792 -2.1677
 1023MOL0     H35016   2.372   4.875   5.769 -0.8012 -1.0521  3.4464
 1023MOL0     H35017   2.473   4.739   5.823 -1.0538 -0.2645 -0.3227
 1023MOL0     H35018   3.250   5.625   5.429 -2.0177 -2.9341  1.0618
 1023MOL0     H35019   3.482   5.688   5.363  0.4553 -0.6568 -0.9215
 1023MOL0     H35020   3.940   5.453   5.155  1.0877  0.3508 -1.2617
 1023MOL0     H35021   4.195   5.501   5.162  2.6085  0.3900  2.5490
 1023MOL0     H35022   6.025   6.159   5.888 -2.8736 -2.0819 -0.3126
 1023MOL0     H35023   6.264   6.166   5.910 -0.1614 -0.0491 -0.1755
 1023MOL0     H35024   6.641   5.933   6.129  0.1310 -0.3504  1.0302
 1023MOL0     H35025   6.878   5.926   6.125 -2.0120 -0.2852 -1.4952
 1023MOL0     H35026   7.087   5.976   6.015 -0.1214  0.0656  0.2055
 1023MOL0     H35027   7.100   5.970   6.192 -2.5460  0.0667 -0.2576
 1023MOL0     H35028   7.327   6.106   6.156  0.1741 -1.6142  0.9490
 1023MOL0     H35029   7.322   5.940   6.103 -2.1561 -0.4602  1.1838
 1023MOL0     H35030   7.279   6.197   5.945 -0.2860 -0.6797  0.4462
 1023MOL0     H35031   7.254   6.038   5.864  1.3760 -0.1769  0.2794
 1023MOL0     H35032   7.498   5.985   5.940 -0.3525 -1.5559 -2.2341
 1023MOL0     H35033   7.475   6.075   5.799 -1.5066  0.2234 -0.7935
 1023MOL0     H35034   7.688   6.335   6.052  1.1853 -2.1357  1.2496
 1023MOL0     H35035   6.912   6.335   6.026 -2.2467  2.1022  0.8665
 1023MOL0     H35036   6.656   6.356   6.024  1.1679 -1.0996 -2.6534
 1024MOL0     O35037   2.684   1.446  11.057  0.3914  0.1937  0.1182
 1024MOL0     C35038   2.645   1.460  11.171 -0.5358 -1.0169  0.9619
 1024MOL0     O35039   2.535   1.528  11.209  0.3963 -0.2756  0.1131
 1024MOL0     C35040   2.452   1.586  11.119  0.4602  1.4494 -0.4966
 1024MOL0     C35041   2.345   1.509  11.064  0.2967 -0.1222  0.1702
 1024MOL0     C35042   2.250   1.570  10.989 -0.2832  0.4543  0.0421
 1024MOL0     C35043   2.254   1.703  10.960 -0.6716 -0.7254  0.1248
 1024MOL0     O35044   2.159   1.752  10.875  0.1638 -0.7461  0.2914
 1024MOL0     C35045   2.188   1.871  10.792  0.0092  0.6413  0.1018
 1024MOL0     C35046   2.066   1.903  10.694  0.4340 -0.4285 -1.1931
 1024MOL0     C35047   1.922   1.861  10.755  0.8040 -0.0664  0.2771
 1024MOL0     C35048   1.805   1.907  10.673  0.6697 -0.7656 -0.7218
 1024MOL0     C35049   1.800   1.845  10.536  0.3338  0.3643 -0.1257
 1024MOL0     C35050   1.679   1.910  10.459  0.6210  0.7029  0.1212
 1024MOL0     C35051   1.660   1.830  10.327 -0.1423 -0.6089  0.0048
 1024MOL0     C35052   1.777   1.826  10.238  0.1416  0.5706  0.1587
 1024MOL0     N35053   1.736   1.760  10.110 -0.5104 -0.1506  0.6195
 1024MOL0     C35054   1.653   1.657  10.091  0.7024  0.2977 -1.5421
 1024MOL0     C35055   1.649   1.650   9.957 -0.0370  0.2352  0.3385
 1024MOL0     C35056   1.574   1.543   9.882  1.1023 -0.2950  0.6680
 1024MOL0     C35057   1.497   1.590   9.759  0.1582  0.2859  0.2562
 1024MOL0     C35058   1.347   1.587   9.787  0.2812  0.1677  0.6566
 1024MOL0     C35059   1.268   1.679   9.681  0.0894  0.1966 -1.0727
 1024MOL0     O35060   1.289   1.616   9.556  0.0429 -0.4769 -0.0942
 1024MOL0     C35061   1.202   1.650   9.458  0.8914 -0.6451 -0.1321
 1024MOL0     C35062   1.181   1.556   9.360 -0.1591  0.4809  0.5047
 1024MOL0     C35063   1.071   1.566   9.275  0.3006 -0.4070  0.3943
 1024MOL0     C35064   1.000   1.684   9.263 -0.0480 -0.0898 -0.4854
 1024MOL0     C35065   0.908   1.693   9.153 -0.0973 -1.2622 -0.7655
 1024MOL0     O35066   0.878   1.816   9.099  0.2788  0.3469 -0.1452
 1024MOL0     C35067   0.802   1.811   8.980 -0.1557 -0.0775 -0.5873
 1024MOL0     C35068   0.663   1.857   8.980 -0.7581 -0.0138  0.8380
 1024MOL0     C35069   0.585   1.847   8.861  0.8996  0.2724 -0.9404
 1024MOL0     C35070   0.637   1.782   8.748 -0.1904  0.1603  0.0479
 1024MOL0     O35071   0.551   1.764   8.641  0.6553 -0.1234  0.2722
 1024MOL0     C35072   0.600   1.830   8.529 -0.0873  0.3092  0.5815
 1024MOL0     C35073   0.482   1.880   8.443 -0.6068 -0.8742  0.3686
 1024MOL0     C35074   0.387   1.770   8.411 -0.2613 -0.9064 -0.0205
 1024MOL0     C35075   0.306   1.816   8.282  0.0380  0.1561  0.9679
 1024MOL0     C35076   0.203   1.708   8.238 -0.4442  0.6041  0.0721
 1024MOL0     C35077   0.073   1.710   8.308  0.0268  0.6354  0.0031
 1024MOL0     C35078  -0.025   1.598   8.243  0.0729  0.3731  0.3501
 1024MOL0     C35079  -0.159   1.607   8.309 -0.0773  0.1294 -0.1915
 1024MOL0    Cl35080  -0.231   1.772   8.306 -0.1416  0.0576 -0.2086
 1024MOL0     C35081   0.776   1.756   8.739  0.3644  0.4568 -0.9878
 1024MOL0     C35082   0.857   1.767   8.862  0.3036 -0.3993  0.9247
 1024MOL0     O35083   0.873   1.592   9.097  0.2310  0.4184 -0.1094
 1024MOL0     C35084   1.030   1.799   9.352  0.5547  0.3288 -0.5799
 1024MOL0     C35085   1.121   1.773   9.453 -0.9770  0.7197 -0.3830
 1024MOL0     N35086   1.733   1.742   9.897 -0.3784  0.7073 -0.2230
 1024MOL0     N35087   1.796   1.800   9.996  0.5484  0.2170  1.0271
 1024MOL0     C35088   2.360   1.783  11.013 -0.4351  0.2758  0.9547
 1024MOL0     C35089   2.464   1.714  11.088  0.8794  0.2512  0.3698
 1024MOL0     C35090   2.723   1.386  11.266  0.4327 -0.3860  0.3411
 1024MOL0     C35091   2.861   1.377  11.248  0.1477 -0.1372  0.1151
 1024MOL0     C35092   2.936   1.306  11.347  0.1222  0.0591 -0.3326
 1024MOL0     C35093   2.865   1.261  11.466  0.0337 -0.5668 -1.1822
 1024MOL0     O35094   2.913   1.177  11.559  0.1990 -0.0789  0.1938
 1024MOL0     C35095   3.053   1.154  11.570  0.4729 -0.7487 -0.8235
 1024MOL0     C35096   3.129   1.284  11.620  0.1331  0.4929 -0.1410
 1024MOL0     C35097   3.269   1.255  11.674  0.2230  0.5439 -0.0668
 1024MOL0     C35098   3.371   1.314  11.587 -0.5710  0.0702  0.7441
 1024MOL0     C35099   3.505   1.259  11.617  0.1370 -0.7878  0.5721
 1024MOL0     C35100   3.615   1.212  11.648  0.8950  0.1225 -0.5046
 1024MOL0     C35101   2.723   1.278  11.484 -0.0925  0.3646  0.3347
 1024MOL0     C35102   2.653   1.338  11.373  0.4530  0.6116  0.1826
 1024MOL0     H35103   2.335   1.402  11.077 -0.4382  0.0100  0.7587
 1024MOL0     H35104   2.167   1.503  10.964  1.3029 -1.1747 -1.0998
 1024MOL0     H35105   2.282   1.858  10.739 -0.0360  2.5404 -0.5177
 1024MOL0     H35106   2.195   1.965  10.848  0.9660  0.9084 -0.4477
 1024MOL0     H35107   2.090   1.858  10.597 -0.1912  2.5526 -2.8437
 1024MOL0     H35108   2.067   2.008  10.665  2.7951 -0.1403 -0.3374
 1024MOL0     H35109   1.922   1.911  10.852 -1.4086 -3.5083  2.2585
 1024MOL0     H35110   1.916   1.754  10.777  2.5970  0.0521  1.6103
 1024MOL0     H35111   1.711   1.882  10.724 -1.8284  0.2492 -4.4449
 1024MOL0     H35112   1.804   2.015  10.661 -2.4686 -0.6928 -0.5708
 1024MOL0     H35113   1.777   1.739  10.556 -0.5782  0.3822 -0.9732
 1024MOL0     H35114   1.893   1.851  10.480  0.6867 -1.7339  0.1333
 1024MOL0     H35115   1.704   2.014  10.435 -1.3312  1.4228  1.0165
 1024MOL0     H35116   1.597   1.908  10.530  1.8270 -1.8674  1.5680
 1024MOL0     H35117   1.633   1.727  10.355 -0.8651 -0.7547 -1.1701
 1024MOL0     H35118   1.580   1.872  10.266  1.2042  0.3808 -1.1407
 1024MOL0     H35119   1.838   1.749  10.286 -0.0869 -0.9185 -1.8037
 1024MOL0     H35120   1.827   1.920  10.215  2.1675 -0.4971 -0.0175
 1024MOL0     H35121   1.618   1.590  10.169  1.2672 -0.4530 -1.9182
 1024MOL0     H35122   1.501   1.497   9.949 -0.2767 -1.5161 -1.5323
 1024MOL0     H35123   1.645   1.464   9.853  0.7659  0.0889 -1.3843
 1024MOL0     H35124   1.509   1.518   9.678 -3.0206  0.6411 -0.6923
 1024MOL0     H35125   1.538   1.687   9.730  0.8182  1.2081  3.7742
 1024MOL0     H35126   1.327   1.480   9.777  3.0328 -0.3414 -0.4468
 1024MOL0     H35127   1.331   1.615   9.891 -0.2924  2.1737  0.0537
 1024MOL0     H35128   1.315   1.777   9.671  0.6065 -0.1097 -1.7829
 1024MOL0     H35129   1.163   1.694   9.706  0.5316  0.6480  0.6238
 1024MOL0     H35130   1.237   1.463   9.366 -2.2816 -0.7520  2.7700
 1024MOL0     H35131   1.046   1.492   9.199 -2.0875  1.4761 -0.8142
 1024MOL0     H35132   0.614   1.891   9.071  0.2269  3.4944  0.2179
 1024MOL0     H35133   0.484   1.886   8.868  0.2379 -1.4673 -0.4034
 1024MOL0     H35134   0.649   1.751   8.470 -1.9662 -0.6048  0.1561
 1024MOL0     H35135   0.670   1.913   8.538 -2.5076  2.6312 -0.3798
 1024MOL0     H35136   0.526   1.929   8.356 -0.1043 -0.5080  0.8202
 1024MOL0     H35137   0.443   1.961   8.506  2.6924  0.6843  0.6380
 1024MOL0     H35138   0.332   1.757   8.504  0.1714  0.4345  0.4313
 1024MOL0     H35139   0.451   1.683   8.392  0.1943  0.1560 -4.4402
 1024MOL0     H35140   0.258   1.912   8.302  2.5969  2.0223 -1.1995
 1024MOL0     H35141   0.365   1.840   8.193 -0.7452 -0.0666  0.3795
 1024MOL0     H35142   0.244   1.607   8.251 -0.5970  0.5863  0.4050
 1024MOL0     H35143   0.180   1.714   8.131 -2.0813 -1.1926  0.2700
 1024MOL0     H35144   0.028   1.809   8.293  0.8648  1.0313  0.0282
 1024MOL0     H35145   0.083   1.688   8.415  0.8232 -1.7922 -0.5058
 1024MOL0     H35146  -0.027   1.620   8.135 -0.1544  0.6788  0.4140
 1024MOL0     H35147   0.002   1.494   8.259  2.6810  1.1214  1.2220
 1024MOL0     H35148  -0.143   1.588   8.416 -1.4829  1.6297  0.3270
 1024MOL0     H35149  -0.236   1.539   8.270 -2.7462  1.9675  1.4905
 1024MOL0     H35150   0.811   1.717   8.645 -3.7881  1.8280 -3.3718
 1024MOL0     H35151   0.959   1.736   8.843  1.7551  3.7465  1.0306
 1024MOL0     H35152   0.973   1.890   9.339 -1.4841 -0.2002  3.3016
 1024MOL0     H35153   1.133   1.843   9.535 -1.9899 -0.4621  0.8202
 1024MOL0     H35154   2.367   1.888  10.985 -1.7679 -0.4911 -2.7702
 1024MOL0     H35155   2.540   1.786  11.117 -1.2938  3.5469 -1.3911
 1024MOL0     H35156   2.910   1.424  11.164 -1.3265  1.8899  0.3229
 1024MOL0     H35157   3.042   1.283  11.335 -0.4364 -1.4546 -3.6405
 1024MOL0     H35158   3.094   1.120  11.474  0.2870 -1.9557 -0.4957
 1024MOL0     H35159   3.070   1.065  11.631  0.4921 -1.2321 -1.5245
 1024MOL0     H35160   3.146   1.371  11.557  0.3860  0.8742  0.4454
 1024MOL0     H35161   3.068   1.317  11.705 -1.2624 -2.0772 -0.0499
 1024MOL0     H35162   3.293   1.149  11.684 -0.2823  0.2941 -1.3015
 1024MOL0     H35163   3.286   1.301  11.772  3.3378  2.0313 -1.1448
 1024MOL0     H35164   3.351   1.307  11.479  0.2980  1.2421  0.4856
 1024MOL0     H35165   3.373   1.422  11.606  3.1869 -0.0114  1.5944
 1024MOL0     H35166   3.711   1.178  11.680  0.0791 -1.6652  0.1665
 1024MOL0     H35167   2.679   1.250  11.579 -0.1500  0.8399  0.4500
 1024MOL0     H35168   2.548   1.344  11.398  0.0493  0.4857 -1.3387
  11.24273  11.24273  11.24273
